THF-PF6-Na          Amber RESP
15256
    1THF     O1    1   4.162   0.329   3.637 -0.2259  0.4458  0.2423
    1THF     C2    2   4.238   0.336   3.759 -0.4977 -0.4811 -0.5147
    1THF     C3    3   4.053   0.244   3.650  0.1029 -0.5520  0.4236
    1THF     H4    4   4.241   0.442   3.781 -0.2563 -0.8160  1.2042
    1THF     H5    5   4.333   0.283   3.753  0.5762  0.9882  2.1161
    1THF     H6    6   3.968   0.270   3.586  0.3322  1.2224  0.7928
    1THF     H7    7   4.086   0.144   3.624 -0.1347 -0.6474  0.4834
    1THF     C8    8   4.013   0.262   3.789  0.0730  0.2928 -0.1549
    1THF     C9    9   4.151   0.267   3.862 -0.4403 -0.5438 -0.4923
    1THF    H10   10   3.943   0.190   3.831  0.0452  0.3398 -0.1199
    1THF    H11   11   3.960   0.357   3.791  1.0068  0.8526 -0.9230
    1THF    H12   12   4.144   0.312   3.961  0.7211 -2.6947  0.6411
    1THF    H13   13   4.200   0.170   3.874  0.7158  0.1002  0.0966
    2THF     O1   14   0.396   5.219   0.052 -0.2208  0.3912  0.2957
    2THF     C2   15   0.427   5.169  -0.078 -0.2739  0.5017 -0.5083
    2THF     C3   16   0.464   5.340   0.065 -0.1499  0.2732 -0.5547
    2THF     H4   17   0.362   5.086  -0.106  0.7707 -0.7522  0.6299
    2THF     H5   18   0.530   5.136  -0.086  0.0532  1.4562 -0.3836
    2THF     H6   19   0.422   5.405   0.143 -0.6918 -1.2297  0.4499
    2THF     H7   20   0.567   5.309   0.080  0.2727  0.2059 -3.1638
    2THF     C8   21   0.467   5.403  -0.074  0.3521 -0.4436 -0.2201
    2THF     C9   22   0.416   5.290  -0.164  0.6132  0.2348 -0.3355
    2THF    H10   23   0.571   5.428  -0.094  0.6340 -0.5008  1.1334
    2THF    H11   24   0.410   5.495  -0.087 -0.9051 -1.3405 -1.2915
    2THF    H12   25   0.312   5.284  -0.197  0.3067  0.6803  0.5266
    2THF    H13   26   0.473   5.272  -0.255 -1.6351 -1.1431 -1.5766
    3THF     O1   27   3.095   5.284   1.766  0.2443 -0.1363 -0.2720
    3THF     C2   28   3.166   5.276   1.642 -1.1645 -0.7746 -0.3242
    3THF     C3   29   2.966   5.327   1.737 -0.5277 -0.1454 -0.3448
    3THF     H4   30   3.148   5.181   1.591  0.1561 -0.0975 -2.1675
    3THF     H5   31   3.269   5.293   1.670 -1.9483  1.6333  1.3779
    3THF     H6   32   2.906   5.237   1.722  2.0474 -2.0018 -0.0951
    3THF     H7   33   2.931   5.390   1.818  3.2951  1.5366  0.1705
    3THF     C8   34   2.976   5.414   1.612  0.5007 -0.3486  0.4337
    3THF     C9   35   3.118   5.405   1.575 -0.7403  1.0650 -0.1844
    3THF    H10   36   2.958   5.521   1.623  0.1408 -0.2245 -1.1126
    3THF    H11   37   2.909   5.371   1.537 -0.9340  0.7911  1.0314
    3THF    H12   38   3.132   5.393   1.468  1.0467  0.0852  0.1301
    3THF    H13   39   3.168   5.493   1.616 -1.4683  0.3488  2.4243
    4THF     O1   40   4.793   3.759   1.330  0.4543 -0.2345 -0.1519
    4THF     C2   41   4.930   3.758   1.363 -0.2803  0.2521 -0.1788
    4THF     C3   42   4.724   3.843   1.419 -0.7291  0.4003 -0.1691
    4THF     H4   43   4.977   3.846   1.320 -1.5197 -0.1196 -2.4686
    4THF     H5   44   4.988   3.676   1.320 -1.3438 -0.3717 -0.4644
    4THF     H6   45   4.714   3.941   1.374  1.5123  1.2253  0.9925
    4THF     H7   46   4.624   3.805   1.442 -1.3576  1.7125 -0.6535
    4THF     C8   47   4.820   3.851   1.538 -0.1199  0.0344  0.4829
    4THF     C9   48   4.934   3.759   1.515  0.2961 -0.2126  0.4409
    4THF    H10   49   4.757   3.817   1.621 -0.7140  2.5358  1.1249
    4THF    H11   50   4.859   3.951   1.555  0.4243 -0.2918  1.2324
    4THF    H12   51   5.028   3.789   1.560  1.2453 -1.8516 -0.3461
    4THF    H13   52   4.911   3.662   1.558 -0.7128  0.6649  1.9666
    5THF     O1   53   3.695   1.302   4.186 -0.4639 -0.2673 -0.0592
    5THF     C2   54   3.747   1.312   4.055 -0.3445  0.7098 -0.0747
    5THF     C3   55   3.663   1.164   4.216  0.2262  0.4337 -0.1765
    5THF     H4   56   3.850   1.347   4.059  0.3793 -1.2196 -0.5618
    5THF     H5   57   3.679   1.374   3.997 -1.8369  1.2475  2.1462
    5THF     H6   58   3.745   1.118   4.271 -0.2315 -1.1421 -0.7641
    5THF     H7   59   3.570   1.164   4.273  0.3997  0.6298  0.1101
    5THF     C8   60   3.657   1.092   4.083  0.3792 -0.1019  0.8793
    5THF     C9   61   3.764   1.171   3.999  0.4086 -0.6926  0.0926
    5THF    H10   62   3.561   1.098   4.032  0.5485  0.0571  0.5774
    5THF    H11   63   3.680   0.986   4.086  0.5598 -0.0432  2.2442
    5THF    H12   64   3.863   1.140   4.032  1.2252  2.0118  0.4601
    5THF    H13   65   3.748   1.164   3.891 -0.4573 -0.0269  0.1618
    6THF     O1   66   0.977   4.575   5.500  0.2362 -0.1696  0.2374
    6THF     C2   67   1.019   4.580   5.631 -0.7948 -0.1908  0.0411
    6THF     C3   68   0.991   4.699   5.440 -0.0427  0.0756 -0.0051
    6THF     H4   69   1.127   4.582   5.644 -0.6645 -2.1387 -0.4301
    6THF     H5   70   0.983   4.493   5.687  0.4094  0.3058  1.6785
    6THF     H6   71   1.096   4.705   5.408  1.0430 -0.5295  3.0701
    6THF     H7   72   0.933   4.705   5.349 -1.3364 -0.5157  0.7604
    6THF     C8   73   0.954   4.794   5.555 -0.1166 -0.2204  0.6377
    6THF     C9   74   0.962   4.708   5.687 -0.2406  0.2624 -0.1190
    6THF    H10   75   0.852   4.824   5.532 -0.7751 -0.5369  2.9376
    6THF    H11   76   1.007   4.889   5.559  0.1876 -0.3099 -0.6901
    6THF    H12   77   1.018   4.756   5.767  0.7332 -0.2960 -0.4498
    6THF    H13   78   0.861   4.691   5.725  0.0030 -1.7487 -0.2621
    7THF     O1   79   0.765   0.624   2.547 -0.0203 -0.0146  0.2444
    7THF     C2   80   0.854   0.717   2.610  0.3015  0.7730  0.0321
    7THF     C3   81   0.751   0.656   2.408 -0.4532  0.3816  0.0652
    7THF     H4   82   0.948   0.662   2.616 -0.4047 -0.5773 -0.7929
    7THF     H5   83   0.833   0.731   2.716  1.4334 -1.5057  0.6163
    7THF     H6   84   0.799   0.572   2.358 -0.6776 -0.0549  0.5772
    7THF     H7   85   0.644   0.670   2.390 -0.0037  2.4315 -1.5050
    7THF     C8   86   0.835   0.786   2.379  0.9075 -0.3229 -0.2397
    7THF     C9   87   0.856   0.837   2.522  0.5218 -1.1651  0.9227
    7THF    H10   88   0.779   0.860   2.322 -0.7663 -0.5333  1.0522
    7THF    H11   89   0.934   0.757   2.344  1.4243 -0.9856  1.6581
    7THF    H12   90   0.948   0.896   2.522 -0.2301  0.0577  0.1752
    7THF    H13   91   0.777   0.906   2.551  0.7412 -0.4587 -0.1093
    8THF     O1   92   4.078   1.916   3.555  0.1349 -1.1506 -0.3628
    8THF     C2   93   4.121   1.976   3.675 -0.9459 -0.1842 -0.7477
    8THF     C3   94   4.083   2.026   3.463 -0.6778  0.1472 -0.0999
    8THF     H4   95   4.226   1.956   3.695 -1.0971  0.4130  0.7478
    8THF     H5   96   4.082   1.930   3.766  2.8113 -1.9869  0.1487
    8THF     H6   97   4.188   2.038   3.437 -0.4268  2.1073  1.5565
    8THF     H7   98   4.026   2.011   3.371 -0.8331 -3.4420  0.4532
    8THF     C8   99   4.017   2.141   3.535 -0.1669  0.5372 -0.1590
    8THF     C9  100   4.092   2.126   3.666  0.7816  0.0355  0.1474
    8THF    H10  101   3.910   2.131   3.552 -0.2178 -1.4301 -1.3841
    8THF    H11  102   4.030   2.243   3.499 -1.3241  1.0627  0.8359
    8THF    H12  103   4.192   2.168   3.663  2.1159 -2.9172 -0.6371
    8THF    H13  104   4.035   2.163   3.750 -1.3676  0.5783 -1.4519
    9THF     O1  105   1.554   2.258   1.202  0.6998  0.6357  0.4949
    9THF     C2  106   1.540   2.150   1.106  0.3339 -0.1723 -1.1282
    9THF     C3  107   1.593   2.370   1.129  0.6539 -0.7131 -1.7206
    9THF     H4  108   1.471   2.084   1.159  2.6222 -0.8229  1.2793
    9THF     H5  109   1.631   2.093   1.089  0.8392 -0.1637  1.1652
    9THF     H6  110   1.545   2.459   1.169 -0.0545 -0.7157 -2.5420
    9THF     H7  111   1.700   2.384   1.116  0.7536  1.6304  0.7052
    9THF     C8  112   1.533   2.344   0.990 -0.7671 -0.1592  0.4297
    9THF     C9  113   1.476   2.206   0.980 -0.5814  0.2747  0.4198
    9THF    H10  114   1.602   2.355   0.906 -2.3859 -0.4830 -0.9806
    9THF    H11  115   1.458   2.421   0.973  0.5163  0.9817 -0.3855
    9THF    H12  116   1.369   2.223   0.987 -0.5318  1.1962 -0.7559
    9THF    H13  117   1.519   2.159   0.892  1.7488  1.4139  0.8692
   10THF     O1  118   2.740   4.379   1.734  0.4056  0.1261 -0.6499
   10THF     C2  119   2.720   4.263   1.664  0.3453  0.4832  0.5846
   10THF     C3  120   2.682   4.487   1.662 -0.1917  0.1484 -1.0180
   10THF     H4  121   2.754   4.174   1.717  1.5354  0.8743  0.5145
   10THF     H5  122   2.773   4.265   1.568  0.1225 -0.7350  0.4267
   10THF     H6  123   2.647   4.567   1.727 -0.1214 -0.0228 -0.7656
   10THF     H7  124   2.750   4.521   1.583 -1.2971  1.2079 -1.5504
   10THF     C8  125   2.550   4.420   1.605 -0.6405 -0.4012  0.2775
   10THF     C9  126   2.575   4.275   1.617  0.8255  0.9117 -0.2993
   10THF    H10  127   2.539   4.452   1.502  0.7358 -1.3064 -0.1837
   10THF    H11  128   2.453   4.450   1.645 -2.0364 -3.1045 -0.8034
   10THF    H12  129   2.514   4.240   1.700  2.9214 -0.5052  0.7560
   10THF    H13  130   2.549   4.213   1.531 -2.3318  0.9963  0.4742
   11THF     O1  131   3.554   4.619   0.090  0.1830 -0.1100  0.1622
   11THF     C2  132   3.609   4.541   0.193 -0.2983 -0.4544 -0.2855
   11THF     C3  133   3.591   4.565  -0.036 -0.6108  0.3331  0.2490
   11THF     H4  134   3.569   4.440   0.192 -1.1138 -0.1389 -0.9739
   11THF     H5  135   3.608   4.582   0.294  1.7873 -0.3158 -0.2833
   11THF     H6  136   3.517   4.485  -0.042 -1.4902  1.2215 -1.6219
   11THF     H7  137   3.588   4.627  -0.126  0.6595  1.3268  0.8561
   11THF     C8  138   3.732   4.519  -0.006 -0.5863  0.1371 -0.1083
   11THF     C9  139   3.748   4.517   0.142  0.5627  0.3101 -0.3902
   11THF    H10  140   3.811   4.578  -0.052  0.5131 -1.0868  0.1450
   11THF    H11  141   3.756   4.418  -0.037  0.4308  0.2779  0.1907
   11THF    H12  142   3.783   4.421   0.179  0.8859 -0.1122 -1.7238
   11THF    H13  143   3.815   4.597   0.172  0.1235  0.1860  0.9997
   12THF     O1  144   4.453   0.548   3.895  0.7150 -0.1890 -0.0144
   12THF     C2  145   4.511   0.454   3.981 -0.0046 -0.0026 -0.2472
   12THF     C3  146   4.530   0.666   3.903 -0.4583  0.3288  0.5090
   12THF     H4  147   4.462   0.357   3.967  1.8500 -1.3781  1.9744
   12THF     H5  148   4.480   0.473   4.084 -0.5088 -0.1147 -0.3761
   12THF     H6  149   4.522   0.743   3.826  0.3579 -0.3655 -0.3044
   12THF     H7  150   4.526   0.711   4.002  1.6455  0.9547  0.3616
   12THF     C8  151   4.674   0.607   3.904 -0.0137 -0.3202  0.0016
   12THF     C9  152   4.658   0.468   3.951  0.1375 -0.1061 -0.5442
   12THF    H10  153   4.743   0.664   3.967  0.8379  2.0385 -2.8615
   12THF    H11  154   4.728   0.605   3.809  0.8438 -1.4407  0.4883
   12THF    H12  155   4.685   0.398   3.872  1.9642 -1.9672  1.5964
   12THF    H13  156   4.715   0.452   4.042 -0.3140  0.8732 -0.0723
   13THF     O1  157   1.508   2.479   0.039  0.0049  0.5567  0.5114
   13THF     C2  158   1.562   2.475   0.169 -0.2817 -0.3347  0.0793
   13THF     C3  159   1.460   2.349  -0.004 -0.1790 -0.0709  0.0598
   13THF     H4  160   1.557   2.568   0.226  0.7689  0.4556 -1.0735
   13THF     H5  161   1.670   2.460   0.164 -0.2738  0.0878 -2.8588
   13THF     H6  162   1.351   2.356  -0.010 -0.0679  3.1076 -0.0197
   13THF     H7  163   1.490   2.334  -0.108  0.1215 -0.8748  0.2521
   13THF     C8  164   1.503   2.254   0.109  0.1405  0.4047 -0.2940
   13THF     C9  165   1.507   2.345   0.232  0.0442 -0.3211 -0.3050
   13THF    H10  166   1.607   2.223   0.101 -0.1288 -0.7216  0.3606
   13THF    H11  167   1.425   2.178   0.113  0.1848  0.3895  1.8490
   13THF    H12  168   1.407   2.365   0.271  0.1009 -2.0854  0.8453
   13THF    H13  169   1.554   2.295   0.316 -0.3370  2.6847  1.8557
   14THF     O1  170   3.301   0.104   4.003  0.3401  0.0380 -0.1624
   14THF     C2  171   3.397   0.179   4.073 -0.5793  0.1479  0.4821
   14THF     C3  172   3.222   0.037   4.097 -0.2300  0.5559 -0.1647
   14THF     H4  173   3.381   0.283   4.044 -1.3327  0.2579  1.2386
   14THF     H5  174   3.491   0.149   4.028 -0.8640 -1.4697  0.8964
   14THF     H6  175   3.117   0.025   4.071 -0.6398  0.3382  1.5073
   14THF     H7  176   3.255  -0.065   4.119  3.3948  1.5334 -0.3564
   14THF     C8  177   3.225   0.119   4.225 -0.6991 -1.1617 -0.2402
   14THF     C9  178   3.372   0.150   4.225 -0.6997 -0.3359 -0.5222
   14THF    H10  179   3.190   0.065   4.314 -1.1322  0.9069  0.9167
   14THF    H11  180   3.173   0.215   4.216  1.7294  0.2217 -0.4013
   14THF    H12  181   3.402   0.235   4.285 -2.3249 -0.5226  0.6209
   14THF    H13  182   3.425   0.061   4.260 -1.9484 -0.8586  0.1132
   15THF     O1  183   4.980   3.869   4.635  0.0563 -0.1285 -0.3627
   15THF     C2  184   4.973   3.956   4.745  0.0127 -0.6716  0.4424
   15THF     C3  185   4.937   3.739   4.682  0.0771 -0.4299  0.6822
   15THF     H4  186   4.979   4.063   4.726 -1.8996 -0.7319 -0.8225
   15THF     H5  187   5.056   3.931   4.809 -0.6175 -1.4474  0.9757
   15THF     H6  188   4.912   3.685   4.591 -1.1417 -0.6549  1.1222
   15THF     H7  189   5.018   3.693   4.739  0.8644 -1.4004 -1.1257
   15THF     C8  190   4.813   3.773   4.756  0.5984 -0.1156  0.5427
   15THF     C9  191   4.850   3.907   4.813  0.2086 -0.5670 -0.0844
   15THF    H10  192   4.775   3.702   4.829 -0.3293 -0.3774 -0.1787
   15THF    H11  193   4.736   3.798   4.683  1.7269  0.1831 -0.5842
   15THF    H12  194   4.766   3.976   4.801  0.7256  0.4194  1.6360
   15THF    H13  195   4.861   3.883   4.919  0.8947 -0.3716 -0.1080
   16THF     O1  196   1.460   1.684   1.079 -0.2952  0.3054 -0.0670
   16THF     C2  197   1.342   1.756   1.076  0.0719  0.1340 -0.0257
   16THF     C3  198   1.503   1.648   1.205  0.8154 -0.6968  0.1366
   16THF     H4  199   1.265   1.712   1.013 -1.0657 -1.2039  2.1543
   16THF     H5  200   1.364   1.857   1.042  2.4707  0.1316  1.3291
   16THF     H6  201   1.493   1.540   1.219 -2.0364 -0.7410 -1.5285
   16THF     H7  202   1.609   1.672   1.218  0.8248  2.8463 -4.1958
   16THF     C8  203   1.411   1.726   1.302  0.0341  0.1241 -0.2043
   16THF     C9  204   1.290   1.766   1.222 -0.4570 -0.1682  0.0941
   16THF    H10  205   1.458   1.822   1.326  0.0222  0.1033 -0.0984
   16THF    H11  206   1.376   1.666   1.386 -2.5192  1.1039 -0.4761
   16THF    H12  207   1.208   1.694   1.233 -0.6435  0.1673  1.0186
   16THF    H13  208   1.248   1.865   1.243 -0.0049 -0.3732  2.1921
   17THF     O1  209   1.804   0.582   3.381  0.3476 -0.1955 -0.3560
   17THF     C2  210   1.858   0.536   3.263  0.0294 -0.1231  0.5543
   17THF     C3  211   1.839   0.487   3.477  0.4305 -0.2956 -0.1794
   17THF     H4  212   1.841   0.611   3.187 -1.2817  0.7623  1.6671
   17THF     H5  213   1.801   0.451   3.225  0.4625 -0.7740  1.3294
   17THF     H6  214   1.827   0.524   3.579  0.4738 -0.1751 -0.2182
   17THF     H7  215   1.773   0.403   3.455 -0.1784  0.7723 -2.8477
   17THF     C8  216   1.980   0.445   3.431  0.3155 -0.2749 -0.8461
   17THF     C9  217   2.002   0.497   3.289  0.0867 -0.1272  0.3585
   17THF    H10  218   1.989   0.336   3.433 -0.1700 -0.3065  0.0346
   17THF    H11  219   2.062   0.477   3.495 -0.4560  1.6682 -0.7672
   17THF    H12  220   2.058   0.588   3.268  1.3089 -1.1386 -0.9616
   17THF    H13  221   2.037   0.421   3.219  0.7265  0.6154 -0.1377
   18THF     O1  222   1.530   3.834   5.300 -0.1963  1.1371  0.2341
   18THF     C2  223   1.523   3.718   5.222 -0.0572  0.2620  0.4113
   18THF     C3  224   1.653   3.897   5.267  0.1854 -0.0358  0.3091
   18THF     H4  225   1.498   3.746   5.119  2.0020  1.5369  0.2029
   18THF     H5  226   1.454   3.648   5.269  0.4890 -0.5774 -0.0170
   18THF     H6  227   1.637   3.989   5.211 -2.3350 -1.3591 -1.3682
   18THF     H7  228   1.702   3.923   5.361  2.2849  0.6996 -0.9324
   18THF     C8  229   1.742   3.802   5.195 -0.0200  0.3539  0.6762
   18THF     C9  230   1.671   3.673   5.222  0.7897 -0.5248  0.7584
   18THF    H10  231   1.848   3.812   5.219  0.1556  0.4884 -0.1301
   18THF    H11  232   1.735   3.827   5.090  0.6707 -0.5458  0.3941
   18THF    H12  233   1.692   3.607   5.138 -2.6352  1.0964 -1.5910
   18THF    H13  234   1.694   3.634   5.321 -1.8096  0.2556  1.7433
   19THF     O1  235   0.675   0.105   2.246 -0.4373  0.5635 -0.1587
   19THF     C2  236   0.781   0.198   2.260  0.2589 -0.0515  0.3664
   19THF     C3  237   0.682   0.038   2.122  0.0983 -0.8096  0.7483
   19THF     H4  238   0.781   0.237   2.362  0.8765 -0.2439  0.4445
   19THF     H5  239   0.773   0.274   2.182  0.3881  0.8557  1.2279
   19THF     H6  240   0.620  -0.051   2.131 -1.0836 -0.1561 -0.5847
   19THF     H7  241   0.640   0.106   2.048 -0.3547 -1.8539  0.0034
   19THF     C8  242   0.843   0.029   2.107 -0.7525  0.4716  0.0516
   19THF     C9  243   0.896   0.120   2.221  0.2005 -0.4027 -0.0128
   19THF    H10  244   0.874   0.059   2.007 -1.2514  4.1327  0.8575
   19THF    H11  245   0.883  -0.070   2.129 -2.0624  0.1402  1.1094
   19THF    H12  246   0.931   0.074   2.313  1.7369  0.7769  0.0305
   19THF    H13  247   0.976   0.182   2.182  1.2040 -2.4841 -1.4523
   20THF     O1  248   5.355   4.727   2.859 -0.0948  0.2972 -0.3785
   20THF     C2  249   5.428   4.839   2.805 -0.3325  0.7044 -0.3572
   20THF     C3  250   5.400   4.697   2.998 -0.3078 -0.4596 -0.7776
   20THF     H4  251   5.365   4.926   2.787  0.6942  1.6299  0.4149
   20THF     H5  252   5.474   4.811   2.710 -0.0930 -0.3931  0.0589
   20THF     H6  253   5.340   4.767   3.056  0.0743 -0.3150 -0.5567
   20THF     H7  254   5.379   4.596   3.031  0.5947 -0.0932  1.0070
   20THF     C8  255   5.541   4.731   2.982 -0.3947 -0.1383 -0.3709
   20THF     C9  256   5.542   4.864   2.896 -0.4043 -0.3190  0.0563
   20THF    H10  257   5.597   4.653   2.931  0.3257  0.0768  0.0766
   20THF    H11  258   5.581   4.741   3.082 -0.7857  1.3601 -0.3429
   20THF    H12  259   5.532   4.957   2.952  3.1821  0.5093 -0.3940
   20THF    H13  260   5.638   4.867   2.845 -1.5628 -1.5688 -2.3343
   21THF     O1  261   0.226   1.557   1.470  0.0541  0.0258 -0.3661
   21THF     C2  262   0.332   1.642   1.526 -0.7091  0.8802  0.1149
   21THF     C3  263   0.102   1.621   1.504  0.0205 -0.4304 -0.3606
   21THF     H4  264   0.429   1.623   1.481 -0.7872 -3.2211  1.2999
   21THF     H5  265   0.337   1.614   1.631  0.1426 -0.6132 -0.3024
   21THF     H6  266   0.016   1.586   1.448 -0.4442  0.7797 -0.4172
   21THF     H7  267   0.075   1.594   1.607  1.0168  1.1693  0.3556
   21THF     C8  268   0.130   1.773   1.489  0.6607  0.4062 -0.4043
   21THF     C9  269   0.285   1.785   1.503 -0.2553  0.5864  0.4772
   21THF    H10  270   0.075   1.820   1.571 -0.5427 -2.6393  0.6601
   21THF    H11  271   0.095   1.826   1.401  2.0166  1.7678 -0.1797
   21THF    H12  272   0.336   1.835   1.420 -1.3444  0.0106 -0.5807
   21THF    H13  273   0.311   1.843   1.591  0.0784  1.8720 -0.4251
   22THF     O1  274   4.181   4.840   5.496  0.0553  0.2513  0.0225
   22THF     C2  275   4.048   4.870   5.476 -0.0521  0.4569 -0.6697
   22THF     C3  276   4.210   4.829   5.640 -0.4299  0.4572  0.0570
   22THF     H4  277   3.995   4.780   5.446  1.3107 -0.0242 -1.7149
   22THF     H5  278   4.037   4.957   5.411 -1.4404 -0.2739 -1.4474
   22THF     H6  279   4.270   4.739   5.655 -0.7123  0.2159 -0.2273
   22THF     H7  280   4.284   4.905   5.665  2.1596 -2.3939  1.6852
   22THF     C8  281   4.080   4.831   5.711  0.4288  0.7145  0.4949
   22THF     C9  282   4.000   4.916   5.615  0.3816 -0.5106  1.1961
   22THF    H10  283   4.089   4.861   5.815 -0.2344 -0.8432  1.0485
   22THF    H11  284   4.027   4.736   5.723 -1.9066  1.7076 -1.1890
   22THF    H12  285   3.892   4.903   5.613  0.4148 -0.8427 -0.8374
   22THF    H13  286   4.029   5.019   5.636 -2.0207  0.2463  1.0472
   23THF     O1  287   2.772   3.923   3.122  1.0688 -0.2356  0.0464
   23THF     C2  288   2.894   3.887   3.057 -0.4927  0.1417 -0.4666
   23THF     C3  289   2.674   3.816   3.095  0.0209 -0.8089 -0.8336
   23THF     H4  290   2.952   3.858   3.145  1.1887 -0.9147 -1.8695
   23THF     H5  291   2.941   3.971   3.006 -0.5539  0.3196 -0.2329
   23THF     H6  292   2.686   3.744   3.176  0.6589  1.1666  0.9313
   23THF     H7  293   2.572   3.852   3.088  0.0860 -0.9300 -3.0227
   23THF     C8  294   2.718   3.765   2.959  0.3823 -1.2172 -0.0821
   23THF     C9  295   2.867   3.767   2.967  1.1723  0.2346  0.0944
   23THF    H10  296   2.677   3.828   2.880  1.5658  1.2625  1.1707
   23THF    H11  297   2.671   3.669   2.936 -1.8655  0.2476 -2.1250
   23THF    H12  298   2.915   3.676   3.005 -0.8568 -1.8038 -1.9160
   23THF    H13  299   2.909   3.800   2.872  0.3562 -0.0381 -0.3722
   24THF     O1  300   2.129   2.643   2.780  0.2952 -0.5653  0.2226
   24THF     C2  301   2.131   2.764   2.702 -0.1360  0.4136  0.3182
   24THF     C3  302   2.267   2.596   2.784 -0.0748 -0.0428  0.3124
   24THF     H4  303   2.035   2.816   2.697  0.4305  1.4722  0.0406
   24THF     H5  304   2.168   2.745   2.601  1.0265 -0.0622  0.8137
   24THF     H6  305   2.280   2.517   2.858 -2.2068 -0.4824  0.2913
   24THF     H7  306   2.291   2.565   2.682 -1.2577 -0.4811  0.1529
   24THF     C8  307   2.347   2.724   2.811 -0.2448  0.0503 -0.3258
   24THF     C9  308   2.254   2.838   2.768 -0.2850  1.0953  0.5424
   24THF    H10  309   2.448   2.713   2.774  0.9479  2.7799  1.7597
   24THF    H11  310   2.373   2.739   2.916  1.0525 -0.0327 -0.6270
   24THF    H12  311   2.226   2.903   2.851  0.4097  0.4123  1.3213
   24THF    H13  312   2.295   2.907   2.694  0.7598  0.6480  0.6940
   25THF     O1  313   4.645   4.480   1.207 -0.5864 -0.4616 -0.1174
   25THF     C2  314   4.694   4.573   1.306 -0.1573  0.0769 -0.2770
   25THF     C3  315   4.580   4.377   1.271  0.6324 -0.0961  0.0578
   25THF     H4  316   4.618   4.652   1.315  1.9706  2.2808 -0.6018
   25THF     H5  317   4.791   4.617   1.286 -1.1148  2.8110  0.6418
   25THF     H6  318   4.483   4.404   1.311  0.7967  1.3846 -0.4979
   25THF     H7  319   4.558   4.292   1.206  0.4313  0.7414 -0.9960
   25THF     C8  320   4.674   4.347   1.385  0.1789 -0.0659  0.1450
   25THF     C9  321   4.710   4.488   1.427  0.2547  0.2238 -0.2180
   25THF    H10  322   4.759   4.290   1.348 -1.7764 -3.0463 -0.0859
   25THF    H11  323   4.624   4.293   1.465  0.6077 -0.5033  0.1238
   25THF    H12  324   4.634   4.502   1.503 -0.5004  0.8296 -1.0749
   25THF    H13  325   4.810   4.495   1.471 -0.3938 -0.6167  1.4826
   26THF     O1  326   1.551   2.379   4.254 -0.1007  0.0983 -0.1973
   26THF     C2  327   1.423   2.402   4.313 -0.1970  0.1085  0.4428
   26THF     C3  328   1.523   2.304   4.139  0.3930  0.1108  0.8577
   26THF     H4  329   1.356   2.456   4.247 -1.6671  0.5364  2.2113
   26THF     H5  330   1.431   2.455   4.407  0.4263  0.3080  0.2831
   26THF     H6  331   1.459   2.365   4.075 -1.7578 -2.0284  0.8010
   26THF     H7  332   1.616   2.280   4.088  0.5261  1.1960  0.5593
   26THF     C8  333   1.441   2.187   4.207 -0.6585  0.6720 -0.4746
   26THF     C9  334   1.377   2.258   4.325  0.2998 -0.5820  0.3605
   26THF    H10  335   1.507   2.106   4.239  1.3032  2.6163  0.6576
   26THF    H11  336   1.361   2.149   4.144 -1.3897 -0.5146  1.1000
   26THF    H12  337   1.270   2.251   4.341  0.3870 -1.4128  0.6385
   26THF    H13  338   1.415   2.216   4.418 -1.5659 -1.0690  0.9360
   27THF     O1  339   1.249   4.362   4.564  0.0497 -0.2398  0.4562
   27THF     C2  340   1.209   4.276   4.455  0.2398 -0.0458 -0.0405
   27THF     C3  341   1.356   4.294   4.639  0.6046  0.6518 -0.1383
   27THF     H4  342   1.153   4.334   4.382  2.0295  0.7227 -0.8775
   27THF     H5  343   1.150   4.188   4.478  2.0862 -0.5378  3.5551
   27THF     H6  344   1.420   4.365   4.691  0.6155  1.2184 -0.9052
   27THF     H7  345   1.313   4.230   4.716  1.4252  1.0119  0.6447
   27THF     C8  346   1.431   4.211   4.538  0.0709  0.1344 -0.2699
   27THF     C9  347   1.343   4.204   4.411  0.4113  0.6187 -0.1673
   27THF    H10  348   1.450   4.116   4.587 -1.1876 -0.2906 -0.5559
   27THF    H11  349   1.526   4.257   4.512  1.1329 -2.0003 -0.3415
   27THF    H12  350   1.395   4.266   4.337  1.4418  1.7293  1.3944
   27THF    H13  351   1.329   4.101   4.380  0.2610 -0.0433  1.9727
   28THF     O1  352   2.625   1.547   1.473  0.2801 -0.2695  0.5357
   28THF     C2  353   2.632   1.427   1.406 -0.4200 -0.4062 -0.6104
   28THF     C3  354   2.735   1.548   1.570 -0.1215  0.0979 -0.1614
   28THF     H4  355   2.703   1.430   1.323 -1.0706  0.2505 -1.1588
   28THF     H5  356   2.533   1.408   1.364  0.3197 -1.1568 -2.0973
   28THF     H6  357   2.831   1.564   1.522 -0.7422  0.9724 -1.1631
   28THF     H7  358   2.720   1.628   1.643  0.6782  0.8207 -0.7611
   28THF     C8  359   2.745   1.407   1.628  0.3481  0.5286  0.4252
   28THF     C9  360   2.672   1.322   1.514 -0.4061  0.1877 -0.3840
   28THF    H10  361   2.679   1.408   1.715 -0.8280 -3.5933 -0.1778
   28THF    H11  362   2.842   1.379   1.670 -0.6287 -2.4291  0.9839
   28THF    H12  363   2.733   1.240   1.476  1.0471  1.2669 -0.4166
   28THF    H13  364   2.585   1.272   1.558  0.4454 -1.3098 -0.3307
   29THF     O1  365   2.773   2.488   4.468  0.7253 -0.4942  0.1559
   29THF     C2  366   2.759   2.492   4.607  0.2828  0.1959 -0.4583
   29THF     C3  367   2.869   2.388   4.441 -0.0774  0.4157 -0.0668
   29THF     H4  368   2.711   2.405   4.652 -1.0242  1.9000  1.6482
   29THF     H5  369   2.704   2.580   4.640  0.3072  0.8945 -2.1645
   29THF     H6  370   2.811   2.296   4.434  0.0666  0.3290 -0.1393
   29THF     H7  371   2.910   2.413   4.343  0.1304  0.1704 -0.0428
   29THF     C8  372   2.972   2.388   4.554  0.0967  1.0169  1.0204
   29THF     C9  373   2.909   2.492   4.646 -0.1976  0.1873  0.6038
   29THF    H10  374   3.068   2.424   4.516  0.1714 -0.4576 -0.2660
   29THF    H11  375   2.994   2.286   4.585  0.0643  0.6091 -0.2492
   29THF    H12  376   2.924   2.465   4.751  1.1975  3.1119  1.2865
   29THF    H13  377   2.963   2.587   4.635  1.9922 -0.7528  2.4398
   30THF     O1  378   3.872   2.247   1.793 -0.3810 -0.0022  0.7006
   30THF     C2  379   3.773   2.198   1.704 -0.9689  0.1711 -0.0990
   30THF     C3  380   4.000   2.255   1.732 -0.4781 -0.0913  0.6015
   30THF     H4  381   3.672   2.217   1.740 -0.1332  2.2726  1.3185
   30THF     H5  382   3.799   2.093   1.692  0.0074  0.5883 -2.0857
   30THF     H6  383   4.080   2.315   1.777  1.7635 -2.1653 -0.3673
   30THF     H7  384   4.037   2.153   1.729  0.4967  0.2548 -0.4037
   30THF     C8  385   3.962   2.301   1.590 -0.3051  0.6603  0.1102
   30THF     C9  386   3.814   2.285   1.573  0.3490 -0.0418  0.7520
   30THF    H10  387   4.016   2.240   1.517  1.8176  1.8145  0.6312
   30THF    H11  388   3.996   2.403   1.570  2.7135  0.1570  1.9318
   30THF    H12  389   3.763   2.381   1.574  0.7073  0.1547  1.9134
   30THF    H13  390   3.797   2.232   1.479  1.6620 -1.2751  1.1832
   31THF     O1  391   1.801   0.684   2.168  0.5178 -0.1027  0.1413
   31THF     C2  392   1.658   0.654   2.173 -0.6637  0.9409  0.1215
   31THF     C3  393   1.816   0.787   2.076 -0.1163  0.6013 -0.1731
   31THF     H4  394   1.616   0.713   2.254  1.5429  1.6720  0.7996
   31THF     H5  395   1.628   0.550   2.187 -2.0450  1.2943 -0.0839
   31THF     H6  396   1.810   0.884   2.125 -1.1346  0.2738  0.3762
   31THF     H7  397   1.912   0.778   2.026 -0.6109 -0.2162 -1.0026
   31THF     C8  398   1.722   0.757   1.964 -0.0230  0.7125  0.2518
   31THF     C9  399   1.605   0.711   2.038 -0.1238  0.5684 -0.9263
   31THF    H10  400   1.760   0.673   1.907  2.7272 -0.0493  2.9820
   31THF    H11  401   1.696   0.839   1.897  2.5740  1.0697 -0.4327
   31THF    H12  402   1.532   0.791   2.047  2.1431  2.8318 -1.2765
   31THF    H13  403   1.557   0.629   1.985  1.0051  0.3435 -1.6373
   32THF     O1  404   2.275   0.321   1.279 -0.3122 -0.3504 -0.0676
   32THF     C2  405   2.331   0.388   1.164 -0.2919 -0.6564  0.1076
   32THF     C3  406   2.258   0.188   1.222 -0.0006  0.3670 -0.4609
   32THF     H4  407   2.381   0.482   1.187  0.6228 -1.1075  0.0022
   32THF     H5  408   2.255   0.420   1.093  0.1371  1.3118  0.4834
   32THF     H6  409   2.236   0.118   1.303  1.6041  0.2330 -0.1136
   32THF     H7  410   2.173   0.174   1.155  0.4791 -2.6855 -0.5893
   32THF     C8  411   2.386   0.165   1.150 -1.0966  0.3219 -0.1715
   32THF     C9  412   2.423   0.298   1.095 -1.0179  0.0984  0.1426
   32THF    H10  413   2.382   0.092   1.069  0.3254 -0.7630  0.6777
   32THF    H11  414   2.462   0.132   1.221 -1.6919 -0.7467 -0.0058
   32THF    H12  415   2.528   0.319   1.116 -0.3987 -0.2601 -2.2532
   32THF    H13  416   2.427   0.314   0.987  0.2634  2.1958  0.4467
   33THF     O1  417   0.329   1.329   1.583 -0.1489 -0.0735  0.0298
   33THF     C2  418   0.224   1.344   1.678 -0.0387  0.6260 -0.4016
   33THF     C3  419   0.449   1.320   1.659 -0.0529 -0.3211 -0.5757
   33THF     H4  420   0.124   1.329   1.637 -0.5224  3.6125 -0.5470
   33THF     H5  421   0.225   1.443   1.723  2.3695 -0.9596  3.5856
   33THF     H6  422   0.508   1.242   1.610  1.6047  1.0424 -0.8624
   33THF     H7  423   0.502   1.415   1.670 -0.2684 -0.5060  4.8718
   33THF     C8  424   0.412   1.263   1.797  0.4602  0.2113 -0.3006
   33THF     C9  425   0.266   1.233   1.775 -0.4633  0.5122 -0.9313
   33THF    H10  426   0.411   1.339   1.875  0.7978  0.0491 -0.1367
   33THF    H11  427   0.460   1.172   1.833 -0.3243  0.6546  2.0127
   33THF    H12  428   0.238   1.133   1.744  1.3751 -0.1192 -0.6968
   33THF    H13  429   0.208   1.245   1.866 -0.3758 -0.8048 -0.6824
   34THF     O1  430   4.903   4.313   0.623  0.2726  0.3106  0.2980
   34THF     C2  431   5.011   4.221   0.614  0.0623  0.2693 -0.1791
   34THF     C3  432   4.790   4.261   0.553  0.2330 -0.3125  0.2823
   34THF     H4  433   5.001   4.143   0.690  0.4411  0.9399  0.5799
   34THF     H5  434   5.113   4.258   0.624  0.0439  0.0348  1.0583
   34THF     H6  435   4.738   4.185   0.613 -3.7756  1.0937 -1.0824
   34THF     H7  436   4.713   4.332   0.524 -1.8255 -1.6445  2.1278
   34THF     C8  437   4.851   4.197   0.429 -0.1564  0.4262  0.2071
   34THF     C9  438   4.991   4.160   0.482  0.3880 -0.7482 -0.8693
   34THF    H10  439   4.838   4.272   0.351 -0.3048 -0.9168 -1.0969
   34THF    H11  440   4.801   4.103   0.407  1.3398 -0.8361  1.8555
   34THF    H12  441   4.996   4.051   0.487  1.1537 -0.9405 -3.7310
   34THF    H13  442   5.072   4.192   0.416  2.1727  0.7690  1.8612
   35THF     O1  443   3.616   1.449   2.414  0.0780  0.1364  0.4703
   35THF     C2  444   3.522   1.388   2.324  0.6343  0.7233  0.6062
   35THF     C3  445   3.741   1.391   2.374  0.1713  0.0652 -0.1290
   35THF     H4  446   3.431   1.447   2.313  0.4485  0.2982 -0.1897
   35THF     H5  447   3.504   1.287   2.360 -0.1104  0.0528 -1.4955
   35THF     H6  448   3.828   1.442   2.414  0.1452 -0.5129  0.7061
   35THF     H7  449   3.752   1.290   2.414 -0.2502  0.1943  0.3372
   35THF     C8  450   3.738   1.403   2.223  0.3462 -0.4617 -0.4467
   35THF     C9  451   3.595   1.374   2.191 -0.6994  0.1515  0.1378
   35THF    H10  452   3.809   1.335   2.175 -1.3460 -1.7914 -1.1797
   35THF    H11  453   3.765   1.502   2.185  0.1633 -0.0763  0.4037
   35THF    H12  454   3.577   1.455   2.121  0.8600  0.9335  0.5919
   35THF    H13  455   3.590   1.278   2.140  1.5398  0.2672 -0.3767
   36THF     O1  456   4.457   3.921   2.380  0.0764 -0.1004  0.6043
   36THF     C2  457   4.437   4.065   2.392  0.1523  0.0212  0.0055
   36THF     C3  458   4.481   3.870   2.510 -0.0381  0.0945  0.2604
   36THF     H4  459   4.370   4.107   2.318  0.8246  3.0234  0.9746
   36THF     H5  460   4.535   4.111   2.383  0.1081  0.5529  1.8413
   36THF     H6  461   4.424   3.778   2.518 -0.3849  0.3530  0.7662
   36THF     H7  462   4.589   3.857   2.521 -0.2857 -0.9654  1.7673
   36THF     C8  463   4.439   3.972   2.615 -0.8454 -0.0109 -0.8045
   36THF     C9  464   4.371   4.082   2.528 -0.1865 -0.4637  0.1529
   36THF    H10  465   4.522   4.024   2.662 -1.5018 -0.7037  1.2250
   36THF    H11  466   4.387   3.923   2.697  0.0600  0.7207  0.2392
   36THF    H12  467   4.268   4.048   2.517  0.3165 -1.3585 -2.7130
   36THF    H13  468   4.375   4.182   2.570 -0.3227 -0.0150 -0.8780
   37THF     O1  469   1.717   2.984   3.498  0.2991 -0.1435  0.1066
   37THF     C2  470   1.591   3.048   3.520 -0.1158 -1.0704 -0.3098
   37THF     C3  471   1.795   3.056   3.404 -0.6477 -0.4237 -0.1131
   37THF     H4  472   1.550   3.014   3.615  0.5150  1.4585  0.9736
   37THF     H5  473   1.527   3.010   3.440  0.6851 -2.3071 -0.3679
   37THF     H6  474   1.902   3.050   3.421 -0.7604 -0.4967  0.6158
   37THF     H7  475   1.778   3.000   3.312  0.7266 -1.0264 -0.0239
   37THF     C8  476   1.732   3.197   3.413 -0.0510 -0.5572  0.2932
   37THF     C9  477   1.620   3.197   3.506  0.2724  0.2691 -0.0154
   37THF    H10  478   1.681   3.209   3.317  0.6371 -0.0695 -0.0252
   37THF    H11  479   1.811   3.271   3.427 -1.2786  0.6865  0.9738
   37THF    H12  480   1.649   3.235   3.604 -1.0257  0.9698  0.1156
   37THF    H13  481   1.536   3.257   3.473 -0.1478  1.3184  2.7540
   38THF     O1  482   3.562   1.240   5.483 -0.0652  0.3352 -0.0807
   38THF     C2  483   3.452   1.237   5.569 -0.0473 -0.1328  0.5687
   38THF     C3  484   3.626   1.363   5.493 -0.9083 -0.6528  0.5203
   38THF     H4  485   3.479   1.211   5.672  2.2979 -1.0770 -0.2098
   38THF     H5  486   3.376   1.167   5.535 -0.6116  0.6676  0.1679
   38THF     H6  487   3.684   1.373   5.584  0.2138  1.4775 -0.3698
   38THF     H7  488   3.680   1.374   5.399  1.1506 -0.5686  1.6760
   38THF     C8  489   3.511   1.454   5.489  0.8054 -0.5788  0.1924
   38THF     C9  490   3.394   1.376   5.555 -0.3770 -0.3639 -0.0090
   38THF    H10  491   3.496   1.497   5.390 -1.1471  0.8308  1.0484
   38THF    H11  492   3.544   1.551   5.528  3.5739 -0.8796 -1.1153
   38THF    H12  493   3.355   1.401   5.653  1.3515 -1.1323  0.9384
   38THF    H13  494   3.322   1.377   5.473 -0.2085  2.4439 -0.1919
   39THF     O1  495   2.091   5.083   2.214  0.1107  0.1142 -0.0311
   39THF     C2  496   2.063   4.983   2.302  0.3690  0.0819 -0.3235
   39THF     C3  497   2.136   5.016   2.097  0.0070 -0.0450 -0.1019
   39THF     H4  498   2.013   5.029   2.387 -0.0290  0.0748 -0.5482
   39THF     H5  499   2.152   4.934   2.342  0.4348 -0.1723 -0.7767
   39THF     H6  500   2.122   5.083   2.012 -1.4430 -0.2753 -0.0720
   39THF     H7  501   2.244   5.003   2.105  0.2708  1.6086 -0.5043
   39THF     C8  502   2.041   4.895   2.092  0.3544  0.6340  0.5814
   39THF     C9  503   1.974   4.887   2.226 -0.0219  0.6469  0.7655
   39THF    H10  504   2.087   4.800   2.063 -0.7478  0.2530  0.0408
   39THF    H11  505   1.975   4.922   2.010  0.8893 -0.2004 -0.1491
   39THF    H12  506   1.871   4.923   2.226 -0.0127  0.7006  2.0135
   39THF    H13  507   1.980   4.785   2.263 -1.1024  0.1395 -0.3941
   40THF     O1  508   5.053   5.031   2.601 -0.2884 -0.2626  0.2608
   40THF     C2  509   5.147   5.124   2.553  0.0901 -0.4631  0.3018
   40THF     C3  510   5.106   4.903   2.571  0.7740 -0.4273 -0.2092
   40THF     H4  511   5.216   5.145   2.634 -0.7210  1.9593  0.4334
   40THF     H5  512   5.120   5.226   2.525  3.5567  0.7945  1.0340
   40THF     H6  513   5.175   4.870   2.649  0.1885 -0.8572  0.1385
   40THF     H7  514   5.025   4.830   2.577  0.3336 -0.0077 -0.9715
   40THF     C8  515   5.177   4.920   2.443 -0.2007  0.0140  0.5519
   40THF     C9  516   5.206   5.065   2.426 -0.1012 -0.1227  0.2870
   40THF    H10  517   5.124   4.875   2.358 -0.7209  0.4369  0.6487
   40THF    H11  518   5.265   4.856   2.440 -0.2469 -0.0277 -0.2714
   40THF    H12  519   5.314   5.082   2.420  0.2350 -1.2451  2.2562
   40THF    H13  520   5.155   5.105   2.338 -0.0824 -0.7121  0.0039
   41THF     O1  521   5.421   5.300   2.119 -0.0996 -0.1158  0.0780
   41THF     C2  522   5.461   5.361   2.242 -0.0066  0.6557 -0.7173
   41THF     C3  523   5.409   5.399   2.022 -0.4221 -0.1634  0.0742
   41THF     H4  524   5.560   5.406   2.237  0.2298  0.0072 -2.7366
   41THF     H5  525   5.455   5.296   2.329  0.2379  2.8331  1.0235
   41THF     H6  526   5.501   5.428   1.971 -0.5293  2.4434  1.2234
   41THF     H7  527   5.330   5.373   1.952 -0.7719 -0.0529  0.4214
   41THF     C8  528   5.356   5.522   2.100  0.5278  0.1088  0.1004
   41THF     C9  529   5.362   5.477   2.240  0.3576  0.2393  0.5738
   41THF    H10  530   5.257   5.559   2.071  0.8142  0.1353 -0.8904
   41THF    H11  531   5.428   5.603   2.088  0.2638  0.4979  1.0534
   41THF    H12  532   5.395   5.561   2.301 -0.3500  1.6162 -0.8873
   41THF    H13  533   5.265   5.438   2.272  0.3024  0.4185  0.6246
   42THF     O1  534   3.474   1.781   0.382  0.0686  0.1220  0.1986
   42THF     C2  535   3.421   1.683   0.291  0.0627  0.0133 -1.0601
   42THF     C3  536   3.386   1.894   0.359  0.3849 -0.6974  0.2635
   42THF     H4  537   3.335   1.632   0.334 -1.2083  1.3446 -1.8920
   42THF     H5  538   3.505   1.614   0.290  0.1745  0.0012  2.0845
   42THF     H6  539   3.292   1.864   0.406  1.3846 -1.1122  2.1123
   42THF     H7  540   3.419   1.990   0.398 -1.0824  0.0860 -0.3584
   42THF     C8  541   3.386   1.899   0.210  0.9212 -0.6669 -0.3549
   42THF     C9  542   3.370   1.758   0.157 -0.1179  0.1337 -0.2408
   42THF    H10  543   3.475   1.947   0.169 -1.6904  2.3433 -3.0320
   42THF    H11  544   3.300   1.954   0.172  1.2565  1.2275  1.4435
   42THF    H12  545   3.280   1.719   0.110  2.4104 -4.3932 -1.9965
   42THF    H13  546   3.445   1.732   0.082 -1.2521  0.5270 -1.5463
   43THF     O1  547   0.689   5.403   0.772  0.6757 -0.3381 -0.1511
   43THF     C2  548   0.810   5.425   0.702  0.0598  0.6511  0.2346
   43THF     C3  549   0.717   5.399   0.912  0.8896  0.2501 -0.6083
   43THF     H4  550   0.828   5.532   0.705 -1.7702  1.0710 -1.4701
   43THF     H5  551   0.808   5.401   0.596 -1.7342  1.9469 -0.0722
   43THF     H6  552   0.719   5.498   0.958 -1.4142  0.5942 -1.1117
   43THF     H7  553   0.656   5.327   0.965 -1.7007  2.2422 -0.6712
   43THF     C8  554   0.866   5.355   0.919 -0.1901  0.1652  0.5288
   43THF     C9  555   0.899   5.325   0.783 -0.0072  0.0644 -0.0909
   43THF    H10  556   0.872   5.269   0.985 -1.6214  0.2777  0.8298
   43THF    H11  557   0.923   5.434   0.968  0.4392 -0.0327  0.1251
   43THF    H12  558   1.007   5.339   0.775 -0.1776  1.9985  0.4241
   43THF    H13  559   0.861   5.226   0.761 -1.6123  0.7917 -0.7720
   44THF     O1  560   4.857   4.876   3.418 -0.1776  0.2923  0.3735
   44THF     C2  561   4.794   4.976   3.495 -0.3024 -0.5719 -0.1716
   44THF     C3  562   4.903   4.938   3.292  0.2705  0.1152 -0.0731
   44THF     H4  563   4.802   4.972   3.603 -3.4422  0.0717  0.1766
   44THF     H5  564   4.689   4.968   3.468 -0.1834 -2.2417 -0.2190
   44THF     H6  565   4.984   4.878   3.250 -1.0311 -0.3362 -2.0855
   44THF     H7  566   4.821   4.950   3.221  2.1427 -0.3067 -2.4318
   44THF     C8  567   4.946   5.078   3.328  0.0032  0.5390  0.1955
   44THF     C9  568   4.864   5.109   3.456 -0.4400  0.6919  1.0446
   44THF    H10  569   4.934   5.155   3.252  1.0795 -1.0761 -1.7168
   44THF    H11  570   5.053   5.074   3.351  0.6848 -2.9896 -2.6758
   44THF    H12  571   4.922   5.163   3.531  0.8787  0.7960 -0.0089
   44THF    H13  572   4.789   5.179   3.419  1.1986  2.3586  0.6949
   45THF     O1  573   3.899   2.268   1.120  0.2401  0.5562  0.8907
   45THF     C2  574   4.012   2.312   1.194  0.0080  0.8511 -0.4839
   45THF     C3  575   3.936   2.215   0.991 -0.1981  0.2119 -0.5148
   45THF     H4  576   4.011   2.245   1.280  1.9675  1.3662 -0.0051
   45THF     H5  577   4.004   2.416   1.225  0.1265  0.4005  1.1180
   45THF     H6  578   3.950   2.107   0.987 -2.4827 -0.2336  1.4590
   45THF     H7  579   3.860   2.246   0.918 -0.8426  2.2974  0.9599
   45THF     C8  580   4.071   2.275   0.961  0.1741 -0.5189 -0.0789
   45THF     C9  581   4.134   2.289   1.096  0.1540  0.4828 -0.7096
   45THF    H10  582   4.056   2.370   0.909 -0.6547 -1.8334 -2.3702
   45THF    H11  583   4.128   2.220   0.886  2.7797 -0.5700  1.7999
   45THF    H12  584   4.181   2.191   1.109 -0.0107  0.5967  0.9272
   45THF    H13  585   4.208   2.367   1.112 -0.2657  0.8180 -0.3818
   46THF     O1  586   4.687   2.669   1.394 -0.6110 -0.2556 -0.0874
   46THF     C2  587   4.784   2.684   1.497  0.1558  0.9959 -0.2871
   46THF     C3  588   4.761   2.599   1.288  0.0095 -0.7357  0.2205
   46THF     H4  589   4.804   2.579   1.520 -4.2109 -0.0497 -0.5040
   46THF     H5  590   4.747   2.740   1.582  1.3887  1.2359  0.1143
   46THF     H6  591   4.786   2.498   1.321  1.2830 -0.3537  0.5092
   46THF     H7  592   4.706   2.601   1.194  1.1521  0.5191 -0.4610
   46THF     C8  593   4.885   2.692   1.272 -0.2621  0.0973  0.0580
   46THF     C9  594   4.902   2.743   1.417  0.3420  0.2577 -0.3224
   46THF    H10  595   4.869   2.766   1.194 -0.4602 -0.3708 -0.3471
   46THF    H11  596   4.970   2.628   1.249  1.0834  1.7906  0.1633
   46THF    H12  597   5.001   2.715   1.454 -0.2423 -1.8138 -0.2143
   46THF    H13  598   4.898   2.851   1.434  0.7536 -0.1925  3.9183
   47THF     O1  599   5.124   2.688   2.301 -0.4538  0.6200 -0.3904
   47THF     C2  600   5.210   2.587   2.369 -0.1727  0.0044  0.4289
   47THF     C3  601   5.045   2.752   2.406  0.0155 -0.2501 -0.4363
   47THF     H4  602   5.294   2.636   2.419 -2.2071  2.1785  1.9848
   47THF     H5  603   5.244   2.516   2.295 -0.3746  0.0787  0.2622
   47THF     H6  604   5.100   2.834   2.452 -1.2511 -0.3276  1.3308
   47THF     H7  605   4.954   2.795   2.365  0.8268  0.6882 -1.3145
   47THF     C8  606   5.011   2.633   2.509  0.2767 -0.2330 -0.2461
   47THF     C9  607   5.110   2.523   2.474 -0.5984  0.2626  0.1647
   47THF    H10  608   4.905   2.607   2.499 -0.7324  2.4722  2.0570
   47THF    H11  609   5.015   2.655   2.615 -1.2244 -3.0041  0.4814
   47THF    H12  610   5.171   2.499   2.562  2.2122 -2.1171 -2.2151
   47THF    H13  611   5.063   2.430   2.442 -0.0857  0.2793 -0.6626
   48THF     O1  612   2.138   1.155   3.161  0.1213  0.3601 -0.0030
   48THF     C2  613   2.109   1.119   3.021 -0.0541 -0.1864 -0.6056
   48THF     C3  614   2.220   1.044   3.206 -0.0433  0.2392 -0.2648
   48THF     H4  615   2.200   1.143   2.967  1.4573 -4.5789 -0.4027
   48THF     H5  616   2.032   1.177   2.971  1.6647  1.8632 -0.9771
   48THF     H6  617   2.325   1.044   3.179  0.3672 -2.9469  0.9008
   48THF     H7  618   2.236   1.034   3.314  0.3306  2.9304  0.0013
   48THF     C8  619   2.171   0.915   3.139 -0.1247 -0.4652 -0.2622
   48THF     C9  620   2.106   0.969   3.004  0.3660 -0.5357  0.2266
   48THF    H10  621   2.095   0.867   3.199  1.1084 -0.9336  0.9678
   48THF    H11  622   2.256   0.849   3.121  0.3880 -0.1404  0.8710
   48THF    H12  623   2.159   0.940   2.914 -0.1344 -5.5265  1.2387
   48THF    H13  624   2.002   0.938   2.998  0.5947 -1.0751 -1.4949
   49THF     O1  625   5.112   0.192   0.458  0.3858 -0.0603 -0.0859
   49THF     C2  626   5.023   0.104   0.521 -0.5746 -0.4856 -0.3618
   49THF     C3  627   5.038   0.295   0.381 -0.7821  0.3807  0.2842
   49THF     H4  628   5.064   0.043   0.601  2.3216  1.4281 -0.2170
   49THF     H5  629   4.994   0.033   0.443  0.0450 -0.4442 -0.6321
   49THF     H6  630   5.091   0.387   0.356 -2.0083  0.8359 -0.7813
   49THF     H7  631   5.007   0.254   0.285  3.3849 -1.5006 -0.4554
   49THF     C8  632   4.915   0.321   0.467 -0.0256 -0.2526  0.1350
   49THF     C9  633   4.907   0.198   0.561  0.4794 -0.4399  0.1536
   49THF    H10  634   4.820   0.340   0.416 -0.1980 -1.8035 -0.1583
   49THF    H11  635   4.930   0.410   0.529 -0.9505 -0.5932  0.8765
   49THF    H12  636   4.913   0.241   0.661 -0.7054  0.9978 -0.3679
   49THF    H13  637   4.815   0.141   0.558  0.9838 -1.3821  1.6244
   50THF     O1  638   5.478   5.420   2.857  0.0861 -0.2228  0.3323
   50THF     C2  639   5.578   5.316   2.837  0.3879 -0.2004 -0.5179
   50THF     C3  640   5.503   5.521   2.761  0.5134 -0.0698  0.7076
   50THF     H4  641   5.523   5.230   2.797  1.5691 -0.2333 -2.1849
   50THF     H5  642   5.640   5.306   2.926 -0.3698  0.3266  0.0800
   50THF     H6  643   5.417   5.583   2.734  2.1730  2.2873  0.5137
   50THF     H7  644   5.574   5.593   2.801  2.7122  0.3705 -3.4792
   50THF     C8  645   5.576   5.458   2.636  0.2069 -0.3525 -0.9864
   50THF     C9  646   5.658   5.362   2.714 -0.1459  0.4253 -0.5213
   50THF    H10  647   5.640   5.514   2.568  0.7569  0.5522  0.2409
   50THF    H11  648   5.496   5.412   2.578 -2.1925  0.1942  1.6518
   50THF    H12  649   5.700   5.278   2.657 -0.7569 -0.7195  0.6569
   50THF    H13  650   5.751   5.406   2.750 -0.4081 -0.4926  1.4297
   51THF     O1  651   1.173   4.345   4.050  0.0675  0.5301  0.7521
   51THF     C2  652   1.180   4.212   4.095  0.0350 -0.7980 -0.3050
   51THF     C3  653   1.056   4.368   3.979  0.2554 -0.5038  0.2501
   51THF     H4  654   1.262   4.200   4.166  0.2104  0.9509 -0.1639
   51THF     H5  655   1.205   4.145   4.013  0.7120 -1.2057  0.2283
   51THF     H6  656   1.029   4.473   3.970  0.7832 -0.1217  2.5015
   51THF     H7  657   1.059   4.313   3.885 -2.0565 -1.0062  0.4091
   51THF     C8  658   0.957   4.298   4.065  0.0498 -0.6930 -1.0302
   51THF     C9  659   1.040   4.198   4.150 -0.2879  0.1791 -0.0914
   51THF    H10  660   0.870   4.250   4.021 -1.6762  0.0212  1.3576
   51THF    H11  661   0.916   4.378   4.127 -0.0497 -0.9937 -0.6969
   51THF    H12  662   1.038   4.207   4.259  0.8011  0.2529 -0.0666
   51THF    H13  663   1.006   4.097   4.129  1.8133 -1.1146  2.2223
   52THF     O1  664   1.764   1.845   3.743  0.8526 -0.4289 -0.0279
   52THF     C2  665   1.780   1.921   3.863  0.3697 -0.5046  0.0635
   52THF     C3  666   1.879   1.763   3.712  0.5290 -0.2428  0.1857
   52THF     H4  667   1.691   1.909   3.926  0.8605  0.0435  0.8777
   52THF     H5  668   1.782   2.029   3.849  0.2105 -0.6636 -1.2743
   52THF     H6  669   1.839   1.676   3.659 -0.9467  1.0051 -0.8343
   52THF     H7  670   1.935   1.828   3.645 -1.5512 -1.3158 -2.7975
   52THF     C8  671   1.942   1.733   3.849 -0.3856  0.0920  0.8658
   52THF     C9  672   1.908   1.857   3.924 -0.8398 -0.1608 -0.4631
   52THF    H10  673   2.049   1.715   3.853 -0.3883 -0.0627  0.2808
   52THF    H11  674   1.890   1.650   3.896  0.2677 -1.2557 -0.7195
   52THF    H12  675   1.896   1.839   4.031 -1.3970 -0.0040 -0.4931
   52THF    H13  676   1.987   1.931   3.927 -0.5145 -0.5433  1.1402
   53THF     O1  677   2.813   3.284   4.646 -0.3466 -0.8774 -0.0854
   53THF     C2  678   2.938   3.351   4.676 -0.1814  0.7507 -0.5630
   53THF     C3  679   2.705   3.330   4.735 -0.0097  0.2066 -0.4187
   53THF     H4  680   2.956   3.439   4.615  0.1718  0.3796 -1.0102
   53THF     H5  681   3.026   3.287   4.667  0.1040  1.2738 -1.7229
   53THF     H6  682   2.669   3.425   4.697 -1.9706 -0.9900 -1.7330
   53THF     H7  683   2.628   3.253   4.745  1.5637 -1.5977 -1.5562
   53THF     C8  684   2.778   3.345   4.866 -0.3711 -0.1154 -0.4793
   53THF     C9  685   2.916   3.398   4.822  0.3373  0.1218  0.2918
   53THF    H10  686   2.798   3.254   4.921  0.0855 -0.0880 -0.5970
   53THF    H11  687   2.728   3.425   4.923 -0.7146  0.8414 -2.0611
   53THF    H12  688   2.910   3.506   4.810  2.8204  0.2704 -0.0550
   53THF    H13  689   2.990   3.378   4.900  0.9284  0.1621 -0.2450
   54THF     O1  690   5.141   0.908   1.786  0.1265  0.5698  0.6112
   54THF     C2  691   5.231   1.014   1.807 -0.0644  0.0481  0.1502
   54THF     C3  692   5.152   0.858   1.652  0.2747  0.4492 -0.2387
   54THF     H4  693   5.319   0.968   1.853  0.4776  0.0279 -0.8786
   54THF     H5  694   5.191   1.087   1.878 -0.2604 -0.9049  1.0509
   54THF     H6  695   5.245   0.801   1.652  0.7694  1.2246 -1.2193
   54THF     H7  696   5.063   0.800   1.628  0.1218  0.4393  0.3204
   54THF     C8  697   5.179   0.988   1.570  0.6277  0.5731  0.7246
   54THF     C9  698   5.263   1.065   1.667 -0.0284 -0.6600  0.1180
   54THF    H10  699   5.084   1.035   1.547  0.4488 -0.9925 -2.2120
   54THF    H11  700   5.229   0.975   1.474 -1.9223  0.6800 -0.6846
   54THF    H12  701   5.371   1.062   1.650 -0.2677 -0.2955 -1.5488
   54THF    H13  702   5.245   1.172   1.656  0.1986 -0.4475  1.5195
   55THF     O1  703   2.921   1.288   4.660 -0.4838  0.3315  0.1935
   55THF     C2  704   2.985   1.162   4.643 -0.1678 -0.4981  0.2558
   55THF     C3  705   3.005   1.355   4.750  0.3347 -0.3917 -0.3692
   55THF     H4  706   2.949   1.115   4.552  0.9914 -1.1636  0.1203
   55THF     H5  707   2.961   1.100   4.729 -0.2871  0.6517  1.0709
   55THF     H6  708   2.987   1.462   4.740 -0.4277 -0.2950  1.5936
   55THF     H7  709   2.981   1.323   4.851  0.7811 -0.6062 -0.3294
   55THF     C8  710   3.147   1.326   4.719 -0.6227  0.3029  0.2968
   55THF     C9  711   3.131   1.206   4.621 -0.9839 -0.3663  0.3154
   55THF    H10  712   3.185   1.274   4.807  0.3526  0.5259  0.0140
   55THF    H11  713   3.213   1.407   4.690  0.2827 -0.3347  0.5406
   55THF    H12  714   3.159   1.237   4.520  0.6986  0.6252  1.0452
   55THF    H13  715   3.203   1.127   4.643  1.3314  1.3195 -0.7897
   56THF     O1  716   3.286   5.281   0.136 -0.1774 -0.2938 -0.3695
   56THF     C2  717   3.157   5.219   0.147 -0.5926  0.0748 -0.7067
   56THF     C3  718   3.267   5.420   0.103  0.3013 -0.2389  0.4668
   56THF     H4  719   3.123   5.255   0.244  0.7311  0.7581 -0.4726
   56THF     H5  720   3.158   5.110   0.137 -0.6982 -0.2448  2.0044
   56THF     H6  721   3.230   5.470   0.192 -0.9213 -1.6295  0.7875
   56THF     H7  722   3.356   5.477   0.075  0.3344 -0.7223 -0.4513
   56THF     C8  723   3.156   5.409   0.002  0.5751 -0.2190  0.0205
   56THF     C9  724   3.083   5.278   0.030  0.5963  0.3778  0.7451
   56THF    H10  725   3.209   5.399  -0.092 -1.0318  3.7388 -1.5070
   56THF    H11  726   3.088   5.494  -0.003  0.2487 -0.5005 -0.4025
   56THF    H12  727   2.979   5.285   0.062  0.5396  1.1992  0.3907
   56THF    H13  728   3.087   5.214  -0.059 -0.8838  0.2441  0.7609
   57THF     O1  729   0.688   0.098   4.444  0.0662 -0.1066  0.1939
   57THF     C2  730   0.608   0.142   4.553 -1.4501  0.2325 -0.1181
   57THF     C3  731   0.827   0.139   4.479  0.4540  0.4040 -0.4174
   57THF     H4  732   0.559   0.058   4.603  2.0054 -1.7958  0.2127
   57THF     H5  733   0.542   0.223   4.523  0.8090  2.6067  0.9594
   57THF     H6  734   0.904   0.073   4.439  0.0522  2.0597 -4.4626
   57THF     H7  735   0.849   0.236   4.433  2.2182 -0.3914 -1.3332
   57THF     C8  736   0.827   0.142   4.631 -0.9725 -0.0767  0.1910
   57THF     C9  737   0.694   0.202   4.665  0.2584 -0.2539  0.2139
   57THF    H10  738   0.919   0.184   4.671  0.4813 -0.9972 -2.0111
   57THF    H11  739   0.818   0.039   4.667 -2.2362  0.3636  1.2099
   57THF    H12  740   0.662   0.165   4.763 -0.0315 -0.9197 -0.1296
   57THF    H13  741   0.700   0.311   4.670  1.5676 -0.0615 -2.9943
   58THF     O1  742   0.870   2.314   3.928 -0.0006 -0.3517  0.1336
   58THF     C2  743   0.812   2.335   4.057  0.5256 -0.0664  0.2658
   58THF     C3  744   1.013   2.300   3.935  0.4500 -0.4190 -0.5311
   58THF     H4  745   0.738   2.262   4.089  0.2207 -0.6906 -1.7111
   58THF     H5  746   0.758   2.430   4.058  3.1277  1.5073  0.2243
   58THF     H6  747   1.040   2.195   3.923  1.1231 -0.1914 -1.0877
   58THF     H7  748   1.056   2.363   3.857 -1.7987 -1.2394 -2.5931
   58THF     C8  749   1.055   2.343   4.072  0.0208  0.6362 -0.4306
   58THF     C9  750   0.925   2.327   4.152  0.3683  0.0546  0.0190
   58THF    H10  751   1.072   2.451   4.080 -1.7139  0.8812  0.2711
   58THF    H11  752   1.143   2.299   4.120 -1.7644 -2.0665  0.5951
   58THF    H12  753   0.927   2.228   4.198 -0.2716  0.0614  0.0686
   58THF    H13  754   0.933   2.401   4.232  1.8106 -0.3124  0.2310
   59THF     O1  755   4.893   3.023   3.089  0.4950 -0.4843  0.8657
   59THF     C2  756   4.939   3.097   3.202  0.1443 -0.6025 -0.4721
   59THF     C3  757   5.005   2.985   3.014  0.2018 -0.0049  0.1723
   59THF     H4  758   4.872   3.120   3.285 -0.2032  2.5115 -1.4681
   59THF     H5  759   4.965   3.199   3.172  2.0689 -1.0682 -0.4763
   59THF     H6  760   4.983   2.911   2.938 -0.4122  1.1448 -0.8015
   59THF     H7  761   5.046   3.076   2.969 -2.2533  0.0495 -2.1790
   59THF     C8  762   5.081   2.926   3.130 -0.2553 -0.0327 -0.8371
   59THF     C9  763   5.070   3.022   3.246  0.5028 -0.4188 -0.5595
   59THF    H10  764   5.185   2.913   3.099  0.0917  0.7504 -0.0446
   59THF    H11  765   5.044   2.828   3.161  1.1401 -0.3329 -0.0415
   59THF    H12  766   5.069   2.961   3.336  1.4008  2.1368  1.2800
   59THF    H13  767   5.146   3.099   3.257 -0.7209  0.7470 -0.0411
   60THF     O1  768   1.327   1.114   5.411  0.1472 -0.1674 -0.7041
   60THF     C2  769   1.331   1.010   5.507  0.8302 -0.2624 -0.4565
   60THF     C3  770   1.198   1.107   5.344  0.3049 -0.0133  0.7680
   60THF     H4  771   1.396   1.038   5.590 -0.0473  3.5680 -0.8523
   60THF     H5  772   1.362   0.915   5.463 -1.2011 -0.4311 -1.6357
   60THF     H6  773   1.181   1.201   5.291  1.1396  1.0599  2.3127
   60THF     H7  774   1.186   1.016   5.285  0.2653 -0.2634  1.1594
   60THF     C8  775   1.101   1.091   5.460  0.0315 -0.3202  0.7641
   60THF     C9  776   1.189   1.013   5.562 -0.8885 -0.3135 -0.5098
   60THF    H10  777   1.012   1.029   5.448 -2.3607  1.7448  5.1598
   60THF    H11  778   1.068   1.186   5.501 -1.9619 -1.7122  2.6408
   60THF    H12  779   1.196   1.060   5.660  1.1689 -0.9583 -0.3062
   60THF    H13  780   1.162   0.909   5.579  2.6478 -1.4393 -0.8766
   61THF     O1  781   1.939   4.340   1.482  0.3167 -1.0146  0.0111
   61THF     C2  782   2.050   4.396   1.547 -0.6382  0.3452  0.2109
   61THF     C3  783   1.872   4.440   1.404  0.7849  0.2666  0.2773
   61THF     H4  784   2.136   4.380   1.482 -0.6902  2.2280 -0.3775
   61THF     H5  785   2.082   4.352   1.642  2.5640  3.1983  0.6466
   61THF     H6  786   1.912   4.473   1.308  1.1446 -2.6161 -0.6387
   61THF     H7  787   1.775   4.396   1.383  0.4475  0.4010  1.4840
   61THF     C8  788   1.874   4.556   1.508  0.0066  0.8739 -0.3931
   61THF     C9  789   2.014   4.545   1.560  0.1113 -0.2516  0.2502
   61THF    H10  790   1.807   4.529   1.590 -0.3866  1.9077 -0.3612
   61THF    H11  791   1.842   4.649   1.460  0.4675  0.5296 -1.4048
   61THF    H12  792   2.081   4.596   1.490 -1.1380  0.0208 -0.7730
   61THF    H13  793   2.026   4.571   1.665  0.6923 -0.6494  0.2889
   62THF     O1  794   0.782   4.116   3.621  0.0863  0.2069 -0.7602
   62THF     C2  795   0.856   4.115   3.746 -0.0597 -0.5942 -0.1874
   62THF     C3  796   0.785   3.996   3.553 -0.0982 -0.1579  0.1499
   62THF     H4  797   0.794   4.169   3.818  0.0117  1.2478 -1.4369
   62THF     H5  798   0.948   4.173   3.739 -0.0928 -0.4901  0.1871
   62THF     H6  799   0.691   3.944   3.575  0.4546 -0.8876  0.8704
   62THF     H7  800   0.800   4.006   3.446 -1.3966 -3.3332 -0.4502
   62THF     C8  801   0.904   3.919   3.619 -0.2366 -1.4454  0.2395
   62THF     C9  802   0.880   3.966   3.766 -0.0705  0.5087 -0.3353
   62THF    H10  803   1.005   3.955   3.595 -0.9693  0.8950  0.4058
   62THF    H11  804   0.900   3.812   3.601 -0.8588 -1.4027  0.1173
   62THF    H12  805   0.785   3.926   3.801  0.0519 -2.1900 -2.7007
   62THF    H13  806   0.963   3.941   3.832 -0.4269  0.1754 -0.0065
   63THF     O1  807   0.528   5.398   2.714 -0.3318 -0.1796  0.2459
   63THF     C2  808   0.645   5.385   2.630  0.3156 -0.1285 -0.6788
   63THF     C3  809   0.565   5.442   2.840  0.6410  0.1062 -0.5521
   63THF     H4  810   0.622   5.438   2.537 -2.6976  0.3834  0.2339
   63THF     H5  811   0.678   5.285   2.604 -1.2173 -0.4764 -1.4447
   63THF     H6  812   0.478   5.492   2.882  0.8335  0.2536 -0.3246
   63THF     H7  813   0.586   5.365   2.915 -2.1973 -0.3624 -0.1388
   63THF     C8  814   0.680   5.540   2.821 -0.3713 -0.0799 -0.4823
   63THF     C9  815   0.751   5.476   2.704  0.1928  0.0391  0.0483
   63THF    H10  816   0.748   5.529   2.906 -0.3463 -0.0049 -0.4927
   63THF    H11  817   0.649   5.642   2.799  1.1669  0.0744 -2.1720
   63THF    H12  818   0.777   5.558   2.637 -1.2253  0.6264  0.1661
   63THF    H13  819   0.837   5.418   2.737 -1.0412 -2.1493 -0.4343
   64THF     O1  820   0.574   3.481   3.298  0.6661 -0.1314 -0.2304
   64THF     C2  821   0.443   3.457   3.336  0.4418 -0.0335 -0.4185
   64THF     C3  822   0.570   3.564   3.181 -0.0851  0.1988  0.1108
   64THF     H4  823   0.410   3.542   3.396  1.8512  1.0660 -1.1354
   64THF     H5  824   0.445   3.365   3.395  0.2275  1.1462  1.4784
   64THF     H6  825   0.544   3.665   3.213  0.5829  0.0481  1.2227
   64THF     H7  826   0.672   3.564   3.143  0.0425 -1.6947  0.3163
   64THF     C8  827   0.467   3.500   3.096  0.9298  0.5534 -0.0970
   64THF     C9  828   0.371   3.430   3.200 -0.3736 -0.0361 -0.3677
   64THF    H10  829   0.517   3.428   3.031  2.3290  0.3668  1.1408
   64THF    H11  830   0.408   3.561   3.028 -1.8131 -1.1438  0.5788
   64THF    H12  831   0.268   3.465   3.203 -0.9443 -1.5479 -1.1049
   64THF    H13  832   0.372   3.323   3.181 -2.2074 -0.5653  2.0425
   65THF     O1  833   1.181   0.569   1.131  0.0354  0.1137 -1.0005
   65THF     C2  834   1.305   0.495   1.165  0.0989  0.0423  0.6692
   65THF     C3  835   1.199   0.704   1.162 -0.4262  0.2685 -0.2563
   65THF     H4  836   1.301   0.399   1.115 -1.3531  1.1422 -1.4921
   65THF     H5  837   1.314   0.495   1.273  0.6496 -0.6634  0.6294
   65THF     H6  838   1.117   0.773   1.141 -1.3581 -0.1452  1.7931
   65THF     H7  839   1.205   0.714   1.271  0.5913  1.1429 -0.3758
   65THF     C8  840   1.347   0.722   1.114  0.0015  0.2052  0.5095
   65THF     C9  841   1.414   0.588   1.121 -0.8427 -0.4247 -0.8949
   65THF    H10  842   1.395   0.792   1.183  0.6519 -1.1362  1.4778
   65THF    H11  843   1.342   0.763   1.013 -2.3381  0.8621  0.8238
   65THF    H12  844   1.459   0.563   1.024 -0.8805  1.3945 -1.4156
   65THF    H13  845   1.492   0.592   1.197 -1.5000 -0.0305 -0.2321
   66THF     O1  846   2.413   3.642   2.928  0.4786 -0.1321 -0.1721
   66THF     C2  847   2.389   3.576   3.054  0.2505  0.3119 -0.0819
   66THF     C3  848   2.355   3.564   2.821 -0.1770 -0.2225  0.4001
   66THF     H4  849   2.385   3.646   3.137  0.9648  0.8549 -0.4960
   66THF     H5  850   2.467   3.502   3.072  0.8090  0.9939  0.3420
   66THF     H6  851   2.292   3.627   2.758  0.1769  0.6169  0.8601
   66THF     H7  852   2.442   3.531   2.764 -1.4112  0.1008 -1.7808
   66THF     C8  853   2.276   3.446   2.894 -0.1114 -0.5538  0.3288
   66THF     C9  854   2.258   3.500   3.033 -0.5804 -0.6073 -0.2872
   66THF    H10  855   2.347   3.365   2.881  0.4751  0.3104 -2.6717
   66THF    H11  856   2.179   3.414   2.856 -0.4815 -2.1683  2.4465
   66THF    H12  857   2.174   3.569   3.034  0.3930  0.6139  0.5299
   66THF    H13  858   2.239   3.426   3.111  0.6113  0.7557  1.3618
   67THF     O1  859   2.717   2.680   2.892  0.2053 -0.2156 -0.3223
   67THF     C2  860   2.753   2.770   2.786  0.2706  0.2816 -0.1859
   67THF     C3  861   2.828   2.599   2.920  0.1647 -0.0774 -0.2143
   67THF     H4  862   2.684   2.854   2.775  3.2132  2.6122 -2.2426
   67THF     H5  863   2.745   2.729   2.685 -5.5889  0.4544 -0.1588
   67THF     H6  864   2.832   2.539   3.011 -0.9152  1.6017  0.9923
   67THF     H7  865   2.827   2.535   2.832  0.3662  0.7903 -0.8635
   67THF     C8  866   2.951   2.689   2.894 -0.1750  0.0879 -0.2210
   67THF     C9  867   2.899   2.811   2.819  0.3777  0.4265  0.3501
   67THF    H10  868   3.018   2.628   2.833  1.9315  0.4171  1.6312
   67THF    H11  869   3.010   2.700   2.985 -0.0020  1.3626 -0.4811
   67THF    H12  870   2.893   2.905   2.874 -2.9065 -0.0956  1.0814
   67THF    H13  871   2.963   2.827   2.731  3.4995 -0.8730  2.2044
   68THF     O1  872   1.572   5.260   2.355 -0.4750  0.1113  0.1396
   68THF     C2  873   1.581   5.318   2.228  0.4997 -0.2834  0.4490
   68THF     C3  874   1.550   5.125   2.326  0.1716 -0.5840  0.3558
   68THF     H4  875   1.624   5.418   2.240 -0.3183  0.0162  1.0144
   68THF     H5  876   1.483   5.338   2.186  0.7629  2.3903  0.9178
   68THF     H6  877   1.571   5.053   2.406 -1.5151 -0.6711  0.7638
   68THF     H7  878   1.448   5.112   2.289 -0.6047 -1.7640  2.6826
   68THF     C8  879   1.652   5.101   2.215 -0.5399  0.6198  0.3616
   68THF     C9  880   1.668   5.227   2.148 -0.9721  0.4361  0.4233
   68THF    H10  881   1.634   5.024   2.140  0.9158 -1.0177  1.6085
   68THF    H11  882   1.751   5.084   2.256  1.0640  0.2285 -3.3223
   68THF    H12  883   1.772   5.256   2.160 -0.1038 -2.2772  0.1488
   68THF    H13  884   1.638   5.217   2.044 -4.7090 -0.9322  1.4672
   69THF     O1  885   2.197   1.009   4.012 -0.0364 -0.0623  0.5163
   69THF     C2  886   2.141   1.000   4.141 -0.1080  0.8544 -0.2853
   69THF     C3  887   2.331   0.988   4.016 -0.5438  0.1939  0.7639
   69THF     H4  888   2.032   1.001   4.133 -0.1200  0.0060 -0.3225
   69THF     H5  889   2.179   1.082   4.202  0.4438  0.5008 -0.1464
   69THF     H6  890   2.381   0.994   3.919  0.3664  0.0183  1.2136
   69THF     H7  891   2.358   1.073   4.079 -1.8848  2.0788 -1.0562
   69THF     C8  892   2.341   0.862   4.108  0.1497 -0.2483  0.7343
   69THF     C9  893   2.201   0.858   4.170  0.3271  0.0600  0.6587
   69THF    H10  894   2.413   0.870   4.190  0.3465  1.2575  0.4499
   69THF    H11  895   2.339   0.767   4.056  0.6173 -0.6056  1.3564
   69THF    H12  896   2.140   0.780   4.124  0.2851  0.1107  0.6282
   69THF    H13  897   2.204   0.839   4.277  0.2667 -0.3325  0.5926
   70THF     O1  898   3.631   0.227   3.463  0.2141  0.1359 -0.0148
   70THF     C2  899   3.667   0.112   3.540 -0.9150  0.0210  0.3670
   70THF     C3  900   3.656   0.340   3.547 -0.1190  0.2017  0.2446
   70THF     H4  901   3.773   0.089   3.536 -1.0798 -0.5974 -1.2469
   70THF     H5  902   3.614   0.027   3.497 -1.6290  0.4833  0.3225
   70THF     H6  903   3.753   0.387   3.526  0.6593 -1.5006 -0.1422
   70THF     H7  904   3.576   0.414   3.539 -1.0849 -0.9086 -0.6818
   70THF     C8  905   3.654   0.287   3.696 -0.2027 -0.4648  0.0819
   70THF     C9  906   3.619   0.134   3.686 -0.3064 -0.2579  0.3615
   70THF    H10  907   3.583   0.327   3.768 -1.3521 -0.9567 -0.7459
   70THF    H11  908   3.756   0.285   3.734 -0.4406 -0.3393  0.7272
   70THF    H12  909   3.688   0.076   3.746  2.2983  0.3494 -1.8754
   70THF    H13  910   3.511   0.118   3.695 -0.2827 -0.5259  0.1629
   71THF     O1  911   2.930   3.284   2.776  0.3321  0.4661  0.2658
   71THF     C2  912   3.004   3.222   2.880  0.2493  0.2502 -0.2066
   71THF     C3  913   2.842   3.381   2.837 -0.0039  0.3275  0.5681
   71THF     H4  914   3.094   3.282   2.891 -0.4382  1.0806  1.1264
   71THF     H5  915   3.015   3.115   2.863 -0.4538  0.4873 -2.7031
   71THF     H6  916   2.880   3.483   2.838  0.3215  0.2061  1.3583
   71THF     H7  917   2.749   3.402   2.785 -0.5486  0.2224  1.4891
   71THF     C8  918   2.809   3.323   2.972 -0.0263  0.7820  1.2390
   71THF     C9  919   2.925   3.236   3.010  0.0715 -0.7506 -0.4744
   71THF    H10  920   2.723   3.260   2.952 -1.0611  3.0915 -2.7896
   71THF    H11  921   2.791   3.405   3.042 -1.8080  1.7179 -0.2461
   71THF    H12  922   2.984   3.298   3.078  0.3151 -0.6816 -0.7487
   71THF    H13  923   2.895   3.148   3.067 -2.7369  0.5532  0.2435
   72THF     O1  924   2.221   4.085   3.850 -0.3386 -0.1862 -0.0075
   72THF     C2  925   2.261   4.094   3.993  0.3575 -0.8148  0.6089
   72THF     C3  926   2.300   4.171   3.772 -0.6014  0.1142 -0.3104
   72THF     H4  927   2.343   4.025   4.015  0.4111 -0.1130  2.8579
   72THF     H5  928   2.177   4.068   4.056 -0.1845 -2.6014 -0.7732
   72THF     H6  929   2.372   4.115   3.712  0.2412 -0.8964  1.5788
   72THF     H7  930   2.235   4.231   3.708 -0.8544 -1.6636 -1.8201
   72THF     C8  931   2.376   4.247   3.872 -0.5951 -0.1727 -0.6155
   72THF     C9  932   2.304   4.230   4.004  0.4018  0.4044  0.0245
   72THF    H10  933   2.403   4.349   3.843 -0.0086 -0.5964 -1.6027
   72THF    H11  934   2.476   4.203   3.874 -1.1075 -1.3481  0.4746
   72THF    H12  935   2.358   4.245   4.097 -0.9570  0.3252  0.8546
   72THF    H13  936   2.209   4.284   3.995 -1.3196 -2.6325 -1.9452
   73THF     O1  937   3.880   3.018   4.029  0.7837  0.0257  0.2193
   73THF     C2  938   3.852   2.911   4.114  0.0183  0.8488 -0.3078
   73THF     C3  939   3.939   2.977   3.910 -0.1609  0.1783  0.0758
   73THF     H4  940   3.764   2.856   4.081  0.6268 -0.5864  0.4053
   73THF     H5  941   3.834   2.952   4.213  1.1828  1.9040 -0.4923
   73THF     H6  942   3.874   2.934   3.834 -0.5768 -1.6820  1.4240
   73THF     H7  943   3.983   3.067   3.865  2.8426 -2.0785 -1.8563
   73THF     C8  944   4.034   2.868   3.952  0.1546  0.7066 -0.9913
   73THF     C9  945   3.990   2.835   4.086  0.6926 -0.0584 -1.1593
   73THF    H10  946   4.136   2.904   3.960 -0.6607  2.9939 -0.2132
   73THF    H11  947   4.041   2.782   3.885 -1.6737  0.0574 -0.4108
   73THF    H12  948   3.979   2.726   4.086  0.3711 -0.0354 -0.1352
   73THF    H13  949   4.063   2.875   4.157 -0.7168  1.7443 -0.6739
   74THF     O1  950   2.044   0.619   4.817 -0.1713  0.1896 -0.4489
   74THF     C2  951   2.015   0.712   4.929  0.6401 -0.0693 -0.2931
   74THF     C3  952   2.124   0.689   4.723  0.1051 -0.6303 -0.3013
   74THF     H4  953   2.013   0.665   5.027  0.8588  2.3928  0.9841
   74THF     H5  954   1.920   0.765   4.924  0.0136 -1.0723  0.6388
   74THF     H6  955   2.168   0.630   4.642  0.0909 -0.1559 -0.6600
   74THF     H7  956   2.063   0.764   4.672  0.5365  0.7411  1.1368
   74THF     C8  957   2.220   0.765   4.810  0.2329 -0.1490 -0.5663
   74THF     C9  958   2.135   0.806   4.929  0.2348 -0.5877 -0.7039
   74THF    H10  959   2.266   0.853   4.764  1.2714  0.3845  1.3714
   74THF    H11  960   2.293   0.695   4.849  0.1660  0.6152  1.0176
   74THF    H12  961   2.180   0.808   5.029  0.0740  0.3365 -0.6440
   74THF    H13  962   2.093   0.904   4.910 -0.4949 -0.9709 -1.1077
   75THF     O1  963   4.171   0.177   3.085  0.0400 -0.0017  0.0646
   75THF     C2  964   4.095   0.267   3.159 -0.2167 -0.7803  0.0633
   75THF     C3  965   4.262   0.117   3.175  0.4403  0.0190 -0.2834
   75THF     H4  966   4.006   0.301   3.107 -0.2133  0.7029  0.9654
   75THF     H5  967   4.154   0.355   3.183 -1.3821  0.6154 -1.9374
   75THF     H6  968   4.308   0.027   3.134  1.4695  0.4402 -0.0935
   75THF     H7  969   4.340   0.185   3.209  0.5848 -1.3858  2.5069
   75THF     C8  970   4.168   0.088   3.296 -0.2243  0.6126 -0.2370
   75THF     C9  971   4.062   0.193   3.286 -0.0783 -0.3257 -0.0303
   75THF    H10  972   4.225   0.085   3.389  0.9086 -0.7368 -0.9300
   75THF    H11  973   4.129  -0.013   3.290  2.1386 -0.3397 -0.8173
   75THF    H12  974   3.966   0.146   3.266 -2.1344  3.2204  0.6127
   75THF    H13  975   4.058   0.249   3.379 -1.2699 -0.5234  0.0566
   76THF     O1  976   4.643   0.516   0.148 -0.0000 -0.2035  0.4698
   76THF     C2  977   4.662   0.572   0.276 -0.3233  0.2739 -0.1564
   76THF     C3  978   4.769   0.491   0.087  0.0780 -0.2367 -0.4627
   76THF     H4  979   4.682   0.498   0.353  0.3294  0.6919  0.0855
   76THF     H5  980   4.568   0.625   0.295  0.2361  1.5214 -0.7359
   76THF     H6  981   4.796   0.385   0.089  0.8060 -0.0458  0.5848
   76THF     H7  982   4.755   0.526  -0.015 -1.0346  0.3887 -0.1061
   76THF     C8  983   4.872   0.583   0.157  0.2328  0.1734  0.4629
   76THF     C9  984   4.791   0.659   0.262  0.5480 -0.5722 -0.3685
   76THF    H10  985   4.917   0.649   0.082  0.8188 -0.7030  0.0264
   76THF    H11  986   4.956   0.527   0.199  1.0357  1.2455  0.3175
   76THF    H12  987   4.847   0.661   0.355 -0.1127  0.3791  0.0189
   76THF    H13  988   4.786   0.763   0.230  2.1173 -0.0174  1.0656
   77THF     O1  989   0.510   3.482   0.474 -0.6636 -0.3595  0.2111
   77THF     C2  990   0.429   3.590   0.513  0.2643 -0.7807  0.0483
   77THF     C3  991   0.439   3.406   0.382  0.0059  0.4754  0.5802
   77THF     H4  992   0.491   3.674   0.545  1.0103 -1.1787 -0.3321
   77THF     H5  993   0.358   3.557   0.590 -0.0501  0.8708  0.5146
   77THF     H6  994   0.500   3.354   0.308  0.5449 -1.1962  2.1118
   77THF     H7  995   0.368   3.338   0.428  1.2133 -0.0537  1.7033
   77THF     C8  996   0.350   3.515   0.302  0.1783  0.1468 -0.3126
   77THF     C9  997   0.351   3.632   0.391  0.3772  0.0609 -0.4338
   77THF    H10  998   0.249   3.477   0.284  0.4382 -0.1664 -1.1601
   77THF    H11  999   0.396   3.538   0.206  0.6094  1.3190  0.1635
   77THF    H12 1000   0.414   3.714   0.358 -2.6167  2.6131 -0.2122
   77THF    H13 1001   0.259   3.680   0.424  0.2637 -0.4730  0.0472
   78THF     O1 1002   2.283   2.196   4.526 -0.2084 -0.4168  0.1034
   78THF     C2 1003   2.201   2.212   4.644 -0.1221  0.6443 -0.1800
   78THF     C3 1004   2.386   2.296   4.522 -0.3926 -0.4528  0.5881
   78THF     H4 1005   2.145   2.119   4.658  1.4814 -0.0874  1.7561
   78THF     H5 1006   2.119   2.283   4.628 -0.5822 -0.0156 -0.8257
   78THF     H6 1007   2.464   2.249   4.463  0.8454 -0.7095  2.3476
   78THF     H7 1008   2.352   2.392   4.483 -0.0574 -0.4770  0.2357
   78THF     C8 1009   2.430   2.296   4.666  0.4783 -0.0976 -0.2275
   78THF     C9 1010   2.305   2.253   4.749 -0.4260 -0.0473  0.2963
   78THF    H10 1011   2.466   2.394   4.696  0.3179 -0.7757  2.3926
   78THF    H11 1012   2.506   2.219   4.680  0.9145  0.7202  2.2791
   78THF    H12 1013   2.326   2.169   4.814  1.4055 -0.8325 -1.1976
   78THF    H13 1014   2.254   2.336   4.799  1.6105  2.0747 -0.9183
   79THF     O1 1015   5.260   4.858   1.789 -0.0570 -0.9601 -0.1441
   79THF     C2 1016   5.357   4.916   1.701 -0.8435 -0.6327  0.2609
   79THF     C3 1017   5.259   4.952   1.901  0.4544 -0.3222 -0.7884
   79THF     H4 1018   5.317   5.002   1.647 -0.3397 -0.1692  0.6108
   79THF     H5 1019   5.399   4.861   1.617  0.7381  0.0865  0.5518
   79THF     H6 1020   5.205   5.040   1.864 -2.7932 -1.8691 -0.0952
   79THF     H7 1021   5.199   4.924   1.988 -1.2237  1.4568 -1.2931
   79THF     C8 1022   5.407   4.991   1.925 -0.4810  0.8425  0.0103
   79THF     C9 1023   5.467   4.965   1.787 -0.3866 -0.0303  0.2825
   79THF    H10 1024   5.456   4.934   2.004  0.3419  0.8440 -0.4920
   79THF    H11 1025   5.424   5.096   1.949 -1.5542  1.0674 -0.1740
   79THF    H12 1026   5.510   5.053   1.739 -3.3185  0.5566 -1.5411
   79THF    H13 1027   5.532   4.877   1.790  0.4947  0.5533 -0.8437
   80THF     O1 1028   5.100   1.475   1.518 -0.0618  0.2469  0.3940
   80THF     C2 1029   5.085   1.455   1.657  0.3479  0.3645 -0.4158
   80THF     C3 1030   5.216   1.554   1.504 -1.0200 -0.2374 -0.5396
   80THF     H4 1031   5.135   1.367   1.696 -0.1870 -0.9180 -2.5116
   80THF     H5 1032   4.981   1.429   1.675  0.8906 -0.7106  1.4285
   80THF     H6 1033   5.293   1.476   1.502 -0.2741  0.4943 -1.7878
   80THF     H7 1034   5.225   1.611   1.412  3.2193 -1.3181 -1.0150
   80THF     C8 1035   5.249   1.631   1.630 -0.0548  0.2903  0.5069
   80THF     C9 1036   5.123   1.598   1.711 -0.2390 -0.0661 -0.0804
   80THF    H10 1037   5.262   1.739   1.620 -3.7431  0.8119 -0.3165
   80THF    H11 1038   5.334   1.582   1.677 -1.1123 -2.1205  0.0413
   80THF    H12 1039   5.135   1.601   1.820  1.6068  1.9471 -0.2708
   80THF    H13 1040   5.050   1.677   1.691  1.8621  2.0974  0.2684
   81THF     O1 1041   3.829   3.849   4.238  0.8928 -0.9043  1.1606
   81THF     C2 1042   3.911   3.840   4.119 -0.0891 -0.1185  0.1040
   81THF     C3 1043   3.834   3.983   4.280  0.3357 -0.7444 -0.6333
   81THF     H4 1044   3.906   3.754   4.052  2.4844 -1.1923  1.1609
   81THF     H5 1045   4.015   3.835   4.152 -0.4005 -1.5286  0.9844
   81THF     H6 1046   3.759   4.002   4.357  0.8624 -2.3700  0.3310
   81THF     H7 1047   3.929   3.992   4.333  0.0595 -1.0239 -0.0778
   81THF     C8 1048   3.827   4.064   4.154 -0.0295 -0.0005 -0.1526
   81THF     C9 1049   3.884   3.967   4.044 -0.9582 -0.2173 -0.4992
   81THF    H10 1050   3.883   4.157   4.165 -1.1432  0.7746 -0.8393
   81THF    H11 1051   3.720   4.080   4.144 -0.4349 -2.7422 -1.0038
   81THF    H12 1052   3.812   3.942   3.966 -1.1235  1.1002 -0.7814
   81THF    H13 1053   3.977   4.008   4.008 -1.0767  0.1384 -0.3998
   82THF     O1 1054   5.379   1.782   4.025 -0.4131 -0.4425  0.4640
   82THF     C2 1055   5.244   1.754   4.038 -0.5344 -0.2280 -0.3441
   82THF     C3 1056   5.405   1.913   3.991  0.4969  0.0568 -0.6330
   82THF     H4 1057   5.213   1.790   4.136  0.2025  1.0054 -0.5436
   82THF     H5 1058   5.232   1.646   4.022 -2.5381 -0.4391  2.0377
   82THF     H6 1059   5.399   1.960   4.089 -4.1669 -1.5824  0.1338
   82THF     H7 1060   5.493   1.930   3.929 -0.4086  0.6302 -1.8060
   82THF     C8 1061   5.281   1.951   3.907 -0.0641 -0.3224 -0.0177
   82THF     C9 1062   5.178   1.838   3.925 -0.1094  1.0414 -0.3661
   82THF    H10 1063   5.310   1.951   3.802  2.6420 -0.3339  0.6700
   82THF    H11 1064   5.258   2.053   3.935  2.2445  0.2812 -0.1226
   82THF    H12 1065   5.082   1.881   3.954 -1.9731 -1.7466 -1.9603
   82THF    H13 1066   5.162   1.784   3.832 -0.0157 -2.0645  1.3058
   83THF     O1 1067   1.715   0.552   4.983  0.0124  0.1449  0.2837
   83THF     C2 1068   1.746   0.443   4.902  0.0150  0.4287 -0.0701
   83THF     C3 1069   1.621   0.637   4.915  0.2483 -0.4704  0.1011
   83THF     H4 1070   1.674   0.363   4.920  2.4302 -1.6073  1.1613
   83THF     H5 1071   1.848   0.411   4.926  1.1090  2.7279 -1.3610
   83THF     H6 1072   1.521   0.621   4.955  0.0525 -0.5399 -0.4067
   83THF     H7 1073   1.646   0.742   4.925 -0.9624 -0.1072 -0.5285
   83THF     C8 1074   1.615   0.588   4.776  0.3692  0.8086  0.1941
   83THF     C9 1075   1.732   0.498   4.764  0.1479 -0.5722  0.9737
   83THF    H10 1076   1.602   0.678   4.716  0.0073  1.9881  1.9480
   83THF    H11 1077   1.525   0.530   4.762  1.5960 -1.2519  0.4424
   83THF    H12 1078   1.713   0.417   4.694  0.2412 -0.0050  0.2776
   83THF    H13 1079   1.826   0.550   4.744 -1.3871  1.8195 -0.5202
   84THF     O1 1080   2.950   3.180   1.365  0.1257  0.5333  0.4557
   84THF     C2 1081   2.819   3.227   1.324 -0.4417  0.4834 -1.0019
   84THF     C3 1082   3.006   3.111   1.253  0.1241  0.0971 -0.1775
   84THF     H4 1083   2.819   3.334   1.348 -0.5860  0.0528  1.0918
   84THF     H5 1084   2.735   3.182   1.378 -1.2316  1.8267 -1.0611
   84THF     H6 1085   3.077   3.181   1.209  0.4923  1.0261  1.7864
   84THF     H7 1086   3.059   3.020   1.282 -0.0421 -0.2635 -0.9912
   84THF     C8 1087   2.896   3.091   1.146  0.5434 -0.3636  0.5392
   84THF     C9 1088   2.811   3.211   1.171  0.2374 -0.1610  0.1958
   84THF    H10 1089   2.829   3.007   1.165 -2.1357  0.7765 -2.9563
   84THF    H11 1090   2.930   3.083   1.043  0.1143 -0.7499  0.4252
   84THF    H12 1091   2.876   3.285   1.124 -0.3234 -0.7551 -1.5910
   84THF    H13 1092   2.716   3.215   1.117  1.2553  1.6604 -1.6129
   85THF     O1 1093   1.532   4.264   5.427 -0.2944  0.0710 -0.3095
   85THF     C2 1094   1.421   4.194   5.381 -0.6821  0.6434  0.3913
   85THF     C3 1095   1.489   4.387   5.485 -0.3366 -0.6005  0.2919
   85THF     H4 1096   1.443   4.088   5.374 -0.8328  0.4668  2.0987
   85THF     H5 1097   1.396   4.226   5.280  0.4101 -2.2163 -0.8682
   85THF     H6 1098   1.551   4.406   5.572 -0.5769  0.5415  0.2255
   85THF     H7 1099   1.506   4.476   5.425 -1.1116  1.1155  2.4808
   85THF     C8 1100   1.337   4.375   5.511  0.0522  0.7929 -0.7887
   85THF     C9 1101   1.318   4.224   5.487 -0.0237 -0.0831 -0.7641
   85THF    H10 1102   1.268   4.434   5.451 -1.1229 -0.1175 -0.3665
   85THF    H11 1103   1.308   4.411   5.609 -2.2624  0.1389 -1.1756
   85THF    H12 1104   1.338   4.174   5.582  0.2316  0.7598 -0.3702
   85THF    H13 1105   1.213   4.208   5.461 -0.8639 -1.1369  2.7257
   86THF     O1 1106   1.864   3.597   3.271 -0.1174  0.1892  0.5981
   86THF     C2 1107   1.848   3.721   3.202  0.3490 -0.4189  0.0420
   86THF     C3 1108   1.798   3.491   3.194 -0.0390 -0.6546  0.0130
   86THF     H4 1109   1.936   3.786   3.205  1.1937 -1.5717  1.3865
   86THF     H5 1110   1.761   3.773   3.242  0.9582  1.2506 -0.7015
   86THF     H6 1111   1.866   3.411   3.166 -0.3766 -0.8632 -0.2270
   86THF     H7 1112   1.719   3.443   3.252 -0.4202  0.4620  0.4382
   86THF     C8 1113   1.733   3.564   3.080 -0.6173 -0.0795 -0.0497
   86THF     C9 1114   1.816   3.681   3.064  0.0231  0.2356 -0.2877
   86THF    H10 1115   1.630   3.596   3.100 -0.1705  1.2608  0.2299
   86THF    H11 1116   1.745   3.502   2.991  0.5142 -0.4238  0.3360
   86THF    H12 1117   1.910   3.654   3.014  0.6101  0.0545  0.8912
   86THF    H13 1118   1.775   3.765   3.008 -1.6229 -1.1136 -1.2049
   87THF     O1 1119   0.847   4.063   2.546 -0.2795 -0.5211 -0.1266
   87THF     C2 1120   0.812   3.971   2.645 -0.0930 -0.4184  0.2310
   87THF     C3 1121   0.732   4.138   2.506  0.5998  0.4973  0.2030
   87THF     H4 1122   0.887   3.955   2.722 -1.5856  1.5095  2.1866
   87THF     H5 1123   0.762   3.886   2.600 -2.4734  0.6581  0.6899
   87THF     H6 1124   0.741   4.247   2.513  0.8225  0.4052  1.8520
   87THF     H7 1125   0.697   4.102   2.409 -1.0599  0.5192  0.7520
   87THF     C8 1126   0.621   4.107   2.603 -0.0232 -0.1633 -0.2271
   87THF     C9 1127   0.699   4.045   2.720  0.0276 -0.3445  0.1005
   87THF    H10 1128   0.547   4.036   2.567  1.5052 -1.5811 -0.6876
   87THF    H11 1129   0.564   4.197   2.626  1.1103  0.2450  1.1699
   87THF    H12 1130   0.738   4.124   2.783  2.1867  0.1822 -1.7589
   87THF    H13 1131   0.633   3.976   2.773 -1.0809  0.2339 -0.4928
   88THF     O1 1132   1.759   3.470   4.782  0.2847 -0.1084 -0.3639
   88THF     C2 1133   1.809   3.601   4.804 -0.0010  0.4842 -0.4165
   88THF     C3 1134   1.730   3.455   4.641  0.1550 -0.1788  0.3907
   88THF     H4 1135   1.912   3.586   4.834  0.0374 -0.5880 -1.0372
   88THF     H5 1136   1.754   3.648   4.886  0.4165  0.7765 -0.3021
   88THF     H6 1137   1.820   3.409   4.600 -0.1256 -0.2839 -0.1047
   88THF     H7 1138   1.642   3.402   4.606  0.6709  0.0629 -1.3245
   88THF     C8 1139   1.718   3.596   4.591  0.3412  0.8750 -0.2385
   88THF     C9 1140   1.809   3.680   4.671  0.3419  0.1496  0.0448
   88THF    H10 1141   1.620   3.638   4.611  0.2104  0.0799  0.8819
   88THF    H11 1142   1.728   3.603   4.483  0.0378 -2.0398 -0.5361
   88THF    H12 1143   1.910   3.673   4.629  1.3451  2.4131  1.8157
   88THF    H13 1144   1.787   3.785   4.692  1.8929  0.2394  1.4161
   89THF     O1 1145   5.174   0.344   0.055  0.0363  0.2069  0.5650
   89THF     C2 1146   5.226   0.237  -0.025 -0.6143 -0.1136 -0.2760
   89THF     C3 1147   5.135   0.439  -0.044 -0.3996  0.5855 -1.1132
   89THF     H4 1148   5.147   0.171  -0.061 -0.4569 -1.4349  1.6189
   89THF     H5 1149   5.298   0.176   0.029 -1.4443  0.9940  2.2434
   89THF     H6 1150   5.026   0.442  -0.056 -0.6552 -0.4557  0.5096
   89THF     H7 1151   5.164   0.535  -0.003  0.5304 -0.6194  1.2645
   89THF     C8 1152   5.214   0.412  -0.174 -0.8773  0.3475  0.5190
   89THF     C9 1153   5.303   0.302  -0.137 -0.2146  0.3504  0.2881
   89THF    H10 1154   5.259   0.499  -0.223  0.3635 -1.0132 -0.8784
   89THF    H11 1155   5.149   0.381  -0.256 -0.8979  3.3499 -0.7462
   89THF    H12 1156   5.327   0.231  -0.216 -1.3236 -1.7830  1.7664
   89THF    H13 1157   5.401   0.337  -0.104  0.5833 -0.9108 -0.6521
   90THF     O1 1158   3.381   3.211   2.759 -0.7798 -0.3292 -0.0734
   90THF     C2 1159   3.270   3.222   2.673  0.2747  0.6211 -0.4080
   90THF     C3 1160   3.489   3.280   2.703  0.2226 -0.2207 -0.0039
   90THF     H4 1161   3.229   3.322   2.677  0.4244  0.7608 -1.8044
   90THF     H5 1162   3.189   3.153   2.697  1.1735 -0.3037  0.0813
   90THF     H6 1163   3.484   3.387   2.724  1.0819 -0.1015 -0.3320
   90THF     H7 1164   3.589   3.250   2.736 -0.9379 -2.0757  2.0600
   90THF     C8 1165   3.474   3.241   2.554 -0.1471 -0.4672 -0.4067
   90THF     C9 1166   3.327   3.200   2.533 -0.8560  0.3306 -0.8037
   90THF    H10 1167   3.532   3.151   2.531  1.1585 -0.2625  1.7960
   90THF    H11 1168   3.508   3.310   2.477  1.8599 -0.9813 -0.0347
   90THF    H12 1169   3.269   3.247   2.453 -1.6825 -1.0177 -1.0194
   90THF    H13 1170   3.333   3.094   2.510  0.8464  0.6580 -2.1633
   91THF     O1 1171   5.204   3.364   3.515 -0.3783  0.5370  0.3648
   91THF     C2 1172   5.102   3.406   3.416  0.4427  0.4118  0.1976
   91THF     C3 1173   5.157   3.245   3.570 -0.3401 -0.1069 -0.5646
   91THF     H4 1174   5.102   3.341   3.329 -0.7071  1.1011 -0.3276
   91THF     H5 1175   5.128   3.506   3.380  0.9662  0.2581  0.1408
   91THF     H6 1176   5.160   3.168   3.493 -1.0717  1.2587 -2.0151
   91THF     H7 1177   5.211   3.199   3.653  1.8436  1.0054 -1.2863
   91THF     C8 1178   5.014   3.286   3.615 -0.3264 -0.4047  0.7306
   91THF     C9 1179   4.971   3.378   3.494  1.0954 -0.3215 -0.6969
   91THF    H10 1180   5.028   3.352   3.700 -0.2319 -0.5951  0.8631
   91THF    H11 1181   4.937   3.213   3.641  0.0882 -0.9166  0.5391
   91THF    H12 1182   4.894   3.339   3.429  0.1169 -1.1550  0.9034
   91THF    H13 1183   4.926   3.470   3.531  1.0874 -0.5070 -0.2298
   92THF     O1 1184   5.084   1.265   5.073  0.2129  0.2600  0.3852
   92THF     C2 1185   5.073   1.398   5.015  0.4916 -0.0054  0.5210
   92THF     C3 1186   4.959   1.211   5.115  0.0430  0.4806  0.6647
   92THF     H4 1187   5.077   1.390   4.906  0.0491  1.6884  0.3571
   92THF     H5 1188   5.157   1.464   5.037  1.2198  0.0193 -1.9580
   92THF     H6 1189   4.897   1.161   5.041 -0.6734  1.6214  0.4765
   92THF     H7 1190   4.975   1.129   5.185  0.1542  0.1700  0.2743
   92THF     C8 1191   4.894   1.344   5.155  0.2796  0.1729 -0.3978
   92THF     C9 1192   4.937   1.448   5.059  0.1652 -0.6613 -0.9684
   92THF    H10 1193   4.924   1.359   5.259 -0.7528 -1.1631  0.1273
   92THF    H11 1194   4.789   1.316   5.147  0.0212  1.4845 -1.9336
   92THF    H12 1195   4.871   1.453   4.972 -0.4707  0.6162 -0.4345
   92THF    H13 1196   4.923   1.549   5.097 -1.1756 -0.5817 -1.6028
   93THF     O1 1197   2.250   1.037   0.114 -0.1875  0.2365  0.5342
   93THF     C2 1198   2.163   0.996   0.209 -0.0053  0.9345 -0.4610
   93THF     C3 1199   2.295   0.923   0.038  0.1657 -0.0921 -0.5865
   93THF     H4 1200   2.131   1.088   0.257 -1.5485 -0.7956  2.0934
   93THF     H5 1201   2.202   0.935   0.290 -0.8398  0.0327 -0.7082
   93THF     H6 1202   2.333   0.946  -0.061 -0.0785  0.2177 -0.6091
   93THF     H7 1203   2.370   0.879   0.104 -0.4948  0.6387  0.6983
   93THF     C8 1204   2.170   0.841   0.029 -0.4075 -0.5262  0.2359
   93THF     C9 1205   2.074   0.911   0.120 -0.1331  0.5026  0.3829
   93THF    H10 1206   2.179   0.735   0.050 -1.9639 -1.0599 -1.5115
   93THF    H11 1207   2.140   0.847  -0.076 -1.0839  1.9693  0.5017
   93THF    H12 1208   2.005   0.979   0.070 -0.4379  0.7934  1.1878
   93THF    H13 1209   2.015   0.837   0.173 -2.6515  1.3197 -1.1352
   94THF     O1 1210   2.963   1.114   0.041 -0.1717  0.8436 -0.1723
   94THF     C2 1211   3.028   1.006   0.105  0.2102 -0.5697  0.0453
   94THF     C3 1212   3.031   1.148  -0.080 -0.4819 -0.3956 -0.1286
   94THF     H4 1213   2.967   0.963   0.185  0.0818 -1.5259 -0.5484
   94THF     H5 1214   3.126   1.037   0.142  1.5662  1.2261 -4.4135
   94THF     H6 1215   2.966   1.200  -0.151 -1.6126 -2.7165 -0.9273
   94THF     H7 1216   3.111   1.217  -0.056 -1.1577  0.4120 -0.1230
   94THF     C8 1217   3.084   1.009  -0.124 -0.6246 -0.1921  0.6390
   94THF     C9 1218   3.043   0.921  -0.012 -0.0803  0.6212  0.4136
   94THF    H10 1219   3.192   1.011  -0.136 -0.5520  0.0802  1.2674
   94THF    H11 1220   3.040   0.980  -0.219 -0.4545  1.8863 -0.1349
   94THF    H12 1221   2.950   0.869  -0.039  0.6724 -0.5748  0.0404
   94THF    H13 1222   3.111   0.838   0.007 -0.7581 -0.1788 -0.4708
   95THF     O1 1223   3.256   0.631   1.992 -0.4903 -1.0671  0.0490
   95THF     C2 1224   3.177   0.715   2.083  0.4839 -0.0747  0.3040
   95THF     C3 1225   3.240   0.682   1.855  0.0235  0.2977 -0.5926
   95THF     H4 1226   3.246   0.769   2.148  1.9691 -1.0393 -0.4291
   95THF     H5 1227   3.121   0.643   2.142 -1.1062  1.0759  0.2735
   95THF     H6 1228   3.304   0.768   1.834  0.1188 -0.0844 -1.9559
   95THF     H7 1229   3.262   0.610   1.776  0.0089  0.9298 -1.1823
   95THF     C8 1230   3.092   0.727   1.859  0.5007 -0.0412  0.2153
   95THF     C9 1231   3.073   0.794   1.994 -0.2892 -0.2442 -0.3338
   95THF    H10 1232   3.025   0.641   1.849 -0.8480  1.0727 -0.6479
   95THF    H11 1233   3.059   0.791   1.778  0.6563 -0.9836 -0.6116
   95THF    H12 1234   3.116   0.891   1.970 -1.2779 -0.4718 -3.5843
   95THF    H13 1235   2.969   0.808   2.023 -0.9338  0.1004 -2.6223
   96THF     O1 1236   0.833   3.748   4.981  0.2588 -0.0758 -0.1637
   96THF     C2 1237   0.909   3.782   5.098  0.0255  0.1519 -0.5405
   96THF     C3 1238   0.702   3.790   5.004  0.0513  0.0679 -0.0824
   96THF     H4 1239   0.960   3.878   5.089  1.1857 -0.0810  2.4852
   96THF     H5 1240   0.992   3.712   5.114 -0.0374 -0.2329 -1.7567
   96THF     H6 1241   0.678   3.877   4.943  0.3364  0.2032 -0.0022
   96THF     H7 1242   0.632   3.707   4.989  0.0021 -0.0032  0.4924
   96THF     C8 1243   0.698   3.830   5.152  0.2730  0.2355  0.9810
   96THF     C9 1244   0.816   3.772   5.216  1.4299  0.1786 -0.2380
   96THF    H10 1245   0.605   3.812   5.207  0.0410  2.6371  1.5205
   96THF    H11 1246   0.713   3.938   5.159  0.8115  0.2015  0.4005
   96THF    H12 1247   0.839   3.830   5.305 -1.5993 -2.6251  2.6628
   96THF    H13 1248   0.807   3.667   5.245 -0.3585  0.4423  0.2272
   97THF     O1 1249   0.561   4.545   3.111  0.3018  0.1368 -0.0691
   97THF     C2 1250   0.534   4.618   3.228  0.1776  1.2312 -0.2857
   97THF     C3 1251   0.476   4.434   3.102 -0.1406  0.6231  0.7746
   97THF     H4 1252   0.577   4.718   3.236  3.6739 -0.1964  0.9043
   97THF     H5 1253   0.572   4.568   3.317  0.8621  1.2851 -0.5402
   97THF     H6 1254   0.465   4.388   3.004  0.3419 -0.2380  1.1063
   97THF     H7 1255   0.506   4.356   3.173  2.7601 -0.6283 -1.5955
   97THF     C8 1256   0.346   4.501   3.138  0.2997 -0.4921 -0.2385
   97THF     C9 1257   0.379   4.619   3.233  0.4712  0.0109  0.4765
   97THF    H10 1258   0.280   4.438   3.199  1.5827 -2.4971 -0.8336
   97THF    H11 1259   0.296   4.536   3.047 -0.6088 -2.3695 -0.5174
   97THF    H12 1260   0.343   4.714   3.194  0.4481 -0.1429  0.1161
   97THF    H13 1261   0.347   4.591   3.333 -1.3731 -2.6280 -0.7458
   98THF     O1 1262   3.065   2.743   5.350  0.3881 -0.5031 -0.4613
   98THF     C2 1263   3.160   2.666   5.424 -0.0335 -0.0214 -0.4994
   98THF     C3 1264   3.091   2.878   5.375  0.7574  0.3356 -0.7190
   98THF     H4 1265   3.246   2.664   5.358 -0.5020  2.0113 -1.2345
   98THF     H5 1266   3.119   2.567   5.448 -1.2995  0.4457 -0.6244
   98THF     H6 1267   3.174   2.917   5.316  1.0184  1.7623  0.5399
   98THF     H7 1268   3.009   2.944   5.350 -2.4709 -3.4777 -1.1831
   98THF     C8 1269   3.124   2.878   5.522  0.2555 -0.5809 -0.8964
   98THF     C9 1270   3.182   2.741   5.558  0.0665 -0.1245  0.2843
   98THF    H10 1271   3.034   2.874   5.583  0.7008 -0.6212 -0.2241
   98THF    H11 1272   3.191   2.960   5.547  1.8486 -1.6736 -1.3505
   98THF    H12 1273   3.289   2.752   5.577 -0.1483  1.0035  0.9003
   98THF    H13 1274   3.130   2.693   5.640  0.8930 -3.8996 -1.1784
   99THF     O1 1275   5.096   3.408   0.001  0.0392  0.0479  0.1288
   99THF     C2 1276   5.196   3.357   0.090 -0.4983 -0.5820 -0.2184
   99THF     C3 1277   5.153   3.404  -0.133 -0.0747  0.6873  0.5347
   99THF     H4 1278   5.211   3.251   0.071 -1.7643 -0.6403 -1.0699
   99THF     H5 1279   5.187   3.375   0.197  0.1524  0.7146 -0.3609
   99THF     H6 1280   5.116   3.314  -0.182 -1.4319  1.6692 -0.3514
   99THF     H7 1281   5.115   3.489  -0.190 -0.5977  0.0397 -0.1041
   99THF     C8 1282   5.309   3.413  -0.116 -1.0392  0.5573  0.2349
   99THF     C9 1283   5.317   3.435   0.033  0.3880  0.4682 -0.1365
   99THF    H10 1284   5.351   3.495  -0.174 -1.7780  0.6829 -0.1326
   99THF    H11 1285   5.357   3.320  -0.143  0.9665  1.8500 -0.8852
   99THF    H12 1286   5.418   3.404   0.062  1.1660  2.8318 -0.1547
   99THF    H13 1287   5.311   3.542   0.053  3.2089  0.7269 -0.1518
  100THF     O1 1288   1.138   3.235   2.503  0.7832 -0.0873  0.6310
  100THF     C2 1289   1.063   3.197   2.385  0.2709 -0.4071  0.0773
  100THF     C3 1290   1.273   3.182   2.496  0.1181 -0.8337  0.0084
  100THF     H4 1291   1.003   3.279   2.348 -1.2438 -0.9532  1.2183
  100THF     H5 1292   0.996   3.123   2.427 -0.7055 -0.5598 -1.6724
  100THF     H6 1293   1.337   3.261   2.457  0.8847 -0.7215  1.4157
  100THF     H7 1294   1.301   3.146   2.595  1.8875  0.5741  0.0667
  100THF     C8 1295   1.271   3.067   2.400  0.0678 -0.8153  0.3706
  100THF     C9 1296   1.170   3.122   2.296 -0.7957  1.3040  0.3791
  100THF    H10 1297   1.230   2.976   2.444  0.5946 -1.7342 -0.9608
  100THF    H11 1298   1.364   3.041   2.351  0.2163  0.1123  0.1360
  100THF    H12 1299   1.212   3.196   2.227 -1.6094  0.8749 -0.6134
  100THF    H13 1300   1.132   3.041   2.233  1.1389  0.5678  0.0934
  101THF     O1 1301   1.949   4.091   5.344 -0.0699 -0.4047 -0.4981
  101THF     C2 1302   1.901   4.228   5.356 -0.1589  0.1140 -0.0092
  101THF     C3 1303   1.962   4.034   5.481  0.2836  0.2670  0.4151
  101THF     H4 1304   1.795   4.219   5.380 -0.1015 -0.9305 -0.1324
  101THF     H5 1305   1.909   4.287   5.265 -3.8905  0.6145 -0.1634
  101THF     H6 1306   1.868   3.995   5.520 -0.4724  0.7622 -0.8416
  101THF     H7 1307   2.031   3.950   5.482 -0.9111 -0.7291  1.2967
  101THF     C8 1308   2.023   4.156   5.552  0.0286  0.0065 -0.8133
  101THF     C9 1309   1.979   4.282   5.475 -0.4399  0.0802  0.3539
  101THF    H10 1310   2.131   4.149   5.563  0.0235  1.9217  1.1665
  101THF    H11 1311   1.982   4.135   5.651  0.0430 -1.7473 -1.1426
  101THF    H12 1312   1.929   4.354   5.540 -0.2890 -0.4143  1.0403
  101THF    H13 1313   2.068   4.330   5.435  0.9385 -1.9607  0.7871
  102THF     O1 1314   5.357   3.898   0.307  0.5374  0.0915  0.5769
  102THF     C2 1315   5.320   3.840   0.175 -0.0118 -0.5312 -0.6611
  102THF     C3 1316   5.242   3.953   0.362  0.0016  0.1269  0.3830
  102THF     H4 1317   5.391   3.762   0.147  0.5004 -0.7892  1.2015
  102THF     H5 1318   5.318   3.927   0.110  0.2159 -0.9163 -1.1879
  102THF     H6 1319   5.230   3.930   0.468 -0.5571  0.1010  0.3135
  102THF     H7 1320   5.232   4.061   0.359 -1.7263 -0.0238 -0.3154
  102THF     C8 1321   5.122   3.894   0.296 -0.0147  1.2032  0.5327
  102THF     C9 1322   5.183   3.787   0.197  0.2810 -0.1702  0.1371
  102THF    H10 1323   5.057   3.957   0.236  0.9210  0.7714 -0.9952
  102THF    H11 1324   5.069   3.836   0.371 -2.8763  1.0984 -1.4506
  102THF    H12 1325   5.198   3.686   0.236  2.1731  0.2167  0.4846
  102THF    H13 1326   5.118   3.774   0.111  1.7658 -0.3176 -1.0039
  103THF     O1 1327   1.788   1.596   0.634 -0.0743  0.0729  0.2123
  103THF     C2 1328   1.844   1.474   0.690  0.8384  0.1689 -0.1246
  103THF     C3 1329   1.662   1.566   0.576  0.3952  0.8842  0.8362
  103THF     H4 1330   1.920   1.493   0.766 -0.4437 -1.1982  1.5798
  103THF     H5 1331   1.884   1.413   0.610 -1.5977 -1.2305 -0.3719
  103THF     H6 1332   1.596   1.651   0.588  1.5671  1.7577  1.3401
  103THF     H7 1333   1.663   1.541   0.470  0.2409  2.7003  0.3687
  103THF     C8 1334   1.606   1.444   0.650 -0.0813  0.3711  0.0286
  103THF     C9 1335   1.715   1.414   0.757 -0.2517 -0.3772 -0.3287
  103THF    H10 1336   1.594   1.359   0.584 -0.8221 -0.3572  1.0830
  103THF    H11 1337   1.517   1.472   0.706 -0.0177 -0.2511  0.4459
  103THF    H12 1338   1.689   1.463   0.851  0.5268 -0.9979  0.2204
  103THF    H13 1339   1.729   1.308   0.780  0.3376 -0.1312  0.4851
  104THF     O1 1340   4.352   1.130   3.655 -0.0630  0.1444  0.7373
  104THF     C2 1341   4.274   1.021   3.710  0.4202  0.9735 -0.2160
  104THF     C3 1342   4.384   1.099   3.519  0.3005  0.4144 -0.1652
  104THF     H4 1343   4.180   1.052   3.756  0.7552 -1.1566  2.1703
  104THF     H5 1344   4.327   0.970   3.791  3.5511  0.6578 -2.3043
  104THF     H6 1345   4.342   1.173   3.451  1.9733 -0.4660 -2.3036
  104THF     H7 1346   4.490   1.116   3.498 -0.0403  2.8547 -0.1590
  104THF     C8 1347   4.356   0.949   3.502  0.0766  0.0609  0.9991
  104THF     C9 1348   4.235   0.925   3.594 -0.3629  0.1546  0.5225
  104THF    H10 1349   4.451   0.901   3.528  1.9012  2.6876 -0.3737
  104THF    H11 1350   4.332   0.928   3.398 -1.1300  3.0814  0.5842
  104THF    H12 1351   4.142   0.955   3.545  0.2097  1.5539  0.2364
  104THF    H13 1352   4.236   0.820   3.620  1.0692 -0.5093 -1.9165
  105THF     O1 1353   5.386   2.114   1.556 -0.1298  0.1156  0.1489
  105THF     C2 1354   5.358   2.099   1.693  0.6476  0.0042 -0.2889
  105THF     C3 1355   5.286   2.037   1.490  0.4197  0.9386 -0.0073
  105THF     H4 1356   5.412   2.175   1.749 -0.2917  0.2342  0.3173
  105THF     H5 1357   5.388   2.001   1.729  0.5592  0.3594  0.7725
  105THF     H6 1358   5.279   2.063   1.384  2.6422 -0.8358 -0.6711
  105THF     H7 1359   5.318   1.933   1.494 -1.4961  0.2849 -0.5215
  105THF     C8 1360   5.162   2.070   1.568  0.3443  0.3539  0.1503
  105THF     C9 1361   5.203   2.104   1.708 -0.3003 -0.3225 -0.3730
  105THF    H10 1362   5.098   1.981   1.568 -0.7515  1.1101 -1.4967
  105THF    H11 1363   5.097   2.147   1.528  1.4888  0.6364 -1.2091
  105THF    H12 1364   5.162   2.202   1.729  0.9713  0.2020 -0.2674
  105THF    H13 1365   5.172   2.027   1.779  0.4555  1.1420  1.6453
  106THF     O1 1366   4.342   3.171   2.005 -0.4316 -0.6441  0.0948
  106THF     C2 1367   4.274   3.239   2.111 -0.4187 -0.4957 -0.8277
  106THF     C3 1368   4.364   3.046   2.056  0.2778  0.0717 -0.2514
  106THF     H4 1369   4.206   3.319   2.081 -0.1556 -0.7806 -2.2905
  106THF     H5 1370   4.346   3.284   2.179 -0.9624 -1.2217  0.2528
  106THF     H6 1371   4.371   2.978   1.972 -2.4574 -1.2271  0.4426
  106THF     H7 1372   4.456   3.045   2.115 -1.3023  1.7188  2.4874
  106THF     C8 1373   4.243   3.004   2.142 -0.3799  0.1768 -0.2117
  106THF     C9 1374   4.196   3.137   2.196 -0.1886 -0.1505 -0.2941
  106THF    H10 1375   4.259   2.932   2.222 -0.3522  2.0320  1.5474
  106THF    H11 1376   4.161   2.963   2.083  0.9623 -2.0610 -0.6524
  106THF    H12 1377   4.089   3.157   2.188  0.3477  3.5657 -0.0453
  106THF    H13 1378   4.215   3.149   2.303  1.4349 -0.1790 -0.5602
  107THF     O1 1379   1.143   0.832   4.048 -0.5029 -0.0463  0.2672
  107THF     C2 1380   1.033   0.751   4.080  0.5030 -0.4667 -0.5233
  107THF     C3 1381   1.242   0.744   3.998 -0.4944 -0.9742 -0.3692
  107THF     H4 1382   0.996   0.718   3.982 -2.3121 -3.2608  1.2729
  107THF     H5 1383   0.953   0.800   4.135  0.6880 -1.6967  0.9004
  107THF     H6 1384   1.205   0.717   3.899 -1.3618 -0.1837 -0.2743
  107THF     H7 1385   1.334   0.794   3.969  0.1750 -0.0421  2.9943
  107THF     C8 1386   1.238   0.624   4.095  0.3946 -0.1375 -1.1360
  107THF     C9 1387   1.099   0.638   4.156  0.2203  0.0194 -0.2629
  107THF    H10 1388   1.309   0.655   4.172 -2.7446 -0.0829  1.9494
  107THF    H11 1389   1.262   0.523   4.060  2.1216 -0.3626  0.5483
  107THF    H12 1390   1.037   0.549   4.151  2.2225 -1.4837  0.4134
  107THF    H13 1391   1.099   0.677   4.258 -2.1246  2.6172 -1.1320
  108THF     O1 1392   2.406   4.271   0.390 -0.2840 -0.8573 -0.1323
  108THF     C2 1393   2.421   4.409   0.359 -0.1050 -0.1356 -0.2322
  108THF     C3 1394   2.326   4.216   0.285  0.1022 -0.0486 -0.0631
  108THF     H4 1395   2.509   4.456   0.403 -0.2727  0.8353 -0.9047
  108THF     H5 1396   2.334   4.464   0.394 -0.8872 -1.0313 -0.7475
  108THF     H6 1397   2.352   4.111   0.283  1.1889  0.2099 -0.9159
  108THF     H7 1398   2.220   4.229   0.303  0.2214 -1.0625  1.4609
  108THF     C8 1399   2.373   4.283   0.155 -0.9147  0.2906 -0.2216
  108THF     C9 1400   2.441   4.408   0.211  0.1097 -0.6634 -1.0856
  108THF    H10 1401   2.299   4.300   0.076 -0.6810 -3.8567 -1.5827
  108THF    H11 1402   2.455   4.223   0.115  0.0204  2.1902 -1.3342
  108THF    H12 1403   2.549   4.402   0.198 -0.0986 -2.9783 -2.1605
  108THF    H13 1404   2.397   4.506   0.191  1.9291  0.6376  0.8064
  109THF     O1 1405   3.122   4.370   2.001 -0.2486  0.5020  0.9657
  109THF     C2 1406   3.214   4.274   1.950  0.6055  0.6915 -0.2806
  109THF     C3 1407   3.200   4.460   2.082  0.2773 -0.1995 -0.0418
  109THF     H4 1408   3.182   4.202   1.876  1.7059  0.4360 -0.5283
  109THF     H5 1409   3.233   4.209   2.036  0.6486  0.9991 -0.0542
  109THF     H6 1410   3.156   4.557   2.105  1.3583  0.0440  1.1317
  109THF     H7 1411   3.223   4.412   2.176  0.2160  2.1053  1.2372
  109THF     C8 1412   3.328   4.484   2.000  0.1386 -0.5166 -0.2340
  109THF     C9 1413   3.338   4.360   1.911 -0.3255  0.6134 -0.2056
  109THF    H10 1414   3.409   4.492   2.072 -0.3949 -0.8525  0.4190
  109THF    H11 1415   3.336   4.581   1.950 -0.3585 -0.6130 -0.5077
  109THF    H12 1416   3.343   4.399   1.809  2.7289 -0.4673 -0.5685
  109THF    H13 1417   3.425   4.296   1.924 -2.0900 -1.6461  1.2647
  110THF     O1 1418   3.060   4.320   3.803 -0.6458 -0.4268  0.3433
  110THF     C2 1419   3.001   4.393   3.905  0.5097  0.1363 -0.2583
  110THF     C3 1420   3.066   4.184   3.842 -0.2854  0.2648 -0.0279
  110THF     H4 1421   2.974   4.495   3.877 -1.2080 -0.4800 -0.9402
  110THF     H5 1422   3.071   4.404   3.988  0.0204 -1.5244  0.4167
  110THF     H6 1423   3.068   4.128   3.748 -0.0501 -0.4502  0.3968
  110THF     H7 1424   3.158   4.176   3.899 -0.7209 -0.2953  0.6088
  110THF     C8 1425   2.940   4.157   3.918  0.1058 -0.7447  0.0173
  110THF     C9 1426   2.893   4.294   3.955 -0.4092 -0.5039  0.3267
  110THF    H10 1427   2.968   4.107   4.011  2.0697  3.6372  2.0661
  110THF    H11 1428   2.864   4.097   3.868 -0.9629 -0.3216  1.0994
  110THF    H12 1429   2.808   4.317   3.891  0.4846  1.4828 -0.2122
  110THF    H13 1430   2.872   4.307   4.061  2.5003  1.0197  0.8140
  111THF     O1 1431   1.198   2.033   3.323  0.0019 -0.8181  0.0481
  111THF     C2 1432   1.316   2.029   3.254 -0.1096 -0.4953 -0.2834
  111THF     C3 1433   1.130   2.155   3.304  0.2710  0.5877 -0.4327
  111THF     H4 1434   1.359   1.930   3.240  1.3564 -0.2429  1.8490
  111THF     H5 1435   1.394   2.069   3.320 -0.8573 -1.9381  1.5689
  111THF     H6 1436   1.021   2.145   3.299  0.3917 -2.0172  0.4972
  111THF     H7 1437   1.142   2.217   3.392 -0.1528 -0.2565  0.2311
  111THF     C8 1438   1.196   2.224   3.182  0.1936  0.6244  0.0696
  111THF     C9 1439   1.285   2.114   3.131 -0.7189  0.3577 -0.1434
  111THF    H10 1440   1.252   2.306   3.226 -0.1945 -0.4394  2.7898
  111THF    H11 1441   1.116   2.254   3.114  0.3437  0.1257 -0.3299
  111THF    H12 1442   1.241   2.046   3.057 -1.0953 -0.8819  1.1727
  111THF    H13 1443   1.374   2.151   3.079 -1.0620  0.1291 -0.9109
  112THF     O1 1444   4.494   5.171   1.966 -0.0002  0.1494  0.0558
  112THF     C2 1445   4.377   5.104   2.008 -0.6433 -0.1654 -0.4029
  112THF     C3 1446   4.477   5.309   1.989  0.4432  0.2540  0.6429
  112THF     H4 1447   4.378   5.076   2.114  0.3048 -1.5805 -0.7493
  112THF     H5 1448   4.384   5.010   1.954  0.4233  0.2584 -1.0245
  112THF     H6 1449   4.499   5.308   2.096  2.2002 -1.5643  0.3124
  112THF     H7 1450   4.544   5.373   1.931  0.1137 -0.3732 -0.4559
  112THF     C8 1451   4.330   5.338   1.955 -0.8238  0.5154 -0.1010
  112THF     C9 1452   4.263   5.198   1.958  0.1297  0.1456  0.0830
  112THF    H10 1453   4.320   5.382   1.856  2.0515  1.4782 -0.0402
  112THF    H11 1454   4.279   5.408   2.020 -0.5638  2.6267 -2.0427
  112THF    H12 1455   4.171   5.206   2.016 -0.6893  1.1605 -1.3124
  112THF    H13 1456   4.234   5.168   1.857  0.5243  0.8638 -0.2536
  113THF     O1 1457   3.083   1.324   0.520 -0.2432 -0.1104 -0.0905
  113THF     C2 1458   2.990   1.234   0.568 -0.3150  0.5435 -1.0417
  113THF     C3 1459   3.019   1.414   0.432 -0.2334 -0.3720 -0.5116
  113THF     H4 1460   2.923   1.275   0.642 -0.7238 -2.8745  0.7041
  113THF     H5 1461   3.045   1.157   0.623 -0.6514  1.3928  0.5273
  113THF     H6 1462   2.967   1.494   0.485  0.2827 -0.2480 -0.1840
  113THF     H7 1463   3.092   1.466   0.370  0.3011 -0.3412  0.1318
  113THF     C8 1464   2.918   1.319   0.362 -0.5204 -0.2876 -0.5054
  113THF     C9 1465   2.920   1.197   0.441  0.8010 -0.2266 -0.5761
  113THF    H10 1466   2.955   1.285   0.265 -3.8276 -3.1550 -0.9662
  113THF    H11 1467   2.820   1.366   0.353  0.0770  0.9540 -0.7096
  113THF    H12 1468   2.821   1.152   0.452  0.6333  0.4846  1.0393
  113THF    H13 1469   2.979   1.121   0.390 -1.6606 -1.9975 -0.9845
  114THF     O1 1470   5.031   1.671   2.832  0.4226 -0.6235 -0.9512
  114THF     C2 1471   5.044   1.625   2.970 -0.1442  0.2529  0.1856
  114THF     C3 1472   5.082   1.566   2.746  0.7315 -0.7267 -0.5454
  114THF     H4 1473   4.960   1.557   2.983  0.7288 -1.0108 -0.5990
  114THF     H5 1474   5.047   1.704   3.045  0.2272  1.3895 -0.9694
  114THF     H6 1475   5.003   1.503   2.706  1.8735 -1.2877 -2.0466
  114THF     H7 1476   5.137   1.581   2.653  1.8411 -0.5551  0.1197
  114THF     C8 1477   5.161   1.471   2.826 -0.7547 -0.5374 -0.7140
  114THF     C9 1478   5.170   1.536   2.962 -0.0585 -0.6588 -0.1585
  114THF    H10 1479   5.262   1.470   2.785 -0.6807 -0.5825 -0.5328
  114THF    H11 1480   5.122   1.369   2.831  1.6658 -1.5025  1.7748
  114THF    H12 1481   5.185   1.471   3.048  1.9820 -0.3661 -0.2383
  114THF    H13 1482   5.250   1.610   2.958 -2.0098  1.5825  0.0290
  115THF     O1 1483   4.804   3.910   3.624  0.7172 -0.2559  0.3136
  115THF     C2 1484   4.706   3.943   3.529 -0.1456 -0.3038 -0.8445
  115THF     C3 1485   4.932   3.884   3.563 -0.1545 -0.2874  0.6303
  115THF     H4 1486   4.642   4.019   3.573 -0.4078 -0.9574 -0.0743
  115THF     H5 1487   4.645   3.857   3.503 -1.0563 -0.3153  1.1473
  115THF     H6 1488   5.006   3.930   3.628  0.2342 -1.7093  1.2137
  115THF     H7 1489   4.950   3.777   3.562  0.8531 -0.1241  0.8495
  115THF     C8 1490   4.920   3.928   3.417  0.3063 -0.0342 -0.0517
  115THF     C9 1491   4.795   4.019   3.418 -0.0377  0.6733 -0.2026
  115THF    H10 1492   4.909   3.849   3.342  1.2146 -0.0954 -0.1387
  115THF    H11 1493   5.007   3.988   3.390 -0.2431 -0.0024 -1.9000
  115THF    H12 1494   4.831   4.119   3.439  0.9504  0.4733 -0.8836
  115THF    H13 1495   4.738   4.012   3.325 -0.6481 -1.8847  0.2708
  116THF     O1 1496   3.892   1.336   4.628 -0.0021 -0.1034 -0.1149
  116THF     C2 1497   3.798   1.344   4.520  0.4184 -0.4612 -0.0341
  116THF     C3 1498   4.014   1.285   4.578 -0.5003 -0.5163  1.0038
  116THF     H4 1499   3.708   1.401   4.543  0.5516 -0.3131  0.1306
  116THF     H5 1500   3.770   1.247   4.480 -2.9962 -0.0411  1.0281
  116THF     H6 1501   4.105   1.316   4.629  0.9049 -2.0174 -0.4644
  116THF     H7 1502   4.005   1.179   4.602  1.4609 -0.3007  2.9258
  116THF     C8 1503   4.014   1.326   4.426  0.0743 -0.6920 -0.1660
  116THF     C9 1504   3.883   1.418   4.418 -0.8170 -0.4147  0.0909
  116THF    H10 1505   4.005   1.237   4.363 -1.0666 -0.2261 -0.6638
  116THF    H11 1506   4.106   1.382   4.408 -0.8215  0.7248 -0.4109
  116THF    H12 1507   3.898   1.519   4.459  1.4584 -1.1149  1.1362
  116THF    H13 1508   3.855   1.434   4.314 -1.3244  1.8283  0.5164
  117THF     O1 1509   0.059   4.844   0.655  0.5742  0.0474 -0.1494
  117THF     C2 1510   0.182   4.805   0.595 -0.3288 -0.1221  0.3619
  117THF     C3 1511  -0.051   4.798   0.573  0.5496 -0.1458 -0.1299
  117THF     H4 1512   0.267   4.809   0.662  1.1823 -1.3334 -1.3901
  117THF     H5 1513   0.201   4.887   0.525 -0.9383  0.5051  0.9191
  117THF     H6 1514  -0.136   4.757   0.629 -0.9357  0.7718 -1.6087
  117THF     H7 1515  -0.076   4.878   0.503  1.3635 -0.5798 -0.9486
  117THF     C8 1516   0.006   4.686   0.480 -0.3536 -0.5246 -0.1904
  117THF     C9 1517   0.146   4.670   0.537 -0.1164 -0.2375 -0.3678
  117THF    H10 1518   0.015   4.702   0.373  2.0483 -3.5597 -0.6124
  117THF    H11 1519  -0.052   4.594   0.488  0.2713 -0.9542 -0.5013
  117THF    H12 1520   0.149   4.596   0.617 -1.7387  1.1031  1.0098
  117THF    H13 1521   0.221   4.631   0.468  1.1462  1.8778 -0.3107
  118THF     O1 1522   2.848   0.857   4.185  0.2987  0.3682 -0.9354
  118THF     C2 1523   2.824   0.720   4.188 -0.1407  0.1876 -0.0724
  118THF     C3 1524   2.800   0.918   4.062  0.3770 -0.2809  0.2890
  118THF     H4 1525   2.772   0.678   4.274  1.0778 -2.5596 -0.5684
  118THF     H5 1526   2.918   0.664   4.186 -0.7480 -0.9116 -2.2637
  118THF     H6 1527   2.711   0.978   4.081  1.2471  0.8984  0.7680
  118THF     H7 1528   2.873   0.977   4.007  0.5318 -0.9993 -0.2881
  118THF     C8 1529   2.769   0.806   3.968  0.6366 -0.3203 -0.8724
  118THF     C9 1530   2.730   0.699   4.073  0.0372  0.4047  0.2945
  118THF    H10 1531   2.860   0.772   3.919  1.2764 -1.1646  0.8458
  118THF    H11 1532   2.690   0.823   3.895 -0.2952 -0.2015  0.1507
  118THF    H12 1533   2.625   0.710   4.100 -1.0545 -2.4910 -2.1609
  118THF    H13 1534   2.747   0.603   4.024  0.4132  0.7609 -0.2881
  119THF     O1 1535   2.643   2.716   1.467 -0.6169  0.1681  0.4084
  119THF     C2 1536   2.770   2.667   1.507 -0.6728  0.3794  0.0433
  119THF     C3 1537   2.601   2.628   1.365 -0.6774 -0.3321  0.4607
  119THF     H4 1538   2.740   2.578   1.562  0.3257 -0.9013 -1.4033
  119THF     H5 1539   2.826   2.737   1.568 -0.6911  1.0249 -0.6729
  119THF     H6 1540   2.565   2.536   1.412  2.7525 -0.7507  2.5985
  119THF     H7 1541   2.524   2.684   1.312 -1.4860 -1.8542 -0.0503
  119THF     C8 1542   2.727   2.606   1.279  0.1333  0.5768  0.8872
  119THF     C9 1543   2.841   2.638   1.375  0.5764  0.9830  0.2217
  119THF    H10 1544   2.725   2.686   1.205 -1.3414  1.9733  2.3839
  119THF    H11 1545   2.723   2.514   1.220  1.2801  0.0415  1.6032
  119THF    H12 1546   2.918   2.561   1.385  1.1902  1.3055 -1.5250
  119THF    H13 1547   2.906   2.720   1.342  1.6988  0.5650  1.3268
  120THF     O1 1548   0.499   0.309   3.918 -0.3849 -0.1053  0.8184
  120THF     C2 1549   0.569   0.339   4.037 -0.2430  0.4354 -0.7535
  120THF     C3 1550   0.598   0.325   3.818  0.0617 -0.3585  0.0081
  120THF     H4 1551   0.636   0.260   4.071 -1.6382 -0.3084  0.3637
  120THF     H5 1552   0.512   0.344   4.130 -0.3934 -1.3130 -0.7134
  120THF     H6 1553   0.674   0.247   3.811  1.5141  0.9411  0.6155
  120THF     H7 1554   0.550   0.357   3.726 -0.7493  0.1869  0.6032
  120THF     C8 1555   0.671   0.449   3.862 -0.2849 -0.7511 -0.2175
  120THF     C9 1556   0.646   0.463   4.005 -0.2122 -0.9571 -0.0054
  120THF    H10 1557   0.635   0.543   3.821  1.5188  0.1620  0.2254
  120THF    H11 1558   0.776   0.437   3.836 -0.0277  0.7571  0.0475
  120THF    H12 1559   0.739   0.475   4.061 -0.7223 -0.1695  0.7030
  120THF    H13 1560   0.578   0.548   4.016 -0.7811 -1.1455 -1.7951
  121THF     O1 1561   0.513   1.397   3.532 -0.3776 -0.3144 -0.4066
  121THF     C2 1562   0.381   1.364   3.493 -0.1963 -0.2203  0.0340
  121THF     C3 1563   0.598   1.283   3.524 -0.4024 -0.7341 -0.5529
  121THF     H4 1564   0.308   1.433   3.450 -0.5184 -1.6461 -1.8411
  121THF     H5 1565   0.327   1.312   3.572  1.6138 -1.1031  0.7340
  121THF     H6 1566   0.703   1.309   3.532 -0.5863  0.3330 -1.3044
  121THF     H7 1567   0.568   1.219   3.607 -0.9167  0.3203  0.0904
  121THF     C8 1568   0.559   1.214   3.396  0.0367 -0.1112 -0.5885
  121THF     C9 1569   0.413   1.272   3.370 -0.1026 -0.7560 -0.3653
  121THF    H10 1570   0.558   1.105   3.403  2.3757 -0.0407  3.9570
  121THF    H11 1571   0.635   1.250   3.326  0.9069  2.2514  1.4523
  121THF    H12 1572   0.414   1.325   3.275 -0.2080 -0.7213 -0.3473
  121THF    H13 1573   0.330   1.203   3.360 -0.8102  0.1709 -0.9964
  122THF     O1 1574   1.206   3.759   2.571  0.5444 -0.3368 -0.8269
  122THF     C2 1575   1.127   3.881   2.588 -0.1643  0.5252  0.7618
  122THF     C3 1576   1.347   3.797   2.556 -0.8623  0.4792 -0.4950
  122THF     H4 1577   1.120   3.894   2.696  1.1885  1.9063  0.7162
  122THF     H5 1578   1.027   3.854   2.554 -0.0810  0.6882  0.3741
  122THF     H6 1579   1.401   3.815   2.649  0.4019  2.0483 -1.4791
  122THF     H7 1580   1.405   3.713   2.516  0.6872  1.0742  0.4030
  122THF     C8 1581   1.336   3.920   2.467 -0.0232  0.6278  0.8231
  122THF     C9 1582   1.199   3.987   2.503  0.9423 -0.1228 -0.2196
  122THF    H10 1583   1.339   3.885   2.364  0.7030  1.4793  0.5318
  122THF    H11 1584   1.427   3.979   2.478  1.1625 -1.3148  1.7955
  122THF    H12 1585   1.202   4.081   2.557  2.4066 -0.1612 -0.1981
  122THF    H13 1586   1.143   4.007   2.412  0.3337 -0.7471  0.0040
  123THF     O1 1587   0.320   0.276   5.431  0.1359  0.5352  0.2156
  123THF     C2 1588   0.319   0.360   5.319  0.2246 -1.0845  0.3128
  123THF     C3 1589   0.250   0.350   5.531 -0.9700 -0.0805 -0.2620
  123THF     H4 1590   0.216   0.352   5.284  0.7934 -0.8688 -1.5339
  123THF     H5 1591   0.389   0.320   5.245 -0.2938 -3.7069  1.1758
  123THF     H6 1592   0.144   0.349   5.504 -0.3281  0.7368 -3.1836
  123THF     H7 1593   0.264   0.293   5.623  1.3662 -2.8784 -2.1698
  123THF     C8 1594   0.306   0.492   5.518 -0.1621 -0.5349 -0.1059
  123THF     C9 1595   0.334   0.508   5.371 -0.0608  0.1376  0.2550
  123THF    H10 1596   0.393   0.506   5.582  0.4795 -0.4243 -0.9752
  123THF    H11 1597   0.226   0.557   5.555 -0.2517 -2.1390  2.8065
  123THF    H12 1598   0.256   0.569   5.327 -0.3794  0.7534  1.6051
  123THF    H13 1599   0.431   0.546   5.337 -0.0067  0.0093  0.2653
  124THF     O1 1600   3.422   1.890   3.307  0.4801 -0.1257 -0.7586
  124THF     C2 1601   3.448   1.872   3.445  0.9536 -0.0070 -0.2497
  124THF     C3 1602   3.543   1.945   3.254  0.9330  0.1874  0.6484
  124THF     H4 1603   3.500   1.776   3.443  0.9648 -0.0293  0.8230
  124THF     H5 1604   3.349   1.870   3.490  1.6432 -0.0619  1.3138
  124THF     H6 1605   3.606   1.867   3.211  0.8942 -0.7944  2.2948
  124THF     H7 1606   3.508   2.020   3.183 -0.1713  0.0213  0.9985
  124THF     C8 1607   3.618   2.005   3.364 -0.0742 -0.3067  0.1045
  124THF     C9 1608   3.529   1.997   3.482  0.5716  0.2795 -0.2862
  124THF    H10 1609   3.659   2.105   3.349 -2.1219  0.5537 -0.0151
  124THF    H11 1610   3.702   1.938   3.383 -0.0839 -0.8671 -1.6465
  124THF    H12 1611   3.588   1.990   3.574  2.0741  0.7155 -1.1860
  124THF    H13 1612   3.466   2.085   3.490  1.3427  0.6692  2.6288
  125THF     O1 1613   2.122   2.824   2.070  0.3258 -0.2739  0.2229
  125THF     C2 1614   2.062   2.776   1.945 -0.1636 -1.0028 -0.2835
  125THF     C3 1615   2.122   2.711   2.157 -0.0046 -0.3364 -0.1094
  125THF     H4 1616   2.110   2.814   1.855  1.6304 -3.5326 -0.5063
  125THF     H5 1617   1.956   2.801   1.947 -0.1966 -0.4617 -3.3879
  125THF     H6 1618   2.200   2.725   2.232  2.0027  1.7836 -2.4143
  125THF     H7 1619   2.028   2.720   2.212  0.9402 -0.0155  1.5347
  125THF     C8 1620   2.148   2.589   2.070  0.6095 -0.1158  0.4920
  125THF     C9 1621   2.074   2.618   1.943  0.3600 -0.2727  0.2466
  125THF    H10 1622   2.114   2.492   2.108  1.1034 -0.2941  0.4750
  125THF    H11 1623   2.253   2.569   2.051  0.5920  0.8869 -0.7620
  125THF    H12 1624   2.152   2.597   1.869  2.2552  0.1074  2.0595
  125THF    H13 1625   1.974   2.578   1.932 -0.6746  2.1764  0.1866
  126THF     O1 1626   0.039   2.114   0.316  0.1755 -0.3496 -0.2808
  126THF     C2 1627   0.117   2.230   0.268  0.1929 -0.1709  0.2351
  126THF     C3 1628  -0.069   2.103   0.226  0.2255  0.3285  0.3697
  126THF     H4 1629   0.220   2.227   0.305  1.2393 -0.0577 -2.4824
  126THF     H5 1630   0.065   2.323   0.292 -0.7049 -0.1425 -1.6352
  126THF     H6 1631  -0.106   2.001   0.215  1.6136 -0.3217  1.3172
  126THF     H7 1632  -0.155   2.165   0.251  0.1992  1.2819 -1.8460
  126THF     C8 1633  -0.006   2.129   0.091 -0.2960 -0.0782  0.5543
  126THF     C9 1634   0.119   2.209   0.116  0.1959  0.3060 -0.3809
  126THF    H10 1635  -0.072   2.189   0.028  0.1628 -1.9491 -1.8756
  126THF    H11 1636   0.028   2.039   0.039  2.7892  0.9762  0.5359
  126THF    H12 1637   0.205   2.154   0.079  2.0692  1.6744  1.6434
  126THF    H13 1638   0.129   2.303   0.062  1.1635  0.0947 -0.5931
  127THF     O1 1639   0.177   0.758   2.996  1.3500 -0.3343 -0.5294
  127THF     C2 1640   0.224   0.881   3.063  0.8198  0.1688  0.1635
  127THF     C3 1641   0.055   0.801   2.928  0.3712  0.2687  0.4054
  127THF     H4 1642   0.294   0.932   2.996  0.3311  1.0244  0.2907
  127THF     H5 1643   0.269   0.847   3.156 -0.4313  3.3262  2.1029
  127THF     H6 1644   0.075   0.858   2.838 -1.7895 -0.8086 -0.8273
  127THF     H7 1645  -0.007   0.713   2.910  0.0825  0.3681  0.8998
  127THF     C8 1646  -0.006   0.877   3.034  0.1421 -0.3885  0.2405
  127THF     C9 1647   0.102   0.970   3.092  0.3415  0.1721  0.7881
  127THF    H10 1648  -0.043   0.810   3.112  2.4767 -1.7111  0.3198
  127THF    H11 1649  -0.095   0.932   3.002 -0.1277  0.4966  2.3201
  127THF    H12 1650   0.103   1.060   3.030  0.2108  0.3041  0.9776
  127THF    H13 1651   0.082   0.998   3.195 -0.7902  1.3547  0.2719
  128THF     O1 1652   0.401   1.269   0.497  0.4403  0.2668 -0.2681
  128THF     C2 1653   0.320   1.356   0.413 -0.5987  0.0107  0.7562
  128THF     C3 1654   0.453   1.354   0.599  0.0379 -0.3518 -0.2112
  128THF     H4 1655   0.223   1.377   0.458 -0.3044 -1.0813  1.9497
  128THF     H5 1656   0.302   1.314   0.314  2.3172  1.3610 -0.4654
  128THF     H6 1657   0.370   1.392   0.657 -2.7020 -1.1678 -3.2884
  128THF     H7 1658   0.533   1.310   0.659  0.0873 -1.0302 -0.7610
  128THF     C8 1659   0.499   1.475   0.515 -0.3642  0.6269  0.4217
  128THF     C9 1660   0.400   1.484   0.402 -1.0266 -0.4209  0.2435
  128THF    H10 1661   0.595   1.448   0.472 -1.0418 -0.9486 -0.2286
  128THF    H11 1662   0.498   1.570   0.568 -3.4481  1.7040 -1.2803
  128THF    H12 1663   0.328   1.563   0.418  0.5843  1.4520 -1.2523
  128THF    H13 1664   0.447   1.504   0.305  0.1184 -1.1921  0.6154
  129THF     O1 1665   1.618   3.164   1.660 -0.1563 -0.0423  0.3322
  129THF     C2 1666   1.712   3.252   1.608  0.3754  0.1524 -0.4308
  129THF     C3 1667   1.689   3.053   1.736 -0.1635 -0.5064  0.4626
  129THF     H4 1668   1.732   3.315   1.695 -0.3266 -1.8767  1.2993
  129THF     H5 1669   1.671   3.307   1.524  1.8202 -0.4066 -1.5376
  129THF     H6 1670   1.708   3.088   1.838 -0.5476  0.5532  0.1896
  129THF     H7 1671   1.631   2.961   1.730 -1.2766  0.2730 -2.3661
  129THF     C8 1672   1.824   3.051   1.664 -0.4458  0.0076 -0.4081
  129THF     C9 1673   1.822   3.161   1.559  0.5271  1.0603 -0.2191
  129THF    H10 1674   1.841   2.952   1.621  0.9418 -0.6767  1.5756
  129THF    H11 1675   1.904   3.077   1.733  0.0958  0.2802 -1.1241
  129THF    H12 1676   1.919   3.210   1.556 -0.1605  2.5311  0.2791
  129THF    H13 1677   1.787   3.112   1.468  0.7886 -0.3965  0.4259
  130THF     O1 1678   0.548   5.467   3.583 -0.0383  0.5349 -0.1251
  130THF     C2 1679   0.617   5.439   3.464  0.2948 -0.3174 -0.4105
  130THF     C3 1680   0.452   5.563   3.560  0.6025  0.2176 -0.5462
  130THF     H4 1681   0.649   5.335   3.451  2.0296  0.1154  0.1290
  130THF     H5 1682   0.708   5.498   3.459  1.1932 -1.6965 -1.2552
  130THF     H6 1683   0.361   5.549   3.618 -1.0120  1.8441 -2.5212
  130THF     H7 1684   0.500   5.651   3.603 -1.7086  1.1366  0.2773
  130THF     C8 1685   0.426   5.567   3.408 -0.5014  0.0335 -0.2608
  130THF     C9 1686   0.524   5.475   3.345  0.4184  0.1466 -0.3368
  130THF    H10 1687   0.443   5.666   3.366  0.7714 -0.2629 -0.4829
  130THF    H11 1688   0.322   5.541   3.388 -0.9893  1.7480 -0.1079
  130THF    H12 1689   0.473   5.389   3.302  1.1348 -0.8294  0.7353
  130THF    H13 1690   0.568   5.527   3.259 -0.1461  0.6871 -0.3086
  131THF     O1 1691   4.768   0.029   5.240  0.5709  0.2660  0.0768
  131THF     C2 1692   4.864   0.106   5.183  0.0449 -0.1967 -0.5248
  131THF     C3 1693   4.658   0.117   5.282  0.0999 -0.0800  0.2436
  131THF     H4 1694   4.858   0.100   5.074  2.4831 -0.3654 -0.6860
  131THF     H5 1695   4.963   0.067   5.205 -0.8106 -1.2901  1.7269
  131THF     H6 1696   4.604   0.146   5.192  2.0704 -0.5910 -1.1780
  131THF     H7 1697   4.590   0.069   5.351 -0.4659  0.7727  0.2907
  131THF     C8 1698   4.734   0.236   5.340 -0.0479 -0.3558 -0.4002
  131THF     C9 1699   4.862   0.238   5.257 -0.3079 -0.1782  0.9031
  131THF    H10 1700   4.756   0.213   5.445  0.5379 -1.0584 -0.6734
  131THF    H11 1701   4.676   0.329   5.347 -1.4145 -1.2555  1.2762
  131THF    H12 1702   4.868   0.328   5.197 -1.1209 -1.4658 -1.2380
  131THF    H13 1703   4.952   0.241   5.318  0.5008 -2.0279 -0.1199
  132THF     O1 1704   3.834   5.280   3.810 -0.0590 -0.4953 -0.1252
  132THF     C2 1705   3.818   5.143   3.843  0.3229 -0.5610  0.1210
  132THF     C3 1706   3.929   5.281   3.712  0.3039 -0.2920  0.8775
  132THF     H4 1707   3.748   5.089   3.779  0.3023  0.9850 -1.2687
  132THF     H5 1708   3.771   5.150   3.941  2.6999 -1.7163  1.4261
  132THF     H6 1709   3.888   5.260   3.613  2.0422 -1.3076  0.3239
  132THF     H7 1710   3.980   5.377   3.710  0.1095 -0.1922 -0.1274
  132THF     C8 1711   4.030   5.177   3.747 -1.0770 -0.4216  0.2609
  132THF     C9 1712   3.965   5.088   3.847  0.0423 -0.1227  0.3371
  132THF    H10 1713   4.122   5.215   3.793 -0.9450 -0.4099 -0.0129
  132THF    H11 1714   4.065   5.124   3.659  0.8298  2.1074 -0.6239
  132THF    H12 1715   3.968   4.983   3.818 -2.2028 -0.0237 -0.4405
  132THF    H13 1716   4.014   5.103   3.943  0.2207  1.6644 -0.0030
  133THF     O1 1717   2.282   1.585   3.291 -0.2278 -0.0731  0.6114
  133THF     C2 1718   2.227   1.458   3.253 -0.7240  0.3515  0.0979
  133THF     C3 1719   2.191   1.650   3.378  0.1445  0.2430  0.9814
  133THF     H4 1720   2.234   1.373   3.321 -1.1897  0.7236  0.6218
  133THF     H5 1721   2.274   1.414   3.165 -1.5157 -0.5974  0.1334
  133THF     H6 1722   2.212   1.614   3.479 -1.7051  0.3706  1.4631
  133THF     H7 1723   2.202   1.757   3.393  1.1738  0.4349 -0.9697
  133THF     C8 1724   2.051   1.600   3.330  0.3485  0.2876  0.3517
  133THF     C9 1725   2.081   1.480   3.239  1.3085  0.1560 -0.2530
  133THF    H10 1726   2.006   1.683   3.276 -1.8779  0.8012  2.8019
  133THF    H11 1727   1.988   1.583   3.418  1.2341  2.0569  1.3919
  133THF    H12 1728   2.030   1.386   3.258  0.8335  0.7015  1.2743
  133THF    H13 1729   2.055   1.520   3.141 -2.2096  1.3025  0.9812
  134THF     O1 1730   2.842   3.319   1.885 -0.2107  0.1285 -0.3997
  134THF     C2 1731   2.884   3.323   2.024 -0.4676 -0.6675  0.2662
  134THF     C3 1732   2.931   3.245   1.803 -0.3808 -0.0103  0.3011
  134THF     H4 1733   2.828   3.267   2.098  1.1697 -1.5830  0.8571
  134THF     H5 1734   2.872   3.428   2.053  1.7625 -1.0484  2.9324
  134THF     H6 1735   2.901   3.140   1.806  1.2384 -0.5060 -0.1374
  134THF     H7 1736   2.923   3.283   1.701  2.1213 -1.3766 -0.4807
  134THF     C8 1737   3.068   3.278   1.861 -0.0811  0.1901  0.3337
  134THF     C9 1738   3.039   3.293   2.012 -0.0312  0.6813  0.0855
  134THF    H10 1739   3.116   3.370   1.828  0.3726  0.0760  0.6730
  134THF    H11 1740   3.139   3.196   1.848 -0.3888  0.1677 -1.5892
  134THF    H12 1741   3.049   3.207   2.077  0.4158  1.0505  0.5034
  134THF    H13 1742   3.104   3.365   2.062  0.9506 -1.5015  2.1217
  135THF     O1 1743   4.192   4.577   5.310 -0.3167  0.0562  0.0420
  135THF     C2 1744   4.097   4.513   5.229  0.9883  0.1454  0.3199
  135THF     C3 1745   4.189   4.516   5.435 -0.4244  0.1861 -1.1420
  135THF     H4 1746   4.119   4.541   5.126 -0.5387  2.7248  0.6015
  135THF     H5 1747   3.995   4.546   5.250  0.6291 -1.7158  1.8490
  135THF     H6 1748   4.278   4.555   5.485 -0.5017 -0.3598 -0.5744
  135THF     H7 1749   4.109   4.560   5.494  0.0124 -1.0963  0.4749
  135THF     C8 1750   4.155   4.372   5.409  0.1363 -0.4831  0.8188
  135THF     C9 1751   4.115   4.366   5.264  0.3988 -0.2403  0.1612
  135THF    H10 1752   4.085   4.325   5.477  2.9752 -1.1249  3.5597
  135THF    H11 1753   4.247   4.315   5.420  0.1320 -1.3284 -2.6181
  135THF    H12 1754   4.195   4.318   5.206  0.2034  0.2755 -0.5476
  135THF    H13 1755   4.020   4.315   5.247  0.2138  0.2507 -0.2933
  136THF     O1 1756   1.402   0.527   1.519  0.1169  0.1906 -0.5302
  136THF     C2 1757   1.447   0.663   1.524  0.2887  0.1067  0.1234
  136THF     C3 1758   1.520   0.446   1.520  0.3697  0.0839 -0.2456
  136THF     H4 1759   1.372   0.742   1.533  0.7496  0.5692 -0.0311
  136THF     H5 1760   1.499   0.676   1.429  0.5490 -2.9803 -0.2356
  136THF     H6 1761   1.486   0.343   1.528 -2.2844  0.7697 -1.6405
  136THF     H7 1762   1.565   0.454   1.421 -1.2042 -1.3088 -1.1168
  136THF     C8 1763   1.609   0.511   1.625 -0.3606 -0.8311 -1.2815
  136THF     C9 1764   1.555   0.659   1.632  0.1645  0.6450  0.3729
  136THF    H10 1765   1.714   0.508   1.594  0.3351  0.3631  0.7852
  136THF    H11 1766   1.599   0.467   1.724 -0.4017 -0.9557 -1.3413
  136THF    H12 1767   1.507   0.685   1.726 -4.3335 -1.5997 -1.0068
  136THF    H13 1768   1.638   0.725   1.606  1.1763 -1.4075 -1.9191
  137THF     O1 1769   1.677   3.753   0.405  0.0614  0.1194  0.0253
  137THF     C2 1770   1.573   3.723   0.309  0.0843 -0.1835 -0.2890
  137THF     C3 1771   1.801   3.714   0.341  0.1037 -0.6763  0.1209
  137THF     H4 1772   1.491   3.795   0.313  1.3134  1.2042  1.2511
  137THF     H5 1773   1.534   3.622   0.325  3.3935 -1.2433  2.1263
  137THF     H6 1774   1.885   3.773   0.378 -0.3894  0.1203  0.0006
  137THF     H7 1775   1.823   3.608   0.356 -2.3877 -1.3955 -0.8113
  137THF     C8 1776   1.779   3.740   0.192 -0.3469 -0.9583  0.1739
  137THF     C9 1777   1.632   3.713   0.163  0.3784  0.1791  0.5906
  137THF    H10 1778   1.835   3.670   0.131 -0.7779  0.2714 -1.7563
  137THF    H11 1779   1.806   3.842   0.166 -0.3049 -1.0203 -0.0257
  137THF    H12 1780   1.598   3.769   0.076 -2.0687  0.0450  1.3940
  137THF    H13 1781   1.634   3.608   0.136  0.1199 -0.4857  2.9514
  138THF     O1 1782   3.581   5.464   3.021  0.3391  0.2381  0.5562
  138THF     C2 1783   3.597   5.472   3.158  0.6519  0.1020  0.2090
  138THF     C3 1784   3.704   5.421   2.965 -0.1936  1.0353  0.1881
  138THF     H4 1785   3.580   5.378   3.212 -0.6788  0.4261  0.3824
  138THF     H5 1786   3.521   5.535   3.204  0.4127  0.3907 -0.5684
  138THF     H6 1787   3.707   5.312   2.969  1.6086  1.0626  0.1138
  138THF     H7 1788   3.725   5.436   2.859 -0.2864 -1.9423 -0.3311
  138THF     C8 1789   3.808   5.489   3.055 -0.4857  0.2441  0.1316
  138THF     C9 1790   3.733   5.529   3.186 -0.2510 -0.1343 -0.0655
  138THF    H10 1791   3.836   5.574   2.993 -0.5657 -1.5646 -2.5418
  138THF    H11 1792   3.888   5.421   3.085 -0.5344 -0.0430 -0.3924
  138THF    H12 1793   3.783   5.483   3.271 -1.3368 -0.7434  0.2590
  138THF    H13 1794   3.723   5.638   3.191 -2.2922 -0.2931  0.1413
  139THF     O1 1795   0.880   3.186   3.138 -0.1014  0.1721 -0.0388
  139THF     C2 1796   0.929   3.092   3.235 -0.4003 -0.0882  0.1765
  139THF     C3 1797   0.776   3.262   3.201 -0.6771 -0.0456 -0.5980
  139THF     H4 1798   0.998   3.136   3.308 -0.6922  0.9830 -0.1778
  139THF     H5 1799   0.974   3.002   3.192 -0.6632 -1.0099  1.7554
  139THF     H6 1800   0.821   3.353   3.238  1.0842 -2.1249  2.8849
  139THF     H7 1801   0.699   3.283   3.127  1.1885  0.5526 -2.4867
  139THF     C8 1802   0.728   3.191   3.325 -0.1371 -0.4180 -0.0952
  139THF     C9 1803   0.806   3.058   3.323  0.1656 -0.2475 -0.1007
  139THF    H10 1804   0.622   3.170   3.320 -0.2137 -0.2242  0.5677
  139THF    H11 1805   0.757   3.246   3.415 -0.6787  1.9327 -1.2758
  139THF    H12 1806   0.821   3.021   3.424 -0.1824 -0.2883 -0.0602
  139THF    H13 1807   0.746   2.978   3.279 -0.8601  0.1632  0.5204
  140THF     O1 1808   0.413   1.225   1.234  0.0841 -0.4628 -0.3718
  140THF     C2 1809   0.445   1.195   1.100 -0.2266  0.3023  0.8238
  140THF     C3 1810   0.447   1.109   1.312  0.2975 -0.2190  0.4330
  140THF     H4 1811   0.548   1.224   1.080 -0.3008  0.5939  0.8497
  140THF     H5 1812   0.382   1.248   1.028 -0.3773 -1.8801 -0.7414
  140THF     H6 1813   0.552   1.122   1.338 -0.0421 -1.1225  2.4939
  140THF     H7 1814   0.384   1.100   1.401 -2.1659  2.5561 -0.8335
  140THF     C8 1815   0.428   0.983   1.228  0.0492  0.4268  0.8089
  140THF     C9 1816   0.413   1.046   1.086  1.1012  0.8041  0.1431
  140THF    H10 1817   0.331   0.939   1.251 -0.8809  1.3399 -1.1231
  140THF    H11 1818   0.505   0.906   1.229  2.1376  2.2845 -1.6537
  140THF    H12 1819   0.467   0.988   1.011  1.2814 -2.1211  2.3378
  140THF    H13 1820   0.309   1.048   1.054  1.1739  2.6337 -0.1216
  141THF     O1 1821   3.697   2.383   5.023 -0.1073  0.0956  0.5637
  141THF     C2 1822   3.826   2.436   5.030  0.0595 -0.3178  0.0144
  141THF     C3 1823   3.624   2.412   5.138  0.5686 -0.5539 -0.3899
  141THF     H4 1824   3.868   2.462   4.933  1.6136 -0.4410  0.6363
  141THF     H5 1825   3.888   2.367   5.087  1.1295 -0.5187 -1.3412
  141THF     H6 1826   3.516   2.409   5.125  0.5715 -2.1980 -0.2349
  141THF     H7 1827   3.660   2.354   5.223 -0.4789 -0.0486  0.4199
  141THF     C8 1828   3.663   2.555   5.158  0.0734  0.9798  0.2106
  141THF     C9 1829   3.808   2.557   5.118 -0.3974 -0.5051 -0.3205
  141THF    H10 1830   3.649   2.599   5.257  2.1360  2.2550 -0.0008
  141THF    H11 1831   3.618   2.627   5.089 -0.1525  1.0918  0.4773
  141THF    H12 1832   3.818   2.645   5.054  0.1292  0.0143  0.4597
  141THF    H13 1833   3.872   2.555   5.206 -0.9090 -1.5434  0.0458
  142THF     O1 1834   3.472   1.391   3.412 -0.0825  0.2924  0.1593
  142THF     C2 1835   3.508   1.512   3.352 -0.0773 -0.5067  0.1273
  142THF     C3 1836   3.585   1.304   3.388 -0.1683 -0.2650 -0.5149
  142THF     H4 1837   3.584   1.559   3.415  0.7831 -0.5087 -0.8757
  142THF     H5 1838   3.429   1.585   3.335  1.8830  1.6875 -0.1185
  142THF     H6 1839   3.673   1.332   3.446  0.7743 -0.1715 -1.9581
  142THF     H7 1840   3.555   1.203   3.415 -1.2586  0.6604  2.1059
  142THF     C8 1841   3.614   1.323   3.243 -0.3254  0.1760  0.2628
  142THF     C9 1842   3.579   1.465   3.226 -0.7721 -0.2402  0.2416
  142THF    H10 1843   3.559   1.258   3.175  0.4423 -0.4841  0.2587
  142THF    H11 1844   3.719   1.300   3.229  0.3956  2.8380  0.6965
  142THF    H12 1845   3.664   1.524   3.193 -2.0043  0.6101 -1.5574
  142THF    H13 1846   3.507   1.476   3.145 -0.6414  2.2173  0.3705
  143THF     O1 1847   4.919   1.762   4.333  0.3737  0.0456 -0.3539
  143THF     C2 1848   4.884   1.676   4.222 -1.6790  0.5507  0.1518
  143THF     C3 1849   4.827   1.865   4.331 -0.1000 -0.2430  0.3599
  143THF     H4 1850   4.897   1.574   4.259  1.4802  1.3200  1.5138
  143THF     H5 1851   4.948   1.688   4.135 -1.2717  1.9950  0.6161
  143THF     H6 1852   4.796   1.882   4.434 -1.2144 -1.5555  0.2721
  143THF     H7 1853   4.862   1.964   4.303 -0.7376  0.0929  0.7209
  143THF     C8 1854   4.699   1.810   4.258  0.0059  0.2213  0.0553
  143THF     C9 1855   4.745   1.697   4.177 -0.2418  0.9943  0.3191
  143THF    H10 1856   4.645   1.891   4.209 -0.7678 -1.3654 -1.8732
  143THF    H11 1857   4.636   1.759   4.331  0.0660  2.0613  1.4442
  143THF    H12 1858   4.689   1.605   4.191  1.0668 -0.3068 -2.2813
  143THF    H13 1859   4.749   1.708   4.068  0.2953 -1.6424  0.0093
  144THF     O1 1860   0.570   4.915   1.417  0.2025  0.1076  0.0381
  144THF     C2 1861   0.642   4.802   1.366  0.2069 -0.5459  0.2814
  144THF     C3 1862   0.499   4.982   1.307  0.5691  0.2591 -0.1613
  144THF     H4 1863   0.649   4.720   1.436  2.4553 -0.9306 -0.3313
  144THF     H5 1864   0.744   4.823   1.336  0.4123 -1.9825 -0.0653
  144THF     H6 1865   0.400   5.014   1.340  0.5488  3.0941 -2.5262
  144THF     H7 1866   0.551   5.076   1.287  2.4140 -1.2279 -2.9764
  144THF     C8 1867   0.499   4.895   1.186 -0.3841  0.6549 -0.7305
  144THF     C9 1868   0.555   4.767   1.250 -0.1455 -0.2011 -0.4571
  144THF    H10 1869   0.566   4.945   1.116 -0.8719  1.4469 -0.6512
  144THF    H11 1870   0.412   4.875   1.123 -2.0855  0.5408  1.5276
  144THF    H12 1871   0.475   4.705   1.292 -1.2158  1.7030  0.4666
  144THF    H13 1872   0.605   4.708   1.173  1.2336 -0.5315  0.6515
  145THF     O1 1873   2.834   2.110   1.691 -0.2363 -0.0935  0.2993
  145THF     C2 1874   2.825   2.244   1.652 -0.0474 -0.1127 -0.1852
  145THF     C3 1875   2.943   2.044   1.622 -0.0760  0.2771  0.2563
  145THF     H4 1876   2.832   2.305   1.742 -0.8390  1.0828 -0.9044
  145THF     H5 1877   2.728   2.260   1.607  0.7424  1.5064 -1.4002
  145THF     H6 1878   3.023   2.051   1.696 -0.9387  1.1809  1.1376
  145THF     H7 1879   2.933   1.936   1.611 -0.8355  0.5244 -1.9841
  145THF     C8 1880   2.962   2.136   1.499 -0.6532  0.3274 -0.0856
  145THF     C9 1881   2.928   2.275   1.548  0.0257 -0.0783 -0.3754
  145THF    H10 1882   2.895   2.084   1.431 -1.6290 -0.9762  1.7762
  145THF    H11 1883   3.063   2.126   1.460 -1.2934 -1.8202 -1.3478
  145THF    H12 1884   3.012   2.329   1.590 -2.1475  1.6930  1.9457
  145THF    H13 1885   2.884   2.347   1.479 -1.7259 -0.7492 -0.0238
  146THF     O1 1886   5.226   0.411   4.741  0.0029  0.2422  0.5080
  146THF     C2 1887   5.235   0.286   4.678  0.3621 -0.6725  0.4164
  146THF     C3 1888   5.252   0.397   4.881 -1.0371  0.1947 -0.4806
  146THF     H4 1889   5.342   0.288   4.657  0.6775 -3.1317  1.5484
  146THF     H5 1890   5.169   0.299   4.592 -0.7312 -1.3889  1.1191
  146THF     H6 1891   5.341   0.456   4.901 -1.0234  0.7838 -2.1692
  146THF     H7 1892   5.164   0.428   4.938 -2.6505 -0.8498 -2.2947
  146THF     C8 1893   5.285   0.251   4.908  0.1237 -0.2084 -0.4026
  146THF     C9 1894   5.198   0.197   4.797 -0.9669 -0.6200 -0.3807
  146THF    H10 1895   5.246   0.212   5.002  4.1181  2.8666  2.9132
  146THF    H11 1896   5.392   0.234   4.915  0.4057  0.7935 -1.7398
  146THF    H12 1897   5.226   0.094   4.776 -1.5737 -0.9088  0.1866
  146THF    H13 1898   5.095   0.194   4.830 -1.0758 -0.2411 -0.6786
  147THF     O1 1899   4.617   3.254   3.370 -0.2972  0.2154  0.0023
  147THF     C2 1900   4.578   3.123   3.340  0.1999 -0.7122 -0.0352
  147THF     C3 1901   4.574   3.269   3.511  0.5657 -0.4543  0.6645
  147THF     H4 1902   4.656   3.059   3.382 -0.0173  0.0004  1.5130
  147THF     H5 1903   4.592   3.100   3.234 -1.3011  0.2416 -0.4662
  147THF     H6 1904   4.639   3.213   3.577 -0.9876  0.3257  2.9714
  147THF     H7 1905   4.585   3.373   3.543  1.2442 -0.4061  0.2905
  147THF     C8 1906   4.428   3.213   3.499 -0.3109 -0.0461 -0.1960
  147THF     C9 1907   4.437   3.100   3.396  0.3493  0.3697 -0.0285
  147THF    H10 1908   4.363   3.288   3.454 -0.1440 -0.8320 -1.7883
  147THF    H11 1909   4.391   3.183   3.597 -1.4388  1.4494 -0.1281
  147THF    H12 1910   4.416   3.004   3.442  1.2404  0.6622  1.0101
  147THF    H13 1911   4.368   3.114   3.312  0.6464 -2.6781 -0.9005
  148THF     O1 1912   1.726   2.472   2.481 -0.1409  0.4893  0.3625
  148THF     C2 1913   1.860   2.440   2.509 -0.3852 -0.2884 -0.0570
  148THF     C3 1914   1.708   2.450   2.342  0.8912 -1.0651 -0.3234
  148THF     H4 1915   1.866   2.336   2.539 -1.1876 -0.0103  1.1375
  148THF     H5 1916   1.906   2.493   2.592 -0.6285  1.8703 -1.2128
  148THF     H6 1917   1.675   2.347   2.331  0.5877 -1.0134  0.0614
  148THF     H7 1918   1.617   2.503   2.313  0.7551  0.1474  2.0509
  148THF     C8 1919   1.833   2.516   2.280 -0.1998  0.3043 -0.3278
  148THF     C9 1920   1.938   2.497   2.383  0.5387 -0.4691  0.1024
  148THF    H10 1921   1.811   2.622   2.265 -1.5891  0.3114  1.3231
  148THF    H11 1922   1.853   2.470   2.184 -2.0757  0.9304 -1.0703
  148THF    H12 1923   2.021   2.431   2.358  0.7390  0.0229 -0.5724
  148THF    H13 1924   1.979   2.594   2.412  1.1444  0.4332 -3.3019
  149THF     O1 1925   0.072   1.058   5.219 -0.8463 -0.5321 -0.1052
  149THF     C2 1926  -0.001   1.062   5.101  0.6530 -0.1789  0.3605
  149THF     C3 1927   0.209   1.031   5.181  0.6479  0.5708  0.4215
  149THF     H4 1928  -0.094   1.116   5.122  0.4404 -0.3222 -0.2007
  149THF     H5 1929  -0.028   0.966   5.057  0.2891 -0.5273  1.2994
  149THF     H6 1930   0.283   1.051   5.258  0.0485 -1.8104  1.6986
  149THF     H7 1931   0.231   0.927   5.154 -2.5400 -0.1097  0.0955
  149THF     C8 1932   0.230   1.113   5.057  0.2016 -0.7431  0.3919
  149THF     C9 1933   0.089   1.142   5.007 -0.2881  0.1592  0.1395
  149THF    H10 1934   0.285   1.054   4.984 -0.4828 -0.3467 -0.4618
  149THF    H11 1935   0.285   1.205   5.073 -1.5552  1.0791 -2.9448
  149THF    H12 1936   0.062   1.246   4.989 -0.6225 -0.1624 -1.2954
  149THF    H13 1937   0.073   1.100   4.908 -1.7218  0.7009  0.1184
  150THF     O1 1938   0.926   4.383   2.124  0.2296 -0.0397 -0.3191
  150THF     C2 1939   0.948   4.242   2.105 -0.1523 -0.5778 -0.1334
  150THF     C3 1940   1.015   4.458   2.055  0.3421 -0.5419  0.3713
  150THF     H4 1941   0.866   4.170   2.103  0.2802 -1.0726 -0.2679
  150THF     H5 1942   1.027   4.210   2.173  1.6654  0.5063 -1.6257
  150THF     H6 1943   0.982   4.562   2.051  1.7805 -0.0881 -0.6388
  150THF     H7 1944   1.116   4.451   2.094  0.6229 -1.3322 -0.4693
  150THF     C8 1945   1.020   4.382   1.922  0.3771 -0.7341 -0.4600
  150THF     C9 1946   1.007   4.238   1.958 -0.7853 -0.0240 -0.7177
  150THF    H10 1947   1.106   4.396   1.858  2.0150  1.8002  2.0674
  150THF    H11 1948   0.934   4.410   1.861  0.1610 -0.9007 -0.2369
  150THF    H12 1949   0.938   4.193   1.887 -2.6341  3.5557 -1.4265
  150THF    H13 1950   1.108   4.197   1.957 -0.0385  1.7265 -1.9564
  151THF     O1 1951   0.183   4.119   2.258 -0.1066  0.2857  0.0127
  151THF     C2 1952   0.060   4.068   2.251  0.8056  0.0775  0.5578
  151THF     C3 1953   0.279   4.008   2.272  0.1038 -1.2284 -0.4048
  151THF     H4 1954   0.054   4.036   2.147 -0.3020  0.3461  0.5318
  151THF     H5 1955  -0.020   4.138   2.273 -1.2038 -1.3195 -1.8161
  151THF     H6 1956   0.293   3.956   2.177  0.7774 -1.4186 -0.2098
  151THF     H7 1957   0.378   4.046   2.299 -0.1417 -0.1094 -1.0201
  151THF     C8 1958   0.216   3.918   2.369  0.5873  0.6265 -0.3008
  151THF     C9 1959   0.064   3.951   2.355 -0.3141  0.0025 -0.0915
  151THF    H10 1960   0.259   3.944   2.466  1.7256 -0.5930 -0.4521
  151THF    H11 1961   0.234   3.810   2.366 -0.3921  0.4435  0.0300
  151THF    H12 1962   0.007   3.862   2.328 -0.7920  0.1950  0.2747
  151THF    H13 1963   0.032   3.988   2.452  1.6157 -1.3164  1.1274
  152THF     O1 1964   2.864   0.132   2.448  0.6197 -0.1188 -0.9856
  152THF     C2 1965   2.864   0.206   2.565 -0.5341 -0.8523 -0.5517
  152THF     C3 1966   2.937   0.185   2.341  0.4571 -0.3104  0.6221
  152THF     H4 1967   2.957   0.180   2.615 -0.5681 -2.6900 -1.3443
  152THF     H5 1968   2.778   0.188   2.629  0.5882 -0.2753  1.2019
  152THF     H6 1969   3.028   0.132   2.313  0.4009  0.7711 -1.8437
  152THF     H7 1970   2.885   0.188   2.246  0.1622 -0.8132  0.7667
  152THF     C8 1971   2.973   0.321   2.390 -0.3599 -0.8250  0.4918
  152THF     C9 1972   2.870   0.344   2.498 -0.3557 -0.1369 -0.2108
  152THF    H10 1973   2.976   0.400   2.315 -1.7557 -1.6487 -0.4693
  152THF    H11 1974   3.074   0.316   2.431  0.1908  3.1706  0.0180
  152THF    H12 1975   2.893   0.424   2.569  0.3726 -1.1527  0.7310
  152THF    H13 1976   2.774   0.365   2.452 -0.1908  1.0652 -0.0393
  153THF     O1 1977   5.177   0.755   4.687 -0.3692  0.0260 -0.0964
  153THF     C2 1978   5.178   0.869   4.600 -0.2156 -0.1408  0.2778
  153THF     C3 1979   5.135   0.791   4.816 -0.3565  0.4555  0.4509
  153THF     H4 1980   5.073   0.892   4.582  0.5463  2.9285 -1.0626
  153THF     H5 1981   5.233   0.854   4.507  1.1679  1.3709  0.7933
  153THF     H6 1982   5.028   0.805   4.825 -0.1902  1.8431  0.4944
  153THF     H7 1983   5.171   0.709   4.878  1.7003  1.5267  0.8068
  153THF     C8 1984   5.208   0.927   4.835  0.2145  0.4181  0.1911
  153THF     C9 1985   5.242   0.977   4.694 -0.3634 -0.1913  0.2085
  153THF    H10 1986   5.291   0.928   4.905 -0.5935  1.8304  1.1672
  153THF    H11 1987   5.137   0.992   4.886 -0.2572 -1.0034  1.4137
  153THF    H12 1988   5.215   1.082   4.688 -0.4951 -0.1870  0.8023
  153THF    H13 1989   5.350   0.985   4.698 -0.1243 -2.5204 -0.2516
  154THF     O1 1990   4.609   1.410   0.381 -0.2359  0.4907  0.3384
  154THF     C2 1991   4.637   1.437   0.244  0.3277  0.1609  0.4326
  154THF     C3 1992   4.650   1.517   0.465 -0.6409 -0.6792 -0.9647
  154THF     H4 1993   4.579   1.390   0.165  0.5247  1.0468 -0.2690
  154THF     H5 1994   4.742   1.412   0.230 -0.0657  0.1005 -3.6852
  154THF     H6 1995   4.582   1.515   0.550  0.0027  1.2227 -0.3492
  154THF     H7 1996   4.753   1.502   0.497 -0.9454 -0.7894 -0.0077
  154THF     C8 1997   4.646   1.645   0.373  0.9356 -0.0300 -0.2645
  154THF     C9 1998   4.606   1.589   0.236  0.2837  0.5126 -0.4629
  154THF    H10 1999   4.739   1.701   0.372 -0.8041  3.0719 -1.9906
  154THF    H11 2000   4.566   1.711   0.405  2.9452  2.2649  0.3053
  154THF    H12 2001   4.499   1.595   0.216  0.1808  0.1406 -0.0334
  154THF    H13 2002   4.653   1.644   0.154 -0.4765  0.7143 -0.7799
  155THF     O1 2003   4.344   1.886   0.403  0.5166  0.2095  0.1012
  155THF     C2 2004   4.406   1.892   0.532  0.2057  0.4315 -0.1028
  155THF     C3 2005   4.201   1.863   0.420 -0.7291 -0.8822 -0.0613
  155THF     H4 2006   4.386   1.990   0.577 -2.2728  0.6575 -1.5422
  155THF     H5 2007   4.511   1.872   0.513  0.5002  1.6073  0.2011
  155THF     H6 2008   4.153   1.959   0.401 -0.1965 -0.4304  0.8104
  155THF     H7 2009   4.165   1.786   0.352 -0.9058 -1.5459  0.7641
  155THF     C8 2010   4.191   1.821   0.560  0.3800  0.1752 -0.0950
  155THF     C9 2011   4.326   1.785   0.604  0.0283  0.6432 -0.0479
  155THF    H10 2012   4.123   1.736   0.567  1.6974 -1.1736 -2.6091
  155THF    H11 2013   4.154   1.905   0.620  1.5130 -0.3200  1.3638
  155THF    H12 2014   4.326   1.802   0.712  0.7568 -2.1863  0.4818
  155THF    H13 2015   4.349   1.682   0.580 -2.4168 -0.1494  0.7708
  156THF     O1 2016   3.689   1.880   5.144  0.1842 -0.0782  0.2563
  156THF     C2 2017   3.704   2.020   5.162  0.1612  0.2399  0.2153
  156THF     C3 2018   3.564   1.849   5.203 -0.1395  0.7935  0.1999
  156THF     H4 2019   3.774   2.056   5.087  0.1468  0.2166  0.1909
  156THF     H5 2020   3.748   2.027   5.262  0.3166 -1.9129  0.3451
  156THF     H6 2021   3.538   1.746   5.178  0.1200 -0.0156  2.9137
  156THF     H7 2022   3.569   1.850   5.312 -1.0066  0.5282  0.2451
  156THF     C8 2023   3.471   1.956   5.154  0.0517 -0.0312  0.6648
  156THF     C9 2024   3.560   2.074   5.145 -0.1752  0.5033  0.3827
  156THF    H10 2025   3.383   1.967   5.218 -0.7043  1.2549 -0.5293
  156THF    H11 2026   3.436   1.930   5.054  0.2445  2.1533 -0.0179
  156THF    H12 2027   3.566   2.134   5.054  1.2869  1.7255  1.2360
  156THF    H13 2028   3.531   2.150   5.217  1.0186  0.1176  1.2961
  157THF     O1 2029   0.007   1.583   3.596  0.0753  0.1819  0.0753
  157THF     C2 2030   0.046   1.627   3.725 -0.5222 -0.0311 -0.0711
  157THF     C3 2031   0.091   1.643   3.502  0.2783 -0.0007 -0.0728
  157THF     H4 2032   0.138   1.577   3.754 -0.6810  0.0042  0.5158
  157THF     H5 2033  -0.028   1.605   3.802 -0.7732 -0.1779 -0.3552
  157THF     H6 2034   0.190   1.605   3.477 -0.3367 -0.8546 -1.3237
  157THF     H7 2035   0.031   1.650   3.411 -0.0286 -0.2350  0.1100
  157THF     C8 2036   0.120   1.783   3.564  0.3209 -0.1400  0.2869
  157THF     C9 2037   0.064   1.777   3.704 -0.2506  0.3523 -0.4880
  157THF    H10 2038   0.059   1.846   3.499 -0.1185 -2.0726 -1.2709
  157THF    H11 2039   0.225   1.808   3.577 -0.2474  1.9672  1.2714
  157THF    H12 2040   0.126   1.833   3.775 -0.9013  1.8217 -1.0301
  157THF    H13 2041  -0.037   1.817   3.707 -0.0292  0.9617 -0.8517
  158THF     O1 2042   1.364   1.481   2.295  0.3404 -0.2518  1.0090
  158THF     C2 2043   1.265   1.499   2.393 -0.4068 -0.1421  0.8278
  158THF     C3 2044   1.314   1.521   2.168  0.4602  0.1891 -0.0243
  158THF     H4 2045   1.297   1.556   2.480 -2.7285 -0.2635  1.8289
  158THF     H5 2046   1.235   1.400   2.429 -0.1564  0.2603  2.2110
  158THF     H6 2047   1.372   1.607   2.136 -0.1682  2.0841  3.4013
  158THF     H7 2048   1.326   1.441   2.095 -0.1265 -0.8320  0.9605
  158THF     C8 2049   1.165   1.551   2.181 -0.2180  0.5721 -0.0151
  158THF     C9 2050   1.156   1.589   2.325 -0.1122  0.2222  0.1790
  158THF    H10 2051   1.113   1.455   2.185 -0.7657  0.8817  0.6751
  158THF    H11 2052   1.115   1.622   2.115  0.4135  1.3071  0.2918
  158THF    H12 2053   1.187   1.689   2.352  0.5657 -0.1210  0.6830
  158THF    H13 2054   1.065   1.562   2.379 -0.3354  2.8262  1.2387
  159THF     O1 2055   2.075   0.954   3.685 -0.1793 -0.2326  0.0652
  159THF     C2 2056   2.017   0.933   3.558 -0.0529  0.3369  0.2805
  159THF     C3 2057   2.193   0.875   3.691 -0.6776 -0.6746  0.8201
  159THF     H4 2058   2.045   1.008   3.485  0.1371 -0.3248 -0.3318
  159THF     H5 2059   1.908   0.930   3.569 -0.0257  1.8525  1.2529
  159THF     H6 2060   2.272   0.913   3.626 -0.2413  0.1867  1.8309
  159THF     H7 2061   2.245   0.856   3.785 -2.7567 -1.7109  1.8209
  159THF     C8 2062   2.143   0.746   3.639  0.1394  0.1536  0.1336
  159THF     C9 2063   2.052   0.791   3.524  0.4191  0.2938 -0.0555
  159THF    H10 2064   2.085   0.686   3.708  0.0842  0.4223  0.3209
  159THF    H11 2065   2.229   0.688   3.604  2.4718  3.6000 -0.4142
  159THF    H12 2066   2.100   0.778   3.427 -1.0479  2.1102 -1.0879
  159THF    H13 2067   1.958   0.735   3.522  1.9016 -2.3903  0.6212
  160THF     O1 2068   3.623   0.755   1.892 -0.0687  0.8362 -0.0635
  160THF     C2 2069   3.753   0.787   1.935 -0.3123  0.5011 -0.3993
  160THF     C3 2070   3.580   0.632   1.955  0.4382  0.2464  0.6721
  160THF     H4 2071   3.746   0.819   2.039  1.0511  1.4874 -0.5750
  160THF     H5 2072   3.789   0.871   1.875 -1.0710  1.1742  0.0668
  160THF     H6 2073   3.530   0.645   2.051 -0.6412  0.0298  0.1528
  160THF     H7 2074   3.509   0.569   1.901  0.9286 -1.9472  2.4586
  160THF     C8 2075   3.717   0.552   1.984 -0.0276 -0.1737 -0.1706
  160THF     C9 2076   3.818   0.654   1.927  0.8898  1.0603  0.4142
  160THF    H10 2077   3.726   0.456   1.933  0.8339 -0.5953  0.7524
  160THF    H11 2078   3.746   0.541   2.088  2.6826  2.8803 -0.4459
  160THF    H12 2079   3.921   0.649   1.965  1.5271  1.7012 -1.1413
  160THF    H13 2080   3.834   0.621   1.825  2.0819 -0.7163  1.1195
  161THF     O1 2081   4.812   4.040   4.145 -0.0218 -0.0109 -0.2938
  161THF     C2 2082   4.944   4.003   4.154 -0.7307  0.3718 -0.6267
  161THF     C3 2083   4.742   3.966   4.240 -0.5024  0.1520 -0.3950
  161THF     H4 2084   5.011   4.073   4.104 -2.5887  1.2689 -2.0180
  161THF     H5 2085   4.954   3.904   4.111 -0.1532  0.2597 -0.2451
  161THF     H6 2086   4.652   4.020   4.270 -0.8513 -0.6816  0.1264
  161THF     H7 2087   4.717   3.868   4.199  1.5861 -0.6693  0.1524
  161THF     C8 2088   4.835   3.938   4.359 -1.4248  0.1947 -0.5223
  161THF     C9 2089   4.965   3.993   4.307  0.2635 -0.5022 -0.4762
  161THF    H10 2090   4.855   3.832   4.376 -0.9787  0.4058  0.2871
  161THF    H11 2091   4.804   3.979   4.455  1.3437 -3.5835  2.2980
  161THF    H12 2092   4.975   4.093   4.348 -1.0137 -0.0256 -1.2416
  161THF    H13 2093   5.049   3.927   4.329  0.9016  0.2331 -0.6853
  162THF     O1 2094   4.152   5.423   5.112  0.0438 -0.6390  0.1537
  162THF     C2 2095   4.247   5.529   5.110 -0.6230 -0.5241 -0.5704
  162THF     C3 2096   4.133   5.389   5.250 -0.5948 -0.6499  0.5278
  162THF     H4 2097   4.254   5.584   5.016  2.2624  1.0589  0.4431
  162THF     H5 2098   4.346   5.492   5.138 -0.5877 -1.5508 -1.9505
  162THF     H6 2099   4.037   5.338   5.250 -0.4742 -0.8781  1.3819
  162THF     H7 2100   4.201   5.310   5.282 -1.6901 -1.7100  0.3155
  162THF     C8 2101   4.137   5.521   5.325  0.1693  0.0674 -0.6869
  162THF     C9 2102   4.214   5.612   5.230  0.1892  0.0604  0.1487
  162THF    H10 2103   4.192   5.507   5.418  0.0931  0.2485 -0.6129
  162THF    H11 2104   4.039   5.560   5.353  0.0765 -1.5729  1.5614
  162THF    H12 2105   4.150   5.693   5.197 -0.2716 -0.9373 -1.4914
  162THF    H13 2106   4.305   5.654   5.275 -1.6153  3.2446  1.1169
  163THF     O1 2107   1.927   5.486   4.411  0.0797 -0.0905 -0.4694
  163THF     C2 2108   2.059   5.436   4.425 -0.6991 -0.2904  0.3250
  163THF     C3 2109   1.885   5.518   4.546  0.0389  0.0401 -0.0478
  163THF     H4 2110   2.123   5.440   4.338  2.9153  0.0384  2.7853
  163THF     H5 2111   2.058   5.330   4.451  0.3567 -0.6243 -0.9121
  163THF     H6 2112   1.816   5.602   4.546  0.6564  0.5694  1.1989
  163THF     H7 2113   1.840   5.427   4.587  0.1160 -0.4669 -1.0478
  163THF     C8 2114   2.007   5.553   4.630 -0.0094  0.7960 -0.0707
  163THF     C9 2115   2.120   5.516   4.540 -0.7105 -0.3822  0.3322
  163THF    H10 2116   1.994   5.485   4.714 -0.1727 -0.3096 -0.9640
  163THF    H11 2117   2.022   5.657   4.658 -3.6400  1.5719 -0.5325
  163THF    H12 2118   2.152   5.606   4.489  0.1981 -0.3000  1.0200
  163THF    H13 2119   2.207   5.476   4.592 -0.8052  1.4705  2.0561
  164THF     O1 2120   1.035   1.684   1.507  0.3368  0.1597 -0.0924
  164THF     C2 2121   0.909   1.610   1.491 -0.1506 -0.3854  0.0081
  164THF     C3 2122   1.097   1.621   1.621  0.4960 -0.4488  0.2954
  164THF     H4 2123   0.931   1.514   1.445 -0.2268  0.2328 -1.3840
  164THF     H5 2124   0.839   1.658   1.422  0.1908 -1.2624 -0.9755
  164THF     H6 2125   1.163   1.540   1.590 -1.2898 -0.5011 -4.1958
  164THF     H7 2126   1.152   1.698   1.675 -0.9075  1.4037 -0.7750
  164THF     C8 2127   0.980   1.576   1.714 -0.3937 -0.2147  0.3968
  164THF     C9 2128   0.857   1.585   1.632 -0.3947  0.0950  0.3703
  164THF    H10 2129   0.969   1.641   1.801 -2.0919 -1.5818  1.2862
  164THF    H11 2130   0.994   1.474   1.749 -0.4279 -0.3036  0.1545
  164THF    H12 2131   0.811   1.487   1.640  2.2056 -1.0894  2.0517
  164THF    H13 2132   0.783   1.655   1.672 -1.6130  0.0081 -1.6095
  165THF     O1 2133   5.447   5.109   4.935 -0.3833  0.0942  0.0149
  165THF     C2 2134   5.435   4.991   5.023  0.0909  0.3246  0.1120
  165THF     C3 2135   5.580   5.156   4.953  0.7466 -0.4188 -0.4214
  165THF     H4 2136   5.347   4.936   4.989 -0.0363  1.1151 -0.8968
  165THF     H5 2137   5.413   5.021   5.125  1.0379  1.4606  0.0023
  165THF     H6 2138   5.607   5.222   4.870 -2.0087  2.6957  0.8767
  165THF     H7 2139   5.588   5.212   5.046  0.0419  0.0709 -0.6415
  165THF     C8 2140   5.670   5.032   4.975  0.2962 -0.2398 -0.2935
  165THF     C9 2141   5.568   4.922   4.999 -0.1097  0.1103 -0.5291
  165THF    H10 2142   5.734   5.036   5.063  1.7815 -4.0801 -0.9833
  165THF    H11 2143   5.738   5.016   4.891  2.1609  0.1414  1.0901
  165THF    H12 2144   5.575   4.859   4.911  0.8030 -0.7144  0.1033
  165THF    H13 2145   5.587   4.867   5.091 -0.9656  1.8865  0.7797
  166THF     O1 2146   0.100   3.902   0.719  0.4033 -0.3198  0.1450
  166THF     C2 2147   0.015   3.930   0.609 -0.6175  0.2424  0.4683
  166THF     C3 2148   0.234   3.951   0.686 -0.5053  0.4068 -0.1747
  166THF     H4 2149  -0.074   3.980   0.647  0.7186  1.1096  2.6346
  166THF     H5 2150  -0.018   3.837   0.562 -2.7558 -0.4817  3.1342
  166THF     H6 2151   0.250   4.042   0.744 -1.0539  1.0428 -0.9861
  166THF     H7 2152   0.311   3.877   0.709 -0.6956  0.3212  0.1854
  166THF     C8 2153   0.230   3.991   0.539 -0.5344 -0.0067 -0.2130
  166THF     C9 2154   0.086   4.015   0.505 -0.4281  1.0180 -0.1964
  166THF    H10 2155   0.263   3.901   0.486 -0.5591 -0.6136  0.7781
  166THF    H11 2156   0.299   4.073   0.519  0.8709 -1.0837  0.0612
  166THF    H12 2157   0.060   4.120   0.506 -3.8178  0.3110 -1.0860
  166THF    H13 2158   0.063   3.968   0.409  1.0576 -0.5956  0.1860
  167THF     O1 2159   0.639   1.013   2.981  0.1044 -0.0473  0.1459
  167THF     C2 2160   0.775   0.996   2.935 -0.4834  0.5079  0.0747
  167THF     C3 2161   0.596   0.896   3.047  0.8726  0.0718 -0.1594
  167THF     H4 2162   0.833   1.088   2.937 -0.4325  0.4676  1.1849
  167THF     H5 2163   0.781   0.956   2.834  0.6147  2.1961 -0.5645
  167THF     H6 2164   0.534   0.930   3.130 -1.3460  0.3813 -1.8557
  167THF     H7 2165   0.524   0.833   2.995 -0.3662  0.0951  1.4591
  167THF     C8 2166   0.719   0.819   3.080 -0.5122 -0.5774  0.0071
  167THF     C9 2167   0.840   0.902   3.032 -0.6887 -0.0349  0.0100
  167THF    H10 2168   0.716   0.722   3.031 -2.9217 -0.8292  0.5219
  167THF    H11 2169   0.728   0.791   3.185  2.4062  2.4087  0.6910
  167THF    H12 2170   0.880   0.946   3.124 -0.9151 -1.0812  0.6364
  167THF    H13 2171   0.928   0.843   3.005  0.0270  0.2620  1.5687
  168THF     O1 2172   3.630   1.197   1.708 -0.0978  0.5360  0.8814
  168THF     C2 2173   3.740   1.293   1.710  0.5906  0.3427 -0.5491
  168THF     C3 2174   3.527   1.266   1.632  0.6932  0.4192  0.8047
  168THF     H4 2175   3.796   1.305   1.617 -0.3210  2.9630 -0.8364
  168THF     H5 2176   3.806   1.260   1.791 -1.1083  1.9414  1.6164
  168THF     H6 2177   3.540   1.253   1.525 -0.1742  2.6110  0.3704
  168THF     H7 2178   3.432   1.230   1.671  0.9207 -0.4876  0.5298
  168THF     C8 2179   3.535   1.409   1.677  0.2710  0.7359 -0.2078
  168THF     C9 2180   3.666   1.417   1.759  0.2440 -0.4573  0.2131
  168THF    H10 2181   3.445   1.440   1.731 -1.1717 -1.3152 -1.3235
  168THF    H11 2182   3.531   1.474   1.589 -1.7101 -0.4327 -1.0632
  168THF    H12 2183   3.717   1.512   1.744  1.8453 -1.1016  1.3390
  168THF    H13 2184   3.658   1.411   1.867  1.0180  0.1556  0.3137
  169THF     O1 2185   3.548   0.386   5.389  0.0994 -0.4845  0.1589
  169THF     C2 2186   3.644   0.335   5.292  0.2233  0.1311 -0.1101
  169THF     C3 2187   3.560   0.301   5.499 -0.4032  0.3722 -0.4078
  169THF     H4 2188   3.671   0.396   5.205  1.9842 -0.2457  0.1220
  169THF     H5 2189   3.597   0.248   5.245  0.8677 -1.2684  1.7099
  169THF     H6 2190   3.520   0.335   5.595 -0.1446  0.2046 -0.2370
  169THF     H7 2191   3.509   0.206   5.482 -1.0144 -0.1015  3.1781
  169THF     C8 2192   3.717   0.275   5.512  0.0049  0.4309  0.0838
  169THF     C9 2193   3.765   0.294   5.370 -0.0561 -0.0747  0.0225
  169THF    H10 2194   3.729   0.173   5.550 -3.3283 -0.1733 -0.1904
  169THF    H11 2195   3.757   0.356   5.573  1.7475  0.5104 -1.0954
  169THF    H12 2196   3.832   0.380   5.371 -0.8460  0.5571  0.1023
  169THF    H13 2197   3.818   0.208   5.330 -0.4117 -0.6632  0.7777
  170THF     O1 2198   3.354   5.130   1.064 -0.2915 -0.0715  0.1098
  170THF     C2 2199   3.348   5.269   1.063  0.3129 -0.0869  0.8203
  170THF     C3 2200   3.223   5.075   1.098 -0.0792 -0.4110  0.0444
  170THF     H4 2201   3.413   5.319   0.991 -1.9643  3.6266  1.0892
  170THF     H5 2202   3.390   5.307   1.156  0.9067 -0.0538  0.5442
  170THF     H6 2203   3.182   5.026   1.010  0.6600  0.1527 -0.6306
  170THF     H7 2204   3.232   5.002   1.178 -0.7843 -1.9081 -1.1891
  170THF     C8 2205   3.141   5.196   1.126 -0.0444  0.3149  0.5267
  170THF     C9 2206   3.202   5.301   1.043 -0.3501 -0.8291 -0.4076
  170THF    H10 2207   3.133   5.217   1.233 -2.1300 -0.1292  0.4964
  170THF    H11 2208   3.041   5.179   1.087  0.0903 -1.2551  0.8279
  170THF    H12 2209   3.185   5.284   0.936  1.3713 -0.3064 -0.7984
  170THF    H13 2210   3.176   5.406   1.056  0.0039 -0.7119 -0.6235
  171THF     O1 2211   4.528   3.883   5.267 -0.1325 -0.7953 -0.0812
  171THF     C2 2212   4.645   3.948   5.219  0.2342 -0.5898 -0.8246
  171THF     C3 2213   4.424   3.978   5.260  0.1427 -0.8275  0.1639
  171THF     H4 2214   4.666   3.884   5.133  0.8316 -3.4404  1.2548
  171THF     H5 2215   4.721   3.922   5.294  1.2318  0.7505 -1.3372
  171THF     H6 2216   4.369   3.979   5.165  1.6738 -0.3650 -0.7596
  171THF     H7 2217   4.358   3.965   5.345 -0.1154  1.7152  0.4418
  171THF     C8 2218   4.489   4.113   5.275 -0.3530 -0.1300  0.2884
  171THF     C9 2219   4.614   4.099   5.198  0.2887  0.6094 -0.2535
  171THF    H10 2220   4.513   4.127   5.381 -0.9661 -0.8047  0.5314
  171THF    H11 2221   4.435   4.202   5.242  0.4960  1.2182  2.3010
  171THF    H12 2222   4.588   4.124   5.095  2.3980  1.7056 -0.5980
  171THF    H13 2223   4.696   4.167   5.223 -0.5328  1.8075 -0.7251
  172THF     O1 2224   2.364   5.060   3.899  0.3059  0.1250  0.3825
  172THF     C2 2225   2.411   5.039   4.032  0.2622  0.0911  0.0425
  172THF     C3 2226   2.484   5.057   3.817 -0.0594  0.0145 -0.3251
  172THF     H4 2227   2.462   4.943   4.042  1.6008  0.4313 -2.5519
  172THF     H5 2228   2.336   5.041   4.111  0.5607 -0.3252  0.3445
  172THF     H6 2229   2.526   4.957   3.817 -0.8231 -0.3405  1.3458
  172THF     H7 2230   2.460   5.091   3.717 -1.3318 -0.7022 -0.2825
  172THF     C8 2231   2.567   5.155   3.897 -0.4838 -0.6209 -0.0886
  172THF     C9 2232   2.531   5.131   4.046 -0.4904  0.0084  0.2794
  172THF    H10 2233   2.537   5.254   3.861  0.5266  0.0496  0.8537
  172THF    H11 2234   2.674   5.145   3.883 -0.3701  1.8220 -1.4800
  172THF    H12 2235   2.612   5.089   4.106  0.4438  0.0700 -0.9109
  172THF    H13 2236   2.506   5.227   4.092  1.7302  0.4145  0.7287
  173THF     O1 2237   1.838   0.181   2.705  0.3978  0.5837 -0.3186
  173THF     C2 2238   1.754   0.130   2.605 -0.1298  0.2419 -0.7147
  173THF     C3 2239   1.759   0.222   2.816 -0.2724  0.3032 -0.0676
  173THF     H4 2240   1.731   0.030   2.642 -1.4270  0.3499 -1.1778
  173THF     H5 2241   1.798   0.124   2.505  1.2017 -0.9493 -0.0905
  173THF     H6 2242   1.770   0.151   2.898 -0.4636  1.2034  0.7523
  173THF     H7 2243   1.798   0.315   2.856  0.2566  0.1419 -0.2053
  173THF     C8 2244   1.613   0.226   2.771  0.1141 -0.1170  0.0746
  173THF     C9 2245   1.632   0.220   2.620  0.0678  0.2409 -0.2343
  173THF    H10 2246   1.561   0.312   2.813 -2.5546  0.1493 -3.3684
  173THF    H11 2247   1.552   0.140   2.796 -0.9025  0.2138 -1.2046
  173THF    H12 2248   1.549   0.177   2.564  1.4861  0.1974 -2.4407
  173THF    H13 2249   1.667   0.314   2.578  3.1104 -0.3626  0.6863
  174THF     O1 2250   5.415   5.163   0.752 -0.4267  0.2345 -0.4563
  174THF     C2 2251   5.352   5.220   0.643  0.1887 -0.0916 -0.0990
  174THF     C3 2252   5.344   5.192   0.872  0.0080  0.2183  0.5688
  174THF     H4 2253   5.253   5.177   0.630  0.1523  0.1168 -0.5403
  174THF     H5 2254   5.409   5.216   0.550  2.8464 -1.0652  1.4749
  174THF     H6 2255   5.250   5.138   0.882 -1.0210  1.1248 -2.9230
  174THF     H7 2256   5.401   5.180   0.964  0.9533  1.7111  0.2055
  174THF     C8 2257   5.314   5.339   0.847  0.2036 -0.6827 -0.2740
  174THF     C9 2258   5.323   5.366   0.694 -0.0801  0.0268 -0.2614
  174THF    H10 2259   5.395   5.385   0.903  0.7325 -2.2402  0.2661
  174THF    H11 2260   5.227   5.383   0.896  1.3259 -0.1938  1.3623
  174THF    H12 2261   5.235   5.407   0.645 -0.8747 -2.7822 -1.3918
  174THF    H13 2262   5.399   5.440   0.666  1.6803 -0.9753  1.5934
  175THF     O1 2263   1.258   4.982   0.679 -0.6201 -0.7832 -0.1583
  175THF     C2 2264   1.211   5.065   0.790 -0.6895  0.4403  0.2313
  175THF     C3 2265   1.210   4.849   0.699 -0.7772 -0.0863 -0.6009
  175THF     H4 2266   1.109   5.095   0.764 -0.3507  0.1004 -1.6043
  175THF     H5 2267   1.271   5.152   0.816  1.9458 -0.9052 -0.9740
  175THF     H6 2268   1.109   4.841   0.660 -0.6591  0.0178 -0.9332
  175THF     H7 2269   1.277   4.781   0.647 -0.3868  1.4934 -2.2791
  175THF     C8 2270   1.207   4.835   0.854 -0.0107 -0.5970 -0.0369
  175THF     C9 2271   1.224   4.974   0.907 -0.0005  0.1718 -0.0669
  175THF    H10 2272   1.287   4.771   0.892  3.2296  3.3727  0.4787
  175THF    H11 2273   1.110   4.793   0.880 -1.0828  0.8696 -1.4816
  175THF    H12 2274   1.148   4.991   0.984 -0.4809  1.5022 -0.8063
  175THF    H13 2275   1.315   4.992   0.966  0.8949 -1.0431 -1.0391
  176THF     O1 2276   0.238   3.019   1.170 -0.6014 -0.3259 -0.1783
  176THF     C2 2277   0.171   2.900   1.219  0.6261 -0.1618  0.0386
  176THF     C3 2278   0.152   3.126   1.196 -0.2395  0.1450 -0.0020
  176THF     H4 2279   0.248   2.832   1.256 -0.7417 -0.8413  1.7456
  176THF     H5 2280   0.102   2.853   1.149 -1.0383  1.3716  0.5605
  176THF     H6 2281   0.189   3.228   1.184  1.7139 -0.2823  1.8294
  176THF     H7 2282   0.063   3.124   1.132  0.8965 -0.9434 -1.6336
  176THF     C8 2283   0.106   3.098   1.339 -0.2186 -0.4259 -0.2256
  176THF     C9 2284   0.096   2.951   1.344  0.3192  0.2831 -0.4812
  176THF    H10 2285   0.014   3.155   1.358  0.7912  0.2600  3.1870
  176THF    H11 2286   0.180   3.136   1.408 -0.3124  1.2654 -1.0013
  176THF    H12 2287   0.143   2.922   1.439  1.3148 -0.2322 -1.1039
  176THF    H13 2288  -0.007   2.919   1.355  1.0939 -1.9684  0.9403
  177THF     O1 2289   3.852   4.756   2.492 -0.8529  0.1305  0.1821
  177THF     C2 2290   3.869   4.897   2.468 -0.7752  0.5772  1.0535
  177THF     C3 2291   3.834   4.744   2.632 -0.0221  0.0388  0.0468
  177THF     H4 2292   3.774   4.946   2.487 -1.2710  0.9867 -1.9763
  177THF     H5 2293   3.917   4.919   2.372 -0.0968 -1.2749  0.9247
  177THF     H6 2294   3.726   4.752   2.640 -0.0660  0.4029 -0.8568
  177THF     H7 2295   3.868   4.644   2.659  2.0051  0.0135 -2.2576
  177THF     C8 2296   3.920   4.853   2.691 -0.1636 -0.6132 -0.2606
  177THF     C9 2297   3.975   4.929   2.574  0.3002 -0.3413 -0.2467
  177THF    H10 2298   3.998   4.819   2.759  1.4799  2.9483 -0.1684
  177THF    H11 2299   3.856   4.918   2.750  1.1804  0.8566 -0.3615
  177THF    H12 2300   3.986   5.035   2.599  1.1185 -0.2942 -0.7667
  177THF    H13 2301   4.066   4.884   2.534 -0.4275 -1.7164 -0.4014
  178THF     O1 2302   2.977   2.446   5.026 -0.1048 -0.0779  0.5373
  178THF     C2 2303   2.854   2.385   5.031  0.0750  0.3572 -0.9126
  178THF     C3 2304   2.967   2.566   5.099 -0.0225  0.2743 -0.1228
  178THF     H4 2305   2.837   2.325   5.121 -0.4386  1.6809 -0.0979
  178THF     H5 2306   2.849   2.316   4.947  1.1209 -2.4704  1.1964
  178THF     H6 2307   2.964   2.539   5.205 -3.9427  0.1340 -0.1182
  178THF     H7 2308   3.052   2.630   5.075 -0.8528  1.3122 -0.3657
  178THF     C8 2309   2.835   2.624   5.061 -0.3581  0.3812 -0.3266
  178THF     C9 2310   2.751   2.504   5.041  0.2774  0.3760  0.0245
  178THF    H10 2311   2.851   2.678   4.967  3.3755  1.0637  0.5567
  178THF    H11 2312   2.820   2.703   5.135 -0.3066 -1.1896  1.4123
  178THF    H12 2313   2.691   2.488   5.130  0.7398 -0.7326  0.1404
  178THF    H13 2314   2.678   2.501   4.959  0.6171 -0.8151 -0.2446
  179THF     O1 2315   3.712   5.000   4.183 -0.4013  0.1546  0.1454
  179THF     C2 2316   3.690   4.878   4.255 -0.2021 -0.1527  0.1500
  179THF     C3 2317   3.666   5.121   4.247 -0.4254  0.2976  0.0449
  179THF     H4 2318   3.772   4.809   4.236 -0.3825  0.0179 -1.3829
  179THF     H5 2319   3.593   4.834   4.232 -0.3792  0.8821 -1.2563
  179THF     H6 2320   3.757   5.179   4.263 -0.9656  1.1698 -0.0314
  179THF     H7 2321   3.602   5.173   4.176 -0.2445  0.8542  0.2885
  179THF     C8 2322   3.610   5.076   4.381  0.1876 -0.5859 -0.5104
  179THF     C9 2323   3.681   4.935   4.394  0.7090 -0.0985  0.3395
  179THF    H10 2324   3.502   5.064   4.374 -0.1639 -0.0556  2.5565
  179THF    H11 2325   3.646   5.141   4.461  0.3510  1.2924 -2.0527
  179THF    H12 2326   3.782   4.951   4.429  0.6266  1.3365 -0.0392
  179THF    H13 2327   3.628   4.875   4.468  0.1833  0.4619  0.4298
  180THF     O1 2328   0.644   0.748   5.484  0.1741 -0.3789 -0.3263
  180THF     C2 2329   0.756   0.735   5.401 -0.1082  0.2774 -0.1909
  180THF     C3 2330   0.573   0.868   5.453  0.3028  0.8425 -0.2223
  180THF     H4 2331   0.805   0.637   5.405 -1.4582 -0.4659 -1.1817
  180THF     H5 2332   0.829   0.801   5.448  0.0512  1.5588 -2.1651
  180THF     H6 2333   0.479   0.867   5.507 -0.1420  0.4708 -0.9797
  180THF     H7 2334   0.631   0.954   5.487  2.5822 -0.8916  0.4810
  180THF     C8 2335   0.577   0.873   5.304 -0.1844  0.8344  0.6964
  180THF     C9 2336   0.713   0.800   5.274  0.0268  0.1939 -0.0207
  180THF    H10 2337   0.563   0.977   5.277  0.3316  0.8807  0.5858
  180THF    H11 2338   0.491   0.821   5.263  1.8203 -2.0553 -0.1827
  180THF    H12 2339   0.689   0.724   5.199  1.2377 -0.1690 -0.0591
  180THF    H13 2340   0.786   0.868   5.231 -0.0464  0.1459 -0.2251
  181THF     O1 2341   2.004   3.735   2.626  0.5244 -0.5866 -0.1592
  181THF     C2 2342   2.001   3.606   2.688  1.1018 -0.1278 -0.1419
  181THF     C3 2343   1.871   3.784   2.624 -0.8979 -0.7116  0.2005
  181THF     H4 2344   2.008   3.614   2.796 -0.6537 -3.3234  0.3127
  181THF     H5 2345   2.082   3.541   2.654  0.2528 -1.9181  1.1012
  181THF     H6 2346   1.824   3.815   2.717 -1.7779 -0.3313 -0.3534
  181THF     H7 2347   1.878   3.873   2.561  1.7486 -0.6028  0.5325
  181THF     C8 2348   1.789   3.669   2.583 -0.2454  0.2712  0.4853
  181THF     C9 2349   1.864   3.548   2.639  0.1626  0.2671 -0.2064
  181THF    H10 2350   1.770   3.664   2.476 -1.3611 -0.2194  0.6972
  181THF    H11 2351   1.689   3.670   2.625  0.3315  0.0848  1.9165
  181THF    H12 2352   1.808   3.496   2.716  2.9744 -0.3858  1.5478
  181THF    H13 2353   1.877   3.476   2.558 -0.6125 -3.0419  2.4169
  182THF     O1 2354   1.449   3.424   2.105 -0.3340 -0.3095 -0.5159
  182THF     C2 2355   1.455   3.410   1.969  0.7336 -0.1930 -0.1809
  182THF     C3 2356   1.522   3.316   2.163  0.4980 -0.3008  0.0148
  182THF     H4 2357   1.557   3.427   1.933  0.0399  3.3108 -0.8916
  182THF     H5 2358   1.387   3.484   1.925  1.0695 -0.7177 -1.6530
  182THF     H6 2359   1.628   3.341   2.168  0.7631 -1.4387  0.2816
  182THF     H7 2360   1.487   3.288   2.262  0.4377 -0.7722 -0.1398
  182THF     C8 2361   1.506   3.201   2.063 -0.1328 -0.1616 -0.7864
  182THF     C9 2362   1.422   3.266   1.953 -0.4558  0.3126  0.6160
  182THF    H10 2363   1.468   3.114   2.117 -0.2394  1.0258  1.1482
  182THF    H11 2364   1.603   3.171   2.024 -0.4596 -1.7948 -0.4257
  182THF    H12 2365   1.442   3.242   1.849 -0.9965 -4.0764  1.3129
  182THF    H13 2366   1.317   3.238   1.964 -0.6915  0.8515 -0.1538
  183THF     O1 2367   1.718   0.121   4.952  0.0277  0.3250  0.3686
  183THF     C2 2368   1.660   0.131   5.078  0.4630 -0.4623 -0.4127
  183THF     C3 2369   1.645   0.034   4.870  0.2958  0.3892 -0.1581
  183THF     H4 2370   1.692   0.221   5.131 -0.6470  0.3869 -1.1601
  183THF     H5 2371   1.678   0.045   5.143 -0.7008 -0.1089  0.4098
  183THF     H6 2372   1.678   0.049   4.767 -0.0674 -0.2196 -0.3657
  183THF     H7 2373   1.656  -0.072   4.894 -0.0585  0.9074  2.6982
  183THF     C8 2374   1.498   0.080   4.894 -0.2808  0.5683 -0.3415
  183THF     C9 2375   1.514   0.153   5.040 -0.3642  0.7313 -0.0161
  183THF    H10 2376   1.426  -0.003   4.896 -1.1887  1.3020  2.7320
  183THF    H11 2377   1.467   0.156   4.823  1.1943  0.5686 -1.0179
  183THF    H12 2378   1.491   0.259   5.038 -0.6872  0.6598 -0.2322
  183THF    H13 2379   1.454   0.110   5.120 -0.1416  0.7260  0.1475
  184THF     O1 2380   1.678   1.259   5.498  0.4232 -0.3597 -0.0296
  184THF     C2 2381   1.758   1.372   5.492 -0.2751 -0.5761  0.5513
  184THF     C3 2382   1.659   1.233   5.632 -0.0243  0.0545  0.8522
  184THF     H4 2383   1.686   1.453   5.482  1.4412  1.3072  2.5645
  184THF     H5 2384   1.828   1.372   5.408 -1.9211 -0.3315 -0.8677
  184THF     H6 2385   1.582   1.301   5.670  0.1837  1.5304 -1.1780
  184THF     H7 2386   1.623   1.131   5.635 -1.2226  0.4450  0.3293
  184THF     C8 2387   1.800   1.244   5.687  0.8765  0.2988 -0.1798
  184THF     C9 2388   1.833   1.374   5.622  0.0950 -0.0357 -0.3206
  184THF    H10 2389   1.864   1.159   5.663  1.1486  0.4175  0.1281
  184THF    H11 2390   1.803   1.251   5.796  0.1091 -1.8122  0.0363
  184THF    H12 2391   1.804   1.455   5.689 -0.3078  0.3468 -0.9449
  184THF    H13 2392   1.940   1.370   5.603  0.5595  2.9194  1.1645
  185THF     O1 2393   1.222   3.008   3.472  0.0053  0.3778 -0.2529
  185THF     C2 2394   1.123   2.914   3.524  0.2488  0.1789  0.3489
  185THF     C3 2395   1.203   3.132   3.530 -0.4482 -0.1508 -0.3187
  185THF     H4 2396   1.155   2.810   3.526  1.9256  0.6536 -0.4359
  185THF     H5 2397   1.035   2.917   3.460  1.5299 -4.5590 -2.0590
  185THF     H6 2398   1.273   3.208   3.497 -0.6805  0.5819  0.8065
  185THF     H7 2399   1.108   3.177   3.503 -0.0868  0.6741 -0.2545
  185THF     C8 2400   1.188   3.088   3.685 -0.5052 -0.1734  0.2961
  185THF     C9 2401   1.105   2.963   3.669 -0.3818  0.4816  0.2255
  185THF    H10 2402   1.138   3.162   3.747  0.9635  0.6703  0.5102
  185THF    H11 2403   1.286   3.065   3.726  0.1556  1.2114 -0.4437
  185THF    H12 2404   1.135   2.888   3.742  0.4503 -0.6317 -1.1875
  185THF    H13 2405   0.999   2.985   3.685 -0.2048  0.7963  0.9822
  186THF     O1 2406   5.323   5.003   3.331 -0.1206 -0.4242 -0.5689
  186THF     C2 2407   5.404   5.074   3.426 -0.4921 -0.4308 -0.2536
  186THF     C3 2408   5.383   5.017   3.208  0.6258 -0.5024  0.7221
  186THF     H4 2409   5.507   5.037   3.425 -0.3610 -0.0826 -0.0501
  186THF     H5 2410   5.369   5.077   3.530 -2.1057 -0.8949 -0.7537
  186THF     H6 2411   5.472   4.953   3.206  0.4369 -0.7925 -2.2265
  186THF     H7 2412   5.309   4.995   3.131 -0.6790 -0.6918  1.9785
  186THF     C8 2413   5.419   5.170   3.214  0.1365 -0.3563 -0.3535
  186THF     C9 2414   5.413   5.210   3.361 -0.5289 -0.3216 -0.1065
  186THF    H10 2415   5.345   5.223   3.154 -0.7610 -1.9252 -0.6974
  186THF    H11 2416   5.517   5.192   3.174 -0.9225  1.6014 -2.0689
  186THF    H12 2417   5.488   5.282   3.395 -0.2280 -0.4029 -0.5925
  186THF    H13 2418   5.316   5.258   3.376 -0.8902 -1.6214  2.2602
  187THF     O1 2419   3.083   3.685   4.032 -0.0157  0.2576 -0.2157
  187THF     C2 2420   3.188   3.740   3.952 -0.0526  0.4023 -0.2363
  187THF     C3 2421   2.991   3.626   3.937 -0.3648  0.1107 -0.5030
  187THF     H4 2422   3.269   3.670   3.929 -0.8373 -0.4787 -0.4182
  187THF     H5 2423   3.240   3.816   4.010  1.0189 -1.1007  0.8477
  187THF     H6 2424   3.015   3.520   3.932 -1.0318 -0.4375  4.0397
  187THF     H7 2425   2.889   3.611   3.972 -0.5398  0.4188 -0.8720
  187THF     C8 2426   2.986   3.719   3.820 -0.4151 -0.8956  0.4425
  187THF     C9 2427   3.115   3.797   3.828 -0.8478  0.1279 -0.0528
  187THF    H10 2428   2.917   3.802   3.833  0.7860  0.3334 -0.5826
  187THF    H11 2429   2.981   3.659   3.729  2.2565 -3.3822  1.7613
  187THF    H12 2430   3.165   3.799   3.731 -0.8560 -0.4303 -0.0708
  187THF    H13 2431   3.087   3.896   3.864 -0.2600 -0.7263  3.1105
  188THF     O1 2432   1.856   3.154   3.049 -0.4594  0.5155  0.4032
  188THF     C2 2433   1.973   3.080   3.003 -0.2752  0.1572 -0.1077
  188THF     C3 2434   1.761   3.163   2.944 -0.4424  0.6079  0.2670
  188THF     H4 2435   1.972   2.972   3.021  1.8561 -0.1568 -1.5049
  188THF     H5 2436   2.052   3.125   3.064 -2.3925  2.2795  1.2332
  188THF     H6 2437   1.720   3.064   2.927 -0.6439  1.0934 -2.7128
  188THF     H7 2438   1.677   3.227   2.970  0.5499  2.5226 -0.9438
  188THF     C8 2439   1.848   3.196   2.821  0.7035  0.0128 -0.2654
  188THF     C9 2440   1.981   3.119   2.857 -0.2239 -0.0965  0.1955
  188THF    H10 2441   1.867   3.303   2.809  1.4630 -0.1754 -0.7981
  188THF    H11 2442   1.808   3.157   2.727  1.8335 -1.7277 -0.0745
  188THF    H12 2443   1.994   3.033   2.792 -0.6233 -1.1740  1.4940
  188THF    H13 2444   2.063   3.189   2.846  0.8778 -1.4698 -0.7367
  189THF     O1 2445   2.209   0.413   3.808 -0.3506  0.8498 -0.0089
  189THF     C2 2446   2.328   0.468   3.864 -0.1166 -0.0935 -0.2410
  189THF     C3 2447   2.250   0.306   3.712  0.8998  0.1682  0.0502
  189THF     H4 2448   2.351   0.389   3.936 -2.5173 -2.1798 -1.5788
  189THF     H5 2449   2.299   0.561   3.912 -0.1217 -0.3830  0.3377
  189THF     H6 2450   2.247   0.209   3.763  1.0673  0.6641  1.0134
  189THF     H7 2451   2.182   0.322   3.628 -1.3728 -3.7276  0.8488
  189THF     C8 2452   2.392   0.344   3.672  0.3069 -0.2532  0.5037
  189THF     C9 2453   2.423   0.473   3.743  0.1358 -0.3051  0.0988
  189THF    H10 2454   2.407   0.349   3.564  1.4255 -0.2038  0.6404
  189THF    H11 2455   2.461   0.270   3.714  0.2883 -1.1057 -0.8944
  189THF    H12 2456   2.524   0.483   3.783 -0.1675 -1.2404  1.1678
  189THF    H13 2457   2.387   0.556   3.682  0.1758 -1.3208 -1.3616
  190THF     O1 2458   5.241   4.426   4.801  0.3632 -0.1880 -0.2471
  190THF     C2 2459   5.349   4.508   4.849  0.7152 -0.2835  0.1292
  190THF     C3 2460   5.124   4.447   4.882 -0.3063  0.9250 -0.5225
  190THF     H4 2461   5.383   4.541   4.751 -2.2921  0.9818 -0.5746
  190THF     H5 2462   5.437   4.470   4.901  0.2976 -0.3237  0.8281
  190THF     H6 2463   5.032   4.440   4.824 -1.0913 -0.6731  0.8386
  190THF     H7 2464   5.113   4.368   4.956 -1.9627  2.9220  1.5282
  190THF     C8 2465   5.144   4.589   4.937  0.3939  0.1316 -0.8936
  190THF     C9 2466   5.290   4.614   4.940 -0.2736 -0.3517 -0.4311
  190THF    H10 2467   5.112   4.601   5.041  0.3934  1.7258 -1.0627
  190THF    H11 2468   5.083   4.661   4.883 -0.0866 -1.0956 -2.0546
  190THF    H12 2469   5.321   4.716   4.918 -1.8334  0.4707  0.9181
  190THF    H13 2470   5.317   4.588   5.042  0.0337 -0.1818 -0.4690
  191THF     O1 2471   0.249   3.077   1.898  0.1016 -0.0349  0.1716
  191THF     C2 2472   0.239   3.126   1.769  0.0735  0.0455 -0.1592
  191THF     C3 2473   0.114   3.028   1.928 -0.3142  0.5699  0.2402
  191THF     H4 2474   0.265   3.056   1.690  0.5026 -0.9929  0.8727
  191THF     H5 2475   0.310   3.208   1.756 -0.1413  0.7456  2.4647
  191THF     H6 2476   0.090   2.933   1.879  2.4123  0.8417 -1.8521
  191THF     H7 2477   0.096   3.014   2.035 -0.1836 -0.6365  0.1250
  191THF     C8 2478   0.026   3.135   1.865  0.2953 -0.3147  0.3074
  191THF     C9 2479   0.102   3.178   1.745  0.3007 -0.4429  0.1314
  191THF    H10 2480   0.036   3.221   1.932  0.5394 -0.1832  0.1001
  191THF    H11 2481  -0.081   3.117   1.858  0.0173  0.4805  2.0275
  191THF    H12 2482   0.060   3.127   1.658 -0.7494  0.3484  0.1471
  191THF    H13 2483   0.101   3.286   1.733  1.1950 -0.3509  0.8498
  192THF     O1 2484   0.271   0.660   0.637  0.1263 -0.0475  0.2996
  192THF     C2 2485   0.411   0.660   0.654  0.3045 -0.3831  0.5098
  192THF     C3 2486   0.237   0.789   0.586 -0.1088  0.4687 -0.0576
  192THF     H4 2487   0.452   0.653   0.554  2.5858 -0.1995  1.3841
  192THF     H5 2488   0.447   0.577   0.715  1.1257 -0.5066 -0.1296
  192THF     H6 2489   0.251   0.784   0.478  0.9855  0.3665  0.0761
  192THF     H7 2490   0.130   0.807   0.600 -0.1562  0.4796 -0.4332
  192THF     C8 2491   0.338   0.882   0.652  0.1580  0.0428  0.3506
  192THF     C9 2492   0.445   0.796   0.722 -0.2761  0.3676  0.7093
  192THF    H10 2493   0.297   0.965   0.711 -0.9675 -0.8861  0.9126
  192THF    H11 2494   0.373   0.940   0.567 -5.3000  0.5499 -1.9443
  192THF    H12 2495   0.547   0.825   0.695 -1.5425  3.4094 -1.3402
  192THF    H13 2496   0.429   0.802   0.829 -0.7350  0.8537  0.6161
  193THF     O1 2497   4.136   2.387   0.645 -0.0546 -0.3504  0.5887
  193THF     C2 2498   4.271   2.349   0.636 -0.7597 -0.6575  0.0485
  193THF     C3 2499   4.068   2.283   0.581  0.6306  0.4073  0.2721
  193THF     H4 2500   4.286   2.277   0.717 -1.5092 -0.9236 -0.0411
  193THF     H5 2501   4.329   2.441   0.644 -2.5373  0.5901 -0.6339
  193THF     H6 2502   4.086   2.188   0.632  2.4411  0.4971 -0.1157
  193THF     H7 2503   3.963   2.301   0.561  0.0060  0.5247  3.1860
  193THF     C8 2504   4.136   2.269   0.448 -0.0628 -0.1461 -0.3532
  193THF     C9 2505   4.283   2.291   0.494  0.4432  0.0167  0.0546
  193THF    H10 2506   4.113   2.344   0.373 -1.2532 -1.5070 -1.3883
  193THF    H11 2507   4.122   2.172   0.401  2.7683 -0.4209 -0.8195
  193THF    H12 2508   4.328   2.192   0.506 -0.0132 -0.0998  0.9249
  193THF    H13 2509   4.342   2.351   0.425  0.5723 -0.3430 -0.1477
  194THF     O1 2510   4.280   2.790   4.413  0.0999  0.1418 -0.4473
  194THF     C2 2511   4.341   2.694   4.327  0.4941 -0.0817 -0.4494
  194THF     C3 2512   4.314   2.755   4.547  0.0811 -0.5831  0.1004
  194THF     H4 2513   4.346   2.747   4.232  0.9742  1.6189  0.4857
  194THF     H5 2514   4.283   2.601   4.321 -0.6530  0.4985  1.0582
  194THF     H6 2515   4.319   2.837   4.619  0.5344 -1.8936  1.6380
  194THF     H7 2516   4.228   2.696   4.580 -2.1316  1.3409 -1.8326
  194THF     C8 2517   4.440   2.666   4.540 -0.3953 -0.6685 -0.0413
  194THF     C9 2518   4.477   2.672   4.393 -0.0014 -0.2389 -0.4956
  194THF    H10 2519   4.430   2.564   4.575  1.7302 -1.0802 -0.5297
  194THF    H11 2520   4.514   2.708   4.608  0.4821 -0.4623 -1.0996
  194THF    H12 2521   4.538   2.759   4.370 -0.9343  0.8482  0.9569
  194THF    H13 2522   4.538   2.585   4.372  0.3459 -0.2282  0.4160
  195THF     O1 2523   1.572   1.179   4.670  0.0010  0.4880  0.3073
  195THF     C2 2524   1.704   1.223   4.706 -0.2902  0.1054 -0.0404
  195THF     C3 2525   1.560   1.038   4.682 -0.0702 -0.5173 -0.0034
  195THF     H4 2526   1.718   1.328   4.730  0.1682 -0.0710  0.4694
  195THF     H5 2527   1.780   1.198   4.631  0.0852 -1.4398  0.8153
  195THF     H6 2528   1.453   1.023   4.697 -0.6340  2.8744  0.2613
  195THF     H7 2529   1.599   0.997   4.590  0.6865 -0.1217  0.1343
  195THF     C8 2530   1.646   1.006   4.801  0.1579  0.2478 -0.2809
  195THF     C9 2531   1.721   1.135   4.834  0.0458  0.5729  0.0945
  195THF    H10 2532   1.716   0.926   4.778 -0.1812 -0.0780 -0.1822
  195THF    H11 2533   1.578   0.966   4.876  0.2400 -1.5862 -1.1241
  195THF    H12 2534   1.659   1.177   4.913 -0.4428  0.9075 -0.4608
  195THF    H13 2535   1.817   1.124   4.885 -0.1862 -0.0369  0.4196
  196THF     O1 2536   3.792   3.689   0.258  0.5868 -0.1358  0.5542
  196THF     C2 2537   3.708   3.787   0.317 -0.4834 -0.6057 -0.0270
  196THF     C3 2538   3.791   3.575   0.344  0.2621 -0.7081  0.4591
  196THF     H4 2539   3.606   3.786   0.277 -0.4715  0.6003 -0.1220
  196THF     H5 2540   3.747   3.884   0.286 -1.1979 -0.5465 -0.7973
  196THF     H6 2541   3.708   3.510   0.319  1.1966 -1.0021 -2.1934
  196THF     H7 2542   3.886   3.523   0.331  0.2088 -1.0030  1.1777
  196THF     C8 2543   3.781   3.638   0.483 -0.6871 -0.0235  0.3508
  196THF     C9 2544   3.711   3.767   0.471  0.2271  0.0632 -0.6057
  196THF    H10 2545   3.881   3.663   0.518 -0.6125  0.1531  0.0104
  196THF    H11 2546   3.743   3.564   0.554 -0.2252 -2.1686 -1.5296
  196THF    H12 2547   3.617   3.766   0.526 -0.1931  2.9567 -1.1095
  196THF    H13 2548   3.760   3.854   0.513  0.9286 -1.5360  2.1525
  197THF     O1 2549   4.521   5.135   0.958 -0.2277 -0.0442 -0.4437
  197THF     C2 2550   4.423   5.111   1.062 -0.5017 -0.0843  0.7996
  197THF     C3 2551   4.515   5.274   0.932  0.1585 -0.2695 -0.0190
  197THF     H4 2552   4.454   5.028   1.126  1.2773  1.1097  1.5781
  197THF     H5 2553   4.332   5.081   1.011  0.5943  2.1610 -2.8965
  197THF     H6 2554   4.602   5.313   0.879  0.2354 -1.2184 -0.6008
  197THF     H7 2555   4.431   5.298   0.867  1.2441  0.1444 -1.3273
  197THF     C8 2556   4.505   5.328   1.077  0.2495 -0.1419 -0.2771
  197THF     C9 2557   4.407   5.236   1.141  0.3755 -0.5928  0.1610
  197THF    H10 2558   4.475   5.432   1.092 -1.8748 -0.8630  0.8527
  197THF    H11 2559   4.599   5.315   1.130  0.0339 -0.2225  0.0891
  197THF    H12 2560   4.406   5.226   1.250  1.1266  1.9536  0.4831
  197THF    H13 2561   4.310   5.284   1.124  0.4339 -0.5499 -0.0474
  198THF     O1 2562   0.171   1.615   4.364  0.1483  0.4606 -0.1125
  198THF     C2 2563   0.171   1.673   4.235  0.5015 -0.6711  0.0641
  198THF     C3 2564   0.271   1.666   4.440 -0.3621  0.1503 -0.2419
  198THF     H4 2565   0.086   1.662   4.168  0.6623  0.6276 -0.3879
  198THF     H5 2566   0.264   1.640   4.189  1.7394 -1.9362  3.1428
  198THF     H6 2567   0.263   1.652   4.548 -2.1367  0.4105 -0.3017
  198THF     H7 2568   0.362   1.622   4.401  0.7115  1.8673  0.2314
  198THF     C8 2569   0.260   1.819   4.409  0.3910  0.1538 -0.2326
  198THF     C9 2570   0.183   1.821   4.279  0.0917  0.4049 -0.8409
  198THF    H10 2571   0.359   1.864   4.401  0.3435 -0.0196 -2.5433
  198THF    H11 2572   0.215   1.869   4.495  1.7948  2.0517 -0.5279
  198THF    H12 2573   0.080   1.853   4.295 -0.0893 -0.7971  0.5441
  198THF    H13 2574   0.223   1.872   4.191  0.1349 -0.1799 -1.1653
  199THF     O1 2575   0.684   4.725   2.673 -0.1828  0.3475  0.4884
  199THF     C2 2576   0.811   4.663   2.679 -0.3670 -0.1507  0.5966
  199THF     C3 2577   0.603   4.680   2.783  0.4445 -0.2785 -0.3833
  199THF     H4 2578   0.865   4.700   2.767  1.4898  1.2378 -1.0232
  199THF     H5 2579   0.876   4.680   2.593 -3.0215  0.0221 -1.4793
  199THF     H6 2580   0.626   4.740   2.871 -0.3376 -0.9835  0.3158
  199THF     H7 2581   0.500   4.708   2.760  0.8334  2.3058  0.7486
  199THF     C8 2582   0.645   4.537   2.785  0.1487  0.4397  0.1788
  199THF     C9 2583   0.781   4.516   2.705  0.3891  0.1606 -0.2522
  199THF    H10 2584   0.563   4.486   2.733  0.7851  0.6495 -1.0777
  199THF    H11 2585   0.649   4.510   2.890  0.0380  2.8794  0.8635
  199THF    H12 2586   0.849   4.459   2.767 -1.1527 -0.8872  0.5493
  199THF    H13 2587   0.769   4.459   2.612 -1.0435 -1.6665  0.9795
  200THF     O1 2588   0.510   4.251   5.094  0.1606  0.0859 -0.3068
  200THF     C2 2589   0.530   4.239   4.953 -0.7576  0.1918 -0.3323
  200THF     C3 2590   0.435   4.132   5.130 -0.2790  0.2202  0.1269
  200THF     H4 2591   0.616   4.173   4.938 -0.6597  0.2973 -0.2399
  200THF     H5 2592   0.553   4.333   4.903 -0.7682  1.0949  1.2773
  200THF     H6 2593   0.500   4.045   5.127 -0.4661  0.0836  0.0179
  200THF     H7 2594   0.392   4.143   5.229 -1.3003 -1.8593 -0.0357
  200THF     C8 2595   0.325   4.118   5.024  0.1757  0.8294  0.0758
  200THF     C9 2596   0.383   4.190   4.905  0.0760 -0.5610 -0.1090
  200THF    H10 2597   0.238   4.169   5.065  0.9382  1.0172  1.4999
  200THF    H11 2598   0.309   4.011   5.007  0.0429  0.5094  1.9905
  200THF    H12 2599   0.382   4.123   4.819  0.3121  0.2722 -0.7803
  200THF    H13 2600   0.333   4.281   4.873  2.7702  0.8491 -0.6453
  201THF     O1 2601   1.099   5.475   5.314 -0.2924  0.9086 -0.2516
  201THF     C2 2602   1.119   5.357   5.395  0.8419 -0.1968  0.0439
  201THF     C3 2603   1.208   5.561   5.322  0.0757  0.1198  0.0663
  201THF     H4 2604   1.074   5.272   5.344  0.7024 -0.8096  1.1539
  201THF     H5 2605   1.076   5.379   5.493 -1.6587  0.8834 -1.2173
  201THF     H6 2606   1.263   5.592   5.234  1.0243  0.9682  0.9310
  201THF     H7 2607   1.172   5.653   5.368  2.2171  0.9285  0.2338
  201THF     C8 2608   1.317   5.489   5.402  1.0659 -0.2778  0.4548
  201THF     C9 2609   1.274   5.342   5.408  0.2110  0.3582 -0.5440
  201THF    H10 2610   1.335   5.532   5.501  0.5001 -0.9048  0.8326
  201THF    H11 2611   1.409   5.485   5.344  0.7850 -1.7067  0.0870
  201THF    H12 2612   1.300   5.279   5.323  2.3009 -1.4461  1.3173
  201THF    H13 2613   1.320   5.280   5.485  0.3472  0.1147 -0.8222
  202THF     O1 2614   2.456   5.001   0.897  0.6680 -0.4890  0.6140
  202THF     C2 2615   2.341   5.073   0.848  0.0876 -0.0038 -0.4909
  202THF     C3 2616   2.470   4.890   0.808 -0.1552  0.3194 -0.5870
  202THF     H4 2617   2.371   5.117   0.753  2.6301 -1.9083 -0.6746
  202THF     H5 2618   2.307   5.154   0.913 -0.1804 -1.4460  1.2276
  202THF     H6 2619   2.533   4.914   0.722  3.0577 -0.1382  1.4814
  202THF     H7 2620   2.512   4.808   0.864  0.1194  0.2497 -0.8929
  202THF     C8 2621   2.319   4.854   0.771 -0.2853 -0.1186  0.3660
  202THF     C9 2622   2.237   4.973   0.829 -1.3603  1.0464 -0.2276
  202THF    H10 2623   2.291   4.752   0.796 -0.2133  0.0505  1.1502
  202THF    H11 2624   2.315   4.860   0.662  0.5381  1.3337  0.3866
  202THF    H12 2625   2.159   4.999   0.757 -1.8466 -0.6862 -0.3698
  202THF    H13 2626   2.190   4.945   0.923  0.0501  0.2658  0.2736
  203THF     O1 2627   0.882   5.327   0.339 -0.1111  0.0650 -0.0265
  203THF     C2 2628   0.881   5.343   0.196  0.3715 -0.3848 -0.0044
  203THF     C3 2629   0.831   5.195   0.370  0.3125 -0.4403 -0.5869
  203THF     H4 2630   0.944   5.425   0.162 -1.9823  1.2148 -0.7769
  203THF     H5 2631   0.777   5.369   0.176 -0.0650 -0.8796  1.4663
  203THF     H6 2632   0.869   5.149   0.461  2.6156  0.8269 -0.8567
  203THF     H7 2633   0.724   5.211   0.383 -0.6077 -3.8044 -2.7647
  203THF     C8 2634   0.846   5.107   0.243  0.0440 -0.6007 -0.1793
  203THF     C9 2635   0.919   5.202   0.148 -0.3193  0.1904 -0.1664
  203THF    H10 2636   0.750   5.092   0.194 -1.4925  3.7480  1.0110
  203THF    H11 2637   0.895   5.012   0.262  0.8681 -0.3693 -1.0836
  203THF    H12 2638   1.026   5.185   0.158 -0.0780  1.8593  0.4431
  203THF    H13 2639   0.892   5.171   0.047 -1.1885  0.1087  0.0862
  204THF     O1 2640   0.103   4.869   0.935 -0.1243  0.6153  0.2770
  204THF     C2 2641   0.108   4.918   1.065  0.3674 -0.3487  0.6219
  204THF     C3 2642  -0.007   4.770   0.937  0.2795 -0.0653 -0.3666
  204THF     H4 2643   0.125   5.025   1.059 -1.1831 -0.0176  1.5316
  204THF     H5 2644   0.195   4.892   1.125  0.9667 -0.5896 -0.3405
  204THF     H6 2645  -0.083   4.818   0.876 -1.8696 -1.8958  0.7468
  204THF     H7 2646   0.023   4.677   0.889  4.5341  0.2871  1.1263
  204THF     C8 2647  -0.053   4.739   1.079  0.5118  0.1442 -0.3914
  204THF     C9 2648  -0.020   4.879   1.137 -0.0979  0.4160  0.7027
  204THF    H10 2649   0.012   4.667   1.129  1.8828  2.3069  1.1317
  204THF    H11 2650  -0.155   4.699   1.083  0.1641  1.0294 -0.0284
  204THF    H12 2651  -0.104   4.942   1.110  0.4504  0.3875 -1.2650
  204THF    H13 2652  -0.019   4.879   1.246 -1.0969 -1.9456  0.7734
  205THF     O1 2653   1.595   2.830   0.201  0.2673 -0.3946 -0.1927
  205THF     C2 2654   1.549   2.909   0.311  0.3606 -0.7065 -0.1728
  205THF     C3 2655   1.731   2.856   0.186  0.0355  0.1127 -0.8150
  205THF     H4 2656   1.466   2.855   0.357 -2.7060  2.6300 -1.3041
  205THF     H5 2657   1.506   3.002   0.273  2.0229  0.1229 -0.1077
  205THF     H6 2658   1.776   2.762   0.154  1.1118  0.1250  0.5549
  205THF     H7 2659   1.751   2.928   0.107  0.5744 -0.0838 -0.8652
  205THF     C8 2660   1.785   2.889   0.329  0.2226  0.3912 -0.1145
  205THF     C9 2661   1.662   2.926   0.414  0.4351 -0.4584 -0.5583
  205THF    H10 2662   1.867   2.961   0.338  3.1310 -2.3926 -1.9283
  205THF    H11 2663   1.836   2.801   0.370  3.2199  2.4154  0.8363
  205THF    H12 2664   1.655   2.858   0.499 -0.7306  0.2074 -0.1027
  205THF    H13 2665   1.659   3.028   0.452 -0.7540 -1.2703  1.7301
  206THF     O1 2666   2.627   1.332   2.116 -0.2609 -0.0947 -0.3028
  206THF     C2 2667   2.723   1.431   2.133 -0.1491  0.4024  0.0498
  206THF     C3 2668   2.608   1.264   2.240  0.3493  0.5352 -0.0127
  206THF     H4 2669   2.676   1.529   2.122 -1.2918 -0.0912  0.4309
  206THF     H5 2670   2.810   1.425   2.068  0.2384 -1.9155  0.6981
  206THF     H6 2671   2.508   1.223   2.253  0.2496  1.2055  1.5016
  206THF     H7 2672   2.668   1.172   2.240 -1.9477 -1.0586 -0.1099
  206THF     C8 2673   2.650   1.366   2.338  0.8487  0.3516  0.2285
  206THF     C9 2674   2.773   1.426   2.275 -0.7468  0.2765  0.0078
  206THF    H10 2675   2.679   1.323   2.434  2.4134  1.5078  0.3131
  206THF    H11 2676   2.571   1.437   2.359 -1.6355 -1.9829 -0.6893
  206THF    H12 2677   2.801   1.525   2.311 -0.6728  1.0392 -2.0457
  206THF    H13 2678   2.858   1.361   2.298 -1.7424 -0.3755  2.1340
  207THF     O1 2679   1.215   3.087   3.094  0.2255  0.5250 -0.7647
  207THF     C2 2680   1.332   3.135   3.152 -0.2646 -0.3245 -0.1714
  207THF     C3 2681   1.254   3.016   2.980  0.2454 -0.1647  0.2464
  207THF     H4 2682   1.323   3.161   3.258 -1.1856 -3.0206  0.5012
  207THF     H5 2683   1.360   3.211   3.080  1.7179 -3.4841 -3.0292
  207THF     H6 2684   1.173   2.949   2.952 -0.0759 -0.5940  2.0410
  207THF     H7 2685   1.275   3.094   2.908 -0.1955 -4.2200 -4.8656
  207THF     C8 2686   1.372   2.938   3.030 -0.1361 -0.5321  0.0372
  207THF     C9 2687   1.429   3.011   3.145  0.0202 -0.1303 -1.2026
  207THF    H10 2688   1.445   2.915   2.953 -1.2731 -1.9163 -0.6853
  207THF    H11 2689   1.350   2.839   3.072  1.9067 -0.7894  0.5830
  207THF    H12 2690   1.417   2.956   3.238  2.1203  2.3553  0.6975
  207THF    H13 2691   1.536   3.031   3.132  0.8568 -1.6280  2.2889
  208THF     O1 2692   3.467   2.390   4.138  0.1897 -0.0347  0.8217
  208THF     C2 2693   3.606   2.364   4.147 -0.3491  0.4913  0.7107
  208THF     C3 2694   3.449   2.528   4.152  0.2817  0.2903  0.7870
  208THF     H4 2695   3.640   2.398   4.049 -3.8359  0.3996 -0.7084
  208THF     H5 2696   3.622   2.256   4.152 -0.4617  0.5114  1.7597
  208THF     H6 2697   3.488   2.576   4.062  1.2012 -0.7133  0.6223
  208THF     H7 2698   3.350   2.567   4.176 -0.0012 -0.1507  0.3584
  208THF     C8 2699   3.546   2.566   4.254 -0.0120 -0.0134  0.1159
  208THF     C9 2700   3.652   2.453   4.259  1.1022  0.4213 -0.0590
  208THF    H10 2701   3.513   2.589   4.355  1.4566  2.5985  0.0870
  208THF    H11 2702   3.593   2.658   4.219  0.2781  0.0956  0.7743
  208THF    H12 2703   3.748   2.492   4.226  1.0831 -0.2872 -0.9808
  208THF    H13 2704   3.653   2.386   4.345  0.3872  1.5650  0.8647
  209THF     O1 2705   2.452   2.813   3.507 -0.4340 -0.3139 -0.0493
  209THF     C2 2706   2.559   2.871   3.582 -0.1904  0.1963  0.0923
  209THF     C3 2707   2.510   2.705   3.440 -0.3342  0.2531 -0.1107
  209THF     H4 2708   2.524   2.933   3.664 -1.3716 -1.3007  0.7561
  209THF     H5 2709   2.641   2.925   3.534  0.0899  1.5034  1.9384
  209THF     H6 2710   2.444   2.629   3.398  1.2196 -1.6919  0.7481
  209THF     H7 2711   2.559   2.753   3.356 -0.1439  1.0960  0.4722
  209THF     C8 2712   2.617   2.641   3.533 -0.0207  0.2081 -0.0929
  209THF     C9 2713   2.632   2.748   3.637  0.4627 -0.5136  0.2159
  209THF    H10 2714   2.710   2.622   3.478 -0.2396 -0.0600 -0.3709
  209THF    H11 2715   2.588   2.550   3.584 -2.8103  0.6832 -0.6864
  209THF    H12 2716   2.581   2.715   3.728 -0.3219  2.1175  0.8369
  209THF    H13 2717   2.738   2.773   3.646  0.7514 -2.0050  1.4725
  210THF     O1 2718   2.956   4.263   2.476  0.4552 -0.0578  0.4122
  210THF     C2 2719   2.835   4.194   2.520 -0.4975  0.0629  0.0115
  210THF     C3 2720   3.056   4.239   2.571  0.9420  0.1892  0.0839
  210THF     H4 2721   2.824   4.101   2.464  2.2816 -0.0604 -0.5067
  210THF     H5 2722   2.751   4.262   2.514 -0.9914 -0.5687 -0.3636
  210THF     H6 2723   3.099   4.140   2.553  0.0625 -0.0134 -1.0689
  210THF     H7 2724   3.129   4.319   2.564 -1.7171  2.6582 -4.3533
  210THF     C8 2725   2.979   4.217   2.704 -0.4123  0.3679  0.4426
  210THF     C9 2726   2.848   4.146   2.667 -0.3782 -0.1545 -0.3037
  210THF    H10 2727   2.951   4.314   2.746 -2.2754 -0.0286  0.2324
  210THF    H11 2728   3.035   4.165   2.782 -0.8180 -1.2122 -0.2610
  210THF    H12 2729   2.853   4.039   2.648 -0.7084 -0.2840  0.3030
  210THF    H13 2730   2.758   4.174   2.722  1.1925  1.6712  1.5248
  211THF     O1 2731   4.248   4.481   4.088  0.4023  0.1660 -0.1451
  211THF     C2 2732   4.132   4.410   4.043 -0.0884  0.1973 -0.5170
  211THF     C3 2733   4.302   4.561   3.976  0.1481  0.5343 -0.4407
  211THF     H4 2734   4.045   4.451   4.094  1.1043 -1.7961  3.6552
  211THF     H5 2735   4.135   4.303   4.063 -1.8771 -0.6421 -4.0332
  211THF     H6 2736   4.344   4.655   4.011  1.3644  0.4187 -1.4988
  211THF     H7 2737   4.384   4.510   3.926  0.7561  0.3620  0.6923
  211THF     C8 2738   4.189   4.567   3.871 -0.0333  0.6295  0.1390
  211THF     C9 2739   4.103   4.444   3.897 -0.4086  0.0736 -0.5538
  211THF    H10 2740   4.210   4.579   3.764 -0.4384  0.4342  0.0351
  211THF    H11 2741   4.141   4.663   3.891 -0.8113  0.3906 -0.5090
  211THF    H12 2742   3.999   4.461   3.870 -0.0095  0.2420 -2.0586
  211THF    H13 2743   4.131   4.356   3.839 -0.1994  0.8226 -1.6131
  212THF     O1 2744   0.627   2.926   4.107 -0.2439 -0.2045 -0.0826
  212THF     C2 2745   0.601   3.060   4.149 -0.0257  0.8338  0.7989
  212THF     C3 2746   0.547   2.836   4.187  0.1810 -0.0412  0.2946
  212THF     H4 2747   0.509   3.090   4.099  0.9905  4.2290  0.7781
  212THF     H5 2748   0.672   3.131   4.109  1.5794 -1.2293 -0.2024
  212THF     H6 2749   0.459   2.806   4.130 -0.2292 -0.9215  1.3650
  212THF     H7 2750   0.602   2.744   4.207 -1.1630 -1.4918 -2.1729
  212THF     C8 2751   0.520   2.914   4.317  0.5705  0.0320 -0.5468
  212THF     C9 2752   0.578   3.048   4.301 -0.5140  0.7540  0.8052
  212THF    H10 2753   0.551   2.862   4.408 -1.7759 -0.8377 -0.1690
  212THF    H11 2754   0.413   2.923   4.336  0.2466  1.6675 -2.8618
  212THF    H12 2755   0.524   3.136   4.336  0.6652  2.0529 -0.4973
  212THF    H13 2756   0.677   3.050   4.349  1.1099 -1.8347 -2.0561
  213THF     O1 2757   2.322   1.762   5.307 -0.3878 -0.4478  0.3561
  213THF     C2 2758   2.325   1.643   5.227  0.1669 -0.3368 -0.0325
  213THF     C3 2759   2.190   1.804   5.310 -0.0144 -0.1740  0.2058
  213THF     H4 2760   2.273   1.567   5.285 -2.3405  0.2496 -1.3596
  213THF     H5 2761   2.426   1.607   5.210  0.3654  1.2223 -2.7115
  213THF     H6 2762   2.139   1.751   5.390  0.1839 -0.4160  0.1710
  213THF     H7 2763   2.195   1.911   5.331 -2.2762  0.3406 -1.5321
  213THF     C8 2764   2.129   1.775   5.174  0.1474 -0.1612 -0.3810
  213THF     C9 2765   2.231   1.683   5.105  0.6731  0.2870  0.2352
  213THF    H10 2766   2.107   1.862   5.112  2.4727  0.6443 -0.1794
  213THF    H11 2767   2.031   1.729   5.186 -0.4851  0.5817 -2.3609
  213THF    H12 2768   2.196   1.596   5.049 -0.3336  1.8432 -1.6717
  213THF    H13 2769   2.278   1.748   5.032  0.0727  1.6238  1.0079
  214THF     O1 2770   2.599   2.320   1.061  0.1083 -0.3070 -0.1421
  214THF     C2 2771   2.603   2.285   0.927  0.6792 -0.0509  0.3323
  214THF     C3 2772   2.504   2.236   1.125 -0.4960 -0.7808 -0.2248
  214THF     H4 2773   2.692   2.327   0.880 -0.7177  2.7909  0.0539
  214THF     H5 2774   2.517   2.334   0.881  0.9873 -0.7112 -0.9979
  214THF     H6 2775   2.512   2.240   1.234  0.3324 -1.4567 -0.2537
  214THF     H7 2776   2.404   2.268   1.096 -0.4491  1.3186  1.6290
  214THF     C8 2777   2.536   2.096   1.070 -0.2518 -0.3395  0.7229
  214THF     C9 2778   2.581   2.133   0.928 -0.2400 -0.0043 -0.6366
  214THF    H10 2779   2.460   2.018   1.075 -0.2560 -0.3497  0.5009
  214THF    H11 2780   2.619   2.055   1.128  0.3771 -0.7895 -0.4737
  214THF    H12 2781   2.672   2.079   0.902  0.3201  0.0336  1.0932
  214THF    H13 2782   2.508   2.096   0.857 -0.9119  0.3927 -0.1654
  215THF     O1 2783   4.461   1.447   4.435 -0.0078 -0.2532 -0.1377
  215THF     C2 2784   4.428   1.332   4.515  0.0283  0.2913 -0.0105
  215THF     C3 2785   4.483   1.405   4.309  0.1130  0.3913  0.6716
  215THF     H4 2786   4.336   1.282   4.482  0.1330  0.6185 -0.8105
  215THF     H5 2787   4.427   1.348   4.623  2.4622 -0.7083  0.2104
  215THF     H6 2788   4.385   1.400   4.261  0.1479  1.4561  0.4588
  215THF     H7 2789   4.540   1.479   4.252  1.5834 -0.8597  0.4404
  215THF     C8 2790   4.566   1.275   4.327 -0.2620 -0.2225 -0.2524
  215THF     C9 2791   4.549   1.240   4.476  0.4815 -0.8897  0.7630
  215THF    H10 2792   4.670   1.300   4.306  1.3228 -2.0673  4.1701
  215THF    H11 2793   4.527   1.185   4.280 -0.6287 -0.1125 -0.1609
  215THF    H12 2794   4.526   1.136   4.500 -1.3150 -0.2922  1.8098
  215THF    H13 2795   4.639   1.262   4.534  0.5607 -0.0148  0.3176
  216THF     O1 2796   1.625   1.074   5.249  0.7113  0.1721  0.3190
  216THF     C2 2797   1.552   0.962   5.195 -0.1016 -0.1434 -0.3220
  216THF     C3 2798   1.766   1.045   5.236 -0.0851  1.1046  0.4364
  216THF     H4 2799   1.557   0.946   5.087  0.0961  0.9357 -0.4767
  216THF     H5 2800   1.447   0.974   5.220  0.1972  1.3770  0.2650
  216THF     H6 2801   1.799   1.063   5.134  1.6020 -1.5377  0.4137
  216THF     H7 2802   1.817   1.112   5.304 -0.1986  0.8542  0.7751
  216THF     C8 2803   1.758   0.889   5.274  0.1357 -0.2760  0.3665
  216THF     C9 2804   1.614   0.848   5.271  0.0461 -0.2106  0.3797
  216THF    H10 2805   1.810   0.877   5.369 -0.6011 -0.0214  0.8144
  216THF    H11 2806   1.815   0.836   5.198 -0.1579  0.7494 -0.5964
  216THF    H12 2807   1.594   0.749   5.229  0.0865 -0.3657  0.7221
  216THF    H13 2808   1.583   0.847   5.375  3.0995 -0.9499  1.3916
  217THF     O1 2809   2.347   4.854   4.441  0.1810 -0.2448  0.1029
  217THF     C2 2810   2.245   4.931   4.508 -0.1006 -0.3544 -0.2608
  217THF     C3 2811   2.263   4.772   4.370  0.1116 -0.2048 -0.0393
  217THF     H4 2812   2.279   5.025   4.553  0.5903 -0.7936  0.1525
  217THF     H5 2813   2.222   4.877   4.600  1.2353 -0.7829 -0.1481
  217THF     H6 2814   2.324   4.720   4.296  2.6312  1.6670  0.5904
  217THF     H7 2815   2.222   4.699   4.440 -1.8787  0.3655 -0.5599
  217THF     C8 2816   2.150   4.853   4.319  0.5342  0.5499 -0.0177
  217THF     C9 2817   2.136   4.974   4.413 -0.2683  0.2521  0.5486
  217THF    H10 2818   2.057   4.796   4.314  0.9101 -0.0036 -1.1485
  217THF    H11 2819   2.171   4.887   4.217 -0.6985 -1.7303 -1.1220
  217THF    H12 2820   2.159   5.071   4.369  1.1196  0.5722  1.8795
  217THF    H13 2821   2.039   4.979   4.464  0.6179  1.8026  2.1577
  218THF     O1 2822   0.020   2.459   3.572  0.6016 -0.2200  0.3410
  218THF     C2 2823   0.026   2.482   3.716 -0.0395  0.9771  0.3594
  218THF     C3 2824  -0.046   2.336   3.552  0.4165 -0.2294 -0.5621
  218THF     H4 2825  -0.072   2.520   3.743  0.4378  2.0362  0.6832
  218THF     H5 2826   0.102   2.557   3.740 -2.2555  4.1374 -1.6916
  218THF     H6 2827  -0.155   2.344   3.551  0.4001  1.3748 -4.2551
  218THF     H7 2828  -0.021   2.309   3.450  0.9826  0.9333 -0.7499
  218THF     C8 2829  -0.008   2.246   3.675 -0.3049  0.0159 -0.4131
  218THF     C9 2830   0.058   2.345   3.774 -0.6718  0.7402 -0.1640
  218THF    H10 2831   0.055   2.163   3.645 -0.4958  0.1998 -1.3520
  218THF    H11 2832  -0.101   2.207   3.716 -0.8214  1.6772  0.1045
  218THF    H12 2833   0.014   2.329   3.872  0.6486 -0.9157  0.2062
  218THF    H13 2834   0.166   2.329   3.784 -0.6594  0.0994 -1.2474
  219THF     O1 2835   0.974   1.160   3.199 -0.1930  0.3966 -0.2278
  219THF     C2 2836   1.098   1.198   3.262  0.5075 -0.2108 -0.4369
  219THF     C3 2837   0.897   1.269   3.155 -0.1470  0.0879  0.5902
  219THF     H4 2838   1.176   1.207   3.186  1.7352  1.0248  0.9090
  219THF     H5 2839   1.135   1.126   3.335 -0.2984 -0.3934 -0.2071
  219THF     H6 2840   0.925   1.292   3.053 -0.0722  0.3209  0.6632
  219THF     H7 2841   0.792   1.239   3.154  0.0473 -0.6262  0.8561
  219THF     C8 2842   0.946   1.389   3.238 -0.8093 -0.1783  0.0454
  219THF     C9 2843   1.067   1.337   3.319 -0.5260  0.4906 -0.3339
  219THF    H10 2844   0.871   1.432   3.304 -0.4341  2.1021 -0.9208
  219THF    H11 2845   0.970   1.464   3.162  1.1089  0.1500  0.9156
  219THF    H12 2846   1.161   1.389   3.300 -0.4212 -0.0331 -1.3193
  219THF    H13 2847   1.062   1.344   3.428  1.0636 -2.4090  0.0418
  220THF     O1 2848   5.277   2.637   1.958 -0.0800 -0.3170 -1.0322
  220THF     C2 2849   5.386   2.566   2.006 -0.0443  0.6737  0.2231
  220THF     C3 2850   5.310   2.688   1.829  0.1797 -0.8091  1.0642
  220THF     H4 2851   5.350   2.498   2.083 -0.8924 -1.2369 -1.7463
  220THF     H5 2852   5.465   2.628   2.049  1.1907 -1.8180  1.7093
  220THF     H6 2853   5.216   2.676   1.775  0.1720  2.4371  0.1435
  220THF     H7 2854   5.351   2.788   1.840  1.2892 -1.3191  1.7708
  220THF     C8 2855   5.421   2.600   1.777  0.5695  0.5171  0.0232
  220THF     C9 2856   5.438   2.494   1.886  0.6112  0.0401 -0.0478
  220THF    H10 2857   5.505   2.665   1.754 -0.0621  2.5980  3.0140
  220THF    H11 2858   5.401   2.550   1.682 -3.1781  1.9479 -0.1233
  220THF    H12 2859   5.379   2.404   1.872 -0.9686  0.7703  1.4980
  220THF    H13 2860   5.544   2.468   1.896  0.2699 -1.2104  0.5001
  221THF     O1 2861   4.689   2.056   3.212 -0.2513  0.0023  0.5198
  221THF     C2 2862   4.585   1.983   3.147 -0.4282 -0.3986  1.1379
  221THF     C3 2863   4.802   2.047   3.124  0.0329 -0.2676  0.4665
  221THF     H4 2864   4.552   2.037   3.058  1.6060  2.3479  1.9360
  221THF     H5 2865   4.493   1.966   3.203 -2.6824  0.3426 -2.0577
  221THF     H6 2866   4.788   2.123   3.047 -0.9433 -0.5208  0.3874
  221THF     H7 2867   4.886   2.075   3.188 -0.5571  1.5998  0.5004
  221THF     C8 2868   4.792   1.900   3.089 -0.0072 -0.0342 -0.6137
  221THF     C9 2869   4.647   1.855   3.102 -0.0924 -0.0753  0.2635
  221THF    H10 2870   4.855   1.849   3.162 -0.6359  0.9071  0.6337
  221THF    H11 2871   4.830   1.875   2.990  0.2933 -1.8365 -0.0712
  221THF    H12 2872   4.610   1.817   3.007 -1.1668 -0.5863  0.8578
  221THF    H13 2873   4.648   1.778   3.179 -1.4771 -1.8256 -1.3584
  222THF     O1 2874   2.313   0.470   2.898 -0.1686 -0.1484  0.2084
  222THF     C2 2875   2.208   0.372   2.887  0.0484  0.5046 -0.6270
  222THF     C3 2876   2.267   0.599   2.854 -0.1709  0.0541 -0.3803
  222THF     H4 2877   2.209   0.313   2.979  0.0405  1.5165  0.0330
  222THF     H5 2878   2.217   0.309   2.799  0.5320  1.6608 -1.4219
  222THF     H6 2879   2.319   0.682   2.901 -1.1028  0.5959 -0.2908
  222THF     H7 2880   2.288   0.610   2.748  1.2534  0.8883 -0.0349
  222THF     C8 2881   2.120   0.596   2.878 -0.4701 -1.0358  0.0438
  222THF     C9 2882   2.074   0.448   2.890  0.0712 -0.3283  0.2287
  222THF    H10 2883   2.081   0.654   2.795  2.3647  0.4942 -0.3577
  222THF    H11 2884   2.104   0.648   2.972 -0.0813  0.9792 -0.9495
  222THF    H12 2885   2.034   0.442   2.991  0.1473 -3.3370  0.1788
  222THF    H13 2886   2.006   0.412   2.813  0.3422  0.0484 -0.1919
  223THF     O1 2887   0.620   2.143   2.276  0.0392 -0.3630 -0.0278
  223THF     C2 2888   0.684   2.209   2.161 -0.1827 -0.2850 -0.1635
  223THF     C3 2889   0.656   2.219   2.388  0.2935 -0.8350 -0.4533
  223THF     H4 2890   0.604   2.261   2.108 -2.2619 -1.2459  1.8584
  223THF     H5 2891   0.738   2.142   2.094 -0.8061 -1.4199  0.4426
  223THF     H6 2892   0.562   2.226   2.443  0.5097 -0.9450 -0.0676
  223THF     H7 2893   0.723   2.158   2.448  3.4664  1.5037 -1.3760
  223THF     C8 2894   0.706   2.358   2.336 -0.0500 -0.8922 -0.1619
  223THF     C9 2895   0.767   2.324   2.212 -0.2891  0.2827 -0.2712
  223THF    H10 2896   0.767   2.421   2.401 -1.3575 -1.0714  1.3111
  223THF    H11 2897   0.617   2.420   2.322 -0.3974 -1.2109  0.5284
  223THF    H12 2898   0.771   2.414   2.151  1.6913  0.6401  0.3023
  223THF    H13 2899   0.874   2.304   2.215 -0.2199  0.6338 -0.3096
  224THF     O1 2900   1.884   5.187   4.797  0.5508  0.2463  0.0740
  224THF     C2 2901   1.983   5.095   4.765  0.4719 -1.2622 -0.3907
  224THF     C3 2902   1.754   5.125   4.772  0.1297 -0.0547 -0.5881
  224THF     H4 2903   2.073   5.110   4.824  0.5909 -2.7317 -0.1531
  224THF     H5 2904   1.998   5.106   4.658 -1.9434 -1.8714 -0.8544
  224THF     H6 2905   1.706   5.138   4.869  1.1917  0.9945 -0.1706
  224THF     H7 2906   1.714   5.178   4.686  0.4041 -1.5356 -1.6520
  224THF     C8 2907   1.780   4.975   4.754 -0.4253 -0.1421 -0.2487
  224THF     C9 2908   1.930   4.959   4.784  0.2048 -0.2897 -0.0122
  224THF    H10 2909   1.773   4.948   4.649 -1.2680  1.7806 -0.7173
  224THF    H11 2910   1.712   4.908   4.807  0.3501 -0.4858  0.3481
  224THF    H12 2911   1.940   4.940   4.891 -1.8208  1.2283  0.5042
  224THF    H13 2912   1.975   4.870   4.739 -1.0232 -1.1487  0.3983
  225THF     O1 2913   4.020   1.752   4.714  0.3250  0.1849 -0.3769
  225THF     C2 2914   4.109   1.644   4.692 -0.1650  0.4342 -0.3982
  225THF     C3 2915   3.963   1.792   4.591 -1.0066  0.2690  0.1822
  225THF     H4 2916   4.062   1.551   4.662  2.1449 -0.2735 -2.0728
  225THF     H5 2917   4.167   1.619   4.781 -0.4972  0.2281 -0.2399
  225THF     H6 2918   3.879   1.730   4.561 -1.0177  0.6641 -0.6187
  225THF     H7 2919   3.933   1.896   4.580 -2.3923 -0.3177 -2.2809
  225THF     C8 2920   4.082   1.766   4.496 -0.5032 -0.3550 -0.1285
  225THF     C9 2921   4.191   1.700   4.577  0.0146  0.5420 -0.1042
  225THF    H10 2922   4.121   1.856   4.449 -0.4588 -0.4378 -0.2516
  225THF    H11 2923   4.033   1.705   4.419 -0.8722 -1.1343  0.7135
  225THF    H12 2924   4.239   1.619   4.522  0.6066  0.6321  0.2668
  225THF    H13 2925   4.266   1.768   4.617  0.9069 -0.2096 -0.4710
  226THF     O1 2926   4.893   3.684   2.591 -0.3497 -0.3750 -0.3341
  226THF     C2 2927   5.035   3.683   2.616  0.1658  0.7433 -0.0649
  226THF     C3 2928   4.863   3.547   2.553  0.8902 -0.2914 -0.5652
  226THF     H4 2929   5.057   3.662   2.721 -1.2977 -0.9888 -0.0524
  226THF     H5 2930   5.059   3.786   2.591 -0.3808  0.5718 -1.3309
  226THF     H6 2931   4.841   3.493   2.645  0.4802  0.8910  0.0479
  226THF     H7 2932   4.775   3.562   2.491  0.0053 -2.1927  0.1595
  226THF     C8 2933   4.983   3.499   2.478 -0.2157  0.2343 -0.6793
  226THF     C9 2934   5.106   3.578   2.535  1.0924 -0.5831 -0.0206
  226THF    H10 2935   4.963   3.512   2.371  1.7646  0.9891 -1.0039
  226THF    H11 2936   5.004   3.395   2.501  1.2463  0.8981  1.2161
  226THF    H12 2937   5.167   3.511   2.595  0.9461 -1.1791 -0.5280
  226THF    H13 2938   5.158   3.621   2.450 -2.1182  0.0912 -1.7803
  227THF     O1 2939   5.210   0.442   0.890 -0.3242  0.2425  0.0009
  227THF     C2 2940   5.338   0.422   0.841 -0.0714 -0.4059  0.8271
  227THF     C3 2941   5.138   0.331   0.831 -0.4853  0.4423 -0.2636
  227THF     H4 2942   5.405   0.460   0.918 -2.8451 -0.9798  3.7259
  227THF     H5 2943   5.347   0.477   0.747 -1.7097  0.2534  1.0236
  227THF     H6 2944   5.052   0.319   0.897 -0.6529  0.9028 -0.3943
  227THF     H7 2945   5.102   0.340   0.729 -0.1703 -3.0775 -0.8100
  227THF     C8 2946   5.231   0.205   0.848  0.7721  0.7490  0.1920
  227THF     C9 2947   5.361   0.275   0.823  0.9273 -0.0573  0.2313
  227THF    H10 2948   5.218   0.127   0.773 -0.2300  0.5242  0.5853
  227THF    H11 2949   5.221   0.162   0.947  1.3194  3.6456  1.5978
  227THF    H12 2950   5.427   0.246   0.905  0.2185  1.0345  1.2217
  227THF    H13 2951   5.406   0.241   0.730 -0.4260 -2.5915  0.3903
  228THF     O1 2952   4.996   0.770   3.615  0.0599  0.2163  0.0264
  228THF     C2 2953   4.861   0.734   3.619 -0.2479 -0.4090  0.1096
  228THF     C3 2954   5.013   0.913   3.628 -0.0358 -0.4135  0.0455
  228THF     H4 2955   4.861   0.632   3.658  0.0643  0.0431  1.3338
  228THF     H5 2956   4.812   0.732   3.521  2.9629  1.3806 -1.7209
  228THF     H6 2957   5.074   0.919   3.718  0.8104  0.6212 -0.5643
  228THF     H7 2958   5.064   0.964   3.546 -0.5146  2.2891  1.3152
  228THF     C8 2959   4.875   0.971   3.662  0.4198  0.2306  0.6612
  228THF     C9 2960   4.800   0.847   3.702  0.4772  0.2064 -0.0756
  228THF    H10 2961   4.832   1.008   3.569  0.4679 -1.9607 -0.3085
  228THF    H11 2962   4.885   1.058   3.727  0.4343  0.2246  0.6667
  228THF    H12 2963   4.830   0.828   3.805 -1.7008  3.1020  1.2257
  228THF    H13 2964   4.692   0.855   3.688  0.0434 -0.7019  2.2248
  229THF     O1 2965   1.353   3.988   3.082  0.2574 -0.1008 -0.5548
  229THF     C2 2966   1.250   4.062   3.146 -0.0413 -0.2997  0.1542
  229THF     C3 2967   1.299   3.928   2.960 -0.3323  0.4692 -0.1356
  229THF     H4 2968   1.250   4.163   3.104 -0.1964 -0.4059 -0.1018
  229THF     H5 2969   1.264   4.073   3.254 -2.9789 -0.5093  0.6390
  229THF     H6 2970   1.333   3.988   2.875 -0.4943  0.3398 -0.2919
  229THF     H7 2971   1.340   3.829   2.942 -0.8404 -0.2971  2.5061
  229THF     C8 2972   1.146   3.929   2.977 -0.1590 -0.1079  0.4577
  229THF     C9 2973   1.134   3.972   3.123  0.1237 -0.1543  0.3906
  229THF    H10 2974   1.102   3.832   2.954 -0.2005 -0.3253  1.4198
  229THF    H11 2975   1.091   4.000   2.915 -2.2500 -0.4066  1.8682
  229THF    H12 2976   1.033   4.010   3.130 -0.0348 -0.4070 -0.4257
  229THF    H13 2977   1.145   3.884   3.187  1.2245 -0.5547 -0.3065
  230THF     O1 2978   1.786   0.233   0.554 -0.0445  0.2462 -0.5247
  230THF     C2 2979   1.683   0.170   0.634 -0.1995  0.0807 -0.1294
  230THF     C3 2980   1.798   0.159   0.429  0.4572 -0.5831 -0.4235
  230THF     H4 2981   1.581   0.208   0.624 -0.3826 -0.5781 -0.8931
  230THF     H5 2982   1.706   0.165   0.740 -0.8370  1.1448  0.0764
  230THF     H6 2983   1.792   0.222   0.340  3.3139  0.2911 -0.1098
  230THF     H7 2984   1.893   0.106   0.436  1.6216  1.2611 -1.2712
  230THF     C8 2985   1.686   0.053   0.435  0.1250 -0.3404  0.3277
  230THF     C9 2986   1.666   0.029   0.580  0.8740 -0.1242 -0.0226
  230THF    H10 2987   1.702  -0.031   0.368  1.4508 -1.4059  1.9185
  230THF    H11 2988   1.597   0.101   0.394  1.5824  2.1296 -0.2122
  230THF    H12 2989   1.567  -0.017   0.591 -0.4290  2.0470 -1.7360
  230THF    H13 2990   1.727  -0.046   0.632 -1.5879 -1.9299  0.4731
  231THF     O1 2991   0.014   3.270   2.868  0.1813  0.2167 -0.3711
  231THF     C2 2992  -0.086   3.356   2.929 -0.0516 -0.1696 -0.5482
  231THF     C3 2993  -0.050   3.179   2.785  0.2715  0.4583 -0.1740
  231THF     H4 2994  -0.106   3.442   2.866  0.6498  0.2017 -0.2646
  231THF     H5 2995  -0.070   3.387   3.032 -1.3326 -2.1312  0.3105
  231THF     H6 2996  -0.017   3.165   2.682 -1.0568  1.3349 -0.7340
  231THF     H7 2997  -0.024   3.089   2.841  1.1647  0.9196  0.1919
  231THF     C8 2998  -0.198   3.221   2.771  0.5227 -0.3084  0.0072
  231THF     C9 2999  -0.210   3.274   2.911  0.3791 -0.2257 -0.4408
  231THF    H10 3000  -0.259   3.131   2.760  0.3847 -0.2496  0.2893
  231THF    H11 3001  -0.216   3.300   2.699  0.0737  0.8078  1.3129
  231THF    H12 3002  -0.288   3.349   2.922 -0.8500 -1.4257 -0.7986
  231THF    H13 3003  -0.231   3.187   2.974 -0.8901  0.6747  0.4228
  232THF     O1 3004   0.201   4.513   4.413 -0.2289  0.4523 -0.4302
  232THF     C2 3005   0.282   4.397   4.388 -0.4442  0.4746  0.3297
  232THF     C3 3006   0.216   4.538   4.553  0.3490  0.0942 -0.4578
  232THF     H4 3007   0.383   4.436   4.403 -0.9099  0.9442  2.7864
  232THF     H5 3008   0.259   4.363   4.287 -1.5926 -2.2348  1.3971
  232THF     H6 3009   0.307   4.592   4.581 -0.7235  1.8778 -0.2699
  232THF     H7 3010   0.134   4.608   4.569 -0.3875 -0.5025 -1.4614
  232THF     C8 3011   0.201   4.396   4.609 -0.9973  0.6392  0.0756
  232THF     C9 3012   0.234   4.304   4.491  0.2097  0.2496 -1.0728
  232THF    H10 3013   0.100   4.380   4.646 -0.8161  1.3325  0.8793
  232THF    H11 3014   0.280   4.394   4.683 -1.0959  0.2249  0.1742
  232THF    H12 3015   0.323   4.246   4.515  1.3991  1.3532 -2.6433
  232THF    H13 3016   0.141   4.258   4.459 -0.6368  1.1056  0.0621
  233THF     O1 3017   5.207   3.876   5.373 -0.4017 -0.4009  0.2310
  233THF     C2 3018   5.145   4.002   5.343 -0.3424  0.5550  0.4765
  233THF     C3 3019   5.125   3.782   5.316 -0.2520 -0.2764 -0.2268
  233THF     H4 3020   5.210   4.089   5.347  1.3568 -0.6878  1.1131
  233THF     H5 3021   5.067   4.027   5.414  0.1365  1.1769  0.7974
  233THF     H6 3022   5.181   3.689   5.305 -0.4334 -0.7431  2.2930
  233THF     H7 3023   5.038   3.770   5.381 -0.9373  3.7544 -0.1165
  233THF     C8 3024   5.091   3.834   5.176  0.3834  0.4757  0.1036
  233THF     C9 3025   5.075   3.984   5.206  0.1240 -0.0918  1.1027
  233THF    H10 3026   5.008   3.782   5.128  1.8813  0.1574 -2.3309
  233THF    H11 3027   5.180   3.816   5.116 -1.0981 -0.4664 -1.9573
  233THF    H12 3028   5.115   4.046   5.125  4.1226 -3.3151  0.2682
  233THF    H13 3029   4.972   4.015   5.223 -0.3436 -1.0633  0.2009
  234THF     O1 3030   3.009   0.126   1.080 -0.4520  1.1797 -0.2797
  234THF     C2 3031   2.957   0.233   1.154  0.2411 -0.3259 -0.1207
  234THF     C3 3032   2.919   0.015   1.114 -0.1088  0.1471 -0.7676
  234THF     H4 3033   3.013   0.325   1.133 -1.8100  0.7138 -1.3270
  234THF     H5 3034   2.976   0.206   1.257 -1.6157 -0.9285  0.0806
  234THF     H6 3035   2.914  -0.065   1.041  0.4189 -1.6558  1.0909
  234THF     H7 3036   2.942  -0.038   1.207 -0.5511 -0.7934 -1.1864
  234THF     C8 3037   2.779   0.081   1.138  0.4087 -0.3433 -0.7318
  234THF     C9 3038   2.808   0.234   1.140  0.2110 -0.3405  0.4204
  234THF    H10 3039   2.731   0.048   1.230  1.7621 -1.2977 -0.3505
  234THF    H11 3040   2.712   0.072   1.052 -1.3119  0.9601  0.3994
  234THF    H12 3041   2.785   0.289   1.048  0.9887  2.3031  1.7248
  234THF    H13 3042   2.747   0.282   1.217 -1.1837 -1.0202 -0.2146
  235THF     O1 3043   1.429   1.138   0.528  0.8451  0.2057  0.1826
  235THF     C2 3044   1.316   1.216   0.471  0.5312 -0.0823 -0.0046
  235THF     C3 3045   1.356   1.036   0.598 -0.4951 -0.5779 -0.5208
  235THF     H4 3046   1.262   1.169   0.389 -2.1704  0.1259  1.5201
  235THF     H5 3047   1.348   1.311   0.429 -1.1147  1.2006  1.4825
  235THF     H6 3048   1.311   0.964   0.530 -1.7383  0.1871 -0.5482
  235THF     H7 3049   1.414   0.975   0.667 -2.1795 -3.4171 -1.4730
  235THF     C8 3050   1.240   1.113   0.666  0.5352  0.0463  0.2556
  235THF     C9 3051   1.209   1.236   0.580  0.1712  0.0265 -0.1428
  235THF    H10 3052   1.286   1.146   0.759  0.0565  0.1371  0.4604
  235THF    H11 3053   1.152   1.052   0.686  0.6525 -0.1385  0.2092
  235THF    H12 3054   1.107   1.240   0.541  0.9807  1.5114 -2.2880
  235THF    H13 3055   1.227   1.327   0.636  1.9756 -0.2264 -0.2413
  236THF     O1 3056   0.720   1.083   0.880  0.4155  0.2910  0.1809
  236THF     C2 3057   0.788   1.039   0.765  0.3077  0.1198  0.3133
  236THF     C3 3058   0.796   1.033   0.991  0.5035 -0.2941 -0.6858
  236THF     H4 3059   0.867   1.109   0.737 -1.0257  0.8883 -1.8252
  236THF     H5 3060   0.727   1.035   0.675  0.4202 -1.4232  0.2801
  236THF     H6 3061   0.880   1.101   1.003 -0.8675  1.2006  1.1025
  236THF     H7 3062   0.738   1.042   1.083  0.7616 -0.3808 -0.5117
  236THF     C8 3063   0.839   0.895   0.947 -0.7240  0.2510  0.3623
  236THF     C9 3064   0.855   0.910   0.798  0.7989  0.2911 -0.1126
  236THF    H10 3065   0.764   0.823   0.978  2.2830 -2.9786  0.8410
  236THF    H11 3066   0.940   0.883   0.988 -0.9228  1.8417  1.3884
  236THF    H12 3067   0.961   0.900   0.774  0.8653  0.3928  0.1328
  236THF    H13 3068   0.808   0.832   0.739  1.1768 -0.7114  0.8776
  237THF     O1 3069   1.413   4.879   2.158  0.2974  0.2843  0.0797
  237THF     C2 3070   1.280   4.848   2.122  0.0455 -0.9644 -0.0382
  237THF     C3 3071   1.476   4.763   2.209 -0.3717 -0.0441 -0.1626
  237THF     H4 3072   1.259   4.790   2.032 -2.1413  1.6717 -1.3808
  237THF     H5 3073   1.223   4.941   2.127  2.7189  0.8056 -0.5252
  237THF     H6 3074   1.502   4.707   2.120 -0.7483 -1.4646  0.5875
  237THF     H7 3075   1.569   4.778   2.264 -2.1818  2.5563  2.5178
  237THF     C8 3076   1.360   4.697   2.285 -0.0299 -0.5364  0.5448
  237THF     C9 3077   1.231   4.751   2.224 -0.2776 -0.8295 -0.2093
  237THF    H10 3078   1.369   4.717   2.392  0.8565 -0.2980  0.4299
  237THF    H11 3079   1.369   4.589   2.281 -1.9154 -0.7238  0.5882
  237THF    H12 3080   1.162   4.676   2.184  0.0928 -2.0352  1.3269
  237THF    H13 3081   1.174   4.806   2.299  0.0071  2.0656 -1.9461
  238THF     O1 3082   1.337   1.363   5.132  0.0190  0.2359  0.2154
  238THF     C2 3083   1.321   1.504   5.109 -0.2294  0.0925 -0.0141
  238THF     C3 3084   1.326   1.287   5.012 -0.7401 -1.1139  0.0703
  238THF     H4 3085   1.409   1.555   5.148  1.0864 -1.4858 -0.8291
  238THF     H5 3086   1.232   1.543   5.159  0.9101  2.3026  0.4108
  238THF     H6 3087   1.390   1.201   5.027  0.7413 -0.1188 -0.2746
  238THF     H7 3088   1.222   1.266   4.985 -0.8200 -1.9285  0.9821
  238THF     C8 3089   1.391   1.382   4.910 -0.2017  0.4419 -0.6457
  238THF     C9 3090   1.326   1.512   4.958  0.1302 -0.1979  0.3397
  238THF    H10 3091   1.376   1.369   4.803  1.1319  0.2503 -0.8167
  238THF    H11 3092   1.497   1.395   4.928 -0.0770  0.9875 -1.6723
  238THF    H12 3093   1.377   1.598   4.915 -1.4556 -0.0416 -1.3873
  238THF    H13 3094   1.227   1.513   4.913  0.6568  1.1809 -0.8685
  239THF     O1 3095   3.162   1.728   4.500 -0.3860  0.0948  0.2661
  239THF     C2 3096   3.154   1.638   4.387 -0.5851 -0.1770 -0.0755
  239THF     C3 3097   3.030   1.737   4.565 -0.5747 -0.3750  0.1572
  239THF     H4 3098   3.246   1.583   4.371 -0.3793  0.5972 -1.7935
  239THF     H5 3099   3.134   1.696   4.297 -1.5421 -2.4792 -1.4565
  239THF     H6 3100   3.023   1.708   4.670 -4.2117  1.3559  0.5442
  239THF     H7 3101   2.984   1.835   4.551 -1.1858 -0.6440  0.2581
  239THF     C8 3102   2.935   1.630   4.497 -0.3882  0.1375 -0.2702
  239THF     C9 3103   3.035   1.543   4.424  0.3900  0.1429  0.4646
  239THF    H10 3104   2.861   1.659   4.423  0.2597  0.1649 -0.9299
  239THF    H11 3105   2.874   1.580   4.572 -1.4594  0.8662 -0.6431
  239THF    H12 3106   3.079   1.462   4.481  2.1628  0.6754 -0.0775
  239THF    H13 3107   2.990   1.502   4.334  1.6678  2.8500 -1.5407
  240THF     O1 3108   3.847   0.742   0.483 -0.1568  0.3403 -0.1736
  240THF     C2 3109   3.795   0.820   0.374  0.3355  0.1814  0.0105
  240THF     C3 3110   3.766   0.776   0.585  0.0323 -0.0967 -0.0815
  240THF     H4 3111   3.704   0.776   0.334  0.2430 -0.2925  0.7380
  240THF     H5 3112   3.865   0.818   0.290  0.1874 -0.6653 -0.1022
  240THF     H6 3113   3.667   0.733   0.571 -0.1558  1.0354 -2.8551
  240THF     H7 3114   3.816   0.749   0.678  0.3103  1.0747  0.1245
  240THF     C8 3115   3.779   0.923   0.588  0.1959 -0.2226  0.3806
  240THF     C9 3116   3.771   0.960   0.442 -0.0661 -0.3117 -0.7089
  240THF    H10 3117   3.871   0.969   0.624  0.8652 -1.1075 -0.1352
  240THF    H11 3118   3.699   0.971   0.644 -0.3487 -2.5716  1.7624
  240THF    H12 3119   3.680   1.019   0.433  0.1999  0.2847  0.3913
  240THF    H13 3120   3.854   1.020   0.404 -0.5485  0.4828 -0.5481
  241THF     O1 3121   0.221   4.412   1.567  0.2753  0.1361  0.6788
  241THF     C2 3122   0.219   4.288   1.495  0.0592  0.5448 -0.2818
  241THF     C3 3123   0.166   4.513   1.482  0.2751 -0.8842  0.0514
  241THF     H4 3124   0.191   4.213   1.569  1.7494  1.2042  1.1036
  241THF     H5 3125   0.316   4.267   1.451  0.5165  1.9156  0.0153
  241THF     H6 3126   0.065   4.538   1.513  1.4725  1.5905  2.3060
  241THF     H7 3127   0.216   4.610   1.481 -1.3354 -0.0232 -0.8857
  241THF     C8 3128   0.168   4.451   1.341 -0.3388 -0.2373 -0.1878
  241THF     C9 3129   0.128   4.309   1.371 -0.9380 -0.1590 -0.2668
  241THF    H10 3130   0.264   4.447   1.289 -1.8256 -0.8704 -3.0631
  241THF    H11 3131   0.097   4.492   1.269 -0.7613  0.8426  0.8067
  241THF    H12 3132   0.025   4.290   1.401 -0.9272  1.2376  0.7425
  241THF    H13 3133   0.146   4.243   1.287 -0.7568 -1.1023  0.4905
  242THF     O1 3134   0.672   4.118   5.459  0.0928  0.1412  0.0726
  242THF     C2 3135   0.630   4.260   5.448 -0.7832  0.5495  0.0926
  242THF     C3 3136   0.798   4.118   5.526 -0.4179 -0.6742  0.3998
  242THF     H4 3137   0.558   4.272   5.529 -0.7076  1.1527  0.0791
  242THF     H5 3138   0.580   4.276   5.353 -0.5966 -1.0468 -0.3033
  242THF     H6 3139   0.803   4.127   5.635 -1.3777 -1.5820  0.5298
  242THF     H7 3140   0.858   4.036   5.488 -2.4692 -1.4659 -1.2810
  242THF     C8 3141   0.867   4.249   5.480  0.2057 -0.5384  0.5146
  242THF     C9 3142   0.754   4.342   5.471 -0.4942  0.2411 -0.2522
  242THF    H10 3143   0.902   4.241   5.377 -1.1811 -0.7721  0.0316
  242THF    H11 3144   0.942   4.291   5.546 -0.5167  1.2126  0.2811
  242THF    H12 3145   0.753   4.391   5.568  2.4286 -0.4657  0.2249
  242THF    H13 3146   0.779   4.416   5.395  2.3578 -0.5737 -0.2229
  243THF     O1 3147   3.541   0.822   3.012  0.3433 -0.0753  0.1078
  243THF     C2 3148   3.661   0.787   2.936 -0.2314 -0.1097  0.7008
  243THF     C3 3149   3.547   0.956   3.062  0.1436  0.4554  0.7788
  243THF     H4 3150   3.652   0.835   2.838 -1.3574 -0.3019  0.6943
  243THF     H5 3151   3.689   0.682   2.923  1.5532  0.4432 -0.2029
  243THF     H6 3152   3.496   1.022   2.992 -0.0584 -2.5088 -2.0546
  243THF     H7 3153   3.485   0.960   3.151 -0.1125 -0.5044  0.6530
  243THF     C8 3154   3.700   0.983   3.074  0.0593 -0.9701 -0.1235
  243THF     C9 3155   3.767   0.856   3.022  0.6622  0.3332  0.3324
  243THF    H10 3156   3.733   1.008   3.175 -0.3931  2.5237 -0.6919
  243THF    H11 3157   3.724   1.072   3.015 -0.5273 -0.7176  0.0065
  243THF    H12 3158   3.853   0.885   2.961 -0.6472 -2.2311 -3.0479
  243THF    H13 3159   3.806   0.798   3.105  1.5395  2.6123  1.6006
  244THF     O1 3160   4.244   4.735   4.263  0.1728  0.4575  0.1200
  244THF     C2 3161   4.310   4.864   4.262  0.5612  0.0299 -0.7726
  244THF     C3 3162   4.118   4.758   4.216 -0.2890 -0.3647  0.2542
  244THF     H4 3163   4.337   4.900   4.163 -0.6849  0.5423 -0.9448
  244THF     H5 3164   4.402   4.862   4.319 -0.0207  1.0130  0.2429
  244THF     H6 3165   4.127   4.761   4.107 -0.0053 -0.8381  0.2638
  244THF     H7 3166   4.050   4.676   4.237  1.1715 -1.6305  0.2198
  244THF     C8 3167   4.073   4.882   4.295 -0.0109  0.4557  0.1270
  244THF     C9 3168   4.206   4.951   4.319 -0.0453  0.3183  0.0010
  244THF    H10 3169   4.023   4.858   4.389  0.0578  1.1133  0.3367
  244THF    H11 3170   4.000   4.944   4.244  1.3448  1.0055 -1.2285
  244THF    H12 3171   4.205   5.045   4.264 -1.1040  0.5145  0.3378
  244THF    H13 3172   4.219   4.965   4.426  0.4249 -0.1472  0.0065
  245THF     O1 3173   0.055   2.753   3.472 -0.1075  0.3395 -0.4468
  245THF     C2 3174  -0.003   2.703   3.342 -0.3189 -0.3874  0.4316
  245THF     C3 3175  -0.044   2.828   3.542  0.0286  0.0612  0.1183
  245THF     H4 3176   0.001   2.595   3.353 -1.0007 -0.5966 -0.9833
  245THF     H5 3177   0.048   2.741   3.253  0.0435 -0.1084  0.7522
  245THF     H6 3178  -0.011   2.824   3.646  1.0369 -1.4976 -0.2250
  245THF     H7 3179  -0.038   2.934   3.514  0.5095 -0.0317 -0.1594
  245THF     C8 3180  -0.176   2.758   3.502 -0.1588 -0.8670  0.3694
  245THF     C9 3181  -0.155   2.743   3.353 -0.1812 -0.0403 -0.1837
  245THF    H10 3182  -0.266   2.814   3.527  1.4432  2.4988 -0.8392
  245THF    H11 3183  -0.187   2.663   3.556  3.5898 -1.3296  0.5755
  245THF    H12 3184  -0.215   2.675   3.293 -0.1211  1.9637 -2.6710
  245THF    H13 3185  -0.158   2.838   3.301 -3.0311 -1.3802 -2.7571
  246THF     O1 3186   4.740   0.329   2.962 -0.7030 -0.2280 -0.3739
  246THF     C2 3187   4.767   0.236   3.070 -0.2316  0.6996  0.0029
  246THF     C3 3188   4.599   0.339   2.939 -0.5437  0.4180  0.6435
  246THF     H4 3189   4.792   0.292   3.160  0.4134 -0.2417  0.4203
  246THF     H5 3190   4.851   0.174   3.039 -1.0735 -1.4372  1.7463
  246THF     H6 3191   4.557   0.418   3.001  0.8299  0.3652  1.6895
  246THF     H7 3192   4.576   0.370   2.837 -2.3031 -0.4207  0.7530
  246THF     C8 3193   4.543   0.205   2.978 -0.3469 -0.5789 -0.1847
  246THF     C9 3194   4.631   0.153   3.086 -0.5679 -0.5346 -0.2759
  246THF    H10 3195   4.549   0.130   2.900 -0.8531 -0.0946 -0.7038
  246THF    H11 3196   4.437   0.210   3.006 -0.0546 -3.5647  1.8855
  246THF    H12 3197   4.596   0.176   3.186  0.8205 -1.1413  0.3792
  246THF    H13 3198   4.649   0.046   3.075 -0.4404 -0.7932  2.0128
  247THF     O1 3199   4.721   3.403   1.893 -0.9478  1.0086  0.1891
  247THF     C2 3200   4.848   3.364   1.946 -0.0894  0.0203  0.9875
  247THF     C3 3201   4.737   3.447   1.754 -0.7358  0.4466 -0.4556
  247THF     H4 3202   4.850   3.282   2.017  2.4139  0.1726  1.2113
  247THF     H5 3203   4.895   3.448   1.996  2.9969 -0.8927 -0.1284
  247THF     H6 3204   4.661   3.405   1.689 -0.5763 -0.4233 -0.0894
  247THF     H7 3205   4.737   3.556   1.759  2.4298  0.5291 -0.1337
  247THF     C8 3206   4.872   3.399   1.710 -0.6669 -0.2975  0.1549
  247THF     C9 3207   4.932   3.327   1.825  0.2001 -0.3116 -0.8776
  247THF    H10 3208   4.925   3.494   1.696 -2.0533  0.4236 -0.4008
  247THF    H11 3209   4.885   3.340   1.619  0.9073 -1.0931  0.8663
  247THF    H12 3210   4.903   3.223   1.807 -0.2423 -1.0950  3.3353
  247THF    H13 3211   5.041   3.334   1.833 -0.0154  2.1656  1.2651
  248THF     O1 3212   2.842   4.537   0.514  0.2765  0.2863  0.4852
  248THF     C2 3213   2.897   4.453   0.415  0.3345 -0.0531 -0.2733
  248THF     C3 3214   2.824   4.452   0.631  0.0830 -0.5415  0.2147
  248THF     H4 3215   3.005   4.436   0.421  0.1243 -1.3119  0.3915
  248THF     H5 3216   2.886   4.509   0.322  2.5651  2.3457  0.8099
  248THF     H6 3217   2.912   4.456   0.695 -0.2655 -0.6220  0.7061
  248THF     H7 3218   2.734   4.496   0.674 -0.5189  0.0898 -1.6175
  248THF     C8 3219   2.811   4.311   0.580  0.1803  0.1482  0.5755
  248THF     C9 3220   2.820   4.322   0.427  0.2097 -0.1390 -0.3842
  248THF    H10 3221   2.721   4.262   0.617  1.3876 -0.9761  2.1554
  248THF    H11 3222   2.893   4.250   0.615  2.1718  2.3689  0.0795
  248THF    H12 3223   2.864   4.234   0.380  1.0039  0.0848 -0.0892
  248THF    H13 3224   2.723   4.332   0.378  0.4285  2.6135 -0.4197
  249THF     O1 3225   2.708   2.380   3.821 -0.0337  0.0820  0.3624
  249THF     C2 3226   2.684   2.243   3.786 -1.3886  0.1152 -0.2124
  249THF     C3 3227   2.819   2.432   3.751 -0.3706  0.3447  0.4684
  249THF     H4 3228   2.628   2.238   3.693  1.5896  0.0250 -2.1612
  249THF     H5 3229   2.628   2.212   3.874 -1.2506  1.5883  0.4247
  249THF     H6 3230   2.796   2.455   3.647  0.8799 -4.0239 -1.0225
  249THF     H7 3231   2.857   2.510   3.817 -0.7247 -0.9560  2.2946
  249THF     C8 3232   2.910   2.311   3.745  0.0561  0.4132 -0.1399
  249THF     C9 3233   2.827   2.187   3.766  0.3214 -1.0240  0.0056
  249THF    H10 3234   2.979   2.316   3.829 -1.2661 -2.0110  1.2102
  249THF    H11 3235   2.975   2.304   3.657 -0.5889 -0.3719 -0.5759
  249THF    H12 3236   2.821   2.145   3.665  1.2765 -0.4214 -0.3155
  249THF    H13 3237   2.865   2.122   3.844 -1.6104 -1.0083  1.0028
  250THF     O1 3238   1.033   0.611   1.756  0.1519  0.1134 -0.2220
  250THF     C2 3239   1.149   0.689   1.759  0.8437 -0.4079 -0.3973
  250THF     C3 3240   1.023   0.552   1.888 -0.0730  0.0821  0.2661
  250THF     H4 3241   1.117   0.774   1.819  2.0645 -0.0292 -0.2601
  250THF     H5 3242   1.180   0.729   1.663 -0.2328 -1.7310 -1.3466
  250THF     H6 3243   0.976   0.624   1.955 -0.8013 -1.0669  1.0403
  250THF     H7 3244   0.968   0.458   1.890 -0.8064  0.5133  0.9366
  250THF     C8 3245   1.179   0.522   1.928  0.3149  0.0161  0.3219
  250THF     C9 3246   1.257   0.598   1.829  0.3598 -0.1077 -0.0677
  250THF    H10 3247   1.201   0.416   1.915  2.7899  0.5407 -0.1477
  250THF    H11 3248   1.204   0.551   2.030 -1.0146  0.4000  0.5585
  250THF    H12 3249   1.345   0.648   1.868  1.5744 -1.5671 -0.8112
  250THF    H13 3250   1.298   0.536   1.749 -0.5228  0.1960 -0.7866
  251THF     O1 3251   2.631   3.394   4.193  0.2218 -0.7098 -0.5050
  251THF     C2 3252   2.531   3.460   4.265  0.2407  0.2246 -0.2930
  251THF     C3 3253   2.756   3.421   4.250  0.1375  0.5779 -0.0505
  251THF     H4 3254   2.503   3.402   4.353 -0.6023  1.7788  0.4971
  251THF     H5 3255   2.445   3.474   4.199 -0.4964 -0.2580  0.5357
  251THF     H6 3256   2.789   3.343   4.319 -0.1352 -0.6339 -1.2519
  251THF     H7 3257   2.833   3.433   4.174 -0.1482  2.1903 -0.1180
  251THF     C8 3258   2.744   3.553   4.310  0.2000 -0.2246  0.0329
  251THF     C9 3259   2.599   3.590   4.297 -0.2872 -0.1270 -0.3431
  251THF    H10 3260   2.809   3.624   4.260 -0.0547 -1.2195 -1.8096
  251THF    H11 3261   2.777   3.543   4.413 -2.3452 -1.7235  0.8092
  251THF    H12 3262   2.556   3.629   4.390  1.6486 -1.2445  1.0807
  251THF    H13 3263   2.582   3.670   4.225 -1.3362  0.4395  0.4861
  252THF     O1 3264   0.652   1.616   3.870 -0.2180  0.2602  0.7723
  252THF     C2 3265   0.548   1.567   3.957  0.0120 -0.5604 -0.2849
  252THF     C3 3266   0.607   1.648   3.738 -0.3538  0.5020  0.1268
  252THF     H4 3267   0.560   1.635   4.041 -0.3534  1.2840 -1.6612
  252THF     H5 3268   0.557   1.463   3.991 -1.5503 -0.5204  0.3752
  252THF     H6 3269   0.670   1.725   3.692 -2.0876  2.3672  0.7261
  252THF     H7 3270   0.612   1.560   3.673  3.9624  0.5826  0.0080
  252THF     C8 3271   0.462   1.699   3.764  0.5215  0.0127  0.4343
  252THF     C9 3272   0.420   1.609   3.876 -0.0483 -0.3809  0.0293
  252THF    H10 3273   0.391   1.682   3.682  1.4064 -0.8586 -0.1672
  252THF    H11 3274   0.455   1.804   3.791  0.8054  0.0383  0.4134
  252THF    H12 3275   0.350   1.663   3.940  0.9244  3.1746 -1.6735
  252THF    H13 3276   0.376   1.519   3.832  0.3419 -0.5602  0.0024
  253THF     O1 3277   4.171   0.924   0.936  0.1214 -0.8897 -0.5874
  253THF     C2 3278   4.055   1.005   0.948  0.0658 -0.4906  0.5431
  253THF     C3 3279   4.164   0.833   1.043 -0.4975 -0.5463  0.0807
  253THF     H4 3280   4.030   1.053   0.853  1.5331 -0.3852  0.1744
  253THF     H5 3281   4.080   1.084   1.019 -0.5618 -0.7374  1.0463
  253THF     H6 3282   4.229   0.746   1.028 -1.6960 -1.2215 -1.4840
  253THF     H7 3283   4.193   0.883   1.135 -1.6168 -0.4494  0.3867
  253THF     C8 3284   4.021   0.794   1.040 -0.0197 -0.1305  0.4387
  253THF     C9 3285   3.943   0.918   0.999 -0.2242 -0.1147 -0.6850
  253THF    H10 3286   3.984   0.758   1.136  0.5870  2.7679  1.8754
  253THF    H11 3287   4.013   0.716   0.964 -2.0682 -0.2150  0.6939
  253THF    H12 3288   3.872   0.896   0.919  0.6196 -1.7798 -1.0322
  253THF    H13 3289   3.891   0.957   1.087 -0.3981  2.0368 -1.6640
  254THF     O1 3290   0.506   4.413   2.298  0.4678 -0.1816 -0.3826
  254THF     C2 3291   0.591   4.456   2.190 -0.2611 -0.1325 -0.2915
  254THF     C3 3292   0.534   4.473   2.423 -0.6982  0.4345 -0.3241
  254THF     H4 3293   0.544   4.470   2.093 -1.0045 -0.2981  0.0371
  254THF     H5 3294   0.660   4.374   2.171  1.6305  1.8968 -2.9732
  254THF     H6 3295   0.455   4.492   2.495  0.5427  0.5622  1.0546
  254THF     H7 3296   0.596   4.405   2.482  0.0082  1.6140  0.3260
  254THF     C8 3297   0.618   4.600   2.377  0.6505 -0.3856  0.4916
  254THF     C9 3298   0.668   4.576   2.238 -0.2515 -0.2516  0.0910
  254THF    H10 3299   0.693   4.643   2.443  1.7606 -1.4433 -0.0402
  254THF    H11 3300   0.546   4.682   2.369  1.7796  0.6437  0.6084
  254THF    H12 3301   0.639   4.657   2.171  1.5633 -0.0886 -0.5620
  254THF    H13 3302   0.776   4.557   2.240  0.4328  3.0117  2.3734
  255THF     O1 3303   1.798   3.805   0.965 -0.0281 -0.1101  0.6946
  255THF     C2 3304   1.803   3.899   0.851 -0.6520  0.3000 -0.0932
  255THF     C3 3305   1.904   3.712   0.957  0.5973  0.6660 -0.7239
  255THF     H4 3306   1.875   3.974   0.884 -0.4337  0.0533 -0.0001
  255THF     H5 3307   1.718   3.948   0.804 -1.3811  1.3622  2.1903
  255THF     H6 3308   1.967   3.721   1.045 -1.9200 -0.5971  1.3051
  255THF     H7 3309   1.863   3.612   0.969 -1.2146  1.5716  1.3071
  255THF     C8 3310   1.979   3.725   0.827  0.5324 -0.5038  0.0707
  255THF     C9 3311   1.890   3.816   0.744 -0.0332  0.0658  0.3729
  255THF    H10 3312   2.001   3.627   0.785 -1.6825 -1.5853  1.2879
  255THF    H11 3313   2.073   3.779   0.837  0.4067 -0.5534  1.9784
  255THF    H12 3314   1.945   3.899   0.699  0.2138  1.1021  2.4356
  255THF    H13 3315   1.817   3.764   0.682  0.3095  0.6691 -0.5512
  256THF     O1 3316   1.130   3.401   5.014  0.4702 -0.4696  0.2608
  256THF     C2 3317   1.251   3.428   5.079  0.3768  0.2373 -0.2805
  256THF     C3 3318   1.042   3.364   5.114  0.5114 -0.7163 -0.2735
  256THF     H4 3319   1.324   3.481   5.018 -0.3735  0.3959 -1.0763
  256THF     H5 3320   1.307   3.342   5.116  1.7521  0.9002 -0.7638
  256THF     H6 3321   0.946   3.381   5.065  1.3489 -2.4657 -2.7244
  256THF     H7 3322   1.067   3.258   5.116 -1.2988 -1.2311 -1.7404
  256THF     C8 3323   1.075   3.451   5.240 -0.3919  0.4527  0.4839
  256THF     C9 3324   1.204   3.514   5.195 -0.3593 -0.5712  0.2139
  256THF    H10 3325   1.102   3.389   5.325  0.9149  0.4359  0.0815
  256THF    H11 3326   0.990   3.512   5.271 -1.7440  0.2850 -2.5260
  256THF    H12 3327   1.186   3.619   5.169 -1.8454 -0.6848  0.7216
  256THF    H13 3328   1.269   3.506   5.282  0.4918 -1.3213 -0.4591
  257THF     O1 3329   3.599   4.740   3.777  0.0843  0.2349 -0.0388
  257THF     C2 3330   3.543   4.716   3.911  1.0540 -0.3550  0.0698
  257THF     C3 3331   3.730   4.774   3.806 -0.6879  0.0301  0.7525
  257THF     H4 3332   3.445   4.671   3.894  1.4605 -1.6337  0.9136
  257THF     H5 3333   3.518   4.811   3.958  1.3522  0.0089 -0.4931
  257THF     H6 3334   3.792   4.756   3.718 -1.4645 -0.7394  0.3450
  257THF     H7 3335   3.744   4.875   3.844 -0.3132 -0.1550  1.1075
  257THF     C8 3336   3.783   4.677   3.918  0.0918  0.0198 -0.6078
  257THF     C9 3337   3.647   4.628   3.985 -0.0792 -0.0577  0.5213
  257THF    H10 3338   3.834   4.730   3.999  1.2258  0.0719 -1.3300
  257THF    H11 3339   3.838   4.594   3.874 -0.0801  0.0076 -0.7962
  257THF    H12 3340   3.635   4.525   3.952  0.9562 -0.4269  1.2548
  257THF    H13 3341   3.629   4.641   4.092  2.2254  0.5490  0.8897
  258THF     O1 3342   0.565   3.770   4.154 -0.1941 -0.0969  0.3254
  258THF     C2 3343   0.640   3.768   4.031  0.1254  0.3838 -0.4719
  258THF     C3 3344   0.632   3.666   4.228 -0.5940  0.3278 -0.3142
  258THF     H4 3345   0.628   3.858   3.971  0.5529  1.1222  0.5403
  258THF     H5 3346   0.607   3.687   3.965  2.0495  0.4763 -1.6248
  258THF     H6 3347   0.610   3.671   4.335  0.4066  1.5810 -0.1471
  258THF     H7 3348   0.594   3.572   4.186  0.1093 -0.7729  1.4205
  258THF     C8 3349   0.784   3.693   4.204  0.5956 -0.4508  0.0469
  258THF     C9 3350   0.785   3.764   4.072 -0.0582 -0.3730 -0.4363
  258THF    H10 3351   0.830   3.594   4.196  1.4508 -0.1179  0.7390
  258THF    H11 3352   0.816   3.754   4.288 -0.7515  1.2379 -0.6064
  258THF    H12 3353   0.825   3.862   4.100  1.2676 -0.6582 -1.2721
  258THF    H13 3354   0.847   3.720   3.995  4.4876 -0.6407  2.9829
  259THF     O1 3355   4.792   2.317   0.343 -0.2543  0.2653 -0.2625
  259THF     C2 3356   4.692   2.219   0.392 -0.0230  0.5649 -0.6367
  259THF     C3 3357   4.924   2.271   0.388 -0.5619  0.9976  0.1597
  259THF     H4 3358   4.599   2.225   0.337 -1.5149 -1.1832  1.5164
  259THF     H5 3359   4.663   2.246   0.493 -0.9723  0.7503 -0.9527
  259THF     H6 3360   5.009   2.281   0.320 -1.7151  1.5965 -1.2473
  259THF     H7 3361   4.960   2.323   0.477 -0.8389  0.7882  0.3971
  259THF     C8 3362   4.911   2.128   0.440 -0.0798  0.5060  0.2048
  259THF     C9 3363   4.772   2.086   0.401 -0.2470 -0.0099 -0.1834
  259THF    H10 3364   4.911   2.129   0.549  0.2750 -2.0370  0.2913
  259THF    H11 3365   4.995   2.070   0.401  0.0754  0.6786  0.2817
  259THF    H12 3366   4.764   2.034   0.305 -2.4508 -1.2204  0.5782
  259THF    H13 3367   4.728   2.011   0.467  4.6420 -1.0640  2.3544
  260THF     O1 3368   3.672   1.521   0.490 -0.3109  0.0547 -0.5800
  260THF     C2 3369   3.580   1.492   0.589 -0.2030 -0.6963 -0.3972
  260THF     C3 3370   3.747   1.404   0.452  0.5662  0.6140 -0.3354
  260THF     H4 3371   3.502   1.568   0.584 -0.7015 -1.2223 -0.7464
  260THF     H5 3372   3.631   1.482   0.685  0.9825 -1.5713 -1.0833
  260THF     H6 3373   3.740   1.396   0.343  0.2244 -0.8948 -0.2257
  260THF     H7 3374   3.844   1.398   0.500 -1.0959 -0.4298  3.1900
  260THF     C8 3375   3.656   1.283   0.488  0.5241  0.0719 -0.7821
  260THF     C9 3376   3.529   1.354   0.544  0.0294  0.1772  0.3794
  260THF    H10 3377   3.711   1.232   0.567  1.0451  2.2931  0.3724
  260THF    H11 3378   3.636   1.221   0.401  1.3418  0.9913 -1.6510
  260THF    H12 3379   3.472   1.363   0.452  4.0569  1.4770 -2.2657
  260THF    H13 3380   3.459   1.300   0.608 -0.1828 -0.6610 -0.5329
  261THF     O1 3381   3.270   1.887   0.843  0.6873  0.2399  0.4599
  261THF     C2 3382   3.340   1.811   0.939  0.6706  0.3536 -0.4631
  261THF     C3 3383   3.247   1.812   0.728  0.5639  0.5332 -0.1462
  261THF     H4 3384   3.311   1.834   1.042 -0.1460  4.2611 -1.3939
  261THF     H5 3385   3.444   1.841   0.924  1.3787 -0.7501  1.7466
  261THF     H6 3386   3.171   1.853   0.661 -2.0390 -0.3911  2.0673
  261THF     H7 3387   3.335   1.803   0.665 -0.0274 -2.4729 -0.6586
  261THF     C8 3388   3.209   1.683   0.784 -0.2794  0.4557  0.2448
  261THF     C9 3389   3.312   1.658   0.898 -0.4758  0.1705  0.2113
  261THF    H10 3390   3.213   1.617   0.697  0.8487  0.5742  0.2046
  261THF    H11 3391   3.111   1.675   0.833 -0.4546 -2.4201 -0.3427
  261THF    H12 3392   3.258   1.607   0.978  0.0611  2.4112  2.0892
  261THF    H13 3393   3.403   1.604   0.872 -0.9000 -1.4440  1.8240
  262THF     O1 3394   1.752   1.987   4.711 -0.0951 -0.1940  0.3477
  262THF     C2 3395   1.630   2.014   4.649  0.4537  0.0772 -0.0894
  262THF     C3 3396   1.744   2.005   4.853 -0.7129  0.4675 -0.5456
  262THF     H4 3397   1.598   1.918   4.607  0.5751 -0.6908  1.5234
  262THF     H5 3398   1.638   2.085   4.566 -1.3767 -0.6731 -0.9721
  262THF     H6 3399   1.703   1.918   4.905  0.0698  0.9377  0.9075
  262THF     H7 3400   1.845   2.027   4.887 -0.4326 -0.2973 -0.8569
  262THF     C8 3401   1.649   2.128   4.863  0.2992  0.4067  0.0116
  262THF     C9 3402   1.545   2.081   4.766  0.0168 -0.8179  0.0794
  262THF    H10 3403   1.698   2.219   4.828 -0.3749  0.4395 -0.8786
  262THF    H11 3404   1.615   2.145   4.965  1.8581  1.4255  0.3837
  262THF    H12 3405   1.479   2.003   4.806 -1.7391  0.6025  0.0470
  262THF    H13 3406   1.473   2.155   4.733  0.0166 -1.3523 -1.1984
  263THF     O1 3407   2.927   3.907   5.118 -0.4792 -0.5908 -0.4754
  263THF     C2 3408   2.935   3.792   5.201 -0.5169 -0.6930  0.3747
  263THF     C3 3409   3.042   3.925   5.038 -0.0795  0.1455  0.6147
  263THF     H4 3410   2.875   3.715   5.153 -0.8971  0.5690 -1.2655
  263THF     H5 3411   2.883   3.809   5.295 -0.4391 -0.3692  0.3638
  263THF     H6 3412   3.013   3.936   4.933  0.0159 -0.5682  0.5072
  263THF     H7 3413   3.093   4.012   5.080 -2.3516  2.7380 -1.5733
  263THF     C8 3414   3.137   3.806   5.062 -0.0391 -1.1515  0.1741
  263THF     C9 3415   3.087   3.761   5.201 -0.7864  0.3252  0.2732
  263THF    H10 3416   3.240   3.835   5.044 -0.9361  0.0916 -3.9578
  263THF    H11 3417   3.117   3.725   4.992 -2.6266 -2.3424  2.1232
  263THF    H12 3418   3.111   3.658   5.225  0.3690  0.4383 -0.3194
  263THF    H13 3419   3.140   3.809   5.284  0.0377  1.5582 -0.9077
  264THF     O1 3420   2.565   0.608   0.835  0.0846 -0.0137  0.4085
  264THF     C2 3421   2.513   0.530   0.730  0.6020 -0.9244  0.3740
  264THF     C3 3422   2.471   0.704   0.889 -0.3211 -0.4425 -0.6272
  264THF     H4 3423   2.570   0.438   0.725  0.4230 -1.0523  0.6504
  264THF     H5 3424   2.526   0.589   0.640 -1.2328 -0.7090  0.2019
  264THF     H6 3425   2.469   0.695   0.997 -2.9825  0.1082 -0.5667
  264THF     H7 3426   2.498   0.808   0.872  0.8122 -0.5102  0.6078
  264THF     C8 3427   2.333   0.667   0.830  0.1015 -0.1707 -0.6146
  264THF     C9 3428   2.367   0.529   0.781 -0.0131  0.9073 -0.2954
  264THF    H10 3429   2.314   0.737   0.749 -1.1043  1.9197  1.3526
  264THF    H11 3430   2.248   0.682   0.897  0.5629  2.6041 -0.5380
  264THF    H12 3431   2.356   0.465   0.868  0.1108  0.6304 -0.4823
  264THF    H13 3432   2.292   0.498   0.709  0.3765  1.5498 -0.9997
  265THF     O1 3433   0.363   4.915   3.530 -0.3397 -0.6535 -0.2409
  265THF     C2 3434   0.408   4.795   3.593 -0.6416 -0.7550  0.2320
  265THF     C3 3435   0.468   5.009   3.536  0.0319  0.8340 -0.3498
  265THF     H4 3436   0.475   4.746   3.523  0.0136  0.9188 -0.3559
  265THF     H5 3437   0.323   4.732   3.620 -1.0045 -0.6555 -0.6411
  265THF     H6 3438   0.526   5.022   3.444 -1.1987 -0.8998 -1.4139
  265THF     H7 3439   0.429   5.105   3.570 -0.5456  0.3460  0.3688
  265THF     C8 3440   0.557   4.966   3.657  0.1961  0.0322  0.4124
  265THF     C9 3441   0.479   4.852   3.720 -0.3148  1.0366 -0.1807
  265THF    H10 3442   0.566   5.042   3.734 -0.2798  2.3292 -1.6809
  265THF    H11 3443   0.659   4.941   3.627  0.2859  0.8148  0.0474
  265THF    H12 3444   0.538   4.780   3.776 -2.7495 -1.0148 -0.0504
  265THF    H13 3445   0.410   4.897   3.792 -0.0934  1.2814 -0.1205
  266THF     O1 3446   2.101   4.014   2.858  0.5046 -0.1505  0.2228
  266THF     C2 3447   2.225   4.013   2.796  0.0799 -0.6381  0.8475
  266THF     C3 3448   2.135   3.938   2.979  0.0626 -0.1014 -0.5556
  266THF     H4 3449   2.223   4.083   2.712  3.3789 -1.2265  0.1564
  266THF     H5 3450   2.252   3.916   2.756  0.5951  0.5609 -1.9312
  266THF     H6 3451   2.058   3.936   3.057  0.6819  2.6284  0.2373
  266THF     H7 3452   2.148   3.831   2.966 -1.8787 -0.4162 -0.2521
  266THF     C8 3453   2.264   3.999   3.030  0.0192 -0.1194 -0.3056
  266THF     C9 3454   2.325   4.062   2.900 -0.5721  0.1874  0.7528
  266THF    H10 3455   2.336   3.929   3.071  0.0134  0.4013  0.6414
  266THF    H11 3456   2.254   4.064   3.117 -1.1090  1.4202 -1.5094
  266THF    H12 3457   2.315   4.171   2.893  1.8058  0.3312 -2.8876
  266THF    H13 3458   2.428   4.031   2.885 -0.7002 -0.2642  0.7945
  267THF     O1 3459   4.849   2.476   2.263  0.5570 -1.0425 -0.3403
  267THF     C2 3460   4.796   2.366   2.328 -0.6452 -0.2616  0.0167
  267THF     C3 3461   4.741   2.577   2.258 -0.4659  0.3126 -0.1581
  267THF     H4 3462   4.837   2.366   2.429  4.5389  2.7420 -1.7068
  267THF     H5 3463   4.837   2.272   2.291 -1.5833 -0.7251  0.1346
  267THF     H6 3464   4.774   2.670   2.303  0.4002  1.2271 -2.5160
  267THF     H7 3465   4.710   2.591   2.154  1.9250  2.1687 -0.6970
  267THF     C8 3466   4.622   2.518   2.333  0.0736  0.4697  0.3033
  267THF     C9 3467   4.641   2.367   2.321  1.0160  0.0077 -0.0107
  267THF    H10 3468   4.523   2.536   2.293 -0.5285 -2.2427  0.3881
  267THF    H11 3469   4.632   2.556   2.435  1.2934  0.1103  0.3367
  267THF    H12 3470   4.587   2.313   2.399 -0.5331  2.7047  0.9114
  267THF    H13 3471   4.607   2.338   2.222  3.3076  1.2060 -1.2057
  268THF     O1 3472   3.448   1.825   4.309  0.1834  0.9239  0.7921
  268THF     C2 3473   3.549   1.725   4.305 -0.9039 -0.3946  1.2678
  268THF     C3 3474   3.429   1.875   4.173 -0.4041 -0.6543 -0.0859
  268THF     H4 3475   3.534   1.665   4.395  2.5873  0.3752  2.5112
  268THF     H5 3476   3.645   1.777   4.313 -0.3858 -1.5644  3.5712
  268THF     H6 3477   3.321   1.881   4.162 -0.4437 -2.2471 -0.8399
  268THF     H7 3478   3.466   1.976   4.156 -1.7121 -0.1474  0.0021
  268THF     C8 3479   3.473   1.763   4.079  0.2988  0.1409  0.5581
  268THF     C9 3480   3.516   1.648   4.173 -0.3642  0.3066 -0.3208
  268THF    H10 3481   3.550   1.797   4.010  0.1610  0.9950  0.8166
  268THF    H11 3482   3.391   1.725   4.017  0.1576  0.0065  0.8251
  268THF    H12 3483   3.430   1.583   4.185 -0.9226  0.9879 -0.6004
  268THF    H13 3484   3.596   1.594   4.121 -1.3935 -0.4280 -1.1910
  269THF     O1 3485   5.369   4.099   3.634  0.3114 -0.1218  0.2389
  269THF     C2 3486   5.245   4.068   3.572 -0.7003 -0.0466 -0.8314
  269THF     C3 3487   5.415   4.221   3.570 -0.3380  0.7138  0.2672
  269THF     H4 3488   5.173   4.107   3.644 -0.1217 -0.2934 -0.1031
  269THF     H5 3489   5.227   3.962   3.556  0.2079 -0.1585 -1.1777
  269THF     H6 3490   5.451   4.289   3.648 -1.7669  0.3895  1.2320
  269THF     H7 3491   5.498   4.195   3.505  0.0669 -0.4276  1.2048
  269THF     C8 3492   5.299   4.277   3.493  0.3396 -0.6773 -0.0283
  269THF     C9 3493   5.233   4.151   3.451  0.7516 -0.0879  0.1340
  269THF    H10 3494   5.327   4.350   3.417  2.4865  2.2126  3.2199
  269THF    H11 3495   5.235   4.328   3.564  0.2965 -0.0167 -0.5361
  269THF    H12 3496   5.125   4.157   3.440  0.6087  0.0341  1.4092
  269THF    H13 3497   5.287   4.099   3.372 -0.6835 -0.6292 -0.5269
  270THF     O1 3498   2.751   0.654   4.825 -0.0615  0.5536  0.3379
  270THF     C2 3499   2.775   0.527   4.767 -0.0185 -0.0073 -0.2499
  270THF     C3 3500   2.608   0.662   4.853  0.0314  0.3920  0.0441
  270THF     H4 3501   2.799   0.465   4.853 -3.7373  2.4442  2.9192
  270THF     H5 3502   2.852   0.542   4.692 -0.7562  0.0330 -1.0053
  270THF     H6 3503   2.597   0.693   4.957  1.3423 -2.0173  0.9732
  270THF     H7 3504   2.556   0.736   4.792  0.3775 -0.8387 -1.8182
  270THF     C8 3505   2.542   0.532   4.814 -0.1736 -0.1520  0.7273
  270THF     C9 3506   2.641   0.487   4.707  0.1928 -0.2999 -0.2005
  270THF    H10 3507   2.442   0.549   4.774 -0.4871 -3.0869  0.0387
  270THF    H11 3508   2.537   0.462   4.897 -0.4973 -1.4990 -0.3932
  270THF    H12 3509   2.617   0.384   4.681 -1.1689 -0.2702  0.7935
  270THF    H13 3510   2.634   0.555   4.622 -0.6455  0.5537  0.5246
  271THF     O1 3511   3.048   0.783   4.966 -0.2969  0.6905  0.1701
  271THF     C2 3512   3.180   0.822   4.946 -0.2051  0.0934 -0.4597
  271THF     C3 3513   3.048   0.644   4.983  0.8702 -0.9689  0.3555
  271THF     H4 3514   3.191   0.929   4.959 -1.7696  0.2069  0.2426
  271THF     H5 3515   3.226   0.786   4.854  1.2518 -2.1875  1.0521
  271THF     H6 3516   2.951   0.604   5.013  1.1202 -0.9938  1.1663
  271THF     H7 3517   3.071   0.596   4.888  0.2308 -1.6684  0.5411
  271THF     C8 3518   3.155   0.624   5.090  0.3817  0.1088 -0.0082
  271THF     C9 3519   3.253   0.737   5.060  0.7066  0.0509  0.1076
  271THF    H10 3520   3.203   0.527   5.086  0.9652  0.4295 -1.2017
  271THF    H11 3521   3.114   0.633   5.190 -0.5341  1.1615 -0.4492
  271THF    H12 3522   3.265   0.807   5.142  1.3312  0.0131  0.0594
  271THF    H13 3523   3.347   0.691   5.028  0.2022 -0.6196 -0.4647
  272THF     O1 3524   4.881   2.707   4.135  0.0105  0.2388  0.0435
  272THF     C2 3525   4.912   2.674   4.266  0.2394  0.6540  0.1448
  272THF     C3 3526   4.971   2.811   4.094 -0.6610 -0.4630  0.5738
  272THF     H4 3527   4.907   2.567   4.287  0.3435  0.6118 -0.0483
  272THF     H5 3528   4.848   2.724   4.340 -0.3884 -2.7284  2.1114
  272THF     H6 3529   4.986   2.806   3.986 -0.5404  1.1512  0.4994
  272THF     H7 3530   4.947   2.913   4.123  3.6280  1.7953 -2.7454
  272THF     C8 3531   5.097   2.760   4.158 -0.7079  0.5752 -0.0704
  272THF     C9 3532   5.055   2.714   4.292  0.1151  0.1718 -0.2439
  272THF    H10 3533   5.175   2.835   4.171 -1.1285  0.9233  0.5123
  272THF    H11 3534   5.128   2.671   4.102 -0.6610 -0.4238  1.4921
  272THF    H12 3535   5.111   2.625   4.321 -0.4842 -0.2794 -0.4270
  272THF    H13 3536   5.057   2.780   4.378  0.7765  1.2521 -1.0663
  273THF     O1 3537   4.657   5.429   3.830 -0.5257 -1.1058  0.2536
  273THF     C2 3538   4.699   5.325   3.924 -0.4908 -0.0119  1.0373
  273THF     C3 3539   4.698   5.554   3.883 -0.4046 -0.0204  0.2670
  273THF     H4 3540   4.725   5.249   3.850 -0.0452  0.8776  0.2581
  273THF     H5 3541   4.619   5.281   3.983  0.4680 -0.5626  1.9474
  273THF     H6 3542   4.696   5.626   3.801  0.0618 -1.2222 -0.8452
  273THF     H7 3543   4.634   5.581   3.967  1.6043  1.3889  1.4193
  273THF     C8 3544   4.830   5.524   3.948 -0.4034  0.1655  0.0268
  273THF     C9 3545   4.804   5.386   4.010  0.5717  0.0884  0.2990
  273THF    H10 3546   4.859   5.609   4.010 -1.3924  0.2048  0.4453
  273THF    H11 3547   4.915   5.510   3.880  0.6439 -1.0334  1.4986
  273THF    H12 3548   4.887   5.315   4.016  0.7095  0.1491 -0.7981
  273THF    H13 3549   4.764   5.395   4.111 -1.0670  0.1941 -0.3402
  274THF     O1 3550   5.048   1.267   4.590  0.5628 -0.7311  0.3155
  274THF     C2 3551   5.014   1.344   4.473 -0.5022 -0.8487 -0.0905
  274THF     C3 3552   4.932   1.265   4.673  0.8354  0.2353  0.7204
  274THF     H4 3553   4.993   1.283   4.386  0.8873  0.1902 -1.2100
  274THF     H5 3554   5.097   1.407   4.441 -0.2894 -0.8800  0.3911
  274THF     H6 3555   4.852   1.202   4.633  0.1003  0.5723  1.6062
  274THF     H7 3556   4.968   1.227   4.768 -1.1064 -0.4085  1.2529
  274THF     C8 3557   4.878   1.407   4.669  0.0913 -0.0597  0.4624
  274THF     C9 3558   4.895   1.442   4.520  0.1068  0.0950 -0.0475
  274THF    H10 3559   4.939   1.464   4.739  0.7655  0.2639 -0.3700
  274THF    H11 3560   4.771   1.397   4.690 -0.4377  0.3224 -1.8223
  274THF    H12 3561   4.804   1.420   4.464 -0.6189  0.7819  0.8320
  274THF    H13 3562   4.915   1.547   4.502 -1.2502  0.2726 -0.6684
  275THF     O1 3563   4.189   1.482   1.638  0.2526 -0.0461  0.1743
  275THF     C2 3564   4.199   1.388   1.747  0.5441  0.2512  0.0894
  275THF     C3 3565   4.266   1.601   1.668  0.4729  0.2308 -0.1363
  275THF     H4 3566   4.295   1.337   1.733  1.6992  2.5432 -1.0163
  275THF     H5 3567   4.115   1.320   1.749 -1.8488  2.9819 -0.8467
  275THF     H6 3568   4.346   1.612   1.594 -0.3732 -3.1976 -1.7587
  275THF     H7 3569   4.202   1.689   1.663  1.0597  0.5967 -1.7094
  275THF     C8 3570   4.292   1.586   1.814  0.1732 -0.9270 -0.0724
  275THF     C9 3571   4.208   1.475   1.870  0.2821 -0.3953  0.8640
  275THF    H10 3572   4.274   1.675   1.875 -2.8429 -2.1032  0.9795
  275THF    H11 3573   4.398   1.564   1.827  0.4219 -0.0357 -0.5536
  275THF    H12 3574   4.246   1.430   1.961  0.0185  0.1145  1.2311
  275THF    H13 3575   4.110   1.518   1.892  0.3225  0.4035 -0.3784
  276THF     O1 3576   0.265   0.869   3.894 -0.4856  0.3702  0.1316
  276THF     C2 3577   0.358   0.864   4.001  0.2741 -0.7390 -0.6175
  276THF     C3 3578   0.346   0.918   3.785  0.7312 -0.3466  1.3838
  276THF     H4 3579   0.438   0.795   3.976  0.6649  0.4006 -2.7471
  276THF     H5 3580   0.314   0.857   4.101  0.0767 -1.2671 -0.7395
  276THF     H6 3581   0.402   0.831   3.751 -0.7275 -0.0703 -2.2283
  276THF     H7 3582   0.287   0.966   3.707  0.9482 -0.9464  0.8395
  276THF     C8 3583   0.445   1.019   3.840 -0.2815  0.1654 -0.5061
  276THF     C9 3584   0.435   0.993   3.990 -0.0865  1.0933  0.3809
  276THF    H10 3585   0.409   1.120   3.820  0.7266  0.5803 -0.2463
  276THF    H11 3586   0.542   1.004   3.794  1.7636  3.4013  2.3004
  276THF    H12 3587   0.536   0.994   4.032  1.2162 -1.1806 -2.3117
  276THF    H13 3588   0.383   1.079   4.031 -1.2824 -0.2051  1.7082
  277THF     O1 3589   3.868   0.826   3.964  0.6439 -0.2526 -0.7786
  277THF     C2 3590   4.000   0.844   4.006  0.0552  0.2293 -0.1254
  277THF     C3 3591   3.862   0.786   3.827 -0.1621 -0.4324 -0.5161
  277THF     H4 3592   3.997   0.833   4.114  2.2757  2.0132  0.2031
  277THF     H5 3593   4.036   0.944   3.980 -1.2679  1.3080  1.9229
  277THF     H6 3594   3.775   0.724   3.803  0.2325 -0.8584 -0.8782
  277THF     H7 3595   3.868   0.879   3.771 -1.3664  0.6318  1.0565
  277THF     C8 3596   3.992   0.703   3.804  0.7944  0.3102  0.0352
  277THF     C9 3597   4.067   0.718   3.938 -0.1370 -0.4610  0.2488
  277THF    H10 3598   4.045   0.748   3.720 -0.1138  2.6423  0.6329
  277THF    H11 3599   3.974   0.598   3.779 -1.8626  1.3627 -3.1744
  277THF    H12 3600   4.045   0.635   4.006 -0.0766  1.2855  2.5037
  277THF    H13 3601   4.176   0.722   3.932 -0.1913 -0.3689 -0.8298
  278THF     O1 3602   2.394   1.174   0.560  0.1324 -0.3587  0.5424
  278THF     C2 3603   2.501   1.165   0.470 -0.6748  0.2744  0.0016
  278THF     C3 3604   2.328   1.052   0.558 -0.2587 -0.4324 -0.0313
  278THF     H4 3605   2.558   1.256   0.488  1.3171 -0.8951 -0.1489
  278THF     H5 3606   2.470   1.170   0.365 -0.5238  0.6837 -0.0269
  278THF     H6 3607   2.259   1.029   0.640  0.4785  0.9450  1.0235
  278THF     H7 3608   2.264   1.055   0.470 -0.4136 -0.4153  0.0821
  278THF     C8 3609   2.442   0.954   0.541 -0.7103 -0.0361  0.2076
  278THF     C9 3610   2.565   1.037   0.515 -0.0572  0.6858 -0.1376
  278THF    H10 3611   2.424   0.888   0.456 -0.9967  1.5762 -1.0354
  278THF    H11 3612   2.464   0.885   0.622  1.9433 -1.3497 -1.4856
  278THF    H12 3613   2.614   1.060   0.609  2.9095 -0.1206 -1.3598
  278THF    H13 3614   2.634   0.986   0.447  1.0272 -1.2064  2.2171
  279THF     O1 3615   3.328   3.405   0.489  0.4545  0.1529 -0.5142
  279THF     C2 3616   3.233   3.295   0.459 -0.0348 -0.1424 -0.1815
  279THF     C3 3617   3.413   3.399   0.373  0.3829  0.0211  0.7734
  279THF     H4 3618   3.174   3.323   0.372 -1.6632 -1.1687  0.5475
  279THF     H5 3619   3.174   3.253   0.541 -0.5405  0.9217  0.0216
  279THF     H6 3620   3.355   3.451   0.296 -0.4959 -0.3448  1.1755
  279THF     H7 3621   3.506   3.456   0.378 -0.5354  1.7130 -0.2699
  279THF     C8 3622   3.440   3.257   0.353 -0.0380  0.3708  0.4992
  279THF     C9 3623   3.328   3.183   0.419  0.1719  0.3764  0.0183
  279THF    H10 3624   3.531   3.229   0.407 -0.3920 -0.8432  0.5018
  279THF    H11 3625   3.452   3.231   0.248  0.8755 -1.5232  1.0121
  279THF    H12 3626   3.280   3.108   0.357 -0.4639  0.4872  0.3665
  279THF    H13 3627   3.366   3.150   0.515  2.0406  1.1613 -0.4012
  280THF     O1 3628   3.761   3.317   0.130 -0.0764  0.4920 -0.5412
  280THF     C2 3629   3.791   3.249   0.251  0.2503 -0.0427 -0.3063
  280THF     C3 3630   3.684   3.236   0.047 -0.0984 -0.1811  1.1590
  280THF     H4 3631   3.740   3.291   0.338  1.0005 -0.0365  0.1380
  280THF     H5 3632   3.896   3.272   0.265  0.7305 -1.2688 -1.6622
  280THF     H6 3633   3.581   3.270   0.057 -0.3328  0.4895 -2.1668
  280THF     H7 3634   3.694   3.234  -0.062  0.1893 -0.8712  1.1926
  280THF     C8 3635   3.706   3.093   0.094 -0.3718 -1.0242 -0.7606
  280THF     C9 3636   3.751   3.107   0.232 -0.7288 -0.4474  0.2379
  280THF    H10 3637   3.795   3.058   0.042 -0.8779 -0.0794 -2.3130
  280THF    H11 3638   3.622   3.026   0.079 -0.7453 -0.4863 -1.0602
  280THF    H12 3639   3.667   3.093   0.300  0.8489  0.0052  2.3895
  280THF    H13 3640   3.829   3.036   0.260  1.3225  1.1488 -1.1699
  281THF     O1 3641   1.079   3.685   3.899  0.2997  0.0170  0.2508
  281THF     C2 3642   1.219   3.693   3.923 -0.1432 -0.2011 -0.3886
  281THF     C3 3643   1.045   3.572   3.818 -0.5129 -0.0503 -0.7113
  281THF     H4 3644   1.232   3.691   4.031 -0.4881  0.2056 -0.3350
  281THF     H5 3645   1.252   3.784   3.874 -1.6599  0.0423 -1.0157
  281THF     H6 3646   1.011   3.499   3.891  0.0885 -0.0417 -0.4187
  281THF     H7 3647   0.963   3.588   3.747 -2.2211  2.4961  1.6410
  281THF     C8 3648   1.179   3.520   3.767 -0.7217  0.1150  0.0598
  281THF     C9 3649   1.273   3.563   3.875  0.1184  0.5684  0.1681
  281THF    H10 3650   1.208   3.569   3.674  0.8617 -3.5164 -1.5120
  281THF    H11 3651   1.169   3.413   3.754 -1.5357  0.1038  0.7167
  281THF    H12 3652   1.272   3.483   3.948 -1.0088 -0.6957 -1.1539
  281THF    H13 3653   1.373   3.584   3.836 -0.6432  1.2233 -1.5464
  282THF     O1 3654   1.755   1.856   0.267  0.0707  0.2187 -0.2146
  282THF     C2 3655   1.674   1.951   0.201  0.3510  0.4922  0.1523
  282THF     C3 3656   1.743   1.724   0.197  0.1431 -0.6878 -0.1557
  282THF     H4 3657   1.734   2.026   0.150 -0.2345  1.8990  1.4281
  282THF     H5 3658   1.617   2.015   0.270  0.5185  1.4730 -0.5935
  282THF     H6 3659   1.837   1.681   0.164  0.8270  0.7332 -0.1210
  282THF     H7 3660   1.693   1.656   0.267 -1.8416  1.5800  0.8087
  282THF     C8 3661   1.665   1.763   0.072 -0.3639 -0.1144 -0.0523
  282THF     C9 3662   1.575   1.870   0.110  0.0909 -1.0859  0.2615
  282THF    H10 3663   1.611   1.679   0.029  0.9170  0.1406 -2.3105
  282THF    H11 3664   1.727   1.794  -0.012 -1.9378 -1.0594 -1.6124
  282THF    H12 3665   1.542   1.924   0.021 -0.4805 -0.7539  0.6629
  282THF    H13 3666   1.485   1.828   0.154 -0.3596 -2.4859 -1.8600
  283THF     O1 3667   2.795   0.379   3.144 -0.3616 -0.5052 -0.7902
  283THF     C2 3668   2.798   0.259   3.085  0.1565  0.2258 -0.0246
  283THF     C3 3669   2.849   0.375   3.274  0.4847 -0.2680  0.6158
  283THF     H4 3670   2.891   0.246   3.031  0.6382 -0.3051  0.9051
  283THF     H5 3671   2.717   0.275   3.014 -0.9907 -1.5981  0.8004
  283THF     H6 3672   2.955   0.400   3.280  0.6687  0.0092 -2.5327
  283THF     H7 3673   2.787   0.437   3.340 -1.7426 -1.2049 -0.5064
  283THF     C8 3674   2.844   0.227   3.311  0.4678  0.3222 -0.1287
  283THF     C9 3675   2.772   0.162   3.199  0.2973  0.8722  1.0143
  283THF    H10 3676   2.807   0.213   3.413 -0.0636 -0.8689 -0.4650
  283THF    H11 3677   2.947   0.190   3.307  0.7785  1.0130  1.0439
  283THF    H12 3678   2.804   0.059   3.183 -0.4612  0.2555  3.2130
  283THF    H13 3679   2.664   0.171   3.206  0.0946 -1.6984  2.1757
  284THF     O1 3680   3.166   1.725   1.931 -0.4001 -0.4179 -0.6330
  284THF     C2 3681   3.243   1.618   1.991 -0.2670  0.2377  0.4940
  284THF     C3 3682   3.203   1.840   2.009  0.0327 -1.0192  0.2910
  284THF     H4 3683   3.248   1.526   1.933  0.0409 -0.5201  1.6929
  284THF     H5 3684   3.180   1.586   2.073  1.2466 -2.2178  0.8196
  284THF     H6 3685   3.191   1.941   1.972 -0.6533 -1.6565 -1.2927
  284THF     H7 3686   3.155   1.843   2.107  1.3868  0.4828  0.9533
  284THF     C8 3687   3.352   1.823   2.030  0.0605 -0.2290 -0.1012
  284THF     C9 3688   3.374   1.674   2.046  0.0069 -0.1432  0.4856
  284THF    H10 3689   3.387   1.885   2.112  0.2744  1.5701 -1.5042
  284THF    H11 3690   3.401   1.850   1.937  1.0049 -2.0613 -0.1907
  284THF    H12 3691   3.462   1.636   1.994  0.2928  1.4670 -0.2698
  284THF    H13 3692   3.393   1.650   2.151 -0.8840  0.2161  0.7419
  285THF     O1 3693   4.609   0.257   4.221  0.4129 -0.0415 -0.1622
  285THF     C2 3694   4.743   0.284   4.248  0.8486  0.1787 -0.4352
  285THF     C3 3695   4.531   0.266   4.333 -0.2035 -0.4034  0.0144
  285THF     H4 3696   4.765   0.389   4.271  1.5197  0.7656 -3.3473
  285THF     H5 3697   4.816   0.254   4.172  3.4118  1.5760  1.3071
  285THF     H6 3698   4.510   0.365   4.372 -2.3174 -1.7783  2.7563
  285THF     H7 3699   4.437   0.214   4.316 -1.4065  1.7858 -0.3138
  285THF     C8 3700   4.622   0.195   4.439  0.0396  0.6192 -0.1212
  285THF     C9 3701   4.764   0.197   4.371  0.0688  0.4832  0.0099
  285THF    H10 3702   4.582   0.094   4.445  1.8958 -0.1355  0.4296
  285THF    H11 3703   4.606   0.242   4.536 -2.1592 -0.9270  0.3443
  285THF    H12 3704   4.837   0.229   4.444 -1.2041  0.5269  1.3114
  285THF    H13 3705   4.784   0.095   4.338 -0.9126 -0.1411  1.2595
  286THF     O1 3706   3.547   3.671   2.708 -0.3610  0.3619 -0.9490
  286THF     C2 3707   3.623   3.598   2.607 -0.1464  0.4032 -0.0397
  286THF     C3 3708   3.636   3.694   2.821 -0.1598 -0.1871 -0.5315
  286THF     H4 3709   3.670   3.682   2.555  0.3381  0.7352  0.9099
  286THF     H5 3710   3.570   3.537   2.535 -1.9391  1.6933  0.1047
  286THF     H6 3711   3.704   3.774   2.794  1.8482 -0.7397  2.3396
  286THF     H7 3712   3.589   3.710   2.918 -1.8534 -2.6012 -0.8549
  286THF     C8 3713   3.712   3.557   2.832  0.2782  0.2083 -0.2226
  286THF     C9 3714   3.736   3.530   2.685 -0.6315 -0.4235  0.0666
  286THF    H10 3715   3.649   3.479   2.874  3.7005 -0.4476  4.5864
  286THF    H11 3716   3.798   3.573   2.897  0.4760 -0.5465 -0.2825
  286THF    H12 3717   3.839   3.560   2.665 -0.7601  0.9017  1.1492
  286THF    H13 3718   3.727   3.425   2.660  1.3558 -0.3004 -1.4263
  287THF     O1 3719   2.768   1.464   4.939  0.5688  0.1904  0.2828
  287THF     C2 3720   2.695   1.344   4.947  0.2953 -0.7364 -0.0357
  287THF     C3 3721   2.684   1.565   4.880  0.0100  0.2480  0.0160
  287THF     H4 3722   2.737   1.275   5.021 -0.4030 -0.8169  0.2928
  287THF     H5 3723   2.692   1.293   4.851  0.9538 -2.6267  0.9063
  287THF     H6 3724   2.720   1.657   4.924  0.4039 -0.8596  2.1299
  287THF     H7 3725   2.708   1.564   4.773 -1.2938 -0.4997 -0.2915
  287THF     C8 3726   2.534   1.528   4.903 -0.1015  0.8651 -0.4860
  287THF     C9 3727   2.560   1.401   4.982  0.0874  0.3460 -0.4596
  287THF    H10 3728   2.489   1.511   4.805 -1.5895 -1.7519  0.5367
  287THF    H11 3729   2.482   1.595   4.971 -0.9850 -0.4390  0.1848
  287THF    H12 3730   2.572   1.431   5.086 -1.5148  1.1159 -0.4808
  287THF    H13 3731   2.472   1.338   4.976  0.3110 -0.4910  2.9996
  288THF     O1 3732   5.282   0.790   0.508 -0.0687 -0.2481 -0.4349
  288THF     C2 3733   5.161   0.719   0.477 -0.0929 -0.0248  0.2311
  288THF     C3 3734   5.316   0.781   0.648  0.4458 -0.0744  0.5029
  288THF     H4 3735   5.177   0.638   0.405  1.8877 -1.6833  2.3943
  288THF     H5 3736   5.099   0.791   0.423  0.9394  1.3225  0.7888
  288THF     H6 3737   5.382   0.697   0.669 -0.7409 -0.7021  1.9317
  288THF     H7 3738   5.369   0.870   0.681  0.8728 -0.0217 -0.3250
  288THF     C8 3739   5.182   0.768   0.711  0.0353  0.4829  0.5889
  288THF     C9 3740   5.100   0.683   0.611 -0.2812  0.9215 -0.8939
  288THF    H10 3741   5.129   0.862   0.722 -2.2814 -0.7670  0.7391
  288THF    H11 3742   5.181   0.721   0.809  0.6881  1.4496  1.0782
  288THF    H12 3743   5.097   0.575   0.627 -0.1318  0.7362 -2.0612
  288THF    H13 3744   4.996   0.715   0.612 -1.6255 -2.9250 -2.0510
  289THF     O1 3745   3.012   0.358   0.576  0.3014 -0.0341  0.2219
  289THF     C2 3746   3.056   0.313   0.702  0.9722 -0.5329  0.4468
  289THF     C3 3747   2.892   0.291   0.541 -0.2301 -0.0433 -0.1900
  289THF     H4 3748   3.098   0.398   0.755 -1.8121  0.7630  0.7765
  289THF     H5 3749   3.122   0.228   0.686 -0.2609 -1.5021  0.3158
  289THF     H6 3750   2.832   0.348   0.470 -2.0740  1.3984  2.3616
  289THF     H7 3751   2.919   0.192   0.504  2.3308  0.7984 -0.8215
  289THF     C8 3752   2.810   0.283   0.673 -0.1624 -0.1105  0.1871
  289THF     C9 3753   2.928   0.268   0.777  0.0154  0.0068  0.3828
  289THF    H10 3754   2.733   0.206   0.678 -1.2107  0.9521  0.6128
  289THF    H11 3755   2.754   0.374   0.694 -0.5374 -0.2261 -0.3209
  289THF    H12 3756   2.906   0.308   0.876 -0.4363 -1.3036  0.8339
  289THF    H13 3757   2.949   0.168   0.813  0.3043 -1.2444 -2.8627
  290THF     O1 3758   1.194   5.151   1.963 -0.4151 -0.0493  0.6771
  290THF     C2 3759   1.165   5.252   2.055  0.1513 -1.0156  0.6926
  290THF     C3 3760   1.329   5.168   1.916  0.0927  0.2530  0.5398
  290THF     H4 3761   1.211   5.240   2.154 -1.6698 -1.1874  1.5578
  290THF     H5 3762   1.057   5.266   2.062  0.4212  2.1620 -0.2441
  290THF     H6 3763   1.404   5.151   1.994  1.1013  0.3421 -0.3875
  290THF     H7 3764   1.353   5.118   1.822  0.1259  0.6626  0.3260
  290THF     C8 3765   1.319   5.320   1.879 -0.1741 -0.4624  0.3570
  290THF     C9 3766   1.232   5.377   1.990  0.1918 -0.2639  0.6037
  290THF    H10 3767   1.288   5.324   1.774  2.9242 -0.7132 -0.6603
  290THF    H11 3768   1.417   5.366   1.879 -0.1840 -0.2287 -2.8004
  290THF    H12 3769   1.303   5.427   2.055  1.8158  0.6982 -1.7484
  290THF    H13 3770   1.159   5.451   1.957 -1.5284 -1.2789  2.0024
  291THF     O1 3771   1.788   3.091   4.653 -0.4058  0.1647 -0.4003
  291THF     C2 3772   1.773   3.069   4.518  0.4206 -0.3748  0.6864
  291THF     C3 3773   1.915   3.040   4.679 -0.3255 -0.2272 -0.1241
  291THF     H4 3774   1.702   3.136   4.471  0.5681  0.4149  1.5577
  291THF     H5 3775   1.754   2.963   4.501  1.4620 -0.4478 -0.1271
  291THF     H6 3776   1.957   3.074   4.774 -2.0073 -1.4275  1.1146
  291THF     H7 3777   1.920   2.931   4.674 -0.7367 -0.1904 -2.1235
  291THF     C8 3778   1.999   3.095   4.562  0.0750  0.4971  0.8103
  291THF     C9 3779   1.905   3.096   4.448 -0.6796 -0.2626 -0.5655
  291THF    H10 3780   2.088   3.035   4.540 -0.5211 -0.9116  2.0207
  291THF    H11 3781   2.032   3.196   4.585  1.8943  1.1367 -3.5872
  291THF    H12 3782   1.892   3.198   4.413  2.8036 -0.2198 -2.1263
  291THF    H13 3783   1.933   3.033   4.363  1.2062 -1.5696  0.9349
  292THF     O1 3784   5.318   0.800   2.697  0.8305 -0.0665  0.0448
  292THF     C2 3785   5.189   0.829   2.755 -0.0731 -0.2663  0.4029
  292THF     C3 3786   5.362   0.905   2.615 -0.5472  0.1932 -0.3586
  292THF     H4 3787   5.179   0.793   2.858  0.0488  1.7829  1.1724
  292THF     H5 3788   5.113   0.787   2.689 -0.6087  1.8358 -0.3852
  292THF     H6 3789   5.464   0.932   2.643 -0.4871  1.8780 -2.0278
  292THF     H7 3790   5.371   0.873   2.512  0.2593  1.8716 -0.8508
  292THF     C8 3791   5.269   1.026   2.643  0.2130  0.6104 -0.4261
  292THF     C9 3792   5.186   0.980   2.767 -0.3355  0.7212  0.8145
  292THF    H10 3793   5.199   1.037   2.560 -1.3314  2.0421  0.9946
  292THF    H11 3794   5.331   1.114   2.664 -1.1114  1.0899  1.7356
  292THF    H12 3795   5.235   0.999   2.862 -1.8349 -0.6688  1.9227
  292THF    H13 3796   5.081   1.008   2.758 -0.4688  0.3238  1.0572
  293THF     O1 3797   3.707   5.235   0.564 -0.0982  0.4720  0.5407
  293THF     C2 3798   3.654   5.209   0.696 -0.9552 -0.0940 -0.9067
  293THF     C3 3799   3.655   5.359   0.517 -0.2048 -0.0731  0.3781
  293THF     H4 3800   3.723   5.151   0.758  1.8943  4.5533  0.7887
  293THF     H5 3801   3.561   5.152   0.686 -0.2426 -1.4225 -0.2714
  293THF     H6 3802   3.719   5.387   0.433 -1.7313 -0.5654 -1.0053
  293THF     H7 3803   3.563   5.341   0.462  0.3590 -1.0643 -0.2738
  293THF     C8 3804   3.660   5.458   0.634  0.5487  0.8900  0.7774
  293THF     C9 3805   3.637   5.358   0.752 -0.5286 -0.1093 -0.0742
  293THF    H10 3806   3.582   5.533   0.622  0.3337  0.3874 -1.3725
  293THF    H11 3807   3.754   5.509   0.654  1.1660  0.7495 -1.4665
  293THF    H12 3808   3.715   5.365   0.827  1.8473 -0.7389 -2.3337
  293THF    H13 3809   3.534   5.369   0.788 -1.1701  2.7009 -2.3898
  294THF     O1 3810   1.620   2.686   3.516 -0.1897 -0.1495  0.3407
  294THF     C2 3811   1.514   2.711   3.609  0.5910 -0.2658 -0.7346
  294THF     C3 3812   1.567   2.643   3.394 -0.0666 -0.2332 -0.7671
  294THF     H4 3813   1.461   2.802   3.582  0.2749  1.0405  3.4769
  294THF     H5 3814   1.542   2.731   3.713 -3.5254 -0.2290  0.5155
  294THF     H6 3815   1.514   2.730   3.354  0.1604  0.9696  1.3588
  294THF     H7 3816   1.632   2.597   3.320 -1.4826 -1.3382 -1.3814
  294THF     C8 3817   1.460   2.542   3.443  0.1432 -0.2466 -0.0200
  294THF     C9 3818   1.424   2.583   3.584 -0.1376 -0.5652  0.0229
  294THF    H10 3819   1.496   2.439   3.433 -0.2732 -0.2224 -2.5032
  294THF    H11 3820   1.377   2.545   3.373  0.8282  0.1463 -0.8345
  294THF    H12 3821   1.319   2.606   3.601 -0.1598 -0.3315 -0.4039
  294THF    H13 3822   1.449   2.509   3.660 -1.9700  0.5161  1.7515
  295THF     O1 3823   5.023   1.460   3.370 -0.3259 -0.3766 -0.5312
  295THF     C2 3824   5.098   1.582   3.386 -0.4274 -0.3071 -1.0098
  295THF     C3 3825   5.024   1.394   3.503 -0.4543 -0.4335  0.1085
  295THF     H4 3826   5.069   1.664   3.320  0.5752 -0.4950 -1.7075
  295THF     H5 3827   5.203   1.563   3.365  0.3692  0.2279  2.0603
  295THF     H6 3828   4.922   1.368   3.532 -0.9776  0.9600 -0.4309
  295THF     H7 3829   5.074   1.298   3.513 -0.0200 -0.2459 -0.2460
  295THF     C8 3830   5.062   1.491   3.610 -0.0021 -0.5126 -0.6756
  295THF     C9 3831   5.088   1.616   3.529 -0.4083 -0.0090 -0.1684
  295THF    H10 3832   5.151   1.459   3.664 -0.1562 -0.0193 -0.1281
  295THF    H11 3833   4.985   1.506   3.685 -0.7907  0.8210 -1.6928
  295THF    H12 3834   4.996   1.671   3.543  1.4560  2.7584  2.5007
  295THF    H13 3835   5.174   1.672   3.567 -0.4059  0.0053 -0.1961
  296THF     O1 3836   3.921   5.216   4.715 -0.6337  0.0883 -0.6708
  296THF     C2 3837   3.957   5.124   4.610  0.4919  0.2945  0.5428
  296THF     C3 3838   3.889   5.344   4.657 -0.4786  0.3983 -0.1845
  296THF     H4 3839   3.867   5.072   4.578  1.0229 -1.5697  1.8948
  296THF     H5 3840   4.028   5.045   4.633 -0.8189 -1.5522 -1.4065
  296THF     H6 3841   3.785   5.367   4.679 -0.0109  0.4519  2.2513
  296THF     H7 3842   3.960   5.408   4.710  0.8250  1.7826 -3.3611
  296THF     C8 3843   3.933   5.340   4.510  0.0790  0.2019 -0.1826
  296THF     C9 3844   4.013   5.209   4.500  0.7187  0.0807  0.0983
  296THF    H10 3845   3.997   5.427   4.496  0.0191  0.0519 -1.6434
  296THF    H11 3846   3.842   5.333   4.450 -0.1481  0.3421  0.1447
  296THF    H12 3847   4.009   5.153   4.406  0.9846 -1.8583  1.1948
  296THF    H13 3848   4.117   5.229   4.526  0.3240  0.0642  1.7412
  297THF     O1 3849   0.652   3.877   3.197 -0.8850  0.4460  0.7505
  297THF     C2 3850   0.620   3.899   3.053 -0.0604 -0.0038  0.4035
  297THF     C3 3851   0.570   3.959   3.276 -0.4754  1.0777 -0.3219
  297THF     H4 3852   0.624   3.806   2.997 -2.5612 -0.3885  0.7710
  297THF     H5 3853   0.686   3.970   3.003 -0.8704 -0.3040 -1.1676
  297THF     H6 3854   0.558   3.919   3.376 -1.5263  2.5480  0.1826
  297THF     H7 3855   0.594   4.064   3.292 -0.5726  1.2980 -1.5061
  297THF     C8 3856   0.435   3.952   3.199  0.4143 -0.8723 -0.4429
  297THF     C9 3857   0.471   3.930   3.053 -0.0254 -0.5014  0.6333
  297THF    H10 3858   0.373   4.041   3.217 -1.2276 -2.2588  1.1173
  297THF    H11 3859   0.374   3.873   3.243  1.7557 -2.0061 -0.5631
  297THF    H12 3860   0.422   3.837   3.023  1.4543 -0.8164 -0.9537
  297THF    H13 3861   0.450   4.012   2.984 -1.1264 -2.3241 -1.3203
  298THF     O1 3862   2.604   4.539   2.842 -0.1860 -0.4222 -0.2504
  298THF     C2 3863   2.483   4.586   2.782  0.1491  0.3229 -0.0340
  298THF     C3 3864   2.658   4.442   2.758 -0.1999 -0.2887  0.7551
  298THF     H4 3865   2.512   4.669   2.717  2.4255 -0.6962 -0.4314
  298THF     H5 3866   2.410   4.636   2.846 -1.0567  1.0178 -1.8971
  298THF     H6 3867   2.714   4.495   2.680  0.2592  0.2157  1.4225
  298THF     H7 3868   2.734   4.391   2.816  1.3019  1.5786  0.5490
  298THF     C8 3869   2.542   4.362   2.700  0.1336 -0.5040  0.1315
  298THF     C9 3870   2.424   4.460   2.716  0.4995 -0.0615  0.3649
  298THF    H10 3871   2.524   4.277   2.766 -1.2722  2.1398  3.4934
  298THF    H11 3872   2.557   4.321   2.600  1.6814 -2.5674  1.1289
  298THF    H12 3873   2.374   4.470   2.620  0.9297 -0.1482  0.1298
  298THF    H13 3874   2.352   4.410   2.781  0.7736 -2.4806 -1.0748
  299THF     O1 3875   2.197   4.885   5.459 -0.7233  0.2101 -0.3402
  299THF     C2 3876   2.235   4.871   5.595  0.2473 -0.6060  0.5346
  299THF     C3 3877   2.084   4.808   5.439 -0.0188  0.9792 -0.7789
  299THF     H4 3878   2.200   4.952   5.660 -1.7951 -1.9955  1.2912
  299THF     H5 3879   2.343   4.859   5.600  0.2440 -0.4127  1.1828
  299THF     H6 3880   2.003   4.857   5.494 -0.8560 -0.1442 -0.9975
  299THF     H7 3881   2.066   4.791   5.334 -0.8569 -1.5422 -0.2766
  299THF     C8 3882   2.111   4.680   5.517 -0.1427 -0.7820  0.3436
  299THF     C9 3883   2.176   4.741   5.641  0.0580  0.1601 -0.4202
  299THF    H10 3884   2.184   4.611   5.475 -1.5584 -1.5789 -0.9264
  299THF    H11 3885   2.026   4.616   5.540  0.2775 -1.0627  1.1376
  299THF    H12 3886   2.093   4.763   5.709 -0.2384  0.1383 -0.7703
  299THF    H13 3887   2.251   4.686   5.698  0.3888  0.8562 -0.1683
  300THF     O1 3888   4.850   0.689   1.485  0.7001  0.5076  0.1204
  300THF     C2 3889   4.809   0.667   1.616  0.4301  0.2837 -0.7495
  300THF     C3 3890   4.774   0.627   1.381  0.7865  0.6058 -1.0517
  300THF     H4 3891   4.772   0.760   1.657  1.1004 -0.1478  0.9395
  300THF     H5 3892   4.894   0.633   1.676 -1.3439 -0.2245  1.6039
  300THF     H6 3893   4.749   0.685   1.293 -0.5129  2.2710  0.3437
  300THF     H7 3894   4.823   0.533   1.354  0.4241 -0.6220  2.0978
  300THF     C8 3895   4.641   0.586   1.453  0.2134 -0.2652  0.1529
  300THF     C9 3896   4.691   0.565   1.598 -0.0716 -0.0281 -0.4483
  300THF    H10 3897   4.600   0.497   1.406  1.7846  0.2598 -2.3909
  300THF    H11 3898   4.560   0.659   1.455 -0.0567 -0.5797  0.8418
  300THF    H12 3899   4.616   0.560   1.677 -2.5815  0.0957 -2.6495
  300THF    H13 3900   4.738   0.466   1.601 -2.4562 -1.2467 -0.3032
  301THF     O1 3901   0.776   4.363   0.883 -0.3304  0.1495  0.8075
  301THF     C2 3902   0.761   4.452   0.985 -0.6760 -0.8108 -0.3370
  301THF     C3 3903   0.896   4.385   0.812  0.1125 -0.5526  0.3427
  301THF     H4 3904   0.839   4.432   1.059 -1.9849 -0.3428  1.2351
  301THF     H5 3905   0.666   4.465   1.037 -1.2303 -0.0222 -1.4922
  301THF     H6 3906   0.980   4.332   0.857 -0.2826 -1.6978 -0.2431
  301THF     H7 3907   0.893   4.342   0.712 -0.7730 -1.0089  0.5600
  301THF     C8 3908   0.922   4.541   0.821 -0.7853  0.5745 -0.3157
  301THF     C9 3909   0.814   4.576   0.918  0.0297  0.7782 -0.1670
  301THF    H10 3910   0.908   4.591   0.725  1.6108  1.4064 -0.3188
  301THF    H11 3911   1.020   4.558   0.867 -1.1040 -1.1989  1.1220
  301THF    H12 3912   0.837   4.656   0.989  0.3607  1.9029 -1.5158
  301THF    H13 3913   0.731   4.618   0.862 -0.5104 -1.8962 -1.5287
  302THF     O1 3914   1.652   0.063   3.535  0.0241  0.1077  0.8981
  302THF     C2 3915   1.757   0.108   3.620 -0.1204 -0.9820  0.3145
  302THF     C3 3916   1.709  -0.013   3.428 -0.1250  0.4204  0.2532
  302THF     H4 3917   1.744   0.102   3.728 -0.2435 -1.1116  0.2929
  302THF     H5 3918   1.770   0.216   3.614  0.0856 -0.9928  0.5557
  302THF     H6 3919   1.632  -0.080   3.390 -0.6286 -0.1634  2.1582
  302THF     H7 3920   1.729   0.058   3.348  2.0605  0.5281  0.8311
  302THF     C8 3921   1.840  -0.072   3.476  0.8001 -0.2516 -0.3473
  302THF     C9 3922   1.881   0.043   3.560 -0.0727  0.5909 -0.0271
  302THF    H10 3923   1.917  -0.100   3.404  1.8083 -1.1687  1.0373
  302THF    H11 3924   1.827  -0.165   3.532  1.9307 -1.7146 -2.3617
  302THF    H12 3925   1.956   0.017   3.634  1.4044 -2.2999 -2.3267
  302THF    H13 3926   1.918   0.121   3.493 -0.2597  2.3561  1.8478
  303THF     O1 3927   0.095   1.391   4.087  0.5452  0.3725  0.6484
  303THF     C2 3928   0.183   1.326   3.991 -0.2527  0.1347 -0.2654
  303THF     C3 3929  -0.041   1.366   4.047  0.0680  0.2490 -0.2860
  303THF     H4 3930   0.283   1.308   4.029  0.0629  1.4979 -0.4079
  303THF     H5 3931   0.199   1.389   3.903  1.0665  0.2778  0.0634
  303THF     H6 3932  -0.098   1.385   4.138 -1.2747  2.2153 -1.4589
  303THF     H7 3933  -0.084   1.429   3.970 -1.7448 -0.5383  0.0352
  303THF     C8 3934  -0.035   1.224   3.993  0.3957  0.3540  0.4419
  303THF     C9 3935   0.111   1.193   3.971  0.3211 -0.2851 -0.5331
  303THF    H10 3936  -0.095   1.207   3.903  0.9406  0.4778  0.0524
  303THF    H11 3937  -0.065   1.155   4.072  1.3900 -1.5241 -0.7490
  303THF    H12 3938   0.144   1.130   4.054 -1.1107  1.4940  1.5044
  303THF    H13 3939   0.128   1.146   3.874 -2.3554  0.0522 -1.2601
  304THF     O1 3940   0.070   0.775   2.179 -0.3575 -0.2079 -0.5642
  304THF     C2 3941   0.055   0.664   2.268 -0.9906  0.7832 -0.4102
  304THF     C3 3942  -0.002   0.741   2.060 -0.2497 -0.5203  0.2294
  304THF     H4 3943  -0.045   0.652   2.310 -0.1283  0.2146  1.5721
  304THF     H5 3944   0.125   0.668   2.350  0.3027  2.0942 -1.5209
  304THF     H6 3945  -0.109   0.739   2.081  0.0708  2.1094  2.6843
  304THF     H7 3946   0.016   0.810   1.978 -1.8845 -0.6215 -0.2534
  304THF     C8 3947   0.049   0.600   2.037  0.0504  0.4351 -0.3358
  304THF     C9 3948   0.099   0.549   2.172  0.2828 -0.4441  0.4047
  304THF    H10 3949   0.131   0.590   1.966 -1.5689  0.5317 -2.3172
  304THF    H11 3950  -0.031   0.535   2.002  0.6553 -0.0459 -0.8566
  304THF    H12 3951   0.058   0.452   2.201  0.8647 -0.3059  1.7860
  304THF    H13 3952   0.208   0.546   2.180  0.3059 -1.1605 -0.0647
  305THF     O1 3953   0.765   2.047   1.721 -0.0154  0.3324  0.2398
  305THF     C2 3954   0.685   2.159   1.758 -0.2995  0.3407  0.5251
  305THF     C3 3955   0.670   1.967   1.647 -0.9196  0.2820  0.6343
  305THF     H4 3956   0.748   2.236   1.802 -0.0966 -0.4334  1.6368
  305THF     H5 3957   0.607   2.145   1.833  0.4844 -0.2250  1.2453
  305THF     H6 3958   0.724   1.909   1.572 -1.9185  0.9271 -0.6292
  305THF     H7 3959   0.619   1.898   1.715  0.2184 -0.2604  0.9617
  305THF     C8 3960   0.581   2.060   1.565 -0.3338 -0.0285  0.5817
  305THF     C9 3961   0.616   2.196   1.621  0.4955 -0.9597 -1.0233
  305THF    H10 3962   0.477   2.030   1.565 -0.6627  1.0778  0.6238
  305THF    H11 3963   0.617   2.066   1.462 -1.6948 -0.5729  0.0535
  305THF    H12 3964   0.675   2.260   1.555 -0.5804  1.0361 -0.1229
  305THF    H13 3965   0.532   2.263   1.636  0.7471 -0.9382  0.3957
  306THF     O1 3966   4.733   1.182   2.910 -0.5421 -0.0027  0.2592
  306THF     C2 3967   4.808   1.244   2.807  0.1407  0.7376 -0.1450
  306THF     C3 3968   4.601   1.163   2.859 -0.3955  0.3047 -0.1173
  306THF     H4 3969   4.824   1.168   2.730  1.5749  0.3335  0.5109
  306THF     H5 3970   4.905   1.274   2.846  0.5129 -3.0022  2.2937
  306THF     H6 3971   4.592   1.073   2.798 -0.7728  0.7712 -0.7663
  306THF     H7 3972   4.530   1.146   2.940 -2.1906 -0.0156 -1.6875
  306THF     C8 3973   4.581   1.300   2.782 -0.3731 -0.1332  0.0449
  306THF     C9 3974   4.716   1.351   2.761  0.0544 -0.1084  0.4326
  306THF    H10 3975   4.531   1.376   2.844 -0.0152  0.6505 -0.6113
  306THF    H11 3976   4.518   1.302   2.693 -0.1120 -1.7718 -0.2007
  306THF    H12 3977   4.736   1.379   2.658 -3.7308  0.3955 -0.2875
  306THF    H13 3978   4.726   1.445   2.814  0.9841 -0.2028  0.4425
  307THF     O1 3979   3.176   1.032   1.367  0.2088 -0.9072 -0.1233
  307THF     C2 3980   3.161   1.117   1.482 -0.2451  0.1025  0.0686
  307THF     C3 3981   3.049   0.981   1.333  0.1759 -0.2102 -0.2995
  307THF     H4 3982   3.146   1.222   1.455  2.5844  0.7788  0.7982
  307THF     H5 3983   3.245   1.094   1.547 -0.8415 -0.6139  0.6022
  307THF     H6 3984   3.028   1.004   1.229 -0.1239  0.4662 -0.0972
  307THF     H7 3985   3.048   0.872   1.340  1.0479 -0.1879  0.3480
  307THF     C8 3986   2.951   1.043   1.423  0.6274 -0.2506  0.6597
  307THF     C9 3987   3.037   1.069   1.545 -0.5722  0.1731 -0.3428
  307THF    H10 3988   2.861   0.984   1.438  0.1769 -0.3027 -1.9034
  307THF    H11 3989   2.928   1.140   1.379 -2.4350 -1.3718 -0.4832
  307THF    H12 3990   2.995   1.138   1.618  0.8390  0.3224  0.3691
  307THF    H13 3991   3.057   0.976   1.598  1.2199  0.2643 -0.7914
  308THF     O1 3992   3.255   1.878   1.692  0.5320  0.4309 -0.2360
  308THF     C2 3993   3.351   1.979   1.671 -0.0055  0.0407 -0.6672
  308THF     C3 3994   3.302   1.758   1.635  0.5568  0.0523 -0.6561
  308THF     H4 3995   3.341   2.054   1.748  1.5409  0.0866 -0.4713
  308THF     H5 3996   3.344   2.020   1.570  3.2759 -1.6199 -1.7431
  308THF     H6 3997   3.256   1.666   1.670 -0.6997 -1.0857 -4.7361
  308THF     H7 3998   3.277   1.762   1.529 -0.6030  0.4767 -0.3853
  308THF     C8 3999   3.452   1.758   1.660 -0.6758 -0.7270  0.3693
  308THF     C9 4000   3.488   1.904   1.677 -0.4636 -0.1312  0.5377
  308THF    H10 4001   3.519   1.709   1.588 -0.6930 -0.3386  0.0838
  308THF    H11 4002   3.478   1.703   1.750  2.0061  1.1823  0.8838
  308THF    H12 4003   3.543   1.916   1.771 -0.5838 -2.2478  0.9178
  308THF    H13 4004   3.547   1.936   1.591 -4.4657  2.8150 -1.4378
  309THF     O1 4005   4.824   5.137   1.958 -0.0111 -0.1019 -0.1525
  309THF     C2 4006   4.882   5.259   1.910  0.9672  0.4028  0.4400
  309THF     C3 4007   4.869   5.127   2.098  0.5757  0.5076 -0.2466
  309THF     H4 4008   4.809   5.340   1.917  0.1694 -0.3160  0.6031
  309THF     H5 4009   4.923   5.258   1.809 -0.1118  0.8789 -0.0153
  309THF     H6 4010   4.793   5.177   2.158  2.5766  0.8190  2.2032
  309THF     H7 4011   4.862   5.019   2.109 -2.8622  0.2980 -2.7595
  309THF     C8 4012   5.003   5.208   2.113 -0.4612  0.3761 -0.3304
  309THF     C9 4013   4.996   5.304   1.997  0.0823  0.5155  0.1598
  309THF    H10 4014   5.088   5.141   2.103 -0.7990 -0.1424  0.1954
  309THF    H11 4015   5.014   5.246   2.215 -0.9690 -1.0700  0.2972
  309THF    H12 4016   4.982   5.404   2.036 -2.3820 -0.1331  1.1297
  309THF    H13 4017   5.089   5.303   1.940 -0.4061 -0.0746 -0.6435
  310THF     O1 4018   3.226   5.400   2.619  0.1851  0.2903  0.6612
  310THF     C2 4019   3.337   5.419   2.702  0.0150  0.7147 -0.4683
  310THF     C3 4020   3.210   5.519   2.541 -0.4154 -0.0230  0.1745
  310THF     H4 4021   3.434   5.406   2.654  0.8562  0.1143  1.2856
  310THF     H5 4022   3.341   5.357   2.791 -1.4494 -2.2103 -2.2710
  310THF     H6 4023   3.269   5.515   2.449 -0.8085  1.0400 -0.1343
  310THF     H7 4024   3.108   5.533   2.506 -1.7812  1.2127  4.1757
  310THF     C8 4025   3.247   5.627   2.638 -0.1939  0.8212 -0.4663
  310THF     C9 4026   3.335   5.564   2.747  0.8457  0.0561  0.7729
  310THF    H10 4027   3.156   5.666   2.683 -1.0000  2.1409 -3.0328
  310THF    H11 4028   3.305   5.711   2.601  0.5066  0.9600  0.9036
  310THF    H12 4029   3.432   5.611   2.765  0.6769  0.6629  0.1006
  310THF    H13 4030   3.276   5.565   2.839 -0.9125 -1.0722 -0.2819
  311THF     O1 4031   1.863   5.035   4.221  0.2485 -0.0080  0.5412
  311THF     C2 4032   1.765   4.943   4.266 -0.8432  0.2792  0.2095
  311THF     C3 4033   1.846   5.167   4.268 -0.0393 -0.4827 -0.6659
  311THF     H4 4034   1.814   4.856   4.309 -0.8265  0.2800  0.1930
  311THF     H5 4035   1.700   4.902   4.188  0.0754 -0.7032 -0.0712
  311THF     H6 4036   1.939   5.220   4.288  0.6781 -1.9545  0.0093
  311THF     H7 4037   1.787   5.232   4.202  1.0103 -0.5437 -1.7037
  311THF     C8 4038   1.768   5.153   4.398  0.2203  0.2621 -1.1563
  311THF     C9 4039   1.688   5.029   4.369 -0.4930 -0.0989  0.0208
  311THF    H10 4040   1.702   5.236   4.424 -0.8479 -0.7155 -0.6801
  311THF    H11 4041   1.836   5.124   4.478  0.7149  0.9146 -1.3266
  311THF    H12 4042   1.657   4.976   4.459 -2.3935  0.4903 -0.2302
  311THF    H13 4043   1.595   5.067   4.326  0.2649 -1.2579 -2.9473
  312THF     O1 4044   4.712   4.516   3.452  0.6640 -0.1420  0.2285
  312THF     C2 4045   4.778   4.440   3.555  0.6203  0.6829  0.8645
  312THF     C3 4046   4.576   4.475   3.453  0.2891 -0.2907  0.1006
  312THF     H4 4047   4.815   4.516   3.625  1.9297 -0.1689  1.1350
  312THF     H5 4048   4.866   4.387   3.517  2.1428  3.3891  0.3334
  312THF     H6 4049   4.510   4.557   3.423 -0.4479 -1.3500 -1.3039
  312THF     H7 4050   4.569   4.389   3.386 -3.6060  0.0495 -0.1774
  312THF     C8 4051   4.549   4.436   3.600 -0.7526  0.4163  0.0684
  312THF     C9 4052   4.672   4.353   3.623 -0.0327 -0.4854 -0.4773
  312THF    H10 4053   4.460   4.381   3.628  0.6457 -1.1942  1.6411
  312THF    H11 4054   4.534   4.533   3.646 -0.1359  0.4892  0.1258
  312THF    H12 4055   4.705   4.335   3.725  0.0236 -1.7479 -0.7008
  312THF    H13 4056   4.664   4.254   3.578 -3.1002 -0.0070 -1.2552
  313THF     O1 4057   0.050   5.292   0.119 -0.7025  0.1843  0.2005
  313THF     C2 4058   0.016   5.349  -0.009 -0.1547 -0.1331  0.8242
  313THF     C3 4059   0.002   5.373   0.216  1.0269 -0.3632 -0.0651
  313THF     H4 4060  -0.088   5.338  -0.038  0.8992 -1.8019 -2.9915
  313THF     H5 4061   0.070   5.299  -0.089  1.5281  2.1694  0.4139
  313THF     H6 4062  -0.107   5.376   0.215  1.0348  0.6781 -1.9848
  313THF     H7 4063   0.028   5.355   0.321 -0.4740 -0.8222  0.2505
  313THF     C8 4064   0.052   5.500   0.161  0.1994 -0.4297 -0.2635
  313THF     C9 4065   0.058   5.494   0.003 -0.0854  0.0901 -0.1583
  313THF    H10 4066   0.152   5.529   0.192 -0.1905 -1.1790  1.8002
  313THF    H11 4067  -0.019   5.575   0.194 -0.3003 -0.2225 -1.7154
  313THF    H12 4068   0.002   5.569  -0.053  1.2958  0.7765 -0.6595
  313THF    H13 4069   0.165   5.501  -0.015 -0.2425  1.3865 -0.6964
  314THF     O1 4070   1.903   3.604   1.939  0.2877  0.6090 -0.2122
  314THF     C2 4071   1.907   3.545   1.808  0.1676  0.4411 -0.8017
  314THF     C3 4072   1.869   3.491   2.014 -0.2425 -0.0336  0.0915
  314THF     H4 4073   1.950   3.613   1.735  3.2879  0.3659  0.8179
  314THF     H5 4074   1.806   3.521   1.773  0.6128  0.5296 -2.2094
  314THF     H6 4075   1.873   3.524   2.118 -1.0331  2.0675 -0.4926
  314THF     H7 4076   1.769   3.449   2.004  0.1347 -0.4498 -2.8315
  314THF     C8 4077   1.984   3.394   1.974 -1.0282  0.3377  0.6848
  314THF     C9 4078   1.997   3.422   1.830 -0.1879 -0.4719  0.1972
  314THF    H10 4079   1.967   3.287   1.991  2.5203 -0.2347  1.4437
  314THF    H11 4080   2.074   3.424   2.027 -0.5580  1.8282 -0.8710
  314THF    H12 4081   2.092   3.474   1.816 -1.5294  1.8332 -0.9276
  314THF    H13 4082   1.974   3.339   1.763 -1.4749 -1.7935  2.1800
  315THF     O1 4083   3.438   4.745   1.094 -0.0209 -0.4103 -0.1106
  315THF     C2 4084   3.513   4.650   1.024 -0.4496 -0.0311  0.3971
  315THF     C3 4085   3.315   4.679   1.125 -0.1917 -0.1687  0.6274
  315THF     H4 4086   3.546   4.558   1.072  0.1205 -0.6238 -1.0726
  315THF     H5 4087   3.597   4.700   0.975  0.4988 -0.4148  1.5737
  315THF     H6 4088   3.333   4.584   1.175  4.8679  0.0848 -0.1951
  315THF     H7 4089   3.232   4.727   1.178  0.2068  1.6100 -0.2980
  315THF     C8 4090   3.273   4.638   0.984  0.0227  0.1727 -0.5439
  315THF     C9 4091   3.415   4.616   0.911  0.3799  0.0934 -0.3514
  315THF    H10 4092   3.214   4.712   0.931 -1.2029 -1.6289 -1.8291
  315THF    H11 4093   3.216   4.545   0.992  1.2872 -0.4633  1.8696
  315THF    H12 4094   3.434   4.512   0.882  1.7332  0.5269 -1.0777
  315THF    H13 4095   3.413   4.687   0.828 -1.5067 -0.8363 -1.1643
  316THF     O1 4096   2.248   1.770   1.922  0.3957 -0.1064 -0.0300
  316THF     C2 4097   2.161   1.672   1.959  0.2690  0.6647 -0.0899
  316THF     C3 4098   2.375   1.737   1.985 -0.4599  0.8315  0.0350
  316THF     H4 4099   2.174   1.594   1.885 -0.3807  0.8181 -0.3758
  316THF     H5 4100   2.060   1.713   1.952 -0.3904 -1.0485 -1.2217
  316THF     H6 4101   2.446   1.720   1.904 -1.6127  2.0019 -1.2755
  316THF     H7 4102   2.401   1.829   2.037  1.5834 -0.1293  0.8473
  316THF     C8 4103   2.356   1.618   2.079 -0.3539  0.2635  0.5113
  316THF     C9 4104   2.203   1.624   2.098 -0.3513 -0.6557 -0.0097
  316THF    H10 4105   2.420   1.630   2.167  0.1337 -0.0901  0.2158
  316THF    H11 4106   2.390   1.532   2.021  0.4448  1.4004 -0.7623
  316THF    H12 4107   2.152   1.532   2.127 -1.0545 -0.3905 -0.3670
  316THF    H13 4108   2.173   1.699   2.171 -0.5392 -0.4505 -0.2968
  317THF     O1 4109   0.128   4.696   2.151  0.1173 -0.1260 -0.0132
  317THF     C2 4110   0.216   4.603   2.220  0.0215  1.1982  0.1616
  317THF     C3 4111  -0.001   4.636   2.144  0.1622  0.6263  0.6648
  317THF     H4 4112   0.206   4.613   2.328 -0.1348 -0.2958  0.3004
  317THF     H5 4113   0.318   4.613   2.183  0.2860  0.2313  0.6198
  317THF     H6 4114  -0.034   4.637   2.248  4.2314 -0.3812  2.1426
  317THF     H7 4115  -0.077   4.682   2.081 -1.7723 -2.0475  0.8680
  317THF     C8 4116   0.031   4.491   2.106 -0.1899 -0.2831  0.5676
  317THF     C9 4117   0.150   4.471   2.191 -0.1049 -0.0100  0.0505
  317THF    H10 4118   0.063   4.491   2.002  1.2954  1.3392  0.9648
  317THF    H11 4119  -0.035   4.405   2.117  1.8505 -2.1447 -0.9909
  317THF    H12 4120   0.126   4.424   2.287 -0.3936 -0.5718 -0.2921
  317THF    H13 4121   0.212   4.406   2.129 -0.7320 -0.6781  0.0985
  318THF     O1 4122   5.379   4.504   4.322 -0.0461 -0.3150 -0.6135
  318THF     C2 4123   5.363   4.444   4.452  0.2478 -0.2896  0.0724
  318THF     C3 4124   5.256   4.488   4.260 -0.1375  0.2872  0.0106
  318THF     H4 4125   5.327   4.519   4.522  0.2158  0.8510 -1.1269
  318THF     H5 4126   5.463   4.411   4.482  0.8113  0.8020 -0.5269
  318THF     H6 4127   5.188   4.572   4.279 -1.0265 -0.7500  1.6080
  318THF     H7 4128   5.272   4.487   4.152 -0.9073 -2.8715 -0.1723
  318THF     C8 4129   5.192   4.359   4.318 -0.1347  0.5466  0.2790
  318THF     C9 4130   5.275   4.328   4.444  0.0207 -0.1710  0.0061
  318THF    H10 4131   5.200   4.272   4.252  0.1281  0.7429  0.0470
  318THF    H11 4132   5.088   4.363   4.350 -0.7890  0.6245 -1.6999
  318THF    H12 4133   5.231   4.321   4.543  4.1782  1.8239  2.2419
  318THF    H13 4134   5.328   4.232   4.445 -0.4110 -0.4093  0.3731
  319THF     O1 4135   5.349   3.129   4.031  0.9618  0.1841  0.1500
  319THF     C2 4136   5.415   2.996   4.048  0.1494  0.4937 -0.1178
  319THF     C3 4137   5.228   3.091   3.967  0.6283 -0.8007  0.0771
  319THF     H4 4138   5.396   2.965   4.150  3.3665 -0.8004  0.2098
  319THF     H5 4139   5.523   3.003   4.057  0.0464  0.7239  1.0157
  319THF     H6 4140   5.154   3.059   4.041  0.1274  2.1393  0.9671
  319THF     H7 4141   5.179   3.169   3.908  0.4782  1.0885  2.5129
  319THF     C8 4142   5.260   2.983   3.870 -0.1971 -0.2139 -0.5325
  319THF     C9 4143   5.372   2.904   3.935  0.3600 -0.4089 -0.2004
  319THF    H10 4144   5.307   3.019   3.779 -0.0505  0.6754 -0.1112
  319THF    H11 4145   5.171   2.925   3.846  0.6922 -1.5093 -0.8317
  319THF    H12 4146   5.352   2.804   3.975  1.8677 -1.1962 -1.3056
  319THF    H13 4147   5.448   2.893   3.858 -1.6274 -1.5338 -2.1147
  320THF     O1 4148   4.378   3.259   0.119 -0.4804 -0.3019  0.0059
  320THF     C2 4149   4.332   3.300   0.245  0.0404 -0.2362 -0.3458
  320THF     C3 4150   4.457   3.139   0.132 -0.2252 -0.0309  0.3328
  320THF     H4 4151   4.236   3.350   0.244  0.4507  0.6963 -3.3596
  320THF     H5 4152   4.406   3.371   0.282 -0.9051  1.4149 -1.4910
  320THF     H6 4153   4.447   3.090   0.035  0.0312 -0.0924  0.3354
  320THF     H7 4154   4.558   3.171   0.158 -0.5750  1.7497 -0.3651
  320THF     C8 4155   4.381   3.055   0.239  0.0486 -0.5249  0.0806
  320THF     C9 4156   4.339   3.175   0.333 -0.1788 -0.0646  0.2892
  320THF    H10 4157   4.442   2.977   0.284  1.0942  0.8043  1.0542
  320THF    H11 4158   4.295   3.022   0.181  1.3969  0.1441 -2.4574
  320THF    H12 4159   4.247   3.162   0.389  0.0413 -1.1183  0.4110
  320THF    H13 4160   4.418   3.182   0.408 -1.7176  0.0089  1.9439
  321THF     O1 4161   2.496   2.497   0.346  0.1275  0.0102 -0.3439
  321THF     C2 4162   2.548   2.551   0.463 -0.3437 -1.2419  0.0491
  321THF     C3 4163   2.475   2.357   0.354 -0.2968 -0.3588  0.4540
  321THF     H4 4164   2.520   2.657   0.473  0.5888 -1.2058  4.5130
  321THF     H5 4165   2.655   2.545   0.481  0.2283  3.4676 -0.3025
  321THF     H6 4166   2.379   2.340   0.305  0.3265  3.1683 -2.5112
  321THF     H7 4167   2.566   2.315   0.311  0.1736 -0.1018  1.1890
  321THF     C8 4168   2.455   2.333   0.503 -0.1613 -0.3113  0.2689
  321THF     C9 4169   2.478   2.467   0.570 -0.3745 -0.3892  0.0938
  321THF    H10 4170   2.534   2.271   0.546  2.2004  2.1064 -0.3460
  321THF    H11 4171   2.352   2.299   0.519 -0.2551 -0.0133  0.3185
  321THF    H12 4172   2.385   2.515   0.600 -0.2386  2.0109 -2.9122
  321THF    H13 4173   2.539   2.458   0.660 -2.4544 -0.4493  1.5652
  322THF     O1 4174   1.811   5.388   0.954  0.4554 -0.3359  0.5623
  322THF     C2 4175   1.929   5.329   0.912  0.6403 -0.0634 -0.5020
  322THF     C3 4176   1.843   5.496   1.042 -0.0465  0.1275 -0.2334
  322THF     H4 4177   1.954   5.388   0.823  1.1196 -1.2169 -1.1546
  322THF     H5 4178   1.919   5.227   0.876 -2.1245 -0.3136  0.7084
  322THF     H6 4179   1.820   5.587   0.987  2.6954  1.5281  0.7152
  322THF     H7 4180   1.782   5.488   1.131 -3.0995  1.1046 -2.0718
  322THF     C8 4181   1.992   5.479   1.075  0.2926  0.0127  0.2410
  322THF     C9 4182   2.026   5.345   1.030 -0.2315 -0.6491  0.8213
  322THF    H10 4183   2.013   5.505   1.179  0.8187 -0.5200  0.2707
  322THF    H11 4184   2.046   5.549   1.011 -0.0254  1.8235  1.8276
  322THF    H12 4185   2.132   5.333   1.009 -0.5284 -0.5153 -0.9076
  322THF    H13 4186   1.991   5.280   1.110 -1.0479 -0.6974  0.4297
  323THF     O1 4187   5.259   0.487   2.169  0.1139  0.5065 -0.2190
  323THF     C2 4188   5.163   0.458   2.273 -0.2103  0.7942  0.3854
  323THF     C3 4189   5.204   0.472   2.036 -0.2308  0.7622 -0.3025
  323THF     H4 4190   5.124   0.551   2.313  0.7268  2.1599 -1.7064
  323THF     H5 4191   5.216   0.408   2.354 -1.0184 -0.5693  0.1181
  323THF     H6 4192   5.145   0.562   2.020 -2.1347 -0.4864 -0.6767
  323THF     H7 4193   5.279   0.449   1.960 -0.9729  0.6227 -1.0070
  323THF     C8 4194   5.108   0.350   2.059  0.6556 -0.3725  0.1695
  323THF     C9 4195   5.064   0.365   2.203 -0.2143 -0.2057  0.6333
  323THF    H10 4196   5.156   0.253   2.048  0.5377 -0.6316  1.8007
  323THF    H11 4197   5.024   0.347   1.989  0.0535 -1.2381  0.9074
  323THF    H12 4198   4.965   0.410   2.207 -0.8433 -1.5590  0.5621
  323THF    H13 4199   5.060   0.269   2.254  0.6520  0.5554  2.2413
  324THF     O1 4200   4.765   4.472   3.124  0.1740  0.1122  0.2841
  324THF     C2 4201   4.867   4.371   3.131  0.0435 -0.0654 -0.1194
  324THF     C3 4202   4.650   4.400   3.070  0.1831 -0.2009 -0.1092
  324THF     H4 4203   4.840   4.313   3.219 -1.4396  1.3854  0.4256
  324THF     H5 4204   4.966   4.414   3.140 -0.3832  1.2538 -1.3462
  324THF     H6 4205   4.601   4.369   3.162  0.0834  0.3238  0.0220
  324THF     H7 4206   4.597   4.476   3.012  0.2608 -0.1416 -0.1017
  324THF     C8 4207   4.713   4.299   2.977 -0.1585  1.3396 -0.1041
  324THF     C9 4208   4.857   4.293   3.001 -0.5078 -0.9623  0.4464
  324THF    H10 4209   4.694   4.332   2.874 -0.8126  4.6218  0.9437
  324THF    H11 4210   4.674   4.200   3.002  2.2163  0.1423 -0.8760
  324THF    H12 4211   4.900   4.192   3.003 -1.3206 -1.3028  1.1150
  324THF    H13 4212   4.916   4.350   2.929  1.0378 -3.0388 -0.0466
  325THF     O1 4213   5.193   2.747   0.096 -0.2699 -0.6313  0.2417
  325THF     C2 4214   5.290   2.689   0.182 -0.2865 -0.2990  0.6559
  325THF     C3 4215   5.068   2.668   0.099 -1.3294 -0.3960 -0.2349
  325THF     H4 4216   5.336   2.753   0.257 -1.1121  0.7252  0.3234
  325THF     H5 4217   5.361   2.631   0.123  1.5249  0.8694  1.5912
  325THF     H6 4218   4.994   2.731   0.149 -0.2997  2.3696 -1.9468
  325THF     H7 4219   5.023   2.634   0.005 -0.4767 -1.0713 -0.4100
  325THF     C8 4220   5.092   2.548   0.181 -0.2575  0.5628 -0.1103
  325THF     C9 4221   5.212   2.591   0.267  0.1046  0.0640  0.2166
  325THF    H10 4222   5.132   2.464   0.125 -0.6520 -0.1634  0.6797
  325THF    H11 4223   5.008   2.510   0.238  0.2562 -3.3382 -1.6494
  325THF    H12 4224   5.173   2.631   0.361  0.3916 -0.6632  0.6565
  325THF    H13 4225   5.271   2.507   0.305 -0.5095 -0.9519 -0.9912
  326THF     O1 4226   4.019   0.259   0.444  0.4633  0.3785  0.0319
  326THF     C2 4227   3.977   0.206   0.579  0.0840 -1.1824  0.3926
  326THF     C3 4228   3.910   0.339   0.398  0.1946  0.8647  0.4021
  326THF     H4 4229   4.059   0.207   0.651  0.2803 -1.0622  0.1712
  326THF     H5 4230   3.936   0.105   0.579 -1.5877 -0.5432  1.0382
  326THF     H6 4231   3.951   0.403   0.320  0.8840 -1.6901 -1.4724
  326THF     H7 4232   3.830   0.279   0.356 -0.6506  2.1222  0.1710
  326THF     C8 4233   3.866   0.409   0.526 -0.1802  0.3363 -0.6958
  326THF     C9 4234   3.866   0.294   0.623 -0.2703  0.1496 -0.0305
  326THF    H10 4235   3.766   0.453   0.518 -1.3158 -1.1152  3.2483
  326THF    H11 4236   3.926   0.493   0.561 -0.9244  0.3680  0.5756
  326THF    H12 4237   3.879   0.335   0.723  0.6083 -1.5009  0.5771
  326THF    H13 4238   3.778   0.230   0.630 -0.8198  0.9491  0.5038
  327THF     O1 4239   4.019   2.202   0.140  0.4606 -0.0013 -0.2919
  327THF     C2 4240   3.984   2.107   0.032  0.2423  0.3908 -0.1476
  327THF     C3 4241   3.995   2.340   0.102 -0.8622 -0.8077  0.2548
  327THF     H4 4242   3.878   2.083   0.039  0.1664  0.5476 -0.7059
  327THF     H5 4243   4.040   2.017   0.059 -0.2454  0.0362 -0.3147
  327THF     H6 4244   3.906   2.381   0.150  1.0666  1.4233  2.1730
  327THF     H7 4245   4.088   2.392   0.125  0.3123 -2.0944 -1.3355
  327THF     C8 4246   3.977   2.324  -0.049 -0.4261 -0.6587  0.0979
  327THF     C9 4247   4.022   2.182  -0.095  0.0441 -0.0904 -0.3296
  327THF    H10 4248   4.040   2.396  -0.103 -2.0559  0.1934 -0.7578
  327THF    H11 4249   3.883   2.368  -0.085  0.1898  1.7699  1.2263
  327THF    H12 4250   3.973   2.143  -0.185 -0.1587  1.3423 -0.8638
  327THF    H13 4251   4.130   2.173  -0.103  0.2598 -1.0652  2.7368
  328THF     O1 4252   1.692   0.056   4.028  0.2262  0.4702  0.5007
  328THF     C2 4253   1.630  -0.061   3.973 -0.3757 -0.1210 -0.1417
  328THF     C3 4254   1.587   0.148   4.040  0.3059 -0.2555  0.4049
  328THF     H4 4255   1.699  -0.145   3.962 -2.2060 -1.4015 -3.5711
  328THF     H5 4256   1.585  -0.040   3.876  1.1322  2.6704 -0.3303
  328THF     H6 4257   1.627   0.241   4.081  0.1606 -0.7199  1.6431
  328THF     H7 4258   1.536   0.179   3.949 -0.3281  0.9698  1.1475
  328THF     C8 4259   1.484   0.067   4.122  0.0508  0.5095  0.2107
  328THF     C9 4260   1.510  -0.075   4.069  0.8500  0.7735 -0.2821
  328THF    H10 4261   1.380   0.100   4.117  0.0489  0.4850  0.0833
  328THF    H11 4262   1.519   0.059   4.225 -0.9300 -1.8901  0.4420
  328THF    H12 4263   1.532  -0.146   4.148  2.0218 -0.0449 -1.3124
  328THF    H13 4264   1.423  -0.124   4.025  1.6860 -0.7384 -0.2964
  329THF     O1 4265   3.442   4.497   3.511 -0.0787  0.3623 -0.0617
  329THF     C2 4266   3.480   4.419   3.401 -0.4330 -0.5231 -0.0033
  329THF     C3 4267   3.535   4.608   3.512  0.4557 -0.2397 -0.5853
  329THF     H4 4268   3.399   4.348   3.386 -0.9130  0.0398 -0.1241
  329THF     H5 4269   3.573   4.366   3.420  0.1634  0.2432 -0.7598
  329THF     H6 4270   3.501   4.698   3.562 -1.9711 -1.2200 -0.3078
  329THF     H7 4271   3.622   4.574   3.569 -0.6770 -0.0387  1.3500
  329THF     C8 4272   3.558   4.642   3.362 -0.5050  0.1952  0.4456
  329THF     C9 4273   3.500   4.519   3.288 -0.4675  0.4657 -0.4841
  329THF    H10 4274   3.665   4.654   3.344 -0.4911 -2.2425 -1.5750
  329THF    H11 4275   3.506   4.736   3.342  0.3728  1.2925  2.8496
  329THF    H12 4276   3.405   4.543   3.240 -1.0178  1.1905  0.9214
  329THF    H13 4277   3.572   4.494   3.210 -1.4738 -1.7633 -0.7769
  330THF     O1 4278   5.371   2.543   1.348  0.5435 -0.2629  0.2967
  330THF     C2 4279   5.361   2.534   1.208  0.6478 -0.0195 -0.4015
  330THF     C3 4280   5.325   2.417   1.401 -0.2262  0.5151  0.0601
  330THF     H4 4281   5.414   2.617   1.162 -0.4078 -0.5982 -2.8065
  330THF     H5 4282   5.260   2.532   1.169  0.0618 -1.9260  1.0584
  330THF     H6 4283   5.355   2.389   1.502 -0.6959  1.0769  0.3587
  330THF     H7 4284   5.217   2.426   1.406 -0.2051  1.5017 -0.8686
  330THF     C8 4285   5.372   2.313   1.296 -0.9989  0.0850 -0.4016
  330THF     C9 4286   5.426   2.400   1.180  0.5074  0.6547 -0.0385
  330THF    H10 4287   5.289   2.250   1.266 -1.7713  0.0464  1.6466
  330THF    H11 4288   5.450   2.246   1.332 -0.2012  1.4158  0.4251
  330THF    H12 4289   5.535   2.400   1.184  0.7322 -1.4645 -3.0368
  330THF    H13 4290   5.396   2.353   1.086  1.3206  1.3461 -0.6629
  331THF     O1 4291   3.335   2.290   5.273 -0.0002  0.4340 -0.2682
  331THF     C2 4292   3.303   2.255   5.412  0.1639 -0.0412  0.1390
  331THF     C3 4293   3.218   2.300   5.196  0.3218  0.7020 -0.4641
  331THF     H4 4294   3.269   2.347   5.460 -0.2786 -0.1840  0.0993
  331THF     H5 4295   3.382   2.213   5.474  2.6147  2.2264 -1.2463
  331THF     H6 4296   3.178   2.401   5.196  0.8234  0.9134  0.3969
  331THF     H7 4297   3.234   2.270   5.093  0.1678  2.0590 -0.9001
  331THF     C8 4298   3.123   2.211   5.262  0.5016 -0.6078 -0.1537
  331THF     C9 4299   3.191   2.165   5.390 -0.0355 -0.4053  0.1457
  331THF    H10 4300   3.089   2.126   5.204  0.3969  0.4145 -1.6672
  331THF    H11 4301   3.028   2.255   5.294  0.8734  0.5545 -0.5859
  331THF    H12 4302   3.127   2.169   5.478  1.1152  2.5064  0.9684
  331THF    H13 4303   3.232   2.066   5.369 -0.7771 -0.6841 -0.0128
  332THF     O1 4304   3.406   3.055   1.489 -0.2053 -0.7560 -0.0228
  332THF     C2 4305   3.456   3.111   1.611  0.1569 -0.3216  0.1839
  332THF     C3 4306   3.476   2.938   1.463 -0.4096 -0.1092 -0.0360
  332THF     H4 4307   3.377   3.175   1.650  0.5828  1.3427 -1.5200
  332THF     H5 4308   3.536   3.182   1.587 -0.6940 -0.1160 -2.4226
  332THF     H6 4309   3.405   2.855   1.454  0.1078 -0.8582  2.1349
  332THF     H7 4310   3.548   2.942   1.381 -1.0968  1.7916 -0.5928
  332THF     C8 4311   3.565   2.910   1.581 -0.0972 -0.0698 -0.4730
  332THF     C9 4312   3.493   2.989   1.690  0.5581 -0.1326 -0.6836
  332THF    H10 4313   3.664   2.956   1.579 -0.3609  0.5447  0.1851
  332THF    H11 4314   3.571   2.803   1.597  1.5041  0.0643  0.0007
  332THF    H12 4315   3.403   2.941   1.728  0.4830 -0.3292 -1.1083
  332THF    H13 4316   3.547   3.024   1.778  0.7668  0.6842 -1.1308
  333THF     O1 4317   3.481   0.687   4.191 -0.0886  0.5405  0.4862
  333THF     C2 4318   3.435   0.556   4.153  0.0384  0.1708  0.4207
  333THF     C3 4319   3.610   0.710   4.147 -0.0066  0.3384  0.2009
  333THF     H4 4320   3.400   0.563   4.050  0.6030  0.4540  0.2449
  333THF     H5 4321   3.361   0.497   4.207 -1.1171  1.8998  0.7781
  333THF     H6 4322   3.613   0.779   4.064 -0.2888  1.1363  0.8417
  333THF     H7 4323   3.672   0.757   4.223 -0.8234  0.2912  0.9148
  333THF     C8 4324   3.670   0.575   4.109  0.3959 -0.8690 -0.1254
  333THF     C9 4325   3.570   0.470   4.147  0.0400  0.0191  0.3271
  333THF    H10 4326   3.768   0.557   4.153  1.6751  0.0042 -2.4715
  333THF    H11 4327   3.676   0.572   4.000  0.0638 -0.0280 -0.1753
  333THF    H12 4328   3.556   0.403   4.062  0.7880 -1.4340  1.3033
  333THF    H13 4329   3.600   0.411   4.234  0.6423 -1.6183 -0.9459
  334THF     O1 4330   1.041   1.205   4.036 -0.4711  0.4118 -0.1079
  334THF     C2 4331   1.013   1.180   4.173  0.5244 -0.0631  0.1785
  334THF     C3 4332   0.945   1.137   3.951 -0.6624 -0.5846 -0.1545
  334THF     H4 4333   1.050   1.261   4.236  1.4589 -0.4754  0.1768
  334THF     H5 4334   1.071   1.094   4.204 -0.8356 -0.9817  0.2696
  334THF     H6 4335   0.929   1.189   3.857  0.3397  0.1884  0.0872
  334THF     H7 4336   0.980   1.034   3.941  0.2317 -0.1961 -1.1639
  334THF     C8 4337   0.820   1.136   4.040 -1.2085  0.1094 -0.1085
  334THF     C9 4338   0.867   1.130   4.185  0.2173 -0.4496  0.2432
  334THF    H10 4339   0.753   1.053   4.019 -0.0605 -0.6631 -0.8129
  334THF    H11 4340   0.766   1.227   4.014  2.6392  2.5567 -0.3472
  334THF    H12 4341   0.816   1.206   4.245  1.4140 -0.5179  1.3781
  334THF    H13 4342   0.868   1.032   4.232 -0.5261 -0.9083 -0.6464
  335THF     O1 4343   0.480   1.101   2.601  0.3842  0.0860  0.3610
  335THF     C2 4344   0.384   1.052   2.698 -0.6402 -0.4256 -0.2623
  335THF     C3 4345   0.478   1.004   2.502 -0.0601  0.1043 -0.2059
  335THF     H4 4346   0.285   1.055   2.653 -0.3234 -2.1933 -1.1427
  335THF     H5 4347   0.386   1.108   2.792  0.2751  1.0896 -1.1420
  335THF     H6 4348   0.388   1.001   2.440 -0.5478 -0.6036  0.5137
  335THF     H7 4349   0.566   1.012   2.438  0.7919  2.1871  1.1200
  335THF     C8 4350   0.471   0.867   2.575  0.6336  0.0643 -0.0413
  335THF     C9 4351   0.425   0.904   2.712  0.6577  0.6046 -0.2575
  335THF    H10 4352   0.563   0.808   2.576  0.1101 -0.7693 -0.1147
  335THF    H11 4353   0.395   0.817   2.515  0.3130  1.1603 -0.5722
  335THF    H12 4354   0.351   0.840   2.759  1.4847 -0.5218 -0.4553
  335THF    H13 4355   0.512   0.914   2.776  1.4646  1.1253 -1.4033
  336THF     O1 4356   4.992   4.356   1.633  0.0470  0.4163 -0.0902
  336THF     C2 4357   4.987   4.220   1.599  0.2642 -0.2083  0.0229
  336THF     C3 4358   4.909   4.376   1.746 -0.4676  0.3729 -0.0112
  336THF     H4 4359   5.083   4.182   1.563 -0.7947 -0.5991 -2.5639
  336THF     H5 4360   4.906   4.204   1.528  0.5768  0.6079 -0.5375
  336THF     H6 4361   4.970   4.407   1.832  0.5754 -3.6022  0.9396
  336THF     H7 4362   4.840   4.459   1.732 -1.1493  0.1164  1.5605
  336THF     C8 4363   4.858   4.240   1.795  0.0967  0.6159  0.4100
  336THF     C9 4364   4.960   4.149   1.738  0.0962 -0.5834  0.9424
  336THF    H10 4365   4.767   4.218   1.740  0.4652 -0.2109  0.1265
  336THF    H11 4366   4.840   4.236   1.902 -0.8000  1.2123  0.2892
  336THF    H12 4367   5.052   4.154   1.796 -0.2610 -0.7729  1.5206
  336THF    H13 4368   4.937   4.043   1.731 -0.8084 -0.3141 -0.9399
  337THF     O1 4369   3.869   4.596   2.908 -0.2273  0.3174  0.3787
  337THF     C2 4370   3.781   4.491   2.904  0.1778  0.6846  0.0179
  337THF     C3 4371   3.819   4.682   2.999  0.3476 -0.1053  0.0041
  337THF     H4 4372   3.785   4.429   2.994  0.3283  1.3748  0.4938
  337THF     H5 4373   3.813   4.427   2.821  3.9471  0.5548  1.3821
  337THF     H6 4374   3.816   4.650   3.103 -1.0974  2.5866  0.8943
  337THF     H7 4375   3.869   4.779   3.000  1.2574 -0.5643 -0.5219
  337THF     C8 4376   3.682   4.698   2.942  0.6459  0.1676 -0.0075
  337THF     C9 4377   3.646   4.558   2.894  0.3935 -0.9831  0.2776
  337THF    H10 4378   3.702   4.766   2.860  0.8149 -1.0288 -0.9881
  337THF    H11 4379   3.611   4.749   3.006  1.6029  1.3970  0.0994
  337THF    H12 4380   3.574   4.510   2.959 -0.0853 -0.0810  0.4362
  337THF    H13 4381   3.617   4.558   2.789 -0.9775  0.4953  0.6140
  338THF     O1 4382   0.056   1.340   2.823 -0.6171 -0.0350  0.2068
  338THF     C2 4383   0.010   1.362   2.955  0.2158  0.5766 -0.0603
  338THF     C3 4384   0.174   1.427   2.808 -0.2414  0.7904  0.9298
  338THF     H4 4385  -0.072   1.297   2.989 -0.2428 -0.2132 -2.4388
  338THF     H5 4386  -0.027   1.464   2.964  0.8850  0.8294 -0.1233
  338THF     H6 4387   0.237   1.420   2.719  1.1683  1.4160  1.8487
  338THF     H7 4388   0.138   1.528   2.825 -2.3602 -0.1856  2.7948
  338THF     C8 4389   0.253   1.385   2.926  0.5899 -0.4538  0.4524
  338THF     C9 4390   0.141   1.360   3.035 -0.1172  0.3637 -0.0202
  338THF    H10 4391   0.327   1.458   2.957  3.0340 -1.8185 -1.7804
  338THF    H11 4392   0.300   1.288   2.906  0.2857 -0.9816  2.1604
  338THF    H12 4393   0.152   1.262   3.080 -1.1519 -1.0622 -2.6471
  338THF    H13 4394   0.140   1.437   3.113  0.2891  1.1204 -0.7547
  339THF     O1 4395   3.924   2.810   4.909  0.1682  0.7483  0.2211
  339THF     C2 4396   4.043   2.843   4.843 -0.2726  0.6452  0.2447
  339THF     C3 4397   3.832   2.900   4.870  0.7615  0.4646  0.8277
  339THF     H4 4398   4.039   2.818   4.737  1.7143 -1.7819  0.6307
  339THF     H5 4399   4.127   2.780   4.875 -0.4001  0.9822  1.2669
  339THF     H6 4400   3.789   2.882   4.771 -0.0589  0.3968  1.1819
  339THF     H7 4401   3.751   2.887   4.942 -1.3798  0.3689 -1.4532
  339THF     C8 4402   3.901   3.029   4.883  0.0785 -0.9217  0.5787
  339THF     C9 4403   4.050   2.988   4.873  0.0231 -0.1923 -0.0808
  339THF    H10 4404   3.875   3.070   4.980 -2.6588 -1.6191  0.2077
  339THF    H11 4405   3.882   3.102   4.804  1.5943 -0.2902  0.7650
  339THF    H12 4406   4.111   3.039   4.798 -1.2158  0.7833 -0.4592
  339THF    H13 4407   4.092   2.999   4.973 -3.5751 -1.7454  1.7970
  340THF     O1 4408   3.413   0.345   1.515 -0.3684  0.0059  0.3414
  340THF     C2 4409   3.369   0.206   1.518  0.3508  0.2403 -0.5435
  340THF     C3 4410   3.496   0.377   1.623  0.2713  0.1010 -0.2843
  340THF     H4 4411   3.443   0.143   1.469 -0.6532 -0.8733 -0.6666
  340THF     H5 4412   3.269   0.191   1.476 -0.1979  0.8009  0.5040
  340THF     H6 4413   3.592   0.325   1.618  0.1780 -0.3553  1.6733
  340THF     H7 4414   3.513   0.482   1.644 -0.2812  0.1188  0.1008
  340THF     C8 4415   3.415   0.307   1.728  0.1920  0.0456  0.2566
  340THF     C9 4416   3.366   0.180   1.670 -0.1856 -0.1408 -0.2384
  340THF    H10 4417   3.335   0.376   1.752  2.2672  2.3354  0.9632
  340THF    H11 4418   3.476   0.299   1.818 -1.1720 -0.5532  1.1405
  340THF    H12 4419   3.427   0.095   1.700  0.8794  0.6549 -0.0669
  340THF    H13 4420   3.267   0.152   1.703 -0.5982  0.9626 -0.4991
  341THF     O1 4421   0.767   3.617   0.087  0.0686 -0.4643  0.5726
  341THF     C2 4422   0.657   3.709   0.069  0.0689 -0.1456  0.4081
  341THF     C3 4423   0.768   3.580   0.223 -0.0287 -0.3284  0.1848
  341THF     H4 4424   0.570   3.644   0.075  0.0524 -0.4048 -1.8292
  341THF     H5 4425   0.666   3.750  -0.032 -2.6115 -0.8085 -0.1795
  341THF     H6 4426   0.680   3.526   0.258  0.0535 -0.9099 -0.4917
  341THF     H7 4427   0.860   3.527   0.247  0.0389 -0.1587  0.3080
  341THF     C8 4428   0.761   3.725   0.279  0.5277  0.4538 -0.4778
  341THF     C9 4429   0.664   3.802   0.191 -0.1643 -0.2271 -0.5003
  341THF    H10 4430   0.862   3.764   0.276  1.3040 -1.3414  0.6658
  341THF    H11 4431   0.723   3.717   0.380  0.1645 -0.7656 -0.6926
  341THF    H12 4432   0.565   3.797   0.236 -0.2833  0.0929 -0.7251
  341THF    H13 4433   0.695   3.904   0.166 -0.1197  0.0015  0.4338
  342THF     O1 4434   4.228   5.362   4.773  0.3901  0.6531  0.1137
  342THF     C2 4435   4.275   5.486   4.725 -0.7808  0.1075  0.5630
  342THF     C3 4436   4.328   5.273   4.782 -0.3260  0.0707 -0.0543
  342THF     H4 4437   4.315   5.551   4.802  0.4929 -1.6206  1.4072
  342THF     H5 4438   4.194   5.545   4.682 -0.3029  2.3784  2.5752
  342THF     H6 4439   4.385   5.314   4.865 -1.8476  2.3406 -0.0322
  342THF     H7 4440   4.309   5.170   4.809 -0.3685 -0.5194 -2.1394
  342THF     C8 4441   4.398   5.297   4.644 -0.6157 -0.1419 -0.2797
  342THF     C9 4442   4.385   5.446   4.626  0.2236 -0.0693  0.0818
  342THF    H10 4443   4.348   5.249   4.560  0.6816 -0.2633 -1.0239
  342THF    H11 4444   4.504   5.269   4.644 -0.6642 -0.3285 -0.1403
  342THF    H12 4445   4.475   5.502   4.652  0.1138  0.8260 -1.3555
  342THF    H13 4446   4.362   5.476   4.524 -0.7934  0.2336  0.3849
  343THF     O1 4447   0.083   0.387   0.297 -0.0388  0.0342  0.2348
  343THF     C2 4448  -0.033   0.325   0.352 -0.6115  0.0881 -0.5482
  343THF     C3 4449   0.128   0.481   0.393 -0.1361  0.3161 -0.0785
  343THF     H4 4450  -0.006   0.252   0.428  2.0604  1.3515 -0.1343
  343THF     H5 4451  -0.103   0.286   0.279 -0.9172  2.5254 -1.6760
  343THF     H6 4452   0.218   0.440   0.438 -0.3118  0.5238  0.4721
  343THF     H7 4453   0.150   0.573   0.340 -0.6949  0.6128  0.1976
  343THF     C8 4454   0.013   0.505   0.487  0.5542  0.0070 -0.8025
  343THF     C9 4455  -0.104   0.441   0.422  0.4924  0.2714  0.7306
  343THF    H10 4456  -0.012   0.610   0.503 -2.1635 -0.5499 -0.9310
  343THF    H11 4457   0.035   0.463   0.585 -0.2520  1.6387  0.1271
  343THF    H12 4458  -0.194   0.424   0.481 -2.0189  2.9362 -1.9268
  343THF    H13 4459  -0.138   0.504   0.339  2.5088 -2.1750 -2.2012
  344THF     O1 4460   4.581   1.510   3.221 -0.2682 -0.0504 -0.4207
  344THF     C2 4461   4.711   1.491   3.275  0.4533  0.6659 -0.4690
  344THF     C3 4462   4.569   1.406   3.122  1.1461 -0.3544 -0.0217
  344THF     H4 4463   4.731   1.551   3.364  1.0523  0.0036 -0.1572
  344THF     H5 4464   4.791   1.514   3.204  1.2220  1.7700  0.7175
  344THF     H6 4465   4.466   1.399   3.088  1.5882 -0.8408 -1.3159
  344THF     H7 4466   4.628   1.441   3.037 -1.4311  0.9828 -1.3553
  344THF     C8 4467   4.614   1.286   3.203 -0.2774  0.4233 -0.2662
  344THF     C9 4468   4.715   1.347   3.305 -0.0776 -0.3835  0.8135
  344THF    H10 4469   4.666   1.206   3.149 -0.2324  1.0695 -1.2103
  344THF    H11 4470   4.530   1.240   3.255 -2.0566  0.3124 -2.9847
  344THF    H12 4471   4.690   1.328   3.410 -1.3490  0.3505  0.6676
  344THF    H13 4472   4.819   1.326   3.281 -0.7181 -0.1644 -2.6746
  345THF     O1 4473   3.948   0.182   4.120  0.0363  0.3778  0.4720
  345THF     C2 4474   3.999   0.052   4.126 -0.2971  0.1139  0.3363
  345THF     C3 4475   3.853   0.195   4.220 -0.4728 -0.1769 -0.0638
  345THF     H4 4476   4.058   0.044   4.217 -0.0183  1.4640  0.2817
  345THF     H5 4477   4.067   0.032   4.043  0.8962 -1.2118  1.5732
  345THF     H6 4478   3.906   0.185   4.315  2.0859  2.2976 -1.0671
  345THF     H7 4479   3.793   0.285   4.226 -2.9564 -1.6436 -1.2549
  345THF     C8 4480   3.779   0.062   4.211 -0.0128  0.3905 -0.0089
  345THF     C9 4481   3.873  -0.038   4.142  0.2408 -0.4825  0.5640
  345THF    H10 4482   3.679   0.072   4.169 -1.3275  0.9673  2.9751
  345THF    H11 4483   3.743   0.030   4.309  0.1251 -1.8355 -0.6342
  345THF    H12 4484   3.895  -0.124   4.205 -0.7680 -0.6126  0.7574
  345THF    H13 4485   3.823  -0.071   4.051  1.6108  4.2281 -2.2636
  346THF     O1 4486   3.699   2.027   4.746  0.2280  0.1471 -0.1494
  346THF     C2 4487   3.753   2.159   4.757  0.0562 -0.3120 -0.0963
  346THF     C3 4488   3.597   2.023   4.639 -0.4723 -0.4015  0.7140
  346THF     H4 4489   3.822   2.198   4.682 -3.5919  2.1997 -2.4956
  346THF     H5 4490   3.799   2.179   4.854  0.9440 -0.3151 -0.5055
  346THF     H6 4491   3.623   1.961   4.553  1.1048  0.5285  0.4773
  346THF     H7 4492   3.513   1.973   4.686 -2.9718  0.3997 -2.5886
  346THF     C8 4493   3.565   2.169   4.615 -0.2131  0.0334 -0.2137
  346THF     C9 4494   3.626   2.244   4.730  0.0359  0.0605 -0.1157
  346THF    H10 4495   3.457   2.178   4.602 -0.5746 -1.7415  1.2544
  346THF    H11 4496   3.604   2.201   4.518 -3.5940 -0.4869 -1.8970
  346THF    H12 4497   3.636   2.349   4.704 -1.0335 -0.4099 -2.7446
  346THF    H13 4498   3.557   2.237   4.814 -0.6553 -0.4917 -0.7184
  347THF     O1 4499   3.844   0.704   3.517 -0.1741  0.9484  0.6807
  347THF     C2 4500   3.726   0.737   3.445  0.0921 -0.2153  0.0286
  347THF     C3 4501   3.946   0.700   3.422 -0.5865 -0.4938  0.2439
  347THF     H4 4502   3.731   0.840   3.410 -1.2645 -0.9812 -2.7861
  347THF     H5 4503   3.633   0.730   3.500  1.4748 -0.5448  2.4414
  347THF     H6 4504   3.960   0.807   3.407 -2.0020 -0.3656 -0.3002
  347THF     H7 4505   4.044   0.662   3.451  0.6195  1.1078 -1.4932
  347THF     C8 4506   3.884   0.617   3.312 -0.5193 -0.4189  0.4845
  347THF     C9 4507   3.733   0.630   3.336  0.4687 -0.2992  0.2404
  347THF    H10 4508   3.921   0.515   3.306  0.3057 -0.1443  0.6490
  347THF    H11 4509   3.917   0.650   3.213  0.5836  2.6649  1.7470
  347THF    H12 4510   3.673   0.660   3.250 -0.9983  3.3884  2.3357
  347THF    H13 4511   3.704   0.532   3.373  0.0495 -0.9554 -1.7030
  348THF     O1 4512   2.844   1.908   5.206 -0.5106  0.9942  0.1917
  348THF     C2 4513   2.790   1.883   5.078  0.2571 -1.1021 -0.4961
  348THF     C3 4514   2.754   1.985   5.279  0.0340  0.3590 -0.0669
  348THF     H4 4515   2.834   1.804   5.017  1.5489 -0.0834 -0.9490
  348THF     H5 4516   2.815   1.969   5.015  1.2908 -2.1720 -1.6095
  348THF     H6 4517   2.775   1.990   5.386  0.2173 -0.9978 -0.0212
  348THF     H7 4518   2.745   2.082   5.230 -1.6613 -0.0145 -0.5715
  348THF     C8 4519   2.622   1.915   5.252 -0.1903  0.3009 -0.2197
  348THF     C9 4520   2.640   1.863   5.109  0.6116  0.0702 -0.0250
  348THF    H10 4521   2.537   1.981   5.264  0.3116  0.7760  0.8778
  348THF    H11 4522   2.611   1.833   5.323  1.2409  0.6308  0.4349
  348THF    H12 4523   2.619   1.757   5.099  0.2434 -0.1322  2.4470
  348THF    H13 4524   2.573   1.925   5.048  1.6839  2.1193  0.7816
  349THF     O1 4525   1.025   1.930   2.112 -0.0341 -0.0358  0.4346
  349THF     C2 4526   0.958   1.927   2.240  0.5556 -0.9387  0.5690
  349THF     C3 4527   0.922   1.920   2.007 -0.4424  0.2231 -0.1853
  349THF     H4 4528   0.920   2.027   2.258  1.2054 -0.8163  1.3196
  349THF     H5 4529   1.028   1.911   2.322  0.4883 -0.3957  0.7317
  349THF     H6 4530   0.888   2.023   2.002  2.2501  1.2812  1.2040
  349THF     H7 4531   0.975   1.885   1.918 -1.1889 -1.5857  0.0377
  349THF     C8 4532   0.822   1.830   2.070  0.1139 -0.0176  0.3041
  349THF     C9 4533   0.839   1.832   2.222  0.0818 -0.7212 -0.1086
  349THF    H10 4534   0.850   1.732   2.030 -0.7125 -0.3865  0.6024
  349THF    H11 4535   0.720   1.849   2.037  0.3215 -0.2614 -0.5109
  349THF    H12 4536   0.759   1.875   2.283  0.7239 -0.6077  0.6772
  349THF    H13 4537   0.862   1.734   2.264 -0.3431 -1.2211 -1.0167
  350THF     O1 4538   4.366   4.877   3.919  0.5880 -0.0474 -0.0028
  350THF     C2 4539   4.484   4.957   3.922  0.5005 -0.8272 -0.1608
  350THF     C3 4540   4.307   4.916   3.799  0.5056  0.6004  0.5391
  350THF     H4 4541   4.562   4.924   3.991  0.5336  0.3710  0.3974
  350THF     H5 4542   4.458   5.057   3.956 -0.8606 -0.4695 -2.1442
  350THF     H6 4543   4.231   4.841   3.777  1.2599 -0.4215  1.3360
  350THF     H7 4544   4.255   5.012   3.805 -2.3618 -0.7053 -1.2180
  350THF     C8 4545   4.418   4.908   3.696 -0.9718 -0.4964  0.1179
  350THF     C9 4546   4.538   4.967   3.772 -0.2948 -0.2128 -0.4580
  350THF    H10 4547   4.383   4.969   3.613  0.6753 -0.0984 -0.3219
  350THF    H11 4548   4.441   4.802   3.684  1.7085  0.0108 -0.0076
  350THF    H12 4549   4.630   4.910   3.754 -0.5099 -0.6803 -0.1078
  350THF    H13 4550   4.558   5.068   3.738  2.1538 -0.7362 -0.8099
  351THF     O1 4551   2.445   0.806   3.360  0.5424  0.9618 -0.2986
  351THF     C2 4552   2.514   0.686   3.310 -1.1563  0.0440 -0.0638
  351THF     C3 4553   2.510   0.854   3.471 -0.4309 -0.0465  0.1059
  351THF     H4 4554   2.513   0.691   3.201 -0.0415 -1.5193 -0.1893
  351THF     H5 4555   2.456   0.600   3.343 -0.3327  0.0152  1.4245
  351THF     H6 4556   2.494   0.961   3.486  2.0106  0.6864 -1.7892
  351THF     H7 4557   2.485   0.800   3.562  2.0783  0.2417  1.0638
  351THF     C8 4558   2.656   0.827   3.443  0.3377  0.0634  0.4152
  351THF     C9 4559   2.655   0.693   3.373 -0.0480  1.2462  0.2073
  351THF    H10 4560   2.722   0.814   3.529 -1.4107  1.0313  1.9477
  351THF    H11 4561   2.686   0.910   3.379 -1.3820  0.8199  0.5411
  351THF    H12 4562   2.728   0.690   3.292 -0.2691  1.2742  0.0063
  351THF    H13 4563   2.669   0.606   3.437  1.4191  1.5595  0.3573
  352THF     O1 4564   1.095   3.141   4.168 -0.6889 -0.1021 -0.4423
  352THF     C2 4565   1.084   3.178   4.304 -0.0874 -0.0114 -0.2204
  352THF     C3 4566   1.149   3.252   4.101  0.8601  0.2843 -0.2924
  352THF     H4 4567   1.180   3.181   4.355 -0.3239 -0.0494  0.2284
  352THF     H5 4568   1.020   3.109   4.359 -0.3221 -0.1807 -0.6983
  352THF     H6 4569   1.252   3.275   4.129  0.9366  0.0596 -0.3859
  352THF     H7 4570   1.145   3.225   3.996  0.9932  1.4463 -0.6072
  352THF     C8 4571   1.054   3.357   4.139 -0.5253  0.2921 -0.6726
  352THF     C9 4572   1.035   3.323   4.287  0.1766  0.2045  0.0242
  352THF    H10 4573   0.957   3.340   4.091 -1.3755 -0.7510  1.3002
  352THF    H11 4574   1.105   3.452   4.122  2.4067 -1.1224 -0.4221
  352THF    H12 4575   1.080   3.391   4.359  0.7752 -0.5310  0.3627
  352THF    H13 4576   0.927   3.324   4.302 -0.1962  2.2274 -2.2761
  353THF     O1 4577   2.134   3.218   3.609 -0.3772  0.6505  0.0264
  353THF     C2 4578   2.126   3.304   3.494  0.1772 -0.2670  0.1643
  353THF     C3 4579   2.249   3.261   3.684  0.0512 -0.3174 -0.9481
  353THF     H4 4580   2.095   3.404   3.521  1.7134  0.7666 -1.6236
  353THF     H5 4581   2.068   3.273   3.407  0.3936 -1.2678  0.3574
  353THF     H6 4582   2.230   3.339   3.758 -0.5704 -0.2396 -1.1798
  353THF     H7 4583   2.288   3.173   3.735 -1.5305 -0.8183 -0.5594
  353THF     C8 4584   2.343   3.320   3.577  0.1248  0.1714  0.0366
  353THF     C9 4585   2.266   3.292   3.452  0.0911  0.5095  0.4330
  353THF    H10 4586   2.441   3.271   3.579 -0.1754 -0.7852 -3.3133
  353THF    H11 4587   2.349   3.428   3.590 -0.7338  0.0932  1.2963
  353THF    H12 4588   2.289   3.366   3.376 -0.8525  0.3214 -0.0449
  353THF    H13 4589   2.273   3.188   3.419 -2.1422  0.0986  1.0513
  354THF     O1 4590   1.959   5.129   0.276 -0.6644  0.2945  0.0963
  354THF     C2 4591   1.972   5.222   0.379 -0.2024 -0.1901 -0.0829
  354THF     C3 4592   1.951   5.006   0.343 -0.6397  0.3566  0.0138
  354THF     H4 4593   1.875   5.241   0.425  0.4622  0.8551  0.9363
  354THF     H5 4594   2.008   5.318   0.342  0.4403  0.0157  1.0423
  354THF     H6 4595   1.855   4.992   0.393 -0.7839  3.0890  0.6568
  354THF     H7 4596   1.954   4.917   0.281 -1.3284  0.6329 -0.4285
  354THF     C8 4597   2.073   5.014   0.439 -0.3918 -0.2069 -0.2966
  354THF     C9 4598   2.075   5.161   0.478  0.1586  0.1550 -0.2970
  354THF    H10 4599   2.167   4.993   0.389  0.2426  0.2752  0.6488
  354THF    H11 4600   2.072   4.942   0.521  0.3355 -0.7361 -0.7546
  354THF    H12 4601   2.043   5.169   0.582  0.9561  1.8217 -0.1408
  354THF    H13 4602   2.173   5.209   0.471 -0.0740  0.6459 -0.2019
  355THF     O1 4603   2.315   1.946   2.872 -0.2975  0.0549 -0.5422
  355THF     C2 4604   2.229   2.044   2.927  0.3776 -0.3596 -0.4172
  355THF     C3 4605   2.347   1.852   2.975 -0.8472  0.2045 -0.9069
  355THF     H4 4606   2.163   2.067   2.843 -0.2239  0.4772  0.2616
  355THF     H5 4607   2.281   2.129   2.970  2.1966 -2.4201  1.7213
  355THF     H6 4608   2.349   1.755   2.926  0.4497  0.4648 -1.3914
  355THF     H7 4609   2.444   1.863   3.022 -1.6321  2.7385  0.3268
  355THF     C8 4610   2.241   1.854   3.080 -0.1078 -0.0971 -0.6337
  355THF     C9 4611   2.152   1.975   3.040 -0.0524  0.3644 -0.4252
  355THF    H10 4612   2.289   1.877   3.175  0.8089  0.6247 -1.2517
  355THF    H11 4613   2.189   1.761   3.104 -2.5317  1.2995 -0.1666
  355THF    H12 4614   2.057   1.928   3.012 -0.0625 -0.9682  1.6404
  355THF    H13 4615   2.120   2.040   3.121 -2.9111  1.0651 -1.9760
  356THF     O1 4616   3.452   2.636   4.699  0.2513  0.7199  0.2090
  356THF     C2 4617   3.483   2.601   4.830  0.2690 -0.3082 -0.4478
  356THF     C3 4618   3.383   2.530   4.638  0.5183  0.1329 -0.0368
  356THF     H4 4619   3.507   2.684   4.896  0.1030 -0.7828  0.2304
  356THF     H5 4620   3.571   2.535   4.833 -1.3559 -2.5626  0.2803
  356THF     H6 4621   3.334   2.562   4.546  0.7405 -0.9361 -0.5402
  356THF     H7 4622   3.437   2.438   4.617 -1.0127 -0.6807 -0.6062
  356THF     C8 4623   3.279   2.495   4.749  0.2935 -0.2165  0.0785
  356THF     C9 4624   3.363   2.518   4.871 -0.5337  0.3689  0.3216
  356THF    H10 4625   3.225   2.401   4.733 -0.7307  0.4753 -0.6288
  356THF    H11 4626   3.195   2.563   4.736  1.6775  1.7250  0.8483
  356THF    H12 4627   3.310   2.574   4.948  1.2682  1.1852  1.0117
  356THF    H13 4628   3.400   2.421   4.903  0.7395  0.1203 -1.7249
  357THF     O1 4629   3.463   2.849   2.331 -0.5250 -0.0006  0.6709
  357THF     C2 4630   3.400   2.796   2.208  0.0895 -0.5602  0.2446
  357THF     C3 4631   3.454   2.749   2.433 -0.1325  0.0245  1.0358
  357THF     H4 4632   3.439   2.846   2.120  2.7534 -2.3275  0.2929
  357THF     H5 4633   3.293   2.811   2.199  0.2898  0.3887 -0.6786
  357THF     H6 4634   3.539   2.758   2.501 -1.2056  1.0005  2.2722
  357THF     H7 4635   3.363   2.755   2.491 -1.2893 -3.8777 -0.0559
  357THF     C8 4636   3.437   2.613   2.370 -0.3752 -0.1538  0.1796
  357THF     C9 4637   3.439   2.650   2.219 -0.4203  0.0875  0.3914
  357THF    H10 4638   3.348   2.562   2.404 -0.3641  1.2732  2.5025
  357THF    H11 4639   3.520   2.542   2.380 -0.6639 -0.7824 -1.4363
  357THF    H12 4640   3.538   2.641   2.175 -1.1032 -0.3384 -1.1599
  357THF    H13 4641   3.374   2.586   2.158  0.3460  0.2739 -0.6398
  358THF     O1 4642   1.279   3.512   0.601  0.0596 -0.2400  0.0662
  358THF     C2 4643   1.388   3.424   0.581  0.1061 -0.2249 -0.3657
  358THF     C3 4644   1.271   3.598   0.495  0.1974 -0.3685 -1.0131
  358THF     H4 4645   1.390   3.346   0.657  1.1109  2.1545  2.1980
  358THF     H5 4646   1.474   3.484   0.610  0.4509 -0.6552 -0.4836
  358THF     H6 4647   1.182   3.661   0.494  1.5340  1.5752 -1.4743
  358THF     H7 4648   1.357   3.665   0.487  2.1597 -2.5414  0.4761
  358THF     C8 4649   1.272   3.490   0.382 -0.0067  0.0349  0.3170
  358THF     C9 4650   1.372   3.389   0.431 -0.2700 -0.1726  0.0941
  358THF    H10 4651   1.295   3.536   0.285  2.0013 -3.4108 -1.0184
  358THF    H11 4652   1.171   3.454   0.363  0.3765 -0.4100 -1.0037
  358THF    H12 4653   1.338   3.290   0.401  0.2013  0.6086 -3.4148
  358THF    H13 4654   1.468   3.393   0.380  0.3109 -2.7096  0.8460
  359THF     O1 4655   0.907   1.859   2.787  0.4089 -0.5648  0.6214
  359THF     C2 4656   0.987   1.826   2.903 -0.1632 -0.4926 -0.0749
  359THF     C3 4657   0.955   1.791   2.674 -0.5184  0.2165 -0.7659
  359THF     H4 4658   0.942   1.744   2.959  1.3992 -0.8092  0.7865
  359THF     H5 4659   1.000   1.912   2.969 -0.1353 -0.8953  0.4473
  359THF     H6 4660   0.877   1.723   2.639 -0.1231 -0.9605  0.5279
  359THF     H7 4661   0.968   1.864   2.594 -0.2314  3.4521  1.9964
  359THF     C8 4662   1.085   1.720   2.716  0.3489  0.5561  0.2052
  359THF     C9 4663   1.123   1.781   2.853  0.0932  0.2819 -0.1603
  359THF    H10 4664   1.161   1.708   2.639  1.3651 -0.9056  1.3619
  359THF    H11 4665   1.052   1.621   2.748  2.1671  0.2371  1.2234
  359THF    H12 4666   1.170   1.711   2.922  0.5162  0.5098 -0.2169
  359THF    H13 4667   1.197   1.860   2.841 -1.5467  1.9272  0.0400
  360THF     O1 4668   3.179   0.097   5.227  0.0211 -0.3991 -0.3258
  360THF     C2 4669   3.267   0.022   5.141  0.0885 -0.1009 -0.4783
  360THF     C3 4670   3.140   0.213   5.162 -0.3156 -0.4596 -0.7221
  360THF     H4 4671   3.213  -0.060   5.095 -0.8005  1.4084 -2.2793
  360THF     H5 4672   3.353  -0.016   5.196 -1.6835 -1.2689  1.6419
  360THF     H6 4673   3.062   0.200   5.088  0.7081  0.0629 -1.9361
  360THF     H7 4674   3.105   0.282   5.240  0.4171  1.0897 -1.6989
  360THF     C8 4675   3.266   0.258   5.086 -0.0101  0.6239  0.3868
  360THF     C9 4676   3.309   0.124   5.032  0.4423  0.0801 -0.3539
  360THF    H10 4677   3.340   0.297   5.156 -1.4312 -0.2075  2.4356
  360THF    H11 4678   3.249   0.331   5.007 -1.4543  0.9784  0.9939
  360THF    H12 4679   3.254   0.101   4.941 -0.3243 -0.3469  0.2009
  360THF    H13 4680   3.416   0.113   5.015  0.3185 -1.2915 -0.3270
  361THF     O1 4681   4.032   0.934   5.422 -0.5430  0.7688 -0.3578
  361THF     C2 4682   4.087   1.048   5.354  0.0819  0.6843  0.3803
  361THF     C3 4683   3.957   0.980   5.536  0.1697 -0.8686  0.1867
  361THF     H4 4684   4.114   1.031   5.250 -1.0576 -1.7348  0.4123
  361THF     H5 4685   4.179   1.076   5.406 -0.2978  1.1929  0.7860
  361THF     H6 4686   3.883   0.910   5.574 -1.7611  0.6026 -0.6561
  361THF     H7 4687   4.032   0.998   5.613  0.1740  1.4612 -0.2934
  361THF     C8 4688   3.901   1.117   5.490  0.3591 -0.0823 -0.0552
  361THF     C9 4689   3.973   1.153   5.366 -0.1347  0.0961 -0.1249
  361THF    H10 4690   3.904   1.191   5.570  0.1331 -1.1463  0.9642
  361THF    H11 4691   3.795   1.112   5.462  0.4817  2.0121 -1.0814
  361THF    H12 4692   3.910   1.148   5.277  0.3933 -2.8651 -0.4541
  361THF    H13 4693   4.011   1.253   5.382 -3.1461  0.9586  2.7693
  362THF     O1 4694   5.127   3.021   1.452 -0.1040 -0.0792 -0.2054
  362THF     C2 4695   5.266   3.001   1.450  0.0053  0.2466  0.2961
  362THF     C3 4696   5.080   3.085   1.566  0.6108 -0.1425 -0.2227
  362THF     H4 4697   5.317   3.072   1.385 -0.9061  0.7213  0.0809
  362THF     H5 4698   5.288   2.900   1.415 -0.5225  0.5567 -0.9905
  362THF     H6 4699   5.106   3.189   1.547  1.3331 -0.2362  0.2246
  362THF     H7 4700   4.972   3.075   1.575  0.5370  0.0397 -0.9020
  362THF     C8 4701   5.172   3.030   1.669 -0.1504  0.2950 -0.4480
  362THF     C9 4702   5.308   3.026   1.602  0.2973 -0.0798  0.0585
  362THF    H10 4703   5.138   2.927   1.683 -0.6169  0.6138  1.0022
  362THF    H11 4704   5.173   3.089   1.761 -0.0528  1.3385 -1.1061
  362THF    H12 4705   5.348   3.125   1.622 -0.5840  0.4494 -0.6918
  362THF    H13 4706   5.384   2.954   1.632 -0.3978 -1.0197 -0.4144
  363THF     O1 4707   1.202   4.517   4.936 -0.3869  0.6992 -0.3771
  363THF     C2 4708   1.130   4.606   5.019  0.1257 -0.2723 -0.4887
  363THF     C3 4709   1.327   4.476   5.005 -0.1542  0.0202  0.0745
  363THF     H4 4710   1.031   4.570   5.047  0.8527 -0.1735  2.6072
  363THF     H5 4711   1.104   4.698   4.967 -0.7796 -0.3404 -0.1702
  363THF     H6 4712   1.309   4.377   5.047 -1.6410 -0.0722 -0.7080
  363THF     H7 4713   1.416   4.486   4.944 -0.0640  1.4597  0.4003
  363THF     C8 4714   1.348   4.572   5.123  0.2068 -0.1692 -0.1724
  363THF     C9 4715   1.213   4.626   5.152  0.0985  0.4065  0.0389
  363THF    H10 4716   1.422   4.649   5.102 -0.4228  0.5904  0.3546
  363THF    H11 4717   1.379   4.529   5.218 -1.6622  0.2689  0.6787
  363THF    H12 4718   1.172   4.550   5.219 -0.3274 -0.5423 -1.2517
  363THF    H13 4719   1.218   4.724   5.200 -0.0612  0.3236  0.2277
  364THF     O1 4720   3.114   4.742   0.468 -0.4348 -0.2491 -0.2204
  364THF     C2 4721   3.172   4.703   0.591  0.7632 -0.0530  0.4916
  364THF     C3 4722   3.221   4.757   0.379  0.1750  0.6191  0.4135
  364THF     H4 4723   3.087   4.658   0.641  0.1722  0.2179 -0.2552
  364THF     H5 4724   3.208   4.792   0.643 -1.5611 -0.2409  2.5747
  364THF     H6 4725   3.185   4.761   0.276 -0.3740 -1.3593  0.4926
  364THF     H7 4726   3.271   4.854   0.372  0.3697  0.4095 -2.7332
  364THF     C8 4727   3.319   4.648   0.411  0.5768  0.6365 -0.1467
  364THF     C9 4728   3.282   4.604   0.554  0.0372  0.0605 -0.2448
  364THF    H10 4729   3.421   4.681   0.392  0.9368  0.5497  1.4252
  364THF    H11 4730   3.301   4.568   0.339  2.0841  0.6274 -0.5399
  364THF    H12 4731   3.259   4.497   0.549  0.6694 -0.0575 -0.6862
  364THF    H13 4732   3.366   4.631   0.617 -0.2123  1.1737 -0.3707
  365THF     O1 4733   4.607   1.479   3.928  0.6973 -0.2053  0.6610
  365THF     C2 4734   4.565   1.344   3.933  0.2025  0.1464 -0.5036
  365THF     C3 4735   4.720   1.494   3.841 -0.8138  0.2535 -0.3277
  365THF     H4 4736   4.457   1.326   3.930  0.2490 -0.2203 -0.1519
  365THF     H5 4737   4.613   1.286   4.012  3.1169  1.1644 -1.4272
  365THF     H6 4738   4.704   1.576   3.771 -0.2512  1.2966  0.7069
  365THF     H7 4739   4.810   1.509   3.901 -1.0214 -0.8548  0.2790
  365THF     C8 4740   4.739   1.352   3.773  0.7071  1.0564  0.0149
  365THF     C9 4741   4.611   1.279   3.801 -0.3866  0.4787  0.3501
  365THF    H10 4742   4.834   1.306   3.799  2.0853  2.6234 -1.8499
  365THF    H11 4743   4.742   1.367   3.665 -0.8506  1.6037  0.0308
  365THF    H12 4744   4.537   1.299   3.723  0.1529  0.5797 -0.1391
  365THF    H13 4745   4.619   1.172   3.815  1.0371  0.4900 -0.1956
  366THF     O1 4746   0.551   5.090   4.871  0.2036 -0.0601 -0.3256
  366THF     C2 4747   0.551   5.097   4.727  0.6598 -0.0880  0.6297
  366THF     C3 4748   0.562   5.224   4.925  0.8062 -0.2822  0.2688
  366THF     H4 4749   0.456   5.053   4.697  0.8398 -0.3190  0.3881
  366THF     H5 4750   0.626   5.038   4.674 -0.4420 -0.2022 -0.8320
  366THF     H6 4751   0.497   5.223   5.013 -1.1412  0.4822 -1.0875
  366THF     H7 4752   0.665   5.256   4.940  0.0348  2.9326 -0.6092
  366THF     C8 4753   0.491   5.299   4.819 -0.3814 -0.1922 -0.3799
  366THF     C9 4754   0.553   5.245   4.698  0.1848 -0.3096 -0.6575
  366THF    H10 4755   0.521   5.404   4.825  2.5986 -1.0047  0.1933
  366THF    H11 4756   0.383   5.283   4.809 -0.5701  1.0344 -0.4234
  366THF    H12 4757   0.503   5.285   4.610 -0.9140  0.9366  0.4896
  366THF    H13 4758   0.653   5.286   4.687 -0.7101  2.8052  1.4619
  367THF     O1 4759   5.026   0.244   3.779 -0.1664  1.3224  0.5483
  367THF     C2 4760   5.152   0.267   3.722  0.5642 -0.6594 -0.1094
  367THF     C3 4761   5.020   0.337   3.886  0.2751 -0.1029 -0.3721
  367THF     H4 4762   5.152   0.230   3.619 -0.4638 -0.1102 -0.3148
  367THF     H5 4763   5.231   0.209   3.770 -0.0057 -0.9699  0.4540
  367THF     H6 4764   4.916   0.358   3.910 -0.3177  0.0188 -2.7917
  367THF     H7 4765   5.068   0.296   3.974 -0.1481  0.5261  0.1634
  367THF     C8 4766   5.081   0.471   3.840 -0.2536  0.4457  1.1669
  367THF     C9 4767   5.176   0.417   3.729 -0.0032  0.0169  0.0087
  367THF    H10 4768   5.136   0.531   3.913 -2.1702  1.0602  2.1691
  367THF    H11 4769   5.010   0.539   3.794  0.2582  0.7275  0.7743
  367THF    H12 4770   5.157   0.467   3.634  1.5109  1.1136  0.2466
  367THF    H13 4771   5.278   0.433   3.765 -0.0387  1.6863 -0.5494
  368THF     O1 4772   1.256   4.468   0.687 -0.1787  0.4623 -0.2444
  368THF     C2 4773   1.290   4.347   0.754 -0.7168  0.1088  0.7135
  368THF     C3 4774   1.365   4.489   0.600  0.2794  0.3995 -0.1315
  368THF     H4 4775   1.281   4.262   0.686 -1.3136 -0.1437  1.1024
  368THF     H5 4776   1.219   4.327   0.834 -3.3385 -0.6992 -1.6522
  368THF     H6 4777   1.362   4.415   0.520 -0.4498  1.0196 -0.6990
  368THF     H7 4778   1.363   4.590   0.559  0.1819  1.2448  1.8340
  368THF     C8 4779   1.490   4.458   0.683 -0.6605  0.4489  0.5672
  368THF     C9 4780   1.430   4.377   0.802 -0.5862  1.0575 -0.0488
  368THF    H10 4781   1.535   4.552   0.715 -0.0429  0.9996 -1.7307
  368THF    H11 4782   1.561   4.401   0.623 -0.6225  0.4673  0.5944
  368THF    H12 4783   1.485   4.286   0.828 -0.7868  0.2657 -2.1432
  368THF    H13 4784   1.429   4.435   0.894  0.6500 -1.6919  1.8428
  369THF     O1 4785   1.314   2.786   5.337  0.6132 -0.5713 -0.4317
  369THF     C2 4786   1.177   2.740   5.325  0.0351 -0.1824  0.0555
  369THF     C3 4787   1.341   2.853   5.217  0.1768  0.1152  0.1376
  369THF     H4 4788   1.118   2.787   5.403 -0.7320 -0.3818 -0.3980
  369THF     H5 4789   1.161   2.634   5.344 -0.2131 -0.1915 -0.1960
  369THF     H6 4790   1.416   2.932   5.228 -0.3604  0.7133 -0.4364
  369THF     H7 4791   1.390   2.774   5.159  2.4075 -0.3718  2.4618
  369THF     C8 4792   1.216   2.894   5.157  0.8106 -0.3025 -0.1788
  369THF     C9 4793   1.126   2.775   5.188 -0.1312  0.2855 -0.0212
  369THF    H10 4794   1.227   2.916   5.051  0.1966  0.8984 -0.0097
  369THF    H11 4795   1.171   2.974   5.216  0.9357 -0.7839  0.5847
  369THF    H12 4796   1.020   2.801   5.193 -0.0645  0.3824  1.0659
  369THF    H13 4797   1.149   2.696   5.117  0.7988  0.4108  0.1219
  370THF     O1 4798   1.856   4.439   2.048 -0.0713  0.4664  0.1416
  370THF     C2 4799   1.949   4.513   1.969  0.0781 -0.1967  0.0060
  370THF     C3 4800   1.875   4.306   2.012  0.2331 -0.1241 -0.0079
  370THF     H4 4801   1.961   4.610   2.015  0.2563 -1.2680  2.3541
  370THF     H5 4802   1.897   4.523   1.874  0.6227 -3.9463 -0.8580
  370THF     H6 4803   1.843   4.246   2.098 -0.1120  1.5355  1.0784
  370THF     H7 4804   1.811   4.286   1.926 -1.6361  2.4179  0.6497
  370THF     C8 4805   2.026   4.303   2.009 -0.2628  0.4421  0.4164
  370THF     C9 4806   2.075   4.434   1.951 -0.3916  0.4644 -0.6361
  370THF    H10 4807   2.076   4.226   1.950 -0.3838 -0.2529  1.2142
  370THF    H11 4808   2.054   4.297   2.114  1.1441  0.6564  0.0723
  370THF    H12 4809   2.136   4.477   2.031 -2.2369 -2.1448  2.4260
  370THF    H13 4810   2.114   4.444   1.850 -2.8374 -0.1518 -1.7151
  371THF     O1 4811   5.128   2.082   3.348 -0.4057  0.4093  0.4366
  371THF     C2 4812   5.122   1.950   3.334  0.1017  0.2346 -0.0669
  371THF     C3 4813   5.261   2.131   3.323 -0.1130 -0.1797 -0.5118
  371THF     H4 4814   5.118   1.918   3.230  0.2787 -2.9965  0.8260
  371THF     H5 4815   5.030   1.917   3.381 -0.8252  0.8084 -1.4047
  371THF     H6 4816   5.290   2.132   3.219  0.8889 -0.0863 -0.2415
  371THF     H7 4817   5.270   2.227   3.375 -1.0520 -0.6109  0.4964
  371THF     C8 4818   5.345   2.021   3.387  0.4998  0.5974  0.2709
  371THF     C9 4819   5.250   1.912   3.405 -0.5004 -0.5919 -0.1943
  371THF    H10 4820   5.372   2.041   3.490 -1.5127 -1.2010  1.2428
  371THF    H11 4821   5.434   1.984   3.336  0.0517 -2.1350  1.2943
  371THF    H12 4822   5.294   1.818   3.371 -0.4613 -0.6796  0.1043
  371THF    H13 4823   5.235   1.891   3.511 -1.2745 -0.5453 -0.2837
  372THF     O1 4824   1.808   2.221   5.458 -0.4460 -0.3832 -0.1619
  372THF     C2 4825   1.840   2.338   5.383  0.6850 -0.2058  0.6339
  372THF     C3 4826   1.780   2.118   5.368  0.3463  0.3245 -0.1849
  372THF     H4 4827   1.907   2.398   5.443  1.6558 -1.9627  1.3983
  372THF     H5 4828   1.750   2.397   5.363  0.2085 -0.8593  0.8119
  372THF     H6 4829   1.803   2.016   5.400  0.9323  0.7057  0.6131
  372THF     H7 4830   1.677   2.112   5.334  0.9036  0.0665 -1.9286
  372THF     C8 4831   1.873   2.142   5.251 -0.1711 -0.4949  0.3912
  372THF     C9 4832   1.900   2.291   5.252 -0.1690  0.7226 -0.4054
  372THF    H10 4833   1.818   2.118   5.161  1.0063  0.3577 -0.5901
  372THF    H11 4834   1.967   2.087   5.246  0.3845  0.5483 -2.2626
  372THF    H12 4835   2.008   2.301   5.256 -0.0966  1.7915 -3.0125
  372THF    H13 4836   1.862   2.339   5.162  0.9323  1.2337 -0.6124
  373THF     O1 4837   0.479   2.052   0.792 -0.9333  0.3840 -0.0118
  373THF     C2 4838   0.421   2.148   0.708 -0.3043  0.0825 -0.9687
  373THF     C3 4839   0.463   1.921   0.740  0.9553  0.1150 -0.4115
  373THF     H4 4840   0.479   2.240   0.719  1.4115 -1.0976  0.4121
  373THF     H5 4841   0.316   2.160   0.735 -0.4925 -1.2924 -1.0228
  373THF     H6 4842   0.564   1.884   0.720  1.3517  1.0757 -0.2310
  373THF     H7 4843   0.407   1.861   0.811  0.1970  4.4756  3.0945
  373THF     C8 4844   0.401   1.937   0.608  0.5146 -0.7173  0.2022
  373THF     C9 4845   0.433   2.080   0.573 -0.4371 -0.0047 -0.1622
  373THF    H10 4846   0.292   1.925   0.608  0.0856  1.5501  3.9894
  373THF    H11 4847   0.444   1.865   0.539  0.4426 -0.7751  0.2170
  373THF    H12 4848   0.536   2.103   0.544 -0.2220  0.8930  1.1988
  373THF    H13 4849   0.355   2.122   0.510 -0.6236 -0.3046 -0.1318
  374THF     O1 4850   0.325   3.239   4.825  0.4920 -0.0108  0.3214
  374THF     C2 4851   0.191   3.277   4.801 -0.1502  0.3427 -0.1102
  374THF     C3 4852   0.388   3.233   4.701 -0.2094 -0.1380  0.1951
  374THF     H4 4853   0.131   3.302   4.889 -1.2607  2.8093 -1.4676
  374THF     H5 4854   0.148   3.190   4.751 -1.1450  1.9770 -2.2978
  374THF     H6 4855   0.495   3.215   4.711 -0.6492 -3.6334 -0.2939
  374THF     H7 4856   0.353   3.143   4.650 -2.2408  0.7870 -0.1364
  374THF     C8 4857   0.335   3.354   4.624 -0.4096  0.2080  0.2747
  374THF     C9 4858   0.199   3.386   4.697  0.4799  0.2972  0.7342
  374THF    H10 4859   0.339   3.346   4.516  0.5062 -1.6368  0.4123
  374THF    H11 4860   0.404   3.430   4.662  0.4769 -1.0610  1.2874
  374THF    H12 4861   0.210   3.483   4.747 -3.8651  1.4195 -0.1193
  374THF    H13 4862   0.110   3.396   4.635  1.3698  2.0930 -0.3392
  375THF     O1 4863   4.511   3.164   1.737  0.3786 -0.0710  0.1853
  375THF     C2 4864   4.567   3.051   1.675 -0.4014  0.0818 -0.0836
  375THF     C3 4865   4.403   3.206   1.651 -0.0174  0.2306  0.1140
  375THF     H4 4866   4.510   2.960   1.696  0.1707 -0.4641 -0.8115
  375THF     H5 4867   4.671   3.041   1.707  0.8079  0.1785 -3.5029
  375THF     H6 4868   4.333   3.125   1.630 -0.0667  0.3309 -0.1128
  375THF     H7 4869   4.356   3.295   1.693 -0.7263 -0.0777 -0.0148
  375THF     C8 4870   4.489   3.230   1.526 -0.2284 -0.7202  0.0676
  375THF     C9 4871   4.581   3.103   1.529  0.5779  0.2528 -0.1514
  375THF    H10 4872   4.551   3.319   1.535  0.1987 -1.2217  4.0568
  375THF    H11 4873   4.419   3.245   1.444 -1.6094  2.1104  1.6108
  375THF    H12 4874   4.537   3.036   1.455 -1.6216  0.0704  1.2312
  375THF    H13 4875   4.684   3.123   1.500  0.5003 -1.4801 -1.8529
  376THF     O1 4876   2.551   0.242   3.981 -0.2891 -0.0496 -0.2543
  376THF     C2 4877   2.520   0.105   3.979  0.4340 -0.5217 -0.6846
  376THF     C3 4878   2.693   0.251   3.970 -0.8493 -0.0394  0.2952
  376THF     H4 4879   2.532   0.075   3.874 -0.7738 -0.4826 -0.8546
  376THF     H5 4880   2.420   0.085   4.018  0.8880  1.0653  1.4186
  376THF     H6 4881   2.710   0.230   3.864 -0.5445 -2.8017  0.8324
  376THF     H7 4882   2.712   0.354   4.002 -2.4918 -0.2784  2.2467
  376THF     C8 4883   2.744   0.137   4.055 -0.5202 -0.0821  0.3708
  376THF     C9 4884   2.634   0.032   4.051  0.1385 -0.4905 -0.2707
  376THF    H10 4885   2.776   0.168   4.155 -1.3456  1.2780  0.2377
  376THF    H11 4886   2.827   0.094   3.999 -2.2181  0.0319 -2.4290
  376THF    H12 4887   2.673  -0.057   4.001  0.2265 -0.4311 -0.3062
  376THF    H13 4888   2.607   0.012   4.155 -0.4022 -0.4553 -0.3986
  377THF     O1 4889   2.207   2.105   3.696  0.3246  0.5322  0.1714
  377THF     C2 4890   2.198   2.225   3.771 -0.2217 -0.2230  0.0940
  377THF     C3 4891   2.109   2.121   3.589 -0.2321  0.5010 -0.0747
  377THF     H4 4892   2.298   2.230   3.815  0.9399  1.6075 -2.5009
  377THF     H5 4893   2.135   2.228   3.860  0.3542  1.3832  0.4861
  377THF     H6 4894   2.145   2.080   3.495  0.0026  1.7266 -0.5359
  377THF     H7 4895   2.024   2.059   3.617 -0.2384 -0.4789 -2.0674
  377THF     C8 4896   2.060   2.263   3.587 -0.0825 -1.2920 -0.1539
  377THF     C9 4897   2.172   2.330   3.667 -0.0903 -0.5561 -0.0546
  377THF    H10 4898   1.972   2.282   3.647  0.6542 -0.7277  0.7774
  377THF    H11 4899   2.059   2.304   3.486 -0.4156 -0.2192  0.2725
  377THF    H12 4900   2.263   2.340   3.608 -0.2673  1.4665 -0.0447
  377THF    H13 4901   2.140   2.427   3.704 -1.4331 -0.7362 -0.6853
  378THF     O1 4902   1.361   3.290   4.672  0.2975  0.6557  0.0975
  378THF     C2 4903   1.459   3.205   4.617 -0.2436 -0.1990 -0.1111
  378THF     C3 4904   1.259   3.201   4.725 -0.0932 -0.1970  0.0040
  378THF     H4 4905   1.535   3.205   4.695 -0.5167  3.2167  0.2955
  378THF     H5 4906   1.505   3.251   4.530 -1.3189 -0.4878 -0.8542
  378THF     H6 4907   1.295   3.171   4.823  0.4525 -2.9391 -0.9611
  378THF     H7 4908   1.170   3.265   4.732  0.2029  0.7184 -2.9810
  378THF     C8 4909   1.260   3.080   4.633 -0.1605 -0.7050  0.1858
  378THF     C9 4910   1.403   3.068   4.586 -0.0679 -0.4271 -0.6166
  378THF    H10 4911   1.182   3.101   4.560 -0.3283  2.7381  1.2155
  378THF    H11 4912   1.226   2.996   4.694  1.8874  0.1398  2.6246
  378THF    H12 4913   1.441   3.002   4.664 -1.5530  2.1633  2.5435
  378THF    H13 4914   1.411   3.035   4.482  1.1607  1.6377 -1.2472
  379THF     O1 4915   5.141   1.363   3.986  0.0726  0.6526  0.3009
  379THF     C2 4916   5.090   1.252   3.921  0.3592  0.6048 -0.3911
  379THF     C3 4917   5.090   1.354   4.121  0.4857  0.3695  0.5990
  379THF     H4 4918   5.182   1.198   3.896  2.3105  2.6286  1.9413
  379THF     H5 4919   5.020   1.281   3.843 -1.2111  0.1663  0.8235
  379THF     H6 4920   5.150   1.294   4.190  0.1961 -0.9973 -0.2827
  379THF     H7 4921   5.068   1.452   4.163 -0.6865  0.3122  0.1735
  379THF     C8 4922   4.960   1.276   4.111 -0.1720 -0.7903 -0.2071
  379THF     C9 4923   4.997   1.174   4.011  0.1016  0.4358  0.1935
  379THF    H10 4924   4.885   1.338   4.060  0.6892  0.1629 -0.3673
  379THF    H11 4925   4.906   1.249   4.201 -1.8417 -0.2089 -0.9946
  379THF    H12 4926   5.064   1.103   4.059 -0.1179 -0.2846 -0.5410
  379THF    H13 4927   4.921   1.117   3.958  0.5601 -0.9080  0.9231
  380THF     O1 4928   5.157   1.104   1.033  0.1399  0.4132 -0.3790
  380THF     C2 4929   5.159   0.986   0.953  0.2753 -0.5678  0.3259
  380THF     C3 4930   5.058   1.088   1.131  0.0093  0.4108  0.3227
  380THF     H4 4931   5.257   0.976   0.907 -0.7907 -1.4509 -1.9299
  380THF     H5 4932   5.084   1.009   0.877  1.2028  2.0376  0.1114
  380THF     H6 4933   5.058   1.148   1.221  0.2660 -1.1547  1.4009
  380THF     H7 4934   4.960   1.102   1.086 -0.8329 -0.0379  1.9715
  380THF     C8 4935   5.069   0.939   1.169  0.1732  0.4179 -0.3503
  380THF     C9 4936   5.126   0.868   1.044  0.0573 -0.4489 -0.0518
  380THF    H10 4937   4.974   0.895   1.200  0.9970 -0.7858  0.5660
  380THF    H11 4938   5.134   0.922   1.254 -0.7853 -4.1543 -0.3026
  380THF    H12 4939   5.211   0.806   1.072  0.0431 -2.5216 -3.8779
  380THF    H13 4940   5.046   0.809   1.000 -1.5406  0.4382  1.5523
  381THF     O1 4941   0.721   2.962   2.246 -0.0813  0.2285  0.0295
  381THF     C2 4942   0.649   3.057   2.169  0.8078 -0.8179 -0.4724
  381THF     C3 4943   0.685   2.963   2.391  0.7606  0.1398  0.0835
  381THF     H4 4944   0.573   3.009   2.108  1.1163 -0.5032 -1.1098
  381THF     H5 4945   0.725   3.110   2.111 -0.4687  2.3968  0.6025
  381THF     H6 4946   0.593   2.907   2.407  0.8333 -0.6101 -1.8158
  381THF     H7 4947   0.761   2.934   2.463  2.1586  1.7264 -0.6755
  381THF     C8 4948   0.663   3.109   2.410 -0.0063 -0.1586  0.2819
  381THF     C9 4949   0.604   3.159   2.280 -0.1075  0.2126 -0.3405
  381THF    H10 4950   0.755   3.165   2.424  0.0353  0.1055 -0.9208
  381THF    H11 4951   0.608   3.135   2.501 -0.1091 -1.5861  0.6548
  381THF    H12 4952   0.496   3.145   2.286  0.2496 -4.0539 -0.3872
  381THF    H13 4953   0.639   3.258   2.252  1.6218 -0.1647  0.3460
  382THF     O1 4954   1.683   3.829   4.170  0.6381 -0.1556  0.2729
  382THF     C2 4955   1.610   3.925   4.091 -0.8798  0.0474 -0.0071
  382THF     C3 4956   1.709   3.890   4.292 -0.6376 -0.5905 -0.3072
  382THF     H4 4957   1.513   3.875   4.089 -1.2188  0.7276 -0.6532
  382THF     H5 4958   1.638   3.956   3.991  0.4636 -1.3807 -0.1133
  382THF     H6 4959   1.723   3.822   4.376  0.3404 -2.2654 -1.7582
  382THF     H7 4960   1.806   3.937   4.276 -2.0945  1.8904 -2.7341
  382THF     C8 4961   1.611   3.998   4.323 -0.0905  0.0826 -0.6689
  382THF     C9 4962   1.591   4.048   4.179 -0.2045 -0.0230  0.5526
  382THF    H10 4963   1.664   4.073   4.381 -2.6940  0.3520  1.5521
  382THF    H11 4964   1.525   3.949   4.368 -0.5327 -1.2095 -2.7664
  382THF    H12 4965   1.495   4.091   4.154  0.1692 -1.2258 -3.8778
  382THF    H13 4966   1.671   4.119   4.162 -0.3747  0.0140 -0.1077
  383THF     O1 4967   3.523   4.324   1.499 -0.4035 -0.1515 -0.1105
  383THF     C2 4968   3.537   4.408   1.389 -0.3954  0.6549  0.3483
  383THF     C3 4969   3.572   4.399   1.614 -0.1442  0.6762  0.3098
  383THF     H4 4970   3.450   4.474   1.393  1.1560  2.8515 -0.0978
  383THF     H5 4971   3.523   4.357   1.294  0.7174 -0.0904  0.5644
  383THF     H6 4972   3.501   4.472   1.652 -0.4079  0.0353  1.0725
  383THF     H7 4973   3.595   4.330   1.695 -0.7443 -1.4583 -1.2509
  383THF     C8 4974   3.698   4.463   1.553 -0.0898  0.3019  0.3696
  383THF     C9 4975   3.665   4.489   1.405  0.0423  0.2732 -0.1719
  383THF    H10 4976   3.787   4.405   1.576 -1.0755 -0.5407  2.2406
  383THF    H11 4977   3.723   4.555   1.607 -1.3517  0.2790  1.0356
  383THF    H12 4978   3.641   4.595   1.393 -0.9191  0.1367  0.4618
  383THF    H13 4979   3.741   4.458   1.333 -1.0335 -2.2610 -0.3351
  384THF     O1 4980   4.428   4.105   3.290  0.2799 -0.0323 -0.3851
  384THF     C2 4981   4.363   4.175   3.184  0.5880  0.0782 -0.2435
  384THF     C3 4982   4.349   4.105   3.408  0.2626 -0.4747  0.5237
  384THF     H4 4983   4.406   4.158   3.085  0.3938  0.2971 -0.3644
  384THF     H5 4984   4.371   4.279   3.213  0.6888 -0.5828  2.3544
  384THF     H6 4985   4.347   4.000   3.438  0.3825 -0.5225  0.3662
  384THF     H7 4986   4.395   4.165   3.486  1.4434  0.3575 -0.7561
  384THF     C8 4987   4.203   4.146   3.368 -0.5772 -0.0085  0.1231
  384THF     C9 4988   4.213   4.139   3.206 -0.4018  0.2482  0.1600
  384THF    H10 4989   4.192   4.246   3.410 -0.5827 -0.3917  1.0564
  384THF    H11 4990   4.133   4.071   3.403  0.3769 -1.7548 -1.5661
  384THF    H12 4991   4.211   4.036   3.171 -0.7597  0.2862  0.0676
  384THF    H13 4992   4.137   4.201   3.160 -0.9072 -0.3715  0.1526
  385THF     O1 4993   0.328   3.703   1.738 -0.0891 -0.0193  0.2038
  385THF     C2 4994   0.328   3.749   1.872  0.2239  0.2398  0.0692
  385THF     C3 4995   0.232   3.773   1.657 -0.2334  0.8855 -0.9115
  385THF     H4 4996   0.416   3.809   1.895  0.4246  0.8447 -2.1094
  385THF     H5 4997   0.318   3.660   1.936 -1.6574 -1.3997 -2.3196
  385THF     H6 4998   0.275   3.866   1.622  1.5640  0.9172  1.1340
  385THF     H7 4999   0.195   3.715   1.572 -1.2768  0.3239 -0.1029
  385THF     C8 5000   0.123   3.809   1.753  0.8820 -0.1949  0.2619
  385THF     C9 5001   0.195   3.829   1.880 -0.6071 -0.0403  0.4903
  385THF    H10 5002   0.046   3.733   1.765 -0.1785  0.8991  0.6040
  385THF    H11 5003   0.075   3.890   1.698  3.3208 -0.6703 -2.8312
  385THF    H12 5004   0.223   3.934   1.873 -1.1724  0.0498 -0.8265
  385THF    H13 5005   0.132   3.804   1.966 -0.6693 -3.6177 -0.4156
  386THF     O1 5006   3.857   1.620   3.117  0.0250  0.0105 -0.1439
  386THF     C2 5007   3.864   1.753   3.078 -0.7464 -0.5060 -0.1996
  386THF     C3 5008   3.941   1.597   3.232 -0.4403 -0.2959  0.3375
  386THF     H4 5009   3.761   1.778   3.050 -0.3496  1.4925 -0.0430
  386THF     H5 5010   3.910   1.760   2.979 -1.5986 -2.5177 -0.7833
  386THF     H6 5011   3.900   1.524   3.302  0.7885  0.6338  2.1116
  386THF     H7 5012   4.038   1.563   3.195 -0.2728  0.4732  0.0365
  386THF     C8 5013   3.951   1.730   3.306  1.0749 -1.2461  1.0065
  386THF     C9 5014   3.935   1.841   3.192  0.0226 -0.1548 -0.6693
  386THF    H10 5015   4.035   1.743   3.373  1.6234  0.3848  0.0630
  386THF    H11 5016   3.862   1.749   3.367  1.0793 -0.1714  0.7088
  386THF    H12 5017   3.870   1.926   3.217 -0.4683 -1.3748  2.6921
  386THF    H13 5018   4.033   1.882   3.171 -0.6934  2.3301  0.4343
  387THF     O1 5019   5.100   5.338   4.668 -0.0347  0.1305 -0.0796
  387THF     C2 5020   4.965   5.343   4.710 -0.3063  0.0152  0.5107
  387THF     C3 5021   5.117   5.384   4.535 -0.7585 -0.1740 -0.0656
  387THF     H4 5022   4.947   5.443   4.749  0.6119 -0.8585  3.4534
  387THF     H5 5023   4.938   5.267   4.783  0.7079  1.4484  2.4522
  387THF     H6 5024   5.172   5.479   4.532 -1.5484  0.3168  0.6210
  387THF     H7 5025   5.178   5.319   4.473  1.4406  2.3823 -0.8064
  387THF     C8 5026   4.980   5.398   4.486 -0.5158  0.2277  0.1184
  387THF     C9 5027   4.885   5.324   4.580  0.0766 -0.1809 -0.3271
  387THF    H10 5028   4.971   5.355   4.386  0.1974 -0.4649  0.3469
  387THF    H11 5029   4.952   5.503   4.475  1.1034  0.5057 -2.1931
  387THF    H12 5030   4.784   5.364   4.589 -0.5907 -2.2155  2.8072
  387THF    H13 5031   4.898   5.218   4.559 -1.7192 -0.6587  0.7671
  388THF     O1 5032   3.567   4.110   1.293  0.1888 -0.3135  0.3844
  388THF     C2 5033   3.685   4.077   1.360 -0.5748  0.2087 -0.4315
  388THF     C3 5034   3.599   4.137   1.154  0.0900 -0.3721 -0.3490
  388THF     H4 5035   3.710   3.974   1.337 -0.5727  0.2114 -0.4432
  388THF     H5 5036   3.689   4.064   1.468  0.5897  0.6588 -0.4081
  388THF     H6 5037   3.614   4.033   1.125  2.9601 -0.5144  1.2569
  388THF     H7 5038   3.520   4.189   1.099 -0.8410 -0.5008  0.8203
  388THF     C8 5039   3.737   4.208   1.162  0.3281  0.3315 -0.3100
  388THF     C9 5040   3.795   4.162   1.299  0.1954 -0.5191  0.1124
  388THF    H10 5041   3.725   4.316   1.157 -1.0511  0.2422  0.3935
  388THF    H11 5042   3.794   4.174   1.076  1.0064  1.2203 -0.2355
  388THF    H12 5043   3.886   4.102   1.298 -1.1081 -2.6074 -0.6274
  388THF    H13 5044   3.813   4.249   1.362 -1.2604  0.4225 -0.6968
  389THF     O1 5045   4.401   4.616   1.468 -0.2589  0.5502  0.5532
  389THF     C2 5046   4.277   4.609   1.404 -0.5210 -0.0297  0.8838
  389THF     C3 5047   4.362   4.595   1.607 -0.1859 -0.7910  0.7308
  389THF     H4 5048   4.309   4.586   1.303 -0.1857 -2.7509  1.5369
  389THF     H5 5049   4.216   4.700   1.398  1.3310  1.1505 -1.6036
  389THF     H6 5050   4.450   4.568   1.665  0.6087  1.6451  0.7582
  389THF     H7 5051   4.312   4.682   1.650  1.2924  0.4675 -0.0260
  389THF     C8 5052   4.267   4.482   1.599 -0.4701  0.3765 -0.3263
  389THF     C9 5053   4.193   4.499   1.470 -0.1109  0.3463  0.1350
  389THF    H10 5054   4.207   4.478   1.690  0.3427  0.7345  0.2357
  389THF    H11 5055   4.331   4.394   1.594 -1.7613 -0.5349 -1.9439
  389THF    H12 5056   4.205   4.416   1.401 -1.4872 -0.6728  1.0663
  389THF    H13 5057   4.091   4.534   1.486 -0.1280  0.8978 -1.0784
  390THF     O1 5058   4.776   0.756   5.323  0.4429  0.0047  0.4228
  390THF     C2 5059   4.762   0.724   5.188 -0.4286 -0.4781 -0.6311
  390THF     C3 5060   4.878   0.852   5.341 -0.3460 -0.8798  0.2539
  390THF     H4 5061   4.708   0.795   5.126  0.4555 -0.0786 -0.9681
  390THF     H5 5062   4.715   0.629   5.164 -0.1641 -0.7407 -0.1272
  390THF     H6 5063   4.854   0.958   5.339  0.6390 -0.6564 -1.4867
  390THF     H7 5064   4.910   0.829   5.442 -0.3593 -1.3073  0.1635
  390THF     C8 5065   4.980   0.816   5.233  0.2051 -0.3544  0.1704
  390THF     C9 5066   4.905   0.725   5.136  0.0218 -0.6358 -0.7754
  390THF    H10 5067   5.061   0.759   5.278 -1.1689 -0.8182  2.1961
  390THF    H11 5068   5.011   0.904   5.177 -3.8691  0.8322 -0.5597
  390THF    H12 5069   4.896   0.756   5.032 -0.4415  0.0381 -0.5397
  390THF    H13 5070   4.955   0.628   5.133 -1.1105 -1.2322 -1.5553
  391THF     O1 5071   3.469   2.333   3.287 -0.1228 -0.0709  0.8646
  391THF     C2 5072   3.413   2.373   3.160 -0.1729  0.9868  0.5075
  391THF     C3 5073   3.380   2.357   3.394  0.4678  0.0194 -0.4231
  391THF     H4 5074   3.345   2.296   3.126  0.1632  1.1321 -0.5558
  391THF     H5 5075   3.487   2.394   3.082 -2.1979 -0.3668 -1.9077
  391THF     H6 5076   3.309   2.275   3.400  0.4785  0.0751  0.8370
  391THF     H7 5077   3.439   2.353   3.486 -0.4790  0.3264  0.2120
  391THF     C8 5078   3.316   2.489   3.354  0.1858  0.2726  0.2343
  391THF     C9 5079   3.349   2.500   3.205  0.0911 -0.2957 -0.3435
  391THF    H10 5080   3.340   2.572   3.421 -2.1774  0.0419  1.4785
  391THF    H11 5081   3.207   2.487   3.366 -0.1504  3.4373 -1.3084
  391THF    H12 5082   3.265   2.544   3.151  1.3109  0.8404 -1.3809
  391THF    H13 5083   3.418   2.585   3.202  0.7324 -0.8190 -0.5674
  392THF     O1 5084   2.394   3.149   1.234 -0.1677  0.6372 -0.5287
  392THF     C2 5085   2.426   3.012   1.270  0.7292  0.1666  0.1521
  392THF     C3 5086   2.372   3.163   1.097 -0.0774  0.4433  0.0034
  392THF     H4 5087   2.341   2.961   1.316  1.7525 -1.2885  0.5005
  392THF     H5 5088   2.501   3.011   1.350  2.3129 -0.7467 -1.2696
  392THF     H6 5089   2.265   3.176   1.084 -0.5775 -1.1488  1.9610
  392THF     H7 5090   2.425   3.252   1.062 -0.4000 -0.2691 -2.4847
  392THF     C8 5091   2.412   3.028   1.037  0.2563 -0.5366  0.3426
  392THF     C9 5092   2.475   2.947   1.143  1.0435 -0.0072  0.0821
  392THF    H10 5093   2.476   3.041   0.951 -1.2991  1.9344 -0.5627
  392THF    H11 5094   2.323   2.980   0.996 -1.1603 -0.7060  3.2892
  392THF    H12 5095   2.446   2.842   1.136  0.5942  0.0714  0.6881
  392THF    H13 5096   2.584   2.946   1.146  1.1238 -0.2639 -1.6899
  393THF     O1 5097   0.581   0.869   2.184  0.0321  0.6002 -0.0123
  393THF     C2 5098   0.603   0.921   2.056  0.8693  0.2287  0.3150
  393THF     C3 5099   0.481   0.773   2.158 -0.2717  0.6785 -0.1928
  393THF     H4 5100   0.669   0.859   1.996 -0.5990  0.9945 -2.2348
  393THF     H5 5101   0.656   1.017   2.059  1.2301  0.1955 -2.6919
  393THF     H6 5102   0.530   0.682   2.122  0.2510  0.0385  1.9720
  393THF     H7 5103   0.424   0.745   2.247 -1.9603 -0.4706 -1.5750
  393THF     C8 5104   0.389   0.824   2.054  0.2940  0.1138 -0.3313
  393THF     C9 5105   0.464   0.934   1.984 -0.1651  0.4123 -0.5442
  393THF    H10 5106   0.289   0.855   2.086 -0.2384 -1.1900 -0.6834
  393THF    H11 5107   0.367   0.735   1.995  1.0785 -1.9789  2.3640
  393THF    H12 5108   0.480   0.924   1.876 -0.9220  0.6785 -0.6827
  393THF    H13 5109   0.415   1.029   2.006 -2.3735 -0.7045 -0.4436
  394THF     O1 5110   4.511   4.191   0.940  0.1829  0.2908 -0.7917
  394THF     C2 5111   4.400   4.141   0.872  0.2601  0.3372  0.2787
  394THF     C3 5112   4.475   4.331   0.960 -0.0584 -0.3842  0.2506
  394THF     H4 5113   4.313   4.142   0.937 -0.7235 -0.6476 -0.9873
  394THF     H5 5114   4.409   4.042   0.829  1.1996 -0.3015  1.8615
  394THF     H6 5115   4.397   4.337   1.035 -0.6002 -2.8546 -0.0225
  394THF     H7 5116   4.560   4.394   0.986 -1.2603  1.3230  0.2584
  394THF     C8 5117   4.416   4.376   0.825 -0.6972 -0.5310  0.1738
  394THF     C9 5118   4.355   4.244   0.771 -0.5681  0.3551  0.1555
  394THF    H10 5119   4.483   4.411   0.746 -1.6752 -1.6243 -1.2032
  394THF    H11 5120   4.337   4.451   0.836 -0.4018  0.0173 -1.2271
  394THF    H12 5121   4.246   4.253   0.762 -0.5135  1.4660  0.4675
  394THF    H13 5122   4.383   4.216   0.669 -1.4946 -0.3070  0.0683
  395THF     O1 5123   3.122   2.953   3.375  0.1302  0.1800  0.0319
  395THF     C2 5124   3.115   2.824   3.323 -0.1312 -0.2841  0.2195
  395THF     C3 5125   2.994   3.017   3.359  0.3103 -0.2288  0.0449
  395THF     H4 5126   3.162   2.755   3.394 -0.7836  0.4809  1.4289
  395THF     H5 5127   3.165   2.829   3.226  0.3796 -1.4562  0.4079
  395THF     H6 5128   2.968   3.050   3.459 -0.3117 -0.7177  0.0505
  395THF     H7 5129   3.002   3.117   3.316  1.1367  0.3651  1.5285
  395THF     C8 5130   2.905   2.915   3.294  0.1484 -0.3401  0.0365
  395THF     C9 5131   2.972   2.786   3.319  0.3392  0.6112 -0.2151
  395THF    H10 5132   2.901   2.940   3.188 -1.3343 -0.9704 -0.0705
  395THF    H11 5133   2.802   2.920   3.328 -0.7755 -1.1081 -2.3944
  395THF    H12 5134   2.939   2.736   3.410 -0.8889  1.6303 -0.0643
  395THF    H13 5135   2.952   2.715   3.238 -0.6829  0.5894  0.0377
  396THF     O1 5136   4.821   3.135   2.784  0.3524  0.3665  0.0888
  396THF     C2 5137   4.911   3.165   2.676  0.2410  0.6068  0.5305
  396THF     C3 5138   4.726   3.039   2.749 -0.0540  0.1348 -1.0492
  396THF     H4 5139   5.008   3.203   2.707 -0.0167  1.6963  0.0567
  396THF     H5 5140   4.867   3.250   2.624  2.2562  0.2034 -2.0410
  396THF     H6 5141   4.723   2.954   2.817  0.0550  0.2709 -0.8747
  396THF     H7 5142   4.623   3.075   2.741 -0.3816 -0.4846  0.1615
  396THF     C8 5143   4.778   2.991   2.606  0.1620  0.3477  0.5848
  396THF     C9 5144   4.908   3.050   2.587  0.1578 -0.1200 -0.0918
  396THF    H10 5145   4.708   3.022   2.529 -0.3479 -0.3726  0.7384
  396THF    H11 5146   4.781   2.882   2.601 -1.0616  0.3114  0.4304
  396THF    H12 5147   4.990   2.987   2.621  1.3317  1.3381 -0.1230
  396THF    H13 5148   4.920   3.077   2.482 -2.7807 -1.5620 -0.9109
  397THF     O1 5149   3.754   4.120   3.253 -0.0531 -0.1905  0.3377
  397THF     C2 5150   3.776   4.043   3.128  0.0271  0.3448 -0.7571
  397THF     C3 5151   3.646   4.078   3.321  0.8020  0.2834 -0.2075
  397THF     H4 5152   3.882   4.033   3.102  0.4235 -1.5276  1.2738
  397THF     H5 5153   3.716   4.089   3.050 -0.5651 -0.4047 -0.7619
  397THF     H6 5154   3.661   4.083   3.428  0.6650 -3.6283  0.1413
  397THF     H7 5155   3.562   4.143   3.299  2.1025  1.4872 -2.0161
  397THF     C8 5156   3.627   3.935   3.287 -0.2582 -0.9476  0.0952
  397THF     C9 5157   3.715   3.907   3.161 -0.1761  0.2510  0.2921
  397THF    H10 5158   3.527   3.902   3.259 -0.1827 -0.2436 -1.0416
  397THF    H11 5159   3.648   3.866   3.370  0.0468 -0.2652  0.5977
  397THF    H12 5160   3.800   3.843   3.184  0.7781  1.4372  0.1521
  397THF    H13 5161   3.656   3.859   3.083  3.5356 -0.9973 -2.0125
  398THF     O1 5162   3.327   3.171   3.296  0.2295 -0.1673 -0.3656
  398THF     C2 5163   3.357   3.116   3.172 -0.5276 -0.0962  0.1651
  398THF     C3 5164   3.383   3.304   3.293  0.2818 -0.2380  0.0530
  398THF     H4 5165   3.277   3.140   3.102  0.7031 -0.9519 -1.5838
  398THF     H5 5166   3.349   3.008   3.170 -1.2073 -0.0889 -3.0676
  398THF     H6 5167   3.303   3.363   3.250 -0.7391 -1.4610  0.2044
  398THF     H7 5168   3.415   3.344   3.389 -1.5532  1.0728  0.1579
  398THF     C8 5169   3.503   3.306   3.193  0.0700 -0.0969  0.1288
  398THF     C9 5170   3.487   3.175   3.120 -0.0148 -0.2969  0.0208
  398THF    H10 5171   3.595   3.319   3.250 -0.4961  0.6520  0.9026
  398THF    H11 5172   3.488   3.395   3.131  1.1041 -1.1897 -1.7721
  398THF    H12 5173   3.478   3.193   3.013  1.5020  1.4261  0.1232
  398THF    H13 5174   3.578   3.114   3.129 -0.1272 -1.2197 -3.6189
  399THF     O1 5175   1.997   0.846   4.429  0.5042  0.2102  0.1237
  399THF     C2 5176   1.912   0.730   4.431  0.1568 -0.0473 -0.2546
  399THF     C3 5177   1.923   0.962   4.464 -0.3056  0.1850  0.5042
  399THF     H4 5178   1.939   0.670   4.518  1.4672 -0.6218 -1.0226
  399THF     H5 5179   1.919   0.667   4.342 -0.1757 -0.8473  0.2748
  399THF     H6 5180   1.910   0.974   4.571  1.1036 -0.8252  0.8061
  399THF     H7 5181   1.972   1.049   4.422  0.3194 -0.1144  0.6097
  399THF     C8 5182   1.799   0.929   4.394 -0.1565  0.1028  0.2041
  399THF     C9 5183   1.769   0.791   4.434 -0.2804  0.1162 -0.2438
  399THF    H10 5184   1.823   0.928   4.287  1.5465 -0.1622  0.5561
  399THF    H11 5185   1.720   0.999   4.420 -3.0491 -1.6946 -2.9221
  399THF    H12 5186   1.721   0.791   4.532  2.3181 -1.4669  1.1475
  399THF    H13 5187   1.694   0.750   4.367 -1.2062  0.9985  0.2309
  400THF     O1 5188   3.733   4.769   2.159 -0.6864 -0.0835  0.0623
  400THF     C2 5189   3.625   4.828   2.223  0.9308 -0.4618 -0.0924
  400THF     C3 5190   3.694   4.733   2.031 -0.2898  0.4040 -0.4975
  400THF     H4 5191   3.654   4.924   2.266  1.3919  0.4689 -2.2945
  400THF     H5 5192   3.594   4.767   2.308  0.3637 -1.9246 -1.2929
  400THF     H6 5193   3.774   4.730   1.957  0.8662 -0.6401  0.7307
  400THF     H7 5194   3.666   4.628   2.043 -1.5552  0.6255 -1.3260
  400THF     C8 5195   3.575   4.826   1.991  0.0507 -0.7863 -0.3546
  400THF     C9 5196   3.505   4.850   2.129 -0.6934  0.1020  0.2202
  400THF    H10 5197   3.503   4.793   1.917  1.4927 -1.5261 -1.4869
  400THF    H11 5198   3.613   4.922   1.957  1.1035 -0.6499  1.1079
  400THF    H12 5199   3.460   4.949   2.134  0.3960  0.7528 -1.9442
  400THF    H13 5200   3.434   4.768   2.144  0.1749 -0.1317  4.0174
  401THF     O1 5201   2.938   1.622   0.224  0.2513 -0.1826  0.0432
  401THF     C2 5202   2.906   1.752   0.268  0.0637  0.2023  0.1436
  401THF     C3 5203   2.961   1.616   0.084 -0.2555 -0.4855 -0.1992
  401THF     H4 5204   2.933   1.767   0.372  0.6356  0.0653  0.0196
  401THF     H5 5205   2.800   1.774   0.255 -0.0208 -0.4192 -0.2255
  401THF     H6 5206   3.059   1.570   0.071 -1.3383 -2.7549 -0.7975
  401THF     H7 5207   2.886   1.571   0.019  0.3128 -0.2490 -1.0283
  401THF     C8 5208   2.983   1.757   0.040 -0.6163 -0.3881 -0.4251
  401THF     C9 5209   2.981   1.836   0.170 -0.7863  0.4946  0.6303
  401THF    H10 5210   2.897   1.799  -0.012 -0.5547 -1.3018 -1.2979
  401THF    H11 5211   3.071   1.767  -0.024 -0.0146  2.5047  0.7078
  401THF    H12 5212   3.084   1.840   0.205  0.1828  0.5340 -1.9508
  401THF    H13 5213   2.937   1.935   0.156  3.1032  2.0409 -2.9294
  402THF     O1 5214   0.181   5.000   2.491  0.1853  0.3172 -0.0055
  402THF     C2 5215   0.177   4.984   2.346 -0.3164 -0.4007  0.2014
  402THF     C3 5216   0.313   4.966   2.544  0.6513  0.1780 -0.1344
  402THF     H4 5217   0.146   5.070   2.286  1.5740  0.2342  0.0588
  402THF     H5 5218   0.108   4.903   2.321  0.8829 -1.6531  0.8389
  402THF     H6 5219   0.319   5.025   2.635 -1.0714  0.8939 -0.4301
  402THF     H7 5220   0.316   4.858   2.559  1.7184 -0.2992 -3.0849
  402THF     C8 5221   0.396   5.005   2.424 -0.1586 -0.2605 -0.4598
  402THF     C9 5222   0.318   4.938   2.306 -0.1895 -0.7007 -0.2466
  402THF    H10 5223   0.499   4.971   2.435 -0.3688 -0.6370  0.4078
  402THF    H11 5224   0.390   5.110   2.398 -1.1009 -0.0465  0.5674
  402THF    H12 5225   0.348   4.976   2.208 -1.9986 -0.8823 -0.9168
  402THF    H13 5226   0.322   4.829   2.299  0.2370 -0.7836  0.9798
  403THF     O1 5227   1.486   0.426   4.197  0.5690  0.3598 -0.7490
  403THF     C2 5228   1.413   0.369   4.306  0.5410  1.0997 -0.2398
  403THF     C3 5229   1.585   0.508   4.243 -0.1712  0.0241 -1.0798
  403THF     H4 5230   1.350   0.286   4.276  0.4803  1.0967 -0.1022
  403THF     H5 5231   1.340   0.440   4.344 -0.3868  1.3417 -2.3131
  403THF     H6 5232   1.674   0.535   4.185 -0.8504  1.3967 -1.5159
  403THF     H7 5233   1.541   0.607   4.245 -0.1200  0.0373  0.2313
  403THF     C8 5234   1.627   0.453   4.377  0.8601 -0.0771 -0.0599
  403THF     C9 5235   1.530   0.337   4.400 -0.0808 -0.4705 -0.2388
  403THF    H10 5236   1.612   0.530   4.452 -0.4029 -1.6508  1.3885
  403THF    H11 5237   1.725   0.404   4.383  2.7464  3.4343  0.1006
  403THF    H12 5238   1.575   0.239   4.382 -1.5568 -1.1819 -0.2500
  403THF    H13 5239   1.492   0.346   4.502 -0.1079  3.9320 -0.4653
  404THF     O1 5240   1.881   4.943   3.847  0.2393  0.2121 -0.5051
  404THF     C2 5241   1.822   5.071   3.864  0.1375  0.1176 -0.1000
  404THF     C3 5242   1.779   4.851   3.830  0.1561  0.2099 -0.4703
  404THF     H4 5243   1.888   5.155   3.839  0.6806 -0.9531 -2.5628
  404THF     H5 5244   1.787   5.078   3.967  0.1910  1.0619 -0.1311
  404THF     H6 5245   1.797   4.784   3.746  1.4494 -0.5471  0.3784
  404THF     H7 5246   1.767   4.794   3.922  0.1337  1.6579  0.4582
  404THF     C8 5247   1.653   4.935   3.806  0.3663 -1.1072 -0.4542
  404THF     C9 5248   1.698   5.065   3.772 -0.2253 -0.4238  0.5774
  404THF    H10 5249   1.598   4.939   3.900  2.5503  1.3654  0.8121
  404THF    H11 5250   1.590   4.893   3.727  0.0790  0.1310 -0.8970
  404THF    H12 5251   1.725   5.071   3.666 -0.5582  1.0859  0.5634
  404THF    H13 5252   1.623   5.138   3.803 -2.7320 -1.4839 -2.4590
  405THF     O1 5253   5.069   2.977   0.501 -0.3846 -0.5012 -0.2742
  405THF     C2 5254   5.072   2.997   0.363 -0.0946 -0.7776 -0.2806
  405THF     C3 5255   5.207   2.968   0.545 -0.3256  0.2796  0.4633
  405THF     H4 5256   4.988   3.058   0.329  0.3048 -0.0139  0.0716
  405THF     H5 5257   5.069   2.896   0.323 -0.6121 -1.4381  1.3718
  405THF     H6 5258   5.219   2.987   0.652  0.9401  1.4438  0.1439
  405THF     H7 5259   5.235   2.865   0.523  0.2458  1.1218 -3.5024
  405THF     C8 5260   5.287   3.060   0.458 -0.8318 -0.7991  0.1906
  405THF     C9 5261   5.203   3.069   0.333 -0.0399  0.2267  0.8863
  405THF    H10 5262   5.393   3.040   0.446 -0.6144 -0.0011  0.7387
  405THF    H11 5263   5.282   3.152   0.516  0.5771  0.0035 -0.8868
  405THF    H12 5264   5.178   3.174   0.317 -1.0423 -0.1912 -0.5652
  405THF    H13 5265   5.236   3.045   0.232  1.5065  0.9709  1.1796
  406THF     O1 5266   3.594   2.251   0.950 -0.0941 -0.4983  0.0918
  406THF     C2 5267   3.601   2.174   0.834  0.1388 -0.2217  0.1863
  406THF     C3 5268   3.483   2.337   0.933 -0.5422 -0.1097 -0.2948
  406THF     H4 5269   3.635   2.072   0.852 -1.7336 -1.1788 -1.2852
  406THF     H5 5270   3.680   2.214   0.771  0.4809 -1.6238 -0.3070
  406THF     H6 5271   3.453   2.387   1.026 -2.8349 -1.2855 -0.3383
  406THF     H7 5272   3.517   2.416   0.866  1.7157  1.9018  2.8687
  406THF     C8 5273   3.378   2.254   0.869 -0.3362  0.5802  0.4215
  406THF     C9 5274   3.457   2.160   0.782  0.3195  0.4792  0.5290
  406THF    H10 5275   3.313   2.314   0.804 -0.0433 -0.7778 -1.1841
  406THF    H11 5276   3.318   2.202   0.943 -1.3044  0.6291 -0.3038
  406THF    H12 5277   3.436   2.055   0.800  1.0452  0.4537  1.2392
  406THF    H13 5278   3.444   2.190   0.677  0.1150 -0.9334  0.1297
  407THF     O1 5279   4.632   2.444   2.912 -0.4798 -0.9583 -0.1017
  407THF     C2 5280   4.682   2.464   2.778 -0.6074  0.4641  0.1416
  407THF     C3 5281   4.583   2.309   2.922  0.5098 -0.0468  0.0169
  407THF     H4 5282   4.786   2.441   2.801 -1.0830 -1.2501  0.7130
  407THF     H5 5283   4.679   2.564   2.734  0.7858 -0.2816 -1.7986
  407THF     H6 5284   4.622   2.264   3.013  1.2596  1.0009  0.2339
  407THF     H7 5285   4.474   2.301   2.919  0.5879 -2.2463  0.9578
  407THF     C8 5286   4.642   2.240   2.798  0.3526 -0.9947  0.5643
  407THF     C9 5287   4.625   2.349   2.696  0.3055  0.0468 -0.4014
  407THF    H10 5288   4.586   2.149   2.776  0.5779 -1.3508  1.4257
  407THF    H11 5289   4.748   2.216   2.804  0.1975 -1.5299  1.3537
  407THF    H12 5290   4.680   2.318   2.607 -2.0613  1.4180 -2.4884
  407THF    H13 5291   4.524   2.373   2.663  0.2634  0.3817 -0.0325
  408THF     O1 5292   4.242   2.499   1.944 -0.2195  0.1756 -0.3282
  408THF     C2 5293   4.376   2.478   1.894  0.0874  0.2331 -0.4338
  408THF     C3 5294   4.266   2.559   2.074  0.0163 -0.3262  0.2466
  408THF     H4 5295   4.391   2.489   1.786  0.2117  0.6243 -0.3785
  408THF     H5 5296   4.398   2.373   1.917  2.4502  0.1735 -2.5578
  408THF     H6 5297   4.183   2.619   2.112  1.4262  1.7059  0.3122
  408THF     H7 5298   4.294   2.493   2.156 -0.9429 -1.9900 -0.7146
  408THF     C8 5299   4.380   2.661   2.047 -0.8311 -0.4846  0.7994
  408THF     C9 5300   4.479   2.574   1.967  0.1195  0.4055  0.1152
  408THF    H10 5301   4.423   2.697   2.140 -0.0554  0.6583  0.0111
  408THF    H11 5302   4.346   2.744   1.986  2.7621  2.5422  2.5615
  408THF    H12 5303   4.544   2.634   1.904  2.0600 -0.9309  0.7708
  408THF    H13 5304   4.537   2.505   2.028 -1.1411 -0.6334  0.1796
  409THF     O1 5305   1.742   1.768   1.633  0.0442 -0.4296  0.6197
  409THF     C2 5306   1.778   1.649   1.568  0.3838  0.2988  0.5625
  409THF     C3 5307   1.619   1.749   1.693 -0.5386  0.2772 -0.6984
  409THF     H4 5308   1.884   1.647   1.543  0.6375  1.0860  1.5243
  409THF     H5 5309   1.714   1.642   1.480  0.9279  1.9962 -0.0040
  409THF     H6 5310   1.594   1.826   1.766  0.1283 -1.5259  1.5509
  409THF     H7 5311   1.536   1.755   1.623 -0.8124  0.0909 -0.3962
  409THF     C8 5312   1.631   1.604   1.742 -0.1980  0.2511 -0.3491
  409THF     C9 5313   1.755   1.544   1.675 -0.1409 -0.4005 -0.6662
  409THF    H10 5314   1.541   1.551   1.711 -1.2265  0.6536  1.7690
  409THF    H11 5315   1.634   1.604   1.850  1.3858 -3.7835 -0.2174
  409THF    H12 5316   1.840   1.536   1.743 -1.2251  0.9346  0.9401
  409THF    H13 5317   1.737   1.451   1.622 -0.2285  0.2364 -1.7973
  410THF     O1 5318   4.560   3.993   0.390 -0.0202 -0.2930 -0.4003
  410THF     C2 5319   4.592   3.896   0.291 -0.3883  0.4271 -0.6179
  410THF     C3 5320   4.517   4.111   0.318 -0.4396 -0.3569  0.6758
  410THF     H4 5321   4.501   3.840   0.270 -1.9580  2.0370  1.3460
  410THF     H5 5322   4.662   3.826   0.337 -1.3580  0.4569  0.9584
  410THF     H6 5323   4.409   4.122   0.314 -0.3383  0.3706 -1.8226
  410THF     H7 5324   4.557   4.204   0.360  2.6821 -1.4496  0.4330
  410THF     C8 5325   4.562   4.097   0.174  0.0565  0.0336  0.4149
  410THF     C9 5326   4.648   3.977   0.170 -0.0946 -0.0114 -0.3783
  410THF    H10 5327   4.605   4.193   0.144 -0.4254 -0.0753 -0.6346
  410THF    H11 5328   4.479   4.072   0.108 -0.2149 -0.7215  1.0226
  410THF    H12 5329   4.655   3.919   0.077  2.8760  0.3990 -0.4964
  410THF    H13 5330   4.754   3.994   0.185  0.6425 -3.2940 -1.1136
  411THF     O1 5331   2.724   0.935   4.633  0.5573  0.3420  0.2788
  411THF     C2 5332   2.631   1.041   4.641  0.1229 -0.0538  0.3816
  411THF     C3 5333   2.694   0.870   4.513 -0.2794  0.3782 -0.5192
  411THF     H4 5334   2.651   1.101   4.552 -0.8387 -1.9551 -1.1934
  411THF     H5 5335   2.626   1.111   4.724  0.2014 -0.9524  1.1658
  411THF     H6 5336   2.722   0.937   4.432  0.2619  1.9727  0.9424
  411THF     H7 5337   2.754   0.779   4.507 -0.7986  0.0962 -1.7316
  411THF     C8 5338   2.545   0.857   4.517  0.2162 -0.4099 -0.0608
  411THF     C9 5339   2.499   0.967   4.612 -0.2135 -0.3096  0.3144
  411THF    H10 5340   2.517   0.764   4.567  1.2723  1.2108  3.9814
  411THF    H11 5341   2.490   0.865   4.423  1.0005  0.0523 -0.4896
  411THF    H12 5342   2.410   1.019   4.575 -0.3055  1.6971  3.0279
  411THF    H13 5343   2.456   0.925   4.702  1.3269 -1.3850  0.5794
  412THF     O1 5344   1.449   1.461   3.940 -0.1815 -0.4696  0.0724
  412THF     C2 5345   1.550   1.465   4.040 -0.7749  0.3003  0.4520
  412THF     C3 5346   1.368   1.575   3.956 -0.7325  0.2304  0.4000
  412THF     H4 5347   1.636   1.404   4.009  0.6468  2.1058  0.6526
  412THF     H5 5348   1.519   1.437   4.140 -1.8962  0.2678  0.1031
  412THF     H6 5349   1.309   1.593   3.866  0.2185  1.6346  0.0300
  412THF     H7 5350   1.299   1.572   4.040  2.0622  0.4325  2.8358
  412THF     C8 5351   1.467   1.685   3.986 -0.2850 -0.6123  0.9495
  412THF     C9 5352   1.597   1.612   4.023 -0.3140 -0.4340 -0.3717
  412THF    H10 5353   1.424   1.746   4.065 -0.8629  0.4095 -0.1272
  412THF    H11 5354   1.478   1.740   3.892  1.9388  1.4822  2.3061
  412THF    H12 5355   1.673   1.615   3.946 -0.2666  2.8423 -0.3405
  412THF    H13 5356   1.654   1.652   4.106 -0.6313  0.1533 -0.4316
  413THF     O1 5357   4.361   4.678   4.527  0.2696 -0.2208 -0.7607
  413THF     C2 5358   4.314   4.754   4.641  0.5222 -0.3124  0.4752
  413THF     C3 5359   4.505   4.692   4.522  0.8696  0.4246  0.3365
  413THF     H4 5360   4.297   4.681   4.720 -0.6431 -1.7308 -1.0301
  413THF     H5 5361   4.221   4.808   4.625 -1.2394 -2.4370  2.6369
  413THF     H6 5362   4.551   4.595   4.503  2.4778  1.5678 -2.3183
  413THF     H7 5363   4.534   4.736   4.426  3.1618 -2.1998 -0.2979
  413THF     C8 5364   4.549   4.765   4.647 -0.0935 -0.3384  0.6103
  413THF     C9 5365   4.426   4.841   4.679  0.3317 -0.2471  0.7243
  413THF    H10 5366   4.639   4.825   4.639  0.3416 -0.9007  1.2032
  413THF    H11 5367   4.565   4.706   4.737 -0.2969 -0.2741  0.6893
  413THF    H12 5368   4.436   4.866   4.785 -0.0630 -0.9695  0.9379
  413THF    H13 5369   4.428   4.925   4.610  0.0306 -1.6969 -1.1038
  414THF     O1 5370   4.019   5.423   1.109  0.4053  0.2454  0.0996
  414THF     C2 5371   3.921   5.398   1.004 -0.5002 -0.1420 -0.1217
  414THF     C3 5372   4.105   5.525   1.065 -0.0066 -0.3839  0.2487
  414THF     H4 5373   3.843   5.345   1.057  0.0479 -0.7731  0.0721
  414THF     H5 5374   3.964   5.336   0.926  1.0691  1.0464 -0.2557
  414THF     H6 5375   4.146   5.568   1.157 -0.0438 -0.3901  0.2682
  414THF     H7 5376   4.191   5.496   1.005 -0.1528  1.4108 -0.9040
  414THF     C8 5377   4.010   5.620   0.977 -0.1202  0.4516 -0.7061
  414THF     C9 5378   3.891   5.537   0.946 -0.0969  0.0042  0.0839
  414THF    H10 5379   4.075   5.644   0.893  1.4230 -2.2215 -0.3953
  414THF    H11 5380   3.992   5.708   1.038 -1.6198 -0.9015  0.8957
  414THF    H12 5381   3.808   5.580   1.001  0.0639 -0.7477  0.9427
  414THF    H13 5382   3.871   5.534   0.839  0.4484  3.0074 -0.1815
  415THF     O1 5383   5.110   3.268   4.209 -0.2292 -0.2310 -0.1224
  415THF     C2 5384   5.108   3.166   4.305 -0.6950  0.1715 -0.5564
  415THF     C3 5385   4.981   3.296   4.165 -0.1956 -0.1691 -0.6223
  415THF     H4 5386   5.201   3.178   4.360  0.1293 -0.8759 -1.6577
  415THF     H5 5387   5.110   3.059   4.285  3.6879 -0.6573  2.6593
  415THF     H6 5388   4.964   3.393   4.117 -0.8640 -0.6983 -1.5136
  415THF     H7 5389   4.942   3.220   4.098 -1.5671  0.9306 -1.1513
  415THF     C8 5390   4.904   3.304   4.304 -0.4094  0.3619 -0.1443
  415THF     C9 5391   4.988   3.210   4.388 -0.5019  0.5717  0.6946
  415THF    H10 5392   4.801   3.270   4.298 -0.2581 -0.1687  0.2195
  415THF    H11 5393   4.910   3.400   4.356  0.4368 -0.0301  0.5059
  415THF    H12 5394   5.026   3.274   4.468  1.6810 -0.2471  0.3719
  415THF    H13 5395   4.932   3.127   4.431  0.7199 -0.8982 -0.4260
  416THF     O1 5396   3.192   0.021   3.289 -0.1874  0.3901  0.3323
  416THF     C2 5397   3.099  -0.086   3.307 -0.4583  0.6622  0.3885
  416THF     C3 5398   3.201   0.052   3.143 -0.1818  0.5367 -0.5792
  416THF     H4 5399   3.000  -0.041   3.308 -0.9320 -0.2412 -1.8486
  416THF     H5 5400   3.105  -0.136   3.404 -1.3663  0.4563  0.3476
  416THF     H6 5401   3.102   0.084   3.109 -0.3642  0.0643 -0.5080
  416THF     H7 5402   3.283   0.114   3.107  1.4525 -1.4668 -0.4524
  416THF     C8 5403   3.219  -0.096   3.102  0.6181  0.0957  0.1723
  416THF     C9 5404   3.121  -0.177   3.186 -0.2734 -0.5108 -0.3569
  416THF    H10 5405   3.322  -0.124   3.125  1.4838  2.3982 -0.5887
  416THF    H11 5406   3.197  -0.118   2.998  0.6349  0.0652  0.1752
  416THF    H12 5407   3.025  -0.183   3.134 -0.2054 -1.6084 -0.3772
  416THF    H13 5408   3.153  -0.277   3.215  0.2404 -0.5610 -1.0776
  417THF     O1 5409   5.198   5.325   4.149 -0.4269  0.4771  0.2819
  417THF     C2 5410   5.336   5.356   4.150  0.4136  0.2524 -0.6206
  417THF     C3 5411   5.134   5.444   4.105 -0.6411  0.0810 -0.4885
  417THF     H4 5412   5.376   5.340   4.050 -0.3039 -0.9609 -0.7364
  417THF     H5 5413   5.390   5.279   4.206  1.2090 -1.2314 -3.2569
  417THF     H6 5414   5.128   5.458   3.997  0.9289  2.3678 -0.3455
  417THF     H7 5415   5.030   5.436   4.136  0.0404 -1.5614  1.5911
  417THF     C8 5416   5.212   5.562   4.174  0.4848  0.1030  0.1576
  417THF     C9 5417   5.350   5.503   4.189 -0.0062  0.2662  0.4718
  417THF    H10 5418   5.173   5.588   4.272  2.1074  1.1406  0.5628
  417THF    H11 5419   5.205   5.652   4.112  0.6669  1.4345  1.9772
  417THF    H12 5420   5.419   5.560   4.126 -1.1083  2.1103  0.8697
  417THF    H13 5421   5.378   5.525   4.292 -0.1099 -0.1687  0.5943
  418THF     O1 5422   1.290   2.413   2.977  0.5126  0.3664 -0.4806
  418THF     C2 5423   1.295   2.556   2.999  0.3432  0.3926  0.0967
  418THF     C3 5424   1.409   2.376   2.909 -0.5464 -0.2860 -0.1981
  418THF     H4 5425   1.364   2.584   3.079 -0.2406 -0.7181  1.0098
  418THF     H5 5426   1.199   2.602   3.022 -0.0826 -1.1918  1.7076
  418THF     H6 5427   1.492   2.386   2.979 -1.7258 -0.3744  1.2785
  418THF     H7 5428   1.390   2.279   2.863  0.3481 -1.3581  1.5913
  418THF     C8 5429   1.423   2.490   2.810  0.2248 -0.6693  0.4204
  418THF     C9 5430   1.343   2.609   2.866 -0.0833 -0.0593  0.0966
  418THF    H10 5431   1.381   2.465   2.713 -0.4860  1.5879  0.0932
  418THF    H11 5432   1.525   2.521   2.788 -0.0776 -0.9931 -1.6174
  418THF    H12 5433   1.408   2.695   2.881 -0.9552  1.0895 -2.1917
  418THF    H13 5434   1.280   2.649   2.787  0.3442 -0.4163 -0.4340
  419THF     O1 5435   1.264   3.723   0.111 -0.1116  0.6066  0.1261
  419THF     C2 5436   1.138   3.664   0.068 -0.3786  0.6548  0.0695
  419THF     C3 5437   1.302   3.831   0.032  1.0591 -0.0079  0.0090
  419THF     H4 5438   1.072   3.641   0.153  1.0597 -0.1744  1.0015
  419THF     H5 5439   1.156   3.570   0.017  0.3182  0.4194  0.7271
  419THF     H6 5440   1.358   3.911   0.081  0.4135  1.7003 -1.8574
  419THF     H7 5441   1.356   3.791  -0.054  0.2393 -0.8712 -0.1180
  419THF     C8 5442   1.168   3.887  -0.009  0.0621 -0.2925 -0.3847
  419THF     C9 5443   1.069   3.768  -0.014 -0.5212 -0.0029  0.3412
  419THF    H10 5444   1.170   3.949  -0.099  0.4878  0.5856  0.2116
  419THF    H11 5445   1.131   3.951   0.072  2.7014  0.8431  0.0237
  419THF    H12 5446   0.967   3.800   0.005 -0.1303  2.1900 -0.8993
  419THF    H13 5447   1.072   3.735  -0.118 -1.2956 -1.8590  0.8711
  420THF     O1 5448   0.166   0.675   3.397  0.5276 -0.3096  0.1444
  420THF     C2 5449   0.098   0.558   3.440 -0.3287  0.7091 -0.8281
  420THF     C3 5450   0.241   0.723   3.505  0.1102 -0.4659  0.0362
  420THF     H4 5451   0.169   0.478   3.460 -0.0963  0.5057 -2.3666
  420THF     H5 5452   0.014   0.523   3.381 -0.8061 -3.0201  1.7133
  420THF     H6 5453   0.332   0.664   3.504 -0.2251 -0.9974  0.4811
  420THF     H7 5454   0.263   0.829   3.499 -1.1187 -0.2188 -0.4808
  420THF     C8 5455   0.148   0.691   3.616 -0.0116  0.1960 -0.4518
  420THF     C9 5456   0.035   0.609   3.573 -0.7144 -0.3615 -0.6380
  420THF    H10 5457   0.119   0.770   3.685  1.7636 -1.2103  2.1029
  420THF    H11 5458   0.209   0.636   3.688 -0.1881  0.8769  0.2286
  420THF    H12 5459  -0.004   0.526   3.633  1.2687 -0.1074  1.1112
  420THF    H13 5460  -0.053   0.672   3.559 -0.2294  0.6725  0.7012
  421THF     O1 5461   2.957   2.925   0.360 -0.5767  0.3865  0.5410
  421THF     C2 5462   2.881   2.798   0.361 -0.7661  0.0938  0.1664
  421THF     C3 5463   3.077   2.893   0.430 -0.4358  0.7643 -0.0277
  421THF     H4 5464   2.920   2.730   0.286 -2.5160 -1.8223  0.9201
  421THF     H5 5465   2.776   2.816   0.341 -0.6379 -1.6663 -2.5301
  421THF     H6 5466   3.156   2.863   0.360  3.1439  3.0719  2.7137
  421THF     H7 5467   3.104   2.992   0.466  1.3167  0.9489 -1.6500
  421THF     C8 5468   3.038   2.800   0.553  0.7793  0.6415 -0.5554
  421THF     C9 5469   2.910   2.737   0.500 -0.0741 -0.1735 -0.1281
  421THF    H10 5470   3.011   2.866   0.636  1.5104  1.7923 -1.2011
  421THF    H11 5471   3.113   2.728   0.585  0.6258  0.6992 -0.0601
  421THF    H12 5472   2.932   2.631   0.495  0.2909 -0.1510  0.6983
  421THF    H13 5473   2.834   2.748   0.578 -0.1621 -0.5736 -0.1597
  422THF     O1 5474   2.107   1.964   0.588  0.1068  0.0395  0.3167
  422THF     C2 5475   2.192   2.077   0.617  0.7902 -0.4170  0.2243
  422THF     C3 5476   2.134   1.870   0.688 -0.2942  0.0227  1.2007
  422THF     H4 5477   2.138   2.171   0.612  1.2904 -0.1304  0.2001
  422THF     H5 5478   2.259   2.078   0.532 -0.8166 -0.6695 -1.1043
  422THF     H6 5479   2.054   1.797   0.696  0.3224 -0.9727 -0.9374
  422THF     H7 5480   2.222   1.813   0.658  1.6966  3.7612 -0.8262
  422THF     C8 5481   2.169   1.954   0.811  0.0030  0.3455  0.3395
  422THF     C9 5482   2.262   2.051   0.747 -0.1055 -0.7280 -0.6133
  422THF    H10 5483   2.217   1.903   0.894 -1.1741  1.6449  1.8885
  422THF    H11 5484   2.073   1.994   0.845 -0.1900 -0.7346  1.1126
  422THF    H12 5485   2.273   2.141   0.808 -1.5893 -1.5816  1.0081
  422THF    H13 5486   2.355   2.000   0.721  0.7964  0.6091 -0.1118
  423THF     O1 5487   2.365   4.738   1.802  0.4469  0.1904  0.1814
  423THF     C2 5488   2.478   4.825   1.778 -0.2016  0.1223  0.2017
  423THF     C3 5489   2.240   4.794   1.756 -0.1802  0.2480  0.4970
  423THF     H4 5490   2.569   4.781   1.738  0.0646  0.8633 -0.0401
  423THF     H5 5491   2.503   4.854   1.880 -1.7416 -0.6093  0.8267
  423THF     H6 5492   2.230   4.749   1.657 -2.5268  1.5655  0.0512
  423THF     H7 5493   2.150   4.773   1.814 -0.9414  1.3317 -0.2495
  423THF     C8 5494   2.274   4.939   1.727  0.1496 -0.2146  0.7762
  423THF     C9 5495   2.420   4.934   1.690  0.0473 -0.3178  0.3600
  423THF    H10 5496   2.244   4.998   1.813 -1.9964 -0.6278  0.3887
  423THF    H11 5497   2.212   4.987   1.651 -0.1530 -0.2317  1.0080
  423THF    H12 5498   2.438   4.924   1.583  0.3665 -0.9028  0.4621
  423THF    H13 5499   2.462   5.034   1.703 -0.9484  0.0170  1.0886
  424THF     O1 5500   1.878   4.035   3.287 -0.7330  0.3435  0.3934
  424THF     C2 5501   1.801   4.036   3.405 -0.8624  0.5875  0.3987
  424THF     C3 5502   1.818   4.109   3.182 -0.3224 -0.0145  1.1048
  424THF     H4 5503   1.870   4.081   3.476 -0.3550  1.7528 -0.7959
  424THF     H5 5504   1.786   3.934   3.441  0.3981 -0.0758 -0.8956
  424THF     H6 5505   1.875   4.167   3.110  0.0428  0.8865  2.0928
  424THF     H7 5506   1.760   4.051   3.110 -0.3818  0.8786  0.4146
  424THF     C8 5507   1.716   4.198   3.251 -0.0997  0.1979 -0.3701
  424THF     C9 5508   1.671   4.114   3.373 -0.2779  0.8608  0.5424
  424THF    H10 5509   1.626   4.215   3.191 -1.6197 -0.2284  1.6862
  424THF    H11 5510   1.766   4.286   3.290 -1.9358  1.6739 -1.2069
  424THF    H12 5511   1.624   4.159   3.460 -1.7722  1.8097 -0.6810
  424THF    H13 5512   1.594   4.042   3.343 -0.6977  0.5534  2.2864
  425THF     O1 5513   5.436   4.212   1.967 -0.5351 -0.4643 -0.4790
  425THF     C2 5514   5.534   4.231   1.866  0.2229 -0.1684  0.3567
  425THF     C3 5515   5.311   4.187   1.904  0.5969  1.3394  0.3231
  425THF     H4 5516   5.543   4.130   1.827 -0.4749 -0.4301  0.8567
  425THF     H5 5517   5.633   4.266   1.894  1.1600 -2.1694 -0.2535
  425THF     H6 5518   5.309   4.088   1.859  1.2439  1.2638  0.4466
  425THF     H7 5519   5.229   4.188   1.975  0.1206  0.8087 -0.2132
  425THF     C8 5520   5.314   4.294   1.798  0.3293  0.7741  0.0586
  425THF     C9 5521   5.466   4.319   1.765 -0.1447  0.0888 -0.3689
  425THF    H10 5522   5.268   4.385   1.837  1.6973  1.0926  0.9876
  425THF    H11 5523   5.250   4.286   1.710  1.7594  0.6916 -1.0229
  425THF    H12 5524   5.486   4.298   1.660  0.9792  0.5737 -0.2618
  425THF    H13 5525   5.478   4.426   1.779  0.7198  0.0247 -0.5460
  426THF     O1 5526   3.073   3.690   4.574 -0.0210 -0.7849  0.6893
  426THF     C2 5527   3.086   3.754   4.451 -0.6414  0.0090  0.1209
  426THF     C3 5528   3.135   3.779   4.666  0.4326  0.0412  0.1173
  426THF     H4 5529   3.024   3.843   4.438  1.2914  1.2907 -0.8744
  426THF     H5 5530   3.062   3.685   4.370 -1.9989 -0.2956  0.7560
  426THF     H6 5531   3.062   3.854   4.697 -0.7028 -0.3749 -1.4624
  426THF     H7 5532   3.156   3.735   4.764 -1.0233  3.7531  2.2851
  426THF     C8 5533   3.253   3.844   4.593  1.1270  0.7821  0.4338
  426THF     C9 5534   3.233   3.802   4.445  0.5202 -0.2998  0.6991
  426THF    H10 5535   3.343   3.802   4.638  1.2114 -0.2635 -0.6657
  426THF    H11 5536   3.253   3.953   4.600 -1.1847  0.9352 -0.8184
  426THF    H12 5537   3.241   3.881   4.371 -1.6415 -0.1583  0.5479
  426THF    H13 5538   3.304   3.723   4.422 -0.2066 -1.0254  0.8799
  427THF     O1 5539   0.036   2.418   4.814 -0.1715 -0.1067 -0.4512
  427THF     C2 5540  -0.087   2.407   4.875  0.1843  0.7517 -0.5549
  427THF     C3 5541   0.031   2.392   4.671  0.9004  0.0284  0.7154
  427THF     H4 5542  -0.086   2.449   4.976  2.4439 -1.3758  0.3948
  427THF     H5 5543  -0.105   2.300   4.880  1.1811  0.3595 -3.4973
  427THF     H6 5544   0.109   2.447   4.618 -0.2013 -0.1280 -1.1649
  427THF     H7 5545   0.039   2.284   4.656 -2.8907 -0.2785  0.0066
  427THF     C8 5546  -0.126   2.424   4.638  0.2206 -0.6109  0.6326
  427THF     C9 5547  -0.180   2.473   4.772 -0.0806 -0.3683 -0.1799
  427THF    H10 5548  -0.177   2.331   4.618  1.0103 -1.5257  2.5886
  427THF    H11 5549  -0.145   2.495   4.557  1.4216 -0.6653  0.2768
  427THF    H12 5550  -0.175   2.582   4.779 -0.2034 -0.3800  0.0783
  427THF    H13 5551  -0.284   2.447   4.785  0.5108 -3.0056 -0.2254
  428THF     O1 5552   1.422   4.977   2.905 -0.4457 -0.2101 -0.7935
  428THF     C2 5553   1.366   4.976   3.035 -0.0871 -0.6935 -0.3407
  428THF     C3 5554   1.488   5.105   2.888  0.0713 -1.0028  0.2866
  428THF     H4 5555   1.434   4.932   3.108 -0.2732  1.3035  1.1084
  428THF     H5 5556   1.280   4.909   3.037  0.3506 -1.2617  1.6485
  428THF     H6 5557   1.596   5.085   2.885  0.8475  2.5208 -0.7301
  428THF     H7 5558   1.444   5.139   2.794 -3.3565 -3.3461  0.8568
  428THF     C8 5559   1.462   5.186   3.015 -0.4310  0.6968 -0.2461
  428THF     C9 5560   1.340   5.116   3.073  0.1907 -1.3593 -0.6522
  428THF    H10 5561   1.460   5.294   2.995  0.1462  0.6533 -0.5423
  428THF    H11 5562   1.544   5.163   3.081 -0.6257  1.1411  0.1594
  428THF    H12 5563   1.311   5.132   3.177 -0.2847  0.8439 -1.0871
  428THF    H13 5564   1.253   5.141   3.012 -0.1845 -2.0600 -0.4239
  429THF     O1 5565   4.148   1.077   4.244  0.0290  0.0636  0.5828
  429THF     C2 5566   4.233   1.133   4.148  0.1643  0.1414 -0.4579
  429THF     C3 5567   4.224   0.997   4.328 -0.5071  0.0132  0.1118
  429THF     H4 5568   4.300   1.209   4.186  0.1979  1.1123 -2.3553
  429THF     H5 5569   4.181   1.167   4.058 -0.1722 -0.7477 -0.6165
  429THF     H6 5570   4.277   1.050   4.407  0.6783 -1.1956  0.1764
  429THF     H7 5571   4.158   0.922   4.373 -0.1259  0.4157  1.3811
  429THF     C8 5572   4.335   0.934   4.232 -0.2443  0.2748  0.4388
  429THF     C9 5573   4.323   1.018   4.107 -0.0981  0.3001  0.7260
  429THF    H10 5574   4.310   0.832   4.204 -0.1694 -0.3488  2.4484
  429THF    H11 5575   4.426   0.936   4.292  0.5299 -0.3283 -0.6950
  429THF    H12 5576   4.420   1.051   4.069  0.3756 -2.1409 -0.4212
  429THF    H13 5577   4.272   0.962   4.029  0.1212 -1.5936  1.8598
  430THF     O1 5578   4.574   1.205   5.225  0.1536  0.1768 -0.0097
  430THF     C2 5579   4.497   1.255   5.118  0.1674  0.0362  0.4549
  430THF     C3 5580   4.609   1.072   5.196  0.4143  0.4296 -0.2332
  430THF     H4 5581   4.515   1.362   5.105 -0.4521 -0.0117 -1.0404
  430THF     H5 5582   4.390   1.235   5.130 -0.0439  0.3028 -0.8393
  430THF     H6 5583   4.717   1.061   5.204  0.1832 -2.1959  0.3607
  430THF     H7 5584   4.563   1.005   5.269  2.0422  1.8166  2.2179
  430THF     C8 5585   4.570   1.041   5.054 -0.1110 -1.1362 -0.2547
  430THF     C9 5586   4.541   1.174   4.998 -0.1984 -1.0113  0.7415
  430THF    H10 5587   4.469   1.001   5.058 -0.5905  0.0457 -0.0375
  430THF    H11 5588   4.639   0.989   4.987  1.2512  1.7350 -1.2816
  430THF    H12 5589   4.636   1.220   4.971 -0.6560 -0.6247 -0.2613
  430THF    H13 5590   4.466   1.174   4.918  1.6705  0.1766 -1.0962
  431THF     O1 5591   0.861   2.414   3.602  0.5588 -1.1357  0.3786
  431THF     C2 5592   0.797   2.505   3.508  0.4212  0.0903 -0.8793
  431THF     C3 5593   0.998   2.451   3.616  0.2270  0.4836 -0.0310
  431THF     H4 5594   0.785   2.606   3.545  1.0845  0.3494 -1.3584
  431THF     H5 5595   0.698   2.463   3.488  0.0893  0.9474 -1.0898
  431THF     H6 5596   1.015   2.516   3.702 -1.5950 -0.0778  0.8039
  431THF     H7 5597   1.059   2.361   3.617  0.5947  0.6947 -1.4908
  431THF     C8 5598   1.035   2.520   3.478  0.2402  0.8829  0.3283
  431THF     C9 5599   0.899   2.500   3.397 -0.1111 -0.1874  0.2077
  431THF    H10 5600   1.120   2.480   3.422  0.4269  0.5264  0.8554
  431THF    H11 5601   1.047   2.627   3.494 -0.6169  0.6315  3.3583
  431THF    H12 5602   0.883   2.578   3.322 -1.2719 -0.3307  0.2822
  431THF    H13 5603   0.893   2.403   3.348  1.8296 -1.2008  1.8290
  432THF     O1 5604   5.429   3.065   3.179 -0.5525 -0.1356 -0.1413
  432THF     C2 5605   5.561   3.027   3.142 -0.7813 -0.0395 -0.8778
  432THF     C3 5606   5.433   3.156   3.289 -0.2459 -0.3664  0.6277
  432THF     H4 5607   5.585   3.064   3.042 -0.9410 -0.1727 -0.9673
  432THF     H5 5608   5.577   2.920   3.131  1.1295 -0.0596  1.3558
  432THF     H6 5609   5.355   3.231   3.275  1.0807  0.7754 -1.0470
  432THF     H7 5610   5.411   3.105   3.382  0.1140  2.9515  2.7183
  432THF     C8 5611   5.575   3.214   3.288  0.0811 -0.2302  0.0238
  432THF     C9 5612   5.651   3.090   3.245  0.6982 -0.6224 -0.5174
  432THF    H10 5613   5.606   3.254   3.384  1.2347 -0.2528 -0.3200
  432THF    H11 5614   5.587   3.302   3.225  2.0949 -0.3637  0.1602
  432THF    H12 5615   5.750   3.122   3.215  0.4890  1.4029  0.8242
  432THF    H13 5616   5.652   3.022   3.331  0.1399  0.0018 -0.0082
  433THF     O1 5617   5.168   3.508   1.530 -0.7855  0.2368  0.7199
  433THF     C2 5618   5.240   3.452   1.427 -0.2332  0.1855 -0.0699
  433THF     C3 5619   5.259   3.580   1.609  0.2197 -0.4953  0.9087
  433THF     H4 5620   5.270   3.522   1.348  0.8846  0.1028  0.2654
  433THF     H5 5621   5.183   3.374   1.377 -2.1728  1.1574  0.4923
  433THF     H6 5622   5.254   3.684   1.577 -1.3454 -0.8983 -0.2811
  433THF     H7 5623   5.228   3.573   1.713 -1.1696 -0.4689  0.5145
  433THF     C8 5624   5.393   3.515   1.584 -1.1986  0.6063  0.2023
  433THF     C9 5625   5.364   3.406   1.493  0.1909  0.8975 -0.7602
  433THF    H10 5626   5.450   3.477   1.669 -2.8692 -2.7222 -0.0378
  433THF    H11 5627   5.460   3.585   1.533  0.3367  0.9821  2.5822
  433THF    H12 5628   5.439   3.380   1.418 -1.5096 -1.1527 -1.8453
  433THF    H13 5629   5.335   3.324   1.558 -0.4469  2.3512  0.8611
  434THF     O1 5630   1.043   2.991   2.743  0.8797  0.0355  0.1103
  434THF     C2 5631   1.022   2.878   2.652 -0.3535  0.1919 -0.4165
  434THF     C3 5632   0.914   3.006   2.816 -0.2970  0.0581 -0.1434
  434THF     H4 5633   1.116   2.830   2.625  0.1782  1.5021 -0.9538
  434THF     H5 5634   0.988   2.917   2.557  1.0699  0.7420 -0.7330
  434THF     H6 5635   0.907   3.062   2.910  1.1458 -2.7695  1.7959
  434THF     H7 5636   0.849   3.062   2.750  2.7165  1.5185 -2.0685
  434THF     C8 5637   0.858   2.868   2.844 -0.1053 -0.3056 -0.6777
  434THF     C9 5638   0.924   2.785   2.737 -0.0084  0.1747 -0.3373
  434THF    H10 5639   0.749   2.871   2.842 -0.0798  0.8648 -1.5285
  434THF    H11 5640   0.885   2.842   2.946  1.1089  0.8409 -0.6771
  434THF    H12 5641   0.976   2.698   2.777 -0.9985  0.2309  1.1206
  434THF    H13 5642   0.843   2.754   2.671 -1.6247 -0.9948  2.0584
  435THF     O1 5643   0.743   3.156   5.492 -0.3920 -0.2953  0.5947
  435THF     C2 5644   0.857   3.117   5.419 -0.7867  0.3240  0.1692
  435THF     C3 5645   0.781   3.257   5.584  0.0533 -0.1383  0.0296
  435THF     H4 5646   0.836   3.154   5.319 -0.3018 -0.0314 -0.0634
  435THF     H5 5647   0.859   3.008   5.416  1.1927  0.3563 -2.0938
  435THF     H6 5648   0.716   3.345   5.582  0.4190  0.1424 -1.6631
  435THF     H7 5649   0.771   3.205   5.679 -0.9289 -0.8395 -0.4395
  435THF     C8 5650   0.925   3.287   5.559 -0.3734 -0.0326  0.4589
  435THF     C9 5651   0.981   3.170   5.483 -0.0290 -0.0056 -0.7930
  435THF    H10 5652   0.980   3.298   5.652  1.9368 -0.6560 -0.7655
  435THF    H11 5653   0.937   3.376   5.498 -0.1318 -0.2530  0.1853
  435THF    H12 5654   1.060   3.188   5.410  1.8263 -2.0221  0.5774
  435THF    H13 5655   1.013   3.102   5.562 -3.8339 -0.5192  0.5204
  436THF     O1 5656   2.196   4.027   4.920  0.1291  0.1964  0.3512
  436THF     C2 5657   2.305   4.076   4.841 -0.7743  0.0978  0.5339
  436THF     C3 5658   2.148   3.910   4.861  0.1077 -0.1244  0.3004
  436THF     H4 5659   2.404   4.033   4.860  0.4668  2.0927 -0.9724
  436THF     H5 5660   2.312   4.185   4.844  1.0966 -0.0102  1.4856
  436THF     H6 5661   2.226   3.834   4.865  0.2864  0.0619  0.4236
  436THF     H7 5662   2.058   3.869   4.907 -0.2335  1.3895  1.0587
  436THF     C8 5663   2.133   3.957   4.716  0.0669 -0.0881 -0.1471
  436THF     C9 5664   2.259   4.030   4.701 -0.0455 -0.6467  0.0506
  436THF    H10 5665   2.037   4.009   4.724 -0.3899 -1.1777  2.7581
  436THF    H11 5666   2.135   3.876   4.644  2.5441  0.5476 -0.8654
  436THF    H12 5667   2.333   3.970   4.648 -1.1990 -0.0322 -2.4189
  436THF    H13 5668   2.238   4.118   4.639  1.0155  0.1874  0.8319
  437THF     O1 5669   3.950   2.436   4.646  0.3887  0.5705 -0.7833
  437THF     C2 5670   3.898   2.566   4.651  0.2156  0.6921 -0.0204
  437THF     C3 5671   3.951   2.395   4.512 -0.3651  0.4189  0.3414
  437THF     H4 5672   3.967   2.625   4.711  0.9659 -0.8167  0.6396
  437THF     H5 5673   3.806   2.564   4.709  0.3082  4.0733  0.4676
  437THF     H6 5674   4.025   2.318   4.490 -0.1028 -0.0168  2.4381
  437THF     H7 5675   3.849   2.360   4.495 -0.1481  0.5655 -1.4401
  437THF     C8 5676   3.981   2.519   4.428 -0.4563 -1.0094 -0.5934
  437THF     C9 5677   3.894   2.621   4.501  0.6155 -0.1384 -0.0717
  437THF    H10 5678   3.975   2.504   4.321  3.9739  1.1589 -1.4020
  437THF    H11 5679   4.082   2.557   4.443 -0.8293 -0.0260 -0.4820
  437THF    H12 5680   3.928   2.724   4.507  0.0519  0.0070  0.9089
  437THF    H13 5681   3.793   2.616   4.460  0.7596  0.9620 -0.5665
  438THF     O1 5682   3.897   1.494   4.939 -0.1784  0.5064  0.0270
  438THF     C2 5683   4.023   1.426   4.962  0.4398 -0.4525  0.0634
  438THF     C3 5684   3.825   1.493   5.062 -0.2367  0.3132 -0.4065
  438THF     H4 5685   4.091   1.502   5.000 -0.6001  0.2968  0.4884
  438THF     H5 5686   4.061   1.374   4.873  1.2063 -2.5266  1.5238
  438THF     H6 5687   3.802   1.594   5.096 -0.5226  0.3208 -0.6163
  438THF     H7 5688   3.723   1.459   5.043 -0.1515 -0.1693 -0.0060
  438THF     C8 5689   3.905   1.413   5.163  0.1597  0.7112  0.3079
  438THF     C9 5690   3.989   1.321   5.071  0.7904 -0.1032  0.1493
  438THF    H10 5691   3.832   1.365   5.228  0.1610 -0.1066 -0.2786
  438THF    H11 5692   3.971   1.478   5.220  1.0636  0.1157 -0.0384
  438THF    H12 5693   4.077   1.270   5.109  1.4770  0.6514 -0.4015
  438THF    H13 5694   3.925   1.241   5.033 -0.7461  1.2394 -0.1739
  439THF     O1 5695   0.692   0.673   4.498  0.6710 -0.8759 -0.9433
  439THF     C2 5696   0.750   0.680   4.372  0.2263  0.7611  0.1457
  439THF     C3 5697   0.553   0.636   4.489  0.0822  0.3704  0.1527
  439THF     H4 5698   0.773   0.576   4.346  1.3534  1.1237 -0.3941
  439THF     H5 5699   0.835   0.749   4.373  1.0090 -0.1744  0.6004
  439THF     H6 5700   0.563   0.529   4.477  0.0017 -0.1548  3.8318
  439THF     H7 5701   0.493   0.661   4.576  0.2068 -0.3176  0.4386
  439THF     C8 5702   0.500   0.689   4.353 -0.1400 -0.1749 -0.6934
  439THF     C9 5703   0.630   0.724   4.283 -0.3113  0.4876  0.5424
  439THF    H10 5704   0.454   0.785   4.377  0.2243  0.0350 -0.8115
  439THF    H11 5705   0.424   0.632   4.300 -1.8377  0.1736  1.2357
  439THF    H12 5706   0.638   0.672   4.188 -1.8184 -1.2036  1.2777
  439THF    H13 5707   0.615   0.831   4.274 -2.1535  0.2564  0.4315
  440THF     O1 5708   2.987   5.292   3.678  0.5496 -0.0586  0.5956
  440THF     C2 5709   2.880   5.372   3.629  0.3905  0.4821 -0.2979
  440THF     C3 5710   3.046   5.366   3.775 -0.2130 -0.5205  0.1236
  440THF     H4 5711   2.783   5.361   3.678 -0.3629 -1.1764 -2.0069
  440THF     H5 5712   2.860   5.344   3.525  0.1675 -1.3173  0.1867
  440THF     H6 5713   2.979   5.371   3.861  1.8842  0.1466  1.8166
  440THF     H7 5714   3.143   5.324   3.802  0.4983 -0.6358 -2.3446
  440THF     C8 5715   3.054   5.505   3.713  0.0392 -0.7356 -0.0169
  440THF     C9 5716   2.924   5.519   3.631 -0.5977  0.5365 -0.5666
  440THF    H10 5717   3.134   5.509   3.638  1.3632 -0.6372  1.3657
  440THF    H11 5718   3.076   5.579   3.789 -1.7728 -1.0370  0.8511
  440THF    H12 5719   2.846   5.581   3.674 -2.2684 -0.9214 -1.3467
  440THF    H13 5720   2.967   5.560   3.540 -0.3363  1.4084 -0.0618
  441THF     O1 5721   4.560   4.512   4.213  0.6333 -0.1902  0.2748
  441THF     C2 5722   4.580   4.386   4.153  0.3912 -0.1070  0.2169
  441THF     C3 5723   4.682   4.573   4.221 -0.3918 -0.2455 -0.4053
  441THF     H4 5724   4.488   4.353   4.105  0.2626 -0.2486  0.5597
  441THF     H5 5725   4.606   4.311   4.228 -0.6546 -0.7557 -0.0532
  441THF     H6 5726   4.669   4.681   4.213  2.9072  0.4209  1.3712
  441THF     H7 5727   4.733   4.547   4.313 -1.1991  2.2116  0.8153
  441THF     C8 5728   4.766   4.507   4.107 -0.6348 -0.1739 -0.1235
  441THF     C9 5729   4.688   4.389   4.051  0.5015 -0.4413 -0.2994
  441THF    H10 5730   4.862   4.479   4.152 -0.4908 -0.0754 -0.3668
  441THF    H11 5731   4.797   4.568   4.022 -1.3861 -0.0188 -0.2957
  441THF    H12 5732   4.639   4.397   3.954 -0.5079 -1.5918  0.0753
  441THF    H13 5733   4.751   4.300   4.061  0.3966 -0.3573  1.6516
  442THF     O1 5734   3.984   1.893   5.039 -0.1206 -0.4786 -0.0472
  442THF     C2 5735   4.041   1.813   5.146 -0.2482 -0.4349 -0.0879
  442THF     C3 5736   4.070   2.011   5.018 -0.1875 -0.0730  0.9261
  442THF     H4 5737   4.008   1.711   5.166 -0.7764 -0.2668 -0.0846
  442THF     H5 5738   4.030   1.865   5.241 -1.5135  0.0969 -0.5057
  442THF     H6 5739   4.059   2.044   4.914  1.5263 -0.3485  0.6286
  442THF     H7 5740   4.039   2.089   5.088 -1.7800 -0.0651  0.2675
  442THF     C8 5741   4.217   1.951   5.053 -0.0574 -0.5504  0.2493
  442THF     C9 5742   4.186   1.817   5.116 -0.3770 -0.1131 -0.9756
  442THF    H10 5743   4.281   2.016   5.112  0.8741 -1.1940 -0.0351
  442THF    H11 5744   4.278   1.942   4.963  1.5370  0.1598  1.2272
  442THF    H12 5745   4.201   1.735   5.046  2.6126 -1.2068  0.7538
  442THF    H13 5746   4.238   1.799   5.210 -1.6867  0.6981 -0.0686
  443THF     O1 5747   0.784   2.034   0.864 -0.2145  0.3442 -0.5326
  443THF     C2 5748   0.823   2.160   0.910 -0.0765 -0.3502  0.1793
  443THF     C3 5749   0.889   1.994   0.780 -0.2372  0.6476 -1.0588
  443THF     H4 5750   0.792   2.163   1.014 -1.6062  0.2977 -0.2716
  443THF     H5 5751   0.772   2.238   0.853 -0.0456 -0.3409  0.1643
  443THF     H6 5752   0.884   1.887   0.757 -0.5765 -0.1373  2.2158
  443THF     H7 5753   0.887   2.045   0.684  0.0821 -0.4477 -1.6690
  443THF     C8 5754   1.016   2.040   0.848 -0.0133  0.5435 -0.2653
  443THF     C9 5755   0.975   2.172   0.899 -0.8355  0.2027 -0.0214
  443THF    H10 5756   1.093   2.053   0.773 -1.3360  0.3010 -1.6993
  443THF    H11 5757   1.037   1.966   0.926  0.8737 -1.2544 -2.1228
  443THF    H12 5758   1.023   2.196   0.994 -1.2579  0.3104  0.1662
  443THF    H13 5759   1.004   2.243   0.822  0.4294 -0.3940 -0.1261
  444THF     O1 5760   1.355   5.449   0.409  0.6596 -0.0014 -0.2271
  444THF     C2 5761   1.341   5.355   0.305 -0.1556 -0.6848  0.1789
  444THF     C3 5762   1.320   5.392   0.530  0.5048  0.3371  0.5931
  444THF     H4 5763   1.428   5.290   0.297  0.7257  0.6035 -1.1267
  444THF     H5 5764   1.327   5.404   0.209  0.6526 -0.9156 -0.0662
  444THF     H6 5765   1.398   5.325   0.567 -0.7990 -0.7777  1.4346
  444THF     H7 5766   1.297   5.465   0.607 -2.0142  1.0884 -0.7498
  444THF     C8 5767   1.191   5.312   0.494 -0.7029 -0.1252 -0.2529
  444THF     C9 5768   1.202   5.300   0.347 -0.9367 -0.7296 -0.4144
  444THF    H10 5769   1.099   5.365   0.521 -1.0340 -1.1444  0.6600
  444THF    H11 5770   1.194   5.217   0.546  2.9837  0.4111  0.7889
  444THF    H12 5771   1.189   5.196   0.315  0.0048 -0.5820 -1.3262
  444THF    H13 5772   1.121   5.359   0.302 -0.6761 -1.0633 -1.3413
  445THF     O1 5773   2.410   2.352   3.263 -0.1226 -0.2031 -0.5577
  445THF     C2 5774   2.525   2.407   3.201  0.2472  0.2760 -0.2215
  445THF     C3 5775   2.447   2.231   3.337 -0.6368  0.4325 -0.4674
  445THF     H4 5776   2.541   2.508   3.239 -0.6455 -0.4839  2.4114
  445THF     H5 5777   2.506   2.410   3.094 -0.5111  0.2266 -0.0932
  445THF     H6 5778   2.476   2.262   3.438 -1.2293 -2.5761  0.7236
  445THF     H7 5779   2.366   2.164   3.363 -0.6222  1.0455  1.3156
  445THF     C8 5780   2.560   2.179   3.258  0.5054 -0.3733  0.4069
  445THF     C9 5781   2.634   2.306   3.226  0.4473  0.0262  0.4543
  445THF    H10 5782   2.526   2.132   3.167 -0.9447 -0.4893  0.9911
  445THF    H11 5783   2.621   2.110   3.316  2.3984  0.4429 -0.5139
  445THF    H12 5784   2.690   2.341   3.313  0.0680  0.0579  0.6853
  445THF    H13 5785   2.702   2.298   3.141 -1.8983  1.4497 -1.7064
  446THF     O1 5786   3.694   4.311   4.545 -0.0789 -0.2998 -0.1392
  446THF     C2 5787   3.654   4.438   4.589 -0.0928 -0.1062 -0.2360
  446THF     C3 5788   3.831   4.325   4.502 -0.3293 -0.1155 -0.7628
  446THF     H4 5789   3.696   4.477   4.682  0.1629  0.0379 -0.4107
  446THF     H5 5790   3.545   4.439   4.597  0.0156  0.2338  1.4755
  446THF     H6 5791   3.885   4.333   4.596  1.4221  0.8496 -1.8071
  446THF     H7 5792   3.865   4.241   4.441  2.9221  1.6873 -1.6360
  446THF     C8 5793   3.827   4.462   4.430 -0.6385  0.3630  0.5448
  446THF     C9 5794   3.700   4.531   4.474 -0.6035 -0.1253  0.8590
  446THF    H10 5795   3.815   4.434   4.325 -0.2060 -3.0565  1.2855
  446THF    H11 5796   3.918   4.522   4.436 -0.2359 -0.3477  1.7412
  446THF    H12 5797   3.724   4.635   4.494  0.1899  0.0499 -0.8023
  446THF    H13 5798   3.630   4.539   4.390  0.5078  3.5293  0.1127
  447THF     O1 5799   4.417   3.510   5.070  0.2151 -0.2034  0.2907
  447THF     C2 5800   4.431   3.612   4.975  0.4176  0.0358 -0.2104
  447THF     C3 5801   4.353   3.407   4.990 -0.5586 -0.1198 -0.5736
  447THF     H4 5802   4.519   3.593   4.912 -0.0757  0.2118 -0.9725
  447THF     H5 5803   4.440   3.703   5.035  1.5906 -0.0039 -0.2947
  447THF     H6 5804   4.425   3.346   4.935 -0.5412 -1.1086  0.5023
  447THF     H7 5805   4.309   3.328   5.052  1.4102  0.0611  1.1667
  447THF     C8 5806   4.252   3.469   4.898 -0.1847 -0.2419  0.4158
  447THF     C9 5807   4.297   3.613   4.895  0.1431  0.2560 -0.4396
  447THF    H10 5808   4.149   3.475   4.934  0.1470  0.6595  1.2673
  447THF    H11 5809   4.246   3.412   4.806  1.9181 -1.5264  0.9951
  447THF    H12 5810   4.312   3.651   4.794  1.0985  0.1971 -0.3355
  447THF    H13 5811   4.225   3.678   4.945  0.7945  1.2468 -0.7574
  448THF     O1 5812   0.474   4.694   5.045  0.2920 -0.4495  0.0387
  448THF     C2 5813   0.366   4.626   4.977 -0.3816 -0.0922 -0.5339
  448THF     C3 5814   0.522   4.606   5.143  0.0957  0.0610 -0.5078
  448THF     H4 5815   0.409   4.549   4.913 -0.9832 -2.0450  1.3222
  448THF     H5 5816   0.306   4.694   4.916 -1.5056 -1.5466 -1.1281
  448THF     H6 5817   0.572   4.515   5.111 -0.9369 -0.0214 -1.9739
  448THF     H7 5818   0.577   4.667   5.215 -2.1274  2.0225 -0.3336
  448THF     C8 5819   0.382   4.576   5.210  0.0879 -0.1532  0.5003
  448THF     C9 5820   0.285   4.561   5.087 -0.3449  0.5218 -0.1621
  448THF    H10 5821   0.350   4.650   5.284 -0.5194  0.4855 -0.3760
  448THF    H11 5822   0.390   4.476   5.251 -1.5742  0.2199  1.8345
  448THF    H12 5823   0.276   4.457   5.057 -2.3444  1.0085 -1.4290
  448THF    H13 5824   0.189   4.604   5.112 -1.2792 -2.0327  0.9757
  449THF     O1 5825   3.033   3.518   0.247  0.0567 -0.7343 -0.1919
  449THF     C2 5826   2.986   3.624   0.159  0.2493  0.1163 -1.0219
  449THF     C3 5827   3.026   3.580   0.377  0.1983  0.0079 -0.4901
  449THF     H4 5828   2.878   3.610   0.146 -0.3725  3.1114  0.1454
  449THF     H5 5829   3.010   3.621   0.053  0.6135  1.4318 -0.9874
  449THF     H6 5830   2.920   3.578   0.402  0.1738 -0.2299 -0.6059
  449THF     H7 5831   3.083   3.534   0.458  1.0658  0.0445 -1.0761
  449THF     C8 5832   3.075   3.723   0.359  0.2090  0.0438  0.1613
  449THF     C9 5833   3.008   3.755   0.234  0.3378  1.1831  0.6260
  449THF    H10 5834   3.183   3.731   0.351  0.5839 -0.5342  3.3746
  449THF    H11 5835   3.042   3.782   0.445 -0.5055 -0.4235  0.2185
  449THF    H12 5836   2.914   3.808   0.245 -0.3701  0.4771 -1.4183
  449THF    H13 5837   3.072   3.811   0.165 -1.0568 -0.5967 -2.3299
  450THF     O1 5838   5.020   4.349   3.736 -0.5283 -0.1127 -0.1804
  450THF     C2 5839   5.047   4.475   3.790  0.1486  0.2815  0.2305
  450THF     C3 5840   5.003   4.261   3.846  0.2014  0.1939  0.1133
  450THF     H4 5841   4.954   4.513   3.831 -0.2040 -0.2968 -0.0227
  450THF     H5 5842   5.078   4.536   3.705  0.5503 -2.4425 -1.7291
  450THF     H6 5843   4.910   4.281   3.900  2.0618 -0.0447  3.6503
  450THF     H7 5844   5.007   4.155   3.823  1.1879  0.0833  0.7422
  450THF     C8 5845   5.126   4.296   3.923 -0.5633  0.3307 -0.2907
  450THF     C9 5846   5.140   4.444   3.901 -0.2961 -0.1476  0.4091
  450THF    H10 5847   5.218   4.251   3.887  0.0890 -0.2717  1.9463
  450THF    H11 5848   5.123   4.259   4.026  0.4260 -2.7620 -1.2500
  450THF    H12 5849   5.109   4.500   3.989 -1.1312 -0.3775  0.2659
  450THF    H13 5850   5.243   4.479   3.895 -0.4224  0.0873 -0.6620
  451THF     O1 5851   4.064   3.598   5.453 -0.3634  0.5838 -0.0959
  451THF     C2 5852   4.131   3.477   5.472  0.4792  0.0196  0.4006
  451THF     C3 5853   4.160   3.690   5.415  0.7428 -0.0639 -0.2038
  451THF     H4 5854   4.061   3.394   5.474  0.7041 -0.1678  1.5543
  451THF     H5 5855   4.185   3.482   5.567  1.5919  2.9762 -0.2694
  451THF     H6 5856   4.114   3.784   5.388 -0.7302 -1.0463 -1.2560
  451THF     H7 5857   4.225   3.705   5.501  0.0340 -0.1254  0.3416
  451THF     C8 5858   4.224   3.608   5.293 -0.5044  0.0401  0.9110
  451THF     C9 5859   4.218   3.468   5.347 -0.7820 -0.5892 -0.8878
  451THF    H10 5860   4.326   3.644   5.279 -0.4697 -0.2126  0.4822
  451THF    H11 5861   4.167   3.620   5.200 -0.3353  2.3917  1.0466
  451THF    H12 5862   4.157   3.400   5.288 -0.9976 -1.8547  0.7109
  451THF    H13 5863   4.313   3.415   5.362 -0.7419 -0.4758 -0.7426
  452THF     O1 5864   3.262   0.782   0.456  0.1565 -0.0296 -0.0591
  452THF     C2 5865   3.187   0.905   0.450 -0.1589  0.0419 -0.4274
  452THF     C3 5866   3.394   0.812   0.495 -0.4076 -0.2233  0.2523
  452THF     H4 5867   3.183   0.938   0.554  1.9816  0.4226 -0.4120
  452THF     H5 5868   3.084   0.888   0.420 -0.1230 -1.2592  0.1220
  452THF     H6 5869   3.405   0.826   0.602 -0.0949  2.8511 -0.0855
  452THF     H7 5870   3.472   0.752   0.448  1.2257  1.4166  0.7286
  452THF     C8 5871   3.419   0.950   0.426 -0.0716 -0.2848  0.2322
  452THF     C9 5872   3.283   0.993   0.377  0.3740  1.1656  0.2381
  452THF    H10 5873   3.490   0.946   0.343  0.6088  0.3411  0.7662
  452THF    H11 5874   3.442   1.020   0.507  0.0419 -2.0325  1.7666
  452THF    H12 5875   3.260   1.098   0.394 -2.4760  0.8183 -0.9104
  452THF    H13 5876   3.278   0.982   0.268  0.9082  0.4609  0.2772
  453THF     O1 5877   3.936   2.643   1.786 -0.2211  0.3013  0.3132
  453THF     C2 5878   3.825   2.657   1.698  0.0711 -0.4346 -0.2540
  453THF     C3 5879   3.894   2.608   1.914 -0.1098  0.1981 -0.4675
  453THF     H4 5880   3.827   2.592   1.611 -0.5205  0.2995 -0.8218
  453THF     H5 5881   3.796   2.760   1.675 -1.0741 -0.6392  0.2102
  453THF     H6 5882   3.914   2.505   1.943  1.6577  0.0428 -1.9852
  453THF     H7 5883   3.939   2.661   1.998  0.6148  0.0118 -0.7321
  453THF     C8 5884   3.750   2.635   1.918 -0.0946  0.6080  0.7827
  453THF     C9 5885   3.709   2.606   1.779 -0.7294  0.7593  0.3216
  453THF    H10 5886   3.735   2.740   1.943  0.0686  1.1391 -1.2128
  453THF    H11 5887   3.701   2.573   1.993  0.1906 -1.2387 -0.5094
  453THF    H12 5888   3.696   2.499   1.769  0.7513  0.4716  1.0903
  453THF    H13 5889   3.615   2.653   1.752 -0.7087  1.2045  0.9844
  454THF     O1 5890   0.347   3.867   4.326 -0.4010  0.6716 -0.3090
  454THF     C2 5891   0.298   3.740   4.347 -0.4860  0.4243  0.2070
  454THF     C3 5892   0.384   3.933   4.447  0.3118 -0.8431  0.7495
  454THF     H4 5893   0.358   3.663   4.298 -2.1128 -0.1824 -0.9363
  454THF     H5 5894   0.201   3.733   4.298 -0.9112 -2.9687  1.2525
  454THF     H6 5895   0.470   3.997   4.429  0.5121 -1.2345  0.3032
  454THF     H7 5896   0.300   3.987   4.490 -1.1688 -4.0277  2.1905
  454THF     C8 5897   0.413   3.815   4.536  0.8206  0.0399 -0.1510
  454THF     C9 5898   0.295   3.723   4.498 -0.7612 -0.0314 -0.1027
  454THF    H10 5899   0.418   3.835   4.643  0.9716 -0.6151 -0.0307
  454THF    H11 5900   0.512   3.776   4.510  1.7369  2.1732 -0.1469
  454THF    H12 5901   0.313   3.619   4.527 -1.8338 -0.3482 -0.5057
  454THF    H13 5902   0.203   3.769   4.536 -1.6701 -2.6324  1.0850
  455THF     O1 5903   4.288   1.234   0.445  0.1694  0.0202  0.0197
  455THF     C2 5904   4.154   1.187   0.435 -0.2547 -0.2082 -0.5314
  455THF     C3 5905   4.267   1.380   0.452 -0.2973  0.1916  0.0258
  455THF     H4 5906   4.091   1.194   0.523 -2.4155  0.2401 -2.0242
  455THF     H5 5907   4.147   1.079   0.416  0.0901 -0.3802  0.3012
  455THF     H6 5908   4.263   1.416   0.555  0.9208  0.7708 -0.1202
  455THF     H7 5909   4.345   1.436   0.401  0.1151 -0.8613 -0.5262
  455THF     C8 5910   4.130   1.410   0.387 -0.1512 -0.0346  0.2069
  455THF     C9 5911   4.089   1.273   0.331 -0.0529  0.0905 -0.2817
  455THF    H10 5912   4.124   1.491   0.314 -0.5029  0.4580  0.7750
  455THF    H11 5913   4.055   1.437   0.461 -1.6954  1.2231 -1.7347
  455THF    H12 5914   3.983   1.256   0.318  0.1534  0.8503 -4.6579
  455THF    H13 5915   4.143   1.242   0.241  1.9463  0.4617  0.7174
  456THF     O1 5916   0.105   4.631   3.976  0.1316  0.2208  0.1996
  456THF     C2 5917   0.213   4.542   3.939 -0.2226  0.1881  0.2540
  456THF     C3 5918   0.055   4.688   3.853  0.4055  0.4874  0.7356
  456THF     H4 5919   0.200   4.449   3.994  0.4137  0.7077  1.3127
  456THF     H5 5920   0.305   4.587   3.976 -0.8226  1.7251 -0.0343
  456THF     H6 5921  -0.050   4.716   3.862  0.2559 -0.1116  0.9401
  456THF     H7 5922   0.105   4.783   3.834  1.4061 -0.3226 -0.9555
  456THF     C8 5923   0.092   4.590   3.739 -0.0455  0.6249  0.1529
  456THF     C9 5924   0.220   4.528   3.785  0.2759 -0.0996 -0.0840
  456THF    H10 5925   0.088   4.627   3.637 -0.0108 -0.1381 -0.1322
  456THF    H11 5926   0.017   4.513   3.722  1.2207 -0.2259 -1.8012
  456THF    H12 5927   0.220   4.425   3.749  0.6091  0.1671 -0.8728
  456THF    H13 5928   0.311   4.573   3.744 -0.0149 -2.0584 -3.2200
  457THF     O1 5929   3.152   1.276   2.591 -0.0978 -0.0821  0.1945
  457THF     C2 5930   3.124   1.416   2.541 -0.7106 -0.4104  0.0199
  457THF     C3 5931   3.282   1.277   2.638 -0.0985  0.9056  0.1037
  457THF     H4 5932   3.017   1.434   2.544 -0.8162 -0.7586 -1.1892
  457THF     H5 5933   3.175   1.455   2.453 -0.9926 -0.9546 -0.3876
  457THF     H6 5934   3.297   1.206   2.719 -1.8315 -0.0536 -0.3751
  457THF     H7 5935   3.354   1.267   2.556 -2.3297  0.5173 -1.9040
  457THF     C8 5936   3.292   1.415   2.703  0.0975  0.3827 -0.1143
  457THF     C9 5937   3.180   1.494   2.649  0.0075 -0.9050 -0.1399
  457THF    H10 5938   3.390   1.455   2.676  1.0727 -1.5252  0.4106
  457THF    H11 5939   3.286   1.410   2.811 -0.4962  0.8251 -0.1234
  457THF    H12 5940   3.117   1.519   2.734  2.0325  1.7441  0.7322
  457THF    H13 5941   3.223   1.588   2.615  0.3099 -1.0256 -0.0965
  458THF     O1 5942   4.752   3.883   2.999 -0.0863  0.4530 -0.1347
  458THF     C2 5943   4.815   3.837   2.879  0.0192 -0.3590  0.1597
  458THF     C3 5944   4.612   3.878   2.978  0.0928  0.5840  0.0332
  458THF     H4 5945   4.915   3.799   2.902  0.7359  0.2858 -1.6834
  458THF     H5 5946   4.821   3.921   2.808  0.2671  0.7428  1.4421
  458THF     H6 5947   4.567   3.888   3.077  1.7983 -0.7609  0.9945
  458THF     H7 5948   4.575   3.959   2.915  0.6381  0.1776 -0.8208
  458THF     C8 5949   4.586   3.752   2.904 -0.1254  0.4804  0.3448
  458THF     C9 5950   4.719   3.726   2.829  0.0418 -1.0613  0.5371
  458THF    H10 5951   4.506   3.764   2.830 -1.4185  0.3800  1.6653
  458THF    H11 5952   4.544   3.676   2.970 -1.8373  0.4876 -0.6677
  458THF    H12 5953   4.758   3.626   2.846  0.8224 -1.1044 -1.2379
  458THF    H13 5954   4.712   3.741   2.721  1.4861 -0.3129  0.5166
  459THF     O1 5955   1.054   3.463   3.186  0.2846  0.6528  0.0918
  459THF     C2 5956   1.052   3.604   3.173 -0.3445  0.8254  0.0345
  459THF     C3 5957   1.114   3.428   3.310 -0.9238 -0.1294 -0.3126
  459THF     H4 5958   0.986   3.637   3.093  0.5935 -0.2141 -1.2011
  459THF     H5 5959   1.156   3.631   3.155 -0.7103  2.9698  0.8373
  459THF     H6 5960   1.098   3.321   3.322  0.4392 -0.5010 -1.6123
  459THF     H7 5961   1.222   3.424   3.300 -0.8600 -1.9352  0.6728
  459THF     C8 5962   1.059   3.539   3.398  0.2575 -0.0112 -0.2134
  459THF     C9 5963   1.007   3.655   3.309 -0.6428  0.7228  0.2828
  459THF    H10 5964   1.140   3.581   3.458  2.5366  0.8950 -3.5974
  459THF    H11 5965   0.991   3.505   3.476 -1.2838 -0.8057 -1.8394
  459THF    H12 5966   0.898   3.653   3.307 -0.6576 -2.0803 -0.2972
  459THF    H13 5967   1.042   3.756   3.331 -2.4323  1.6003 -0.6452
  460THF     O1 5968   0.046   0.368   3.201 -0.1928 -0.6724 -0.6255
  460THF     C2 5969   0.028   0.273   3.313 -0.6946 -0.2192 -0.0636
  460THF     C3 5970   0.014   0.309   3.084 -0.0305  0.1619 -0.3139
  460THF     H4 5971  -0.001   0.323   3.406 -0.6470 -2.4220  1.2078
  460THF     H5 5972   0.122   0.221   3.334  0.5147  1.9614  0.2462
  460THF     H6 5973  -0.063   0.366   3.032  0.1492  1.3638  0.7066
  460THF     H7 5974   0.102   0.320   3.021 -0.4716  0.9788 -0.8057
  460THF     C8 5975  -0.031   0.165   3.113  0.8280  0.3318  0.3153
  460THF     C9 5976  -0.070   0.169   3.260  0.3102 -0.3610  0.5782
  460THF    H10 5977   0.053   0.096   3.111 -0.6757 -1.5747 -1.6276
  460THF    H11 5978  -0.103   0.116   3.049 -0.5097 -0.3481  2.2385
  460THF    H12 5979  -0.174   0.200   3.265  0.5261  0.5125 -0.0850
  460THF    H13 5980  -0.063   0.074   3.314 -0.4783 -0.4948  0.4542
  461THF     O1 5981   1.746   2.003   0.569  0.1495  0.4314 -0.0738
  461THF     C2 5982   1.617   1.961   0.590  0.7925  0.1753 -0.4754
  461THF     C3 5983   1.790   2.042   0.700 -0.0274 -0.6321 -0.1195
  461THF     H4 5984   1.587   1.884   0.518  0.7126  0.8440 -1.1710
  461THF     H5 5985   1.544   2.040   0.574  1.4564  0.9903  0.4028
  461THF     H6 5986   1.897   2.019   0.694  0.4085  1.2229 -0.1376
  461THF     H7 5987   1.769   2.147   0.723  0.1474 -0.5182 -0.4830
  461THF     C8 5988   1.720   1.935   0.789 -0.1232 -0.3554  0.8627
  461THF     C9 5989   1.590   1.901   0.726 -0.1656  0.3603 -0.0298
  461THF    H10 5990   1.712   1.973   0.891 -0.4484  1.5727  0.1650
  461THF    H11 5991   1.785   1.848   0.792  0.6273  0.1180 -1.0016
  461THF    H12 5992   1.577   1.793   0.719 -2.0988  0.6216 -1.1602
  461THF    H13 5993   1.512   1.960   0.774 -1.3451 -1.9787  1.0611
  462THF     O1 5994   3.670   2.929   4.510  0.3471 -0.5723 -0.1172
  462THF     C2 5995   3.660   3.066   4.527  0.1585  0.3197  0.1078
  462THF     C3 5996   3.539   2.877   4.490  0.1520  0.0824 -0.0836
  462THF     H4 5997   3.663   3.111   4.428  0.3912  2.5530  1.0723
  462THF     H5 5998   3.749   3.108   4.575  1.1604 -0.7619 -0.7520
  462THF     H6 5999   3.511   2.899   4.387  1.5878  0.1321 -0.4838
  462THF     H7 6000   3.529   2.768   4.488 -0.8225  0.1617 -0.4416
  462THF     C8 6001   3.452   2.951   4.592 -0.3108  0.2958 -0.1843
  462THF     C9 6002   3.532   3.084   4.606  0.1588 -0.1086  0.1587
  462THF    H10 6003   3.457   2.901   4.688  0.2463  1.1471  0.2410
  462THF    H11 6004   3.349   2.960   4.557 -0.2371 -1.0178 -0.7931
  462THF    H12 6005   3.469   3.170   4.587  0.6299  0.5519  1.4630
  462THF    H13 6006   3.556   3.097   4.712  0.9609  0.4780 -0.0857
  463THF     O1 6007   1.776   3.525   3.756 -0.6400  0.0626  0.1858
  463THF     C2 6008   1.896   3.448   3.754 -0.8676 -0.2626  0.2038
  463THF     C3 6009   1.802   3.646   3.819 -0.1186  0.2581  0.2973
  463THF     H4 6010   1.925   3.444   3.649 -0.1629  2.2712  0.2297
  463THF     H5 6011   1.889   3.345   3.788 -1.5191 -0.4511 -0.4732
  463THF     H6 6012   1.813   3.721   3.741 -0.9122  0.6470  0.5466
  463THF     H7 6013   1.716   3.682   3.874  0.7518  2.5166  0.2841
  463THF     C8 6014   1.915   3.629   3.922  0.0856 -0.3422  0.0042
  463THF     C9 6015   1.998   3.528   3.839  0.5796 -0.0624 -0.4197
  463THF    H10 6016   1.885   3.576   4.012 -2.0848  0.3846 -0.2183
  463THF    H11 6017   1.966   3.724   3.938  0.3842 -0.6902  1.1724
  463THF    H12 6018   2.074   3.577   3.779  0.9828 -1.1345 -0.8027
  463THF    H13 6019   2.050   3.463   3.910 -1.3083  0.3089  1.4209
  464THF     O1 6020   2.604   1.985   3.556 -0.1569 -0.3601 -0.5562
  464THF     C2 6021   2.694   1.870   3.578  0.5990  0.1057 -0.0636
  464THF     C3 6022   2.478   1.951   3.592  0.2889  1.1890  0.2546
  464THF     H4 6023   2.754   1.886   3.668  1.2195 -0.8343 -0.2951
  464THF     H5 6024   2.765   1.854   3.497 -0.9817 -0.5645 -1.3865
  464THF     H6 6025   2.455   1.972   3.697  0.9573 -1.6143  1.0604
  464THF     H7 6026   2.404   2.015   3.545  0.1687  0.4789 -0.5259
  464THF     C8 6027   2.469   1.798   3.562  1.0952  0.0152  0.1943
  464THF     C9 6028   2.611   1.745   3.578  0.1806 -0.1464  0.1596
  464THF    H10 6029   2.432   1.776   3.461  0.9417 -2.0397  0.6560
  464THF    H11 6030   2.398   1.751   3.631 -0.0699 -1.0035 -1.6020
  464THF    H12 6031   2.612   1.689   3.672 -2.5545 -0.0546  0.3432
  464THF    H13 6032   2.634   1.664   3.508  1.5431 -1.3266  1.8945
  465THF     O1 6033   1.105   0.250   0.227 -0.5592 -0.8825 -0.0119
  465THF     C2 6034   1.069   0.234   0.365  0.1700 -0.4492  0.1974
  465THF     C3 6035   1.244   0.230   0.221 -0.0878 -0.1999 -0.0762
  465THF     H4 6036   1.061   0.129   0.394 -0.0513 -0.3764  0.3951
  465THF     H5 6037   0.970   0.269   0.394 -0.0869 -0.7460 -0.3010
  465THF     H6 6038   1.272   0.128   0.195 -0.5332  0.1997 -2.2869
  465THF     H7 6039   1.297   0.292   0.148  1.5692  2.0761  2.7900
  465THF     C8 6040   1.300   0.271   0.359  0.1296  0.4269 -0.0332
  465THF     C9 6041   1.182   0.304   0.442 -0.2717 -0.1322  0.0340
  465THF    H10 6042   1.358   0.361   0.338 -0.8218  0.6516 -1.8928
  465THF    H11 6043   1.364   0.196   0.406 -0.3121 -0.0475 -0.1709
  465THF    H12 6044   1.192   0.277   0.547 -0.2416 -0.9946 -0.1860
  465THF    H13 6045   1.175   0.413   0.440  1.9728  0.0726 -0.1953
  466THF     O1 6046   1.653   4.653   5.265 -0.3340 -0.1735  0.4343
  466THF     C2 6047   1.691   4.778   5.218 -1.2227 -0.4099  1.0745
  466THF     C3 6048   1.698   4.549   5.187 -0.4470  0.5365  0.1072
  466THF     H4 6049   1.737   4.827   5.304  2.0618 -1.4898  0.1022
  466THF     H5 6050   1.609   4.839   5.181 -0.9944  0.0548  1.3191
  466THF     H6 6051   1.703   4.453   5.238 -1.7720  0.6403  0.4848
  466THF     H7 6052   1.625   4.531   5.107 -2.1002  2.9944  0.9478
  466THF     C8 6053   1.827   4.609   5.119  0.3582 -0.7558 -0.7251
  466THF     C9 6054   1.793   4.752   5.109  0.5431  0.1306 -0.4790
  466THF    H10 6055   1.854   4.564   5.024  0.3740  1.6116 -1.9135
  466THF    H11 6056   1.917   4.603   5.180  0.0018 -0.0108 -0.1057
  466THF    H12 6057   1.875   4.822   5.125  0.4827 -0.3144  2.2121
  466THF    H13 6058   1.759   4.763   5.006  0.6097 -0.0765 -0.5252
  467THF     O1 6059   2.217   3.339   4.089  0.1407  0.0568  0.2137
  467THF     C2 6060   2.141   3.283   4.201 -0.5640  0.3397  0.4898
  467THF     C3 6061   2.299   3.238   4.027 -0.0988  0.6611 -0.0814
  467THF     H4 6062   2.046   3.250   4.159  0.0074  1.8009 -2.2032
  467THF     H5 6063   2.104   3.351   4.277  1.4816  2.5184 -0.3664
  467THF     H6 6064   2.237   3.181   3.957  1.4160 -1.6104  0.3177
  467THF     H7 6065   2.386   3.278   3.977  0.2384  1.2100  0.9143
  467THF     C8 6066   2.339   3.151   4.150 -0.8282  0.2028 -0.1135
  467THF     C9 6067   2.229   3.157   4.256 -0.3857 -0.3626 -0.3792
  467THF    H10 6068   2.433   3.193   4.185 -1.1504  0.3505  0.6129
  467THF    H11 6069   2.364   3.049   4.121 -0.3030 -0.4817  2.4900
  467THF    H12 6070   2.184   3.059   4.272  0.7602 -0.5458  2.1162
  467THF    H13 6071   2.265   3.197   4.350 -1.4707  1.2887 -0.6167
  468THF     O1 6072   5.079   3.037   0.885  0.7194 -0.6933 -0.3469
  468THF     C2 6073   5.210   3.050   0.933  0.6653  0.0712 -0.0929
  468THF     C3 6074   5.004   3.014   1.009 -0.2641  0.2468  0.9340
  468THF     H4 6075   5.277   3.103   0.865  2.5528 -1.6147  0.3630
  468THF     H5 6076   5.256   2.955   0.959  1.8682  0.4339 -0.8369
  468THF     H6 6077   4.906   3.061   1.002  0.6886  2.3438  1.1896
  468THF     H7 6078   4.989   2.907   1.029  0.7196 -0.5778 -2.1401
  468THF     C8 6079   5.080   3.076   1.125  0.1976 -0.2004  0.1751
  468THF     C9 6080   5.198   3.138   1.055  0.2084 -0.2216 -0.2921
  468THF    H10 6081   5.117   2.998   1.192 -1.2037 -1.7927 -0.8318
  468THF    H11 6082   5.026   3.147   1.188  2.7072  1.5030  0.5536
  468THF    H12 6083   5.179   3.241   1.024 -2.1824  0.1081  1.9089
  468THF    H13 6084   5.284   3.134   1.121  1.1295 -0.9634 -1.5091
  469THF     O1 6085   2.348   4.757   1.120  0.0853 -0.9033  1.0055
  469THF     C2 6086   2.326   4.612   1.119 -0.1855  0.0732 -0.1795
  469THF     C3 6087   2.241   4.808   1.208 -0.3026  0.0432 -0.3273
  469THF     H4 6088   2.375   4.582   1.211  2.3613  1.8775 -0.8485
  469THF     H5 6089   2.375   4.589   1.025  0.1154  0.8397 -0.2183
  469THF     H6 6090   2.278   4.784   1.307  0.2820 -0.1506 -0.5866
  469THF     H7 6091   2.240   4.916   1.193  2.2380  0.4464  1.6428
  469THF     C8 6092   2.115   4.736   1.167 -0.4233 -0.3490  0.3025
  469THF     C9 6093   2.175   4.611   1.104  0.2365  0.1201 -0.6738
  469THF    H10 6094   2.057   4.793   1.095 -0.9987 -2.2110 -0.7888
  469THF    H11 6095   2.057   4.714   1.257 -0.9639 -1.1275 -0.2231
  469THF    H12 6096   2.146   4.514   1.145 -0.7268  0.1262 -1.2984
  469THF    H13 6097   2.146   4.616   0.999 -1.7794 -1.9896 -0.3129
  470THF     O1 6098   4.762   1.929   3.737 -0.2078  0.3090  0.1400
  470THF     C2 6099   4.851   1.926   3.622 -0.7114  0.3846  0.5141
  470THF     C3 6100   4.727   2.060   3.772  0.1948 -0.9321  0.3726
  470THF     H4 6101   4.846   1.831   3.569 -0.2446  0.3792  0.4761
  470THF     H5 6102   4.955   1.941   3.652  0.2815 -2.0769 -1.4110
  470THF     H6 6103   4.638   2.075   3.833  0.4180  2.6293  0.0384
  470THF     H7 6104   4.798   2.114   3.834 -3.4990  1.4491  2.9690
  470THF     C8 6105   4.710   2.126   3.633  0.6165  0.0076  0.0601
  470THF     C9 6106   4.809   2.053   3.539 -0.5446  0.3807 -0.3570
  470THF    H10 6107   4.711   2.235   3.629 -0.8004  0.0002 -0.8643
  470THF    H11 6108   4.608   2.111   3.600  0.2541 -1.2202  1.6323
  470THF    H12 6109   4.775   2.031   3.438  0.6673  0.9452 -0.8995
  470THF    H13 6110   4.890   2.123   3.520 -1.0907  0.9370 -0.6818
  471THF     O1 6111   3.142   3.237   4.195 -0.7513  0.2522 -0.3400
  471THF     C2 6112   3.103   3.232   4.329  0.2159  0.2215  0.0063
  471THF     C3 6113   3.224   3.352   4.183  0.1225 -0.5490 -0.7946
  471THF     H4 6114   3.048   3.142   4.355  0.9177  0.4641  2.6104
  471THF     H5 6115   3.035   3.314   4.355 -1.4246 -1.6121  1.8575
  471THF     H6 6116   3.302   3.346   4.106  2.1641 -1.1488  1.2157
  471THF     H7 6117   3.163   3.437   4.153  1.5081  0.7982  0.0602
  471THF     C8 6118   3.283   3.378   4.320  0.2977  0.6313 -0.1365
  471THF     C9 6119   3.231   3.258   4.401  0.2720  0.1680  0.3002
  471THF    H10 6120   3.242   3.473   4.353  0.5391  0.9206 -0.6642
  471THF    H11 6121   3.390   3.393   4.333 -0.2602  2.7850  3.1985
  471THF    H12 6122   3.291   3.173   4.368  2.5014  2.1195 -0.9549
  471THF    H13 6123   3.209   3.278   4.506 -1.2639 -0.4270  0.1138
  472THF     O1 6124   0.022   5.490   3.866 -0.0282 -0.0449  0.0141
  472THF     C2 6125   0.039   5.614   3.804 -0.4298 -0.4407 -1.0856
  472THF     C3 6126  -0.101   5.433   3.804  0.2518  0.2084 -0.0989
  472THF     H4 6127   0.139   5.657   3.809 -1.0886  1.5041 -3.0799
  472THF     H5 6128  -0.038   5.677   3.849 -0.8444 -0.9487 -1.0807
  472THF     H6 6129  -0.088   5.325   3.805 -4.7888 -0.7205  3.0792
  472THF     H7 6130  -0.190   5.455   3.863  2.4357  1.6399  2.9461
  472THF     C8 6131  -0.105   5.481   3.662 -0.3033 -0.2122  0.2708
  472THF     C9 6132  -0.003   5.593   3.659  0.7788 -0.1749 -0.5328
  472THF    H10 6133  -0.194   5.533   3.628  1.1186  1.4828 -1.0680
  472THF    H11 6134  -0.079   5.405   3.588  0.9603 -0.5587  1.0270
  472THF    H12 6135   0.081   5.565   3.596  1.0956  0.6786 -0.5047
  472THF    H13 6136  -0.050   5.680   3.613 -0.7990 -1.3956 -1.3017
  473THF     O1 6137   0.247   1.642   4.860 -0.4621 -0.1265 -0.6801
  473THF     C2 6138   0.269   1.765   4.921  0.1416  0.2191 -0.3027
  473THF     C3 6139   0.339   1.553   4.929 -0.2669 -0.1187  0.7128
  473THF     H4 6140   0.173   1.787   4.968 -0.2535  0.3259 -1.1398
  473THF     H5 6141   0.288   1.846   4.850  1.7898 -0.0061 -0.1509
  473THF     H6 6142   0.290   1.494   5.007  0.2378  0.8530  1.8003
  473THF     H7 6143   0.371   1.461   4.882 -0.3315 -1.1175  2.5229
  473THF     C8 6144   0.457   1.617   4.986 -0.6028  0.0843  0.1401
  473THF     C9 6145   0.378   1.741   5.025  0.0892 -0.4739  0.4623
  473THF    H10 6146   0.526   1.649   4.908 -1.4872  0.8331 -0.3497
  473THF    H11 6147   0.515   1.571   5.067  0.7333  1.2892 -0.0775
  473THF    H12 6148   0.330   1.742   5.123 -2.7959  3.4689 -0.7104
  473THF    H13 6149   0.444   1.828   5.016 -0.0932  0.1550  3.8828
  474THF     O1 6150   1.431   3.395   1.119 -0.2241 -0.5610 -0.0681
  474THF     C2 6151   1.536   3.491   1.128  0.0122  0.4701 -0.5778
  474THF     C3 6152   1.471   3.299   1.022  0.4808  0.3839 -0.3432
  474THF     H4 6153   1.596   3.473   1.218  0.5619  0.5576 -0.9214
  474THF     H5 6154   1.511   3.596   1.141 -0.3996  0.3520 -0.4168
  474THF     H6 6155   1.533   3.224   1.072 -1.1780 -0.9317 -0.1337
  474THF     H7 6156   1.379   3.253   0.986 -0.6559  2.5543 -0.3734
  474THF     C8 6157   1.544   3.373   0.915  0.3863  0.1770  0.6663
  474THF     C9 6158   1.622   3.471   1.005 -0.0841 -0.6489 -0.6893
  474THF    H10 6159   1.473   3.432   0.857  0.4182  1.1246  1.5669
  474THF    H11 6160   1.604   3.317   0.843 -0.3570 -1.8514  1.5648
  474THF    H12 6161   1.718   3.422   1.023  0.1870  0.1756  0.1938
  474THF    H13 6162   1.627   3.564   0.948  0.5065 -0.3949 -0.2337
  475THF     O1 6163   0.330   3.852   3.882 -0.0199 -0.1451  0.5118
  475THF     C2 6164   0.361   3.836   3.746 -0.0957 -0.1129 -0.8072
  475THF     C3 6165   0.246   3.742   3.916 -0.2812  0.0555  0.2255
  475THF     H4 6166   0.450   3.893   3.720  0.1792 -0.5881 -0.9172
  475THF     H5 6167   0.276   3.855   3.680 -0.7018 -0.1956 -0.0689
  475THF     H6 6168   0.240   3.713   4.021 -0.2762  0.9274  0.4741
  475THF     H7 6169   0.142   3.760   3.889 -0.5647 -2.6870 -0.8380
  475THF     C8 6170   0.313   3.625   3.841 -0.0748  0.0263 -0.4225
  475THF     C9 6171   0.388   3.686   3.720  0.1577 -0.3306  0.3927
  475THF    H10 6172   0.245   3.545   3.812  0.2360 -0.7601  0.9762
  475THF    H11 6173   0.389   3.575   3.901  0.0261  1.7686  0.9978
  475THF    H12 6174   0.496   3.669   3.725  0.1526 -0.7318 -0.5550
  475THF    H13 6175   0.343   3.668   3.622  0.5042 -1.1735  0.3759
  476THF     O1 6176   4.348   1.883   4.139 -0.1849 -0.5635 -0.0927
  476THF     C2 6177   4.400   1.848   4.013  0.5730  0.3746 -0.8840
  476THF     C3 6178   4.303   1.757   4.194  0.3180 -0.1904  0.3638
  476THF     H4 6179   4.502   1.808   4.024  1.3287  2.7581  2.2738
  476THF     H5 6180   4.397   1.937   3.952  2.1695  0.3293 -1.0781
  476THF     H6 6181   4.385   1.706   4.245  0.3446 -0.8715 -0.3354
  476THF     H7 6182   4.227   1.782   4.267  1.4233  0.6170  1.2658
  476THF     C8 6183   4.245   1.677   4.082  0.3567  0.2994 -0.7959
  476THF     C9 6184   4.309   1.736   3.955  0.4481 -0.1730  0.0176
  476THF    H10 6185   4.137   1.690   4.082  0.4166  0.8733 -0.2108
  476THF    H11 6186   4.264   1.570   4.088  1.0860  0.4966  1.2096
  476THF    H12 6187   4.375   1.668   3.901  0.0697 -1.1188  0.7241
  476THF    H13 6188   4.248   1.769   3.871  2.1430 -0.9095 -1.5964
  477THF     O1 6189   3.118   1.529   3.501 -0.0571 -0.2073 -0.1100
  477THF     C2 6190   3.009   1.473   3.440 -0.2389 -0.3476  0.2884
  477THF     C3 6191   3.140   1.658   3.437  0.2178  0.1674  0.4896
  477THF     H4 6192   2.966   1.405   3.513 -1.8937 -0.1386 -0.4483
  477THF     H5 6193   3.034   1.428   3.344 -2.6870 -0.8832 -0.1718
  477THF     H6 6194   3.191   1.722   3.509  1.8553  0.7664 -1.1403
  477THF     H7 6195   3.203   1.646   3.349  1.4707  1.9220  1.0732
  477THF     C8 6196   3.005   1.715   3.391 -0.1616  0.0485  0.0696
  477THF     C9 6197   2.917   1.588   3.414 -0.4793 -0.3120  0.1501
  477THF    H10 6198   3.016   1.728   3.284  3.5151 -0.5777  0.2505
  477THF    H11 6199   2.977   1.801   3.452  1.6849  0.8510 -0.1752
  477THF    H12 6200   2.851   1.594   3.500 -1.7656  1.3260 -0.8968
  477THF    H13 6201   2.853   1.561   3.331  0.8356  0.7716 -1.2841
  478THF     O1 6202   1.482   1.680   4.640  0.0311 -0.1334 -0.5428
  478THF     C2 6203   1.567   1.566   4.648  0.3477  0.4171 -0.1474
  478THF     C3 6204   1.439   1.698   4.504  0.3666 -0.0900  0.2764
  478THF     H4 6205   1.510   1.474   4.637  0.6227  0.3203 -0.8122
  478THF     H5 6206   1.627   1.567   4.739  0.7384 -1.7666 -0.3301
  478THF     H6 6207   1.355   1.633   4.483  1.2462 -0.5422 -2.2288
  478THF     H7 6208   1.413   1.803   4.487  2.1969  0.4897  0.7523
  478THF     C8 6209   1.564   1.650   4.425 -0.4273  0.1185 -0.0038
  478THF     C9 6210   1.646   1.561   4.519 -0.1038 -0.0132  0.0166
  478THF    H10 6211   1.618   1.740   4.395 -1.8170  1.7120  2.0073
  478THF    H11 6212   1.542   1.598   4.332 -2.6593  1.8895 -0.5579
  478THF    H12 6213   1.673   1.462   4.483 -0.4165 -0.2052  0.2985
  478THF    H13 6214   1.743   1.611   4.521 -0.6342  1.0488  0.2991
  479THF     O1 6215   3.175   1.755   2.427  0.3523 -0.1201 -0.1710
  479THF     C2 6216   3.263   1.867   2.446 -0.1653 -0.2283  0.2874
  479THF     C3 6217   3.044   1.815   2.421  1.0003 -0.6224 -0.0372
  479THF     H4 6218   3.287   1.911   2.349  1.9057 -1.7597  0.0236
  479THF     H5 6219   3.354   1.837   2.497  0.7068  1.4413 -0.2160
  479THF     H6 6220   3.022   1.881   2.337  0.4532  0.8596  1.2182
  479THF     H7 6221   2.963   1.742   2.426  0.5635 -0.1376  0.0831
  479THF     C8 6222   3.054   1.912   2.535 -0.0088  0.1202 -0.3209
  479THF     C9 6223   3.191   1.972   2.531  0.0226  0.5694 -0.9762
  479THF    H10 6224   3.048   1.856   2.627 -1.2814  1.0815  0.2148
  479THF    H11 6225   2.974   1.987   2.535 -2.0790 -1.8686  2.4993
  479THF    H12 6226   3.199   2.067   2.479  2.2062  0.0933 -1.6359
  479THF    H13 6227   3.227   1.989   2.633 -1.5343 -2.9979  0.3507
  480THF     O1 6228   5.179   1.431   0.790 -0.3549 -0.0619 -0.0557
  480THF     C2 6229   5.080   1.360   0.722 -0.1792 -0.0160  0.3080
  480THF     C3 6230   5.171   1.571   0.768  0.0718 -0.5017  0.5493
  480THF     H4 6231   4.986   1.383   0.771  0.6451  0.5571  1.6872
  480THF     H5 6232   5.090   1.252   0.713 -1.4645 -0.1646  0.4574
  480THF     H6 6233   5.125   1.617   0.856  0.5693 -0.7574  0.9556
  480THF     H7 6234   5.268   1.620   0.759 -0.7245  1.0625  0.1670
  480THF     C8 6235   5.095   1.582   0.637 -1.2048 -0.2052  1.4537
  480THF     C9 6236   5.071   1.437   0.590  0.0504 -0.2538  0.4574
  480THF    H10 6237   5.166   1.631   0.571 -0.3123  0.2476  2.7133
  480THF    H11 6238   5.005   1.642   0.646 -0.4974  1.0128  0.6987
  480THF    H12 6239   4.974   1.422   0.543 -0.2634 -0.1370  1.0553
  480THF    H13 6240   5.150   1.410   0.520 -1.4010  1.0248 -1.7700
  481THF     O1 6241   0.810   0.092   1.162  0.7739  0.6552  0.0367
  481THF     C2 6242   0.779  -0.006   1.261 -0.4672 -0.5043 -0.2301
  481THF     C3 6243   0.727   0.207   1.185  0.5522  0.2647 -0.6136
  481THF     H4 6244   0.827   0.026   1.353 -0.9671 -1.9325  0.5482
  481THF     H5 6245   0.817  -0.106   1.245  3.0470  1.0130 -2.5643
  481THF     H6 6246   0.783   0.289   1.231  0.3239  0.9708 -1.5660
  481THF     H7 6247   0.683   0.248   1.094 -1.0645 -0.5963 -0.2483
  481THF     C8 6248   0.615   0.163   1.278 -0.6098  0.2945 -0.3163
  481THF     C9 6249   0.632   0.012   1.281  0.4322 -0.5565 -0.1443
  481THF    H10 6250   0.516   0.199   1.251 -0.4113 -0.4074 -2.0852
  481THF    H11 6251   0.629   0.210   1.376  2.4245 -1.6258  0.3364
  481THF    H12 6252   0.582  -0.025   1.371 -0.3504 -1.3071 -0.8701
  481THF    H13 6253   0.578  -0.031   1.197  0.4345  0.2977 -0.5912
  482THF     O1 6254   4.257   1.155   3.185 -0.0940 -0.6927  0.8947
  482THF     C2 6255   4.192   1.274   3.132 -0.6279  0.2558  0.1527
  482THF     C3 6256   4.182   1.049   3.124 -0.2965  0.0035 -0.0243
  482THF     H4 6257   4.198   1.290   3.024 -1.0666  0.1143  0.1062
  482THF     H5 6258   4.222   1.367   3.182 -0.2580  0.9404 -1.2754
  482THF     H6 6259   4.196   1.037   3.016  0.0816 -1.8381  0.2030
  482THF     H7 6260   4.204   0.953   3.170  0.2285 -0.9012 -2.0320
  482THF     C8 6261   4.038   1.088   3.145 -0.5533 -0.5259 -0.1247
  482THF     C9 6262   4.047   1.240   3.153 -0.4179  0.2463 -0.0067
  482THF    H10 6263   4.004   1.050   3.241 -0.1397 -2.2395 -0.6251
  482THF    H11 6264   3.973   1.042   3.072 -2.4032 -1.0377  1.7390
  482THF    H12 6265   3.983   1.280   3.074 -0.3323 -2.4520 -1.5497
  482THF    H13 6266   3.996   1.266   3.245 -1.3886 -0.7181 -0.2559
  483THF     O1 6267   4.469   2.222   1.621 -0.1813  0.0201  0.1357
  483THF     C2 6268   4.552   2.243   1.505  0.5514 -0.1635  0.5624
  483THF     C3 6269   4.341   2.176   1.565  0.2941 -0.4283 -0.6125
  483THF     H4 6270   4.656   2.250   1.537  0.2051  0.0678  1.7035
  483THF     H5 6271   4.526   2.340   1.462 -0.2646 -1.4057 -1.9298
  483THF     H6 6272   4.280   2.129   1.642 -0.4468 -0.5777 -1.2746
  483THF     H7 6273   4.295   2.271   1.536  0.6761  0.2588  0.9291
  483THF     C8 6274   4.384   2.074   1.450 -0.3560  0.2005 -0.9958
  483THF     C9 6275   4.516   2.131   1.408 -0.2246  0.2788  0.1403
  483THF    H10 6276   4.305   2.069   1.376 -2.4582 -3.0369  1.1752
  483THF    H11 6277   4.405   1.972   1.484  1.1107 -0.3338 -3.2838
  483THF    H12 6278   4.584   2.046   1.407 -1.3441 -0.6377  0.2599
  483THF    H13 6279   4.517   2.162   1.304  1.3436 -0.4503 -0.0975
  484THF     O1 6280   0.871   1.240   0.374 -0.0040 -0.2506 -0.0910
  484THF     C2 6281   0.743   1.197   0.312 -0.1029 -1.0138 -0.5823
  484THF     C3 6282   0.940   1.323   0.278  0.2285  0.3113 -0.4347
  484THF     H4 6283   0.666   1.169   0.385  0.6936  1.3374  1.3078
  484THF     H5 6284   0.767   1.104   0.261 -0.2042 -1.2734 -0.1664
  484THF     H6 6285   0.979   1.410   0.331 -1.5461  1.4166 -0.8571
  484THF     H7 6286   1.018   1.262   0.233 -2.2455 -2.0130 -1.9110
  484THF     C8 6287   0.841   1.363   0.163 -0.0910  0.4088  0.1646
  484THF     C9 6288   0.706   1.304   0.209 -0.2022  0.3239 -0.4487
  484THF    H10 6289   0.863   1.306   0.073 -2.1320  2.9248 -2.0873
  484THF    H11 6290   0.830   1.464   0.123  0.8439 -0.0468 -1.3235
  484THF    H12 6291   0.642   1.373   0.264  2.1349  1.2924  1.2040
  484THF    H13 6292   0.656   1.256   0.125 -0.3415  0.1461 -0.2637
  485THF     O1 6293   2.482   3.008   1.799 -0.1329  0.1404 -0.6053
  485THF     C2 6294   2.606   2.969   1.847  0.0538  0.8696 -0.4244
  485THF     C3 6295   2.392   2.988   1.904 -0.0434  0.3038 -0.1360
  485THF     H4 6296   2.686   3.020   1.792  1.3987 -0.7523 -0.0652
  485THF     H5 6297   2.613   2.860   1.845 -1.1099  0.7723  0.3144
  485THF     H6 6298   2.304   3.051   1.891  0.6235  1.4507  0.7503
  485THF     H7 6299   2.363   2.884   1.923 -1.3500  0.8474  1.0914
  485THF     C8 6300   2.462   3.045   2.023 -0.0939  0.1605 -0.1000
  485THF     C9 6301   2.604   2.994   2.003  0.2530 -0.2420 -0.0558
  485THF    H10 6302   2.419   3.004   2.114  0.1105 -1.4760 -0.7108
  485THF    H11 6303   2.454   3.154   2.021 -2.3580  0.0367 -0.9490
  485THF    H12 6304   2.671   3.074   2.034  1.2014 -1.8458  2.2780
  485THF    H13 6305   2.629   2.906   2.063 -2.2571 -0.0757  1.4076
  486THF     O1 6306   0.312   0.445   2.901 -0.1764  0.2014  0.1058
  486THF     C2 6307   0.354   0.530   2.799  0.7135 -0.0257  0.3018
  486THF     C3 6308   0.305   0.313   2.852 -0.0816 -0.1187  0.2732
  486THF     H4 6309   0.381   0.629   2.834  0.4700 -0.0235  0.4865
  486THF     H5 6310   0.271   0.549   2.730  0.8375  1.9037  0.6258
  486THF     H6 6311   0.330   0.238   2.927 -0.5302 -0.4286  0.1219
  486THF     H7 6312   0.210   0.276   2.813  0.2669 -0.8023  0.0536
  486THF     C8 6313   0.406   0.312   2.739 -0.9523  0.5094  0.2571
  486THF     C9 6314   0.469   0.452   2.734 -0.0519 -1.3757  0.5338
  486THF    H10 6315   0.367   0.295   2.639 -0.6952 -0.1152  0.2590
  486THF    H11 6316   0.472   0.228   2.760  0.2117  1.2146 -0.4201
  486THF    H12 6317   0.563   0.458   2.789 -0.6460  0.0164  1.4421
  486THF    H13 6318   0.502   0.488   2.637  2.0734  0.4339  1.8349
  487THF     O1 6319   3.545   2.990   5.175 -0.0071 -0.6847  0.3134
  487THF     C2 6320   3.534   3.000   5.034  0.9138 -0.2961 -0.1922
  487THF     C3 6321   3.513   3.122   5.222  0.2401 -0.1218  0.3350
  487THF     H4 6322   3.511   2.901   4.994  0.7145 -0.3628  0.0829
  487THF     H5 6323   3.611   3.056   4.981  0.0432 -0.2536 -1.4403
  487THF     H6 6324   3.466   3.112   5.320  1.6205 -0.2014  1.0112
  487THF     H7 6325   3.600   3.184   5.243 -1.1355  2.6693 -1.6433
  487THF     C8 6326   3.433   3.195   5.113 -0.0171  0.0068 -0.5205
  487THF     C9 6327   3.413   3.088   5.002 -0.3834 -0.2825 -0.9555
  487THF    H10 6328   3.489   3.277   5.068  0.8551 -1.2391 -1.7755
  487THF    H11 6329   3.331   3.222   5.143 -0.3255 -2.4975  0.8954
  487THF    H12 6330   3.313   3.046   5.016 -0.5625 -0.1035 -1.6712
  487THF    H13 6331   3.416   3.136   4.904 -2.4186  0.5463 -0.6608
  488THF     O1 6332   5.127   4.968   5.295 -0.1934  0.3487  0.4195
  488THF     C2 6333   5.006   4.999   5.226  0.6987 -0.0664 -0.5915
  488THF     C3 6334   5.135   4.825   5.288  0.2213  0.6770 -0.6918
  488THF     H4 6335   5.046   5.020   5.126  2.7714 -3.2290 -0.5693
  488THF     H5 6336   4.953   5.083   5.271  1.6908  1.0398 -1.4078
  488THF     H6 6337   5.189   4.790   5.200  0.4618  2.2758 -1.2067
  488THF     H7 6338   5.186   4.780   5.372 -0.0471  0.6421 -0.5460
  488THF     C8 6339   4.983   4.775   5.281  0.2585 -0.6349  0.7572
  488THF     C9 6340   4.914   4.882   5.199  0.1094  0.4655  0.2094
  488THF    H10 6341   4.949   4.766   5.384 -3.5040  1.8334 -0.0652
  488THF    H11 6342   4.982   4.683   5.223  1.9578 -0.5261  0.5004
  488THF    H12 6343   4.924   4.862   5.092  2.7585  0.4311  0.4102
  488THF    H13 6344   4.808   4.870   5.222  0.8041 -1.9457  2.7210
  489THF     O1 6345   1.445   2.020   5.314  0.0367 -0.0951 -0.2169
  489THF     C2 6346   1.495   1.943   5.199 -0.0109  0.0003  0.7916
  489THF     C3 6347   1.312   1.979   5.328  0.9518  0.2105 -0.3841
  489THF     H4 6348   1.512   1.841   5.234 -0.1530 -0.7265 -1.1469
  489THF     H5 6349   1.584   1.981   5.149  0.1610 -0.5429  0.6772
  489THF     H6 6350   1.304   1.874   5.355  0.7473 -0.1837 -1.8719
  489THF     H7 6351   1.253   2.020   5.409  2.3503 -2.2146  2.0202
  489THF     C8 6352   1.251   1.995   5.186 -0.0451  0.1448  0.2010
  489THF     C9 6353   1.367   1.932   5.104 -0.2483 -0.3074 -0.4111
  489THF    H10 6354   1.234   2.102   5.173  0.9987  0.1642 -1.1379
  489THF    H11 6355   1.153   1.953   5.163  0.7186 -0.2605 -2.7359
  489THF    H12 6356   1.335   1.828   5.095 -2.8521  0.5174 -1.5349
  489THF    H13 6357   1.383   1.984   5.010 -1.1341  0.2958 -0.2463
  490THF     O1 6358   4.523   0.633   4.661 -0.6243  0.5843  0.3287
  490THF     C2 6359   4.606   0.704   4.575 -0.2253 -0.0574 -0.1253
  490THF     C3 6360   4.436   0.712   4.741  0.5925 -0.4017  0.1841
  490THF     H4 6361   4.584   0.665   4.476  3.0507 -1.5504 -0.4234
  490THF     H5 6362   4.714   0.690   4.580 -0.3969 -1.3958  0.3581
  490THF     H6 6363   4.341   0.659   4.754  0.4067  0.3481  2.3527
  490THF     H7 6364   4.487   0.722   4.837  0.8093 -0.4661  0.0760
  490THF     C8 6365   4.424   0.845   4.658  0.3613  0.5718  0.5611
  490THF     C9 6366   4.564   0.849   4.601  0.0311 -0.0112  0.4464
  490THF    H10 6367   4.408   0.931   4.723  1.5537 -0.1490  1.8707
  490THF    H11 6368   4.338   0.828   4.594 -0.7767  0.5268  2.0361
  490THF    H12 6369   4.577   0.921   4.520 -1.2169  0.3493  0.5530
  490THF    H13 6370   4.634   0.893   4.672 -0.0243  1.0218 -0.1155
  491THF     O1 6371   1.987   2.697   3.402  0.3319  0.8823  0.0155
  491THF     C2 6372   2.110   2.766   3.378 -0.0706 -0.2125  0.4117
  491THF     C3 6373   1.943   2.642   3.278  0.2476  0.3328  0.3728
  491THF     H4 6374   2.156   2.777   3.476 -1.7548 -1.5893  1.4269
  491THF     H5 6375   2.091   2.867   3.343  3.1593  1.2360  2.4545
  491THF     H6 6376   1.906   2.540   3.290 -0.9525  0.5201 -1.3204
  491THF     H7 6377   1.864   2.696   3.225 -0.9889  1.0363  2.7706
  491THF     C8 6378   2.069   2.639   3.186 -0.1043 -0.6873 -0.6061
  491THF     C9 6379   2.185   2.682   3.275  0.3985  0.0911 -0.3203
  491THF    H10 6380   2.054   2.719   3.114 -2.9330  0.2806  0.9251
  491THF    H11 6381   2.090   2.549   3.127 -4.1617 -1.2070 -1.5509
  491THF    H12 6382   2.239   2.599   3.320 -1.3268 -1.4755 -1.0139
  491THF    H13 6383   2.259   2.754   3.238 -2.5372  3.5245 -0.0559
  492THF     O1 6384   4.282   4.056   3.856 -0.2542  0.0710 -0.5050
  492THF     C2 6385   4.301   4.067   3.997 -0.5228 -0.0522 -0.0974
  492THF     C3 6386   4.404   4.063   3.777  0.4760 -0.0226 -0.1133
  492THF     H4 6387   4.228   4.022   4.065 -0.2257  0.5603  0.6526
  492THF     H5 6388   4.301   4.172   4.026  1.9060 -0.5921  2.2013
  492THF     H6 6389   4.416   3.978   3.710 -1.6235  0.4024 -1.0851
  492THF     H7 6390   4.414   4.151   3.713  1.2804  0.2061  0.3038
  492THF     C8 6391   4.511   4.079   3.885 -0.4584  0.7000 -0.0125
  492THF     C9 6392   4.444   4.010   4.009  1.0536 -0.3012  0.5143
  492THF    H10 6393   4.510   4.186   3.903 -0.8891  0.6689  0.1687
  492THF    H11 6394   4.616   4.054   3.871 -0.0553  2.7115 -0.9290
  492THF    H12 6395   4.456   3.902   3.997 -1.2278 -0.6340  0.7407
  492THF    H13 6396   4.477   4.041   4.108 -1.0133  0.8458  0.9143
  493THF     O1 6397   3.536   2.064   2.204  0.5829  0.1653  0.7360
  493THF     C2 6398   3.481   2.180   2.268 -0.6755  0.2656  0.2336
  493THF     C3 6399   3.544   2.106   2.063  0.0203  0.2597  0.2406
  493THF     H4 6400   3.554   2.260   2.275 -0.3197  0.0085 -0.4537
  493THF     H5 6401   3.448   2.154   2.369 -0.0825 -0.4224  0.2558
  493THF     H6 6402   3.628   2.171   2.036  0.4559 -0.5716 -0.4843
  493THF     H7 6403   3.538   2.018   1.999 -2.3784 -0.1417  0.9470
  493THF     C8 6404   3.417   2.195   2.035 -0.3450 -0.1516 -0.8275
  493THF     C9 6405   3.365   2.219   2.175  0.3287  0.3863 -0.2793
  493THF    H10 6406   3.349   2.141   1.969  0.0967 -3.1980  0.9987
  493THF    H11 6407   3.457   2.283   1.984 -1.2266  1.5554  1.3050
  493THF    H12 6408   3.347   2.326   2.186  0.7080  0.6067 -1.6109
  493THF    H13 6409   3.269   2.173   2.200  1.0599 -0.4544  1.0590
  494THF     O1 6410   0.554   3.408   5.146 -0.5371  0.0664 -0.4419
  494THF     C2 6411   0.551   3.303   5.051  0.8143 -0.7659 -0.4527
  494THF     C3 6412   0.572   3.356   5.275  0.1245  0.2473 -0.3018
  494THF     H4 6413   0.642   3.250   5.022  0.5414 -0.5107 -1.8563
  494THF     H5 6414   0.511   3.341   4.957  1.0032  0.2169 -0.1471
  494THF     H6 6415   0.674   3.319   5.286  0.4061 -0.1899 -3.3214
  494THF     H7 6416   0.536   3.441   5.333 -2.2232 -0.7746 -0.1372
  494THF     C8 6417   0.468   3.252   5.276  0.3936 -0.1849  0.4644
  494THF     C9 6418   0.453   3.205   5.125 -0.0898 -0.4174 -0.2243
  494THF    H10 6419   0.373   3.303   5.292  1.4203  2.0475 -0.0892
  494THF    H11 6420   0.493   3.171   5.344  3.8696  0.1800 -0.1857
  494THF    H12 6421   0.491   3.104   5.110  0.3087 -0.4234  0.8078
  494THF    H13 6422   0.351   3.208   5.087 -0.9344  2.2755  1.9445
  495THF     O1 6423   2.454   0.489   2.274 -0.3640  0.4601 -0.0202
  495THF     C2 6424   2.389   0.614   2.261 -0.2591  0.3310 -0.3052
  495THF     C3 6425   2.549   0.490   2.168 -0.3073  0.1071 -0.6790
  495THF     H4 6426   2.325   0.631   2.347 -1.2284  2.2137 -1.3184
  495THF     H5 6427   2.330   0.631   2.171  1.3991  1.2761 -1.2587
  495THF     H6 6428   2.637   0.430   2.187 -0.3274  0.1479 -0.4483
  495THF     H7 6429   2.504   0.448   2.078 -0.1267  2.1763 -1.8007
  495THF     C8 6430   2.607   0.640   2.164 -0.2055  0.9551 -0.1178
  495THF     C9 6431   2.497   0.718   2.235  0.5345  0.0441 -0.3340
  495THF    H10 6432   2.634   0.672   2.064 -0.1617 -2.6705 -1.4457
  495THF    H11 6433   2.697   0.653   2.224 -1.2036 -0.6099  1.8423
  495THF    H12 6434   2.529   0.753   2.333 -1.0677 -2.1793  1.1031
  495THF    H13 6435   2.467   0.803   2.174 -1.8934 -0.9682 -0.6752
  496THF     O1 6436   2.665   3.327   3.381 -0.2499 -0.2694 -0.7279
  496THF     C2 6437   2.737   3.292   3.498  0.4880  0.2841  0.1569
  496THF     C3 6438   2.637   3.467   3.393  0.2118  0.6752  0.0647
  496THF     H4 6439   2.789   3.197   3.488 -0.5441 -0.0569 -2.8662
  496THF     H5 6440   2.676   3.288   3.588  0.0303 -1.2531 -0.1979
  496THF     H6 6441   2.622   3.517   3.297 -3.3421 -1.3375 -0.6167
  496THF     H7 6442   2.546   3.494   3.446 -0.7783  0.1163 -1.2955
  496THF     C8 6443   2.762   3.534   3.441  0.1023 -0.1711  0.4038
  496THF     C9 6444   2.836   3.407   3.497 -0.3686  0.2396 -0.8771
  496THF    H10 6445   2.761   3.616   3.512  1.4783 -0.5556  0.8978
  496THF    H11 6446   2.831   3.567   3.364 -0.0883  1.4912  0.9027
  496THF    H12 6447   2.919   3.383   3.430  0.9869 -0.2080  0.8897
  496THF    H13 6448   2.872   3.419   3.599 -0.4771  2.2509 -1.0402
  497THF     O1 6449   0.870   4.967   3.936  0.2140 -0.0603 -0.2275
  497THF     C2 6450   0.863   5.060   3.828 -0.2211 -0.6206 -0.7109
  497THF     C3 6451   0.752   4.983   4.015 -1.2923 -0.9007  0.7381
  497THF     H4 6452   0.799   5.025   3.747  1.5059 -4.1658 -0.7381
  497THF     H5 6453   0.965   5.076   3.793 -0.9206  0.8532 -2.1764
  497THF     H6 6454   0.672   4.926   3.968 -0.2780 -2.6939  1.0963
  497THF     H7 6455   0.761   4.942   4.116  1.9553 -0.0105  0.9226
  497THF     C8 6456   0.724   5.132   4.016  0.2958 -0.3833 -0.6939
  497THF     C9 6457   0.810   5.178   3.908 -0.3860 -0.9726  0.2619
  497THF    H10 6458   0.739   5.180   4.112  0.2386 -0.1935 -0.7789
  497THF    H11 6459   0.620   5.146   3.988  0.7313 -0.2084 -2.3832
  497THF    H12 6460   0.758   5.249   3.843  0.8695  0.1319  0.4015
  497THF    H13 6461   0.893   5.239   3.944 -1.9412  1.8279 -0.5830
  498THF     O1 6462   3.663   5.109   0.221  0.0137 -0.5863  0.2257
  498THF     C2 6463   3.612   5.143   0.089 -0.7849  0.2247 -0.1282
  498THF     C3 6464   3.560   5.051   0.301  0.2709 -0.5256  0.1041
  498THF     H4 6465   3.670   5.169   0.000 -1.8976 -0.5164 -1.1010
  498THF     H5 6466   3.557   5.234   0.115 -1.7232 -0.7012  1.2900
  498THF     H6 6467   3.586   5.007   0.397 -0.7494 -0.8003  0.2698
  498THF     H7 6468   3.502   5.137   0.335  0.2982 -0.3797 -0.2207
  498THF     C8 6469   3.475   4.970   0.198  0.2871  0.1921 -0.0873
  498THF     C9 6470   3.510   5.032   0.061 -0.7157  0.2021 -0.5456
  498THF    H10 6471   3.367   4.989   0.195  0.2248 -0.2426 -0.7685
  498THF    H11 6472   3.495   4.863   0.190  1.8946  0.3553  1.2805
  498THF    H12 6473   3.552   4.954  -0.002 -1.4197 -0.8890  0.2897
  498THF    H13 6474   3.422   5.068   0.008 -3.0141 -1.3526  1.8996
  499THF     O1 6475   2.146   4.303   5.153  0.2058 -0.1496  0.2698
  499THF     C2 6476   2.285   4.324   5.172 -0.2157 -0.1134 -0.2040
  499THF     C3 6477   2.111   4.381   5.043  0.1155 -0.4611 -0.0519
  499THF     H4 6478   2.343   4.291   5.086  2.1981  0.9613  0.9205
  499THF     H5 6479   2.322   4.290   5.268 -0.0049 -0.0059 -0.2466
  499THF     H6 6480   2.142   4.342   4.946  0.4291 -0.0901 -0.1044
  499THF     H7 6481   2.003   4.394   5.032  0.0241 -0.7202  0.4913
  499THF     C8 6482   2.179   4.519   5.074 -0.3268 -0.7375  0.0150
  499THF     C9 6483   2.293   4.479   5.163 -0.0081  0.5782 -0.1742
  499THF    H10 6484   2.116   4.592   5.125 -1.3174  0.1096 -2.2859
  499THF    H11 6485   2.212   4.559   4.978  0.5991  0.8610  0.9599
  499THF    H12 6486   2.395   4.509   5.138  0.4015  1.1845  1.9866
  499THF    H13 6487   2.270   4.521   5.261  0.3385  0.4947 -0.0554
  500THF     O1 6488   1.903   2.064   2.501 -0.1821  0.5249  0.3264
  500THF     C2 6489   2.024   2.123   2.496 -0.2886  0.0052  0.3345
  500THF     C3 6490   1.917   1.926   2.483 -0.0556  0.0508  0.1961
  500THF     H4 6491   2.034   2.174   2.592  1.3874 -2.2383  1.4290
  500THF     H5 6492   2.023   2.190   2.410 -1.5657 -2.4172 -1.6539
  500THF     H6 6493   1.843   1.877   2.547 -1.7413  0.0850 -1.6342
  500THF     H7 6494   1.918   1.890   2.380  1.2812 -2.7051  1.0738
  500THF     C8 6495   2.052   1.898   2.544  0.7494 -0.2886 -0.4139
  500THF     C9 6496   2.122   2.014   2.497 -0.1918  0.1283 -0.3302
  500THF    H10 6497   2.100   1.808   2.506  0.2183 -0.5867 -0.3926
  500THF    H11 6498   2.041   1.883   2.652 -0.5385 -1.3231 -0.6690
  500THF    H12 6499   2.203   2.043   2.564  0.8485 -0.3676 -1.3368
  500THF    H13 6500   2.147   1.994   2.392  0.0344  0.0169 -0.2534
  501THF     O1 6501   3.626   2.501   0.198  0.2937 -0.3769  0.3476
  501THF     C2 6502   3.646   2.608   0.289 -0.1422  0.1908  0.5417
  501THF     C3 6503   3.603   2.550   0.070  0.2169 -0.3750  0.0060
  501THF     H4 6504   3.689   2.571   0.382  0.4628  0.7284  0.4879
  501THF     H5 6505   3.559   2.669   0.316 -0.2884 -0.2739  1.1518
  501THF     H6 6506   3.603   2.472  -0.006 -3.8539 -1.0483  0.4950
  501THF     H7 6507   3.509   2.603   0.059  1.6464  2.1495 -0.9831
  501THF     C8 6508   3.714   2.646   0.059  0.0503 -0.6154  0.6551
  501THF     C9 6509   3.743   2.691   0.205 -0.4122  0.4175 -0.1525
  501THF    H10 6510   3.679   2.714  -0.018 -1.0902 -2.0029 -0.0895
  501THF    H11 6511   3.798   2.589   0.018 -0.0993 -1.7863  1.9217
  501THF    H12 6512   3.846   2.664   0.231 -0.5061  1.7298  1.8515
  501THF    H13 6513   3.742   2.800   0.211  1.6090  0.5494 -1.2158
  502THF     O1 6514   3.215   3.702   2.853  0.1127 -0.4150 -0.3543
  502THF     C2 6515   3.268   3.588   2.916 -0.0302  0.6714  0.5784
  502THF     C3 6516   3.226   3.816   2.939  0.0894 -0.3760 -0.1995
  502THF     H4 6517   3.349   3.552   2.853 -0.3666 -0.7808  0.9440
  502THF     H5 6518   3.201   3.502   2.910 -1.7975  1.9242  1.2611
  502THF     H6 6519   3.319   3.864   2.909  0.0194 -0.5687 -0.7371
  502THF     H7 6520   3.137   3.878   2.930  0.3831 -0.1696 -1.9631
  502THF     C8 6521   3.236   3.768   3.077  0.2176  0.6884  0.1216
  502THF     C9 6522   3.304   3.634   3.058  0.1604  0.6437  0.8237
  502THF    H10 6523   3.140   3.731   3.112  0.3368 -0.6579 -0.9111
  502THF    H11 6524   3.281   3.837   3.148 -2.2070  2.6971 -0.1435
  502THF    H12 6525   3.412   3.647   3.058  0.4173 -1.1581 -0.0673
  502THF    H13 6526   3.281   3.568   3.141  0.6013 -1.1664 -0.4257
  503THF     O1 6527   2.846   3.572   2.525  0.6128  0.0980  0.3946
  503THF     C2 6528   2.805   3.455   2.456 -0.4564  0.2003  0.3085
  503THF     C3 6529   2.988   3.568   2.543  1.1228  0.0773 -0.2132
  503THF     H4 6530   2.707   3.472   2.411  0.6138  0.1451 -2.2558
  503THF     H5 6531   2.788   3.376   2.528 -1.4628  0.1073 -0.0189
  503THF     H6 6532   3.027   3.669   2.534  1.9879 -0.3280 -1.2025
  503THF     H7 6533   3.014   3.534   2.644 -1.1676 -0.0823  0.3834
  503THF     C8 6534   3.039   3.471   2.439 -0.2158 -0.2055 -0.1427
  503THF     C9 6535   2.921   3.429   2.363  0.3071 -0.3672  0.0565
  503THF    H10 6536   3.099   3.392   2.482  0.6593 -0.8388 -2.3986
  503THF    H11 6537   3.111   3.519   2.372 -0.8859  1.4337  0.2424
  503THF    H12 6538   2.907   3.478   2.267  1.0126 -3.1869 -1.6107
  503THF    H13 6539   2.922   3.321   2.347 -2.0260 -0.3547 -0.4623
  504THF     O1 6540   4.961   1.440   2.193  0.1518  0.0536  0.3101
  504THF     C2 6541   4.890   1.380   2.083  0.0572 -0.2050 -0.4825
  504THF     C3 6542   5.060   1.354   2.239  0.4311 -0.3678  0.1575
  504THF     H4 6543   4.828   1.456   2.035  0.8025  1.9959  1.7984
  504THF     H5 6544   4.819   1.310   2.127 -1.6128  2.0531  0.6328
  504THF     H6 6545   5.130   1.412   2.299  0.4652 -1.1325  0.8894
  504THF     H7 6546   5.027   1.268   2.297 -1.3742  0.5463  0.5473
  504THF     C8 6547   5.116   1.316   2.105  0.8305  0.2941  0.3193
  504THF     C9 6548   5.002   1.305   2.004 -0.3624  0.4502  0.3930
  504THF    H10 6549   5.173   1.224   2.105  0.6077  0.1192 -1.3052
  504THF    H11 6550   5.182   1.397   2.073  0.6981  0.2872  0.0180
  504THF    H12 6551   5.025   1.346   1.905 -1.8487  1.2855  0.3651
  504THF    H13 6552   4.972   1.205   1.975  1.8880  0.0940 -0.9642
  505THF     O1 6553   1.821   0.273   1.534  0.0314  0.8019 -0.6651
  505THF     C2 6554   1.899   0.237   1.645  0.2759  0.7303 -0.3926
  505THF     C3 6555   1.855   0.174   1.436  0.1791 -0.5134 -0.4259
  505THF     H4 6556   1.856   0.147   1.689  1.5181  0.7544  0.9598
  505THF     H5 6557   1.901   0.319   1.717 -0.6341  1.1695 -0.8573
  505THF     H6 6558   1.818   0.076   1.467  0.4130 -0.4909 -0.0786
  505THF     H7 6559   1.807   0.202   1.342  1.2686  1.7553 -0.3606
  505THF     C8 6560   2.005   0.175   1.437  0.6989  0.4354  0.3285
  505THF     C9 6561   2.028   0.212   1.582 -0.6423 -0.0163  0.0455
  505THF    H10 6562   2.055   0.245   1.371 -0.8077  0.0038 -1.3449
  505THF    H11 6563   2.043   0.079   1.401  0.0212  0.0343  0.6460
  505THF    H12 6564   2.093   0.133   1.620  2.8754  2.2264 -0.8546
  505THF    H13 6565   2.080   0.307   1.575 -3.0972  1.5375  1.3362
  506THF     O1 6566   4.889   0.802   2.124  0.1578  0.2820  0.0428
  506THF     C2 6567   4.904   0.787   2.263 -0.0641  0.4610 -0.1856
  506THF     C3 6568   5.006   0.868   2.070 -0.8388 -0.3548  0.2678
  506THF     H4 6569   4.926   0.682   2.282 -2.2541  0.1985  1.3501
  506THF     H5 6570   4.814   0.827   2.312  0.0076  1.2321 -0.6646
  506THF     H6 6571   5.034   0.805   1.986 -2.3075 -2.4552  1.2554
  506THF     H7 6572   4.977   0.970   2.045 -1.6296 -0.3934  0.9782
  506THF     C8 6573   5.110   0.869   2.181 -0.6469  0.2880  0.5848
  506THF     C9 6574   5.028   0.866   2.308  0.1383 -0.8419  1.0344
  506THF    H10 6575   5.174   0.958   2.184 -0.5281  0.1821  1.3962
  506THF    H11 6576   5.179   0.786   2.167  0.0239  0.7481  1.0816
  506THF    H12 6577   5.070   0.823   2.399  1.7972 -1.2464  0.1226
  506THF    H13 6578   4.995   0.968   2.325  0.0877 -0.5386 -0.7191
  507THF     O1 6579   2.006   2.875   3.698 -0.4364 -0.4188  0.0381
  507THF     C2 6580   1.936   2.951   3.800  0.0499  0.5962  0.3943
  507THF     C3 6581   2.139   2.837   3.746  0.3696 -0.6632 -0.1054
  507THF     H4 6582   1.840   2.903   3.820  0.6275 -0.6443  0.2763
  507THF     H5 6583   1.915   3.049   3.758 -0.5013 -0.2801 -1.5028
  507THF     H6 6584   2.149   2.735   3.708 -0.0280 -0.1792 -1.5916
  507THF     H7 6585   2.218   2.901   3.706  0.1937  0.1144  0.7543
  507THF     C8 6586   2.142   2.854   3.901 -0.2746 -0.0449  0.1172
  507THF     C9 6587   2.027   2.955   3.930 -1.0593 -0.0283 -0.1627
  507THF    H10 6588   2.240   2.890   3.930  0.7858 -1.1151 -1.8889
  507THF    H11 6589   2.132   2.758   3.952 -0.2602  0.4005  0.9775
  507THF    H12 6590   1.972   2.919   4.016  0.2813 -1.0672  0.2970
  507THF    H13 6591   2.055   3.059   3.944 -0.7708 -0.3195  1.6215
  508THF     O1 6592   4.143   3.389   1.435  0.1064 -0.2675  0.3543
  508THF     C2 6593   4.045   3.459   1.359  0.1098 -0.6032 -0.7764
  508THF     C3 6594   4.207   3.486   1.526  0.8688  0.2562 -0.0829
  508THF     H4 6595   3.948   3.457   1.409 -0.8568 -0.4034 -2.5526
  508THF     H5 6596   4.023   3.426   1.257 -1.3667 -0.3903 -0.5506
  508THF     H6 6597   4.219   3.456   1.630  0.8377  1.9214  0.4301
  508THF     H7 6598   4.313   3.484   1.500  1.3624 -2.6306  1.6722
  508THF     C8 6599   4.142   3.616   1.504 -0.0348 -0.5002  0.0616
  508THF     C9 6600   4.093   3.607   1.359  0.2704  0.5196  0.3500
  508THF    H10 6601   4.221   3.688   1.525 -0.9986  0.1732  1.5504
  508THF    H11 6602   4.056   3.628   1.569  0.3519 -0.5232  0.5851
  508THF    H12 6603   4.019   3.681   1.329 -1.8700 -2.6236 -2.9154
  508THF    H13 6604   4.178   3.621   1.293  0.0722  2.2990  0.4157
  509THF     O1 6605   1.696   2.580   4.494  0.4669  0.5996 -0.5114
  509THF     C2 6606   1.603   2.681   4.540  0.2100 -0.4191 -0.1130
  509THF     C3 6607   1.764   2.518   4.603  0.3679 -0.6278  0.5817
  509THF     H4 6608   1.504   2.636   4.534 -0.0035 -0.7460  3.5436
  509THF     H5 6609   1.622   2.770   4.480 -0.9593  1.2126  1.8096
  509THF     H6 6610   1.713   2.428   4.636  0.6499 -1.3466 -0.8877
  509THF     H7 6611   1.869   2.490   4.599  0.4636 -0.4822  1.6759
  509THF     C8 6612   1.752   2.626   4.716 -0.0989  0.0593 -0.0298
  509THF     C9 6613   1.628   2.706   4.687 -0.9002 -0.5774 -0.4613
  509THF    H10 6614   1.834   2.696   4.699 -1.2443  1.0853 -1.6487
  509THF    H11 6615   1.754   2.595   4.821  0.2112  3.0303  0.9392
  509THF    H12 6616   1.547   2.667   4.749  1.5147 -0.7196  2.8301
  509THF    H13 6617   1.638   2.811   4.717  1.0219  0.3195 -3.7734
  510THF     O1 6618   5.424   2.577   4.288  0.3504  1.2103  0.3336
  510THF     C2 6619   5.547   2.530   4.338  0.6717  0.4093  0.2092
  510THF     C3 6620   5.415   2.548   4.148  0.1344  0.7075 -0.5202
  510THF     H4 6621   5.550   2.421   4.341 -0.6413  0.2728 -1.7008
  510THF     H5 6622   5.555   2.573   4.438 -1.6827 -0.0297  0.6471
  510THF     H6 6623   5.404   2.440   4.139  0.7294  0.7015 -1.3601
  510THF     H7 6624   5.339   2.602   4.091 -1.1455 -0.2303  0.2629
  510THF     C8 6625   5.556   2.584   4.106 -0.1666 -0.3165 -0.7462
  510THF     C9 6626   5.643   2.577   4.232  0.3031  0.0343 -0.0995
  510THF    H10 6627   5.550   2.688   4.075  0.4667  0.2139  0.8425
  510THF    H11 6628   5.595   2.533   4.018  1.2839  2.8705 -2.0968
  510THF    H12 6629   5.711   2.493   4.216 -1.9554 -2.0284  0.4898
  510THF    H13 6630   5.699   2.667   4.256  1.3697 -0.4699 -0.6060
  511THF     O1 6631   5.044   2.076   1.265  0.1933  0.1802 -0.7642
  511THF     C2 6632   4.972   2.172   1.189 -0.2770  0.1206 -0.7359
  511THF     C3 6633   4.960   1.960   1.263  0.0346 -0.2264 -0.1328
  511THF     H4 6634   4.965   2.143   1.084  0.3508 -0.7949 -0.5328
  511THF     H5 6635   5.011   2.271   1.212 -0.1649 -0.4084  1.6384
  511THF     H6 6636   4.961   1.934   1.157  0.7840  0.2928 -0.2634
  511THF     H7 6637   4.991   1.880   1.330  0.4243  0.1453  0.1315
  511THF     C8 6638   4.824   2.016   1.306 -0.1297 -0.2768  0.0842
  511THF     C9 6639   4.826   2.154   1.242  0.0221  0.1527  0.2410
  511THF    H10 6640   4.820   2.023   1.415 -0.8409  0.6096  0.0126
  511THF    H11 6641   4.736   1.958   1.276  0.6987 -1.6083  0.1105
  511THF    H12 6642   4.760   2.152   1.156  1.6709 -0.7153 -1.0654
  511THF    H13 6643   4.792   2.237   1.304  0.9304  1.2676 -0.6899
  512THF     O1 6644   0.939   3.208   0.690 -0.6784 -0.2278 -0.0041
  512THF     C2 6645   1.033   3.326   0.704  0.1994  0.6568 -0.1182
  512THF     C3 6646   0.809   3.266   0.687  0.8997  0.2785  0.3333
  512THF     H4 6647   1.098   3.321   0.617  2.0617 -2.5609  1.2686
  512THF     H5 6648   1.103   3.320   0.788 -1.5178  0.0514  1.3551
  512THF     H6 6649   0.742   3.208   0.624 -0.3779  1.1894  0.8244
  512THF     H7 6650   0.774   3.242   0.788  0.8698  0.6053  0.4001
  512THF     C8 6651   0.825   3.413   0.649  0.1745  0.5825 -0.4137
  512THF     C9 6652   0.957   3.457   0.709  0.0451  0.1659 -0.2660
  512THF    H10 6653   0.750   3.483   0.685  1.3207  2.1378 -0.9409
  512THF    H11 6654   0.833   3.429   0.541  0.1404  1.8024 -0.2472
  512THF    H12 6655   1.025   3.532   0.667  0.7844 -0.0811  0.4498
  512THF    H13 6656   0.952   3.475   0.817  0.1131  0.6384 -0.3371
  513THF     O1 6657   0.202   0.297   2.378 -0.0249 -0.8675 -0.2093
  513THF     C2 6658   0.331   0.343   2.339 -0.6788  0.0017 -0.1611
  513THF     C3 6659   0.182   0.176   2.310  0.1314  0.3951  0.0919
  513THF     H4 6660   0.408   0.337   2.415 -0.5143 -1.1754 -0.4110
  513THF     H5 6661   0.328   0.452   2.339 -1.2121  0.0186  1.6904
  513THF     H6 6662   0.199   0.081   2.361 -2.6908  0.1967  0.8775
  513THF     H7 6663   0.079   0.180   2.274  0.2077  1.6941 -0.0106
  513THF     C8 6664   0.253   0.189   2.176 -0.1729 -0.6696 -0.5990
  513THF     C9 6665   0.375   0.280   2.208  1.2248 -0.1529 -0.4562
  513THF    H10 6666   0.199   0.244   2.099  0.1998 -1.0025 -1.1066
  513THF    H11 6667   0.282   0.090   2.140 -0.7738 -1.3817  0.8379
  513THF    H12 6668   0.468   0.224   2.223  1.6224  0.8932  1.2579
  513THF    H13 6669   0.380   0.355   2.129 -1.2616  0.2022 -0.3427
  514THF     O1 6670   2.443   2.556   4.166 -0.1049  0.4986  0.4503
  514THF     C2 6671   2.497   2.667   4.226  0.0278  0.2479  0.4256
  514THF     C3 6672   2.499   2.540   4.032 -0.2630 -0.6380 -0.0179
  514THF     H4 6673   2.491   2.668   4.335 -1.2068  3.1485  0.4407
  514THF     H5 6674   2.440   2.749   4.182 -1.5083 -1.8922 -1.7568
  514THF     H6 6675   2.500   2.445   3.978  1.2224  0.1573 -1.5163
  514THF     H7 6676   2.443   2.613   3.974 -2.4648 -2.8363 -0.8478
  514THF     C8 6677   2.642   2.589   4.053 -0.1972 -0.1945  0.1204
  514THF     C9 6678   2.644   2.670   4.176  0.4585  0.2175 -0.6112
  514THF    H10 6679   2.667   2.654   3.969 -4.3734  1.2676 -0.2413
  514THF    H11 6680   2.718   2.511   4.056  1.5604  1.4509 -0.1773
  514THF    H12 6681   2.710   2.631   4.253  1.6728  1.3900 -1.0218
  514THF    H13 6682   2.682   2.771   4.160 -0.2151  1.0465  2.3148
  515THF     O1 6683   0.484   4.888   1.726  0.3482 -0.8479 -0.3282
  515THF     C2 6684   0.500   4.917   1.862  0.3020 -0.0180  0.1128
  515THF     C3 6685   0.419   4.761   1.716  0.0510  0.2231 -0.7160
  515THF     H4 6686   0.504   5.023   1.885  0.1067  0.1869 -0.7530
  515THF     H5 6687   0.595   4.865   1.879 -0.8962 -2.4561 -0.1785
  515THF     H6 6688   0.333   4.775   1.650  1.1714  0.3025 -2.2131
  515THF     H7 6689   0.473   4.683   1.662  0.2047 -0.9040  0.9718
  515THF     C8 6690   0.373   4.722   1.857 -0.1184  0.6682  0.3682
  515THF     C9 6691   0.384   4.859   1.938  0.6619  0.4195  0.0282
  515THF    H10 6692   0.436   4.645   1.901 -0.6126  1.2343  2.1244
  515THF    H11 6693   0.274   4.677   1.859  0.4472 -0.5691  1.3027
  515THF    H12 6694   0.298   4.925   1.934 -0.9999 -1.6847 -0.7339
  515THF    H13 6695   0.410   4.846   2.043 -1.1433  0.0758  0.4667
  516THF     O1 6696   0.277   2.786   4.934  0.1948 -0.1309  0.3019
  516THF     C2 6697   0.329   2.889   4.859 -0.2793  0.0762 -0.5997
  516THF     C3 6698   0.226   2.688   4.843  0.1838 -0.1973 -0.5748
  516THF     H4 6699   0.389   2.955   4.922  1.3298 -0.6212 -1.3424
  516THF     H5 6700   0.251   2.955   4.821 -0.7194  0.7107  1.2873
  516THF     H6 6701   0.237   2.589   4.888 -1.0414  0.3897  1.1102
  516THF     H7 6702   0.127   2.707   4.802 -0.3323 -3.1274 -0.9227
  516THF     C8 6703   0.315   2.701   4.721 -0.0502 -0.4509  0.3822
  516THF     C9 6704   0.398   2.826   4.746 -0.0217  0.3578  0.9606
  516THF    H10 6705   0.253   2.716   4.632  1.9523 -0.7428 -1.1430
  516THF    H11 6706   0.375   2.611   4.707 -0.9611 -0.8861 -0.9131
  516THF    H12 6707   0.491   2.798   4.796  1.1543  1.0506 -0.7376
  516THF    H13 6708   0.417   2.892   4.662 -1.6041 -0.0940  0.2089
  517THF     O1 6709   5.045   2.364   5.343  0.5323 -0.2879 -0.0786
  517THF     C2 6710   4.921   2.417   5.303 -0.1590 -0.3187 -0.4024
  517THF     C3 6711   5.024   2.231   5.383  0.3087 -0.2251 -0.0739
  517THF     H4 6712   4.900   2.399   5.198 -0.7777 -2.1548 -0.0057
  517THF     H5 6713   4.925   2.522   5.331 -0.0356 -0.7710  1.4332
  517THF     H6 6714   5.015   2.166   5.297 -2.1192 -0.3575  0.2321
  517THF     H7 6715   5.100   2.196   5.454  0.2454 -1.8181 -0.7639
  517THF     C8 6716   4.881   2.238   5.451  0.0902  0.3299  0.2969
  517THF     C9 6717   4.812   2.349   5.385  0.2494 -0.1416  0.0823
  517THF    H10 6718   4.876   2.252   5.559  0.9571 -0.4600  0.4512
  517THF    H11 6719   4.829   2.146   5.424  1.8927  0.2673 -3.6726
  517THF    H12 6720   4.728   2.324   5.320  0.7845 -2.0707  0.0958
  517THF    H13 6721   4.783   2.420   5.463 -1.2533 -0.7814  0.1400
  518THF     O1 6722   4.161   5.312   4.186 -0.3648  0.0944 -0.3884
  518THF     C2 6723   4.267   5.354   4.278  0.1816 -0.0390 -0.0335
  518THF     C3 6724   4.216   5.253   4.073  0.0667  0.0752 -0.3275
  518THF     H4 6725   4.299   5.261   4.325 -2.4525 -0.6181  0.7690
  518THF     H5 6726   4.223   5.421   4.352 -1.9098 -1.2097 -0.1685
  518THF     H6 6727   4.225   5.145   4.062  0.9063 -0.0117  0.9618
  518THF     H7 6728   4.157   5.292   3.990 -1.7998 -1.0082  0.4459
  518THF     C8 6729   4.361   5.315   4.071 -0.2493  1.0042  0.5298
  518THF     C9 6730   4.367   5.418   4.184  0.0325  0.1650 -0.0309
  518THF    H10 6731   4.397   5.343   3.972  0.8777  2.6425  1.3555
  518THF    H11 6732   4.424   5.235   4.108  2.1498  2.1532 -0.7916
  518THF    H12 6733   4.467   5.443   4.219 -0.6453  1.4005  1.0733
  518THF    H13 6734   4.309   5.508   4.163  0.6347  0.5721  0.0244
  519THF     O1 6735   0.933   5.092   2.632 -0.2236  0.5493 -0.2433
  519THF     C2 6736   1.038   5.007   2.598 -0.5492  0.8255 -0.2676
  519THF     C3 6737   0.909   5.071   2.766 -0.7906 -0.0000 -0.6037
  519THF     H4 6738   1.081   5.020   2.499 -0.3645 -0.9166 -0.4440
  519THF     H5 6739   1.003   4.905   2.611  2.8421 -0.3680  0.7237
  519THF     H6 6740   0.844   5.145   2.812 -1.6885 -0.8719 -0.4234
  519THF     H7 6741   0.861   4.974   2.777  0.8548 -0.8981 -0.9903
  519THF     C8 6742   1.047   5.075   2.830  0.0921 -0.0031 -0.6075
  519THF     C9 6743   1.140   5.038   2.717 -0.3932  0.5256 -0.0215
  519THF    H10 6744   1.060   5.017   2.921 -0.0118 -0.2928 -0.7748
  519THF    H11 6745   1.080   5.176   2.852 -0.2248 -0.0966  0.3488
  519THF    H12 6746   1.199   5.125   2.689  1.1244  0.1357  1.7812
  519THF    H13 6747   1.212   4.956   2.725  0.7850  1.4320 -0.9334
  520THF     O1 6748   1.298   0.798   3.111  0.4155  0.2633  0.3286
  520THF     C2 6749   1.254   0.830   3.248  0.1144 -0.2106 -0.3072
  520THF     C3 6750   1.220   0.682   3.064 -0.4744 -0.3616 -0.2815
  520THF     H4 6751   1.260   0.938   3.256  0.7699 -0.2056 -0.7249
  520THF     H5 6752   1.328   0.791   3.318  0.7257 -1.4672 -1.5874
  520THF     H6 6753   1.160   0.722   2.982 -0.3268 -1.0701 -0.7463
  520THF     H7 6754   1.271   0.603   3.008 -1.5907 -1.5491  0.3245
  520THF     C8 6755   1.135   0.633   3.186 -0.3472 -0.0487 -0.1017
  520THF     C9 6756   1.120   0.754   3.272 -0.7306 -0.1720 -0.5323
  520THF    H10 6757   1.190   0.554   3.237 -0.1083  0.5439  0.5674
  520THF    H11 6758   1.033   0.601   3.163 -0.0127 -0.1882 -1.4535
  520THF    H12 6759   1.040   0.819   3.238 -0.8218 -0.3759 -0.7056
  520THF    H13 6760   1.114   0.735   3.379 -1.7352  0.9031 -0.3713
  521THF     O1 6761   1.968   2.194   2.920 -0.3094 -0.3472  0.6832
  521THF     C2 6762   1.876   2.105   2.873  0.2294  0.0421 -0.4952
  521THF     C3 6763   1.954   2.318   2.851 -0.4585  0.2434 -0.2476
  521THF     H4 6764   1.866   2.018   2.938  1.8141 -0.8143 -1.3318
  521THF     H5 6765   1.909   2.078   2.773 -0.8142 -1.0586 -0.5676
  521THF     H6 6766   2.013   2.404   2.885  2.3321 -1.2401 -0.9829
  521THF     H7 6767   2.002   2.301   2.755 -0.7698  0.3481 -0.4218
  521THF     C8 6768   1.797   2.333   2.841  0.4942  0.2084  0.5940
  521THF     C9 6769   1.749   2.183   2.861  0.7962 -0.4345 -0.2182
  521THF    H10 6770   1.770   2.378   2.746 -0.3955 -0.5208  0.4961
  521THF    H11 6771   1.774   2.399   2.925  0.4612  0.5305  0.3337
  521THF    H12 6772   1.686   2.190   2.949 -1.6693  0.6546 -1.9552
  521THF    H13 6773   1.689   2.159   2.773 -0.7502  1.2090  0.3407
  522THF     O1 6774   5.245   0.808   5.481  0.1462  0.9586 -0.4365
  522THF     C2 6775   5.328   0.758   5.591 -0.5118 -0.1630 -0.8432
  522THF     C3 6776   5.326   0.868   5.383 -0.4259  0.3203 -0.0977
  522THF     H4 6777   5.286   0.687   5.662  0.0084  0.2635 -0.0917
  522THF     H5 6778   5.380   0.836   5.647 -1.0079 -1.1084  1.0372
  522THF     H6 6779   5.267   0.884   5.293 -1.6249  2.9838  1.0337
  522THF     H7 6780   5.378   0.961   5.405 -1.2876  1.3351 -2.0646
  522THF     C8 6781   5.427   0.754   5.370 -0.4525 -0.0407 -0.5079
  522THF     C9 6782   5.434   0.684   5.508  0.4008  0.2136 -0.1915
  522THF    H10 6783   5.527   0.789   5.343 -0.0911 -0.1810  0.5996
  522THF    H11 6784   5.400   0.683   5.292 -1.3753  0.1718 -0.4016
  522THF    H12 6785   5.409   0.578   5.510  1.7622 -0.1251  0.3607
  522THF    H13 6786   5.538   0.688   5.540  0.9388 -2.6390 -1.2298
  523THF     O1 6787   1.755   3.215   5.031  0.2917  0.2947  0.5511
  523THF     C2 6788   1.648   3.297   5.045 -0.6522  0.1144 -0.0538
  523THF     C3 6789   1.723   3.077   5.042 -0.5223 -0.3135  0.3905
  523THF     H4 6790   1.667   3.379   4.975 -0.5434 -0.1501 -0.3394
  523THF     H5 6791   1.652   3.335   5.147 -0.5520  0.1131 -0.0574
  523THF     H6 6792   1.795   3.017   4.986 -1.4282 -0.9755 -0.1130
  523THF     H7 6793   1.729   3.050   5.147  1.7349  0.6668  0.5724
  523THF     C8 6794   1.580   3.069   4.986  0.3500  0.3609  0.5484
  523THF     C9 6795   1.525   3.209   5.016 -0.5224  0.2848  0.2689
  523THF    H10 6796   1.521   2.994   5.039 -0.9282  0.8577 -0.1170
  523THF    H11 6797   1.580   3.052   4.879 -1.0444  1.9409  0.2523
  523THF    H12 6798   1.471   3.252   4.932  2.5008  2.0266 -0.9372
  523THF    H13 6799   1.453   3.203   5.097 -2.3715 -1.3005 -1.3968
  524THF     O1 6800   4.880   3.992   1.105  1.1845  0.3235 -0.0839
  524THF     C2 6801   4.775   4.078   1.085 -0.6493 -0.6821 -0.4167
  524THF     C3 6802   4.988   4.078   1.124 -0.2851  0.0159  0.0023
  524THF     H4 6803   4.750   4.121   1.183  0.0571 -2.5899  0.6541
  524THF     H5 6804   4.687   4.020   1.056 -0.9711 -0.8472  0.7975
  524THF     H6 6805   4.991   4.127   1.222 -0.8307 -2.7102  1.4958
  524THF     H7 6806   5.079   4.019   1.123 -0.3249 -0.0406 -0.7270
  524THF     C8 6807   4.974   4.200   1.024 -0.4806  0.2333 -0.5104
  524THF     C9 6808   4.828   4.188   0.990 -0.2127  0.6288 -0.5647
  524THF    H10 6809   5.040   4.174   0.941 -1.8456  0.2322 -1.6358
  524THF    H11 6810   4.982   4.302   1.064 -0.1094  0.7652 -1.8693
  524THF    H12 6811   4.777   4.284   0.999  0.9432  1.3243 -1.1915
  524THF    H13 6812   4.808   4.153   0.889  0.0190 -2.1311  0.2402
  525THF     O1 6813   4.239   4.451   2.759 -0.1802 -0.3350 -0.0643
  525THF     C2 6814   4.234   4.409   2.900 -0.0888  0.5482  0.0268
  525THF     C3 6815   4.204   4.596   2.752 -0.3398  0.4007 -0.3391
  525THF     H4 6816   4.315   4.337   2.910 -0.1749  0.1882 -1.5911
  525THF     H5 6817   4.144   4.356   2.932 -0.3900  1.6331  1.0050
  525THF     H6 6818   4.237   4.646   2.660  0.7935  0.1763 -0.0773
  525THF     H7 6819   4.096   4.601   2.742 -0.4182  2.3459  0.9843
  525THF     C8 6820   4.262   4.654   2.877 -0.4113 -0.4900  0.2840
  525THF     C9 6821   4.250   4.538   2.973  0.2363  0.0464  1.0362
  525THF    H10 6822   4.209   4.745   2.904  0.7540  0.6102 -0.9582
  525THF    H11 6823   4.363   4.692   2.862 -0.5352  0.5482  1.8281
  525THF    H12 6824   4.340   4.539   3.034  1.4022  2.0224 -0.5757
  525THF    H13 6825   4.159   4.564   3.028  1.3696  1.9261  2.1368
  526THF     O1 6826   4.489   3.522   4.431 -0.7299  0.2760  0.0238
  526THF     C2 6827   4.535   3.606   4.529 -0.4789 -0.5933 -0.0351
  526THF     C3 6828   4.400   3.582   4.340  0.5355  0.5852  0.5889
  526THF     H4 6829   4.640   3.587   4.555 -0.3858  1.2625  1.1403
  526THF     H5 6830   4.471   3.586   4.614 -3.7195  1.4914 -1.7778
  526THF     H6 6831   4.434   3.588   4.236  1.9559  2.0210  1.0930
  526THF     H7 6832   4.300   3.539   4.345  1.0170 -0.5147  4.8271
  526THF     C8 6833   4.390   3.733   4.398  0.3547  0.3260  0.7715
  526THF     C9 6834   4.520   3.747   4.484  0.0779  0.2848  0.2315
  526THF    H10 6835   4.299   3.743   4.458 -0.6400 -1.6627 -0.3130
  526THF    H11 6836   4.388   3.804   4.315 -1.1042 -2.1963 -1.5405
  526THF    H12 6837   4.611   3.773   4.431  0.7588 -1.3360  0.5506
  526THF    H13 6838   4.513   3.820   4.565  0.0309  0.4877  0.0452
  527THF     O1 6839   5.433   1.600   5.289 -0.0005 -0.4997 -0.2725
  527THF     C2 6840   5.515   1.544   5.190 -0.5755  0.2906  0.8064
  527THF     C3 6841   5.472   1.562   5.420  0.2551  0.0696  0.3757
  527THF     H4 6842   5.599   1.611   5.171 -0.7570 -0.2607 -2.4999
  527THF     H5 6843   5.461   1.546   5.095  0.2936 -0.7811  0.2795
  527THF     H6 6844   5.521   1.638   5.482  1.6221 -0.1923 -0.3500
  527THF     H7 6845   5.386   1.513   5.465 -0.2132 -1.9212 -2.4319
  527THF     C8 6846   5.574   1.453   5.399 -0.2678  0.0814  0.1389
  527THF     C9 6847   5.550   1.411   5.248  0.4555  0.1137 -0.2183
  527THF    H10 6848   5.568   1.362   5.459  1.2833  0.2922  0.6586
  527THF    H11 6849   5.669   1.501   5.421  0.2805 -1.0733  0.4035
  527THF    H12 6850   5.638   1.367   5.200  2.1389  0.8216  2.0298
  527THF    H13 6851   5.472   1.335   5.251  2.0850 -1.6058  0.7550
  528THF     O1 6852   2.651   3.675   3.725  0.3728 -0.0870 -0.3730
  528THF     C2 6853   2.608   3.804   3.688  0.0769 -0.1604 -0.1777
  528THF     C3 6854   2.563   3.616   3.822  0.3648 -0.3758 -0.0200
  528THF     H4 6855   2.518   3.801   3.626 -1.0071 -0.8437  1.3514
  528THF     H5 6856   2.687   3.862   3.640  0.3996 -1.3186 -1.0947
  528THF     H6 6857   2.491   3.546   3.781 -0.0349 -0.0120  0.0603
  528THF     H7 6858   2.621   3.564   3.898 -0.1313 -2.6377 -1.1051
  528THF     C8 6859   2.492   3.735   3.882 -0.2895 -0.6341 -0.2920
  528THF     C9 6860   2.557   3.856   3.815 -0.0126  0.1604 -0.5052
  528THF    H10 6861   2.495   3.735   3.991 -0.9886  1.2434 -0.2377
  528THF    H11 6862   2.387   3.725   3.854 -0.5156  0.4908  0.1211
  528THF    H12 6863   2.494   3.944   3.803  2.0072  1.5242 -1.6020
  528THF    H13 6864   2.635   3.889   3.883 -0.7514 -1.4069  1.1987
  529THF     O1 6865   1.231   2.419   0.753 -0.1700  0.4932  0.7144
  529THF     C2 6866   1.232   2.322   0.650  0.0443  0.0979 -0.1203
  529THF     C3 6867   1.299   2.536   0.704 -0.0658  0.3341 -0.1207
  529THF     H4 6868   1.136   2.270   0.638  1.0293 -1.8125 -0.1766
  529THF     H5 6869   1.299   2.247   0.691 -0.0907  1.6776  3.3731
  529THF     H6 6870   1.238   2.620   0.735 -1.9136 -0.0213 -2.4468
  529THF     H7 6871   1.401   2.544   0.741 -0.3656  0.4883  0.6743
  529THF     C8 6872   1.296   2.527   0.551  0.1094 -0.2872 -0.9723
  529THF     C9 6873   1.309   2.376   0.528  0.2420 -0.0468  0.2605
  529THF    H10 6874   1.385   2.577   0.512  2.3288 -2.0733  1.4881
  529THF    H11 6875   1.200   2.571   0.521 -0.8560 -0.8890  1.0726
  529THF    H12 6876   1.268   2.342   0.433 -0.9080 -0.2033  0.7875
  529THF    H13 6877   1.414   2.353   0.544 -0.1911 -1.2267  1.5629
  530THF     O1 6878   4.230   0.287   0.171 -0.5665 -0.6312 -0.2477
  530THF     C2 6879   4.301   0.409   0.218 -0.1289  0.6282 -0.0894
  530THF     C3 6880   4.188   0.299   0.036  0.4616  0.1366 -0.3428
  530THF     H4 6881   4.410   0.402   0.210 -0.1664 -0.4187  0.1366
  530THF     H5 6882   4.280   0.408   0.325  1.3223  1.9359  0.2395
  530THF     H6 6883   4.268   0.312  -0.037 -1.6394  2.1432 -2.4619
  530THF     H7 6884   4.122   0.221  -0.003 -0.0526  0.3182  0.1624
  530THF     C8 6885   4.133   0.438   0.044  0.0507 -0.3405 -0.2706
  530THF     C9 6886   4.235   0.519   0.128  0.0547  0.0374  0.4875
  530THF    H10 6887   4.034   0.437   0.089 -0.0204 -0.5969 -0.4292
  530THF    H11 6888   4.129   0.480  -0.057  0.2066  1.7261  0.5353
  530THF    H12 6889   4.308   0.573   0.067  1.9011  0.3766  2.8430
  530THF    H13 6890   4.184   0.594   0.188  1.7685  0.6805  1.2052
  531THF     O1 6891   3.611   0.550   4.706  0.5969 -0.3324 -0.2728
  531THF     C2 6892   3.536   0.471   4.616 -0.0276 -0.5384 -0.6160
  531THF     C3 6893   3.537   0.572   4.829 -0.4039  0.2046 -0.3359
  531THF     H4 6894   3.586   0.440   4.524 -0.0715 -0.5554 -0.6340
  531THF     H5 6895   3.446   0.529   4.593  0.2698 -0.0739 -0.6226
  531THF     H6 6896   3.590   0.590   4.922 -3.3781  0.1221  1.5094
  531THF     H7 6897   3.466   0.655   4.819 -1.3970 -0.7068 -1.0490
  531THF     C8 6898   3.453   0.439   4.841 -0.0412 -0.4600  0.8040
  531THF     C9 6899   3.493   0.361   4.711 -0.9970  0.0774 -0.1508
  531THF    H10 6900   3.353   0.482   4.842  0.4149  0.8073 -1.2513
  531THF    H11 6901   3.478   0.389   4.934 -0.4127 -0.9784  0.6268
  531THF    H12 6902   3.576   0.293   4.729 -1.1247  0.3304  1.5376
  531THF    H13 6903   3.408   0.303   4.673 -0.9892 -0.2923  0.3867
  532THF     O1 6904   1.300   3.888   0.767 -0.3804 -0.0983 -0.3707
  532THF     C2 6905   1.417   3.946   0.831  1.0162 -0.3370  0.1120
  532THF     C3 6906   1.248   3.787   0.851  0.5529  0.2622  0.0556
  532THF     H4 6907   1.393   4.030   0.896  1.8920  0.4868 -0.6081
  532THF     H5 6908   1.488   3.969   0.752  0.3745  0.8807 -0.1242
  532THF     H6 6909   1.165   3.829   0.907  0.4272 -0.7575  0.6582
  532THF     H7 6910   1.223   3.701   0.789 -0.6446  1.3834 -1.0665
  532THF     C8 6911   1.350   3.752   0.959 -0.1417 -0.0718 -0.2710
  532THF     C9 6912   1.471   3.825   0.913 -0.4014  0.2129 -0.0852
  532THF    H10 6913   1.357   3.644   0.959 -2.2446 -0.2553 -1.0779
  532THF    H11 6914   1.328   3.795   1.056 -0.3142  0.5688 -0.5848
  532THF    H12 6915   1.545   3.846   0.990 -0.9542 -2.1098  1.1728
  532THF    H13 6916   1.525   3.758   0.846 -0.5123  1.5577 -1.5677
  533THF     O1 6917   0.028   1.885   2.565  0.3478  0.0359  0.1655
  533THF     C2 6918   0.110   1.762   2.556  0.9477 -0.0057  0.0629
  533THF     C3 6919  -0.065   1.883   2.456 -0.1230 -1.2858  0.7788
  533THF     H4 6920   0.166   1.753   2.649  1.1164  3.0115  0.3432
  533THF     H5 6921   0.183   1.786   2.479  2.1487 -0.0857  1.1512
  533THF     H6 6922  -0.152   1.946   2.473 -0.1965 -0.5507 -1.8440
  533THF     H7 6923  -0.026   1.906   2.357 -0.0562  0.8199  1.2431
  533THF     C8 6924  -0.100   1.734   2.452 -0.6906  0.7727  0.0969
  533THF     C9 6925   0.014   1.654   2.508 -0.1669 -0.5132  0.2566
  533THF    H10 6926  -0.131   1.709   2.351  1.2363 -0.5200 -0.2153
  533THF    H11 6927  -0.184   1.719   2.521 -0.1114  1.2312  0.9214
  533THF    H12 6928  -0.030   1.591   2.586 -1.1166  1.7492  1.6675
  533THF    H13 6929   0.058   1.586   2.435  0.1581  0.5039 -0.5109
  534THF     O1 6930   2.683   4.368   3.107  0.0897 -0.3130  0.0052
  534THF     C2 6931   2.716   4.225   3.094  0.1414  0.1782 -0.1477
  534THF     C3 6932   2.554   4.382   3.165 -0.0875  0.2679 -0.0951
  534THF     H4 6933   2.823   4.206   3.093 -0.3077 -2.8683  0.0416
  534THF     H5 6934   2.677   4.190   2.998 -0.6520  1.4311 -0.3164
  534THF     H6 6935   2.560   4.484   3.203  0.9517  1.2033 -2.5446
  534THF     H7 6936   2.470   4.379   3.095  0.7895 -0.2863 -1.1668
  534THF     C8 6937   2.554   4.273   3.268 -0.1137 -0.1267 -0.0110
  534THF     C9 6938   2.627   4.164   3.205 -0.0126 -0.2471 -0.6091
  534THF    H10 6939   2.450   4.247   3.289 -0.6959  1.8946 -0.1785
  534THF    H11 6940   2.595   4.308   3.363 -0.4144  0.4610 -0.0913
  534THF    H12 6941   2.689   4.111   3.277 -0.9709 -1.0593 -0.3551
  534THF    H13 6942   2.556   4.098   3.155 -1.2740 -0.0436  0.8466
  535THF     O1 6943   2.048   0.228   0.019  0.3890  0.1219 -0.5261
  535THF     C2 6944   1.938   0.321   0.017 -0.2463 -0.4997 -0.2511
  535THF     C3 6945   2.082   0.189  -0.117  0.1337  0.1183  0.1696
  535THF     H4 6946   1.963   0.424  -0.007 -1.9557  0.2909  1.1144
  535THF     H5 6947   1.893   0.331   0.116 -1.8487 -0.5454 -0.9526
  535THF     H6 6948   2.155   0.262  -0.152  1.4155  0.0272  2.4629
  535THF     H7 6949   2.121   0.089  -0.137  0.1407  0.1648 -0.0565
  535THF     C8 6950   1.946   0.190  -0.190 -0.0970 -0.6469  0.2661
  535THF     C9 6951   1.847   0.261  -0.093 -0.2878  0.6675 -0.0712
  535THF    H10 6952   1.913   0.089  -0.217  0.3530 -0.5506 -0.7097
  535THF    H11 6953   1.939   0.230  -0.291  1.2424 -0.0842  0.3664
  535THF    H12 6954   1.788   0.336  -0.145 -0.2989 -0.9823 -2.6028
  535THF    H13 6955   1.779   0.195  -0.038  0.7531  1.5899  2.4941
  536THF     O1 6956   4.084   3.108   4.561  0.6094 -0.4534 -0.4093
  536THF     C2 6957   4.069   3.045   4.433  0.4343 -0.1724  0.2980
  536THF     C3 6958   4.063   3.255   4.540  0.3220 -0.1908 -0.2485
  536THF     H4 6959   4.008   2.956   4.441 -0.6454  0.7274  3.9025
  536THF     H5 6960   4.166   3.009   4.398  0.2230  0.9804 -1.6605
  536THF     H6 6961   3.964   3.287   4.576 -0.2559 -0.5476 -1.4644
  536THF     H7 6962   4.129   3.316   4.601  1.4843 -1.0410 -0.6308
  536THF     C8 6963   4.077   3.278   4.391 -0.5683 -0.5251 -0.2327
  536THF     C9 6964   4.031   3.144   4.326 -0.5461  0.0299  0.2476
  536THF    H10 6965   4.182   3.298   4.370 -1.1044  1.6240 -1.1503
  536THF    H11 6966   4.018   3.365   4.363 -1.6727  0.1156  3.5758
  536THF    H12 6967   3.925   3.143   4.300 -0.5149  1.7413 -0.1048
  536THF    H13 6968   4.077   3.128   4.228 -1.7408  1.3929 -0.5772
  537THF     O1 6969   0.032   2.977   4.641  0.3107  0.0055 -0.2301
  537THF     C2 6970   0.082   3.042   4.525  0.1521  0.4373  0.1702
  537THF     C3 6971  -0.102   2.924   4.616 -0.4882  0.4585  0.0969
  537THF     H4 6972   0.191   3.033   4.536  0.0027 -0.7559  0.9054
  537THF     H5 6973   0.058   3.148   4.520  0.9394  0.6502  0.6116
  537THF     H6 6974  -0.117   2.827   4.664  0.0386 -0.6897 -1.9192
  537THF     H7 6975  -0.169   3.000   4.655  1.0475  1.3212  1.1315
  537THF     C8 6976  -0.111   2.911   4.466  0.4367  0.4365 -0.0437
  537THF     C9 6977   0.018   2.962   4.408  1.0560 -0.0296 -0.3323
  537THF    H10 6978  -0.198   2.955   4.416  1.8417  1.2603 -1.9002
  537THF    H11 6979  -0.113   2.803   4.452 -0.7368  0.3943  0.2929
  537THF    H12 6980   0.082   2.883   4.368  1.1263  0.2685 -0.8222
  537THF    H13 6981  -0.007   3.029   4.326  1.0841 -2.5219 -2.5128
  538THF     O1 6982   1.056   2.508   1.074 -0.3419 -0.6549  0.2984
  538THF     C2 6983   1.158   2.424   1.134  0.0633  0.0008  0.3632
  538THF     C3 6984   1.109   2.633   1.044  0.1105  0.1426 -0.2290
  538THF     H4 6985   1.226   2.390   1.057 -0.8557  0.5320 -0.7176
  538THF     H5 6986   1.129   2.337   1.193  1.2517 -0.9164 -0.3737
  538THF     H6 6987   1.126   2.640   0.937 -0.6708 -1.6329 -0.5016
  538THF     H7 6988   1.034   2.710   1.062 -1.9296 -1.1319 -2.7377
  538THF     C8 6989   1.231   2.649   1.137 -0.3296 -0.1256  0.1361
  538THF     C9 6990   1.233   2.528   1.225 -0.1242  0.0347 -0.0997
  538THF    H10 6991   1.212   2.737   1.197  0.6944  0.7299 -0.7463
  538THF    H11 6992   1.319   2.650   1.072 -0.5118 -0.1885 -0.1163
  538THF    H12 6993   1.336   2.508   1.257 -0.9831 -1.8191  1.7059
  538THF    H13 6994   1.176   2.547   1.316  0.6056 -2.6986  1.0593
  539THF     O1 6995   3.850   3.393   3.629  0.0240  0.6156 -0.3443
  539THF     C2 6996   3.813   3.262   3.667 -0.4312 -0.0575  0.0204
  539THF     C3 6997   3.737   3.478   3.645 -0.2233 -0.6933  0.5352
  539THF     H4 6998   3.803   3.271   3.776  2.8563  1.1117  0.3427
  539THF     H5 6999   3.892   3.195   3.633  0.8623  1.4918 -0.1739
  539THF     H6 7000   3.737   3.513   3.748 -1.5553  0.2842  0.2300
  539THF     H7 7001   3.732   3.558   3.571  1.1362  1.4556  2.6048
  539THF     C8 7002   3.617   3.393   3.626  0.8701 -0.6281 -0.2212
  539THF     C9 7003   3.679   3.261   3.588  0.1648  0.3165 -0.3772
  539THF    H10 7004   3.551   3.447   3.558 -0.4484  1.0311  2.2299
  539THF    H11 7005   3.560   3.406   3.718  2.0036  2.2820  0.1875
  539THF    H12 7006   3.618   3.177   3.620 -0.3141  0.8986  0.2654
  539THF    H13 7007   3.695   3.256   3.480 -0.3875  0.1219 -0.4524
  540THF     O1 7008   2.880   0.463   5.211 -0.3387  0.1421 -0.8228
  540THF     C2 7009   2.842   0.564   5.311 -0.4992  0.4037 -0.4730
  540THF     C3 7010   2.829   0.337   5.256  0.7668 -0.2199  0.0945
  540THF     H4 7011   2.854   0.667   5.278 -2.2543  1.1730  1.0986
  540THF     H5 7012   2.880   0.555   5.412 -0.1893  0.8974 -0.5425
  540THF     H6 7013   2.821   0.272   5.169  3.3953 -0.7955  0.1873
  540THF     H7 7014   2.903   0.294   5.323  2.3820 -1.0070 -2.0555
  540THF     C8 7015   2.700   0.372   5.339 -0.0868  0.2154  0.5837
  540THF     C9 7016   2.696   0.526   5.328 -0.1653  0.1706 -0.2566
  540THF    H10 7017   2.711   0.350   5.445 -0.4844  0.3026  0.6446
  540THF    H11 7018   2.612   0.323   5.298 -0.1026  2.7043 -2.7573
  540THF    H12 7019   2.636   0.550   5.240  0.0829  0.0175 -0.4680
  540THF    H13 7020   2.665   0.578   5.418  2.5843 -0.5567  1.2150
  541THF     O1 7021   2.433   0.513   4.436 -0.6443  0.1870  0.1097
  541THF     C2 7022   2.368   0.389   4.471 -0.5832 -0.4849 -0.4668
  541THF     C3 7023   2.433   0.519   4.291 -0.0581  0.8731  0.1565
  541THF     H4 7024   2.261   0.408   4.470 -0.9825 -2.1283  2.0529
  541THF     H5 7025   2.408   0.353   4.565  0.9507 -0.4941 -1.0881
  541THF     H6 7026   2.335   0.536   4.247 -1.2211 -1.8754  1.4520
  541THF     H7 7027   2.510   0.591   4.262  1.1792  0.4003  2.0829
  541THF     C8 7028   2.476   0.373   4.251 -0.5622 -0.3260 -0.0518
  541THF     C9 7029   2.409   0.288   4.357  0.0604  0.7428 -0.2307
  541THF    H10 7030   2.585   0.370   4.253 -0.5695 -0.6772 -0.1920
  541THF    H11 7031   2.444   0.364   4.147  1.7656 -2.6467 -0.6665
  541THF    H12 7032   2.323   0.227   4.329 -0.7007 -0.5485  4.0714
  541THF    H13 7033   2.475   0.206   4.387  1.6776  1.1599 -2.3893
  542THF     O1 7034   0.850   1.618   0.792 -0.1271  0.2808  0.7130
  542THF     C2 7035   0.780   1.547   0.689 -0.5669 -0.7746  0.4001
  542THF     C3 7036   0.910   1.519   0.872 -0.7497 -0.6224  0.0478
  542THF     H4 7037   0.766   1.611   0.602  1.1984  1.0990  1.4259
  542THF     H5 7038   0.684   1.514   0.727 -0.6276 -1.4147 -0.2898
  542THF     H6 7039   0.991   1.561   0.931  1.3864 -2.3544 -1.4965
  542THF     H7 7040   0.848   1.472   0.949  0.8964 -0.5784  1.4820
  542THF     C8 7041   0.969   1.420   0.766  0.1418 -0.0452  0.1639
  542THF     C9 7042   0.869   1.420   0.650  0.1928 -0.5708 -0.1734
  542THF    H10 7043   0.991   1.322   0.808  1.7376  1.6618  3.7005
  542THF    H11 7044   1.060   1.454   0.718  0.8060 -1.0850  0.6602
  542THF    H12 7045   0.909   1.454   0.555 -0.6099 -0.4041 -0.4613
  542THF    H13 7046   0.800   1.336   0.644 -2.0198  1.2215 -1.5308
  543THF     O1 7047   1.363   1.230   4.146  0.0745  0.3399  0.5170
  543THF     C2 7048   1.385   1.265   4.278  0.4183  0.0083 -0.5287
  543THF     C3 7049   1.444   1.115   4.129 -0.9382 -0.5262 -0.3971
  543THF     H4 7050   1.318   1.214   4.347  2.4366  0.1013  1.6633
  543THF     H5 7051   1.370   1.372   4.293  0.3634 -0.3025  2.2406
  543THF     H6 7052   1.391   1.038   4.183 -1.4705  1.3857  1.9821
  543THF     H7 7053   1.461   1.091   4.024 -0.6555  0.3917 -0.5764
  543THF     C8 7054   1.563   1.130   4.212  0.5693  0.5133 -0.0011
  543THF     C9 7055   1.520   1.223   4.318 -0.4366  0.1847 -0.0555
  543THF    H10 7056   1.638   1.186   4.155  1.8594 -1.9122 -0.8518
  543THF    H11 7057   1.605   1.035   4.245 -0.3588  0.7612  2.0407
  543THF    H12 7058   1.535   1.166   4.410 -1.2271 -0.1149 -0.0997
  543THF    H13 7059   1.583   1.312   4.320 -0.6017  0.3016 -0.0547
  544THF     O1 7060   2.791   2.186   2.827 -0.1213 -0.2427 -0.0605
  544THF     C2 7061   2.738   2.071   2.764 -0.1088 -0.1380 -0.2476
  544THF     C3 7062   2.675   2.261   2.865 -0.2157 -0.1183 -0.5524
  544THF     H4 7063   2.716   1.990   2.833 -1.5512 -0.0358 -0.5524
  544THF     H5 7064   2.806   2.030   2.690  1.8480  2.0157  0.2344
  544THF     H6 7065   2.638   2.211   2.954 -0.2830 -0.7529 -0.9371
  544THF     H7 7066   2.694   2.366   2.888 -2.1976  0.6858 -2.2681
  544THF     C8 7067   2.572   2.242   2.758  0.5532  0.6394 -0.5723
  544THF     C9 7068   2.607   2.110   2.699 -0.3286 -0.1935 -0.1856
  544THF    H10 7069   2.576   2.312   2.675 -1.8898 -0.6872 -1.9254
  544THF    H11 7070   2.464   2.244   2.776  0.4473  1.8971 -1.2733
  544THF    H12 7071   2.533   2.039   2.737 -0.0190 -0.1786  0.4518
  544THF    H13 7072   2.616   2.096   2.591  0.7691 -0.5856 -0.0583
  545THF     O1 7073   3.120   2.903   4.295 -0.3865 -0.3846 -0.2805
  545THF     C2 7074   3.217   2.792   4.277  0.0333  0.0201 -0.1714
  545THF     C3 7075   2.998   2.856   4.246 -0.2613 -0.0566 -0.8197
  545THF     H4 7076   3.299   2.804   4.348  0.1726 -1.3688 -0.0592
  545THF     H5 7077   3.260   2.794   4.177  0.3545  0.4222 -0.0281
  545THF     H6 7078   2.920   2.924   4.282 -0.1410  1.4629 -3.1916
  545THF     H7 7079   2.994   2.867   4.138  0.5234 -0.5258 -0.9014
  545THF     C8 7080   2.982   2.720   4.300 -0.3480  0.3740 -0.1297
  545THF     C9 7081   3.128   2.667   4.300  0.6195  0.6584 -0.0494
  545THF    H10 7082   2.903   2.657   4.260 -1.4981  1.9121 -0.4072
  545THF    H11 7083   2.942   2.743   4.399 -1.2791  2.3597 -0.9066
  545THF    H12 7084   3.150   2.604   4.387  1.7674 -0.2353 -0.9397
  545THF    H13 7085   3.135   2.594   4.219 -2.0896  1.9078 -1.5390
  546THF     O1 7086   2.895   0.920   2.371 -0.4993 -0.3584 -0.1753
  546THF     C2 7087   2.841   0.862   2.488 -0.9645  0.5231  0.4868
  546THF     C3 7088   3.041   0.914   2.370  0.0298  0.2238 -0.1765
  546THF     H4 7089   2.816   0.756   2.491  0.2792  0.2266  0.9668
  546THF     H5 7090   2.744   0.907   2.510  0.2511  3.4133  0.4193
  546THF     H6 7091   3.072   0.841   2.297  1.2154  0.7304 -0.1990
  546THF     H7 7092   3.081   1.007   2.329 -1.1349  1.6830  1.7716
  546THF     C8 7093   3.078   0.892   2.513 -0.5581 -0.3943  1.0324
  546THF     C9 7094   2.946   0.898   2.592 -0.1480 -0.3794 -1.0940
  546THF    H10 7095   3.135   0.977   2.552  0.3410 -0.8418  0.7072
  546THF    H11 7096   3.127   0.796   2.525 -1.2631 -0.9622 -0.3315
  546THF    H12 7097   2.935   0.826   2.673 -0.1827  0.4087 -0.3865
  546THF    H13 7098   2.939   0.999   2.631  0.8919 -0.5155 -0.5019
  547THF     O1 7099   2.551   3.305   0.237  0.4658  0.0430 -0.0701
  547THF     C2 7100   2.657   3.358   0.307 -0.4518 -0.0806  0.2753
  547THF     C3 7101   2.553   3.165   0.250  0.4339 -0.2140  0.1305
  547THF     H4 7102   2.644   3.407   0.404  0.5089 -0.1690  0.4584
  547THF     H5 7103   2.718   3.416   0.238 -1.7523 -1.0804 -1.8240
  547THF     H6 7104   2.450   3.128   0.245  0.2384  0.4815 -1.1805
  547THF     H7 7105   2.591   3.110   0.164  0.5905 -1.9118  1.2310
  547THF     C8 7106   2.632   3.135   0.377  0.7132  0.2959  0.2049
  547THF     C9 7107   2.744   3.230   0.356  0.3053 -0.4482  0.3228
  547THF    H10 7108   2.669   3.033   0.383 -0.0986  0.0150  0.6276
  547THF    H11 7109   2.579   3.163   0.468  1.5750  2.2008  0.1726
  547THF    H12 7110   2.794   3.249   0.451 -0.5401 -0.5986  0.8113
  547THF    H13 7111   2.809   3.205   0.272 -0.2909  2.5702 -1.1671
  548THF     O1 7112   3.924   0.656   4.546 -0.3450 -0.1208  0.0845
  548THF     C2 7113   3.879   0.602   4.421 -0.3824 -0.8658 -0.1672
  548THF     C3 7114   4.064   0.663   4.526 -0.0830 -0.3992 -0.4120
  548THF     H4 7115   3.875   0.688   4.354 -1.5110  0.1780  1.1789
  548THF     H5 7116   3.779   0.559   4.421 -0.3613 -0.9218 -0.6643
  548THF     H6 7117   4.082   0.761   4.482 -2.7017  0.8171  0.9969
  548THF     H7 7118   4.112   0.678   4.623 -0.6042  0.7838 -0.3242
  548THF     C8 7119   4.109   0.544   4.434 -0.7644 -0.3526  0.1808
  548THF     C9 7120   3.984   0.510   4.354 -0.3664 -0.1194 -0.4478
  548THF    H10 7121   4.153   0.460   4.487  1.7396  1.4937  1.2547
  548THF    H11 7122   4.195   0.576   4.376 -0.4860  0.4250  0.9891
  548THF    H12 7123   4.000   0.528   4.248  2.1805 -3.0063 -0.7103
  548THF    H13 7124   3.963   0.404   4.367 -0.0755 -0.0730  0.5125
  549THF     O1 7125   2.477   0.184   2.230  0.4698  0.2091 -0.2402
  549THF     C2 7126   2.582   0.091   2.206 -0.1770 -0.3020  0.0575
  549THF     C3 7127   2.470   0.188   2.370  0.2130 -0.0379 -0.0532
  549THF     H4 7128   2.675   0.148   2.211 -0.9017  0.7927  2.9366
  549THF     H5 7129   2.571   0.042   2.109  1.0099  1.0050 -0.7817
  549THF     H6 7130   2.530   0.275   2.396 -1.5884  1.3753 -0.3854
  549THF     H7 7131   2.367   0.210   2.401  0.0217  0.7758 -1.2076
  549THF     C8 7132   2.530   0.062   2.433  0.6975 -0.2903  0.7216
  549THF     C9 7133   2.565  -0.019   2.306 -0.4986  0.1580 -0.6579
  549THF    H10 7134   2.468   0.004   2.501  0.9348 -2.0742 -0.5146
  549THF    H11 7135   2.621   0.095   2.484  0.4835 -0.9812  1.5618
  549THF    H12 7136   2.658  -0.076   2.311 -0.9200 -0.5072 -0.3934
  549THF    H13 7137   2.479  -0.078   2.273 -0.6675 -0.1957  0.3772
  550THF     O1 7138   1.877   4.699   0.445 -0.9151  0.3685 -0.0004
  550THF     C2 7139   1.963   4.603   0.489 -0.1203 -0.5088 -0.3898
  550THF     C3 7140   1.783   4.639   0.361 -0.3894 -0.5773  0.3134
  550THF     H4 7141   1.917   4.543   0.568 -0.5871  0.6736  0.2618
  550THF     H5 7142   2.060   4.636   0.523  1.0184 -2.3586 -1.6415
  550THF     H6 7143   1.687   4.637   0.413  0.5839  1.4020  2.3581
  550THF     H7 7144   1.766   4.701   0.273 -0.3665 -0.9273  0.0607
  550THF     C8 7145   1.844   4.505   0.325  0.2317  0.2783  0.3162
  550THF     C9 7146   1.981   4.509   0.371 -0.9198  0.4575 -0.0268
  550THF    H10 7147   1.834   4.480   0.220 -0.7805  1.6765  0.0396
  550THF    H11 7148   1.794   4.431   0.388 -1.9674  1.6321  0.3021
  550THF    H12 7149   2.029   4.412   0.386  3.1512  1.9341 -2.1066
  550THF    H13 7150   2.049   4.549   0.295  1.6588 -0.7921  1.4774
  551THF     O1 7151   3.961   1.846   1.813  0.0854 -0.5883 -0.0450
  551THF     C2 7152   4.004   1.857   1.946 -0.0739 -0.1329 -0.2872
  551THF     C3 7153   3.871   1.737   1.794 -0.3098  0.7678  0.1866
  551THF     H4 7154   4.034   1.960   1.965 -1.2777  0.0718  0.6301
  551THF     H5 7155   4.084   1.785   1.962 -0.4242 -0.8055 -1.4682
  551THF     H6 7156   3.803   1.779   1.720  1.5825  3.2813 -0.2670
  551THF     H7 7157   3.931   1.661   1.745 -0.7501 -0.1609  1.0639
  551THF     C8 7158   3.823   1.697   1.933 -0.4803  0.1600 -0.4726
  551THF     C9 7159   3.888   1.806   2.028  0.2005  0.5175 -0.0390
  551THF    H10 7160   3.867   1.600   1.955  1.0162  0.9936  0.3866
  551THF    H11 7161   3.716   1.686   1.951 -0.5902  2.2034  0.3601
  551THF    H12 7162   3.833   1.897   2.054  1.1507  0.9977  0.3409
  551THF    H13 7163   3.915   1.767   2.126  1.4690 -1.2580 -1.0487
  552THF     O1 7164   2.542   5.109   1.946  0.0227  0.0681  0.1408
  552THF     C2 7165   2.660   5.160   1.891  0.7248 -0.3038  0.2378
  552THF     C3 7166   2.448   5.212   1.948  0.1465 -0.2600 -0.5060
  552THF     H4 7167   2.713   5.089   1.828  0.2305  0.7006 -1.3834
  552THF     H5 7168   2.718   5.191   1.978  1.2967 -2.2512  0.6024
  552THF     H6 7169   2.343   5.184   1.958  0.3462 -0.5451  1.2666
  552THF     H7 7170   2.464   5.274   2.037 -0.6458  1.1230 -1.2884
  552THF     C8 7171   2.470   5.294   1.827  0.2614  0.2076  0.0709
  552THF     C9 7172   2.617   5.271   1.803 -0.3226 -0.3961  0.6887
  552THF    H10 7173   2.455   5.402   1.837  1.8401  0.5430 -0.8860
  552THF    H11 7174   2.414   5.256   1.741  1.0754 -2.5785  0.6630
  552THF    H12 7175   2.643   5.239   1.702 -0.1656 -0.6993  0.8238
  552THF    H13 7176   2.680   5.358   1.819 -0.7894 -0.1375  1.1404
  553THF     O1 7177   4.982   2.849   4.677 -0.4826 -0.4149  0.4128
  553THF     C2 7178   4.935   2.723   4.716 -0.6144 -0.0384 -0.3458
  553THF     C3 7179   4.998   2.924   4.795  0.5089 -0.5587 -0.0968
  553THF     H4 7180   4.942   2.656   4.630  0.0513  0.9867 -1.1029
  553THF     H5 7181   4.827   2.732   4.731 -0.4414  1.8655  0.0343
  553THF     H6 7182   5.055   3.013   4.771 -1.4544  1.3181  1.8109
  553THF     H7 7183   4.902   2.954   4.837  1.3067  1.4918  0.3373
  553THF     C8 7184   5.070   2.824   4.891  0.1816  0.6392  0.4084
  553THF     C9 7185   5.011   2.686   4.842  0.5946  0.3264  0.4966
  553THF    H10 7186   5.036   2.842   4.993 -0.2500 -0.2014  0.4272
  553THF    H11 7187   5.179   2.834   4.882  0.3725 -0.4340  1.2333
  553THF    H12 7188   5.074   2.606   4.804 -0.1642 -0.0552  0.0167
  553THF    H13 7189   4.944   2.631   4.907 -0.0199 -0.7765 -1.0215
  554THF     O1 7190   0.042   3.579   0.986 -0.2772  0.9454 -0.6256
  554THF     C2 7191  -0.039   3.524   1.091  0.7326 -0.5544 -0.1328
  554THF     C3 7192   0.139   3.480   0.952  1.0422  0.1593 -0.5158
  554THF     H4 7193  -0.135   3.571   1.113  0.4317 -1.4037  0.4117
  554THF     H5 7194   0.016   3.515   1.184  1.4914  2.0943 -0.2637
  554THF     H6 7195   0.199   3.507   0.866  0.2172  1.1079 -0.8223
  554THF     H7 7196   0.207   3.460   1.035  0.0830 -0.5681  0.1161
  554THF     C8 7197   0.054   3.359   0.932 -0.2655  0.0939  0.4587
  554THF     C9 7198  -0.064   3.379   1.036 -0.4415  0.0860 -0.0326
  554THF    H10 7199   0.119   3.273   0.943  2.1635  1.4602 -1.9609
  554THF    H11 7200   0.018   3.342   0.830  1.6619 -0.4706 -0.1602
  554THF    H12 7201  -0.163   3.377   0.991 -0.7046 -0.7942  0.5444
  554THF    H13 7202  -0.069   3.314   1.123 -2.8038  1.1111  0.6853
  555THF     O1 7203   3.776   0.450   1.440 -0.4664  0.4813 -0.4589
  555THF     C2 7204   3.789   0.321   1.373 -0.7834  0.2879  0.5837
  555THF     C3 7205   3.707   0.536   1.349  0.4561  0.5490 -0.2341
  555THF     H4 7206   3.695   0.269   1.363 -1.6559  1.5258  1.9986
  555THF     H5 7207   3.860   0.250   1.414  0.0801  0.8129  0.0534
  555THF     H6 7208   3.602   0.509   1.364  1.0166 -0.3938  2.9389
  555THF     H7 7209   3.727   0.637   1.383 -1.1280  0.2194  1.9310
  555THF     C8 7210   3.765   0.500   1.214 -0.4692  0.0026 -0.7263
  555THF     C9 7211   3.834   0.368   1.235  0.1802 -0.6707  0.2861
  555THF    H10 7212   3.840   0.570   1.177  0.2401  0.3625  1.2579
  555THF    H11 7213   3.692   0.505   1.134 -2.4146  0.5230  0.9999
  555THF    H12 7214   3.810   0.294   1.158  1.3623 -0.4650 -0.3008
  555THF    H13 7215   3.941   0.388   1.236  0.1882 -0.7261  0.9280
  556THF     O1 7216   3.218   2.531   0.349  0.0604  0.3413 -0.2886
  556THF     C2 7217   3.184   2.451   0.460  1.1842 -0.2547 -0.1976
  556THF     C3 7218   3.241   2.443   0.241 -0.9787  0.0402 -0.3480
  556THF     H4 7219   3.082   2.419   0.439  0.9725  1.4769 -2.1563
  556THF     H5 7220   3.176   2.509   0.552 -2.0504 -0.2214 -0.3954
  556THF     H6 7221   3.148   2.419   0.191 -0.1621 -2.5494 -0.7659
  556THF     H7 7222   3.317   2.479   0.172 -0.8427  1.8277  0.6757
  556THF     C8 7223   3.304   2.316   0.303  0.0471 -0.4171 -0.6888
  556THF     C9 7224   3.276   2.338   0.454 -0.5571  0.2868 -0.2255
  556THF    H10 7225   3.411   2.311   0.285  0.3507 -0.9997  1.1265
  556THF    H11 7226   3.255   2.223   0.275  1.4342 -1.6610  0.8335
  556THF    H12 7227   3.238   2.243   0.492 -0.5576  0.4191  0.1113
  556THF    H13 7228   3.371   2.372   0.496 -0.8757  0.6411  0.2147
  557THF     O1 7229   4.301   1.031   2.751  0.2957 -0.4717  0.1911
  557THF     C2 7230   4.186   1.107   2.719 -0.5915 -0.1893 -0.2238
  557THF     C3 7231   4.365   0.989   2.631 -1.2945 -0.6042  0.3417
  557THF     H4 7232   4.205   1.212   2.744  0.6312 -0.3929 -0.2775
  557THF     H5 7233   4.099   1.073   2.776 -0.0512  0.2052  0.8776
  557THF     H6 7234   4.437   1.067   2.607 -2.1208 -0.2009 -0.9660
  557THF     H7 7235   4.411   0.892   2.651  2.1673  1.0911  1.3658
  557THF     C8 7236   4.258   0.995   2.523  0.6571 -0.5858  0.0390
  557THF     C9 7237   4.170   1.117   2.566  0.3355  0.4451 -0.0844
  557THF    H10 7238   4.198   0.905   2.539 -3.6294  2.2088  1.4372
  557THF    H11 7239   4.315   1.003   2.431  0.5679  0.5991  0.0765
  557THF    H12 7240   4.212   1.207   2.523 -0.1730  0.5263 -0.4252
  557THF    H13 7241   4.068   1.118   2.525  0.9281 -0.3497 -1.6560
  558THF     O1 7242   0.931   2.268   2.577 -0.5862 -0.1040  0.6615
  558THF     C2 7243   0.995   2.174   2.663 -0.0560  0.0485 -0.1212
  558THF     C3 7244   0.859   2.361   2.657  0.9320 -0.2335  0.2921
  558THF     H4 7245   1.080   2.122   2.617  0.2815  1.9821 -1.8286
  558THF     H5 7246   0.925   2.096   2.695 -0.0169 -0.2239 -0.6772
  558THF     H6 7247   0.834   2.455   2.608 -1.8968 -1.4736 -0.8777
  558THF     H7 7248   0.762   2.319   2.684 -0.4527  0.5297 -2.9929
  558THF     C8 7249   0.938   2.377   2.782 -0.3405  0.2657  0.7999
  558THF     C9 7250   1.036   2.257   2.783  0.3021 -0.3548  0.1429
  558THF    H10 7251   0.879   2.354   2.870 -0.8007 -2.9486 -0.2437
  558THF    H11 7252   0.996   2.467   2.804  1.0658 -0.6094  0.8076
  558THF    H12 7253   1.137   2.288   2.757  0.2409 -0.5040 -0.2921
  558THF    H13 7254   1.033   2.183   2.863  0.8205 -0.9699 -0.4003
  559THF     O1 7255   2.119   2.617   1.455  0.1754 -0.2820 -0.3999
  559THF     C2 7256   2.064   2.726   1.526  0.2545 -0.0854  0.6200
  559THF     C3 7257   2.254   2.643   1.432 -0.2703  0.8568 -0.6679
  559THF     H4 7258   2.018   2.697   1.620 -1.2236  0.5316  0.1079
  559THF     H5 7259   1.990   2.781   1.468 -0.1488  0.2787  1.4649
  559THF     H6 7260   2.308   2.549   1.437  0.5851  1.4046  2.7763
  559THF     H7 7261   2.267   2.683   1.331 -0.2016 -0.4530 -1.1986
  559THF     C8 7262   2.297   2.742   1.537  0.7816  0.4505  0.3650
  559THF     C9 7263   2.166   2.831   1.550 -0.5847 -0.4099  0.4271
  559THF    H10 7264   2.389   2.795   1.511  0.2176  1.9644  1.3079
  559THF    H11 7265   2.316   2.683   1.626 -0.8966 -0.7684 -0.0415
  559THF    H12 7266   2.165   2.867   1.654  2.8873 -0.7675  0.7256
  559THF    H13 7267   2.178   2.912   1.478 -0.8093 -1.0108 -0.2851
  560THF     O1 7268   4.216   5.385   2.525 -0.5740  0.0906 -0.1173
  560THF     C2 7269   4.299   5.269   2.513  0.0376  0.2920  0.0316
  560THF     C3 7270   4.110   5.362   2.431  0.3680  0.4083  0.0297
  560THF     H4 7271   4.240   5.192   2.562  0.3371  1.3245  2.1131
  560THF     H5 7272   4.395   5.285   2.561 -0.7465  1.3236  1.3133
  560THF     H6 7273   4.036   5.290   2.466  2.2522 -0.2179  3.1718
  560THF     H7 7274   4.056   5.455   2.414 -1.5924 -0.9182 -1.4225
  560THF     C8 7275   4.174   5.307   2.302 -0.0563  0.1227 -0.0389
  560THF     C9 7276   4.308   5.246   2.358  0.1135 -0.2996 -0.5518
  560THF    H10 7277   4.211   5.393   2.246 -0.1516 -0.4493 -1.0066
  560THF    H11 7278   4.119   5.243   2.234 -0.2857  1.3990 -1.1027
  560THF    H12 7279   4.317   5.140   2.332 -0.2719 -0.8368  1.3725
  560THF    H13 7280   4.393   5.304   2.322  0.0435  0.2633  0.1839
  561THF     O1 7281   1.816   4.609   4.436  0.0467  0.0973  0.3134
  561THF     C2 7282   1.684   4.634   4.488 -0.6328 -0.2045  0.3133
  561THF     C3 7283   1.910   4.624   4.542 -0.2484  0.0787  0.4010
  561THF     H4 7284   1.616   4.568   4.435  0.3986 -1.7035  0.7801
  561THF     H5 7285   1.656   4.740   4.495  2.1662  0.6380 -0.2019
  561THF     H6 7286   2.001   4.569   4.518 -0.8835 -1.5924  1.6412
  561THF     H7 7287   1.934   4.730   4.546  0.7210 -0.0834 -0.4666
  561THF     C8 7288   1.837   4.563   4.661 -0.2366 -0.2966 -0.5690
  561THF     C9 7289   1.693   4.575   4.636  0.7583 -0.4193  0.0282
  561THF    H10 7290   1.871   4.623   4.745  0.4286 -0.6426 -0.5826
  561THF    H11 7291   1.862   4.457   4.661 -0.8382 -0.4711  1.6257
  561THF    H12 7292   1.647   4.476   4.640 -1.0386  0.3964  0.6887
  561THF    H13 7293   1.645   4.644   4.705 -2.6136 -2.5393  0.0462
  562THF     O1 7294   1.410   3.078   1.281  0.4257 -0.4746  0.2941
  562THF     C2 7295   1.341   2.959   1.265  0.2291 -0.2180  0.2933
  562THF     C3 7296   1.533   3.055   1.335 -0.0281 -0.0596 -0.4313
  562THF     H4 7297   1.368   2.909   1.172  0.3417 -1.1079  0.7884
  562THF     H5 7298   1.233   2.967   1.263  0.1078 -0.7011  2.4215
  562THF     H6 7299   1.603   3.035   1.254  0.4649 -2.6965  0.5615
  562THF     H7 7300   1.586   3.131   1.393  1.4452 -2.0630  0.9861
  562THF     C8 7301   1.516   2.936   1.426  0.4906 -0.1937 -0.4442
  562THF     C9 7302   1.381   2.873   1.379 -0.3395 -0.3505  0.2001
  562THF    H10 7303   1.511   2.964   1.531 -0.5564  3.5838 -1.3137
  562THF    H11 7304   1.593   2.862   1.406  0.9998  0.7327 -2.1058
  562THF    H12 7305   1.412   2.780   1.331  1.2503  0.4050 -0.2997
  562THF    H13 7306   1.310   2.866   1.462 -1.6715  1.9581 -0.6715
  563THF     O1 7307   5.276   5.424   1.394  0.0371  0.3600  0.2236
  563THF     C2 7308   5.298   5.367   1.259  0.5260  0.9670 -0.4435
  563THF     C3 7309   5.250   5.315   1.483 -0.0912 -0.1258  0.3855
  563THF     H4 7310   5.405   5.346   1.254  0.1888 -1.1108  0.2835
  563THF     H5 7311   5.261   5.434   1.182 -1.2555  1.4777  0.8057
  563THF     H6 7312   5.340   5.265   1.518 -0.7037 -2.2025 -0.8740
  563THF     H7 7313   5.202   5.359   1.570 -2.5140  0.2389 -1.0271
  563THF     C8 7314   5.168   5.221   1.410 -0.3994 -0.0920 -0.3780
  563THF     C9 7315   5.212   5.236   1.269 -0.5276  0.2750  0.3839
  563THF    H10 7316   5.066   5.254   1.391 -0.8779 -0.2813  1.6485
  563THF    H11 7317   5.176   5.121   1.454 -2.7283 -0.7364 -1.2652
  563THF    H12 7318   5.267   5.151   1.229 -0.3097 -0.9349  3.0410
  563THF    H13 7319   5.126   5.238   1.202  0.2641 -0.3229 -0.6830
  564THF     O1 7320   5.171   4.959   4.759 -0.0413  0.1167  0.1766
  564THF     C2 7321   5.148   4.958   4.622 -0.1228 -0.4037  0.2815
  564THF     C3 7322   5.051   4.960   4.829 -0.3374  0.0420 -0.1536
  564THF     H4 7323   5.245   4.934   4.580  0.4462  0.6611  0.9213
  564THF     H5 7324   5.107   5.055   4.593  1.5197 -0.2295 -1.6076
  564THF     H6 7325   5.077   4.908   4.922  0.4718  0.9102  0.1278
  564THF     H7 7326   5.024   5.066   4.835  0.1630  0.1087  1.3944
  564THF     C8 7327   4.952   4.889   4.737  1.0101 -0.3700  0.4894
  564THF     C9 7328   5.032   4.854   4.617  0.1053 -0.6992  0.7284
  564THF    H10 7329   4.879   4.966   4.712 -0.0493 -1.7013 -0.6102
  564THF    H11 7330   4.900   4.812   4.793  0.9552 -0.3504  0.4655
  564THF    H12 7331   5.064   4.750   4.613 -0.3818 -0.8330 -2.2406
  564THF    H13 7332   4.977   4.858   4.523  0.2587 -0.7847  0.6338
  565THF     O1 7333   0.780   1.868   4.515 -0.0292 -0.2963  0.3257
  565THF     C2 7334   0.747   1.980   4.594 -0.3033 -0.2610  0.0921
  565THF     C3 7335   0.658   1.796   4.507 -0.1331 -0.0937  0.6025
  565THF     H4 7336   0.690   2.060   4.546  0.8063  1.0793  0.9044
  565THF     H5 7337   0.841   2.023   4.631 -0.2225  0.5532 -0.9946
  565THF     H6 7338   0.605   1.825   4.416  4.0307  1.8151 -1.5252
  565THF     H7 7339   0.684   1.692   4.490 -0.2378 -0.2126  1.1476
  565THF     C8 7340   0.577   1.814   4.635  0.2135 -0.2640  0.2134
  565THF     C9 7341   0.662   1.920   4.701  0.6559  0.2448 -0.1609
  565THF    H10 7342   0.580   1.717   4.684 -0.9525  0.0458  0.9324
  565THF    H11 7343   0.474   1.850   4.636  0.8514  1.7099 -0.1657
  565THF    H12 7344   0.600   1.991   4.757  1.3431  0.1362  0.7573
  565THF    H13 7345   0.735   1.875   4.768  2.1758 -1.0240 -2.5651
  566THF     O1 7346   1.547   2.775   2.103 -0.0528 -0.0059 -0.1940
  566THF     C2 7347   1.425   2.703   2.098 -0.0702  0.1294  0.8889
  566THF     C3 7348   1.639   2.715   2.014 -0.1104  0.1658 -1.0168
  566THF     H4 7349   1.335   2.757   2.125 -1.7159 -2.3401  0.6341
  566THF     H5 7350   1.418   2.620   2.167 -1.5439 -1.1257 -0.6862
  566THF     H6 7351   1.731   2.774   2.007  0.8047 -0.6191  2.5603
  566THF     H7 7352   1.662   2.618   2.059 -2.4544 -0.9315 -2.0647
  566THF     C8 7353   1.548   2.694   1.888 -0.7228 -0.4796 -0.0768
  566THF     C9 7354   1.415   2.662   1.949  0.3759  0.0733 -0.1589
  566THF    H10 7355   1.588   2.624   1.815 -1.3634  0.0675 -0.9674
  566THF    H11 7356   1.550   2.789   1.834  1.9984  0.2016  1.0585
  566THF    H12 7357   1.330   2.693   1.887  0.4065 -0.6723 -0.5819
  566THF    H13 7358   1.415   2.554   1.939  1.8092  0.0863 -0.5079
  567THF     O1 7359   1.113   0.744   0.677  0.3522 -0.2964  0.1168
  567THF     C2 7360   1.175   0.715   0.559 -0.2815 -0.2721  0.6312
  567THF     C3 7361   1.164   0.668   0.789  0.2754 -0.7105 -0.1573
  567THF     H4 7362   1.196   0.795   0.488  1.7495 -1.3260 -0.0213
  567THF     H5 7363   1.121   0.633   0.513  0.6550 -1.3376  1.3862
  567THF     H6 7364   1.171   0.728   0.879  0.4731 -1.0606  0.0626
  567THF     H7 7365   1.092   0.588   0.803  0.8981 -1.4170 -0.8373
  567THF     C8 7366   1.297   0.609   0.750  0.2913 -0.1247 -0.4738
  567THF     C9 7367   1.315   0.666   0.610  0.3069  0.2124 -0.4634
  567THF    H10 7368   1.290   0.501   0.733 -0.3199 -0.2971  0.7516
  567THF    H11 7369   1.377   0.624   0.822 -0.7579 -1.9310  1.1579
  567THF    H12 7370   1.388   0.747   0.607  0.6847 -0.0785  0.3711
  567THF    H13 7371   1.354   0.587   0.546 -2.5122 -0.6642 -1.2249
  568THF     O1 7372   1.731   4.420   1.037 -0.1042 -0.0393 -0.2827
  568THF     C2 7373   1.812   4.439   0.918 -0.1479 -0.0027 -0.1439
  568THF     C3 7374   1.690   4.548   1.083 -0.0780 -0.2578  0.3699
  568THF     H4 7375   1.757   4.391   0.836  1.7906 -1.8378 -0.4448
  568THF     H5 7376   1.907   4.387   0.931  1.8693  3.1018 -1.3697
  568THF     H6 7377   1.585   4.555   1.054 -0.3981 -0.4351  1.4625
  568THF     H7 7378   1.713   4.553   1.190 -2.1232  0.9014  0.7976
  568THF     C8 7379   1.776   4.650   1.012  0.6085 -0.6031  0.1883
  568THF     C9 7380   1.849   4.582   0.898  0.3834  0.5142 -0.0415
  568THF    H10 7381   1.847   4.673   1.091 -0.0750  1.4903  0.2463
  568THF    H11 7382   1.725   4.742   0.982 -0.4318 -1.2282  0.0072
  568THF    H12 7383   1.820   4.629   0.804  0.5530  0.6799 -0.0116
  568THF    H13 7384   1.958   4.585   0.902  0.4720 -1.9530  1.1078
  569THF     O1 7385   0.220   0.835   1.734  0.0544 -0.1505  0.0736
  569THF     C2 7386   0.291   0.859   1.607 -0.0342 -0.8178 -0.0360
  569THF     C3 7387   0.088   0.818   1.704 -0.0524 -0.5688  0.4684
  569THF     H4 7388   0.393   0.822   1.597  0.4720  0.6789 -0.7863
  569THF     H5 7389   0.297   0.966   1.584  2.3905 -0.6134  1.2459
  569THF     H6 7390   0.075   0.720   1.749  0.5154 -0.1726  1.5343
  569THF     H7 7391   0.025   0.887   1.762  0.8912 -0.7383  1.7406
  569THF     C8 7392   0.062   0.822   1.553  0.0836 -0.4966 -0.2073
  569THF     C9 7393   0.194   0.782   1.506 -1.1445  0.0688 -0.3067
  569THF    H10 7394   0.029   0.911   1.499  1.9784 -0.2933 -1.1312
  569THF    H11 7395  -0.004   0.738   1.532  0.2752 -1.1783  1.6960
  569THF    H12 7396   0.211   0.675   1.515  0.8619  0.4682  1.2913
  569THF    H13 7397   0.216   0.817   1.405 -0.2191 -0.8028 -0.4234
  570THF     O1 7398   2.230   4.292   1.243  0.4065 -0.3099  0.2000
  570THF     C2 7399   2.163   4.212   1.143  0.1730 -0.4614  0.0174
  570THF     C3 7400   2.284   4.190   1.325 -0.3939  0.1155 -0.0736
  570THF     H4 7401   2.240   4.165   1.082  0.6329 -1.9591  1.6640
  570THF     H5 7402   2.100   4.272   1.077  1.0738 -0.5471 -0.9528
  570THF     H6 7403   2.359   4.137   1.268 -2.2696 -1.4961 -1.1826
  570THF     H7 7404   2.330   4.230   1.415  0.8507 -0.3545 -0.4877
  570THF     C8 7405   2.160   4.102   1.355  0.3426 -0.2689  0.1137
  570THF     C9 7406   2.082   4.117   1.223  0.4962 -0.6848  0.6293
  570THF    H10 7407   2.092   4.135   1.433  0.9862  0.5396  0.3475
  570THF    H11 7408   2.187   4.003   1.393 -1.1483 -0.5344  0.5254
  570THF    H12 7409   2.084   4.027   1.162 -0.7361 -0.1754 -0.2053
  570THF    H13 7410   1.979   4.149   1.238  1.7939  3.4669  2.3080
  571THF     O1 7411   4.477   5.016   5.328 -0.0272 -0.1043 -0.1359
  571THF     C2 7412   4.400   5.134   5.359  0.6708  0.2872  0.0808
  571THF     C3 7413   4.613   5.032   5.375  0.0232 -0.2421 -0.3130
  571THF     H4 7414   4.299   5.097   5.374  1.0941 -2.1285 -2.2309
  571THF     H5 7415   4.399   5.199   5.272 -1.7150  0.9396  0.5483
  571THF     H6 7416   4.650   4.955   5.441  0.6534  0.9827  0.7987
  571THF     H7 7417   4.675   5.036   5.286 -1.0652 -2.3893 -1.2559
  571THF     C8 7418   4.610   5.159   5.458 -0.5826 -0.1314  0.2466
  571THF     C9 7419   4.465   5.194   5.483  0.0011 -0.1039  0.2924
  571THF    H10 7420   4.654   5.240   5.400 -1.3066  2.4771  3.0213
  571THF    H11 7421   4.678   5.158   5.543 -0.3431 -4.9097  0.2177
  571THF    H12 7422   4.438   5.144   5.576 -0.1094  2.3002  1.6256
  571THF    H13 7423   4.454   5.302   5.499  1.6563  0.3577 -1.3839
  572THF     O1 7424   5.337   2.197   4.214 -0.2729 -0.4344  0.1688
  572THF     C2 7425   5.317   2.128   4.335 -0.1047 -0.1994 -0.0490
  572THF     C3 7426   5.209   2.257   4.195  0.1553  0.4510  0.0960
  572THF     H4 7427   5.297   2.200   4.414  1.1055  0.1792 -0.0558
  572THF     H5 7428   5.402   2.072   4.374 -0.1956  0.3846  1.0277
  572THF     H6 7429   5.197   2.341   4.264  0.1617 -0.2607  0.9818
  572THF     H7 7430   5.196   2.280   4.090  1.6154  0.0130 -0.2059
  572THF     C8 7431   5.098   2.150   4.223 -0.7851  1.1071 -0.6418
  572THF     C9 7432   5.188   2.050   4.311  0.0310 -0.3572 -0.7406
  572THF    H10 7433   5.049   2.097   4.141 -1.3145 -0.6283  0.7452
  572THF    H11 7434   5.023   2.202   4.282  0.0207  1.5955 -0.0249
  572THF    H12 7435   5.140   2.041   4.408  2.3183 -0.8374  0.3966
  572THF    H13 7436   5.196   1.951   4.266 -0.2984  0.6321 -3.1431
  573THF     O1 7437   5.456   0.202   1.265 -0.0386 -0.0563 -0.3408
  573THF     C2 7438   5.557   0.106   1.233  0.4037 -0.3428 -0.0169
  573THF     C3 7439   5.489   0.335   1.238  0.5434 -0.3460 -0.2684
  573THF     H4 7440   5.531   0.072   1.132 -2.4100 -0.6043  0.6975
  573THF     H5 7441   5.567   0.030   1.310 -0.9103  0.0014  0.5199
  573THF     H6 7442   5.432   0.356   1.148 -0.3527 -3.7085 -0.6137
  573THF     H7 7443   5.452   0.400   1.318 -0.7776 -1.8897  0.4215
  573THF     C8 7444   5.633   0.342   1.203  0.0270  0.1263 -1.4660
  573THF     C9 7445   5.673   0.202   1.238  0.8376 -0.5550 -0.8437
  573THF    H10 7446   5.688   0.404   1.274  0.7791 -0.3689 -1.6056
  573THF    H11 7447   5.647   0.362   1.097 -1.0978 -1.0023 -1.8585
  573THF    H12 7448   5.746   0.161   1.168  1.5312  2.4014 -1.9878
  573THF    H13 7449   5.720   0.202   1.336 -3.2276 -1.4318  1.3156
  574THF     O1 7450   0.034   0.440   3.915  0.3653 -0.1556  0.3319
  574THF     C2 7451  -0.051   0.508   4.005  0.1122 -0.0826  0.6417
  574THF     C3 7452   0.157   0.417   3.990  0.0357 -0.0334 -0.3725
  574THF     H4 7453  -0.076   0.437   4.083  1.8712 -3.2870 -1.4644
  574THF     H5 7454  -0.133   0.542   3.941  0.4549 -2.0421 -0.9373
  574THF     H6 7455   0.139   0.342   4.067  1.8566 -1.9492 -1.6864
  574THF     H7 7456   0.241   0.381   3.929  0.4026 -0.6082  0.4538
  574THF     C8 7457   0.178   0.558   4.043 -0.3218 -0.3214 -0.0914
  574THF     C9 7458   0.041   0.619   4.069 -0.4239  0.5529 -0.5749
  574THF    H10 7459   0.232   0.617   3.968 -1.0863 -0.5592 -0.8503
  574THF    H11 7460   0.250   0.552   4.124  0.3323 -0.5905 -0.6771
  574THF    H12 7461   0.015   0.631   4.174 -1.5522  1.7681 -0.9778
  574THF    H13 7462   0.032   0.720   4.030  1.2678  1.0673  0.2485
  575THF     O1 7463   4.111   2.089   2.778  0.4024  0.7761  0.4096
  575THF     C2 7464   4.175   2.151   2.879  0.1104  0.0718 -0.2656
  575THF     C3 7465   4.096   1.948   2.814  0.4327  0.0217  0.1881
  575THF     H4 7466   4.100   2.170   2.955 -0.0294  2.8499 -0.9748
  575THF     H5 7467   4.213   2.249   2.850  3.3273 -1.1272 -0.4451
  575THF     H6 7468   4.007   1.933   2.875 -0.0449  1.2595 -0.1584
  575THF     H7 7469   4.082   1.891   2.722  0.7774 -1.8590  1.2450
  575THF     C8 7470   4.223   1.928   2.903 -0.9746  0.3238 -0.3504
  575THF     C9 7471   4.289   2.065   2.909 -0.2361  0.2468  0.0393
  575THF    H10 7472   4.299   1.865   2.858 -3.6951 -3.5763 -0.0002
  575THF    H11 7473   4.202   1.879   2.998 -0.2873 -1.0530 -0.8863
  575THF    H12 7474   4.340   2.099   2.999  0.0558 -0.5296  0.1780
  575THF    H13 7475   4.358   2.086   2.827 -0.5648  0.1288 -0.2663
  576THF     O1 7476   4.224   2.268   4.947 -0.9968 -0.3409  0.0535
  576THF     C2 7477   4.169   2.400   4.925 -0.0547 -0.9020 -0.1269
  576THF     C3 7478   4.357   2.271   4.997 -0.2355 -0.3405  0.2795
  576THF     H4 7479   4.125   2.441   5.016  1.8937 -2.9946  1.8737
  576THF     H5 7480   4.085   2.390   4.855  0.4188 -1.1185 -0.6759
  576THF     H6 7481   4.349   2.280   5.105 -0.4493  0.6499  0.1926
  576THF     H7 7482   4.409   2.180   4.968  2.3556  1.1628 -0.1402
  576THF     C8 7483   4.416   2.394   4.922  0.0703  0.4765 -0.1758
  576THF     C9 7484   4.290   2.474   4.867  0.2185 -0.1038  0.0264
  576THF    H10 7485   4.468   2.365   4.831 -2.7977  0.3852 -1.9248
  576THF    H11 7486   4.477   2.457   4.985  0.2653 -1.3121  1.5261
  576THF    H12 7487   4.285   2.579   4.897  0.8372  0.1480 -0.7130
  576THF    H13 7488   4.289   2.472   4.758  1.1838 -0.3725  0.0082
  577THF     O1 7489   3.945   3.651   2.067 -0.2962 -0.8075 -0.2933
  577THF     C2 7490   3.951   3.543   1.979  0.1614 -0.3501 -0.0276
  577THF     C3 7491   3.893   3.769   2.002  0.3143 -0.3742  0.4260
  577THF     H4 7492   3.905   3.454   2.022  0.9980 -1.6137 -1.6329
  577THF     H5 7493   4.049   3.506   1.948  0.0525  0.8158 -1.9333
  577THF     H6 7494   3.846   3.828   2.081  0.2274 -0.7844  0.6811
  577THF     H7 7495   3.967   3.831   1.952 -1.1988  0.7671 -0.4813
  577THF     C8 7496   3.796   3.713   1.899 -0.1512 -0.3205 -0.9555
  577THF     C9 7497   3.864   3.584   1.856 -0.3639  0.0608  0.1234
  577THF    H10 7498   3.791   3.786   1.819 -2.5728 -1.2430 -1.7266
  577THF    H11 7499   3.699   3.702   1.948  1.0795  2.4849  2.5939
  577THF    H12 7500   3.795   3.505   1.828  0.2342 -0.8131  1.0396
  577THF    H13 7501   3.917   3.623   1.769 -3.2717  1.7846 -1.0210
  578THF     O1 7502   2.241   5.219   5.120  0.3937 -0.0595 -0.7021
  578THF     C2 7503   2.276   5.335   5.042 -0.1955 -0.2581  0.0486
  578THF     C3 7504   2.098   5.212   5.133  0.3852 -0.4627  0.4194
  578THF     H4 7505   2.278   5.309   4.936 -0.4704  3.2234 -0.9448
  578THF     H5 7506   2.377   5.371   5.061 -0.3097  0.8536 -1.2845
  578THF     H6 7507   2.060   5.138   5.062  1.9941 -0.9529  0.0317
  578THF     H7 7508   2.089   5.193   5.240 -1.2095  1.4843  0.6868
  578THF     C8 7509   2.046   5.348   5.077  0.3719  0.2008  0.7959
  578THF     C9 7510   2.168   5.437   5.058  0.3737 -0.1552  0.0498
  578THF    H10 7511   1.960   5.387   5.132 -1.1492 -1.0089 -0.6240
  578THF    H11 7512   1.990   5.330   4.985  1.8488 -0.8631  0.0506
  578THF    H12 7513   2.178   5.509   4.976  1.3250 -0.4226 -0.0837
  578THF    H13 7514   2.172   5.497   5.149 -2.9278 -0.3507  0.4653
  579THF     O1 7515   3.201   4.584   5.050  0.2474  0.2320  0.1520
  579THF     C2 7516   3.305   4.489   5.069 -0.3232 -0.6099 -0.3792
  579THF     C3 7517   3.179   4.587   4.906  0.0825 -0.0275  0.1578
  579THF     H4 7518   3.259   4.414   5.133 -0.4718  2.0141  2.8651
  579THF     H5 7519   3.397   4.531   5.108 -1.7358 -0.2104  2.8865
  579THF     H6 7520   3.073   4.609   4.891 -0.3632 -2.0717 -0.1221
  579THF     H7 7521   3.248   4.649   4.850 -0.7891  1.1219  0.3249
  579THF     C8 7522   3.213   4.451   4.857 -0.2045  0.0314  0.7266
  579THF     C9 7523   3.336   4.421   4.933  0.0899 -0.9126 -0.6600
  579THF    H10 7524   3.223   4.444   4.749 -0.0324  0.3341  0.7219
  579THF    H11 7525   3.130   4.383   4.876 -1.1314  1.3790  1.6456
  579THF    H12 7526   3.353   4.315   4.948  0.9051 -0.7122 -0.0968
  579THF    H13 7527   3.426   4.456   4.882 -0.3941 -0.1292 -0.9933
  580THF     O1 7528   0.002   3.063   5.213 -0.0654  0.1640  0.4628
  580THF     C2 7529   0.083   3.011   5.107  0.3470 -0.1968  0.2468
  580THF     C3 7530  -0.084   2.958   5.246 -0.4380  0.5323 -0.0427
  580THF     H4 7531   0.169   2.957   5.147  1.0614  1.0318  0.4333
  580THF     H5 7532   0.129   3.091   5.048  3.5530 -2.5971 -0.8564
  580THF     H6 7533  -0.043   2.885   5.315 -1.0813  2.2325  2.2818
  580THF     H7 7534  -0.171   2.998   5.299  0.1369 -0.7888  1.9955
  580THF     C8 7535  -0.136   2.911   5.113  0.0578  0.9207  0.4096
  580THF     C9 7536  -0.019   2.933   5.020 -0.4667  0.0141 -0.9950
  580THF    H10 7537  -0.218   2.977   5.082  0.4130  1.4556  0.5977
  580THF    H11 7538  -0.167   2.807   5.121 -0.3413  1.0572  0.6744
  580THF    H12 7539   0.012   2.834   4.987 -0.7253  0.0032 -1.2128
  580THF    H13 7540  -0.040   2.990   4.929  1.4927  1.1985 -0.7625
  581THF     O1 7541   5.339   1.579   1.980  0.1869 -0.0289  0.4445
  581THF     C2 7542   5.478   1.564   1.986  0.3474 -0.7625  0.1528
  581THF     C3 7543   5.307   1.697   2.047  0.4299  0.5168 -0.1668
  581THF     H4 7544   5.517   1.483   1.924  2.0410  0.6318 -0.7251
  581THF     H5 7545   5.499   1.538   2.089  0.2853  0.2711  0.4383
  581THF     H6 7546   5.201   1.723   2.039 -0.4994 -1.6285  3.0797
  581THF     H7 7547   5.314   1.689   2.155 -0.0665  1.0202 -0.0923
  581THF     C8 7548   5.411   1.794   1.991  0.2230  0.2862 -0.1073
  581THF     C9 7549   5.529   1.708   1.963  0.0370 -0.3254  0.0183
  581THF    H10 7550   5.446   1.863   2.069 -0.1479 -1.0923  1.3373
  581THF    H11 7551   5.364   1.854   1.913 -3.3858  1.5371  2.7029
  581THF    H12 7552   5.570   1.724   1.863 -1.0396  1.0601 -0.2344
  581THF    H13 7553   5.609   1.724   2.035 -0.9202  0.7973  0.8836
  582THF     O1 7554   2.286   3.359   0.762 -0.3031 -0.0171 -0.4703
  582THF     C2 7555   2.388   3.275   0.724  0.1839  0.0519  0.0917
  582THF     C3 7556   2.329   3.488   0.739 -0.3411  0.0437 -0.1173
  582THF     H4 7557   2.378   3.253   0.617 -2.0200 -0.8639  0.4350
  582THF     H5 7558   2.378   3.176   0.769  0.5098 -0.1591 -0.2921
  582THF     H6 7559   2.321   3.514   0.634  0.5630  0.8076 -0.0044
  582THF     H7 7560   2.266   3.565   0.783 -0.1797  0.0190  0.1631
  582THF     C8 7561   2.476   3.495   0.787  0.3654  0.3661  0.4794
  582THF     C9 7562   2.517   3.349   0.757 -0.5718 -0.5680 -0.8330
  582THF    H10 7563   2.454   3.528   0.889  0.3268  2.4227 -0.1605
  582THF    H11 7564   2.519   3.573   0.725  0.2670  0.1349  0.1187
  582THF    H12 7565   2.586   3.342   0.672 -0.7180 -2.1190 -0.8628
  582THF    H13 7566   2.574   3.310   0.841 -0.7014  1.1061  0.0588
  583THF     O1 7567   1.295   2.762   0.134  0.0411 -0.7552 -0.1989
  583THF     C2 7568   1.230   2.889   0.143  0.0642 -0.3898  0.0218
  583THF     C3 7569   1.236   2.676   0.234  0.7157  0.2878 -0.4403
  583THF     H4 7570   1.216   2.939   0.048  2.2619  0.4323  0.0883
  583THF     H5 7571   1.280   2.960   0.208  0.6809 -1.9872  1.3741
  583THF     H6 7572   1.203   2.585   0.184 -0.1790  0.3692 -0.0336
  583THF     H7 7573   1.308   2.644   0.309 -1.2091 -1.4140  0.8140
  583THF     C8 7574   1.110   2.740   0.288 -0.0749 -0.0947 -0.4435
  583THF     C9 7575   1.091   2.868   0.204  0.2003 -0.3427  0.1882
  583THF    H10 7576   1.119   2.777   0.390 -3.5111  1.3650 -0.5343
  583THF    H11 7577   1.017   2.684   0.285 -0.7133  0.9458 -0.2727
  583THF    H12 7578   1.016   2.846   0.128 -1.6810 -2.6042  2.4890
  583THF    H13 7579   1.049   2.947   0.265  0.4163 -1.2060  1.5027
  584THF     O1 7580   3.601   4.075   2.393  0.0477  0.1473 -0.3924
  584THF     C2 7581   3.464   4.126   2.371 -0.1063  0.5289  0.6889
  584THF     C3 7582   3.606   3.946   2.355 -0.0854  0.5046 -0.1500
  584THF     H4 7583   3.467   4.233   2.353 -1.6089  0.5222  0.2370
  584THF     H5 7584   3.400   4.099   2.454  3.4106  1.3602  3.9686
  584THF     H6 7585   3.709   3.930   2.324  0.2830  0.8828  0.8645
  584THF     H7 7586   3.589   3.878   2.438 -2.8533  2.8057  1.3441
  584THF     C8 7587   3.513   3.934   2.225  0.4041 -0.7697 -0.0239
  584THF     C9 7588   3.408   4.044   2.248 -0.0804  0.5137 -1.1632
  584THF    H10 7589   3.459   3.840   2.219 -0.8486 -0.2035  1.4881
  584THF    H11 7590   3.573   3.944   2.135  2.6770  2.4312  1.6608
  584THF    H12 7591   3.409   4.110   2.161 -1.5464 -0.8414 -2.2840
  584THF    H13 7592   3.311   4.002   2.276  0.5757 -0.5160 -0.3393
  585THF     O1 7593   3.374   1.717   3.057 -0.7640 -0.2487 -0.3913
  585THF     C2 7594   3.234   1.732   3.019 -0.6217  0.7060 -0.4662
  585THF     C3 7595   3.454   1.771   2.942 -0.0121  0.5361 -0.0557
  585THF     H4 7596   3.166   1.731   3.104  0.1486 -3.1081  0.2998
  585THF     H5 7597   3.198   1.643   2.967 -1.1099  0.9285 -0.5233
  585THF     H6 7598   3.561   1.779   2.959 -0.2860  0.7232  1.7157
  585THF     H7 7599   3.445   1.699   2.860  0.1217 -1.2529  1.4398
  585THF     C8 7600   3.370   1.894   2.902  0.5417 -0.8908  0.2599
  585THF     C9 7601   3.227   1.851   2.932 -0.0899  0.6670  0.3617
  585THF    H10 7602   3.382   1.927   2.799  0.5125 -0.6417  0.3347
  585THF    H11 7603   3.393   1.974   2.972  0.1049 -0.7691  0.2668
  585THF    H12 7604   3.164   1.934   2.961  1.1738  2.0100 -0.5712
  585THF    H13 7605   3.190   1.823   2.833 -0.0932  3.6952 -0.5900
  586THF     O1 7606   3.572   3.966   4.713 -0.9065 -0.3485 -0.2787
  586THF     C2 7607   3.702   3.974   4.657 -0.3267  0.3529  0.2857
  586THF     C3 7608   3.549   4.076   4.791  0.3110 -0.3255 -0.2328
  586THF     H4 7609   3.703   4.059   4.588 -0.9249  0.8333  0.8607
  586THF     H5 7610   3.734   3.883   4.606 -0.7532 -1.9356  3.8081
  586THF     H6 7611   3.511   4.155   4.727 -0.9832  1.4730  2.5639
  586THF     H7 7612   3.481   4.044   4.870 -0.6298  1.6279 -0.2074
  586THF     C8 7613   3.692   4.107   4.845  0.0284 -0.5256  0.7834
  586THF     C9 7614   3.785   4.012   4.774  0.2581  0.5305 -0.7155
  586THF    H10 7615   3.703   4.101   4.953  2.4051 -1.3891  0.5538
  586THF    H11 7616   3.728   4.210   4.837  1.2092 -1.0606 -2.3313
  586THF    H12 7617   3.881   4.051   4.739  0.7178 -0.5660 -0.7156
  586THF    H13 7618   3.798   3.923   4.836 -1.4236  2.3985  2.5427
  587THF     O1 7619   1.512   2.629   1.538  0.9224 -0.2582 -0.1461
  587THF     C2 7620   1.585   2.521   1.492 -0.2794  0.8828  0.6632
  587THF     C3 7621   1.382   2.578   1.571  1.1903 -0.5917 -0.5209
  587THF     H4 7622   1.684   2.565   1.480  0.1833 -0.0600  0.9486
  587THF     H5 7623   1.551   2.505   1.390 -1.8314 -1.7959  1.5176
  587THF     H6 7624   1.344   2.649   1.644 -1.2537 -0.2041 -2.0502
  587THF     H7 7625   1.332   2.580   1.474  0.6467  0.3903 -0.2244
  587THF     C8 7626   1.407   2.437   1.618  0.6139 -0.2927 -0.4387
  587THF     C9 7627   1.559   2.412   1.597  0.0319 -0.7169  0.3137
  587THF    H10 7628   1.344   2.375   1.554 -1.3254 -0.3881  1.4118
  587THF    H11 7629   1.379   2.446   1.724 -0.7292  1.7075 -0.8991
  587THF    H12 7630   1.618   2.437   1.685  1.7496  1.8782 -1.4632
  587THF    H13 7631   1.590   2.315   1.560 -0.7449 -0.4845 -1.0030
  588THF     O1 7632   2.699   5.363   4.911  0.3210 -0.8078  0.0213
  588THF     C2 7633   2.743   5.256   4.984  0.5735  0.9477  0.1546
  588THF     C3 7634   2.734   5.484   4.983  0.0917  0.3259 -0.5120
  588THF     H4 7635   2.790   5.185   4.917 -0.6880 -0.9401  1.1594
  588THF     H5 7636   2.662   5.194   5.023  0.5297  0.4959 -0.6398
  588THF     H6 7637   2.744   5.575   4.924  1.3472 -0.1493 -1.0878
  588THF     H7 7638   2.664   5.518   5.059  1.5467 -0.3965  1.2444
  588THF     C8 7639   2.868   5.452   5.049 -0.3275 -0.4533  0.1005
  588THF     C9 7640   2.846   5.313   5.087  0.0178  0.5885  0.0434
  588THF    H10 7641   2.886   5.529   5.123 -0.1510  0.5308 -0.9299
  588THF    H11 7642   2.950   5.466   4.979  0.1005  0.1443  0.7193
  588THF    H12 7643   2.934   5.250   5.073 -0.3854 -0.0622  0.3592
  588THF    H13 7644   2.818   5.300   5.191  2.5348 -2.1340  0.5202
  589THF     O1 7645   3.647   2.055   2.959 -0.3675  0.4718  0.3913
  589THF     C2 7646   3.584   2.121   2.844  0.6591  0.2801 -0.1255
  589THF     C3 7647   3.782   2.066   2.935  0.6237 -0.3603  0.1488
  589THF     H4 7648   3.476   2.128   2.857  0.5474 -1.6210  0.3469
  589THF     H5 7649   3.594   2.058   2.756  1.0826 -0.2132  0.2694
  589THF     H6 7650   3.836   2.056   3.029  0.3414 -2.0052  0.1635
  589THF     H7 7651   3.814   1.986   2.868 -1.1768 -0.0865 -1.0995
  589THF     C8 7652   3.803   2.204   2.870  0.9010 -0.6377 -0.1108
  589THF     C9 7653   3.661   2.249   2.816 -0.7993 -0.4098 -0.0251
  589THF    H10 7654   3.874   2.195   2.789 -1.4495 -0.6150 -2.2895
  589THF    H11 7655   3.831   2.283   2.939 -3.0201  1.1799 -0.3075
  589THF    H12 7656   3.628   2.333   2.878 -0.2042 -0.7385  0.7484
  589THF    H13 7657   3.658   2.272   2.710 -1.9218  2.7480  0.5916
  590THF     O1 7658   2.339   0.104   3.431 -0.1131  0.2888  0.0288
  590THF     C2 7659   2.425   0.051   3.334  0.4009  0.9042  0.6773
  590THF     C3 7660   2.304  -0.005   3.513  0.2059 -0.4499 -0.2158
  590THF     H4 7661   2.481   0.127   3.280  1.0294  0.9288  1.3471
  590THF     H5 7662   2.367  -0.011   3.266 -1.8377  0.1604  3.0699
  590THF     H6 7663   2.273   0.047   3.603  1.4757  0.5934 -0.3491
  590THF     H7 7664   2.219  -0.060   3.474 -0.6374  0.0217  0.9071
  590THF     C8 7665   2.425  -0.085   3.531 -0.0146  0.5478  0.5474
  590THF     C9 7666   2.515  -0.044   3.413  0.2853  0.6166 -0.4616
  590THF    H10 7667   2.397  -0.191   3.536 -1.7930  0.9641  0.1852
  590THF    H11 7668   2.489  -0.071   3.618 -0.5193  1.5147  0.7794
  590THF    H12 7669   2.605   0.002   3.453  0.8857 -1.8029  1.2077
  590THF    H13 7670   2.529  -0.136   3.356 -1.2349 -0.4173  0.7601
  591THF     O1 7671   3.836   2.498   3.125 -0.5179  0.4337 -0.1665
  591THF     C2 7672   3.981   2.498   3.137 -0.1454 -0.6260  0.4257
  591THF     C3 7673   3.770   2.417   3.219 -0.8536 -0.2523  0.0744
  591THF     H4 7674   3.999   2.572   3.215 -0.0727 -0.1880 -0.0091
  591THF     H5 7675   4.034   2.518   3.045 -0.9438 -2.6725 -0.5375
  591THF     H6 7676   3.738   2.472   3.307  0.5532  1.4700 -0.4336
  591THF     H7 7677   3.692   2.367   3.160  0.1886 -0.3964 -1.2310
  591THF     C8 7678   3.877   2.315   3.257 -0.0352 -0.2264 -0.1851
  591THF     C9 7679   4.012   2.364   3.201 -0.1628  0.1058 -0.1017
  591THF    H10 7680   3.856   2.210   3.236  1.1333 -0.9445  1.8752
  591THF    H11 7681   3.890   2.326   3.365  2.9055  1.1510 -0.5831
  591THF    H12 7682   4.100   2.373   3.264  1.0538 -1.5994 -1.4535
  591THF    H13 7683   4.035   2.296   3.119 -4.6324 -0.5492 -1.0892
  592THF     O1 7684   2.209   0.038   2.548  0.4318 -0.1284  0.7581
  592THF     C2 7685   2.173  -0.068   2.458 -0.4239  0.5996 -0.2032
  592THF     C3 7686   2.161  -0.003   2.674 -0.5824  0.0944 -0.8639
  592THF     H4 7687   2.236  -0.154   2.479  0.3412  1.4644  1.2159
  592THF     H5 7688   2.186  -0.040   2.353  1.7325  0.6071  0.0135
  592THF     H6 7689   2.241  -0.054   2.728 -1.3351 -0.4345 -0.2237
  592THF     H7 7690   2.140   0.083   2.738  1.9551  0.0102  0.1938
  592THF     C8 7691   2.040  -0.096   2.653 -0.0922  0.6221 -0.1106
  592THF     C9 7692   2.030  -0.102   2.506 -0.2019  0.6418 -0.0959
  592THF    H10 7693   1.949  -0.056   2.697  0.3640  1.1967  0.3230
  592THF    H11 7694   2.053  -0.196   2.695  0.0372 -0.4399 -2.4854
  592THF    H12 7695   1.991  -0.194   2.461 -0.8425  0.5967  0.5217
  592THF    H13 7696   1.977  -0.009   2.482 -1.3423 -0.2228 -1.0673
  593THF     O1 7697   4.032   2.946   2.812  0.2894 -0.7475  0.3141
  593THF     C2 7698   4.018   3.077   2.766 -0.4337  0.9382 -0.2887
  593THF     C3 7699   3.908   2.895   2.851  0.0850  0.4873  0.2742
  593THF     H4 7700   4.021   3.082   2.657  1.4746 -0.0474 -0.3222
  593THF     H5 7701   4.097   3.143   2.800  0.4956 -1.0207  1.5665
  593THF     H6 7702   3.860   2.840   2.770  0.2012 -0.3351  0.7533
  593THF     H7 7703   3.942   2.826   2.928 -0.5384 -0.7464 -0.5229
  593THF     C8 7704   3.825   3.016   2.901 -0.1654  0.1408 -0.7310
  593THF     C9 7705   3.877   3.126   2.811  0.3817 -0.2182 -0.0304
  593THF    H10 7706   3.845   3.038   3.006 -2.5404 -0.8800 -0.0084
  593THF    H11 7707   3.717   3.003   2.903 -0.2741  0.9464 -0.8534
  593THF    H12 7708   3.813   3.159   2.729  2.9754  1.1547 -1.6275
  593THF    H13 7709   3.893   3.220   2.864 -3.1507  0.6502 -0.2492
  594THF     O1 7710   1.834   1.457   1.331  0.3216 -0.1340  0.5758
  594THF     C2 7711   1.827   1.327   1.270  0.1314  1.1932 -0.6075
  594THF     C3 7712   1.896   1.541   1.236 -0.6958  0.1805  0.2830
  594THF     H4 7713   1.741   1.274   1.311  0.0215  1.5641 -0.3499
  594THF     H5 7714   1.919   1.274   1.293 -0.5783 -0.5411 -1.5215
  594THF     H6 7715   1.864   1.645   1.245 -1.1815  0.1584 -0.9735
  594THF     H7 7716   2.002   1.531   1.258 -1.0235 -1.1277  1.4074
  594THF     C8 7717   1.862   1.487   1.095  0.4859 -0.9169 -0.5509
  594THF     C9 7718   1.807   1.351   1.125 -0.0223 -0.6271 -0.0884
  594THF    H10 7719   1.946   1.483   1.025  0.0037 -3.2439 -1.0991
  594THF    H11 7720   1.785   1.551   1.053 -0.2265 -0.5830  1.1558
  594THF    H12 7721   1.703   1.341   1.093  0.2630 -2.5299 -0.5362
  594THF    H13 7722   1.860   1.278   1.065 -3.4709 -2.2829 -1.4165
  595THF     O1 7723   5.353   4.464   0.316 -0.3248 -0.3528  0.2140
  595THF     C2 7724   5.292   4.344   0.332 -0.0038 -1.0131 -0.4290
  595THF     C3 7725   5.381   4.497   0.180  0.0182  0.3652 -0.5094
  595THF     H4 7726   5.187   4.362   0.309  0.3775  0.1102 -1.3783
  595THF     H5 7727   5.312   4.320   0.436  0.9066 -0.1668 -0.3967
  595THF     H6 7728   5.289   4.539   0.138 -0.9780 -1.7076 -0.5458
  595THF     H7 7729   5.461   4.570   0.175  0.3734  0.1227  1.1974
  595THF     C8 7730   5.421   4.364   0.117 -0.2772 -0.2260 -0.3801
  595THF     C9 7731   5.373   4.266   0.222 -0.1303 -0.3718 -0.1785
  595THF    H10 7732   5.530   4.357   0.108 -0.2140 -0.0737  0.1881
  595THF    H11 7733   5.365   4.353   0.025  0.2742  0.5963 -0.8337
  595THF    H12 7734   5.317   4.179   0.187 -0.9205  0.1619 -0.2724
  595THF    H13 7735   5.466   4.229   0.266  1.5760  1.3313 -2.1155
  596THF     O1 7736   3.449   3.789   0.810  0.0885  0.6047  0.1871
  596THF     C2 7737   3.503   3.733   0.926  0.0644 -0.4918 -0.1066
  596THF     C3 7738   3.391   3.677   0.731 -0.1401 -0.0683 -0.4880
  596THF     H4 7739   3.425   3.694   0.992 -0.4323  0.1141 -0.3293
  596THF     H5 7740   3.563   3.804   0.983 -1.9033  1.5605 -0.4488
  596THF     H6 7741   3.284   3.665   0.746 -0.0914 -0.6778 -0.6325
  596THF     H7 7742   3.388   3.699   0.625 -1.4382 -1.2381 -0.7073
  596THF     C8 7743   3.471   3.555   0.766  0.0843 -0.0318  0.5669
  596THF     C9 7744   3.573   3.607   0.863 -0.5173 -0.9187  0.9506
  596THF    H10 7745   3.523   3.522   0.676 -2.3550  0.0311 -0.9629
  596THF    H11 7746   3.417   3.471   0.809 -1.7533  0.6827 -0.2552
  596THF    H12 7747   3.592   3.531   0.939  0.2872  1.0648  2.8363
  596THF    H13 7748   3.671   3.628   0.821 -0.5330 -1.4347  0.6567
  597THF     O1 7749   4.656   1.538   4.855  0.8581  0.0692 -0.0060
  597THF     C2 7750   4.622   1.601   4.975  0.2093  0.4618  1.1610
  597THF     C3 7751   4.558   1.591   4.765  0.7811  0.0975  0.4582
  597THF     H4 7752   4.678   1.694   4.985  0.9003  0.2694 -0.4814
  597THF     H5 7753   4.655   1.528   5.049 -0.7611 -0.3851  0.7843
  597THF     H6 7754   4.607   1.686   4.746  0.8489  0.0166  0.2226
  597THF     H7 7755   4.562   1.534   4.671  0.9517 -2.2203  1.7816
  597THF     C8 7756   4.428   1.599   4.838  0.6412  0.4811  0.2169
  597THF     C9 7757   4.466   1.610   4.981  0.0270 -0.1219 -0.1226
  597THF    H10 7758   4.377   1.505   4.814 -0.7413  0.9447  1.1963
  597THF    H11 7759   4.368   1.686   4.811  0.5180  1.3497  2.9078
  597THF    H12 7760   4.441   1.710   5.015  0.3598  0.3732 -1.2573
  597THF    H13 7761   4.407   1.539   5.039  0.0334 -0.9700 -1.1264
  598THF     O1 7762   3.738   1.605   3.748 -0.0284 -0.2240 -0.2743
  598THF     C2 7763   3.826   1.633   3.857  0.1563 -0.3818 -1.0800
  598THF     C3 7764   3.699   1.734   3.698  0.0614  0.1276  0.1339
  598THF     H4 7765   3.897   1.551   3.872 -0.3690 -0.6706 -0.0967
  598THF     H5 7766   3.766   1.631   3.948 -1.9419 -0.7796 -2.4009
  598THF     H6 7767   3.707   1.724   3.590 -0.8908  0.9593 -0.0266
  598THF     H7 7768   3.593   1.746   3.720 -0.6070 -3.1663 -0.8246
  598THF     C8 7769   3.798   1.839   3.764  0.1338  0.0383  1.2792
  598THF     C9 7770   3.905   1.759   3.833  0.0443 -0.5120  0.1447
  598THF    H10 7771   3.737   1.906   3.824 -1.1001 -0.1290  0.2581
  598THF    H11 7772   3.843   1.906   3.691 -1.2068  0.5265  0.8730
  598THF    H12 7773   3.989   1.732   3.770  1.9326 -2.5595  3.2049
  598THF    H13 7774   3.948   1.805   3.922 -0.3362  0.2983 -0.0836
  599THF     O1 7775   0.447   2.608   2.176 -0.0335 -0.6259 -0.1585
  599THF     C2 7776   0.334   2.528   2.136  0.0365  0.0478 -0.1486
  599THF     C3 7777   0.461   2.706   2.077  0.9175  0.2412  0.1334
  599THF     H4 7778   0.241   2.585   2.135 -0.3980 -0.6471 -1.1967
  599THF     H5 7779   0.328   2.446   2.207  1.1437  0.0175 -0.0801
  599THF     H6 7780   0.395   2.793   2.074  0.8450  0.2099  0.6870
  599THF     H7 7781   0.561   2.739   2.104  0.2158  1.1406  1.7934
  599THF     C8 7782   0.457   2.619   1.949  0.2658 -0.5748  0.2901
  599THF     C9 7783   0.379   2.495   1.997 -0.3609 -0.1671  0.8531
  599THF    H10 7784   0.554   2.588   1.910 -0.5894 -0.8210 -1.8194
  599THF    H11 7785   0.406   2.668   1.866  1.8023  0.1521 -0.2622
  599THF    H12 7786   0.299   2.453   1.935 -1.6332  1.1701  1.5204
  599THF    H13 7787   0.462   2.426   2.003 -0.5117 -0.9266 -2.9474
  600THF     O1 7788   1.872   4.438   2.935  0.3836  0.1782 -0.2119
  600THF     C2 7789   1.965   4.442   3.043 -0.3499  0.4975 -0.1071
  600THF     C3 7790   1.932   4.489   2.812  0.0204 -0.2310  0.0610
  600THF     H4 7791   1.931   4.372   3.119 -0.8952  1.1574  0.2741
  600THF     H5 7792   1.979   4.541   3.087 -2.1620  1.3478 -1.3338
  600THF     H6 7793   1.874   4.461   2.724  0.1040 -0.6095  0.1246
  600THF     H7 7794   1.920   4.598   2.811 -2.6995 -0.4140 -2.8138
  600THF     C8 7795   2.082   4.437   2.819  1.0120  0.1978  0.0352
  600THF     C9 7796   2.096   4.407   2.972 -0.6345  0.0241  0.6698
  600THF    H10 7797   2.155   4.510   2.783  1.1913 -0.0145 -0.0303
  600THF    H11 7798   2.083   4.346   2.759 -2.1516  2.0330 -3.1769
  600THF    H12 7799   2.121   4.303   2.989 -1.2030 -0.7016 -2.3480
  600THF    H13 7800   2.178   4.467   3.012 -1.5576  0.5888  1.7819
  601THF     O1 7801   1.525   2.438   4.908 -0.4955 -0.4220 -0.2427
  601THF     C2 7802   1.524   2.443   5.054  0.2045  0.6268  1.0718
  601THF     C3 7803   1.392   2.451   4.867  0.0083 -0.2247 -0.6218
  601THF     H4 7804   1.514   2.546   5.089  0.5872  0.4802  1.6253
  601THF     H5 7805   1.613   2.399   5.098 -0.9187 -1.2338  1.5768
  601THF     H6 7806   1.370   2.556   4.885  1.8519  0.5634 -2.5599
  601THF     H7 7807   1.379   2.433   4.760  0.1300 -0.7392 -0.5551
  601THF     C8 7808   1.310   2.361   4.960  0.4622 -0.1510  0.1488
  601THF     C9 7809   1.400   2.354   5.080 -0.2160  0.0071  0.4790
  601THF    H10 7810   1.299   2.263   4.914 -0.5419  1.0392 -2.3477
  601THF    H11 7811   1.211   2.395   4.991 -0.9941 -4.2543  0.5113
  601THF    H12 7812   1.356   2.397   5.170  1.5435  0.6602  1.0825
  601THF    H13 7813   1.429   2.255   5.115  2.9266  0.2234 -1.1316
  602THF     O1 7814   2.306   1.656   1.467  0.0636  0.0677 -0.1436
  602THF     C2 7815   2.203   1.570   1.432  0.3363  0.9575  0.2606
  602THF     C3 7816   2.339   1.634   1.601  0.6164 -0.3362  0.3694
  602THF     H4 7817   2.207   1.526   1.332 -2.7553 -0.9859  0.8383
  602THF     H5 7818   2.104   1.615   1.441  0.6840  1.7714  0.0057
  602THF     H6 7819   2.433   1.673   1.638  0.7979 -0.2130 -0.2158
  602THF     H7 7820   2.255   1.669   1.661  0.4389 -0.7169  0.3439
  602THF     C8 7821   2.333   1.485   1.614 -0.5403  0.2839  0.3352
  602THF     C9 7822   2.214   1.454   1.533  1.4242 -0.4699  0.1982
  602THF    H10 7823   2.340   1.455   1.718  0.3982  1.0274  0.4952
  602THF    H11 7824   2.420   1.446   1.561  0.1023 -0.2088  1.7054
  602THF    H12 7825   2.220   1.357   1.483 -1.0734  0.4560 -2.1647
  602THF    H13 7826   2.122   1.448   1.592  0.2726  0.1175 -1.4636
  603THF     O1 7827   3.294   5.180   3.615 -0.6282  0.0418  0.2391
  603THF     C2 7828   3.375   5.295   3.583  0.0478  0.3110  0.0278
  603THF     C3 7829   3.336   5.121   3.735  0.7303  0.0083  0.8734
  603THF     H4 7830   3.336   5.376   3.522  1.2045  0.7780 -0.1257
  603THF     H5 7831   3.466   5.255   3.537 -0.0097 -1.3664  1.2721
  603THF     H6 7832   3.244   5.099   3.790  0.0730 -2.6540 -1.0722
  603THF     H7 7833   3.381   5.027   3.703 -0.8997  0.1345 -2.2091
  603THF     C8 7834   3.429   5.215   3.812  0.4265  0.1916 -0.2682
  603THF     C9 7835   3.425   5.342   3.723 -0.1856  0.2848 -0.3023
  603THF    H10 7836   3.530   5.181   3.834  0.2150  0.7790  1.8704
  603THF    H11 7837   3.372   5.241   3.901  0.5741 -0.3270 -0.0179
  603THF    H12 7838   3.351   5.415   3.758 -0.8855 -0.7218  0.3801
  603THF    H13 7839   3.520   5.393   3.714 -0.7102  1.1316 -1.1893
  604THF     O1 7840   4.289   5.333   3.559  0.2996 -0.6154  0.7070
  604THF     C2 7841   4.320   5.241   3.458  0.1550 -0.0185 -0.2641
  604THF     C3 7842   4.409   5.369   3.633  0.5114 -0.6869  0.2769
  604THF     H4 7843   4.236   5.218   3.393  0.2724  0.0330 -0.4334
  604THF     H5 7844   4.340   5.154   3.519  1.9111  1.5142  1.4895
  604THF     H6 7845   4.417   5.468   3.676  0.6361 -0.7851  0.4839
  604THF     H7 7846   4.431   5.297   3.712 -3.3535 -2.7657 -0.2485
  604THF     C8 7847   4.508   5.367   3.515  0.4257  0.3873 -0.6545
  604THF     C9 7848   4.456   5.286   3.404 -0.5109  0.3846 -0.3850
  604THF    H10 7849   4.606   5.331   3.546  0.7324  1.8912  0.2245
  604THF    H11 7850   4.522   5.471   3.486  0.7589  0.3143 -0.7640
  604THF    H12 7851   4.442   5.338   3.309 -0.8973 -0.8472 -1.0281
  604THF    H13 7852   4.520   5.203   3.374 -0.0747  0.5501  0.0665
  605THF     O1 7853   4.292   0.376   1.121 -0.0182 -0.4941 -0.7601
  605THF     C2 7854   4.369   0.337   1.003 -0.8808  0.3342  0.2232
  605THF     C3 7855   4.387   0.408   1.230 -0.2760  0.2183  0.1802
  605THF     H4 7856   4.413   0.429   0.964 -2.1702  1.7732  1.9972
  605THF     H5 7857   4.313   0.276   0.933 -2.7301  1.5968  0.5358
  605THF     H6 7858   4.403   0.516   1.240 -0.7862  0.1755  1.5687
  605THF     H7 7859   4.336   0.376   1.320 -1.7882  0.9059 -0.3937
  605THF     C8 7860   4.513   0.319   1.204 -0.2100  0.3696 -0.5860
  605THF     C9 7861   4.492   0.262   1.063  0.6747 -0.0543 -0.0253
  605THF    H10 7862   4.527   0.234   1.271 -0.7858  1.5707  1.1504
  605THF    H11 7863   4.601   0.380   1.185 -1.2835  2.1310 -0.1790
  605THF    H12 7864   4.571   0.283   0.991 -0.2906  2.7061 -0.4207
  605THF    H13 7865   4.487   0.153   1.067  0.3448 -0.0124  1.5199
  606THF     O1 7866   1.676   1.025   1.193  0.2925 -0.2112  0.1351
  606THF     C2 7867   1.536   1.053   1.170 -0.4456 -0.1907  0.5782
  606THF     C3 7868   1.709   0.923   1.094  0.3146  0.4249  0.8807
  606THF     H4 7869   1.531   1.156   1.204  1.6550 -0.1537  0.9503
  606THF     H5 7870   1.469   1.023   1.250 -0.9744  0.2790  0.3135
  606THF     H6 7871   1.817   0.917   1.078  0.0646  0.4236 -0.9834
  606THF     H7 7872   1.666   0.827   1.121 -3.5518  1.6565 -0.2703
  606THF     C8 7873   1.644   0.976   0.964  0.3730  0.2992 -0.1189
  606THF     C9 7874   1.509   1.033   1.011 -0.0578  0.0533 -0.4531
  606THF    H10 7875   1.634   0.896   0.891  2.0419 -1.2515  1.2285
  606THF    H11 7876   1.712   1.054   0.929  0.5660 -0.8473 -2.4463
  606THF    H12 7877   1.494   1.122   0.950 -1.2266 -0.8256 -1.4735
  606THF    H13 7878   1.420   0.973   0.991 -0.6554  0.6755  0.2673
  607THF     O1 7879   1.021   5.090   4.508 -0.5100 -0.0076  0.1619
  607THF     C2 7880   0.896   5.021   4.532 -0.7954 -0.9439  0.0220
  607THF     C3 7881   0.991   5.225   4.464 -0.5682  0.6039 -0.8366
  607THF     H4 7882   0.852   5.052   4.627 -1.3695 -0.7993 -0.2887
  607THF     H5 7883   0.911   4.914   4.546  0.7114 -0.6485  0.8339
  607THF     H6 7884   0.955   5.283   4.549  1.3882 -1.1332  1.2997
  607THF     H7 7885   1.069   5.279   4.409  0.3851  0.5836  0.4326
  607THF     C8 7886   0.877   5.192   4.373 -0.7263 -0.2902 -0.6719
  607THF     C9 7887   0.808   5.068   4.420 -0.1000  0.4280 -0.0362
  607THF    H10 7888   0.923   5.172   4.276 -1.4321 -0.6789 -0.9326
  607THF    H11 7889   0.814   5.280   4.363  0.4904  0.5577 -1.2253
  607THF    H12 7890   0.709   5.082   4.464  1.3050  1.6429  3.0097
  607THF    H13 7891   0.810   4.988   4.346  0.9542 -1.2818  1.7363
  608THF     O1 7892   3.800   5.329   4.994  0.3940  0.1244  0.2408
  608THF     C2 7893   3.706   5.229   5.022 -0.1493  0.2656  0.2002
  608THF     C3 7894   3.735   5.453   5.025 -0.9069  0.8701 -0.6777
  608THF     H4 7895   3.753   5.135   5.051 -0.3312  0.1021 -0.0289
  608THF     H5 7896   3.633   5.208   4.943 -0.2189 -0.7984  0.5262
  608THF     H6 7897   3.811   5.532   5.025  0.5734 -0.4786  0.7034
  608THF     H7 7898   3.654   5.469   4.955  0.0964  2.0853 -1.6126
  608THF     C8 7899   3.669   5.421   5.161  0.4629  0.2561 -0.4578
  608THF     C9 7900   3.636   5.276   5.147 -0.2662  0.1554  0.1099
  608THF    H10 7901   3.576   5.472   5.184 -0.3820 -1.1064 -0.7508
  608THF    H11 7902   3.742   5.450   5.237 -0.3807 -0.1042  0.5043
  608THF    H12 7903   3.672   5.222   5.235  0.1949 -1.7219 -1.1751
  608THF    H13 7904   3.530   5.258   5.130 -0.6463 -1.8056  3.6120
  609THF     O1 7905   2.757   2.978   0.665  0.0855  0.8512  0.1645
  609THF     C2 7906   2.792   2.994   0.798  0.0022  0.6188  0.1161
  609THF     C3 7907   2.628   2.904   0.658 -0.7358 -0.6369  0.8812
  609THF     H4 7908   2.747   3.087   0.834 -2.4231 -0.2361 -0.4989
  609THF     H5 7909   2.900   2.999   0.802  0.1557 -1.9697  0.7436
  609THF     H6 7910   2.551   2.980   0.658 -0.1782  0.0484 -2.4534
  609THF     H7 7911   2.626   2.851   0.563  0.2646  1.8017 -0.5879
  609THF     C8 7912   2.628   2.823   0.787 -0.0066  0.8107 -0.1237
  609THF     C9 7913   2.752   2.864   0.866 -0.3914 -0.5589 -0.2020
  609THF    H10 7914   2.630   2.717   0.761 -0.5467  1.0213 -1.0476
  609THF    H11 7915   2.537   2.850   0.841  0.2018  0.0481  0.6250
  609THF    H12 7916   2.740   2.875   0.974  1.0966  2.4145 -0.2534
  609THF    H13 7917   2.835   2.793   0.864  2.7417  2.8316 -2.3220
  610THF     O1 7918   0.515   4.232   0.440  0.0758 -0.3204 -0.7392
  610THF     C2 7919   0.549   4.284   0.567 -0.4096 -0.1500 -0.5024
  610THF     C3 7920   0.641   4.231   0.371  0.4566 -0.2734  0.2835
  610THF     H4 7921   0.614   4.222   0.628 -1.3096 -1.3175 -0.6972
  610THF     H5 7922   0.458   4.298   0.627  0.6507  1.2313  0.8813
  610THF     H6 7923   0.725   4.180   0.419 -0.5418 -0.7697  1.5814
  610THF     H7 7924   0.622   4.197   0.269 -0.3456  0.7591  0.0693
  610THF     C8 7925   0.683   4.375   0.387  0.1876 -0.4431 -0.2975
  610THF     C9 7926   0.624   4.412   0.525  0.6838 -0.0872 -0.9326
  610THF    H10 7927   0.653   4.453   0.317 -0.4618  1.4403  1.9525
  610THF    H11 7928   0.792   4.373   0.388  0.2007 -3.0777 -0.5389
  610THF    H12 7929   0.700   4.442   0.597 -0.7428  0.0714  0.5592
  610THF    H13 7930   0.544   4.485   0.527 -0.3981 -1.2490  0.1599
  611THF     O1 7931   1.506   4.397   1.644 -0.6115 -0.2955 -0.2814
  611THF     C2 7932   1.556   4.294   1.565 -0.0962 -0.1741 -0.5417
  611THF     C3 7933   1.521   4.348   1.774 -0.1356  0.0219  0.1102
  611THF     H4 7934   1.665   4.302   1.564 -0.1595  0.8068 -0.2245
  611THF     H5 7935   1.517   4.296   1.463  0.5098  2.4616 -0.7804
  611THF     H6 7936   1.623   4.336   1.810 -0.0536 -0.4605 -0.2777
  611THF     H7 7937   1.481   4.429   1.835  2.4501 -0.3060  2.4397
  611THF     C8 7938   1.450   4.216   1.772  0.4016  0.4826 -0.4400
  611THF     C9 7939   1.502   4.164   1.637  0.3161 -0.2063  0.0798
  611THF    H10 7940   1.342   4.226   1.778  0.4764  1.8667 -0.8830
  611THF    H11 7941   1.478   4.161   1.862 -0.2059  2.1086  0.8050
  611THF    H12 7942   1.588   4.100   1.657  0.7207  1.0193  2.8036
  611THF    H13 7943   1.429   4.121   1.568  2.0264  0.6830 -2.4141
  612THF     O1 7944   2.867   0.167   1.940 -0.3897 -0.1742 -0.1892
  612THF     C2 7945   2.797   0.292   1.928  0.2751 -0.1417  0.0090
  612THF     C3 7946   3.004   0.191   1.903 -0.5467 -0.5495  0.3582
  612THF     H4 7947   2.704   0.286   1.985  1.2788  0.1438  1.7290
  612THF     H5 7948   2.773   0.309   1.823 -0.4275 -1.1610 -0.0135
  612THF     H6 7949   3.064   0.142   1.979  0.1227  0.1819  0.3146
  612THF     H7 7950   3.016   0.154   1.801  0.9940 -0.8261  0.6107
  612THF     C8 7951   3.021   0.342   1.894  0.1044  0.1344 -0.2308
  612THF     C9 7952   2.901   0.400   1.974  0.0439  0.3300  0.0207
  612THF    H10 7953   3.005   0.383   1.795  1.8230 -0.5097 -0.8024
  612THF    H11 7954   3.110   0.376   1.947  0.5562 -2.0086  0.5283
  612THF    H12 7955   2.920   0.417   2.080  0.9554 -0.1815 -0.0465
  612THF    H13 7956   2.874   0.499   1.936  1.1790  1.1215  1.1810
  613THF     O1 7957   2.376   0.328   5.352  0.1863 -0.5598 -0.1637
  613THF     C2 7958   2.334   0.446   5.411 -0.2935 -0.2941 -0.2170
  613THF     C3 7959   2.411   0.233   5.456 -0.2987 -0.8071  0.0644
  613THF     H4 7960   2.226   0.457   5.421 -0.3770 -0.2044 -1.1788
  613THF     H5 7961   2.371   0.539   5.366 -1.7533  0.4227 -0.0002
  613THF     H6 7962   2.354   0.141   5.465 -0.0077 -0.7864  3.6085
  613THF     H7 7963   2.502   0.186   5.418  0.5459  1.2453 -0.6469
  613THF     C8 7964   2.418   0.304   5.591 -0.4677  0.0804 -0.2790
  613THF     C9 7965   2.388   0.445   5.555 -0.1632 -0.2697 -0.8989
  613THF    H10 7966   2.518   0.292   5.634 -0.1672  0.5674 -0.8286
  613THF    H11 7967   2.343   0.261   5.657 -0.2093 -2.6323 -1.6201
  613THF    H12 7968   2.313   0.482   5.626 -0.1043 -1.5386 -0.1395
  613THF    H13 7969   2.478   0.504   5.569 -1.4463  1.3911  0.9281
  614THF     O1 7970   2.992   5.486   4.550 -0.9633 -0.3524  0.0230
  614THF     C2 7971   3.015   5.616   4.607  0.1022 -0.2958  0.6692
  614THF     C3 7972   2.875   5.482   4.480  0.3404  0.2013  0.1746
  614THF     H4 7973   3.084   5.669   4.541 -1.1478 -1.3690 -1.6375
  614THF     H5 7974   3.049   5.614   4.710  0.1580 -1.2161  0.6440
  614THF     H6 7975   2.902   5.458   4.378  0.0919  2.6233 -0.5241
  614THF     H7 7976   2.804   5.407   4.515  1.6669 -1.2592 -0.1293
  614THF     C8 7977   2.822   5.622   4.470  0.1629  0.2046  0.0890
  614THF     C9 7978   2.884   5.686   4.590 -0.2924 -0.1503  0.1016
  614THF    H10 7979   2.713   5.623   4.472  0.1005 -1.9626  0.0760
  614THF    H11 7980   2.849   5.676   4.379 -0.3087 -0.6960 -0.6011
  614THF    H12 7981   2.883   5.794   4.580 -1.2337 -0.2291 -0.8345
  614THF    H13 7982   2.821   5.662   4.676 -0.9960 -4.0733 -1.2933
  615THF     O1 7983   0.430   4.598   1.005  0.0338  0.8363  0.3105
  615THF     C2 7984   0.380   4.621   0.874  0.1192 -0.2557  0.9611
  615THF     C3 7985   0.381   4.464   1.034 -0.0629 -0.6993  0.4211
  615THF     H4 7986   0.429   4.707   0.829 -1.2728 -0.6539 -1.4755
  615THF     H5 7987   0.273   4.641   0.874 -0.0344 -1.0174  0.7448
  615THF     H6 7988   0.432   4.426   1.123  1.9677  0.2903 -0.2487
  615THF     H7 7989   0.280   4.480   1.070  0.8316  1.0790  2.3815
  615THF     C8 7990   0.399   4.380   0.909  0.3270 -0.0843 -0.3239
  615THF     C9 7991   0.408   4.484   0.797 -0.8472  0.0986 -0.2787
  615THF    H10 7992   0.309   4.320   0.899  1.6076 -1.9125 -1.5747
  615THF    H11 7993   0.484   4.313   0.925  0.6844  0.8826  2.2397
  615THF    H12 7994   0.512   4.491   0.767 -0.5627 -0.0900  0.6171
  615THF    H13 7995   0.340   4.472   0.713 -0.1455  0.0761 -0.8492
  616THF     O1 7996   3.353   3.414   4.684  0.0280  0.4547  0.5824
  616THF     C2 7997   3.328   3.454   4.819  0.7655  0.2292 -0.3293
  616THF     C3 7998   3.434   3.513   4.627 -0.8211  0.5670  0.0779
  616THF     H4 7999   3.312   3.373   4.890  2.0250 -0.6504 -1.0042
  616THF     H5 8000   3.241   3.520   4.810  0.2219 -0.0859  2.0694
  616THF     H6 8001   3.494   3.486   4.541  1.0780 -0.5319  1.6680
  616THF     H7 8002   3.376   3.595   4.585 -0.5803  0.3187 -0.7522
  616THF     C8 8003   3.526   3.555   4.737  0.0902 -0.1050  1.0193
  616THF     C9 8004   3.452   3.533   4.859  1.0507  0.6108  0.1929
  616THF    H10 8005   3.559   3.657   4.721 -3.0921  0.6206 -2.1360
  616THF    H11 8006   3.615   3.493   4.738  0.1851  0.0269  0.8321
  616THF    H12 8007   3.519   3.471   4.919  1.4593 -0.4967 -1.3477
  616THF    H13 8008   3.429   3.623   4.916 -0.4614 -0.6083  1.6324
  617THF     O1 8009   1.467   4.831   1.836 -0.1816 -0.7992  0.1204
  617THF     C2 8010   1.580   4.791   1.758  0.4025 -0.0059  0.0002
  617THF     C3 8011   1.348   4.793   1.772  0.1568  0.3963  0.2290
  617THF     H4 8012   1.594   4.689   1.794  0.4528 -0.0426 -0.1275
  617THF     H5 8013   1.662   4.859   1.777  0.4567 -0.3013  0.8693
  617THF     H6 8014   1.338   4.691   1.809 -0.7707 -0.1473 -1.4366
  617THF     H7 8015   1.265   4.851   1.811 -0.1002 -0.0004  0.2801
  617THF     C8 8016   1.377   4.785   1.620  0.7151 -0.3038 -0.3743
  617THF     C9 8017   1.526   4.797   1.613 -0.2476  0.3818  0.4584
  617THF    H10 8018   1.322   4.858   1.561  2.3605  0.0806 -1.5175
  617THF    H11 8019   1.346   4.688   1.581 -1.9759  0.6760 -0.8708
  617THF    H12 8020   1.574   4.727   1.545 -0.2616  0.0000  0.8310
  617THF    H13 8021   1.554   4.893   1.569  1.2239  0.1055  0.7349
  618THF     O1 8022   4.678   3.666   0.813 -0.1177 -0.3232  0.4452
  618THF     C2 8023   4.616   3.655   0.684  0.2142  0.5696  0.2585
  618THF     C3 8024   4.695   3.805   0.836  0.0347 -0.0577 -0.2897
  618THF     H4 8025   4.542   3.575   0.677  0.2427  0.6562 -4.3901
  618THF     H5 8026   4.675   3.620   0.598 -1.6906 -1.7817 -0.2167
  618THF     H6 8027   4.625   3.838   0.913 -0.5385  2.7582 -1.8735
  618THF     H7 8028   4.794   3.845   0.858 -0.8481  2.5567 -0.6358
  618THF     C8 8029   4.648   3.880   0.708  0.5011 -0.1531 -0.0674
  618THF     C9 8030   4.542   3.787   0.649 -0.7321 -0.2662 -0.3118
  618THF    H10 8031   4.727   3.891   0.634 -0.4152  0.3606 -0.9911
  618THF    H11 8032   4.610   3.978   0.733 -2.4948 -1.4812  1.0300
  618THF    H12 8033   4.453   3.828   0.697  0.0412  2.4202 -1.0168
  618THF    H13 8034   4.526   3.798   0.542 -0.9625 -0.6386 -0.3147
  619THF     O1 8035   3.236   4.262   1.036  0.0278 -0.0799 -0.1859
  619THF     C2 8036   3.098   4.252   1.039 -0.0676 -0.1153 -0.3635
  619THF     C3 8037   3.274   4.223   0.908 -0.4035 -0.0034 -0.4506
  619THF     H4 8038   3.056   4.298   1.129  2.4320  0.0256  0.8245
  619THF     H5 8039   3.075   4.145   1.031 -2.4175  0.3872 -1.0029
  619THF     H6 8040   3.378   4.255   0.898  0.2093 -2.2820 -2.1822
  619THF     H7 8041   3.284   4.116   0.893 -0.1093 -0.5346  2.7778
  619THF     C8 8042   3.188   4.300   0.822 -0.4443 -0.4321 -0.2008
  619THF     C9 8043   3.061   4.316   0.904 -0.5873 -0.4654 -0.0441
  619THF    H10 8044   3.174   4.257   0.723 -0.7456 -0.2791 -0.2251
  619THF    H11 8045   3.224   4.400   0.800 -1.9253  0.1459 -0.0980
  619THF    H12 8046   3.041   4.423   0.909 -0.0552 -0.3705  0.0673
  619THF    H13 8047   2.980   4.260   0.856 -0.8109 -0.5439  0.4270
  620THF     O1 8048   2.375   1.193   1.917 -0.3777  0.4574  0.0505
  620THF     C2 8049   2.326   1.086   1.842  0.3390 -0.5591 -0.7134
  620THF     C3 8050   2.297   1.209   2.029 -0.2566 -0.1698 -0.6479
  620THF     H4 8051   2.414   1.050   1.789  0.8068 -3.0627  1.5170
  620THF     H5 8052   2.248   1.120   1.774 -1.5792 -0.0370  1.6162
  620THF     H6 8053   2.346   1.276   2.100  0.8829 -0.8861 -0.7362
  620THF     H7 8054   2.201   1.257   2.007  0.2602  1.3379  0.1850
  620THF     C8 8055   2.272   1.065   2.076 -0.4527  0.4081 -0.4644
  620THF     C9 8056   2.278   0.986   1.942  0.5129 -0.7802 -0.1153
  620THF    H10 8057   2.174   1.059   2.124 -1.3992 -2.1605 -2.5332
  620THF    H11 8058   2.346   1.035   2.151  0.7215 -0.1610 -1.8146
  620THF    H12 8059   2.352   0.906   1.939  0.3076 -0.9583 -1.9252
  620THF    H13 8060   2.180   0.944   1.920  0.2745 -1.1257  1.4816
  621THF     O1 8061   2.689   4.781   4.380 -0.1789 -0.1748  0.9790
  621THF     C2 8062   2.644   4.813   4.248 -0.8458 -0.3030  0.3498
  621THF     C3 8063   2.807   4.694   4.367 -0.5497  0.9711 -0.5013
  621THF     H4 8064   2.607   4.915   4.240  0.2958  0.1294  0.3659
  621THF     H5 8065   2.561   4.748   4.220  0.9357 -1.5161 -2.5938
  621THF     H6 8066   2.891   4.752   4.406  0.5340  0.9240 -2.6162
  621THF     H7 8067   2.818   4.603   4.425  2.9922  1.0084 -0.8696
  621THF     C8 8068   2.825   4.670   4.221  0.1684 -0.7782  0.6234
  621THF     C9 8069   2.756   4.787   4.146  0.0946  0.9310  0.0680
  621THF    H10 8070   2.782   4.571   4.207 -2.9774  0.3398  1.5324
  621THF    H11 8071   2.931   4.683   4.199  0.1237 -1.8133 -0.2704
  621THF    H12 8072   2.823   4.871   4.125  0.5504  0.9038  1.3345
  621THF    H13 8073   2.713   4.751   4.053  0.8206  0.4245 -0.0778
  622THF     O1 8074   2.916   3.071   3.996  0.2263  0.1662 -0.5889
  622THF     C2 8075   2.839   3.184   4.051  0.0428 -0.2452  0.5665
  622THF     C3 8076   2.826   2.997   3.908 -0.0765  0.0833  0.4290
  622THF     H4 8077   2.899   3.268   4.085  1.0202 -0.8223  0.3182
  622THF     H5 8078   2.780   3.156   4.138  0.1725  2.9283  1.7728
  622THF     H6 8079   2.883   2.920   3.856 -0.6358  0.7725 -1.2632
  622THF     H7 8080   2.747   2.946   3.962 -0.5442 -1.2419 -1.4037
  622THF     C8 8081   2.759   3.111   3.827 -0.4880  0.0030 -0.8659
  622THF     C9 8082   2.747   3.229   3.931 -0.0868  0.2205  0.5560
  622THF    H10 8083   2.663   3.083   3.783 -0.1803  0.2740 -1.7458
  622THF    H11 8084   2.829   3.139   3.748  0.2213 -1.4530 -0.7730
  622THF    H12 8085   2.767   3.324   3.882 -1.5355 -0.1478 -0.8387
  622THF    H13 8086   2.645   3.232   3.969 -0.5486 -1.8698 -0.3623
  623THF     O1 8087   4.138   1.439   2.456 -0.0645  0.5137 -0.1178
  623THF     C2 8088   4.111   1.539   2.362 -0.5843  0.2892  0.4339
  623THF     C3 8089   4.216   1.495   2.559 -0.0897 -0.3089  0.4322
  623THF     H4 8090   4.032   1.512   2.292 -0.2695  1.7715 -0.5382
  623THF     H5 8091   4.200   1.535   2.299 -1.5869 -2.2742 -0.9602
  623THF     H6 8092   4.213   1.431   2.647  1.3488 -0.7229  0.2040
  623THF     H7 8093   4.316   1.508   2.518 -0.5218  1.2975 -0.1973
  623THF     C8 8094   4.164   1.633   2.584  0.5859 -0.3037  0.1635
  623THF     C9 8095   4.081   1.663   2.453 -0.6409  0.3823  0.5734
  623THF    H10 8096   4.239   1.709   2.605  1.7536 -1.1729 -0.6657
  623THF    H11 8097   4.103   1.637   2.674  0.0005  0.2115 -0.2481
  623THF    H12 8098   3.979   1.662   2.493  0.0846  1.3377  2.5920
  623THF    H13 8099   4.104   1.765   2.423  1.2950 -0.0283  0.5076
  624THF     O1 8100   5.155   3.846   2.058  0.0541 -0.3208 -0.0144
  624THF     C2 8101   5.226   3.811   2.179  0.2740 -0.2044  0.1214
  624THF     C3 8102   5.232   3.783   1.956 -0.2357  0.3011  0.2647
  624THF     H4 8103   5.156   3.827   2.260 -0.8097  2.1467 -1.1710
  624THF     H5 8104   5.313   3.876   2.185  0.3906 -0.2039 -1.2601
  624THF     H6 8105   5.190   3.788   1.856 -1.7902 -1.0376  0.7978
  624THF     H7 8106   5.322   3.845   1.948  0.0319 -0.3204 -2.5633
  624THF     C8 8107   5.268   3.644   2.007  0.2082 -0.0462 -0.3987
  624THF     C9 8108   5.270   3.666   2.159 -0.6927  0.0528 -0.0701
  624THF    H10 8109   5.358   3.606   1.957 -0.2588 -0.2768 -1.0722
  624THF    H11 8110   5.185   3.577   1.985  0.3350 -0.0059 -1.0203
  624THF    H12 8111   5.203   3.598   2.212  2.4105 -2.6986  0.7365
  624THF    H13 8112   5.363   3.639   2.210 -2.5652 -2.7148  2.2336
  625THF     O1 8113   3.148   2.906   2.366  0.8425 -0.2882  0.2753
  625THF     C2 8114   3.036   2.821   2.383 -0.3515  0.3005  0.0512
  625THF     C3 8115   3.103   3.028   2.301  0.1523 -0.4817 -0.2671
  625THF     H4 8116   3.044   2.790   2.488  0.1661 -1.0850 -0.3735
  625THF     H5 8117   3.036   2.731   2.322  0.2323  0.3810 -0.0659
  625THF     H6 8118   3.169   3.114   2.297 -0.1693 -0.2644 -0.9990
  625THF     H7 8119   3.100   2.997   2.197 -0.8173 -0.6863 -0.1907
  625THF     C8 8120   2.960   3.044   2.351  0.1809 -0.0221 -0.3293
  625THF     C9 8121   2.908   2.899   2.355 -0.1206 -0.6310 -0.5106
  625THF    H10 8122   2.893   3.105   2.290 -1.4968  1.7335  3.0200
  625THF    H11 8123   2.961   3.082   2.453  1.3001 -1.4869  0.2360
  625THF    H12 8124   2.833   2.877   2.431  0.2171 -0.6315 -0.1746
  625THF    H13 8125   2.865   2.871   2.258  0.2044  0.9318 -1.1350
  626THF     O1 8126   1.733   0.968   2.610 -0.5572 -0.0205  0.0834
  626THF     C2 8127   1.681   0.941   2.483 -0.0893  0.3232 -0.2841
  626THF     C3 8128   1.738   1.111   2.628 -0.4493  0.2337 -0.2684
  626THF     H4 8129   1.573   0.947   2.492  0.0223  1.3157  0.5473
  626THF     H5 8130   1.703   0.836   2.464  1.8351  0.9668 -1.9419
  626THF     H6 8131   1.639   1.142   2.662 -1.7672 -3.6426 -0.0471
  626THF     H7 8132   1.819   1.137   2.696 -0.0291 -1.0918 -0.2466
  626THF     C8 8133   1.764   1.167   2.480 -0.4367  0.0059  0.7035
  626THF     C9 8134   1.742   1.047   2.387  0.1769  0.0765  0.4633
  626THF    H10 8135   1.863   1.206   2.459  0.0585 -1.5180  0.1408
  626THF    H11 8136   1.697   1.249   2.454  0.0394  0.3360  0.5171
  626THF    H12 8137   1.682   1.074   2.299 -0.8742  3.2108  1.9692
  626THF    H13 8138   1.833   1.013   2.338  0.2960  0.7382  0.2072
  627THF     O1 8139   4.267   0.847   0.442 -0.2696  0.1939 -0.4956
  627THF     C2 8140   4.180   0.779   0.536  0.5142 -0.1027  0.3267
  627THF     C3 8141   4.394   0.875   0.500  0.3187 -0.3526 -0.3389
  627THF     H4 8142   4.104   0.719   0.486  0.1062 -0.0563  0.8806
  627THF     H5 8143   4.129   0.851   0.601  0.4534 -1.3881  1.7562
  627THF     H6 8144   4.468   0.910   0.429 -0.5928  1.5915 -0.3831
  627THF     H7 8145   4.402   0.950   0.579  0.1289 -1.4382  0.7420
  627THF     C8 8146   4.418   0.747   0.577 -0.9308  0.0453 -0.5228
  627THF     C9 8147   4.278   0.696   0.615 -0.1943 -0.4207  0.3501
  627THF    H10 8148   4.474   0.759   0.669  0.2701 -0.5839 -1.1353
  627THF    H11 8149   4.478   0.676   0.519 -2.1424 -1.9174  0.5334
  627THF    H12 8150   4.277   0.591   0.589  0.9064  0.0407 -1.7318
  627THF    H13 8151   4.251   0.711   0.720 -0.5811  1.5049  0.0253
  628THF     O1 8152   4.268   2.329   4.006 -0.5070  0.0180  0.0522
  628THF     C2 8153   4.281   2.405   3.883 -0.2152  0.0811  0.6390
  628THF     C3 8154   4.223   2.414   4.112  0.1615 -0.5991 -0.1620
  628THF     H4 8155   4.201   2.388   3.811  0.3190  1.3773 -0.2965
  628THF     H5 8156   4.369   2.380   3.823 -0.9551 -0.6777 -0.1595
  628THF     H6 8157   4.161   2.374   4.192  1.7671 -2.0919  0.4233
  628THF     H7 8158   4.309   2.447   4.171 -1.7026 -1.6004  3.4290
  628THF     C8 8159   4.169   2.538   4.039 -0.2109 -0.3795 -0.6306
  628THF     C9 8160   4.266   2.552   3.925 -0.4311 -0.3585 -0.4226
  628THF    H10 8161   4.170   2.627   4.103 -0.3127  0.1298 -1.3290
  628THF    H11 8162   4.069   2.512   4.004 -0.4130  0.0565 -0.3822
  628THF    H12 8163   4.235   2.620   3.846 -3.6015  0.0821  1.0755
  628THF    H13 8164   4.364   2.575   3.967 -0.5292 -2.0534  0.8264
  629THF     O1 8165   5.098   4.607   1.332  0.1011 -0.0194  0.2480
  629THF     C2 8166   5.125   4.620   1.473  0.1736 -0.3983 -0.1403
  629THF     C3 8167   5.124   4.465   1.304 -0.0177  0.2300 -0.3448
  629THF     H4 8168   5.047   4.580   1.538  0.8331 -1.8217 -0.1938
  629THF     H5 8169   5.152   4.724   1.495  1.2575 -0.8193  0.6278
  629THF     H6 8170   5.052   4.393   1.342  1.3214 -0.4376  1.0312
  629THF     H7 8171   5.127   4.455   1.196 -0.1853 -1.2935 -0.2199
  629THF     C8 8172   5.262   4.432   1.371 -0.5208 -0.1968  0.1753
  629THF     C9 8173   5.255   4.534   1.488  0.2847 -0.7264  0.1598
  629THF    H10 8174   5.347   4.457   1.308 -0.9512  0.9564  0.0286
  629THF    H11 8175   5.268   4.327   1.399  0.0738 -0.6728 -1.6390
  629THF    H12 8176   5.265   4.487   1.586 -2.3601  0.7665  1.2451
  629THF    H13 8177   5.335   4.608   1.486  0.1702 -0.5854  0.7587
  630THF     O1 8178   0.561   3.552   0.852 -0.1620  0.0360  0.5851
  630THF     C2 8179   0.491   3.427   0.826  0.0626  0.6932  0.5736
  630THF     C3 8180   0.594   3.545   0.991 -0.6300  0.4766 -0.0326
  630THF     H4 8181   0.527   3.406   0.726 -1.4264  1.4305 -0.1509
  630THF     H5 8182   0.385   3.441   0.808 -0.2826 -1.3708  0.7871
  630THF     H6 8183   0.671   3.620   1.006  1.2858 -0.6746 -3.1230
  630THF     H7 8184   0.513   3.575   1.057 -1.5760 -1.0914 -0.4315
  630THF     C8 8185   0.642   3.403   1.002  0.8150  0.5919  0.1988
  630THF     C9 8186   0.538   3.330   0.933 -0.2607  0.9817 -1.1837
  630THF    H10 8187   0.662   3.362   1.101 -1.7423 -0.7222  0.2556
  630THF    H11 8188   0.727   3.394   0.936 -0.1142  1.5055 -1.1691
  630THF    H12 8189   0.574   3.230   0.911 -0.8615 -0.0215  1.8943
  630THF    H13 8190   0.458   3.316   1.006 -0.1002 -0.8675 -1.3205
  631THF     O1 8191   3.796   4.909   0.497 -0.4412  0.1286 -0.0338
  631THF     C2 8192   3.817   4.899   0.636 -0.1528 -0.4770 -0.5291
  631THF     C3 8193   3.759   4.783   0.458 -0.1239  0.0613  0.1892
  631THF     H4 8194   3.839   4.998   0.675  1.4484 -1.1530  0.3755
  631THF     H5 8195   3.908   4.840   0.648 -1.0875 -1.6662  0.9869
  631THF     H6 8196   3.692   4.799   0.373  1.0355  0.4831 -0.6635
  631THF     H7 8197   3.840   4.716   0.429 -0.5603 -0.2109 -0.4235
  631THF     C8 8198   3.684   4.723   0.576  0.2504  0.4549 -0.3234
  631THF     C9 8199   3.694   4.823   0.683  0.3291  0.6058 -0.4277
  631THF    H10 8200   3.740   4.638   0.614  1.2218  1.5305  0.7509
  631THF    H11 8201   3.582   4.696   0.549  0.4943 -1.5261  0.5731
  631THF    H12 8202   3.605   4.885   0.681  0.4696  0.7899 -0.8559
  631THF    H13 8203   3.704   4.792   0.787 -1.0126 -2.3264 -1.0689
  632THF     O1 8204   4.540   3.741   1.129  0.5741  0.5067  0.1982
  632THF     C2 8205   4.440   3.817   1.191 -0.3895  0.1487  0.2496
  632THF     C3 8206   4.467   3.643   1.061  0.1055  0.1527 -0.5095
  632THF     H4 8207   4.489   3.912   1.211 -0.9941  0.6350 -0.5631
  632THF     H5 8208   4.419   3.766   1.286  0.0721 -0.7971 -0.1375
  632THF     H6 8209   4.517   3.606   0.972  2.8313  0.0330  0.9699
  632THF     H7 8210   4.453   3.556   1.125  2.1415 -0.5298 -0.9199
  632THF     C8 8211   4.338   3.699   1.014  0.2806  0.0270  0.3565
  632THF     C9 8212   4.317   3.824   1.096  0.0864  0.2635 -0.2972
  632THF    H10 8213   4.257   3.626   1.023 -2.1188  2.2932 -1.1091
  632THF    H11 8214   4.356   3.722   0.909  1.2136  0.9617  0.7015
  632THF    H12 8215   4.312   3.911   1.031 -1.9278 -0.0912 -0.6788
  632THF    H13 8216   4.225   3.815   1.153 -0.4584 -1.5797 -1.3769
  633THF     O1 8217   3.339   5.392   0.507 -0.6465 -0.3067 -0.5287
  633THF     C2 8218   3.286   5.317   0.614  0.1820 -0.5630 -0.6835
  633THF     C3 8219   3.267   5.520   0.506  0.1470  0.3084  0.5901
  633THF     H4 8220   3.342   5.349   0.702  0.5190  0.2952 -1.1974
  633THF     H5 8221   3.323   5.217   0.591 -0.5499 -1.0929  0.3243
  633THF     H6 8222   3.290   5.591   0.586  2.7155  1.2303 -0.8381
  633THF     H7 8223   3.270   5.567   0.408  0.7033 -0.2856  0.3124
  633THF     C8 8224   3.129   5.444   0.507 -0.4157 -0.0729  0.1486
  633THF     C9 8225   3.130   5.332   0.614 -0.4907  0.3092  0.1783
  633THF    H10 8226   3.109   5.398   0.411 -0.2222 -0.0017  0.0740
  633THF    H11 8227   3.057   5.525   0.524  3.0513  3.3281  0.0022
  633THF    H12 8228   3.106   5.377   0.710 -0.9184 -0.2806  0.3506
  633THF    H13 8229   3.061   5.249   0.602  0.5374 -1.2334  3.7581
  634THF     O1 8230   3.519   2.946   3.482 -0.1331 -0.0554 -0.6077
  634THF     C2 8231   3.583   2.887   3.590 -0.3791  0.2919  0.1551
  634THF     C3 8232   3.550   2.873   3.363 -0.7255  0.0933 -0.2319
  634THF     H4 8233   3.524   2.808   3.637 -1.5005  0.1778 -1.3772
  634THF     H5 8234   3.600   2.970   3.659 -1.1374  0.6734 -0.1081
  634THF     H6 8235   3.493   2.781   3.371  0.2758 -0.5571 -0.4430
  634THF     H7 8236   3.522   2.919   3.268 -0.3610  0.9371  0.0597
  634THF     C8 8237   3.695   2.838   3.375 -0.0148 -0.1113  0.0691
  634THF     C9 8238   3.721   2.841   3.524 -0.0990 -0.1321  0.6871
  634THF    H10 8239   3.756   2.912   3.323 -1.0546 -0.4519 -1.7603
  634THF    H11 8240   3.726   2.746   3.325 -0.0104  0.7828 -1.6559
  634THF    H12 8241   3.767   2.748   3.555 -0.0973 -0.3406  0.0706
  634THF    H13 8242   3.806   2.904   3.548  0.4809 -0.6889  0.0983
  635THF     O1 8243   4.433   2.755   0.204 -0.6318 -0.1841  0.1737
  635THF     C2 8244   4.555   2.745   0.126  0.1285 -0.2314  0.0471
  635THF     C3 8245   4.360   2.632   0.176  0.2480  0.0176 -0.1520
  635THF     H4 8246   4.627   2.673   0.165 -0.6455 -1.4778 -0.7525
  635THF     H5 8247   4.599   2.845   0.121 -0.7070  0.1588  0.1988
  635THF     H6 8248   4.411   2.549   0.225  0.1869  1.5350  2.6846
  635THF     H7 8249   4.254   2.630   0.201 -0.5445 -0.8814 -3.0976
  635THF     C8 8250   4.381   2.605   0.030 -0.4495 -0.2381 -0.5384
  635THF     C9 8251   4.500   2.688  -0.003  0.2363 -0.7610  0.2391
  635THF    H10 8252   4.295   2.628  -0.032 -1.7066 -2.2219  0.3492
  635THF    H11 8253   4.403   2.500   0.010 -1.1640 -0.3298 -0.8626
  635THF    H12 8254   4.583   2.636  -0.051  2.2448  2.4555 -0.0713
  635THF    H13 8255   4.469   2.770  -0.067  0.6502  0.9926  2.1962
  636THF     O1 8256   2.164   1.853   4.545  0.5316 -0.3964 -0.1403
  636THF     C2 8257   2.185   1.802   4.677  0.3361  0.1081 -0.2412
  636THF     C3 8258   2.081   1.758   4.481 -0.7323  0.0383 -0.0774
  636THF     H4 8259   2.213   1.881   4.747 -1.3351 -0.3867  1.0719
  636THF     H5 8260   2.260   1.723   4.675  0.7109  0.4731 -0.6346
  636THF     H6 8261   2.028   1.802   4.396 -0.1254 -1.9573 -1.5596
  636THF     H7 8262   2.134   1.673   4.439 -0.2253  1.2276 -2.0001
  636THF     C8 8263   1.978   1.719   4.585 -0.9613 -0.2277  0.1002
  636THF     C9 8264   2.042   1.756   4.718  0.3292 -0.5392 -0.2774
  636THF    H10 8265   1.960   1.612   4.582 -0.4736 -0.4182  2.4389
  636THF    H11 8266   1.884   1.774   4.576 -1.1033 -0.3808  0.6027
  636THF    H12 8267   1.976   1.833   4.756 -0.8708 -2.2489  1.3244
  636THF    H13 8268   2.050   1.678   4.794 -0.5907  0.7869  1.2469
  637THF     O1 8269   2.680   1.841   2.079 -0.5070 -0.4996  0.1330
  637THF     C2 8270   2.682   1.811   1.940 -0.7501  0.0324  0.1543
  637THF     C3 8271   2.779   1.940   2.098 -0.5484  0.1468 -0.5248
  637THF     H4 8272   2.609   1.875   1.890 -1.7156 -0.1017  1.3180
  637THF     H5 8273   2.654   1.706   1.934  0.5491 -0.4364  1.5868
  637THF     H6 8274   2.752   2.030   2.043 -2.0063 -0.9985 -1.7731
  637THF     H7 8275   2.795   1.950   2.205 -1.4836  0.2472 -0.3858
  637THF     C8 8276   2.891   1.869   2.028 -0.3002  0.0146 -0.3870
  637THF     C9 8277   2.830   1.816   1.902 -0.3452 -0.5084  0.0269
  637THF    H10 8278   2.938   1.785   2.079  1.0532  0.4140 -0.9197
  637THF    H11 8279   2.971   1.941   2.007 -0.5595  1.0722  1.9170
  637THF    H12 8280   2.850   1.884   1.820  0.3165  1.8408  2.0008
  637THF    H13 8281   2.874   1.720   1.876  1.2772  0.6722 -1.8337
  638THF     O1 8282   3.901   4.442   2.473 -0.1921 -0.8897 -0.2391
  638THF     C2 8283   4.042   4.416   2.456  0.0872 -0.1939  0.2661
  638THF     C3 8284   3.834   4.319   2.469  0.2153 -0.3079  0.1239
  638THF     H4 8285   4.100   4.501   2.495 -0.5826  0.0418  0.7708
  638THF     H5 8286   4.068   4.414   2.350  0.2640 -1.9420  0.3210
  638THF     H6 8287   3.746   4.324   2.532 -0.3444  3.2095 -0.7258
  638THF     H7 8288   3.808   4.291   2.368  0.3077  1.4531 -0.4254
  638THF     C8 8289   3.924   4.212   2.532  0.1499  0.3870  0.0306
  638THF     C9 8290   4.057   4.283   2.527 -0.2918  0.4368 -0.5316
  638THF    H10 8291   3.912   4.119   2.477 -0.8449 -0.1305  1.0630
  638THF    H11 8292   3.906   4.193   2.638  2.3793 -1.6300  0.1240
  638THF    H12 8293   4.089   4.299   2.630  0.0726  0.2853 -0.6189
  638THF    H13 8294   4.130   4.225   2.471 -0.3206 -1.8363  1.5998
  639THF     O1 8295   2.190   0.664   0.301 -0.0820  0.3150  0.8806
  639THF     C2 8296   2.296   0.613   0.380 -0.2532  0.5423 -0.2437
  639THF     C3 8297   2.068   0.601   0.337  0.0341 -0.2667 -0.3719
  639THF     H4 8298   2.288   0.654   0.481  2.0097  0.3546  0.0634
  639THF     H5 8299   2.390   0.639   0.330 -0.5362 -0.1385 -1.1586
  639THF     H6 8300   2.029   0.672   0.410 -0.2901  0.4877 -1.2592
  639THF     H7 8301   2.005   0.605   0.248  0.2155  2.4819 -0.4689
  639THF     C8 8302   2.103   0.459   0.385  0.0869  0.5967 -0.9078
  639THF     C9 8303   2.260   0.470   0.400  0.1008 -0.0968 -0.2650
  639THF    H10 8304   2.079   0.397   0.298 -0.2988  0.0875 -0.4524
  639THF    H11 8305   2.052   0.416   0.472 -1.9696  1.1348 -1.7906
  639THF    H12 8306   2.296   0.428   0.494  1.1793 -0.8863 -0.9961
  639THF    H13 8307   2.309   0.404   0.329  0.0646 -0.0757 -0.3101
  640THF     O1 8308   4.718   3.993   2.182 -0.3915  0.4898 -0.3017
  640THF     C2 8309   4.760   3.869   2.127  0.8571 -0.9038 -0.2915
  640THF     C3 8310   4.834   4.041   2.261  0.4199 -0.0669 -0.0538
  640THF     H4 8311   4.824   3.887   2.041  0.2331 -1.1492 -0.8133
  640THF     H5 8312   4.677   3.804   2.099 -2.3483  2.6070  0.1323
  640THF     H6 8313   4.904   4.082   2.188  1.4110  1.2914  1.5773
  640THF     H7 8314   4.791   4.118   2.326 -2.0132 -0.7812 -0.6952
  640THF     C8 8315   4.876   3.916   2.333  0.1946 -0.1460 -0.3052
  640THF     C9 8316   4.845   3.802   2.235 -0.6011 -0.5428 -0.1174
  640THF    H10 8317   4.834   3.906   2.433  1.6272 -1.5472  0.1999
  640THF    H11 8318   4.984   3.930   2.343  0.5160 -1.6110 -1.3816
  640THF    H12 8319   4.941   3.762   2.202  0.0523  1.1630 -0.3845
  640THF    H13 8320   4.789   3.717   2.273 -1.8386  0.3126  0.0516
  641THF     O1 8321   0.961   0.378   0.708 -0.0648  0.0543  0.4905
  641THF     C2 8322   1.013   0.307   0.815 -0.4054  0.4093  0.8683
  641THF     C3 8323   0.857   0.459   0.764  0.6859 -0.2387  0.4705
  641THF     H4 8324   1.086   0.369   0.868  1.2127  1.3600 -2.2298
  641THF     H5 8325   1.078   0.226   0.782 -0.9659 -0.0813  0.9616
  641THF     H6 8326   0.888   0.549   0.818  1.2333 -1.0552  1.5584
  641THF     H7 8327   0.784   0.488   0.688 -0.9602 -1.3335  1.5751
  641THF     C8 8328   0.792   0.358   0.864  0.4434  0.7189 -0.1687
  641THF     C9 8329   0.904   0.261   0.900  0.2626  0.7148  0.3204
  641THF    H10 8330   0.710   0.299   0.823  1.0171 -1.5300  1.6823
  641THF    H11 8331   0.755   0.413   0.951  1.9133  3.0461 -0.9583
  641THF    H12 8332   0.927   0.233   1.003  0.4964  0.4547  0.1958
  641THF    H13 8333   0.874   0.167   0.856  2.0606  0.6294 -0.7918
  642THF     O1 8334   2.529   2.778   4.625 -0.2796  1.0785 -0.3104
  642THF     C2 8335   2.486   2.889   4.549 -0.2061  0.2926  0.6192
  642THF     C3 8336   2.640   2.832   4.707  0.7499 -0.1546  0.1366
  642THF     H4 8337   2.392   2.860   4.501  0.0528 -2.0250  1.3696
  642THF     H5 8338   2.567   2.907   4.478  1.9924  0.0992  2.9391
  642THF     H6 8339   2.652   2.779   4.802  0.9098  0.9610  0.7498
  642THF     H7 8340   2.736   2.835   4.657  0.3741  1.1265 -0.5415
  642THF     C8 8341   2.601   2.974   4.738  0.4262 -0.1324  0.0892
  642THF     C9 8342   2.477   2.996   4.650  0.0046 -0.3577 -0.6356
  642THF    H10 8343   2.685   3.040   4.713  0.0540  0.1970 -0.3079
  642THF    H11 8344   2.597   3.003   4.843  0.1046 -0.3173  0.1282
  642THF    H12 8345   2.392   2.982   4.717  0.9606 -0.5413  0.5806
  642THF    H13 8346   2.461   3.097   4.613  1.0239 -0.9818 -2.9529
  643THF     O1 8347   4.137   0.702   1.637 -0.2771 -0.1555 -0.2062
  643THF     C2 8348   4.272   0.710   1.590 -0.6060  0.1441 -0.4196
  643THF     C3 8349   4.066   0.617   1.545 -0.7072  0.0477 -0.1633
  643THF     H4 8350   4.327   0.619   1.612  0.8274  1.2521  0.6928
  643THF     H5 8351   4.321   0.789   1.646  1.5276 -0.2843 -1.5808
  643THF     H6 8352   4.089   0.512   1.563 -0.2833  0.3225  0.9475
  643THF     H7 8353   3.958   0.616   1.560 -0.7409  1.3067 -0.2224
  643THF     C8 8354   4.118   0.654   1.408 -0.5876  0.0062 -0.3826
  643THF     C9 8355   4.247   0.732   1.439  0.1872  0.3381  0.3599
  643THF    H10 8356   4.044   0.715   1.356  0.0856  2.6199  1.5182
  643THF    H11 8357   4.143   0.559   1.359  0.8049 -0.0549  0.3953
  643THF    H12 8358   4.319   0.682   1.375  0.4290  2.0984 -0.7908
  643THF    H13 8359   4.240   0.834   1.403  1.0842  0.2648 -0.0586
  644THF     O1 8360   2.691   3.028   5.304  0.3603  0.1145  0.5021
  644THF     C2 8361   2.718   2.981   5.171  0.0910  0.2089 -0.8502
  644THF     C3 8362   2.645   2.910   5.372  0.3578 -0.0025 -0.5360
  644THF     H4 8363   2.814   2.930   5.173 -0.9478 -1.8423  0.6058
  644THF     H5 8364   2.726   3.061   5.097 -0.2522 -0.8152 -2.0292
  644THF     H6 8365   2.724   2.839   5.399 -0.6796 -1.7973 -2.0241
  644THF     H7 8366   2.586   2.929   5.461 -1.3096  0.9295 -1.7950
  644THF     C8 8367   2.553   2.844   5.261  0.4065  0.2493 -0.0447
  644THF     C9 8368   2.602   2.893   5.130 -0.5853  0.0579 -0.2941
  644THF    H10 8369   2.450   2.871   5.283  0.1177  1.4693 -2.5173
  644THF    H11 8370   2.578   2.739   5.275 -0.0973  0.3577  1.9276
  644THF    H12 8371   2.639   2.823   5.056  3.5915  3.2727 -1.6559
  644THF    H13 8372   2.525   2.947   5.075  0.2078  2.5537  0.8953
  645THF     O1 8373   3.232   1.249   3.204  0.2117  0.2720 -0.0356
  645THF     C2 8374   3.100   1.188   3.217  0.3535  0.4311  0.4567
  645THF     C3 8375   3.220   1.336   3.089 -0.3278  0.4611  0.4048
  645THF     H4 8376   3.063   1.192   3.319  0.4543  1.1915  0.4703
  645THF     H5 8377   3.120   1.083   3.193  0.3674  1.1568 -3.4381
  645THF     H6 8378   3.194   1.433   3.130 -1.6484  1.1749 -1.9533
  645THF     H7 8379   3.307   1.345   3.023  0.6625  2.4398  1.8913
  645THF     C8 8380   3.099   1.290   3.007 -0.3774 -0.3642 -0.5625
  645THF     C9 8381   3.002   1.236   3.114 -0.4973 -0.0752  0.1771
  645THF    H10 8382   3.131   1.211   2.939  1.0638 -1.6755  1.5347
  645THF    H11 8383   3.050   1.369   2.949 -0.9839  0.0263  0.4522
  645THF    H12 8384   2.934   1.309   3.159 -0.2647  0.3896 -0.2171
  645THF    H13 8385   2.934   1.163   3.069 -0.4331  0.1197 -0.2433
  646THF     O1 8386   2.840   1.024   1.780  0.0864 -0.5942  0.3652
  646THF     C2 8387   2.763   1.076   1.892  0.0392 -0.0701  0.0681
  646THF     C3 8388   2.752   0.930   1.719 -0.3313  0.5099  0.3523
  646THF     H4 8389   2.699   1.156   1.855  0.7767 -0.4729 -2.2490
  646THF     H5 8390   2.826   1.109   1.975  3.1160 -0.9630 -1.7472
  646THF     H6 8391   2.680   0.982   1.657  0.1408  0.1411 -0.5177
  646THF     H7 8392   2.819   0.866   1.662 -1.1776  1.0254 -1.2738
  646THF     C8 8393   2.686   0.864   1.837  0.0156 -0.0078  0.7710
  646THF     C9 8394   2.674   0.964   1.952 -0.6461  0.2832 -0.2336
  646THF    H10 8395   2.741   0.776   1.871  0.7513  0.5570  1.0590
  646THF    H11 8396   2.594   0.811   1.812 -0.3971  0.8468  0.4695
  646THF    H12 8397   2.568   0.987   1.961 -0.5041  0.4563  1.2476
  646THF    H13 8398   2.712   0.931   2.049  1.7225  0.5849 -0.9790
  647THF     O1 8399   3.318   2.732   2.969  0.5547 -0.0608 -0.4614
  647THF     C2 8400   3.438   2.678   2.917 -0.0122  0.0267 -0.2486
  647THF     C3 8401   3.300   2.860   2.914  0.8441  0.2452 -0.0553
  647THF     H4 8402   3.432   2.571   2.899  0.1501 -0.3797  1.8410
  647THF     H5 8403   3.525   2.698   2.981  0.0387 -2.9265  0.7656
  647THF     H6 8404   3.199   2.896   2.931  0.6412  0.2758 -1.2182
  647THF     H7 8405   3.378   2.918   2.963  1.2427  0.8112 -1.3126
  647THF     C8 8406   3.339   2.844   2.764 -0.7036 -0.1426 -0.0389
  647THF     C9 8407   3.457   2.747   2.782  0.2461 -0.0140 -0.2287
  647THF    H10 8408   3.363   2.935   2.711 -1.2268  0.5748  0.9257
  647THF    H11 8409   3.265   2.788   2.706 -1.2726  1.6116 -1.0641
  647THF    H12 8410   3.460   2.665   2.711 -0.4284 -2.0337  1.9591
  647THF    H13 8411   3.555   2.791   2.762  0.7483 -1.4067 -0.9538
  648THF     O1 8412   5.460   3.697   3.319 -0.2623 -0.4093  0.0788
  648THF     C2 8413   5.479   3.558   3.298  0.3477 -0.1953 -0.5098
  648THF     C3 8414   5.509   3.736   3.445 -0.3195  0.0755  0.2156
  648THF     H4 8415   5.551   3.531   3.221 -0.9386 -0.8631 -1.5236
  648THF     H5 8416   5.381   3.520   3.269 -0.4406  1.4279 -0.0913
  648THF     H6 8417   5.616   3.758   3.442 -0.3997  0.6246  1.0343
  648THF     H7 8418   5.453   3.823   3.478 -1.7596 -0.3479 -1.0390
  648THF     C8 8419   5.473   3.614   3.529 -1.1987  0.3466 -0.1257
  648THF     C9 8420   5.521   3.506   3.438  0.5437  0.2201  0.4416
  648THF    H10 8421   5.365   3.605   3.543 -1.2574 -2.7856 -1.6825
  648THF    H11 8422   5.526   3.615   3.624  1.7070  0.5377 -1.6356
  648THF    H12 8423   5.629   3.493   3.436  0.6042  0.5401  1.3646
  648THF    H13 8424   5.472   3.410   3.455  1.2179 -0.6894 -2.2018
  649THF     O1 8425   1.123   1.281   1.099  0.5275  0.3402 -0.4372
  649THF     C2 8426   1.079   1.247   1.232 -0.4322 -0.2445  0.4777
  649THF     C3 8427   1.200   1.399   1.116  0.2113  0.5993 -0.0764
  649THF     H4 8428   1.033   1.148   1.222  3.3269 -2.1699  0.0621
  649THF     H5 8429   1.016   1.325   1.273 -1.3401 -1.2458  1.0215
  649THF     H6 8430   1.267   1.407   1.030 -0.0063 -1.4000 -0.4861
  649THF     H7 8431   1.147   1.494   1.121 -1.0496 -0.1477  4.1886
  649THF     C8 8432   1.274   1.363   1.249  0.8655 -0.0271  1.0369
  649THF     C9 8433   1.212   1.234   1.293  0.1568 -0.3405 -0.8057
  649THF    H10 8434   1.252   1.436   1.327  1.3036  1.1921  0.0767
  649THF    H11 8435   1.382   1.364   1.240  0.9579 -0.2798  2.0593
  649THF    H12 8436   1.264   1.144   1.260  0.3587 -0.0250 -1.3660
  649THF    H13 8437   1.194   1.233   1.400 -1.4314 -1.6075 -1.0493
  650THF     O1 8438   2.485   4.061   2.575 -0.4838 -0.2374  0.3068
  650THF     C2 8439   2.422   4.060   2.448  0.0730 -0.3254 -0.4711
  650THF     C3 8440   2.548   3.935   2.588  0.1990 -0.3608 -0.6216
  650THF     H4 8441   2.388   4.161   2.423 -0.4859 -0.0839  1.1070
  650THF     H5 8442   2.336   3.993   2.449  1.0558 -1.6563  1.2290
  650THF     H6 8443   2.616   3.940   2.672  2.3661 -2.0820 -2.1554
  650THF     H7 8444   2.469   3.871   2.627  0.1014  0.6334  0.8748
  650THF     C8 8445   2.600   3.899   2.447  0.5279  0.2736 -0.0596
  650THF     C9 8446   2.541   4.008   2.363 -0.0930 -0.1680 -0.1847
  650THF    H10 8447   2.575   3.797   2.418 -1.8086  0.7471  0.1448
  650THF    H11 8448   2.707   3.919   2.449  0.7757 -0.9107  2.7760
  650THF    H12 8449   2.618   4.085   2.364  0.8008 -1.0229  2.2456
  650THF    H13 8450   2.514   3.977   2.262  0.2516 -0.1099 -0.2971
  651THF     O1 8451   2.665   3.782   1.537 -0.6534  0.2876  0.5811
  651THF     C2 8452   2.695   3.652   1.576 -0.2031  0.2811  0.2984
  651THF     C3 8453   2.595   3.855   1.632 -0.6449 -0.1785 -0.4114
  651THF     H4 8454   2.780   3.618   1.516  0.7927  0.5382  1.5263
  651THF     H5 8455   2.602   3.596   1.561 -1.0194  1.5130  0.6313
  651THF     H6 8456   2.611   3.963   1.619 -0.7267 -0.1869 -0.5785
  651THF     H7 8457   2.489   3.831   1.633 -0.9940  1.2304  1.1950
  651THF     C8 8458   2.652   3.793   1.764  0.0110 -0.1176 -0.0750
  651THF     C9 8459   2.726   3.671   1.721  0.2022 -0.2821  1.3491
  651THF    H10 8460   2.579   3.778   1.843  1.9187 -1.0924  1.6083
  651THF    H11 8461   2.725   3.863   1.805 -0.3032 -0.7619  1.6497
  651THF    H12 8462   2.833   3.674   1.741  0.4679  2.2869 -0.0441
  651THF    H13 8463   2.695   3.581   1.773  0.3690 -0.0344  1.8912
  652THF     O1 8464   2.251   3.698   3.565 -0.5271 -0.0758  0.4949
  652THF     C2 8465   2.192   3.808   3.627  0.1955  0.5969 -0.5734
  652THF     C3 8466   2.196   3.694   3.435  0.1635 -0.3607  0.0656
  652THF     H4 8467   2.253   3.823   3.717  0.5511 -1.0386 -0.5110
  652THF     H5 8468   2.092   3.787   3.664  0.0078  2.3614  0.0220
  652THF     H6 8469   2.258   3.641   3.362  0.9746  1.8380 -0.9061
  652THF     H7 8470   2.096   3.652   3.440  0.5124 -1.2126  0.0821
  652THF     C8 8471   2.203   3.843   3.394 -0.1006 -0.9150 -0.0144
  652THF     C9 8472   2.199   3.923   3.526  0.1807 -0.2275  0.4189
  652THF    H10 8473   2.127   3.878   3.325  0.9823 -0.2126 -0.8839
  652THF    H11 8474   2.307   3.858   3.363  0.5449 -1.8185  1.5617
  652THF    H12 8475   2.280   3.993   3.547 -1.4099  0.9591  3.2518
  652THF    H13 8476   2.119   3.996   3.536  0.3424 -0.0743  0.6093
  653THF     O1 8477   1.342   0.466   2.252 -0.0321 -0.0246 -0.2426
  653THF     C2 8478   1.225   0.386   2.267 -0.7272 -0.4112 -0.1573
  653THF     C3 8479   1.322   0.597   2.302 -0.3935  0.1611 -0.0997
  653THF     H4 8480   1.233   0.312   2.347 -0.3280 -2.0287 -1.6064
  653THF     H5 8481   1.191   0.352   2.169 -2.7287 -1.1074  0.7331
  653THF     H6 8482   1.407   0.624   2.364 -0.6789  1.1294 -0.1065
  653THF     H7 8483   1.320   0.667   2.218  0.9961 -0.5208 -0.7279
  653THF     C8 8484   1.193   0.593   2.389 -0.5548  0.2163 -0.6920
  653THF     C9 8485   1.119   0.479   2.320  0.0889  0.2118 -0.3378
  653THF    H10 8486   1.131   0.681   2.370  1.7130  1.5246 -2.4342
  653THF    H11 8487   1.216   0.566   2.492  0.3514  1.5427 -0.5256
  653THF    H12 8488   1.069   0.420   2.396  0.9384 -0.1852 -0.0634
  653THF    H13 8489   1.059   0.526   2.243  0.5662  1.4816  0.0408
  654THF     O1 8490   4.837   4.751   0.878  0.2707 -0.0187  0.7194
  654THF     C2 8491   4.847   4.614   0.922 -0.1772 -0.1842 -0.1746
  654THF     C3 8492   4.926   4.764   0.768  0.0969 -0.7047 -0.3907
  654THF     H4 8493   4.783   4.550   0.860  2.4283 -2.0216 -1.1321
  654THF     H5 8494   4.816   4.609   1.027 -1.2487 -2.0109 -0.5155
  654THF     H6 8495   4.880   4.728   0.676 -0.2837  0.0323 -0.4972
  654THF     H7 8496   4.951   4.867   0.741  0.1599 -0.5560  0.2175
  654THF     C8 8497   5.046   4.679   0.799 -0.3475 -0.0435 -0.1699
  654THF     C9 8498   4.994   4.571   0.896  0.5762  0.5305  0.0863
  654THF    H10 8499   5.134   4.726   0.842  0.9325 -1.4544 -1.1563
  654THF    H11 8500   5.083   4.634   0.707  0.5405 -0.2714  0.2975
  654THF    H12 8501   5.002   4.478   0.840  0.8878  1.0662 -0.7764
  654THF    H13 8502   5.051   4.565   0.989 -2.3781  1.0085  2.0958
  655THF     O1 8503   1.244   4.365   3.503 -0.0648  0.2968  0.1222
  655THF     C2 8504   1.252   4.402   3.639  0.2131 -0.5721 -0.8462
  655THF     C3 8505   1.341   4.267   3.476  0.2469  0.5369 -0.0668
  655THF     H4 8506   1.152   4.429   3.674 -0.8739 -3.5189 -1.3714
  655THF     H5 8507   1.324   4.483   3.651 -0.1862 -0.3790  0.3811
  655THF     H6 8508   1.303   4.180   3.422  2.4038 -1.7919  1.8535
  655THF     H7 8509   1.414   4.325   3.419 -0.4313  2.3225  0.8029
  655THF     C8 8510   1.409   4.222   3.611  0.6959  0.3485  0.0813
  655THF     C9 8511   1.293   4.270   3.707 -0.3283 -0.0265  0.3557
  655THF    H10 8512   1.498   4.285   3.606  0.5285  0.4987 -3.1978
  655THF    H11 8513   1.435   4.117   3.622 -3.4942 -1.0878 -1.5231
  655THF    H12 8514   1.217   4.193   3.712 -1.4404  1.1213  2.3736
  655THF    H13 8515   1.330   4.284   3.808  1.4554  1.7695 -0.4466
  656THF     O1 8516   5.030   4.617   3.313 -0.6248 -0.3266  0.0658
  656THF     C2 8517   5.056   4.657   3.454 -0.2692  0.2740  0.9296
  656THF     C3 8518   5.147   4.563   3.260 -0.5389 -0.4989 -0.8353
  656THF     H4 8519   5.076   4.562   3.504  3.0806 -1.3547 -2.9614
  656THF     H5 8520   4.978   4.720   3.496 -0.6032  4.3913 -4.7153
  656THF     H6 8521   5.174   4.472   3.312  2.3792  0.6507 -0.1745
  656THF     H7 8522   5.160   4.559   3.152  1.2688 -0.6504 -0.6395
  656THF     C8 8523   5.246   4.679   3.305  0.2527  0.3003  0.0329
  656THF     C9 8524   5.186   4.733   3.434  0.3116  0.7094 -0.2571
  656THF    H10 8525   5.246   4.764   3.237  2.0254  0.5848  0.3281
  656THF    H11 8526   5.350   4.645   3.310  0.3213  0.4353 -0.4233
  656THF    H12 8527   5.252   4.733   3.520  0.6523  3.3360 -0.4420
  656THF    H13 8528   5.149   4.836   3.431  0.4123  0.7389 -0.5261
  657THF     O1 8529   4.309   0.165   0.638  0.2855  0.0479  0.1536
  657THF     C2 8530   4.437   0.118   0.678 -0.5447  0.4114  0.9731
  657THF     C3 8531   4.321   0.305   0.619 -0.2351  0.2916  0.7443
  657THF     H4 8532   4.444   0.021   0.629  1.1008  1.7734 -1.7434
  657THF     H5 8533   4.438   0.101   0.785 -2.4819 -1.2710  0.7814
  657THF     H6 8534   4.242   0.331   0.548  1.0348 -0.3093 -0.9457
  657THF     H7 8535   4.317   0.361   0.712 -0.8028 -3.1863  2.9770
  657THF     C8 8536   4.455   0.310   0.549  0.4546  0.3307 -0.4709
  657THF     C9 8537   4.541   0.216   0.624  0.0478  0.5887 -0.2092
  657THF    H10 8538   4.487   0.415   0.550 -1.2429  0.8800 -0.6050
  657THF    H11 8539   4.439   0.282   0.445 -0.4550  0.0094 -0.2530
  657THF    H12 8540   4.607   0.154   0.563 -2.1755 -0.7943 -1.3464
  657THF    H13 8541   4.598   0.274   0.696  1.6723 -0.8337 -0.2778
  658THF     O1 8542   0.373   2.593   2.622 -0.6088  0.0308  0.1752
  658THF     C2 8543   0.496   2.541   2.570 -0.6462 -0.4852 -0.0915
  658THF     C3 8544   0.385   2.623   2.761  0.9540  0.1825  0.4141
  658THF     H4 8545   0.512   2.555   2.463  2.8507  0.5727  0.4611
  658THF     H5 8546   0.509   2.441   2.612 -0.7692 -0.5687 -0.2518
  658THF     H6 8547   0.328   2.709   2.797  1.4118  1.1709 -1.1201
  658THF     H7 8548   0.342   2.531   2.801  2.2877 -0.6521  0.0128
  658THF     C8 8549   0.531   2.641   2.786  0.5007 -0.2926  0.1555
  658THF     C9 8550   0.595   2.631   2.648 -0.0750  0.9596  0.4004
  658THF    H10 8551   0.567   2.568   2.858  3.5563  1.5201  0.6294
  658THF    H11 8552   0.560   2.741   2.821  1.0191 -0.5700  0.5312
  658THF    H12 8553   0.595   2.729   2.601  0.5922  0.5856 -0.4010
  658THF    H13 8554   0.697   2.596   2.661 -0.4494 -1.1793 -1.6257
  659THF     O1 8555   4.698   3.152   4.592 -0.6043 -0.2624  0.1525
  659THF     C2 8556   4.599   3.241   4.546  0.6843 -0.0375  0.1573
  659THF     C3 8557   4.636   3.056   4.678  0.0444 -0.0040  0.1464
  659THF     H4 8558   4.594   3.215   4.440  0.6186 -2.7961  0.7604
  659THF     H5 8559   4.642   3.341   4.551  1.9638 -0.4327 -1.8965
  659THF     H6 8560   4.668   2.952   4.667 -2.6224 -0.9725  0.7617
  659THF     H7 8561   4.663   3.090   4.778 -0.5153  0.5079  0.1312
  659THF     C8 8562   4.492   3.076   4.649  0.3990  0.5996  0.0156
  659THF     C9 8563   4.478   3.223   4.636  0.0704  0.0865  0.3275
  659THF    H10 8564   4.430   3.032   4.728  2.1505 -1.6690  0.2471
  659THF    H11 8565   4.464   3.038   4.551 -2.5346  3.4416 -0.4125
  659THF    H12 8566   4.388   3.257   4.586 -0.0472  0.4996  0.8206
  659THF    H13 8567   4.492   3.264   4.736 -1.3933 -1.9814  1.4796
  660THF     O1 8568   3.859   2.603   3.807  0.0082 -1.2684 -0.4136
  660THF     C2 8569   3.726   2.652   3.834  0.3526  0.1436 -0.4580
  660THF     C3 8570   3.866   2.475   3.741 -0.4148 -0.5519  0.1582
  660THF     H4 8571   3.701   2.756   3.818  0.5092  0.2218 -0.1987
  660THF     H5 8572   3.705   2.646   3.941 -1.9525  2.2187 -0.7206
  660THF     H6 8573   3.907   2.481   3.641 -0.5182 -2.1421 -0.0091
  660THF     H7 8574   3.927   2.393   3.779 -0.8151 -1.0588 -0.2725
  660THF     C8 8575   3.720   2.430   3.739  0.3590 -0.8368  0.3833
  660THF     C9 8576   3.637   2.555   3.750 -0.1548  0.0460 -0.2871
  660THF    H10 8577   3.709   2.378   3.834  0.7846 -1.1672  0.2521
  660THF    H11 8578   3.688   2.364   3.658  0.3177 -0.0672 -0.2402
  660THF    H12 8579   3.614   2.589   3.649 -1.5058 -0.4485 -0.1615
  660THF    H13 8580   3.539   2.539   3.794 -0.3116  2.6665  0.4719
  661THF     O1 8581   3.543   4.051   2.900 -0.2362  1.0084 -0.0600
  661THF     C2 8582   3.495   4.182   2.934 -1.2111  0.0786 -0.3981
  661THF     C3 8583   3.522   4.034   2.758  0.2301  0.1503  0.7492
  661THF     H4 8584   3.567   4.227   3.003 -1.2089  0.1873 -0.4707
  661THF     H5 8585   3.403   4.191   2.992 -0.1059 -1.2605  1.6761
  661THF     H6 8586   3.610   4.006   2.700  0.2291  0.7316  0.4613
  661THF     H7 8587   3.456   3.949   2.740  0.4774  0.3385 -1.3038
  661THF     C8 8588   3.451   4.164   2.707  0.3601 -0.4915  0.3850
  661THF     C9 8589   3.500   4.263   2.805  0.4830  0.2579 -0.0868
  661THF    H10 8590   3.346   4.140   2.714  0.8967 -3.5721 -0.8230
  661THF    H11 8591   3.479   4.189   2.605 -0.3527  0.1064  0.3274
  661THF    H12 8592   3.595   4.309   2.777  0.6451 -1.4377 -2.7267
  661THF    H13 8593   3.445   4.357   2.798  1.1956  0.6257 -0.9750
  662THF     O1 8594   1.801   5.075   0.684  0.2054  0.0396  0.0108
  662THF     C2 8595   1.764   4.951   0.738  0.1833 -0.0227  0.2540
  662THF     C3 8596   1.687   5.127   0.617  0.0116 -0.2288  0.3029
  662THF     H4 8597   1.784   4.945   0.845  1.0428 -0.4668  0.0783
  662THF     H5 8598   1.822   4.871   0.692 -0.5482 -0.2073 -0.3612
  662THF     H6 8599   1.635   5.190   0.689 -1.7280 -1.9570  0.6422
  662THF     H7 8600   1.697   5.186   0.526  0.7149 -1.7568 -0.6675
  662THF     C8 8601   1.586   5.010   0.591 -0.3904  0.4994  0.7641
  662THF     C9 8602   1.616   4.922   0.698  0.1161  0.5455  0.3402
  662THF    H10 8603   1.612   4.957   0.499 -3.4677  0.6123 -0.3099
  662THF    H11 8604   1.486   5.050   0.577 -1.2713 -1.8974 -0.3169
  662THF    H12 8605   1.554   4.944   0.785  0.8518 -2.0897  1.6299
  662THF    H13 8606   1.593   4.823   0.658  1.0710  1.5206 -2.9255
  663THF     O1 8607   2.151   0.580   1.404 -0.0366 -0.2357  0.0849
  663THF     C2 8608   2.185   0.710   1.347  0.3550 -0.7907  0.0351
  663THF     C3 8609   2.029   0.545   1.347  0.3986 -0.0601  0.6426
  663THF     H4 8610   2.220   0.681   1.248  3.9651  0.0723  0.9121
  663THF     H5 8611   2.255   0.761   1.413 -1.1766  2.5197 -0.6756
  663THF     H6 8612   2.037   0.513   1.243  0.4195 -0.3378  0.7291
  663THF     H7 8613   1.982   0.462   1.399  0.2796  0.9821  2.2937
  663THF     C8 8614   1.950   0.673   1.362 -0.6508  0.8255  0.4039
  663THF     C9 8615   2.053   0.787   1.333 -0.0441  0.3091  0.0220
  663THF    H10 8616   1.905   0.669   1.461  2.1310 -1.2584  1.7474
  663THF    H11 8617   1.860   0.670   1.301 -1.5237 -2.5636  1.6203
  663THF    H12 8618   2.034   0.812   1.228 -0.2556 -3.5453 -1.0349
  663THF    H13 8619   2.042   0.868   1.405  3.2116 -0.3477  1.4228
  664THF     O1 8620   3.094   5.348   2.077 -0.0311  0.4284  0.3773
  664THF     C2 8621   3.202   5.333   2.172 -0.4384 -0.3922  0.0468
  664THF     C3 8622   3.002   5.236   2.089 -0.2209  0.3506  0.9482
  664THF     H4 8623   3.234   5.426   2.220  0.6752 -0.5618 -0.3344
  664THF     H5 8624   3.293   5.283   2.138  0.3397  0.4579  0.8321
  664THF     H6 8625   2.904   5.278   2.110 -0.7695 -0.5743  0.3695
  664THF     H7 8626   2.995   5.181   1.994 -1.5688  0.9180  0.6937
  664THF     C8 8627   3.043   5.158   2.205  0.3473 -0.5270 -0.1090
  664THF     C9 8628   3.126   5.258   2.283 -0.7122 -0.3378  0.1353
  664THF    H10 8629   3.093   5.065   2.177  0.1431 -0.6008 -0.2233
  664THF    H11 8630   2.961   5.121   2.266 -0.0447  1.2683  0.5132
  664THF    H12 8631   3.055   5.324   2.334 -1.1376 -0.2911 -0.5075
  664THF    H13 8632   3.195   5.218   2.357 -1.4887  2.2193  2.4549
  665THF     O1 8633   3.914   5.033   1.684  0.3385 -0.1043  0.5217
  665THF     C2 8634   3.884   4.935   1.781 -0.0192  0.2917  0.4069
  665THF     C3 8635   3.873   4.971   1.562 -0.5554 -0.4017  0.0598
  665THF     H4 8636   3.777   4.924   1.794  0.2572 -0.6405  2.1548
  665THF     H5 8637   3.927   4.960   1.878  0.3441 -0.3382  0.4140
  665THF     H6 8638   3.766   4.980   1.543 -0.1521  1.7355 -1.5506
  665THF     H7 8639   3.911   5.031   1.479 -2.5048  0.4263 -0.2817
  665THF     C8 8640   3.929   4.826   1.571  0.2384  0.1004 -0.5117
  665THF     C9 8641   3.948   4.807   1.725  0.6552  0.3452 -0.1941
  665THF    H10 8642   4.029   4.836   1.530  0.2474  1.7870 -0.1492
  665THF    H11 8643   3.864   4.759   1.514  0.1080  0.1168 -0.3830
  665THF    H12 8644   3.902   4.713   1.755  0.1499 -0.2264 -2.6034
  665THF    H13 8645   4.053   4.815   1.753  0.5380 -0.1688  0.4172
  666THF     O1 8646   0.676   0.864   3.640 -0.1766  0.3367 -0.1300
  666THF     C2 8647   0.700   0.753   3.546 -0.3915  0.1986  0.0151
  666THF     C3 8648   0.800   0.935   3.659  0.1047 -0.0903  0.1354
  666THF     H4 8649   0.634   0.754   3.459 -1.0525 -1.1962  0.4708
  666THF     H5 8650   0.679   0.670   3.612  3.2433  0.2068  1.4402
  666THF     H6 8651   0.791   1.043   3.644 -3.0917 -0.4902 -1.7424
  666THF     H7 8652   0.835   0.901   3.756 -1.8232  0.9412  1.2564
  666THF     C8 8653   0.893   0.893   3.539 -0.0436  0.3186 -0.4284
  666THF     C9 8654   0.846   0.753   3.512 -0.4859  0.1735 -0.1413
  666THF    H10 8655   1.000   0.904   3.560  0.3081 -1.3332 -1.1879
  666THF    H11 8656   0.876   0.967   3.461  0.7928  3.8285  2.4168
  666THF    H12 8657   0.860   0.719   3.410  0.6707 -0.9901  0.3745
  666THF    H13 8658   0.894   0.690   3.587  0.6754  0.0344 -0.9852
  667THF     O1 8659   2.479   4.618   4.602 -0.0182  0.2949  0.1179
  667THF     C2 8660   2.461   4.526   4.713 -0.1736 -0.1382  0.1803
  667THF     C3 8661   2.515   4.542   4.491  0.1084 -0.2281  0.6310
  667THF     H4 8662   2.393   4.568   4.787 -0.7086 -0.2927 -0.2105
  667THF     H5 8663   2.549   4.503   4.773 -0.0596 -0.3458 -0.0635
  667THF     H6 8664   2.481   4.589   4.399  1.7758 -2.2011 -1.0920
  667THF     H7 8665   2.623   4.533   4.491  0.1078 -0.3253 -0.3582
  667THF     C8 8666   2.453   4.400   4.505  0.3919 -0.2661 -0.0575
  667THF     C9 8667   2.384   4.414   4.638 -0.2129 -0.0296 -0.2441
  667THF    H10 8668   2.526   4.319   4.502  1.4598  0.6413  0.4247
  667THF    H11 8669   2.384   4.373   4.425  0.0081 -2.0027  0.8051
  667THF    H12 8670   2.279   4.437   4.620 -0.3586 -0.0834  0.5132
  667THF    H13 8671   2.376   4.319   4.690 -1.5232  0.3361  0.2524
  668THF     O1 8672   4.976   2.607   3.239 -0.3098  0.7313 -0.0492
  668THF     C2 8673   4.979   2.506   3.339  0.2772  0.8087 -0.0131
  668THF     C3 8674   4.879   2.572   3.150 -0.2331  0.8879  0.3070
  668THF     H4 8675   4.893   2.506   3.406 -0.4163  1.0751 -0.8968
  668THF     H5 8676   5.079   2.507   3.383  1.1434 -0.8071 -1.8074
  668THF     H6 8677   4.782   2.561   3.199 -0.2448  1.0148  0.3111
  668THF     H7 8678   4.870   2.652   3.077  0.0150  2.3639  1.8278
  668THF     C8 8679   4.928   2.433   3.121 -0.0557  0.8565 -0.0337
  668THF     C9 8680   4.957   2.375   3.255 -0.0221  0.3123 -0.0124
  668THF    H10 8681   5.014   2.428   3.055 -1.4692  1.1434 -1.9758
  668THF    H11 8682   4.859   2.368   3.069 -0.2234  0.4305  0.7056
  668THF    H12 8683   4.863   2.328   3.283 -0.1283 -0.4774 -1.5823
  668THF    H13 8684   5.043   2.308   3.249 -0.5234 -0.3898  0.5616
  669THF     O1 8685   0.764   1.365   1.931  0.4828  0.4760 -0.3753
  669THF     C2 8686   0.841   1.252   1.896 -0.0058  0.2635 -0.9096
  669THF     C3 8687   0.717   1.345   2.064  0.9032  0.0712 -0.4151
  669THF     H4 8688   0.891   1.270   1.801  0.8449 -2.7330 -1.1186
  669THF     H5 8689   0.771   1.169   1.887 -2.5698  1.8162  2.3913
  669THF     H6 8690   0.687   1.439   2.111  0.0206  0.0116 -0.8457
  669THF     H7 8691   0.629   1.284   2.050 -0.0952  0.7471  2.3241
  669THF     C8 8692   0.826   1.262   2.132 -0.4770 -0.4143 -0.1472
  669THF     C9 8693   0.922   1.226   2.021  0.3843  0.4632  0.1681
  669THF    H10 8694   0.787   1.170   2.176  0.0386  0.4808  2.3440
  669THF    H11 8695   0.873   1.307   2.220  0.1803  0.5937 -0.9961
  669THF    H12 8696   1.009   1.292   2.024  0.6423  0.3235 -2.2809
  669THF    H13 8697   0.967   1.127   2.033 -0.2536  0.0518 -0.7628
  670THF     O1 8698   0.738   1.911   1.145  0.5880  0.0122 -0.0934
  670THF     C2 8699   0.810   1.953   1.261  0.2527  0.4221  0.5687
  670THF     C3 8700   0.761   1.771   1.128 -0.7847  0.3085 -0.1153
  670THF     H4 8701   0.752   1.935   1.352  1.2347  0.6122  1.2524
  670THF     H5 8702   0.816   2.062   1.252 -3.3502  0.6861 -0.0932
  670THF     H6 8703   0.713   1.711   1.205 -1.7665 -0.2802 -1.1637
  670THF     H7 8704   0.735   1.722   1.034  1.3288 -1.7363  0.2742
  670THF     C8 8705   0.917   1.768   1.143 -0.8221  0.4982 -0.3776
  670THF     C9 8706   0.942   1.882   1.235 -0.3324 -0.6392 -0.9766
  670THF    H10 8707   0.961   1.776   1.043  1.1110 -3.3518 -0.0390
  670THF    H11 8708   0.947   1.670   1.180 -0.5717  0.7819  0.1730
  670THF    H12 8709   0.986   1.857   1.332 -0.0442 -1.7794 -1.3859
  670THF    H13 8710   1.009   1.951   1.185  0.8735  0.0542  1.4274
  671THF     O1 8711   1.639   1.169   3.213  0.3285  0.4098  0.2920
  671THF     C2 8712   1.756   1.091   3.242 -0.1947  0.2336  0.3766
  671THF     C3 8713   1.538   1.073   3.191 -0.3615  0.5332 -0.5501
  671THF     H4 8714   1.845   1.144   3.275  1.2297 -1.2074 -0.9543
  671THF     H5 8715   1.784   1.045   3.148  0.4647  0.0819  0.6437
  671THF     H6 8716   1.437   1.111   3.211 -0.4747 -0.6333  1.2835
  671THF     H7 8717   1.541   1.044   3.086 -1.5206  0.3181 -0.5418
  671THF     C8 8718   1.569   0.954   3.281 -0.1322  0.2698 -0.1255
  671THF     C9 8719   1.706   0.988   3.336  0.5302  0.4095 -0.3746
  671THF    H10 8720   1.570   0.853   3.241  1.4493 -0.5496  1.7792
  671THF    H11 8721   1.505   0.939   3.369  0.0984 -0.1018 -0.0189
  671THF    H12 8722   1.698   1.019   3.441 -1.6359 -0.2120 -0.3195
  671THF    H13 8723   1.769   0.899   3.340 -2.6095 -2.0161 -1.1968
  672THF     O1 8724   0.401   2.168   1.064  0.1436  0.5259  0.3779
  672THF     C2 8725   0.276   2.103   1.066  0.4043  0.2151 -0.3438
  672THF     C3 8726   0.413   2.249   1.180  0.2219 -0.0557  0.0842
  672THF     H4 8727   0.309   1.999   1.059  0.3095  0.2312 -1.1260
  672THF     H5 8728   0.225   2.136   0.976  0.2667  2.3770  0.4848
  672THF     H6 8729   0.519   2.247   1.201  0.0960  0.8469  0.8654
  672THF     H7 8730   0.390   2.355   1.165  2.4869  0.3914 -0.5423
  672THF     C8 8731   0.320   2.192   1.287 -0.7897 -0.2438  0.0135
  672THF     C9 8732   0.211   2.135   1.203  0.8399 -0.2876  0.3887
  672THF    H10 8733   0.299   2.259   1.371  1.7778 -0.2752  0.7793
  672THF    H11 8734   0.369   2.105   1.331 -2.0373 -0.9582  0.0365
  672THF    H12 8735   0.166   2.057   1.264  0.7510  1.1213  2.2517
  672THF    H13 8736   0.142   2.215   1.177  1.4792  0.4517  0.8779
  673THF     O1 8737   2.490   0.307   1.569  0.4475 -0.0785  0.2125
  673THF     C2 8738   2.623   0.308   1.504  0.2651  0.0188 -0.4809
  673THF     C3 8739   2.455   0.165   1.584  0.1265 -0.5377 -0.1594
  673THF     H4 8740   2.690   0.389   1.531  0.9142 -0.3407 -0.9873
  673THF     H5 8741   2.607   0.315   1.397 -1.0254 -2.7092 -0.5524
  673THF     H6 8742   2.372   0.143   1.651 -0.5364  0.1179 -0.7432
  673THF     H7 8743   2.422   0.132   1.485 -2.5161  0.7906  0.2058
  673THF     C8 8744   2.592   0.105   1.631 -0.4428 -0.0278  0.4286
  673THF     C9 8745   2.688   0.176   1.545 -0.3814 -0.3470  0.7703
  673THF    H10 8746   2.603  -0.003   1.620  0.5789 -0.0294  1.2916
  673THF    H11 8747   2.602   0.135   1.735  3.1685 -0.7798  0.4558
  673THF    H12 8748   2.782   0.188   1.600 -0.5543  0.8776  0.8098
  673THF    H13 8749   2.710   0.111   1.460 -0.4528  1.0191 -0.3252
  674THF     O1 8750   4.400   2.270   3.249  0.0605 -0.4431  0.1160
  674THF     C2 8751   4.402   2.407   3.221  0.7903 -0.0246  0.8091
  674THF     C3 8752   4.407   2.258   3.384 -0.5576 -0.5843 -0.2079
  674THF     H4 8753   4.303   2.447   3.246  0.4748  0.1387 -0.6091
  674THF     H5 8754   4.423   2.424   3.115 -1.2551 -0.4028  0.2994
  674THF     H6 8755   4.309   2.240   3.428  0.2444 -2.7669  0.8626
  674THF     H7 8756   4.471   2.173   3.408  1.8790  1.0040 -0.7832
  674THF     C8 8757   4.470   2.381   3.433  0.0966 -0.3933 -0.5049
  674THF     C9 8758   4.501   2.468   3.310 -0.0102 -0.6753 -0.2406
  674THF    H10 8759   4.561   2.374   3.493  0.8103  1.1779 -1.3506
  674THF    H11 8760   4.398   2.435   3.494 -0.2246 -1.2184 -0.1350
  674THF    H12 8761   4.475   2.571   3.334 -1.0979 -0.9123 -0.3555
  674THF    H13 8762   4.597   2.453   3.262 -0.0735 -0.1258 -0.5421
  675THF     O1 8763   5.248   2.750   2.773 -0.0334  0.4562 -0.2659
  675THF     C2 8764   5.380   2.745   2.833 -0.3578 -0.0632 -0.6133
  675THF     C3 8765   5.160   2.684   2.871 -0.4402 -0.1035 -0.5595
  675THF     H4 8766   5.382   2.834   2.896  1.6908 -1.3718  1.3661
  675THF     H5 8767   5.471   2.756   2.774  0.3663  1.1268  0.6485
  675THF     H6 8768   5.146   2.765   2.943 -0.9467 -0.8451  0.1971
  675THF     H7 8769   5.068   2.661   2.817 -0.8061  1.2044 -0.5419
  675THF     C8 8770   5.238   2.565   2.927 -0.1761 -0.5240 -0.3630
  675THF     C9 8771   5.385   2.615   2.913 -0.9034  0.9222 -0.1263
  675THF    H10 8772   5.231   2.483   2.855 -1.0263  1.1850 -2.3401
  675THF    H11 8773   5.206   2.523   3.023 -4.1937 -1.9040 -2.0479
  675THF    H12 8774   5.415   2.627   3.017 -1.2335 -0.3982  0.1327
  675THF    H13 8775   5.449   2.538   2.871  0.0783  0.9451  1.2381
  676THF     O1 8776   4.104   3.858   2.710  0.1633 -0.2656 -0.0825
  676THF     C2 8777   4.142   3.724   2.721  0.0404  0.2551  0.4097
  676THF     C3 8778   4.010   3.890   2.812 -0.2557 -0.3448 -0.1524
  676THF     H4 8779   4.227   3.700   2.658 -1.3532 -0.8586 -1.1515
  676THF     H5 8780   4.056   3.665   2.690 -0.4423 -0.3857  2.7882
  676THF     H6 8781   4.010   3.998   2.826 -1.4513 -0.0982 -1.7243
  676THF     H7 8782   3.911   3.858   2.779 -0.6919 -1.3096  1.9037
  676THF     C8 8783   4.043   3.808   2.931 -0.5462 -0.2462  0.4642
  676THF     C9 8784   4.163   3.727   2.871  0.3671 -0.0739  0.0007
  676THF    H10 8785   3.962   3.740   2.957 -0.9782 -0.2650 -0.8885
  676THF    H11 8786   4.076   3.877   3.009  0.6921  1.8368 -1.7611
  676THF    H12 8787   4.253   3.783   2.898 -1.7194  3.7876 -0.2813
  676THF    H13 8788   4.160   3.627   2.915 -0.6795 -0.8140 -1.6580
  677THF     O1 8789   2.285   2.217   5.294  0.6064 -0.0279 -0.3445
  677THF     C2 8790   2.402   2.241   5.358 -0.2261 -0.3853  0.0394
  677THF     C3 8791   2.316   2.157   5.169  0.1812 -0.3018  0.0892
  677THF     H4 8792   2.439   2.142   5.381 -1.3219 -0.5422  1.2244
  677THF     H5 8793   2.403   2.291   5.455  0.7616  0.2485 -0.2834
  677THF     H6 8794   2.331   2.050   5.185 -1.3320 -0.4722  0.6369
  677THF     H7 8795   2.225   2.170   5.111  0.9032 -0.2844 -1.0615
  677THF     C8 8796   2.439   2.234   5.121  0.1284  0.6721 -0.3876
  677THF     C9 8797   2.492   2.301   5.251 -0.2616 -0.2637 -0.6247
  677THF    H10 8798   2.403   2.305   5.047 -3.6380  0.2508  0.8239
  677THF    H11 8799   2.513   2.172   5.071 -0.0514  0.4723 -0.4107
  677THF    H12 8800   2.599   2.286   5.264 -0.0624 -0.4894 -2.2392
  677THF    H13 8801   2.470   2.407   5.250 -0.9831 -0.3970 -1.8910
  678THF     O1 8802   3.981   1.278   3.786 -0.0347 -0.4221 -0.6901
  678THF     C2 8803   3.950   1.321   3.654  0.3808  0.5715 -0.0234
  678THF     C3 8804   4.109   1.337   3.818  0.6508  0.5675  0.8938
  678THF     H4 8805   3.900   1.417   3.663  0.8243  0.8630 -0.5627
  678THF     H5 8806   3.884   1.248   3.608  0.4164  0.4495  0.1184
  678THF     H6 8807   4.105   1.415   3.894  0.0798  1.0177  0.4100
  678THF     H7 8808   4.175   1.257   3.851  1.5515  0.7314 -0.4413
  678THF     C8 8809   4.172   1.389   3.685  0.0118 -0.1696 -0.1436
  678THF     C9 8810   4.085   1.320   3.585 -0.1553 -0.2387 -0.4383
  678THF    H10 8811   4.279   1.375   3.671 -0.0289 -0.8547  0.2003
  678THF    H11 8812   4.161   1.497   3.697 -0.4780 -0.1884 -0.3910
  678THF    H12 8813   4.096   1.366   3.487  2.4772 -2.9571 -1.5760
  678THF    H13 8814   4.116   1.215   3.580 -3.3751 -1.3905  0.6386
  679THF     O1 8815   0.851   5.050   2.081  0.2545 -0.4349 -0.1050
  679THF     C2 8816   0.731   5.120   2.125  0.7207 -0.8944  0.3997
  679THF     C3 8817   0.863   4.935   2.160 -0.0442  0.5993 -0.1475
  679THF     H4 8818   0.636   5.094   2.079  0.9466  0.8597 -1.2124
  679THF     H5 8819   0.739   5.228   2.112 -1.2445 -0.8846 -1.2118
  679THF     H6 8820   0.806   4.857   2.109  1.2485  0.3712 -1.3043
  679THF     H7 8821   0.963   4.896   2.182 -0.1249  0.8724  0.7347
  679THF     C8 8822   0.791   4.960   2.294 -0.3251  0.1618 -0.4107
  679THF     C9 8823   0.741   5.104   2.278 -0.0768  0.7107 -0.3690
  679THF    H10 8824   0.857   4.938   2.378 -1.8176 -0.5112  0.6159
  679THF    H11 8825   0.704   4.895   2.308 -0.4240  0.6625  1.6512
  679THF    H12 8826   0.648   5.121   2.333  0.1307  2.2113 -0.4243
  679THF    H13 8827   0.824   5.164   2.314  0.6716 -0.7678  0.4300
  680THF     O1 8828   2.300   2.805   0.044  0.5662  0.3793 -0.5203
  680THF     C2 8829   2.156   2.810   0.064 -0.3840 -0.0282  0.1090
  680THF     C3 8830   2.336   2.679  -0.008 -0.0415 -0.0856 -0.6896
  680THF     H4 8831   2.109   2.839  -0.031 -0.0602  1.3835  0.3566
  680THF     H5 8832   2.130   2.879   0.144  1.8937  0.9868  0.0591
  680THF     H6 8833   2.365   2.694  -0.113  3.0545 -0.9931 -0.0886
  680THF     H7 8834   2.426   2.641   0.041 -0.5001 -0.1527  0.1139
  680THF     C8 8835   2.210   2.585   0.000  0.0525  0.4855 -0.7529
  680THF     C9 8836   2.127   2.666   0.098 -0.7473  1.2296 -0.6363
  680THF    H10 8837   2.229   2.482   0.033 -0.0094  0.9322  0.7561
  680THF    H11 8838   2.154   2.585  -0.093 -0.7985  0.8738 -0.2506
  680THF    H12 8839   2.022   2.637   0.095 -0.9171  1.8823 -1.2094
  680THF    H13 8840   2.168   2.643   0.196 -0.6605 -1.5656 -1.2457
  681THF     O1 8841   0.660   4.025   0.809  0.1428  0.0763  0.1952
  681THF     C2 8842   0.760   4.051   0.905  0.1453  0.2959 -0.0526
  681THF     C3 8843   0.690   3.915   0.722  0.3666  0.0105 -0.4498
  681THF     H4 8844   0.728   4.095   1.000  0.9148  0.2613  0.2272
  681THF     H5 8845   0.830   4.122   0.862 -1.1686  1.5488 -0.2030
  681THF     H6 8846   0.602   3.855   0.699  0.2413  0.4112 -1.0635
  681THF     H7 8847   0.717   3.960   0.626 -0.9380  0.2821 -0.7173
  681THF     C8 8848   0.800   3.835   0.788  0.2324 -0.2051 -1.0222
  681THF     C9 8849   0.813   3.910   0.924  0.5501 -0.4950  0.1163
  681THF    H10 8850   0.887   3.854   0.726  0.7943  0.0672 -0.1714
  681THF    H11 8851   0.771   3.730   0.789  0.0740 -0.1712  0.4301
  681THF    H12 8852   0.745   3.857   0.990  1.0113  0.5361  1.4626
  681THF    H13 8853   0.911   3.898   0.970  0.1648 -0.8325  0.8646
  682THF     O1 8854   4.645   0.514   0.888  0.7796 -0.0411 -0.4895
  682THF     C2 8855   4.626   0.631   0.976  0.2977 -0.3727 -0.0428
  682THF     C3 8856   4.780   0.496   0.877 -0.3930  0.2883  0.7471
  682THF     H4 8857   4.618   0.605   1.081 -3.3511  0.3534 -0.0077
  682THF     H5 8858   4.535   0.685   0.950  1.4475  1.0735 -1.2855
  682THF     H6 8859   4.815   0.469   0.977  1.7261  0.5556  0.1411
  682THF     H7 8860   4.816   0.425   0.802  0.0280 -1.1017  2.2177
  682THF     C8 8861   4.824   0.637   0.840  0.2250  0.2994 -0.3383
  682THF     C9 8862   4.751   0.718   0.947  0.5203 -0.3153 -0.8074
  682THF    H10 8863   4.785   0.656   0.740 -0.8505 -2.5022 -0.5387
  682THF    H11 8864   4.931   0.658   0.832  0.2497 -0.1789 -1.5691
  682THF    H12 8865   4.812   0.726   1.037  2.1188 -0.8784 -1.8019
  682THF    H13 8866   4.720   0.816   0.912 -0.2672 -1.3750 -3.2465
  683THF     O1 8867   1.826   1.004   3.926 -0.8748 -0.2605  0.4562
  683THF     C2 8868   1.784   0.894   4.007  0.7018 -0.4176 -0.1694
  683THF     C3 8869   1.749   1.002   3.805  0.1080 -0.1017 -0.1537
  683THF     H4 8870   1.728   0.923   4.096 -0.8500 -0.4454 -1.0919
  683THF     H5 8871   1.877   0.840   4.027  1.3772  1.0647  0.8131
  683THF     H6 8872   1.663   1.068   3.793 -0.6367 -1.1483 -0.7314
  683THF     H7 8873   1.811   1.032   3.720  1.0713 -0.4278  0.4173
  683THF     C8 8874   1.718   0.856   3.778 -0.4324 -0.1569 -0.8830
  683THF     C9 8875   1.692   0.803   3.922 -0.4913  0.0239  0.4041
  683THF    H10 8876   1.804   0.797   3.748 -0.7603 -1.5836  0.8093
  683THF    H11 8877   1.640   0.827   3.707 -1.4107 -1.1659  0.5516
  683THF    H12 8878   1.592   0.825   3.958 -0.0483 -1.1384  2.5224
  683THF    H13 8879   1.708   0.696   3.937 -0.7062 -0.0614  0.0339
  684THF     O1 8880   3.983   1.201   1.362  0.0674 -0.3585 -0.5131
  684THF     C2 8881   4.109   1.147   1.402  0.0340  0.5389 -0.4562
  684THF     C3 8882   3.983   1.345   1.352 -0.0217  0.1792 -0.3894
  684THF     H4 8883   4.125   1.039   1.400 -3.1653 -0.0634  0.3806
  684THF     H5 8884   4.114   1.168   1.509 -1.9835 -1.0839  0.0301
  684THF     H6 8885   3.907   1.370   1.279 -0.0140  1.6903  0.0982
  684THF     H7 8886   3.956   1.388   1.448  1.3994  0.0895  0.0820
  684THF     C8 8887   4.131   1.373   1.310  0.3670  0.5609  0.1691
  684THF     C9 8888   4.192   1.232   1.302 -0.0901  0.7313 -0.3738
  684THF    H10 8889   4.182   1.434   1.384  1.3393 -1.9311  1.6893
  684THF    H11 8890   4.142   1.425   1.214  0.0868  2.0335  0.9036
  684THF    H12 8891   4.186   1.179   1.207  0.4982  0.3776 -0.2203
  684THF    H13 8892   4.298   1.225   1.325 -0.3648 -1.7860  0.4949
  685THF     O1 8893   3.278   2.098   4.407 -0.1626 -0.6174  0.3037
  685THF     C2 8894   3.139   2.074   4.421 -0.6036  0.7270  0.6980
  685THF     C3 8895   3.298   2.236   4.368  0.0885  0.6442 -0.8645
  685THF     H4 8896   3.105   2.102   4.521 -0.9051 -0.6961  1.0056
  685THF     H5 8897   3.123   1.967   4.407  0.5611  0.9032 -3.0726
  685THF     H6 8898   3.293   2.300   4.456  0.7002 -1.4112  0.7587
  685THF     H7 8899   3.394   2.221   4.320  0.2930 -1.3226  0.0315
  685THF     C8 8900   3.180   2.266   4.275 -0.0236 -0.3639 -0.1936
  685THF     C9 8901   3.081   2.157   4.303 -0.0762 -1.0372 -0.0110
  685THF    H10 8902   3.215   2.268   4.172 -0.5380 -0.6859 -0.3802
  685THF    H11 8903   3.137   2.365   4.291  2.0714  0.7263 -0.9137
  685THF    H12 8904   2.978   2.188   4.318  0.1734  1.4885 -2.6229
  685THF    H13 8905   3.089   2.096   4.212 -0.3367  1.9170 -2.1547
  686THF     O1 8906   0.340   3.840   0.090  0.1515  0.0472  0.3035
  686THF     C2 8907   0.223   3.877   0.158 -0.2896  0.1582  0.4073
  686THF     C3 8908   0.408   3.948   0.027 -0.0322 -0.1419  0.4218
  686THF     H4 8909   0.243   3.858   0.264 -2.4518 -1.3121  0.6214
  686THF     H5 8910   0.142   3.809   0.131  1.3514 -1.4813 -0.6925
  686THF     H6 8911   0.476   3.990   0.101 -1.7702 -0.7993  2.4872
  686THF     H7 8912   0.449   3.922  -0.071 -0.8642  2.3037 -0.6679
  686THF     C8 8913   0.293   4.052   0.008 -0.0478  0.2234 -0.4009
  686THF     C9 8914   0.201   4.029   0.126 -1.1635  0.2564  0.2190
  686THF    H10 8915   0.236   4.017  -0.079  0.4010  1.0530 -1.0443
  686THF    H11 8916   0.324   4.153  -0.016 -3.6081  1.4636 -0.4576
  686THF    H12 8917   0.238   4.093   0.206  0.5536  2.6063 -2.3054
  686THF    H13 8918   0.097   4.055   0.106 -0.6275  1.0576 -1.7937
  687THF     O1 8919   2.964   4.673   1.877  0.0977  0.0061  0.3052
  687THF     C2 8920   3.078   4.744   1.833  0.0811  0.0451  0.4169
  687THF     C3 8921   2.854   4.765   1.904 -0.2147 -0.7655  0.3302
  687THF     H4 8922   3.147   4.670   1.791  0.3174 -0.7748  2.1536
  687THF     H5 8923   3.124   4.780   1.924  0.2343  1.1713 -0.0972
  687THF     H6 8924   2.756   4.719   1.888 -0.5308  0.5452 -1.9762
  687THF     H7 8925   2.873   4.800   2.005  2.7477  0.7300 -0.6412
  687THF     C8 8926   2.875   4.874   1.800  0.8929 -0.3540  0.2429
  687THF     C9 8927   3.019   4.859   1.744 -0.1228 -0.2694 -0.0049
  687THF    H10 8928   2.879   4.967   1.856 -1.2703  0.0277 -0.1301
  687THF    H11 8929   2.795   4.876   1.726  0.3633 -2.5569  0.6870
  687THF    H12 8930   3.019   4.824   1.641  0.4171 -5.7065  1.5038
  687THF    H13 8931   3.067   4.954   1.765 -2.5028  0.8246  0.8226
  688THF     O1 8932   4.964   4.231   2.717  0.4361  0.3372 -0.1337
  688THF     C2 8933   4.992   4.107   2.656 -0.1391 -0.0127 -0.1422
  688THF     C3 8934   5.064   4.321   2.671  0.0950 -0.6399 -0.0700
  688THF     H4 8935   4.926   4.089   2.572 -1.0024  3.2570 -0.2755
  688THF     H5 8936   4.970   4.020   2.718 -0.9877 -0.0971 -0.5497
  688THF     H6 8937   5.052   4.359   2.570  3.9444  1.1777  0.0063
  688THF     H7 8938   5.065   4.405   2.740 -1.8205 -0.8373  0.2704
  688THF     C8 8939   5.188   4.230   2.667  0.5743  0.7278 -1.0150
  688THF     C9 8940   5.141   4.105   2.608  0.5808 -0.3882  0.0730
  688THF    H10 8941   5.217   4.194   2.766 -3.1909 -1.3084 -0.4700
  688THF    H11 8942   5.278   4.274   2.624 -0.4247  3.7168 -0.2968
  688THF    H12 8943   5.162   4.111   2.501 -0.1233  1.2552 -0.0101
  688THF    H13 8944   5.194   4.024   2.657 -0.8608  0.4673  3.3498
  689THF     O1 8945   0.110   3.425   0.576 -0.0963 -0.0942  0.0309
  689THF     C2 8946   0.049   3.550   0.604 -0.5015 -0.2053 -0.5363
  689THF     C3 8947   0.034   3.339   0.490  0.4783 -0.8783  0.4605
  689THF     H4 8948   0.129   3.624   0.611 -1.4203  0.6731  2.7593
  689THF     H5 8949  -0.017   3.559   0.691 -0.8186  1.8004 -0.9271
  689THF     H6 8950   0.087   3.319   0.397 -1.3720  0.8616 -1.0738
  689THF     H7 8951   0.005   3.243   0.535 -0.4118 -1.3874 -1.1003
  689THF     C8 8952  -0.099   3.422   0.461  0.1073  0.1280  0.5157
  689THF     C9 8953  -0.044   3.565   0.484 -0.3814  0.4125  0.1681
  689THF    H10 8954  -0.172   3.404   0.540  0.1397 -0.8986  0.3193
  689THF    H11 8955  -0.142   3.396   0.364  0.0401  1.5269  0.1534
  689THF    H12 8956   0.009   3.586   0.391  1.0577 -0.0131  0.8581
  689THF    H13 8957  -0.129   3.632   0.498 -0.7810  0.1988 -1.1705
  690THF     O1 8958   4.337   4.021   1.436  0.1179 -0.2871 -0.2293
  690THF     C2 8959   4.382   4.026   1.571 -0.3449  0.1360 -0.2002
  690THF     C3 8960   4.213   4.090   1.438  0.4855 -0.4689 -0.2510
  690THF     H4 8961   4.430   4.121   1.593  1.0062 -0.4268 -0.6124
  690THF     H5 8962   4.445   3.937   1.569  0.7389  0.8891 -0.7298
  690THF     H6 8963   4.238   4.195   1.452  1.0875 -0.6563  0.1267
  690THF     H7 8964   4.153   4.075   1.349  2.5186 -0.8861 -1.6073
  690THF     C8 8965   4.149   4.054   1.567  0.6790  1.0005 -0.4104
  690THF     C9 8966   4.258   4.002   1.655  0.8055  0.1003 -0.2919
  690THF    H10 8967   4.077   3.973   1.555  0.6376  0.5417  2.3304
  690THF    H11 8968   4.098   4.135   1.619  0.2967  0.0962  0.6761
  690THF    H12 8969   4.261   4.054   1.751 -1.0392  1.2288 -0.8029
  690THF    H13 8970   4.244   3.896   1.674  0.3750  0.0835 -0.6904
  691THF     O1 8971   2.802   4.381   2.050 -0.0330  0.1002  0.3512
  691THF     C2 8972   2.672   4.439   2.064  0.1946  0.0611 -0.2969
  691THF     C3 8973   2.792   4.250   2.092  0.1037 -0.0037 -0.4235
  691THF     H4 8974   2.648   4.524   2.000  2.4221  0.8057 -0.2319
  691THF     H5 8975   2.655   4.463   2.169  0.5824  0.9396 -0.4247
  691THF     H6 8976   2.879   4.191   2.062  0.1532 -0.9222  1.3785
  691THF     H7 8977   2.787   4.248   2.201 -1.2549  1.2300 -0.4432
  691THF     C8 8978   2.665   4.192   2.027 -0.1857 -0.4885 -0.2283
  691THF     C9 8979   2.582   4.319   2.024  0.3411 -0.1017  0.3212
  691THF    H10 8980   2.625   4.100   2.070  0.6421 -1.4333 -1.4351
  691THF    H11 8981   2.693   4.164   1.926  1.4314 -0.3160  0.1497
  691THF    H12 8982   2.541   4.336   1.925 -1.6852  0.6636  1.2361
  691THF    H13 8983   2.486   4.319   2.076 -0.2598  2.7437 -0.6308
  692THF     O1 8984   4.806   2.852   0.525 -0.5954 -0.5016 -0.0966
  692THF     C2 8985   4.675   2.813   0.480 -0.0558 -0.2756 -0.2081
  692THF     C3 8986   4.875   2.733   0.557 -0.4279  0.1701 -0.4999
  692THF     H4 8987   4.661   2.836   0.374 -0.8693 -0.0526 -0.0555
  692THF     H5 8988   4.593   2.859   0.535  1.3876  1.7133  0.3640
  692THF     H6 8989   4.974   2.749   0.513  0.2074 -0.2955  0.7045
  692THF     H7 8990   4.880   2.744   0.665  1.4787  0.9825 -0.6301
  692THF     C8 8991   4.802   2.613   0.509  0.5907  0.0649  0.1017
  692THF     C9 8992   4.664   2.662   0.502  0.4754  0.1744 -0.3848
  692THF    H10 8993   4.822   2.520   0.562  0.4993 -1.1296 -1.8576
  692THF    H11 8994   4.834   2.595   0.406 -0.3298 -1.1548 -0.0033
  692THF    H12 8995   4.609   2.610   0.424 -0.2526 -0.4520  0.5273
  692THF    H13 8996   4.617   2.640   0.598  0.5186  1.6838  0.0167
  693THF     O1 8997   5.038   0.026   2.983 -0.2629 -0.0992 -0.5076
  693THF     C2 8998   5.085  -0.109   2.979 -0.1336  0.4482 -0.4093
  693THF     C3 8999   5.092   0.082   2.868 -0.6096 -0.0680  0.1128
  693THF     H4 9000   5.006  -0.175   3.013 -1.2565  1.4523 -0.9802
  693THF     H5 9001   5.174  -0.122   3.040  1.5182 -3.1870 -3.2316
  693THF     H6 9002   5.033   0.170   2.843  1.2719  2.0001  2.4310
  693THF     H7 9003   5.193   0.101   2.903 -0.1716 -0.6130 -0.8142
  693THF     C8 9004   5.103  -0.027   2.766 -0.3854 -0.0844  0.4801
  693THF     C9 9005   5.138  -0.147   2.843  0.7294  0.0457  0.0237
  693THF    H10 9006   5.185  -0.001   2.699  0.4283 -1.8187  0.7532
  693THF    H11 9007   5.012  -0.033   2.706  1.0371  1.7550 -2.0673
  693THF    H12 9008   5.092  -0.234   2.796 -0.5443  0.7942 -0.1568
  693THF    H13 9009   5.246  -0.153   2.855  0.7379  0.1499  0.0001
  694THF     O1 9010   3.756   3.625   5.239  0.0913 -0.2490  0.4487
  694THF     C2 9011   3.747   3.703   5.118 -0.3685  0.4579 -0.1370
  694THF     C3 9012   3.769   3.488   5.194  0.3282  0.0494 -0.4568
  694THF     H4 9013   3.766   3.807   5.145 -1.7866  0.5294  0.6784
  694THF     H5 9014   3.654   3.683   5.066  0.7838 -0.9350 -1.7951
  694THF     H6 9015   3.806   3.419   5.270  1.6906 -0.3339 -1.4129
  694THF     H7 9016   3.667   3.459   5.168  0.3232 -0.5382  0.1920
  694THF     C8 9017   3.852   3.484   5.068  0.1898 -0.1890  0.5952
  694THF     C9 9018   3.867   3.640   5.039  0.1521 -1.0127 -0.0799
  694THF    H10 9019   3.798   3.425   4.995  0.0575  0.3659  0.2375
  694THF    H11 9020   3.946   3.434   5.089  0.3948  0.4363  1.2262
  694THF    H12 9021   3.964   3.673   5.076  0.8558  0.8307 -3.2174
  694THF    H13 9022   3.868   3.662   4.932  2.1398  2.2930  0.4672
  695THF     O1 9023   1.084   1.431   3.834 -0.1084 -0.6810  0.4326
  695THF     C2 9024   1.050   1.429   3.693 -0.1197  0.2224 -0.2424
  695THF     C3 9025   0.994   1.521   3.898 -0.4839  0.2527  0.1647
  695THF     H4 9026   0.990   1.341   3.671 -1.4584  0.6805  1.3803
  695THF     H5 9027   1.148   1.426   3.644  0.1180 -1.4011  0.2865
  695THF     H6 9028   0.902   1.466   3.916  0.2303 -0.6805  1.1192
  695THF     H7 9029   1.038   1.543   3.995 -0.5591 -0.8062  0.4510
  695THF     C8 9030   0.988   1.633   3.799  0.5377  0.6308 -0.3342
  695THF     C9 9031   0.979   1.564   3.664  0.5518 -0.0406 -0.0681
  695THF    H10 9032   1.078   1.693   3.810 -0.7075  2.0891  3.3009
  695THF    H11 9033   0.901   1.691   3.828 -0.0718 -0.3136 -0.2088
  695THF    H12 9034   0.877   1.561   3.628 -0.0020  0.4817  1.3855
  695THF    H13 9035   1.037   1.624   3.593 -0.5075  3.3911  1.7505
  696THF     O1 9036   5.043   5.107   3.921  0.0900 -0.1324  0.0633
  696THF     C2 9037   5.073   5.178   3.798 -1.0599  0.7598 -0.0958
  696THF     C3 9038   5.020   4.977   3.880 -0.7552  0.3035  0.0636
  696THF     H4 9039   5.118   5.275   3.816  0.2178  0.0386  0.8059
  696THF     H5 9040   4.976   5.189   3.749 -1.0519  1.1599 -0.0221
  696THF     H6 9041   5.029   4.904   3.960 -2.1903  0.9866  0.8821
  696THF     H7 9042   4.919   4.974   3.839 -0.2451  2.4647 -1.5854
  696THF     C8 9043   5.115   4.939   3.764 -0.8829  0.7795  0.1462
  696THF     C9 9044   5.160   5.075   3.721 -0.2576  0.5290 -0.1488
  696THF    H10 9045   5.054   4.883   3.692  2.6440 -1.8105 -1.1003
  696THF    H11 9046   5.193   4.868   3.792 -0.5544  0.0085 -2.5011
  696THF    H12 9047   5.260   5.085   3.763 -0.9307  0.9511  1.4264
  696THF    H13 9048   5.152   5.095   3.614 -0.4396  0.4833 -0.1436
  697THF     O1 9049   5.500   4.153   2.948  0.1250 -0.4848  0.1248
  697THF     C2 9050   5.522   4.110   3.083 -0.6784 -0.8511 -1.1152
  697THF     C3 9051   5.419   4.265   2.966  0.9960  0.0255  0.0235
  697THF     H4 9052   5.584   4.020   3.085 -1.3538 -1.3360  1.1888
  697THF     H5 9053   5.434   4.079   3.140  0.0566 -1.7835 -0.4556
  697THF     H6 9054   5.397   4.324   2.876 -0.3485 -1.4706 -0.6726
  697THF     H7 9055   5.327   4.267   3.024  1.3108  1.0093  0.5117
  697THF     C8 9056   5.508   4.340   3.066 -0.2550  0.7218  0.0146
  697THF     C9 9057   5.580   4.238   3.144 -0.2772  0.3556 -0.3921
  697THF    H10 9058   5.463   4.401   3.143  1.1786 -1.8530  3.1366
  697THF    H11 9059   5.588   4.392   3.013  1.3804 -0.2966  1.3869
  697THF    H12 9060   5.688   4.249   3.136 -0.3856  1.7621 -0.0713
  697THF    H13 9061   5.556   4.239   3.250 -0.8412  0.2624 -0.5170
  698THF     O1 9062   4.964   2.563   1.858 -0.6312 -0.5885  0.5632
  698THF     C2 9063   5.022   2.452   1.780  0.1594  0.2033  0.1408
  698THF     C3 9064   4.828   2.538   1.844  0.5793 -0.3932 -0.1312
  698THF     H4 9065   5.129   2.445   1.798  0.0105 -0.3774  0.8894
  698THF     H5 9066   5.015   2.478   1.675  1.1110 -2.0177 -0.5229
  698THF     H6 9067   4.778   2.606   1.913 -1.4576 -0.9831 -0.9618
  698THF     H7 9068   4.792   2.557   1.743  0.4100  0.9170  0.1518
  698THF     C8 9069   4.820   2.395   1.887  0.1233  0.7096 -0.5093
  698THF     C9 9070   4.939   2.329   1.812 -0.3132 -0.1752 -0.2572
  698THF    H10 9071   4.729   2.337   1.870  1.2059 -1.4185  0.5730
  698THF    H11 9072   4.847   2.396   1.993  0.5338  0.9831 -0.6131
  698THF    H12 9073   4.991   2.269   1.887  0.2983  0.5141 -0.1239
  698THF    H13 9074   4.915   2.273   1.722 -0.7475 -0.6081  0.1195
  699THF     O1 9075   1.830   0.896   1.567  0.2766  0.0583  0.1945
  699THF     C2 9076   1.923   0.889   1.677 -0.2598  0.0676  0.2884
  699THF     C3 9077   1.824   1.030   1.528 -0.3097  0.1679  0.1385
  699THF     H4 9078   2.029   0.877   1.658  0.6235  0.5379  4.0639
  699THF     H5 9079   1.902   0.798   1.734  1.0554 -0.0527  0.5976
  699THF     H6 9080   1.909   1.031   1.459 -0.3991 -0.2881  0.0200
  699THF     H7 9081   1.731   1.059   1.479  0.4719  5.6371  1.2129
  699THF     C8 9082   1.837   1.113   1.653 -0.2983 -0.7487 -0.2917
  699THF     C9 9083   1.916   1.025   1.751 -1.0970  0.3680 -0.4223
  699THF    H10 9084   1.737   1.144   1.686 -1.0015 -1.7191 -1.4507
  699THF    H11 9085   1.891   1.205   1.630 -2.1016  0.6790  0.8591
  699THF    H12 9086   2.009   1.071   1.782 -0.7145 -0.8583  0.3182
  699THF    H13 9087   1.863   1.005   1.845  0.5522 -2.2225  0.0417
  700THF     O1 9088   2.835   3.458   0.706 -0.5023 -0.5881  0.0791
  700THF     C2 9089   2.939   3.360   0.716 -1.2789 -0.5655 -0.0912
  700THF     C3 9090   2.883   3.587   0.742  0.2249 -0.0224 -0.3905
  700THF     H4 9091   2.983   3.317   0.626 -0.1154 -0.6919  0.5248
  700THF     H5 9092   2.904   3.287   0.789 -2.9810  0.5714  0.3036
  700THF     H6 9093   2.898   3.654   0.657  1.7335  1.4866  1.0062
  700THF     H7 9094   2.805   3.640   0.796 -0.6893 -1.5908 -0.1079
  700THF     C8 9095   3.003   3.564   0.824 -0.4895  0.1140  0.3753
  700THF     C9 9096   3.067   3.433   0.775 -0.3345  0.7242  0.4290
  700THF    H10 9097   2.972   3.549   0.928 -1.8919  1.5502  0.1918
  700THF    H11 9098   3.073   3.647   0.822  0.7977 -0.9486 -0.2949
  700THF    H12 9099   3.147   3.452   0.703 -0.6067 -1.3639 -0.4632
  700THF    H13 9100   3.112   3.369   0.851  0.7805  0.2137 -0.6303
  701THF     O1 9101   4.052   1.215   2.019 -0.3037  0.2234  0.7788
  701THF     C2 9102   4.070   1.187   2.155 -0.1942 -0.3603 -0.3469
  701THF     C3 9103   4.002   1.099   1.950  0.5392 -0.1785  0.1773
  701THF     H4 9104   3.989   1.220   2.219 -0.1337  1.3299 -1.0974
  701THF     H5 9105   4.159   1.238   2.191 -1.2124 -0.2787  2.2124
  701THF     H6 9106   3.897   1.112   1.924  0.8454  1.1984 -0.4925
  701THF     H7 9107   4.057   1.080   1.858  0.5781  0.1516  0.1311
  701THF     C8 9108   4.008   0.986   2.050 -0.1317  0.2095  0.6309
  701THF     C9 9109   4.106   1.036   2.159  0.2647  0.9272  0.4017
  701THF    H10 9110   4.036   0.894   2.000 -1.6194  0.3630 -0.5299
  701THF    H11 9111   3.912   0.981   2.100  0.5416 -1.8552  1.8320
  701THF    H12 9112   4.116   0.984   2.254  2.1420 -1.0414 -0.7743
  701THF    H13 9113   4.208   1.031   2.121  0.1685 -0.6618  0.2963
  702THF     O1 9114   0.596   0.131   0.522  0.5030  0.0486  0.2960
  702THF     C2 9115   0.513   0.110   0.410 -0.4752 -0.3294 -0.3322
  702THF     C3 9116   0.696   0.223   0.483 -0.1444  0.9019  1.2515
  702THF     H4 9117   0.421   0.061   0.440  0.5538 -1.2278  1.6100
  702THF     H5 9118   0.566   0.056   0.331 -1.5306 -3.6252  1.0176
  702THF     H6 9119   0.738   0.283   0.563 -1.7024  2.1768  1.1678
  702THF     H7 9120   0.780   0.162   0.449 -0.1023 -0.6577  3.9088
  702THF     C8 9121   0.626   0.316   0.381 -0.4683 -0.7517  0.4726
  702THF     C9 9122   0.488   0.253   0.365 -0.4891  0.2993 -0.2775
  702THF    H10 9123   0.683   0.332   0.289 -3.2655 -1.4045 -1.4886
  702THF    H11 9124   0.615   0.414   0.428  1.5176 -0.2056 -0.0723
  702THF    H12 9125   0.406   0.305   0.414 -0.1661  2.2091 -1.6668
  702THF    H13 9126   0.446   0.256   0.264  1.5782 -1.7138 -1.2915
  703THF     O1 9127   0.572   2.204   3.936 -0.0176  0.3415 -0.2008
  703THF     C2 9128   0.578   2.062   3.949  0.6366  0.2455  0.6072
  703THF     C3 9129   0.444   2.255   3.969 -0.6683 -0.5012  0.6091
  703THF     H4 9130   0.680   2.025   3.964  0.0000 -0.9042  2.4369
  703THF     H5 9131   0.546   2.023   3.852  0.9202  0.9825  0.2067
  703THF     H6 9132   0.456   2.356   4.010  0.0931  0.2888 -1.3967
  703THF     H7 9133   0.392   2.267   3.874  1.4280  1.3171 -0.3994
  703THF     C8 9134   0.378   2.146   4.047  0.1605 -0.1562  0.7543
  703THF     C9 9135   0.482   2.030   4.059 -0.2133 -0.4009 -0.4173
  703THF    H10 9136   0.290   2.122   3.987  0.1990 -0.9071  1.0024
  703THF    H11 9137   0.350   2.196   4.140  2.2438  2.8397 -0.0559
  703THF    H12 9138   0.526   2.048   4.157  1.0460 -1.0109 -0.8535
  703THF    H13 9139   0.439   1.930   4.057 -0.3512 -0.5606  3.2565
  704THF     O1 9140   1.284   1.829   0.508 -0.0594  0.2782 -0.2491
  704THF     C2 9141   1.291   1.702   0.450  0.2336 -0.4271  0.4990
  704THF     C3 9142   1.222   1.819   0.636 -1.0404  0.2507 -1.0161
  704THF     H4 9143   1.394   1.693   0.416  0.2100 -1.1838  0.6201
  704THF     H5 9144   1.240   1.706   0.353 -1.2907  1.2895  1.3100
  704THF     H6 9145   1.290   1.886   0.688 -1.8648  0.4056 -0.1136
  704THF     H7 9146   1.122   1.853   0.660 -2.0265 -3.2170  0.3174
  704THF     C8 9147   1.247   1.678   0.678 -0.4028  0.8563  0.2823
  704THF     C9 9148   1.221   1.610   0.543 -0.1878 -0.4478  0.4453
  704THF    H10 9149   1.181   1.644   0.759  0.4945  2.2122  1.6462
  704THF    H11 9150   1.349   1.660   0.710 -0.6379 -0.8585  0.1502
  704THF    H12 9151   1.248   1.506   0.521  0.9492  0.3253 -2.2326
  704THF    H13 9152   1.113   1.618   0.535 -0.2219 -0.2792  1.0080
  705THF     O1 9153   3.329   4.775   4.344 -0.5599 -0.3974  0.1740
  705THF     C2 9154   3.265   4.739   4.471 -0.0475  0.2528  0.1957
  705THF     C3 9155   3.241   4.715   4.243  0.4232  0.0800  0.5988
  705THF     H4 9156   3.180   4.804   4.491 -0.7223 -0.1757 -1.1658
  705THF     H5 9157   3.339   4.745   4.551  1.1492  1.7734 -0.9743
  705THF     H6 9158   3.162   4.785   4.218 -0.4622 -0.6589  1.2636
  705THF     H7 9159   3.298   4.699   4.151 -1.1616  1.2489 -0.6247
  705THF     C8 9160   3.184   4.582   4.305 -0.3834 -0.9122  0.4249
  705THF     C9 9161   3.229   4.588   4.449 -0.0909  0.0450  0.2380
  705THF    H10 9162   3.229   4.493   4.260 -3.5870 -1.5312 -1.8872
  705THF    H11 9163   3.075   4.577   4.295 -0.5716  1.0689  1.1278
  705THF    H12 9164   3.153   4.556   4.520  2.6903 -0.4568  3.2016
  705THF    H13 9165   3.319   4.526   4.455  0.2646  0.3060 -1.8168
  706THF     O1 9166   1.087   0.789   4.558  0.2190  0.1981 -0.2089
  706THF     C2 9167   1.058   0.929   4.535  0.2096 -0.0465 -0.0164
  706THF     C3 9168   1.227   0.778   4.566  0.0361  0.3605 -0.3906
  706THF     H4 9169   1.015   0.975   4.624 -0.7108 -0.3426 -0.2978
  706THF     H5 9170   0.991   0.956   4.454  1.5764  2.0808 -0.5397
  706THF     H6 9171   1.281   0.793   4.660  3.8792  0.3706 -2.4165
  706THF     H7 9172   1.252   0.675   4.540  1.0789  0.2564  0.9024
  706THF     C8 9173   1.291   0.879   4.469 -0.2621  0.3358 -0.2662
  706THF     C9 9174   1.191   0.990   4.501  0.3383 -0.0034  0.4063
  706THF    H10 9175   1.289   0.842   4.367 -2.4273 -1.7480  0.4422
  706THF    H11 9176   1.391   0.909   4.499 -0.0339 -0.8650  0.2197
  706THF    H12 9177   1.225   1.036   4.593  1.5012  1.6145 -0.7636
  706THF    H13 9178   1.186   1.071   4.427 -0.6370 -0.9084 -0.5686
  707THF     O1 9179   4.832   3.197   0.599 -0.4833 -0.0097 -0.0171
  707THF     C2 9180   4.787   3.263   0.476 -0.2650 -0.5253  0.9796
  707THF     C3 9181   4.909   3.303   0.668 -0.3295  0.0501  0.0313
  707THF     H4 9182   4.715   3.337   0.509 -0.6960 -0.8014  0.6724
  707THF     H5 9183   4.739   3.191   0.409 -0.6414  0.4585  0.1540
  707THF     H6 9184   4.842   3.377   0.713  0.2002  1.3426 -1.2307
  707THF     H7 9185   4.981   3.275   0.745 -1.5534 -2.5910  0.3458
  707THF     C8 9186   4.990   3.364   0.551  0.1718  0.1676 -0.5271
  707THF     C9 9187   4.909   3.333   0.426 -0.3190 -1.2021 -0.0192
  707THF    H10 9188   5.088   3.318   0.546  0.7787  1.3696 -0.0484
  707THF    H11 9189   5.010   3.467   0.580  1.0236  0.0615 -0.7086
  707THF    H12 9190   4.889   3.426   0.373  0.2723 -2.5685 -2.8072
  707THF    H13 9191   4.969   3.271   0.359 -0.4541  0.4123 -1.7062
  708THF     O1 9192   4.849   4.979   1.120  0.0942 -0.0349 -0.3998
  708THF     C2 9193   4.813   5.093   1.209 -0.1065  0.4547  0.0763
  708THF     C3 9194   4.929   4.885   1.194 -0.1368  0.0247 -0.2169
  708THF     H4 9195   4.726   5.146   1.170 -0.1138 -0.2765 -0.9362
  708THF     H5 9196   4.902   5.156   1.208 -0.7690  1.4257  0.2932
  708THF     H6 9197   4.889   4.790   1.158 -0.2932  0.0323 -0.0641
  708THF     H7 9198   5.034   4.890   1.164 -0.0357 -1.8817 -0.2968
  708THF     C8 9199   4.904   4.913   1.347 -0.1946  0.1703  0.0269
  708THF     C9 9200   4.798   5.029   1.349  0.2497  0.3685 -0.1097
  708THF    H10 9201   4.994   4.916   1.409 -1.5258 -0.6870  2.1167
  708THF    H11 9202   4.859   4.822   1.388 -0.8758  0.8194  0.7482
  708THF    H12 9203   4.694   4.999   1.360 -0.1412  1.0198 -1.6876
  708THF    H13 9204   4.815   5.099   1.431 -2.0334  0.7852  0.0710
  709THF     O1 9205   0.082   1.316   2.336  0.5427  0.5753  0.0760
  709THF     C2 9206  -0.053   1.297   2.373  0.2154 -0.1267  0.9915
  709THF     C3 9207   0.148   1.191   2.340 -0.5603 -0.2328  0.2630
  709THF     H4 9208  -0.105   1.385   2.334  1.3459  0.4369  0.7017
  709THF     H5 9209  -0.063   1.299   2.481 -2.1304 -0.3357  0.8432
  709THF     H6 9210   0.222   1.189   2.260 -1.6038 -1.7650 -0.7112
  709THF     H7 9211   0.206   1.187   2.432 -1.2383  1.0034  0.7781
  709THF     C8 9212   0.047   1.083   2.324  0.1333 -0.1309  0.1591
  709THF     C9 9213  -0.085   1.168   2.306  0.2846 -0.2056  0.1052
  709THF    H10 9214   0.045   1.034   2.421  1.6677 -0.7376 -0.0787
  709THF    H11 9215   0.059   1.008   2.246  2.0977  0.5063 -0.2195
  709THF    H12 9216  -0.102   1.186   2.200  1.2699 -0.4651 -0.1077
  709THF    H13 9217  -0.175   1.125   2.350 -0.0778  0.4982  0.0505
  710THF     O1 9218   2.308   3.954   1.786  0.4916 -0.1792  0.6452
  710THF     C2 9219   2.179   3.949   1.721 -0.3863 -0.1590  0.5616
  710THF     C3 9220   2.299   3.878   1.903  0.0128  0.6043 -0.1203
  710THF     H4 9221   2.182   3.982   1.617 -1.1394  0.4902  0.7384
  710THF     H5 9222   2.110   4.019   1.769  0.6355  1.7371 -0.6282
  710THF     H6 9223   2.398   3.856   1.942 -0.0079  1.5423  0.4916
  710THF     H7 9224   2.244   3.931   1.981 -1.3843 -0.0063 -0.6666
  710THF     C8 9225   2.224   3.755   1.853 -0.1348  0.2588  0.6098
  710THF     C9 9226   2.129   3.806   1.743  0.0164  0.3329 -0.1094
  710THF    H10 9227   2.171   3.710   1.936 -0.7935  0.9762  0.5886
  710THF    H11 9228   2.291   3.680   1.811 -0.0226  0.9252 -0.4487
  710THF    H12 9229   2.142   3.747   1.652 -0.1749  1.4097 -0.8552
  710THF    H13 9230   2.022   3.811   1.766 -0.0070  2.2383 -0.4649
  711THF     O1 9231   1.962   0.956   0.546 -0.3427 -0.3708  0.3116
  711THF     C2 9232   1.955   1.090   0.508 -0.0891 -0.5226  0.3364
  711THF     C3 9233   1.831   0.902   0.508  0.3829 -0.6204  0.2280
  711THF     H4 9234   1.951   1.091   0.399  1.1328  0.1749  0.2815
  711THF     H5 9235   2.049   1.137   0.539  0.7057 -1.2787 -0.8019
  711THF     H6 9236   1.838   0.873   0.403 -3.2063  0.1563 -0.3460
  711THF     H7 9237   1.801   0.806   0.549 -0.3765 -0.5080 -0.0508
  711THF     C8 9238   1.733   1.015   0.533  0.3319 -0.5430  0.1789
  711THF     C9 9239   1.826   1.129   0.566  0.1918  0.1662  0.1133
  711THF    H10 9240   1.658   0.990   0.609 -1.4717  0.8865 -1.0374
  711THF    H11 9241   1.667   1.035   0.448  0.1201  0.7550  0.6224
  711THF    H12 9242   1.794   1.216   0.509  0.1671  0.4700  0.5865
  711THF    H13 9243   1.837   1.144   0.673  0.5763 -1.6097  0.3554
  712THF     O1 9244   1.333   2.454   2.360  0.4456 -0.4023 -0.1360
  712THF     C2 9245   1.282   2.578   2.417 -0.1044  0.1009  0.9004
  712THF     C3 9246   1.226   2.403   2.283  0.0219  0.2211  0.0025
  712THF     H4 9247   1.255   2.649   2.338 -0.3122 -1.5967 -0.6136
  712THF     H5 9248   1.345   2.628   2.491  0.7338 -0.6569  0.7230
  712THF     H6 9249   1.223   2.454   2.186  0.5784 -0.6486 -0.4836
  712THF     H7 9250   1.241   2.297   2.260 -1.0912 -0.5444  2.4636
  712THF     C8 9251   1.104   2.431   2.369 -0.3382  0.2745  0.4303
  712THF     C9 9252   1.156   2.518   2.481  0.0180 -0.1052 -0.4800
  712THF    H10 9253   1.062   2.335   2.399 -0.1584 -0.1278 -0.5609
  712THF    H11 9254   1.026   2.484   2.314 -1.1191 -1.3387 -0.0835
  712THF    H12 9255   1.090   2.589   2.530 -1.2778 -1.9338  0.5714
  712THF    H13 9256   1.196   2.456   2.562  0.0655 -0.4394 -0.7560
  713THF     O1 9257   0.699   0.493   1.716 -0.0524 -0.2925 -0.4781
  713THF     C2 9258   0.693   0.352   1.747 -0.1208 -0.1657 -0.1237
  713THF     C3 9259   0.595   0.563   1.791 -0.2488 -0.3835  0.4237
  713THF     H4 9260   0.789   0.312   1.780 -0.5940 -1.4742 -0.2657
  713THF     H5 9261   0.674   0.303   1.651  2.2534  2.0051 -1.8222
  713THF     H6 9262   0.643   0.610   1.876 -0.4490 -0.4880  0.5929
  713THF     H7 9263   0.546   0.642   1.734 -3.1494 -1.6201  1.0229
  713THF     C8 9264   0.488   0.464   1.828 -0.4497  0.0745  0.1912
  713THF     C9 9265   0.574   0.341   1.853  0.2259  0.3180 -0.0969
  713THF    H10 9266   0.415   0.453   1.748 -1.4518 -1.2139  1.2341
  713THF    H11 9267   0.438   0.486   1.922  0.3212 -1.5217  1.0097
  713THF    H12 9268   0.608   0.350   1.956 -1.0760 -1.8593  0.5776
  713THF    H13 9269   0.517   0.249   1.851  1.1377 -0.2512 -1.4111
  714THF     O1 9270   0.306   2.561   1.322  0.0302  0.0490 -0.3591
  714THF     C2 9271   0.205   2.540   1.419 -0.0990 -0.1755  0.1889
  714THF     C3 9272   0.432   2.584   1.384  0.4878 -0.0788 -0.6490
  714THF     H4 9273   0.188   2.437   1.452 -0.8775 -0.0879  0.0941
  714THF     H5 9274   0.108   2.570   1.378 -0.5175  0.6473  1.6975
  714THF     H6 9275   0.501   2.508   1.350 -0.9014 -1.2831 -0.8991
  714THF     H7 9276   0.465   2.685   1.360  3.4505 -0.5631  0.9299
  714THF     C8 9277   0.403   2.590   1.536 -0.5326 -0.1218  0.3067
  714THF     C9 9278   0.255   2.618   1.539  0.0968  0.1236 -0.6493
  714THF    H10 9279   0.468   2.661   1.589 -2.1317  1.2108  0.5740
  714THF    H11 9280   0.419   2.489   1.572  0.2604 -1.4870 -3.4227
  714THF    H12 9281   0.202   2.599   1.633  0.7139 -0.1139 -0.3449
  714THF    H13 9282   0.248   2.726   1.529 -0.9007  0.1633  0.2050
  715THF     O1 9283   2.509   2.338   1.909 -0.1143  0.0223 -0.4410
  715THF     C2 9284   2.379   2.344   1.855  0.4026  0.6214  0.0898
  715THF     C3 9285   2.579   2.456   1.876  0.0954  0.2090 -0.6256
  715THF     H4 9286   2.306   2.359   1.934 -2.6441 -2.2786 -1.8908
  715THF     H5 9287   2.346   2.245   1.823  1.1128  0.7170 -1.0112
  715THF     H6 9288   2.638   2.489   1.961 -0.4556 -1.5715  0.5042
  715THF     H7 9289   2.655   2.424   1.805 -0.3831 -0.7673 -0.7058
  715THF     C8 9290   2.480   2.549   1.810  0.3741 -0.4724  0.6161
  715THF     C9 9291   2.376   2.454   1.758  0.6437  0.6451 -0.1479
  715THF    H10 9292   2.526   2.611   1.733  0.9425 -2.8481 -1.0682
  715THF    H11 9293   2.432   2.615   1.882  0.5214  2.7704 -2.0289
  715THF    H12 9294   2.271   2.480   1.746  0.6952  0.1695 -1.8726
  715THF    H13 9295   2.404   2.427   1.656 -0.4529  0.8817 -0.5163
  716THF     O1 9296   3.796   1.250   2.783  0.2491  0.3753 -0.1081
  716THF     C2 9297   3.893   1.347   2.752  0.4882  0.7558  0.4797
  716THF     C3 9298   3.665   1.300   2.756 -0.0731 -0.0962 -0.5730
  716THF     H4 9299   3.934   1.346   2.651  0.5501  2.6640  0.4531
  716THF     H5 9300   3.974   1.322   2.822  0.1049 -3.7820 -0.3659
  716THF     H6 9301   3.641   1.298   2.649 -0.1960  0.3833 -0.5570
  716THF     H7 9302   3.580   1.256   2.808 -0.6581  0.7705 -0.7661
  716THF     C8 9303   3.675   1.447   2.810 -0.3785  0.0749  0.3015
  716THF     C9 9304   3.822   1.476   2.781 -0.4884 -0.3114 -0.8036
  716THF    H10 9305   3.649   1.456   2.915  2.4071  0.1865  1.0619
  716THF    H11 9306   3.617   1.514   2.746 -0.0304  1.3813  1.3189
  716THF    H12 9307   3.832   1.535   2.690 -0.9795 -0.2963 -0.8528
  716THF    H13 9308   3.864   1.527   2.868 -1.2167  1.7043 -1.5674
  717THF     O1 9309   1.180   2.889   1.688 -0.3344  0.3865 -0.1269
  717THF     C2 9310   1.079   2.952   1.614  0.5438 -0.0289  0.6691
  717THF     C3 9311   1.256   2.987   1.761  0.6633  0.0672 -0.7239
  717THF     H4 9312   0.984   2.973   1.663 -0.6112  0.2028 -1.5699
  717THF     H5 9313   1.052   2.893   1.527 -0.8452 -0.4230  1.3441
  717THF     H6 9314   1.189   3.017   1.842  0.5861  0.0909 -0.7955
  717THF     H7 9315   1.352   2.950   1.795  0.9790 -0.3988 -2.0548
  717THF     C8 9316   1.267   3.101   1.660 -0.0108 -0.3587  0.0813
  717THF     C9 9317   1.140   3.091   1.576  0.7087  0.8215 -0.4843
  717THF    H10 9318   1.350   3.098   1.590  0.2235  2.0181  0.1745
  717THF    H11 9319   1.256   3.200   1.704  0.1854  0.6503 -2.0248
  717THF    H12 9320   1.073   3.175   1.592  1.1073  0.7548  1.9763
  717THF    H13 9321   1.156   3.084   1.469 -2.0384 -3.2459 -0.8411
  718THF     O1 9322   2.521   2.011   0.152 -0.9283  0.2472  0.1563
  718THF     C2 9323   2.429   1.905   0.112 -0.4803 -0.0574  0.3490
  718THF     C3 9324   2.560   1.989   0.293  0.1420  0.5306 -0.8711
  718THF     H4 9325   2.428   1.893   0.003 -0.1508  2.6159 -0.0234
  718THF     H5 9326   2.326   1.929   0.137 -0.8950 -2.6742  1.3991
  718THF     H6 9327   2.668   1.996   0.303  0.3612 -1.1190 -1.8246
  718THF     H7 9328   2.521   2.068   0.357  1.3716  0.8640 -0.5052
  718THF     C8 9329   2.528   1.841   0.325  0.4599 -0.1975  0.9337
  718THF     C9 9330   2.484   1.779   0.189  0.0044  0.2160  0.2153
  718THF    H10 9331   2.443   1.844   0.394  0.7733  4.4451  1.4372
  718THF    H11 9332   2.613   1.790   0.370  0.4500 -0.9496  0.1261
  718THF    H12 9333   2.571   1.745   0.133 -1.2582 -0.9120 -1.1360
  718THF    H13 9334   2.432   1.684   0.179  1.7431 -0.6524 -1.0804
  719THF     O1 9335   4.594   0.944   1.339  0.7005 -0.4532 -0.0038
  719THF     C2 9336   4.691   0.980   1.438 -0.3420  0.6199 -1.0080
  719THF     C3 9337   4.623   1.010   1.224 -0.6030  0.5266  0.2586
  719THF     H4 9338   4.788   0.935   1.418  0.7113  2.4391 -0.2198
  719THF     H5 9339   4.661   0.968   1.542 -2.0413 -0.4058 -1.5678
  719THF     H6 9340   4.698   0.953   1.168  1.4930 -0.1078  3.4763
  719THF     H7 9341   4.531   1.008   1.165 -0.9211 -1.2822  0.7660
  719THF     C8 9342   4.664   1.147   1.269  0.6103  0.5806 -0.4047
  719THF     C9 9343   4.696   1.132   1.418 -0.0959  0.0612  0.0978
  719THF    H10 9344   4.582   1.220   1.264  0.8122  0.8769  0.3643
  719THF    H11 9345   4.747   1.186   1.211  1.5463  0.6305  0.9232
  719THF    H12 9346   4.788   1.184   1.444  1.2436 -1.3432 -1.5881
  719THF    H13 9347   4.609   1.169   1.472  0.1792  0.8301  0.0211
  720THF     O1 9348   0.942   4.684   3.230 -0.3214 -1.0063  0.0935
  720THF     C2 9349   0.893   4.666   3.097  0.7640 -0.1158  0.4503
  720THF     C3 9350   0.882   4.807   3.284 -0.1882  0.1610 -0.1987
  720THF     H4 9351   0.793   4.627   3.115 -0.4449  2.1794 -0.7612
  720THF     H5 9352   0.941   4.594   3.031  0.0543 -0.7138  0.5691
  720THF     H6 9353   0.779   4.773   3.300  0.6335 -3.2538 -1.1976
  720THF     H7 9354   0.926   4.840   3.377  0.8378  0.2370 -0.7021
  720THF     C8 9355   0.881   4.899   3.164  0.1140  0.2627 -0.2154
  720THF     C9 9356   0.883   4.809   3.043 -0.1016  0.3885  0.2111
  720THF    H10 9357   0.975   4.954   3.172  1.0235 -1.5209  3.5282
  720THF    H11 9358   0.798   4.969   3.156  1.2621  1.4249 -4.1560
  720THF    H12 9359   0.806   4.818   2.966  1.0452 -1.0222 -1.1479
  720THF    H13 9360   0.980   4.831   2.999  0.0598  0.7975  0.7683
  721THF     O1 9361   4.269   3.204   0.654  0.0804  0.2362 -0.7556
  721THF     C2 9362   4.351   3.324   0.652  1.2923  0.6171  0.1021
  721THF     C3 9363   4.248   3.169   0.791  0.6096 -0.1462  0.6615
  721THF     H4 9364   4.347   3.391   0.566 -1.4289  1.5578  0.8841
  721THF     H5 9365   4.454   3.288   0.662  0.4918 -1.5300  1.1004
  721THF     H6 9366   4.142   3.150   0.805  0.5784 -0.3919  0.1263
  721THF     H7 9367   4.302   3.078   0.819  1.1808  0.3617  1.2585
  721THF     C8 9368   4.296   3.286   0.873 -0.2665 -0.1650  0.5371
  721THF     C9 9369   4.307   3.400   0.773 -0.0491 -0.4494 -0.6665
  721THF    H10 9370   4.400   3.269   0.902  0.1116  1.0418 -0.0535
  721THF    H11 9371   4.239   3.313   0.962  1.3093  1.1412  1.2063
  721THF    H12 9372   4.215   3.458   0.762  1.0021  1.8604  1.6872
  721THF    H13 9373   4.387   3.464   0.809  0.8476 -2.3021  0.7796
  722THF     O1 9374   4.430   0.702   1.952  0.7673 -0.5092 -0.1002
  722THF     C2 9375   4.567   0.720   1.979  0.7674 -0.9451 -0.5861
  722THF     C3 9376   4.360   0.818   1.994  0.0283 -0.3352  0.0698
  722THF     H4 9377   4.619   0.758   1.891  1.8091  0.9054  0.7693
  722THF     H5 9378   4.604   0.623   2.014  0.3892 -1.5750 -1.8533
  722THF     H6 9379   4.385   0.902   1.929 -0.8140  1.3493  1.8376
  722THF     H7 9380   4.255   0.798   2.019  0.1462 -0.0875  0.7689
  722THF     C8 9381   4.432   0.862   2.123  0.0155 -0.1816  0.1357
  722THF     C9 9382   4.574   0.823   2.094  0.0559 -0.4729  0.2141
  722THF    H10 9383   4.399   0.803   2.209 -1.6684  1.0733  0.4183
  722THF    H11 9384   4.427   0.969   2.142  0.6296 -0.2538  0.7404
  722THF    H12 9385   4.627   0.911   2.058 -0.5301 -0.6189 -1.0516
  722THF    H13 9386   4.626   0.777   2.178 -0.3958 -1.1194  0.1435
  723THF     O1 9387   5.190   1.732   0.290 -0.3167  0.3450 -0.0874
  723THF     C2 9388   5.197   1.727   0.148 -0.2352  0.4735  0.2095
  723THF     C3 9389   5.145   1.860   0.327  0.5738 -0.2491  0.6138
  723THF     H4 9390   5.179   1.624   0.119 -0.4842  0.4369  0.4849
  723THF     H5 9391   5.298   1.746   0.114  0.0967 -0.3028  0.7358
  723THF     H6 9392   5.097   1.847   0.424 -0.8749  3.1512  0.5166
  723THF     H7 9393   5.231   1.927   0.332  0.5018 -0.2510  3.4739
  723THF     C8 9394   5.043   1.894   0.217  1.0173  0.0865  0.3967
  723THF     C9 9395   5.094   1.829   0.094  0.1208 -0.1779 -0.0291
  723THF    H10 9396   5.018   1.997   0.193  0.9433 -0.0338 -0.0546
  723THF    H11 9397   4.952   1.835   0.223 -0.2293  1.7764 -0.9474
  723THF    H12 9398   5.024   1.792   0.019  1.6482 -1.6883 -0.7687
  723THF    H13 9399   5.163   1.903   0.053  1.6062  0.1898  2.8855
  724THF     O1 9400   3.343   1.126   3.615 -0.5055 -0.3126 -0.1439
  724THF     C2 9401   3.295   1.051   3.512 -0.2190  0.1288  0.1468
  724THF     C3 9402   3.383   1.042   3.727  0.2650 -0.9389  0.5099
  724THF     H4 9403   3.299   1.105   3.417 -0.1181  1.6606  0.9879
  724THF     H5 9404   3.199   1.024   3.555  0.6509 -1.7374  1.0741
  724THF     H6 9405   3.461   1.089   3.787  0.1316 -0.2585  0.1543
  724THF     H7 9406   3.293   1.019   3.785 -0.6328 -1.9873 -1.2047
  724THF     C8 9407   3.448   0.928   3.658  0.6975  0.2484  0.1661
  724THF     C9 9408   3.393   0.932   3.518  0.4819 -0.2853 -0.2526
  724THF    H10 9409   3.430   0.833   3.708  2.2999 -0.5414 -0.6512
  724THF    H11 9410   3.557   0.938   3.652  0.8282 -0.7618  0.6044
  724THF    H12 9411   3.480   0.960   3.458  1.3967 -0.6319  0.8744
  724THF    H13 9412   3.364   0.834   3.481 -0.4339 -0.6680  1.3764
  725THF     O1 9413   0.326   0.180   0.645 -0.0585  0.2116  0.3476
  725THF     C2 9414   0.389   0.294   0.694  0.1411 -0.1295 -0.1381
  725THF     C3 9415   0.210   0.166   0.714 -0.0516 -0.4003  0.3049
  725THF     H4 9416   0.363   0.379   0.630  2.3777  0.7903  0.0897
  725THF     H5 9417   0.497   0.277   0.689  0.1920  0.3947 -1.3061
  725THF     H6 9418   0.123   0.160   0.649 -0.1377  0.8181  0.2894
  725THF     H7 9419   0.222   0.067   0.758 -0.4296  0.0140  1.3839
  725THF     C8 9420   0.192   0.291   0.811 -0.8815 -0.1525  0.2812
  725THF     C9 9421   0.336   0.320   0.834  0.0775  0.7684 -0.1315
  725THF    H10 9422   0.129   0.276   0.899 -1.3261 -2.2866 -0.3490
  725THF    H11 9423   0.140   0.366   0.751  0.1040 -0.1343 -0.5687
  725THF    H12 9424   0.354   0.423   0.865  2.6111  1.1659 -2.5963
  725THF    H13 9425   0.389   0.257   0.904  1.3063  0.4764 -1.2938
  726THF     O1 9426   3.607   4.946   4.923  0.6580 -0.3419  0.3994
  726THF     C2 9427   3.530   4.903   4.808 -0.0427  0.1971 -0.0964
  726THF     C3 9428   3.628   4.831   5.002  0.4183 -0.3596 -0.0594
  726THF     H4 9429   3.539   4.981   4.732 -2.5276  0.0504 -0.6346
  726THF     H5 9430   3.423   4.898   4.827 -0.4610 -1.6217 -2.3942
  726THF     H6 9431   3.711   4.850   5.070  0.6157 -0.7401 -0.1845
  726THF     H7 9432   3.543   4.808   5.066 -0.7821  3.1454 -0.2054
  726THF     C8 9433   3.674   4.733   4.897  0.1650 -0.6792  0.4845
  726THF     C9 9434   3.586   4.761   4.780  0.4383  0.0725  0.0952
  726THF    H10 9435   3.661   4.637   4.947  0.1731 -0.7031  0.4397
  726THF    H11 9436   3.778   4.760   4.878 -0.1940  0.5593  0.2362
  726THF    H12 9437   3.636   4.760   4.683  1.0695  0.6634  0.4073
  726THF    H13 9438   3.503   4.690   4.771 -1.0754  1.6296  1.0963
  727THF     O1 9439   3.518   0.998   1.416 -0.9025 -0.0812 -0.0679
  727THF     C2 9440   3.642   1.006   1.342  0.0963 -0.0377  0.1740
  727THF     C3 9441   3.540   0.898   1.518  0.3812  0.6237 -0.1823
  727THF     H4 9442   3.649   1.105   1.298 -2.4716 -0.3523 -1.1507
  727THF     H5 9443   3.641   0.929   1.265 -1.2769 -0.1713  0.3027
  727THF     H6 9444   3.474   0.898   1.605  0.0214 -0.7748 -0.4276
  727THF     H7 9445   3.526   0.804   1.464  1.2347  0.5466 -0.2782
  727THF     C8 9446   3.676   0.918   1.572  0.1043 -0.5668  0.0993
  727THF     C9 9447   3.754   0.974   1.444  0.1683 -0.6142  0.3694
  727THF    H10 9448   3.716   0.821   1.601  0.6914 -0.0159  1.1762
  727THF    H11 9449   3.686   0.989   1.654  1.9912  1.4095 -1.7424
  727THF    H12 9450   3.811   1.060   1.479  0.2125 -0.4825 -0.0226
  727THF    H13 9451   3.825   0.894   1.422 -1.1753 -1.6387 -0.4214
  728THF     O1 9452   4.502   0.153   1.972  0.0947 -0.0768  0.8692
  728THF     C2 9453   4.398   0.220   2.048 -1.0177  0.4599 -0.0538
  728THF     C3 9454   4.563   0.243   1.881  0.4513 -0.1321  0.2512
  728THF     H4 9455   4.457   0.271   2.125  1.3002 -0.8312 -0.8676
  728THF     H5 9456   4.326   0.156   2.099 -1.1923 -0.2442 -1.1460
  728THF     H6 9457   4.646   0.294   1.930 -0.8287  1.3826  0.9331
  728THF     H7 9458   4.586   0.197   1.785  0.4739 -0.3070  0.3393
  728THF     C8 9459   4.453   0.353   1.850 -0.4375  0.5579 -0.4698
  728THF     C9 9460   4.342   0.319   1.951  0.1317 -0.8204  0.4109
  728THF    H10 9461   4.433   0.342   1.743 -0.5038 -1.0171 -0.3236
  728THF    H11 9462   4.500   0.450   1.858  1.6556 -0.2365 -2.1963
  728THF    H12 9463   4.331   0.406   2.016  1.2507 -0.6448  0.3786
  728THF    H13 9464   4.247   0.303   1.899  0.4070  0.2879 -0.4848
  729THF     O1 9465   0.963   1.414   2.616  0.1958  0.3305 -0.3133
  729THF     C2 9466   0.828   1.383   2.588 -0.3657  0.0096 -0.0105
  729THF     C3 9467   1.025   1.304   2.687 -0.5018 -0.8771 -0.2810
  729THF     H4 9468   0.791   1.458   2.518  1.1202 -1.1088 -2.0716
  729THF     H5 9469   0.761   1.373   2.674 -1.8310 -1.2799 -1.2511
  729THF     H6 9470   1.133   1.301   2.672 -0.7192  1.1637 -3.1005
  729THF     H7 9471   0.999   1.309   2.793  1.2707  2.6345  0.1246
  729THF     C8 9472   0.951   1.189   2.615 -0.6995  0.4892  0.2322
  729THF     C9 9473   0.832   1.240   2.538 -0.1621 -0.4712  0.2594
  729THF    H10 9474   0.917   1.116   2.689  2.2350 -0.8130  0.4204
  729THF    H11 9475   1.010   1.137   2.540 -0.7021  1.6203 -0.5661
  729THF    H12 9476   0.846   1.243   2.430  1.1221 -2.3426  0.3336
  729THF    H13 9477   0.740   1.183   2.553  0.3479 -1.0469  1.3555
  730THF     O1 9478   1.760   2.908   2.674 -0.0200  0.1478  0.6187
  730THF     C2 9479   1.774   2.807   2.576 -0.8561 -0.5593 -0.7289
  730THF     C3 9480   1.624   2.910   2.710 -0.3006 -0.7343  0.2150
  730THF     H4 9481   1.788   2.707   2.618  0.0459 -0.4899 -0.8394
  730THF     H5 9482   1.866   2.810   2.517  0.5522  0.8262  1.3724
  730THF     H6 9483   1.611   2.827   2.780  2.2030 -0.8420  0.6277
  730THF     H7 9484   1.596   3.005   2.755  0.0373  0.0519 -1.1678
  730THF     C8 9485   1.546   2.885   2.574  1.0487 -0.0677  0.1077
  730THF     C9 9486   1.648   2.818   2.484  0.3870 -0.2398  0.5238
  730THF    H10 9487   1.518   2.984   2.538  1.0670  0.8331  2.4042
  730THF    H11 9488   1.460   2.820   2.590 -1.0001  2.2293 -0.8402
  730THF    H12 9489   1.628   2.727   2.426  2.4269 -1.0794  1.0105
  730THF    H13 9490   1.676   2.890   2.407  1.2079 -1.9432 -0.8643
  731THF     O1 9491   4.818   1.826   2.275  0.2241  0.4520 -0.1910
  731THF     C2 9492   4.803   1.962   2.309  0.4359  0.2148 -0.5173
  731THF     C3 9493   4.948   1.787   2.315 -0.2360 -0.1638  0.0133
  731THF     H4 9494   4.696   1.984   2.313 -0.0384 -1.5167 -2.1633
  731THF     H5 9495   4.844   2.034   2.238 -1.4731  2.0968  0.1858
  731THF     H6 9496   4.959   1.678   2.314 -1.9697 -0.3746  0.4535
  731THF     H7 9497   5.017   1.830   2.243 -2.2951  2.2363 -0.6728
  731THF     C8 9498   4.957   1.845   2.452  0.4013  0.3167  0.6370
  731THF     C9 9499   4.869   1.962   2.441 -0.1793  0.0168  0.2970
  731THF    H10 9500   5.055   1.884   2.479  1.0923 -0.4300 -0.6829
  731THF    H11 9501   4.917   1.775   2.526  1.5640 -0.6986  0.3425
  731THF    H12 9502   4.789   1.966   2.515 -0.6593 -1.5805 -0.0806
  731THF    H13 9503   4.925   2.055   2.434  0.5759 -0.4646 -0.2038
  732THF     O1 9504   0.431   5.208   1.570  0.2147  0.1628  0.4211
  732THF     C2 9505   0.410   5.276   1.695  0.5195 -0.6276  0.0483
  732THF     C3 9506   0.339   5.265   1.481  0.2717 -0.0528 -0.9169
  732THF     H4 9507   0.440   5.379   1.677  1.5140 -0.7904  0.6972
  732THF     H5 9508   0.485   5.236   1.763  0.8829 -0.9750 -0.5415
  732THF     H6 9509   0.380   5.355   1.436  2.1623 -0.6196 -0.4385
  732THF     H7 9510   0.315   5.200   1.397  1.2948 -2.9167  0.8623
  732THF     C8 9511   0.217   5.286   1.567  0.2003 -0.2810 -0.5118
  732THF     C9 9512   0.262   5.250   1.707 -0.1005 -0.2333 -0.3702
  732THF    H10 9513   0.143   5.214   1.532 -1.2572  0.4618  0.8976
  732THF    H11 9514   0.183   5.389   1.552 -0.4595 -0.5521 -0.9008
  732THF    H12 9515   0.209   5.297   1.790 -2.1452 -2.0891 -0.5332
  732THF    H13 9516   0.250   5.142   1.719  0.2688 -0.2776 -0.3980
  733THF     O1 9517   3.647   5.209   1.967 -0.5619 -0.2381 -0.4039
  733THF     C2 9518   3.739   5.290   1.894 -0.3812  0.0550  0.1030
  733THF     C3 9519   3.524   5.216   1.891  0.1834 -0.2776 -0.7449
  733THF     H4 9520   3.767   5.260   1.793  2.4252  1.6110  0.2932
  733THF     H5 9521   3.834   5.303   1.947  0.1772 -0.6259 -0.7041
  733THF     H6 9522   3.514   5.147   1.807  1.6345 -1.9387  0.3905
  733THF     H7 9523   3.438   5.211   1.958  0.3351 -1.5934 -0.6187
  733THF     C8 9524   3.530   5.362   1.845  0.1411  0.0500  0.2681
  733THF     C9 9525   3.667   5.417   1.875 -0.1064 -0.5654 -0.1975
  733THF    H10 9526   3.448   5.416   1.891 -0.2666  0.7625 -1.2281
  733THF    H11 9527   3.513   5.358   1.737 -1.0124  0.4724  0.4239
  733THF    H12 9528   3.714   5.488   1.807 -0.8584  1.0191  0.8805
  733THF    H13 9529   3.664   5.476   1.966 -0.1875  1.7309 -1.6221
  734THF     O1 9530   4.501   3.673   3.541  0.1059 -0.4047  0.1829
  734THF     C2 9531   4.494   3.632   3.408  0.1778  0.4525 -0.2512
  734THF     C3 9532   4.392   3.615   3.613  0.2364 -0.3672  0.3598
  734THF     H4 9533   4.516   3.527   3.394 -0.4215  0.2912 -0.0178
  734THF     H5 9534   4.565   3.693   3.352  0.2292  0.0105 -0.6706
  734THF     H6 9535   4.433   3.514   3.622  1.9336  0.4579  3.1858
  734THF     H7 9536   4.392   3.659   3.713  1.9770  1.4971 -0.3876
  734THF     C8 9537   4.278   3.648   3.517  0.5241  0.1087 -0.0388
  734THF     C9 9538   4.346   3.662   3.382 -0.7526  0.4281  0.2808
  734THF    H10 9539   4.243   3.749   3.539 -1.5202 -0.2302 -1.5043
  734THF    H11 9540   4.195   3.578   3.515 -2.7790  3.6996 -1.0778
  734THF    H12 9541   4.312   3.587   3.311  0.4142 -1.3867  1.5593
  734THF    H13 9542   4.341   3.763   3.340  0.5459  0.2923 -0.2558
  735THF     O1 9543   3.424   4.191   4.155  0.0997 -0.1222 -0.0055
  735THF     C2 9544   3.280   4.166   4.157 -0.6097 -0.1260  0.3119
  735THF     C3 9545   3.465   4.276   4.265 -0.0174  0.0536  0.7950
  735THF     H4 9546   3.255   4.072   4.108  1.7251  0.7835 -2.9825
  735THF     H5 9547   3.248   4.247   4.092  2.4865  1.4991  0.6139
  735THF     H6 9548   3.569   4.288   4.295  0.3502  1.1519 -0.7647
  735THF     H7 9549   3.437   4.379   4.243  2.0575  0.2809 -1.2916
  735THF     C8 9550   3.370   4.224   4.370 -0.0217  0.0187  0.2878
  735THF     C9 9551   3.234   4.197   4.300  0.1156  0.0568  0.8167
  735THF    H10 9552   3.371   4.283   4.462 -0.3061  0.2529  0.1426
  735THF    H11 9553   3.404   4.123   4.389 -1.0029 -1.0470 -2.9657
  735THF    H12 9554   3.188   4.114   4.354 -1.9614  0.5606 -0.0790
  735THF    H13 9555   3.168   4.284   4.300  0.8265  0.6036  1.2892
  736THF     O1 9556   4.776   4.889   1.788  0.2721  0.0042 -0.6353
  736THF     C2 9557   4.919   4.881   1.802  0.3026 -0.7730 -0.5206
  736THF     C3 9558   4.718   4.769   1.837 -0.0660  0.2105 -0.3031
  736THF     H4 9559   4.959   4.981   1.818  2.8798 -1.8919  0.6030
  736THF     H5 9560   4.975   4.849   1.714 -2.0384 -0.1195 -2.3614
  736THF     H6 9561   4.613   4.794   1.852 -0.3686  0.1730 -2.0518
  736THF     H7 9562   4.741   4.688   1.767  0.2876  1.4801 -1.7301
  736THF     C8 9563   4.800   4.744   1.966 -0.5857 -0.2748  0.1142
  736THF     C9 9564   4.942   4.781   1.915 -0.8445 -0.1639 -0.5248
  736THF    H10 9565   4.803   4.643   2.005  2.6942 -1.6336 -3.0764
  736THF    H11 9566   4.777   4.807   2.052 -2.0504  0.2978 -0.6579
  736THF    H12 9567   4.990   4.820   2.005 -1.8657 -0.3328  0.1168
  736THF    H13 9568   4.997   4.692   1.884  0.9521  0.6769  0.1068
  737THF     O1 9569   4.812   0.151   1.011 -0.2328 -0.0582  0.4879
  737THF     C2 9570   4.875   0.041   0.938 -0.5418 -0.1181 -0.7954
  737THF     C3 9571   4.842   0.137   1.147 -0.5310 -0.1372 -0.1721
  737THF     H4 9572   4.939   0.090   0.865 -0.8498  2.6414  0.6651
  737THF     H5 9573   4.811  -0.022   0.875  1.3158 -1.8040 -1.1122
  737THF     H6 9574   4.834   0.236   1.192  0.9197  0.2492 -0.7109
  737THF     H7 9575   4.765   0.077   1.195 -2.0080 -0.2872 -2.5094
  737THF     C8 9576   4.976   0.068   1.153  0.6178  0.5733 -0.3195
  737THF     C9 9577   4.961  -0.031   1.042  0.3651  0.1089 -0.0054
  737THF    H10 9578   4.988   0.020   1.250  0.9807  0.8879 -0.2103
  737THF    H11 9579   5.055   0.140   1.136 -0.4642  1.8181 -0.2028
  737THF    H12 9580   5.043  -0.078   0.987 -1.6632 -1.9016 -1.5752
  737THF    H13 9581   4.912  -0.120   1.082 -0.8412 -0.6787 -2.9026
  738THF     O1 9582   0.092   1.615   0.316 -0.2000 -0.0115 -0.2861
  738THF     C2 9583  -0.008   1.517   0.310  0.0914  0.2217 -0.4827
  738THF     C3 9584   0.044   1.715   0.401  0.6379 -0.9355  0.0163
  738THF     H4 9585   0.031   1.424   0.267  0.6126 -1.1444  2.6598
  738THF     H5 9586  -0.085   1.560   0.246 -0.6118  0.3611  0.4506
  738THF     H6 9587   0.118   1.787   0.437 -1.6060  1.1431  0.7679
  738THF     H7 9588  -0.029   1.765   0.338  2.9177  0.9223 -1.2948
  738THF     C8 9589  -0.024   1.635   0.514  0.4362  0.0849 -1.1329
  738THF     C9 9590  -0.054   1.501   0.450  0.5722 -0.3976  0.4128
  738THF    H10 9591  -0.119   1.680   0.543 -0.0998 -0.9271 -1.2917
  738THF    H11 9592   0.050   1.641   0.594 -0.8857  2.4109  0.0359
  738THF    H12 9593   0.005   1.427   0.505 -0.3753 -0.5251  1.2928
  738THF    H13 9594  -0.156   1.461   0.450 -0.1383  1.3501  0.6039
  739THF     O1 9595   2.462   1.284   4.455  0.2367  0.3666  0.1530
  739THF     C2 9596   2.554   1.374   4.510  0.8114 -0.1514  0.6610
  739THF     C3 9597   2.515   1.215   4.346  0.6369  0.2672  0.2388
  739THF     H4 9598   2.600   1.338   4.602 -1.0862 -0.5336  1.5156
  739THF     H5 9599   2.497   1.461   4.543  1.4860 -0.1362  1.8365
  739THF     H6 9600   2.520   1.110   4.376 -0.1523  0.1785  0.0807
  739THF     H7 9601   2.440   1.217   4.267  0.0110  1.1773  0.8455
  739THF     C8 9602   2.643   1.281   4.305  0.7384 -0.5214  0.3374
  739THF     C9 9603   2.668   1.390   4.411  0.4337 -0.4378 -0.2057
  739THF    H10 9604   2.631   1.323   4.205 -1.5672  0.9022  1.1442
  739THF    H11 9605   2.723   1.207   4.302 -0.5699 -2.0578  1.8540
  739THF    H12 9606   2.763   1.371   4.460 -0.0645  0.2817  1.0796
  739THF    H13 9607   2.677   1.487   4.362 -4.0360 -0.1900 -0.9823
  740THF     O1 9608   0.513   2.121   3.082 -0.5814 -0.7588  0.4526
  740THF     C2 9609   0.566   2.131   2.948 -0.5427  0.0043 -0.4278
  740THF     C3 9610   0.616   2.183   3.166  0.4643  0.2930  0.1590
  740THF     H4 9611   0.525   2.215   2.892 -0.2203  1.9290  2.0578
  740THF     H5 9612   0.541   2.046   2.884  0.5787  0.1477 -1.0855
  740THF     H6 9613   0.605   2.290   3.151 -2.2991  0.2886  1.4185
  740THF     H7 9614   0.609   2.171   3.275 -0.4410  1.4838  0.2579
  740THF     C8 9615   0.754   2.146   3.111  0.1988  0.3376 -0.0237
  740THF     C9 9616   0.718   2.100   2.971  0.0772  0.3641 -0.6535
  740THF    H10 9617   0.795   2.063   3.168  1.3344 -1.8520 -3.7099
  740THF    H11 9618   0.815   2.236   3.116 -0.1019  0.5092  0.7902
  740THF    H12 9619   0.793   2.134   2.899  0.5555  0.2548 -0.2091
  740THF    H13 9620   0.743   1.995   2.965  1.0967  0.5830 -0.3920
  741THF     O1 9621   3.888   0.631   5.006 -0.9462 -0.7199  0.3879
  741THF     C2 9622   3.817   0.678   5.123  0.0362 -0.1591 -0.1759
  741THF     C3 9623   4.023   0.586   5.050  0.4486  0.4273  0.6217
  741THF     H4 9624   3.721   0.626   5.119 -0.3967  0.6912 -1.8816
  741THF     H5 9625   3.789   0.780   5.095 -0.4745  0.0134  0.8972
  741THF     H6 9626   4.025   0.477   5.052  1.2770  0.3404 -1.6137
  741THF     H7 9627   4.086   0.612   4.965 -1.3453 -0.0861 -0.9333
  741THF     C8 9628   4.046   0.652   5.190  0.3602 -0.0344 -0.3163
  741THF     C9 9629   3.903   0.668   5.250 -0.0581 -0.6124  0.1934
  741THF    H10 9630   4.092   0.749   5.170  1.0853 -0.2366  0.3024
  741THF    H11 9631   4.111   0.587   5.248 -1.0516 -1.8472 -0.6636
  741THF    H12 9632   3.879   0.584   5.316  0.0385 -0.4384  0.4514
  741THF    H13 9633   3.896   0.755   5.315  0.6669 -0.5350  0.1736
  742THF     O1 9634   0.821   2.303   5.105 -0.0537 -0.3700  0.1201
  742THF     C2 9635   0.886   2.292   4.972  0.9742  0.2888 -0.5949
  742THF     C3 9636   0.845   2.433   5.147 -0.2798 -0.0532 -0.1578
  742THF     H4 9637   0.836   2.225   4.902 -1.7007  0.5612  0.9235
  742THF     H5 9638   0.984   2.254   5.001 -0.0470 -0.4045  2.1947
  742THF     H6 9639   0.749   2.477   5.175 -1.7826 -2.3563 -1.4146
  742THF     H7 9640   0.914   2.423   5.231 -0.2853  1.6402  0.0809
  742THF     C8 9641   0.931   2.514   5.037  0.4060 -0.2611  0.0628
  742THF     C9 9642   0.903   2.426   4.913 -0.4128 -0.0759  0.7697
  742THF    H10 9643   1.037   2.519   5.063 -0.2551 -0.8786  3.3385
  742THF    H11 9644   0.895   2.615   5.026 -1.1334 -0.9722 -1.9940
  742THF    H12 9645   0.808   2.451   4.866  0.6251  2.4789 -0.1367
  742THF    H13 9646   0.977   2.444   4.835 -0.1682 -0.1745  0.9762
  743THF     O1 9647   0.460   2.100   4.934 -0.4226 -0.2981  0.8471
  743THF     C2 9648   0.537   2.215   4.927 -0.3900 -0.3107 -0.3552
  743THF     C3 9649   0.327   2.126   4.982 -0.8708  0.4397 -0.8341
  743THF     H4 9650   0.619   2.200   4.857  1.3783  1.1297  1.3062
  743THF     H5 9651   0.594   2.236   5.018  0.4771  1.8407 -1.3469
  743THF     H6 9652   0.268   2.073   4.907  0.4631  0.3124 -1.8166
  743THF     H7 9653   0.315   2.095   5.086  0.3498  1.2458 -0.4334
  743THF     C8 9654   0.329   2.285   4.984 -0.7702  0.6039  0.0601
  743THF     C9 9655   0.442   2.327   4.891 -0.4441  0.5379 -0.1291
  743THF    H10 9656   0.346   2.333   5.080 -1.4666 -2.0408  1.6031
  743THF    H11 9657   0.240   2.322   4.933  1.1821 -1.0852 -5.2869
  743THF    H12 9658   0.401   2.315   4.790 -1.6463  1.9855  0.1511
  743THF    H13 9659   0.488   2.425   4.891  2.5211 -0.7587 -0.0471
  744THF     O1 9660   1.224   3.941   4.742  0.2158  0.7033  0.0919
  744THF     C2 9661   1.131   3.838   4.752  0.3105 -0.3052  0.4108
  744THF     C3 9662   1.355   3.890   4.719 -0.1426 -0.4526  0.2177
  744THF     H4 9663   1.043   3.852   4.689  0.4040  1.2064  0.5742
  744THF     H5 9664   1.097   3.834   4.855  0.5988  1.5010  0.6067
  744THF     H6 9665   1.381   3.889   4.614  0.0016 -2.0837  0.2333
  744THF     H7 9666   1.413   3.959   4.780 -0.1785 -0.0641 -0.1906
  744THF     C8 9667   1.344   3.746   4.768 -0.8791 -0.5711 -0.2279
  744THF     C9 9668   1.204   3.706   4.734 -0.1140 -0.0084  0.6898
  744THF    H10 9669   1.362   3.742   4.876 -1.9746  1.2110  0.0660
  744THF    H11 9670   1.414   3.675   4.724 -1.1539 -0.3255 -1.0660
  744THF    H12 9671   1.203   3.655   4.637 -0.6175 -0.3449  0.8676
  744THF    H13 9672   1.171   3.624   4.798  0.7845 -0.9384 -0.0042
  745THF     O1 9673   4.039   0.187   2.155 -0.1467  0.7550 -0.3932
  745THF     C2 9674   4.079   0.240   2.274  0.1532 -0.3345 -1.0417
  745THF     C3 9675   3.954   0.281   2.097 -0.1451  0.2240  0.8603
  745THF     H4 9676   4.166   0.180   2.303  0.6568  0.4838 -0.8263
  745THF     H5 9677   4.001   0.231   2.349  0.7433 -3.3849 -0.6439
  745THF     H6 9678   3.937   0.260   1.992 -0.6793 -2.8693  1.4711
  745THF     H7 9679   3.855   0.278   2.143 -1.2149 -2.5232 -1.3505
  745THF     C8 9680   4.023   0.417   2.125  0.3791 -0.2720  0.0734
  745THF     C9 9681   4.119   0.387   2.238  0.6712 -0.7242 -0.3998
  745THF    H10 9682   3.948   0.492   2.152  0.7558  0.0190  0.3226
  745THF    H11 9683   4.068   0.457   2.034  0.1457  0.4472  0.2692
  745THF    H12 9684   4.221   0.394   2.200  0.0187 -0.7625 -2.2666
  745THF    H13 9685   4.107   0.453   2.324 -0.2719 -1.6304  0.1968
  746THF     O1 9686   2.595   1.119   0.927 -0.3074  0.0581 -0.1200
  746THF     C2 9687   2.652   1.013   1.012 -0.3261  0.1494  0.1136
  746THF     C3 9688   2.691   1.223   0.946  0.7176 -0.6879 -0.4205
  746THF     H4 9689   2.714   0.950   0.948  0.2216  0.9572 -0.1730
  746THF     H5 9690   2.576   0.945   1.049 -0.2761 -0.3341 -0.6639
  746THF     H6 9691   2.781   1.192   0.893  2.5660  1.6607  1.1288
  746THF     H7 9692   2.651   1.318   0.911  0.5228 -0.5435  0.1767
  746THF     C8 9693   2.728   1.229   1.098  0.6218 -0.5599 -0.5772
  746THF     C9 9694   2.724   1.080   1.135  0.1851 -0.0998 -0.1764
  746THF    H10 9695   2.659   1.288   1.159  0.1038  0.0918 -1.7723
  746THF    H11 9696   2.825   1.277   1.094 -0.2179  1.1258 -1.6281
  746THF    H12 9697   2.825   1.039   1.140 -0.1338 -1.1252 -1.5289
  746THF    H13 9698   2.670   1.067   1.228 -0.5815 -1.2673 -0.7638
  747THF     O1 9699   3.883   1.641   1.316  0.1404 -0.0211 -0.2977
  747THF     C2 9700   3.889   1.697   1.449  0.6163  0.3392  0.9958
  747THF     C3 9701   3.979   1.696   1.225 -0.3631 -0.2219 -0.2712
  747THF     H4 9702   3.927   1.619   1.515  0.0511  0.5188  1.5432
  747THF     H5 9703   3.786   1.718   1.477 -0.1971 -2.0116 -0.0362
  747THF     H6 9704   4.030   1.634   1.151  0.0809 -0.0981 -0.0737
  747THF     H7 9705   3.936   1.773   1.160  1.2067  1.3911  0.5103
  747THF     C8 9706   4.079   1.755   1.327 -0.0275  0.0756  0.4273
  747THF     C9 9707   3.997   1.798   1.444 -0.9349  0.5328 -0.0482
  747THF    H10 9708   4.143   1.833   1.286  1.3640 -0.1895  1.9646
  747THF    H11 9709   4.149   1.676   1.357 -1.3855 -0.6082  1.9440
  747THF    H12 9710   4.050   1.789   1.539 -0.3596 -1.1723 -0.4925
  747THF    H13 9711   3.956   1.899   1.436  1.2591  1.4425 -0.5043
  748THF     O1 9712   3.590   0.869   0.058  0.2560 -0.1245 -0.1218
  748THF     C2 9713   3.665   0.834  -0.068  0.8834  0.2170 -0.3012
  748THF     C3 9714   3.492   0.766   0.069  0.3163 -0.1617 -1.0121
  748THF     H4 9715   3.747   0.765  -0.045  1.1698  0.1516 -1.4258
  748THF     H5 9716   3.718   0.913  -0.120 -1.2289  2.1220  0.3035
  748THF     H6 9717   3.534   0.671   0.099  0.8347  0.3149 -0.1750
  748THF     H7 9718   3.412   0.792   0.138 -0.5755 -1.5929 -1.4799
  748THF     C8 9719   3.436   0.745  -0.070 -0.1671 -0.3784 -0.0109
  748THF     C9 9720   3.560   0.761  -0.156  0.2032 -0.4096  0.2400
  748THF    H10 9721   3.360   0.816  -0.103  0.6063  0.3068 -0.3590
  748THF    H11 9722   3.385   0.650  -0.082  0.3348 -0.6681  0.0968
  748THF    H12 9723   3.593   0.661  -0.184  0.2774 -0.5284  0.7455
  748THF    H13 9724   3.538   0.834  -0.233  2.3318  0.1689  0.1164
  749THF     O1 9725   2.214   0.201   0.732 -0.4346  0.3590  0.3544
  749THF     C2 9726   2.287   0.097   0.783 -0.3024  0.2101 -1.0403
  749THF     C3 9727   2.088   0.151   0.682  0.6849  0.4008  0.0168
  749THF     H4 9728   2.245   0.064   0.878 -0.2298  0.1117 -1.0418
  749THF     H5 9729   2.394   0.114   0.797  0.0795 -2.3230 -0.2251
  749THF     H6 9730   2.009   0.144   0.757  0.4070  1.4492 -0.1624
  749THF     H7 9731   2.053   0.219   0.604  1.5408  1.5551  0.6098
  749THF     C8 9732   2.127   0.015   0.624 -0.9190  0.0879  0.2871
  749THF     C9 9733   2.265  -0.005   0.670 -1.0655 -0.1246  0.2961
  749THF    H10 9734   2.123   0.033   0.517  0.9079  0.2483  0.2144
  749THF    H11 9735   2.060  -0.064   0.657  2.2074 -3.0885 -0.3575
  749THF    H12 9736   2.296  -0.108   0.687  0.4729  0.1476 -0.6493
  749THF    H13 9737   2.331   0.030   0.591 -0.8072  1.3504  1.1257
  750THF     O1 9738   1.010   4.119   0.345  0.2590  0.1689  0.0310
  750THF     C2 9739   1.136   4.170   0.377  0.2164  0.0933 -0.2165
  750THF     C3 9740   1.010   3.978   0.363 -0.7997  0.2399 -0.1328
  750THF     H4 9741   1.139   4.279   0.390 -1.4115  0.0608  0.6607
  750THF     H5 9742   1.204   4.146   0.296  0.8804 -0.2328  0.4222
  750THF     H6 9743   0.910   3.941   0.385 -1.1775  1.5931  0.5542
  750THF     H7 9744   1.049   3.925   0.276  1.6821 -0.1206  1.0928
  750THF     C8 9745   1.104   3.949   0.480 -0.6718  0.8064  0.2312
  750THF     C9 9746   1.170   4.083   0.503  0.0032  0.4905 -0.0015
  750THF    H10 9747   1.170   3.864   0.461 -0.8188  0.8217 -0.3495
  750THF    H11 9748   1.055   3.918   0.573  2.2081 -0.2092  1.5467
  750THF    H12 9749   1.128   4.117   0.597 -0.8611 -1.5062  0.3752
  750THF    H13 9750   1.278   4.066   0.506 -0.3677 -2.4048 -0.6935
  751THF     O1 9751   4.558   1.675   3.602 -0.7408  0.3333 -0.0231
  751THF     C2 9752   4.444   1.593   3.600 -0.4012 -0.2922 -0.2561
  751THF     C3 9753   4.537   1.800   3.540 -0.0728  0.5877  0.9029
  751THF     H4 9754   4.419   1.568   3.703 -0.6561  0.2685 -0.1757
  751THF     H5 9755   4.481   1.506   3.546  1.0583  1.0337 -1.4952
  751THF     H6 9756   4.492   1.866   3.614  0.0671  1.4583  0.2228
  751THF     H7 9757   4.610   1.844   3.473 -1.7019  1.1287 -0.6062
  751THF     C8 9758   4.421   1.777   3.450  0.2192  0.0837  0.4635
  751THF     C9 9759   4.336   1.678   3.522  0.0358 -0.1698 -0.5741
  751THF    H10 9760   4.466   1.721   3.368  1.9244 -1.5894  2.4004
  751THF    H11 9761   4.372   1.870   3.424  0.7413  0.5411  1.0947
  751THF    H12 9762   4.279   1.731   3.598 -1.6012 -1.3279 -0.9384
  751THF    H13 9763   4.267   1.614   3.467 -0.4822  0.6700 -0.9163
  752THF     O1 9764   3.071   2.322   2.224  0.1806  0.2923 -0.7084
  752THF     C2 9765   3.078   2.434   2.143 -0.3090 -0.5465 -0.1323
  752THF     C3 9766   2.952   2.254   2.195  0.1151 -0.3551  0.7389
  752THF     H4 9767   3.181   2.462   2.122 -0.8827  2.2775  0.4370
  752THF     H5 9768   3.018   2.510   2.193  0.8674  1.5903 -1.7930
  752THF     H6 9769   2.967   2.155   2.238 -0.8423 -0.5632  0.6221
  752THF     H7 9770   2.863   2.294   2.245  0.6937 -0.3257  1.7658
  752THF     C8 9771   2.947   2.263   2.044  0.3414  0.2865  0.0265
  752THF     C9 9772   3.011   2.394   2.012  0.3386 -0.1883 -0.1471
  752THF    H10 9773   2.845   2.263   2.006 -0.5946 -1.0850  2.3633
  752THF    H11 9774   3.007   2.189   1.992  1.0238  1.9994 -1.7635
  752THF    H12 9775   3.080   2.380   1.929  0.6905 -0.8013  0.2476
  752THF    H13 9776   2.941   2.477   2.001 -0.7830 -0.7572  2.1528
  753THF     O1 9777   2.574   5.088   4.519 -0.0353 -0.3745 -0.6296
  753THF     C2 9778   2.624   5.163   4.625  0.3944  0.3171  0.7624
  753THF     C3 9779   2.504   5.181   4.433  0.6179 -0.3745  0.0234
  753THF     H4 9780   2.716   5.209   4.590  1.2742 -0.3017  2.1616
  753THF     H5 9781   2.646   5.102   4.713  0.0413 -1.4293 -0.3293
  753THF     H6 9782   2.569   5.225   4.358 -1.4002  0.8546 -1.0609
  753THF     H7 9783   2.423   5.126   4.385  0.7707 -1.1924  0.6751
  753THF     C8 9784   2.440   5.281   4.532 -0.3702 -0.1945  0.2416
  753THF     C9 9785   2.514   5.262   4.657 -0.1010 -0.0258  0.1542
  753THF    H10 9786   2.338   5.242   4.538 -0.8237  0.9734  0.3252
  753THF    H11 9787   2.431   5.387   4.508  0.9045  0.0410  0.6954
  753THF    H12 9788   2.545   5.359   4.695  0.7843 -1.0755  2.3107
  753THF    H13 9789   2.448   5.210   4.727 -0.5492 -0.0285 -0.2715
  754THF     O1 9790   2.655   3.532   5.384 -0.2902  1.0829 -0.0239
  754THF     C2 9791   2.542   3.488   5.471 -0.0318  0.3469  0.3353
  754THF     C3 9792   2.615   3.508   5.254  0.1870  0.1986  0.1101
  754THF     H4 9793   2.460   3.555   5.446  1.2898  1.8733 -0.0998
  754THF     H5 9794   2.563   3.505   5.576 -1.0585 -0.5580  0.7085
  754THF     H6 9795   2.538   3.579   5.226  0.9439  1.2275  0.5682
  754THF     H7 9796   2.698   3.518   5.183  1.3160 -1.9557  1.0138
  754THF     C8 9797   2.563   3.367   5.264  0.3277 -0.0980 -0.4407
  754THF     C9 9798   2.516   3.351   5.407 -0.0840 -1.2878 -0.4027
  754THF    H10 9799   2.639   3.291   5.250 -2.0636 -2.4165 -1.8038
  754THF    H11 9800   2.487   3.347   5.188  1.0427 -3.3913 -0.4164
  754THF    H12 9801   2.411   3.326   5.421 -0.4587  0.3676 -0.0170
  754THF    H13 9802   2.587   3.292   5.464  0.7179  1.6473  1.9074
  755THF     O1 9803   4.961   1.864   4.827 -0.0105 -0.2815  0.0463
  755THF     C2 9804   5.092   1.849   4.879 -0.7372 -0.0483  0.4776
  755THF     C3 9805   4.934   1.806   4.701  0.0109  0.4077 -0.2827
  755THF     H4 9806   5.087   1.779   4.962 -0.8041  1.2392  1.5805
  755THF     H5 9807   5.121   1.952   4.899 -0.4989 -0.1435  0.6285
  755THF     H6 9808   4.888   1.708   4.715 -0.7827  0.8277  0.1181
  755THF     H7 9809   4.863   1.871   4.649 -0.7790 -1.4212 -1.5937
  755THF     C8 9810   5.072   1.796   4.640  0.1060 -0.7063 -0.0777
  755THF     C9 9811   5.166   1.779   4.758 -0.0234 -0.9212 -0.1342
  755THF    H10 9812   5.091   1.879   4.572  1.9237 -0.9195  0.1050
  755THF    H11 9813   5.080   1.708   4.576  0.8213 -2.5333  2.3550
  755THF    H12 9814   5.182   1.673   4.777  0.4488 -0.9294 -0.5550
  755THF    H13 9815   5.260   1.830   4.740 -0.6846  0.2040 -0.5398
  756THF     O1 9816   5.299   3.437   4.344 -0.1861  0.6275  0.4324
  756THF     C2 9817   5.208   3.546   4.390 -0.4497  0.4117 -0.2591
  756THF     C3 9818   5.388   3.420   4.453  0.6217  0.5105 -0.1213
  756THF     H4 9819   5.138   3.512   4.465  1.1840 -0.8354  0.7705
  756THF     H5 9820   5.154   3.583   4.303  0.9812 -0.2288 -1.4776
  756THF     H6 9821   5.321   3.379   4.528  0.2942  2.0462  0.4597
  756THF     H7 9822   5.475   3.358   4.431  0.9959  1.6801 -2.2790
  756THF     C8 9823   5.419   3.565   4.499  0.0166  0.3122 -0.3215
  756THF     C9 9824   5.308   3.648   4.435  0.0164  0.2927 -0.0451
  756THF    H10 9825   5.517   3.594   4.461  0.8219 -2.2241 -0.3876
  756THF    H11 9826   5.417   3.565   4.608  1.2598  0.0190 -0.2827
  756THF    H12 9827   5.261   3.728   4.494  0.2191 -0.8612  1.7776
  756THF    H13 9828   5.351   3.707   4.354  1.4461  1.4161  1.4542
  757THF     O1 9829   2.153   1.353   2.756  0.1886 -0.2095  0.4446
  757THF     C2 9830   2.031   1.393   2.690 -0.5774 -0.1556 -0.2278
  757THF     C3 9831   2.212   1.459   2.831  0.1281  0.1744  0.1600
  757THF     H4 9832   1.948   1.376   2.759  0.5687  1.0401  1.5085
  757THF     H5 9833   2.013   1.327   2.605 -1.2309 -0.9525  0.5242
  757THF     H6 9834   2.226   1.444   2.938 -3.0357  0.6865  0.7657
  757THF     H7 9835   2.315   1.474   2.801  0.2200 -1.5872 -0.4901
  757THF     C8 9836   2.123   1.585   2.798 -0.7042 -0.1649  0.4867
  757THF     C9 9837   2.061   1.549   2.675 -0.1881  0.6055  0.4465
  757THF    H10 9838   2.185   1.674   2.794 -0.6903 -0.0497  2.4036
  757THF    H11 9839   2.050   1.602   2.877  1.3344 -0.7337  2.6187
  757THF    H12 9840   1.969   1.604   2.654  0.0775  0.8330 -0.1505
  757THF    H13 9841   2.126   1.568   2.589 -1.0024  0.1265 -0.2993
  758THF     O1 9842   1.727   4.118   3.729  0.0531  0.2896 -0.4282
  758THF     C2 9843   1.781   4.234   3.792  0.2770  0.6628 -0.1176
  758THF     C3 9844   1.799   4.001   3.760 -0.5410 -0.2510 -0.3227
  758THF     H4 9845   1.727   4.263   3.882  2.0083  1.6052  0.6674
  758THF     H5 9846   1.782   4.315   3.720 -1.6799  2.4203  1.7069
  758THF     H6 9847   1.720   3.932   3.789  0.3024 -0.8989  0.4964
  758THF     H7 9848   1.855   3.967   3.673 -0.0289 -2.3665  0.7565
  758THF     C8 9849   1.897   4.041   3.875 -0.0938 -0.3647 -0.2869
  758THF     C9 9850   1.916   4.188   3.845  0.5184 -0.1503 -0.1718
  758THF    H10 9851   1.996   3.996   3.880  0.6671  1.2570  0.0428
  758THF    H11 9852   1.845   4.030   3.970 -3.1970  1.1258 -1.6803
  758THF    H12 9853   1.942   4.245   3.935 -0.5757 -1.1307  0.7884
  758THF    H13 9854   1.992   4.191   3.767 -0.6036 -1.2496 -1.3505
  759THF     O1 9855   2.136   2.569   4.828 -1.1519 -0.3754 -0.4905
  759THF     C2 9856   2.255   2.649   4.796  0.7675 -0.3796  0.6046
  759THF     C3 9857   2.122   2.577   4.968  0.3993  0.1989  0.2915
  759THF     H4 9858   2.228   2.754   4.782  2.9342  0.1291 -0.1178
  759THF     H5 9859   2.283   2.615   4.696 -0.3615  0.0157  0.1409
  759THF     H6 9860   2.047   2.651   4.993 -1.2988 -1.0288 -0.9110
  759THF     H7 9861   2.080   2.489   5.017 -3.1051  1.9342  0.6987
  759THF     C8 9862   2.258   2.612   5.028  1.0039 -0.0163 -0.2261
  759THF     C9 9863   2.352   2.611   4.908  0.1373 -0.3123 -0.4296
  759THF    H10 9864   2.292   2.530   5.092 -0.0322 -1.5183 -1.5217
  759THF    H11 9865   2.256   2.710   5.075  1.8067  0.7122 -1.6302
  759THF    H12 9866   2.428   2.687   4.927  1.2986 -1.3279 -0.8280
  759THF    H13 9867   2.405   2.516   4.901  1.8746  0.6836 -1.6149
  760THF     O1 9868   1.521   4.206   0.464  0.6254  0.5172 -0.0230
  760THF     C2 9869   1.573   4.074   0.464 -0.1247  0.6789  0.0323
  760THF     C3 9870   1.526   4.257   0.332 -0.1493 -0.1582  0.0656
  760THF     H4 9871   1.499   4.008   0.418  0.1264 -0.3515  1.0766
  760THF     H5 9872   1.608   4.034   0.559  0.0499  0.4017 -0.1474
  760THF     H6 9873   1.425   4.242   0.292 -0.1531  0.4853 -0.1722
  760THF     H7 9874   1.547   4.364   0.332  0.1239 -0.0512 -3.9806
  760THF     C8 9875   1.631   4.172   0.257  0.3683  0.2895  0.3080
  760THF     C9 9876   1.687   4.081   0.355  0.6535  0.0489 -0.0520
  760THF    H10 9877   1.710   4.233   0.213  1.7817 -1.5342  0.1437
  760THF    H11 9878   1.584   4.125   0.171 -1.0437  2.0339  0.0871
  760THF    H12 9879   1.704   3.982   0.312 -0.3424  0.1317 -0.6794
  760THF    H13 9880   1.774   4.130   0.397  0.2859  0.8589 -0.2217
  761THF     O1 9881   0.111   3.745   2.868  0.2491  0.4643 -0.0660
  761THF     C2 9882   0.190   3.650   2.796 -0.2615 -0.5225 -0.6114
  761THF     C3 9883   0.004   3.785   2.788 -0.1185 -1.0032 -0.0685
  761THF     H4 9884   0.210   3.568   2.865  0.8880  1.2166  1.1891
  761THF     H5 9885   0.284   3.690   2.760  1.2809 -1.1186  2.4559
  761THF     H6 9886  -0.091   3.740   2.818 -1.4440  2.3039  1.2210
  761THF     H7 9887  -0.017   3.892   2.786  0.4267 -0.8990 -0.1403
  761THF     C8 9888   0.040   3.740   2.645 -0.2331  1.4388  0.2991
  761THF     C9 9889   0.107   3.607   2.673  0.2837  0.4608 -0.1479
  761THF    H10 9890   0.113   3.805   2.597 -0.4108  1.5696  0.2032
  761THF    H11 9891  -0.045   3.751   2.579  0.9046  1.9671 -1.1294
  761THF    H12 9892   0.034   3.529   2.699 -0.8068  1.9162  1.3833
  761THF    H13 9893   0.164   3.568   2.589 -0.1694  0.3445 -0.4056
  762THF     O1 9894   1.991   2.570   4.285 -0.1657  0.0363 -0.4478
  762THF     C2 9895   2.126   2.527   4.336  0.4695 -0.9015 -0.0580
  762THF     C3 9896   1.986   2.712   4.290  0.1805 -0.4445 -0.6138
  762THF     H4 9897   2.195   2.515   4.253  2.1369  1.4409  0.8811
  762THF     H5 9898   2.141   2.430   4.382  2.8745 -0.0970  1.0093
  762THF     H6 9899   1.995   2.745   4.186 -0.9340  0.4474 -0.4551
  762THF     H7 9900   1.892   2.757   4.322  0.3769  0.3423 -1.0994
  762THF     C8 9901   2.106   2.759   4.381 -0.1719 -0.4993 -0.0022
  762THF     C9 9902   2.167   2.637   4.439  0.1950  0.4211 -0.1396
  762THF    H10 9903   2.068   2.829   4.456 -1.5411  0.3093 -1.3906
  762THF    H11 9904   2.182   2.810   4.322  0.9139 -0.5129  1.3496
  762THF    H12 9905   2.275   2.647   4.453 -0.0738  1.2582  1.6681
  762THF    H13 9906   2.126   2.623   4.539  0.5722 -2.5093 -0.3091
  763THF     O1 9907   4.582   0.751   3.041  0.3499  0.3278  0.0857
  763THF     C2 9908   4.618   0.676   3.155  0.7790  0.6687  0.0009
  763THF     C3 9909   4.601   0.892   3.075  0.2354 -0.4965  0.1966
  763THF     H4 9910   4.727   0.670   3.153  0.7251 -1.2016  0.4903
  763THF     H5 9911   4.582   0.573   3.152  1.5853  0.2856  1.8917
  763THF     H6 9912   4.691   0.941   3.036  0.4033 -0.0933  1.0698
  763THF     H7 9913   4.515   0.942   3.030  0.2904 -0.4010  0.1962
  763THF     C8 9914   4.601   0.900   3.225 -0.8163  0.5298 -0.2771
  763THF     C9 9915   4.573   0.760   3.275 -0.4791  0.9468  0.6329
  763THF    H10 9916   4.533   0.970   3.272 -2.0875 -2.7451  3.3150
  763THF    H11 9917   4.700   0.930   3.259 -0.7886  1.1835 -0.9029
  763THF    H12 9918   4.618   0.738   3.371 -1.2673 -0.5206  0.6994
  763THF    H13 9919   4.464   0.761   3.283 -0.7852  1.1255 -2.2364
  764THF     O1 9920   2.534   1.484   0.665 -0.2422 -0.0348  0.3427
  764THF     C2 9921   2.663   1.540   0.651 -0.1392  0.4365  0.0339
  764THF     C3 9922   2.451   1.593   0.621  0.4149  0.1401 -0.1347
  764THF     H4 9923   2.690   1.529   0.546 -0.8976 -1.4375  0.0016
  764THF     H5 9924   2.734   1.476   0.705  0.6551  0.5952 -0.7989
  764THF     H6 9925   2.453   1.602   0.512 -0.5318  1.0935 -0.0884
  764THF     H7 9926   2.344   1.585   0.639  0.3336  0.1388 -0.6165
  764THF     C8 9927   2.515   1.719   0.686  0.1919  0.6967  0.3899
  764THF     C9 9928   2.656   1.681   0.708  0.3743  0.1911 -0.3910
  764THF    H10 9929   2.472   1.742   0.784 -0.8664  3.9199 -0.6980
  764THF    H11 9930   2.492   1.807   0.626 -0.4911  0.0044 -0.3944
  764THF    H12 9931   2.728   1.754   0.670  2.2149 -1.5307 -0.3968
  764THF    H13 9932   2.680   1.666   0.813 -0.6334 -0.4391 -0.2375
  765THF     O1 9933   1.029   0.497   2.913  0.1593 -0.3800 -0.0526
  765THF     C2 9934   0.888   0.477   2.938 -0.8843 -0.3562  0.5683
  765THF     C3 9935   1.070   0.386   2.831  0.3823 -0.5662 -0.2246
  765THF     H4 9936   0.828   0.506   2.852 -1.7111 -0.5481  1.0664
  765THF     H5 9937   0.871   0.545   3.022  1.0571  1.1517 -0.1890
  765THF     H6 9938   1.048   0.410   2.727 -1.7770  1.0160  0.5296
  765THF     H7 9939   1.177   0.365   2.830  0.8391  1.4077  1.2584
  765THF     C8 9940   0.986   0.265   2.876  0.4535  0.0060  0.3689
  765THF     C9 9941   0.893   0.332   2.979  0.4264  1.2242  0.6704
  765THF    H10 9942   1.048   0.186   2.919 -0.1632 -0.9147 -0.4017
  765THF    H11 9943   0.932   0.220   2.793  1.0426  0.2496 -0.1516
  765THF    H12 9944   0.793   0.289   2.974  1.5803 -1.5441 -1.7434
  765THF    H13 9945   0.926   0.336   3.083 -1.0803  0.4636  1.2130
  766THF     O1 9946   3.322   1.249   2.102 -0.1654  0.1465 -0.4686
  766THF     C2 9947   3.181   1.268   2.098 -0.0051 -0.5554 -0.2472
  766THF     C3 9948   3.369   1.242   1.967 -0.2648 -0.1653  0.4582
  766THF     H4 9949   3.155   1.372   2.079 -0.2499 -0.8720 -1.7226
  766THF     H5 9950   3.145   1.255   2.200 -3.0250 -0.7220 -1.2441
  766THF     H6 9951   3.360   1.331   1.903  0.8561 -0.1815  0.2587
  766THF     H7 9952   3.465   1.193   1.955 -0.2173  0.2192 -0.9532
  766THF     C8 9953   3.268   1.136   1.914  0.7613  0.1204  0.6095
  766THF     C9 9954   3.138   1.167   1.991 -0.3258 -0.6098 -0.2106
  766THF    H10 9955   3.309   1.036   1.925 -1.6909 -0.9219  1.0166
  766THF    H11 9956   3.245   1.143   1.807  1.6182  1.8892  0.5035
  766THF    H12 9957   3.063   1.212   1.926  0.1943 -0.2299 -0.5490
  766THF    H13 9958   3.103   1.074   2.037 -1.5198 -0.3764 -0.6218
  767THF     O1 9959   4.495   0.402   2.335 -0.0718 -0.1509 -0.4270
  767THF     C2 9960   4.504   0.539   2.319  0.5190  0.0258  0.1881
  767THF     C3 9961   4.490   0.371   2.472  0.2360  0.3244 -0.2475
  767THF     H4 9962   4.483   0.570   2.217  0.5045  0.1550  0.2292
  767THF     H5 9963   4.607   0.574   2.329  0.7475  0.5638 -3.0920
  767THF     H6 9964   4.422   0.286   2.476 -0.2486  0.3781 -3.9421
  767THF     H7 9965   4.583   0.328   2.508 -0.7784 -0.7008  1.2951
  767THF     C8 9966   4.432   0.492   2.541 -0.0511  0.4855  0.3244
  767THF     C9 9967   4.422   0.597   2.434  0.4582 -1.0285  0.1211
  767THF    H10 9968   4.495   0.517   2.626 -0.8781 -1.2149  1.4831
  767THF    H11 9969   4.337   0.470   2.589 -1.3055 -0.6105 -2.4471
  767THF    H12 9970   4.315   0.592   2.412  0.0317 -0.6367  2.0058
  767THF    H13 9971   4.446   0.695   2.475 -0.7410 -1.4389  1.9126
  768THF     O1 9972   2.709   4.991   1.276  0.2529  0.7449  0.5048
  768THF     C2 9973   2.806   4.928   1.350 -0.1443  0.0503 -0.2577
  768THF     C3 9974   2.760   5.112   1.224  0.3859 -0.0915  0.1178
  768THF     H4 9975   2.874   4.878   1.281 -0.0603 -0.2638  0.0500
  768THF     H5 9976   2.766   4.849   1.413 -1.6045 -0.4995 -1.7679
  768THF     H6 9977   2.823   5.092   1.137 -1.0699  0.5058 -1.1054
  768THF     H7 9978   2.687   5.182   1.183  0.3463  0.0635  0.4551
  768THF     C8 9979   2.838   5.167   1.347 -0.0190 -0.0238 -0.0263
  768THF     C9 9980   2.874   5.039   1.431 -0.2642  0.6307  0.0615
  768THF    H10 9981   2.775   5.219   1.419 -1.0233 -1.1136 -0.0941
  768THF    H11 9982   2.926   5.230   1.330  0.0163 -0.4078 -1.3720
  768THF    H12 9983   2.982   5.023   1.427 -0.3601  0.1463 -1.3368
  768THF    H13 9984   2.832   5.042   1.531 -0.0676 -0.7662  0.2107
  769THF     O1 9985   0.277   2.052   1.913 -0.5574  0.1574  0.3381
  769THF     C2 9986   0.158   2.116   1.938 -0.4933 -0.1110 -0.2312
  769THF     C3 9987   0.370   2.114   1.998 -0.3291 -0.3439 -0.3152
  769THF     H4 9988   0.072   2.058   1.902 -0.5487 -0.3173  0.2235
  769THF     H5 9989   0.148   2.218   1.901  0.7338  0.6274  1.3643
  769THF     H6 9990   0.461   2.056   1.988  0.5567  1.2631 -2.4577
  769THF     H7 9991   0.386   2.218   1.969  1.4753 -0.0616  1.4955
  769THF     C8 9992   0.294   2.106   2.134  0.1912  0.4172 -0.1301
  769THF     C9 9993   0.149   2.093   2.088  0.1396 -0.0056 -0.5010
  769THF    H10 9994   0.302   2.189   2.204  1.0648 -0.3899  0.7705
  769THF    H11 9995   0.326   2.020   2.193 -0.7251 -1.4708 -2.2443
  769THF    H12 9996   0.105   1.996   2.112 -2.0939  0.9603 -0.4210
  769THF    H13 9997   0.085   2.164   2.140 -2.8364 -1.9099 -1.3343
  770THF     O1 9998   1.079   5.361   4.812  0.7461  0.1526 -0.7816
  770THF     C2 9999   0.963   5.338   4.893  0.6576  0.2303  0.1071
  770THF     C310000   1.124   5.499   4.831 -0.2234 -0.7213  0.1232
  770THF     H410001   0.946   5.232   4.912  0.9344  0.4024  1.4550
  770THF     H510002   0.879   5.366   4.830  0.6635 -0.7988 -0.3759
  770THF     H610003   1.225   5.519   4.796 -0.3548  0.8097  0.5705
  770THF     H710004   1.055   5.564   4.777  0.8137 -1.2397 -1.9512
  770THF     C810005   1.114   5.508   4.983  0.0484  0.0111  0.0349
  770THF     C910006   0.982   5.428   5.012 -0.4645 -0.3989  0.5702
  770THF    H1010007   1.123   5.610   5.021  0.2827 -0.1184  0.3311
  770THF    H1110008   1.198   5.454   5.025  1.0239  1.0313 -0.5565
  770THF    H1210009   0.998   5.372   5.104  0.1717  1.0178  1.3489
  770THF    H1310010   0.884   5.475   5.026  0.8504  2.5721  0.5518
  771THF     O110011   4.819   0.561   4.848  0.4627 -0.0519  0.1186
  771THF     C210012   4.907   0.521   4.738  0.1478  0.0147  0.1337
  771THF     C310013   4.799   0.451   4.940  0.5978 -0.2211  0.5722
  771THF     H410014   5.009   0.513   4.774  1.3587  3.3764 -2.0759
  771THF     H510015   4.901   0.584   4.649  2.1335 -0.8876 -0.7040
  771THF     H610016   4.889   0.449   5.001  2.3273  0.2974 -1.8497
  771THF     H710017   4.714   0.468   5.007  1.8676  0.3674  2.1235
  771THF     C810018   4.801   0.326   4.842 -0.1472 -0.4069  0.9182
  771THF     C910019   4.857   0.375   4.712 -0.1345 -0.3207 -0.2245
  771THF    H1010020   4.697   0.295   4.830 -0.5635  1.3655 -0.5857
  771THF    H1110021   4.870   0.249   4.875 -0.2792  0.2135  2.7504
  771THF    H1210022   4.940   0.309   4.689  1.0275  0.2475  2.0601
  771THF    H1310023   4.795   0.366   4.623  2.4700 -1.3619 -2.0629
  772THF     O110024   4.742   2.965   0.825 -0.2394  0.5111 -0.9289
  772THF     C210025   4.733   2.842   0.894 -0.4070  0.1362 -0.6248
  772THF     C310026   4.615   3.022   0.816 -0.2974 -0.6274  0.6905
  772THF     H410027   4.819   2.779   0.917  1.3057  2.6799  0.3771
  772THF     H510028   4.671   2.775   0.834 -1.5555 -0.9458  1.6285
  772THF     H610029   4.621   3.129   0.798 -1.0493 -0.8856 -1.4201
  772THF     H710030   4.559   2.964   0.742 -0.9430 -0.9519  1.4218
  772THF     C810031   4.553   2.984   0.946 -0.2826  0.6902 -0.1876
  772THF     C910032   4.647   2.884   1.013 -0.8229  0.1169  0.4261
  772THF    H1010033   4.458   2.934   0.924  0.3742 -0.0809 -1.3709
  772THF    H1110034   4.532   3.071   1.009 -1.9421  1.0256 -1.1187
  772THF    H1210035   4.701   2.935   1.093 -0.8841  1.3725 -0.3141
  772THF    H1310036   4.602   2.794   1.055  0.7874 -0.7019  0.4443
  773THF     O110037   2.180   4.351   3.370  0.1042 -0.4149  0.4778
  773THF     C210038   2.077   4.300   3.448 -0.0231 -0.2001 -0.8505
  773THF     C310039   2.230   4.467   3.428  0.2914  0.1277  0.0093
  773THF     H410040   2.118   4.237   3.527  1.4749 -0.7032 -1.9699
  773THF     H510041   2.009   4.232   3.396 -0.8847 -2.0133  2.3614
  773THF     H610042   2.299   4.440   3.509  1.0002  0.4290 -0.4849
  773THF     H710043   2.290   4.521   3.356 -0.5047  0.7836 -0.1781
  773THF     C810044   2.103   4.538   3.474 -0.4732  0.4906 -0.5538
  773THF     C910045   2.011   4.427   3.500 -0.0713  0.0347 -0.5289
  773THF    H1010046   2.061   4.610   3.403  0.2907  2.2417  0.6890
  773THF    H1110047   2.113   4.591   3.569 -1.7381 -0.3547  0.0723
  773THF    H1210048   1.978   4.406   3.601 -1.2796 -0.4357 -1.0034
  773THF    H1310049   1.923   4.445   3.438  0.0410 -1.1694 -1.0776
  774THF     O110050   4.656   3.595   0.138 -0.0353  0.3074  0.7463
  774THF     C210051   4.559   3.630   0.042 -0.4518  0.5230 -0.0351
  774THF     C310052   4.788   3.584   0.078 -0.3721  0.2148  0.3069
  774THF     H410053   4.577   3.736   0.021 -0.6514  1.1679  2.6719
  774THF     H510054   4.463   3.618   0.093  0.0133  0.0930  0.7410
  774THF     H610055   4.842   3.675   0.053  0.0279 -0.2346 -0.5297
  774THF     H710056   4.853   3.522   0.141 -2.1099 -0.9210  1.0581
  774THF     C810057   4.762   3.521  -0.051 -0.2678  0.7508  0.0824
  774THF     C910058   4.609   3.536  -0.071  0.1400 -0.2314 -0.5124
  774THF    H1010059   4.795   3.417  -0.055 -2.5813  0.0133 -1.1742
  774THF    H1110060   4.825   3.570  -0.125 -0.2432  0.6310  0.0238
  774THF    H1210061   4.591   3.572  -0.172  0.0857 -3.2934 -1.7107
  774THF    H1310062   4.560   3.440  -0.052  1.2695 -0.5083  1.1462
  775THF     O110063   4.201   2.674   3.330  0.3581 -0.2864  0.2418
  775THF     C210064   4.208   2.814   3.337 -0.2382 -0.2293 -0.3269
  775THF     C310065   4.200   2.638   3.466  0.5532  0.5702  0.6638
  775THF     H410066   4.188   2.859   3.240  2.3459  2.2711  0.1775
  775THF     H510067   4.309   2.846   3.363  0.1663  0.8748 -2.9431
  775THF     H610068   4.177   2.532   3.469 -2.0095  0.8477 -2.9421
  775THF     H710069   4.304   2.656   3.493  0.0011  1.7739  2.1699
  775THF     C810070   4.090   2.726   3.529 -0.1317 -0.0811  0.4314
  775THF     C910071   4.104   2.857   3.445  0.5355  0.1816 -0.2865
  775THF    H1010072   4.107   2.744   3.635  1.0185 -1.3907  0.4930
  775THF    H1110073   3.988   2.686   3.529 -0.6382  1.1126 -0.9248
  775THF    H1210074   4.004   2.894   3.421 -1.2784 -0.8355  4.5249
  775THF    H1310075   4.147   2.925   3.519 -0.8129  0.4823  0.2497
  776THF     O110076   4.743   2.319   4.752  0.6770 -0.2449 -0.3210
  776THF     C210077   4.792   2.181   4.761 -0.2974  0.1391 -0.5294
  776THF     C310078   4.769   2.357   4.618  0.1824 -0.1164 -0.3200
  776THF     H410079   4.714   2.107   4.780  1.5553 -1.6497  0.5010
  776THF     H510080   4.858   2.168   4.847  0.0366  2.0204 -0.4550
  776THF     H610081   4.696   2.313   4.551  1.1953 -0.2102 -1.4087
  776THF     H710082   4.768   2.466   4.613 -2.6913  0.0965  2.0915
  776THF     C810083   4.904   2.301   4.589  0.6218 -0.4621 -0.3736
  776THF     C910084   4.883   2.158   4.639 -0.7330 -0.1949  0.5451
  776THF    H1010085   4.978   2.349   4.653  2.6869 -1.5812 -1.8032
  776THF    H1110086   4.943   2.300   4.487  3.6692 -2.3366  0.6687
  776THF    H1210087   4.830   2.106   4.559  1.2126 -0.0386 -0.9234
  776THF    H1310088   4.972   2.102   4.667 -0.9109  0.3033  2.2142
  777THF     O110089   3.162   4.445   5.411 -0.0024  0.0325 -0.6678
  777THF     C210090   3.161   4.471   5.553 -0.2030  0.1506  0.5156
  777THF     C310091   3.113   4.563   5.343 -0.6624  0.0079 -0.2726
  777THF     H410092   3.257   4.519   5.572  1.0007 -0.4982 -3.2105
  777THF     H510093   3.154   4.375   5.605 -1.7838  0.0839  0.2224
  777THF     H610094   3.190   4.634   5.314 -1.5986  1.1314 -0.0984
  777THF     H710095   3.067   4.527   5.251 -0.8314  0.0278 -0.1963
  777THF     C810096   3.007   4.619   5.435  0.1192 -0.0496 -0.4760
  777THF     C910097   3.043   4.560   5.573  0.3295  0.1376 -0.0768
  777THF    H1010098   2.903   4.606   5.407 -0.1544  1.2092 -0.1245
  777THF    H1110099   3.013   4.727   5.425 -2.0659  0.2814  1.1157
  777THF    H1210100   3.065   4.635   5.648  0.9956 -2.2061  2.2227
  777THF    H1310101   2.957   4.501   5.605  1.1090 -0.5029  0.8891
  778THF     O110102   3.742   1.970   0.405  0.1955 -0.1671  0.6043
  778THF     C210103   3.789   2.034   0.289  0.1560  0.5695 -0.7464
  778THF     C310104   3.696   2.062   0.499 -0.4846 -1.2651 -0.1727
  778THF     H410105   3.769   1.992   0.191 -1.6526 -1.9798  0.6143
  778THF     H510106   3.898   2.036   0.292  0.2287 -0.4676 -2.0869
  778THF     H610107   3.618   2.018   0.561 -1.3085 -1.9754 -1.6706
  778THF     H710108   3.770   2.095   0.573 -0.8301 -0.3993 -0.1954
  778THF     C810109   3.653   2.188   0.413  0.2453 -0.0270 -0.5173
  778THF     C910110   3.751   2.180   0.305 -0.8666 -0.4958  1.0295
  778THF    H1010111   3.662   2.285   0.462  2.6184 -0.5542  0.1979
  778THF    H1110112   3.557   2.174   0.364  0.7125 -0.6580 -1.2553
  778THF    H1210113   3.709   2.221   0.214  1.3933 -0.9950 -0.3321
  778THF    H1310114   3.838   2.239   0.336 -0.0561 -1.4085  0.5536
  779THF     O110115   2.042   3.372   1.365 -0.2775  0.3345 -0.3806
  779THF     C210116   1.924   3.449   1.353 -0.2328 -0.2167  0.0566
  779THF     C310117   2.145   3.399   1.267 -0.0965 -0.2552  0.0848
  779THF     H410118   1.939   3.555   1.377  0.3876 -0.0876 -0.8829
  779THF     H510119   1.841   3.413   1.414 -1.4799  1.0254 -0.8352
  779THF     H610120   2.187   3.493   1.302  0.0093 -0.1563 -0.2960
  779THF     H710121   2.223   3.323   1.265  1.1560  0.9875  0.3957
  779THF     C810122   2.044   3.406   1.150 -0.2091  0.2972 -0.0940
  779THF     C910123   1.908   3.432   1.205 -0.2203 -0.4091 -0.3373
  779THF    H1010124   2.039   3.309   1.100  1.0065  1.3780 -2.5122
  779THF    H1110125   2.078   3.482   1.080  2.1984  1.0318  1.7081
  779THF    H1210126   1.866   3.523   1.163 -0.5782  0.1001  1.0494
  779THF    H1310127   1.844   3.346   1.186  0.8217 -0.8095 -2.2557
  780THF     O110128   1.669   2.078   3.318  0.0870 -0.7067  0.0107
  780THF     C210129   1.685   1.989   3.207  0.5796 -0.2936  0.2721
  780THF     C310130   1.797   2.141   3.338 -0.1437  0.1208  0.3363
  780THF     H410131   1.698   2.042   3.112 -0.9901  0.6334  0.5443
  780THF     H510132   1.608   1.912   3.198  1.2724 -1.1491  1.3813
  780THF     H610133   1.823   2.212   3.260  2.6604 -0.7903  0.3158
  780THF     H710134   1.803   2.182   3.439  0.6870  1.2251 -0.1444
  780THF     C810135   1.893   2.022   3.325  0.0342  0.3684  0.6017
  780THF     C910136   1.818   1.921   3.236 -0.0294 -0.0789  1.1182
  780THF    H1010137   1.910   1.967   3.418 -0.3663  0.1473  0.5454
  780THF    H1110138   1.993   2.049   3.293 -0.8511  1.1253 -1.7266
  780THF    H1210139   1.866   1.901   3.140 -0.3934  0.3857  0.8378
  780THF    H1310140   1.805   1.825   3.287  1.7019 -1.1270 -0.2738
  781THF     O110141   1.708   3.326   4.275 -0.4213 -0.1215  0.1750
  781THF     C210142   1.654   3.218   4.202  0.6513  0.3336  0.3306
  781THF     C310143   1.748   3.423   4.174 -0.0444 -0.3919 -0.1062
  781THF     H410144   1.587   3.167   4.271  1.1217  0.4565  0.8801
  781THF     H510145   1.727   3.149   4.160 -1.1173 -0.6395 -1.3476
  781THF     H610146   1.775   3.518   4.220  0.6526 -0.4805 -0.3274
  781THF     H710147   1.835   3.390   4.118 -1.1515 -1.8398 -1.0624
  781THF     C810148   1.624   3.431   4.082  0.5206 -0.0093 -0.2324
  781THF     C910149   1.584   3.283   4.081 -0.4107  0.0657 -0.6780
  781THF    H1010150   1.639   3.479   3.985  3.0063  0.7455  0.4285
  781THF    H1110151   1.554   3.497   4.133 -0.1339 -1.2215  0.4695
  781THF    H1210152   1.480   3.250   4.085  0.0762 -1.4379  0.5581
  781THF    H1310153   1.625   3.239   3.990  0.5700 -0.9981  0.2471
  782THF     O110154   1.273   3.861   4.251  0.4463 -0.1157 -0.5607
  782THF     C210155   1.135   3.852   4.286 -0.7539  1.2354 -0.4031
  782THF     C310156   1.334   3.750   4.326 -0.3278 -0.4717 -0.6530
  782THF     H410157   1.080   3.907   4.210  0.6227  2.4239 -0.5929
  782THF     H510158   1.132   3.905   4.382 -1.5845 -0.5505  0.5975
  782THF     H610159   1.432   3.718   4.290  0.1512 -0.5073  0.6437
  782THF     H710160   1.346   3.790   4.426 -0.2584 -0.4119 -0.6859
  782THF     C810161   1.241   3.631   4.320  0.3408  0.1784 -0.5382
  782THF     C910162   1.104   3.701   4.305 -0.2300  0.1751 -0.1527
  782THF    H1010163   1.252   3.568   4.408  0.4479 -0.2021 -0.8196
  782THF    H1110164   1.264   3.579   4.227  0.3801 -0.2553 -0.2849
  782THF    H1210165   1.055   3.660   4.217 -2.0645  2.1901 -0.1512
  782THF    H1310166   1.042   3.677   4.391 -1.6554 -1.2858 -1.5103
  783THF     O110167   2.840   1.812   3.951 -0.2698 -0.2891  0.1022
  783THF     C210168   2.966   1.768   4.003  0.3483 -0.1144 -0.2012
  783THF     C310169   2.738   1.758   4.039 -0.2911 -0.5649  0.6464
  783THF     H410170   2.997   1.826   4.090  1.0435 -2.6237  1.3353
  783THF     H510171   3.045   1.780   3.930  0.1480  2.0860 -0.1326
  783THF     H610172   2.730   1.796   4.141 -0.6900 -0.9385  0.7593
  783THF     H710173   2.640   1.765   3.991  0.5318 -0.0328 -1.0152
  783THF     C810174   2.786   1.616   4.054 -0.5032 -0.6554  0.2447
  783THF     C910175   2.939   1.622   4.037 -0.2789 -0.1846  0.4186
  783THF    H1010176   2.747   1.568   3.965  1.6569 -0.6191 -0.7853
  783THF    H1110177   2.755   1.566   4.146 -0.2500  1.0792  1.3195
  783THF    H1210178   2.983   1.606   4.135 -1.5375 -0.1364  1.0133
  783THF    H1310179   2.979   1.554   3.961 -0.2740  0.8214 -0.5173
  784THF     O110180   3.695   4.946   3.229  0.1005 -0.1918 -0.2563
  784THF     C210181   3.708   5.068   3.173 -0.9030 -0.8251 -0.1044
  784THF     C310182   3.803   4.915   3.314 -0.0770  0.0201 -0.2918
  784THF     H410183   3.699   5.141   3.254  0.1032 -3.6720  2.7753
  784THF     H510184   3.641   5.093   3.091 -0.0194  1.3918 -0.2186
  784THF     H610185   3.779   4.962   3.410 -0.3658  2.5145 -1.4963
  784THF     H710186   3.816   4.807   3.324 -3.6063 -0.6372 -1.6101
  784THF     C810187   3.927   4.978   3.246  0.5773  0.2363 -0.2594
  784THF     C910188   3.861   5.059   3.129  0.2104  0.0750 -0.3426
  784THF    H1010189   3.996   4.898   3.219  1.4750 -0.3222  3.2285
  784THF    H1110190   3.967   5.043   3.324  0.1582  0.3657 -0.1531
  784THF    H1210191   3.900   5.160   3.127 -0.7376  0.5840  2.4695
  784THF    H1310192   3.871   5.004   3.035 -1.3241 -1.2956  0.2501
  785THF     O110193   1.245   5.324   3.792  0.3262 -0.1207  0.0327
  785THF     C210194   1.235   5.455   3.744 -0.2322 -0.4651  0.2288
  785THF     C310195   1.358   5.269   3.735  0.1330  0.4061  0.4615
  785THF     H410196   1.266   5.534   3.812  0.7905  0.2984 -1.0678
  785THF     H510197   1.132   5.481   3.719 -0.5657 -1.8053  0.1253
  785THF     H610198   1.443   5.317   3.784  1.3867  1.5951 -2.6221
  785THF     H710199   1.357   5.161   3.740 -0.3345  0.2257 -2.1652
  785THF     C810200   1.359   5.322   3.588 -0.5849  0.5000  0.1078
  785THF     C910201   1.316   5.461   3.615  0.4498 -0.1771  0.7027
  785THF    H1010202   1.287   5.261   3.534  1.4090 -1.8769 -0.0245
  785THF    H1110203   1.455   5.316   3.537 -0.7899  0.3012 -0.2544
  785THF    H1210204   1.400   5.521   3.650  0.4239 -0.9665  2.1633
  785THF    H1310205   1.281   5.525   3.533  2.0227  0.3840  0.4196
  786THF     O110206   1.560   0.629   2.834 -0.2399  0.9831  0.4292
  786THF     C210207   1.612   0.710   2.935 -0.1052  0.2944  0.9640
  786THF     C310208   1.639   0.636   2.711  0.0799 -0.3533 -0.0554
  786THF     H410209   1.573   0.692   3.035 -1.9990 -0.7325  0.0858
  786THF     H510210   1.585   0.811   2.904 -0.6717  0.3084  1.4721
  786THF     H610211   1.631   0.546   2.649 -0.7521  0.4210 -1.1180
  786THF     H710212   1.599   0.712   2.643  1.5608 -0.8014 -1.4866
  786THF     C810213   1.772   0.678   2.766 -0.3825 -0.0435 -0.2018
  786THF     C910214   1.760   0.687   2.912 -0.4421  1.0756 -0.0772
  786THF    H1010215   1.806   0.775   2.729  0.1102 -0.1826 -0.1273
  786THF    H1110216   1.843   0.599   2.741  0.4918 -0.5076  3.2161
  786THF    H1210217   1.789   0.596   2.965  0.1937  0.9870 -0.5711
  786THF    H1310218   1.821   0.763   2.961  1.8667 -1.0835  0.5785
  787THF     O110219   1.108   3.995   1.114 -0.8229  0.1617 -0.9089
  787THF     C210220   1.144   4.013   1.252  0.3287  0.5070  0.3731
  787THF     C310221   1.111   4.126   1.058 -0.3702 -1.0487  0.2461
  787THF     H410222   1.203   3.925   1.280 -0.1570 -0.5917 -1.8791
  787THF     H510223   1.056   4.019   1.315 -0.3179 -0.2530 -0.4338
  787THF     H610224   1.134   4.121   0.951 -0.2670 -0.2419  0.2219
  787THF     H710225   1.016   4.178   1.068  0.0596  0.3995 -2.3347
  787THF     C810226   1.229   4.196   1.114  0.1017  0.4992 -0.0641
  787THF     C910227   1.234   4.134   1.255  0.6768 -0.1284  0.0363
  787THF    H1010228   1.215   4.304   1.103 -0.3738  0.2526 -2.5157
  787THF    H1110229   1.312   4.161   1.052 -1.2923 -1.7653 -0.7647
  787THF    H1210230   1.340   4.118   1.271  0.7383  1.1105  1.0838
  787THF    H1310231   1.208   4.202   1.337 -0.3857 -1.6005  0.9617
  788THF     O110232   1.360   0.941   2.349  0.3843  0.3144  0.1073
  788THF     C210233   1.243   0.978   2.405  0.4489  0.6197 -0.3069
  788THF     C310234   1.377   1.021   2.234  0.0813 -0.8219  0.2834
  788THF     H410235   1.259   1.075   2.452 -3.0391  0.7192  0.9364
  788THF     H510236   1.206   0.910   2.482 -2.3868 -0.2870 -2.2830
  788THF     H610237   1.419   1.116   2.266  1.5485 -1.4421  0.2755
  788THF     H710238   1.446   0.982   2.159  0.4137 -0.7394  0.5445
  788THF     C810239   1.236   1.040   2.181  0.9305  0.5587  0.1058
  788THF     C910240   1.145   1.005   2.299  0.3147  0.0449  0.4240
  788THF    H1010241   1.216   0.959   2.111 -1.2725 -1.3469  2.7408
  788THF    H1110242   1.224   1.141   2.142 -2.1315  0.8702  1.5758
  788THF    H1210243   1.061   1.066   2.332  0.5033  0.0587  0.8773
  788THF    H1310244   1.088   0.914   2.278 -1.9952  0.9949  2.1422
  789THF     O110245   0.643   4.282   1.288 -0.2994 -0.1364 -0.1713
  789THF     C210246   0.591   4.385   1.367  0.1405  0.4248  0.5167
  789THF     C310247   0.727   4.212   1.378 -0.1280  0.0456  0.0877
  789THF     H410248   0.514   4.342   1.432  0.5353 -0.8097  0.2034
  789THF     H510249   0.536   4.456   1.305 -1.2253 -2.0454 -1.3253
  789THF     H610250   0.684   4.138   1.445  0.9782  0.3746  1.2006
  789THF     H710251   0.804   4.159   1.321 -0.8477  0.5376 -1.3824
  789THF     C810252   0.806   4.317   1.453  0.4401 -0.3415 -0.0385
  789THF     C910253   0.714   4.440   1.437 -0.0774 -0.2712 -0.2811
  789THF    H1010254   0.904   4.334   1.409  1.3159 -0.3377  1.8231
  789THF    H1110255   0.826   4.280   1.554 -0.5366 -1.3070 -0.1747
  789THF    H1210256   0.702   4.480   1.538  0.2746  2.1053 -1.1167
  789THF    H1310257   0.762   4.517   1.377 -1.2736  1.0526  0.4014
  790THF     O110258   2.758   4.061   4.142 -0.3164 -0.3736 -0.2505
  790THF     C210259   2.825   4.010   4.261 -0.5128  0.0681  0.5141
  790THF     C310260   2.651   4.144   4.187  0.2028  0.5366 -0.0570
  790THF     H410261   2.892   4.090   4.294 -0.2437 -0.6306  1.7555
  790THF     H510262   2.887   3.926   4.229 -0.3654  0.5101 -0.3837
  790THF     H610263   2.704   4.230   4.229 -1.0133  1.4269 -0.2905
  790THF     H710264   2.589   4.170   4.102  0.0582 -0.1816 -0.1763
  790THF     C810265   2.588   4.062   4.295  0.0128 -0.3556 -0.3289
  790THF     C910266   2.702   3.982   4.344  0.2087  1.0328 -0.3891
  790THF    H1010267   2.511   3.998   4.254 -1.7798  2.3184 -1.4418
  790THF    H1110268   2.550   4.126   4.376 -1.8886 -0.6267 -0.9538
  790THF    H1210269   2.725   4.002   4.448 -3.6214 -2.4050  1.4208
  790THF    H1310270   2.683   3.875   4.335  2.4342  0.5767 -0.3174
  791THF     O110271   3.005   2.898   4.932 -0.2902 -0.9140 -0.3969
  791THF     C210272   3.104   2.821   4.873 -0.1652  0.4538 -0.6504
  791THF     C310273   3.008   3.022   4.860 -0.1672  0.5777 -0.3057
  791THF     H410274   3.076   2.716   4.887  0.1399  0.6603  1.9336
  791THF     H510275   3.197   2.836   4.927 -0.4330  0.6428 -0.2358
  791THF     H610276   2.921   3.085   4.880  0.1770  0.5434  1.4762
  791THF     H710277   3.085   3.085   4.907 -0.8114 -0.3195  2.0695
  791THF     C810278   3.043   2.989   4.711  0.9133  0.1396 -0.5904
  791THF     C910279   3.100   2.845   4.722  0.1026 -0.1151  0.0942
  791THF    H1010280   3.118   3.060   4.676  1.8349 -1.3429 -1.7393
  791THF    H1110281   2.947   3.000   4.661 -0.0663 -0.6563  1.0325
  791THF    H1210282   3.025   2.789   4.666 -0.2371  0.7016 -0.3013
  791THF    H1310283   3.199   2.835   4.678  0.0192 -0.1822 -0.0813
  792THF     O110284   2.628   2.690   2.503  0.2567 -0.2276  0.1436
  792THF     C210285   2.492   2.706   2.451 -0.5002 -0.5428 -0.0040
  792THF     C310286   2.698   2.594   2.431 -0.0518  0.6806  0.4126
  792THF     H410287   2.450   2.804   2.472  1.1602  0.5518 -1.5130
  792THF     H510288   2.417   2.633   2.483 -2.4493  1.9636  1.4598
  792THF     H610289   2.802   2.624   2.441 -0.4155  1.4139  2.5531
  792THF     H710290   2.689   2.498   2.482 -1.3105  0.7516  0.3565
  792THF     C810291   2.640   2.589   2.290  0.0748  0.4440 -0.0020
  792THF     C910292   2.515   2.674   2.305  0.5036 -0.6212 -0.3828
  792THF    H1010293   2.614   2.487   2.262 -0.3951  0.2315  1.1369
  792THF    H1110294   2.711   2.636   2.222 -1.5529  0.4378 -1.7896
  792THF    H1210295   2.519   2.767   2.248  0.5949 -0.7680 -0.6198
  792THF    H1310296   2.436   2.613   2.262  1.0578 -0.9470 -0.9723
  793THF     O110297   4.875   3.436   4.903 -0.0624 -0.0373 -0.7192
  793THF     C210298   4.835   3.486   5.032 -0.1637  0.9638  0.2501
  793THF     C310299   4.844   3.300   4.903  0.6719  0.5480 -0.2404
  793THF     H410300   4.742   3.540   5.014 -0.2975  0.7207  0.2129
  793THF     H510301   4.908   3.561   5.064  0.8677 -0.2780  0.9291
  793THF     H610302   4.772   3.275   4.825 -0.4990  1.5966  0.4756
  793THF     H710303   4.940   3.254   4.880  1.1533  1.5087 -0.2258
  793THF     C810304   4.782   3.257   5.041 -0.7130 -0.4329 -0.1346
  793THF     C910305   4.829   3.371   5.133 -0.5570 -0.0439 -0.1925
  793THF    H1010306   4.809   3.156   5.070  1.3046  0.7910  2.7240
  793THF    H1110307   4.673   3.265   5.037 -0.7044  0.7216  1.1416
  793THF    H1210308   4.748   3.379   5.205 -0.1124 -3.7013  0.9528
  793THF    H1310309   4.927   3.361   5.180 -0.9955  2.1799  1.3417
  794THF     O110310   3.463   4.903   1.412  0.4582  0.0132  0.4361
  794THF     C210311   3.488   4.800   1.504 -0.1171  0.0515  0.2395
  794THF     C310312   3.328   4.951   1.441 -0.5478 -0.5574 -0.6786
  794THF     H410313   3.596   4.800   1.518  0.2050  0.5387 -1.9049
  794THF     H510314   3.450   4.700   1.482 -1.6542  0.0964  2.3811
  794THF     H610315   3.316   5.039   1.378  1.5665  1.7037  1.8630
  794THF     H710316   3.257   4.870   1.421 -1.9565 -0.2272  2.4797
  794THF     C810317   3.339   4.973   1.592  0.1367  0.2163 -0.1403
  794THF     C910318   3.413   4.847   1.635 -0.4113  0.0387  0.1028
  794THF    H1010319   3.241   4.980   1.640  1.3057 -0.1431  2.4956
  794THF    H1110320   3.400   5.057   1.623 -0.8296  0.7429  0.4175
  794THF    H1210321   3.479   4.866   1.719  0.5299 -0.4550 -0.5052
  794THF    H1310322   3.344   4.768   1.664 -1.4439  0.9404  0.1515
  795THF     O110323   0.714   2.995   4.879 -0.3671 -0.3191  0.3630
  795THF     C210324   0.836   3.020   4.946  0.5335 -1.2977 -0.2151
  795THF     C310325   0.744   2.934   4.759 -0.7186  0.0198  0.0326
  795THF     H410326   0.863   2.929   5.000  0.1097 -1.6110 -0.5330
  795THF     H510327   0.821   3.110   5.006  0.9656 -1.2194 -0.2163
  795THF     H610328   0.765   2.828   4.776 -2.4337 -0.1824  1.0761
  795THF     H710329   0.672   2.939   4.678 -1.4101 -2.7423  0.3604
  795THF     C810330   0.875   3.001   4.718 -0.4917 -0.3839 -1.1249
  795THF     C910331   0.939   3.055   4.845  0.1042 -0.2655  0.1746
  795THF    H1010332   0.862   3.085   4.650  0.8139 -0.7296 -1.8394
  795THF    H1110333   0.945   2.934   4.667  2.7509  2.2706 -0.5518
  795THF    H1210334   1.039   3.019   4.873 -0.0141  0.8918  2.2201
  795THF    H1310335   0.945   3.164   4.841  2.8688 -0.3564 -2.5570
  796THF     O110336   2.096   4.140   2.406 -0.4043  0.4439  0.2209
  796THF     C210337   2.088   4.048   2.303  0.4889  0.7726  0.4664
  796THF     C310338   1.986   4.123   2.490 -0.7198  0.6384 -0.2131
  796THF     H410339   2.147   3.962   2.335 -0.6708  0.1909  1.1587
  796THF     H510340   2.113   4.106   2.214  0.6708 -0.2595 -0.1710
  796THF     H610341   2.012   4.041   2.557  0.8175  0.3157 -1.1486
  796THF     H710342   1.976   4.219   2.540 -0.1225  0.8664 -0.5279
  796THF     C810343   1.876   4.085   2.388 -0.0663  0.4865 -0.1924
  796THF     C910344   1.946   3.987   2.295 -0.2668  0.5188 -0.0446
  796THF    H1010345   1.845   4.164   2.320  1.1477 -0.4235 -1.8780
  796THF    H1110346   1.785   4.035   2.422 -0.1842  0.6590 -0.2537
  796THF    H1210347   1.946   3.880   2.319  0.2443  0.5443  0.0837
  796THF    H1310348   1.916   4.007   2.192  2.2895  0.3742 -0.8919
  797THF     O110349   0.056   2.921   2.435 -0.0356  0.7220 -0.1592
  797THF     C210350   0.142   2.811   2.477  0.4906 -0.3244  0.4860
  797THF     C310351   0.136   2.985   2.347 -0.1377  0.0539 -0.2159
  797THF     H410352   0.138   2.728   2.407 -0.9308  0.8605 -0.9136
  797THF     H510353   0.096   2.768   2.566 -2.3632 -0.3568 -0.8868
  797THF     H610354   0.147   2.921   2.260 -0.4833 -0.3392  0.0196
  797THF     H710355   0.092   3.075   2.303 -0.3235 -0.6228 -1.4540
  797THF     C810356   0.271   3.006   2.408  0.1291  0.4885  0.3564
  797THF     C910357   0.283   2.873   2.486 -0.2462 -0.0407 -0.1816
  797THF    H1010358   0.271   3.098   2.465 -0.7143  1.6783 -1.4866
  797THF    H1110359   0.342   3.015   2.326  0.7441 -1.1632  0.6636
  797THF    H1210360   0.348   2.794   2.449 -0.4494 -1.3859  2.1627
  797THF    H1310361   0.311   2.887   2.590 -1.6534  3.6700 -0.1463
  798THF     O110362   4.784   1.842   0.982  0.3290 -0.3252 -0.0773
  798THF     C210363   4.695   1.936   0.923 -0.2483 -0.6814  0.3527
  798THF     C310364   4.854   1.789   0.878  0.1938  0.1996  0.4060
  798THF     H410365   4.747   2.029   0.896 -0.1965 -0.6941  0.4067
  798THF     H510366   4.611   1.960   0.987  0.9189 -0.5406  1.8963
  798THF     H610367   4.926   1.857   0.832 -0.3888  0.3920 -0.2411
  798THF     H710368   4.908   1.703   0.919 -1.4570 -0.3643  1.5097
  798THF     C810369   4.740   1.745   0.792 -0.0236  0.8718 -0.9364
  798THF     C910370   4.649   1.866   0.797 -0.1875 -0.7486  0.2310
  798THF    H1010371   4.714   1.659   0.854  1.8136  1.7158  1.1539
  798THF    H1110372   4.763   1.710   0.691  3.7085 -1.5073  0.5218
  798THF    H1210373   4.660   1.925   0.707 -0.2768 -0.4640  0.4066
  798THF    H1310374   4.544   1.839   0.795 -0.2336 -0.5549  0.0556
  799THF     O110375   5.199   0.426   1.378  0.7264 -0.2428 -0.4029
  799THF     C210376   5.181   0.549   1.442  0.4240  0.7580  0.3809
  799THF     C310377   5.106   0.430   1.269  0.0059  0.3591  0.6666
  799THF     H410378   5.264   0.573   1.509  0.6228 -1.6315  1.0996
  799THF     H510379   5.091   0.543   1.502  0.9817 -1.4204  1.1067
  799THF     H610380   5.153   0.357   1.204  1.4859  0.4129  1.6398
  799THF     H710381   5.007   0.397   1.302  0.2532  0.1874  1.2519
  799THF     C810382   5.106   0.572   1.217 -0.0815  0.1151 -0.4949
  799THF     C910383   5.160   0.654   1.328  0.4878 -0.2324 -0.3140
  799THF    H1010384   5.009   0.609   1.182 -0.1819 -0.9099 -1.3608
  799THF    H1110385   5.173   0.570   1.132  0.9808 -1.3838  0.3234
  799THF    H1210386   5.258   0.689   1.293  0.2746  2.3677  1.4782
  799THF    H1310387   5.093   0.736   1.351 -3.0939 -3.0860  0.2084
  800THF     O110388   4.047   5.130   0.557 -0.0266  0.4265 -0.6609
  800THF     C210389   4.151   5.040   0.597 -0.4059 -0.4840  0.2836
  800THF     C310390   4.046   5.228   0.659  0.2599 -0.0383 -0.2601
  800THF     H410391   4.176   4.977   0.511 -0.7488 -0.7597  0.3860
  800THF     H510392   4.111   4.975   0.674 -1.3174 -0.8777 -0.4962
  800THF     H610393   4.013   5.327   0.626 -1.8688 -0.8168 -0.6191
  800THF     H710394   3.978   5.202   0.740 -1.1173 -0.1981 -1.4237
  800THF     C810395   4.191   5.243   0.710 -1.1544 -0.0429 -0.2908
  800THF     C910396   4.266   5.133   0.632  0.2934 -0.2003  0.5020
  800THF    H1010397   4.189   5.217   0.816  0.2807  0.4558 -0.1224
  800THF    H1110398   4.244   5.337   0.698  0.7014 -0.8681  0.9996
  800THF    H1210399   4.305   5.180   0.542 -1.8165 -0.2784 -0.5141
  800THF    H1310400   4.349   5.085   0.683  1.9759 -0.6544 -2.4565
  801THF     O110401   1.663   4.205   2.624  0.6315  0.3638  0.0547
  801THF     C210402   1.720   4.136   2.739 -0.1947 -0.5197  0.4327
  801THF     C310403   1.531   4.251   2.655 -0.3828 -0.2410  0.1091
  801THF     H410404   1.793   4.192   2.797 -1.0106  1.0718 -0.0257
  801THF     H510405   1.759   4.039   2.709 -0.7207 -0.4476 -0.5441
  801THF     H610406   1.503   4.350   2.618  2.7949  1.0110  0.7446
  801THF     H710407   1.453   4.188   2.612 -0.8236  0.3783 -0.0123
  801THF     C810408   1.522   4.241   2.803  0.8061  0.4407  0.0920
  801THF     C910409   1.602   4.114   2.825 -0.1664 -0.1975  0.1349
  801THF    H1010410   1.416   4.245   2.827  0.4061 -0.4324 -1.4291
  801THF    H1110411   1.575   4.323   2.851  0.1887 -0.6608  2.8193
  801THF    H1210412   1.632   4.103   2.929  2.0666 -0.2300 -0.4581
  801THF    H1310413   1.552   4.023   2.792  0.9504  0.2452 -3.2078
  802THF     O110414   3.334   4.054   5.329 -0.3629 -0.1614  0.2117
  802THF     C210415   3.395   4.013   5.208 -0.0481 -0.4641  0.0769
  802THF     C310416   3.339   4.199   5.322  0.1507 -0.0261 -0.4977
  802THF     H410417   3.327   4.017   5.123  0.2777 -1.7302 -0.2615
  802THF     H510418   3.438   3.913   5.211 -0.6795 -0.9251 -3.0308
  802THF     H610419   3.263   4.228   5.249  0.2147  1.0986 -0.1275
  802THF     H710420   3.294   4.230   5.416  1.0571 -2.2094  0.7411
  802THF     C810421   3.486   4.226   5.282  0.0664 -0.2094  0.2551
  802THF     C910422   3.505   4.112   5.189  0.0621  0.2588 -1.2078
  802THF    H1010423   3.549   4.239   5.371 -0.0697  1.1647  0.1830
  802THF    H1110424   3.483   4.313   5.216 -2.3977 -1.5443 -1.5455
  802THF    H1210425   3.511   4.144   5.085  0.1770  1.6200 -0.8010
  802THF    H1310426   3.596   4.056   5.209 -0.5539 -0.3265  0.0839
  803THF     O110427   2.098   4.994   3.619 -0.1621  0.1298  0.0824
  803THF     C210428   2.123   4.892   3.519 -0.1778 -0.4592 -0.8547
  803THF     C310429   2.055   5.111   3.557  0.0221 -0.1387 -0.2587
  803THF     H410430   2.039   4.823   3.513 -0.4088 -0.6251  2.4598
  803THF     H510431   2.203   4.822   3.541 -0.6184 -1.0819 -1.2009
  803THF     H610432   1.947   5.105   3.553 -0.2017 -1.0309  3.3771
  803THF     H710433   2.066   5.202   3.617 -1.3454 -0.4886  0.5628
  803THF     C810434   2.131   5.104   3.421  0.0484 -0.0598  0.2340
  803THF     C910435   2.135   4.962   3.385 -0.1194  0.8496 -0.0118
  803THF    H1010436   2.228   5.153   3.417  0.9076 -1.5808  1.4915
  803THF    H1110437   2.087   5.156   3.336  1.8975 -3.1585 -2.9201
  803THF    H1210438   2.060   4.933   3.312 -0.1676 -0.2887  0.4788
  803THF    H1310439   2.226   4.927   3.336 -1.5451 -0.5610 -1.8027
  804THF     O110440   1.363   2.031   2.657 -0.0487  0.3506  0.7413
  804THF     C210441   1.410   2.133   2.564 -0.0114 -0.4168 -0.3612
  804THF     C310442   1.446   1.908   2.649  0.4347 -0.5102  0.0835
  804THF     H410443   1.440   2.232   2.598 -1.6611  0.5491 -1.5683
  804THF     H510444   1.327   2.154   2.496  1.4789  1.5090 -1.6725
  804THF     H610445   1.536   1.913   2.710 -1.1057  1.3127  2.3720
  804THF     H710446   1.389   1.822   2.683  0.5969 -1.2664 -1.4727
  804THF     C810447   1.479   1.911   2.501 -0.5496  0.2577  0.6074
  804THF     C910448   1.510   2.050   2.482 -0.0774 -0.4046 -0.0350
  804THF    H1010449   1.390   1.886   2.443  0.1600  0.7787 -0.7639
  804THF    H1110450   1.559   1.841   2.476  1.0349  0.3736  4.6114
  804THF    H1210451   1.606   2.071   2.528  0.2299  0.3831 -1.0068
  804THF    H1310452   1.519   2.081   2.378 -1.3122 -0.1102 -0.0796
  805THF     O110453   4.399   0.420   5.259  0.1388 -0.0102  0.2199
  805THF     C210454   4.381   0.422   5.118  0.3987  0.2214 -0.0294
  805THF     C310455   4.477   0.538   5.305  0.7901 -0.0395  0.9809
  805THF     H410456   4.281   0.386   5.090  0.9831 -0.6002 -1.1892
  805THF     H510457   4.452   0.348   5.082 -1.5659 -1.0363 -1.5454
  805THF     H610458   4.455   0.557   5.410  1.1863  0.0581  1.0517
  805THF     H710459   4.583   0.522   5.283  0.6810  1.5319 -0.9469
  805THF     C810460   4.415   0.644   5.209  0.7391 -0.2345 -0.2400
  805THF     C910461   4.402   0.569   5.076 -0.0643  0.3342  0.8314
  805THF    H1010462   4.480   0.730   5.197 -0.9268  1.2159  0.6904
  805THF    H1110463   4.317   0.671   5.247 -0.1978  0.0580 -2.7134
  805THF    H1210464   4.329   0.626   5.017  1.1030  1.6244  0.5775
  805THF    H1310465   4.494   0.566   5.017  0.2470 -0.4922  1.3470
  806THF     O110466   0.862   4.067   4.448 -0.6945  0.0943 -0.1912
  806THF     C210467   0.756   4.140   4.390  0.2277  0.7582 -0.2889
  806THF     C310468   0.805   4.008   4.573  0.9435  0.2750  0.1300
  806THF     H410469   0.697   4.078   4.323 -0.6103 -1.1986  2.0878
  806THF     H510470   0.810   4.218   4.338  0.4002  0.3759 -0.6942
  806THF     H610471   0.758   3.912   4.552  1.3164 -0.6430  2.9879
  806THF     H710472   0.864   4.009   4.664 -1.6202 -1.5448  1.9653
  806THF     C810473   0.687   4.092   4.606 -0.0861 -0.4669 -0.6194
  806THF     C910474   0.680   4.201   4.503 -0.4009 -0.3659 -1.2487
  806THF    H1010475   0.688   4.125   4.709 -2.3004 -1.9725 -0.0201
  806THF    H1110476   0.595   4.033   4.607 -0.8800  0.7454  0.0061
  806THF    H1210477   0.579   4.222   4.467 -0.3815 -0.0037 -1.0983
  806THF    H1310478   0.736   4.287   4.540 -2.4658 -0.9199  4.0104
  807THF     O110479   0.760   2.816   5.248 -0.0074 -0.7977  0.5796
  807THF     C210480   0.735   2.733   5.358 -1.3593  0.4969 -0.5701
  807THF     C310481   0.640   2.834   5.169 -0.9452  0.7220 -0.4845
  807THF     H410482   0.818   2.735   5.429 -1.9256 -1.5942  0.2430
  807THF     H510483   0.722   2.630   5.323 -0.1007 -1.0418  2.9431
  807THF     H610484   0.638   2.931   5.120 -2.6772  1.5264  1.0430
  807THF     H710485   0.640   2.756   5.094  1.0781 -0.5454  0.7452
  807THF     C810486   0.530   2.828   5.277  0.1477 -0.2332  0.1346
  807THF     C910487   0.601   2.784   5.399 -0.4843  0.1453 -0.2749
  807THF    H1010488   0.458   2.751   5.247  0.5508 -0.4405 -0.3122
  807THF    H1110489   0.488   2.928   5.289 -0.2304 -0.2901 -0.6377
  807THF    H1210490   0.618   2.866   5.470 -0.0097  1.1336 -1.4875
  807THF    H1310491   0.550   2.700   5.446 -0.1626  0.8587  1.4312
  808THF     O110492   5.373   1.238   0.793 -0.5228  0.4044  0.3368
  808THF     C210493   5.368   1.199   0.656  0.3123  0.7472  0.2962
  808THF     C310494   5.502   1.289   0.804  0.9975 -0.4139  0.2273
  808THF     H410495   5.339   1.283   0.593  1.4319 -1.1029 -2.9487
  808THF     H510496   5.297   1.121   0.629  0.5065  0.8426 -0.5115
  808THF     H610497   5.515   1.383   0.751  0.6479  0.5103  1.7093
  808THF     H710498   5.535   1.309   0.906  1.8710  1.2373 -0.3407
  808THF     C810499   5.589   1.189   0.730 -0.0956 -0.9904  0.1816
  808THF     C910500   5.506   1.157   0.608  0.5342 -0.6452 -0.3098
  808THF    H1010501   5.605   1.097   0.787 -1.2182 -1.1441  0.2627
  808THF    H1110502   5.684   1.229   0.696  1.3697 -3.3766  1.1856
  808THF    H1210503   5.541   1.223   0.529  0.4037  0.9851  0.9321
  808THF    H1310504   5.516   1.050   0.590  3.2307 -0.6282  0.7258
  809THF     O110505   3.478   3.802   3.997 -0.7757 -0.6088 -0.5943
  809THF     C210506   3.550   3.699   3.932  0.0893  0.2552 -0.5254
  809THF     C310507   3.512   3.793   4.138  0.4846  0.0150  0.2179
  809THF     H410508   3.654   3.722   3.911  0.0060  1.9379  0.6805
  809THF     H510509   3.488   3.667   3.848 -0.5137 -1.2414  0.4363
  809THF     H610510   3.599   3.857   4.157  0.2173  0.3634  0.2734
  809THF     H710511   3.429   3.809   4.207  2.4917  3.4439  2.1540
  809THF     C810512   3.562   3.651   4.164  0.5884  0.3920 -0.1051
  809THF     C910513   3.546   3.586   4.032  0.1181  0.1764 -0.1503
  809THF    H1010514   3.518   3.594   4.245  1.6579 -0.2007  0.0746
  809THF    H1110515   3.666   3.670   4.193  0.9100 -0.6150 -0.5449
  809THF    H1210516   3.616   3.503   4.015  0.3578  0.2631  0.4137
  809THF    H1310517   3.450   3.537   4.020  1.4753 -2.2604 -1.9902
  810THF     O110518   0.328   4.389   2.671  0.1535 -0.1780 -0.0884
  810THF     C210519   0.200   4.423   2.605 -1.0244 -0.8491  0.3088
  810THF     C310520   0.295   4.265   2.737 -0.4620 -0.5001 -0.0168
  810THF     H410521   0.206   4.499   2.527 -0.6134 -1.2214 -0.0318
  810THF     H510522   0.124   4.451   2.677 -1.4831  0.5436 -0.6685
  810THF     H610523   0.385   4.220   2.782 -1.5088 -2.2783  0.3999
  810THF     H710524   0.237   4.266   2.829  0.7373 -1.4122  0.7961
  810THF     C810525   0.231   4.180   2.629 -0.4988 -0.8828  0.4710
  810THF     C910526   0.156   4.289   2.543 -0.4540  0.3083  0.0002
  810THF    H1010527   0.165   4.107   2.676  0.7131 -1.9637  0.5713
  810THF    H1110528   0.309   4.136   2.566  0.4005 -0.1637  1.0675
  810THF    H1210529   0.209   4.280   2.448  0.8592  3.9859  0.2316
  810THF    H1310530   0.049   4.278   2.525 -0.0415 -3.1587 -1.0457
  811THF     O110531   0.395   2.590   3.311  0.3560  0.1215  0.3283
  811THF     C210532   0.367   2.725   3.282 -0.0074 -0.3702 -0.6352
  811THF     C310533   0.503   2.556   3.230  0.0689  0.6375  0.4207
  811THF     H410534   0.294   2.761   3.355  1.2729  0.1322  0.4396
  811THF     H510535   0.318   2.748   3.187  0.3966  0.0868 -0.7393
  811THF     H610536   0.557   2.466   3.262 -1.5390 -1.0192 -1.2651
  811THF     H710537   0.472   2.540   3.127 -1.3956  1.4405  0.7140
  811THF     C810538   0.590   2.683   3.234  0.2328  0.0287  0.4301
  811THF     C910539   0.499   2.802   3.282  0.3656 -0.4535  0.1210
  811THF    H1010540   0.651   2.710   3.147  2.6034 -0.3461  1.8927
  811THF    H1110541   0.656   2.669   3.320 -0.2157 -0.6403  0.6748
  811THF    H1210542   0.534   2.829   3.381  0.1856 -0.4238  0.1774
  811THF    H1310543   0.500   2.888   3.215  1.8251 -0.5939 -0.0626
  812THF     O110544   0.648   1.174   5.391  0.0342  0.1075 -0.0661
  812THF     C210545   0.758   1.220   5.311  0.3428  0.8975 -0.0640
  812THF     C310546   0.539   1.260   5.350  0.3831 -0.5887  0.1620
  812THF     H410547   0.819   1.133   5.289  0.6892  0.4556  2.3784
  812THF     H510548   0.819   1.293   5.365 -0.7429  2.2162 -0.5505
  812THF     H610549   0.445   1.216   5.385  0.4500  0.0579  1.1870
  812THF     H710550   0.555   1.355   5.401  0.5116  0.7045 -2.1945
  812THF     C810551   0.554   1.277   5.197 -0.3454  0.5816  0.3461
  812THF     C910552   0.703   1.276   5.178  0.9129 -0.2489  0.1770
  812THF    H1010553   0.514   1.372   5.162  0.5830  0.5314 -0.9464
  812THF    H1110554   0.503   1.197   5.144 -1.4024 -0.2326  2.5024
  812THF    H1210555   0.731   1.219   5.089 -0.3288 -0.1923 -0.2766
  812THF    H1310556   0.742   1.377   5.169  1.4247 -0.5620 -1.3296
  813THF     O110557   1.170   5.409   2.350  0.2817  0.1441 -0.2057
  813THF     C210558   1.276   5.478   2.413 -0.4514 -0.6077 -0.0708
  813THF     C310559   1.085   5.364   2.454  0.5187 -1.0681 -1.4330
  813THF     H410560   1.325   5.544   2.341 -0.0538  1.1580  1.7057
  813THF     H510561   1.352   5.415   2.458  1.6301  0.7456 -1.5383
  813THF     H610562   0.991   5.352   2.400 -0.0990  1.7006 -1.1338
  813THF     H710563   1.125   5.270   2.493  0.6471 -0.8100 -0.9324
  813THF     C810564   1.094   5.470   2.567 -0.9544  0.4712  0.1373
  813THF     C910565   1.211   5.555   2.521  0.5356 -0.2449  0.8244
  813THF    H1010566   1.125   5.423   2.660 -1.2816 -2.8106 -1.2699
  813THF    H1110567   1.002   5.527   2.585  0.3329  2.7009  0.0558
  813THF    H1210568   1.178   5.645   2.470  1.7354 -0.2396  0.0238
  813THF    H1310569   1.276   5.569   2.607  1.3356  2.2520 -0.1256
  814THF     O110570   4.415   2.862   4.921 -0.0653  0.0954  0.5887
  814THF     C210571   4.422   2.955   5.028  0.1426 -0.3543 -0.3800
  814THF     C310572   4.542   2.792   4.926  0.3561 -0.5943  0.4479
  814THF     H410573   4.330   3.010   5.051 -0.5897 -0.4950 -2.7490
  814THF     H510574   4.491   3.033   4.995 -0.8844  0.3855 -0.8411
  814THF     H610575   4.540   2.691   4.886 -1.2751  0.2808 -1.8839
  814THF     H710576   4.627   2.845   4.881 -0.2805  1.4874  1.5690
  814THF     C810577   4.575   2.776   5.073 -0.6951 -0.9041 -0.2242
  814THF     C910578   4.470   2.862   5.139 -0.0397 -0.3670  0.0672
  814THF    H1010579   4.676   2.797   5.108  0.5843 -3.3096 -2.1608
  814THF    H1110580   4.550   2.678   5.112  3.1747 -1.1757  2.1697
  814THF    H1210581   4.387   2.799   5.173  1.4646 -1.7524  1.3296
  814THF    H1310582   4.497   2.911   5.233 -0.4740  1.8085 -0.8876
  815THF     O110583   3.829   3.883   3.632  0.0278  0.3873 -0.6970
  815THF     C210584   3.957   3.803   3.650  0.0856  0.9907  0.4458
  815THF     C310585   3.876   4.007   3.586 -0.2102 -0.6638  0.4997
  815THF     H410586   3.994   3.778   3.551  0.5802  0.4089  0.7722
  815THF     H510587   3.936   3.709   3.701  2.6940 -0.0844 -0.2951
  815THF     H610588   3.912   4.013   3.483 -1.0219 -1.1977  0.1801
  815THF     H710589   3.806   4.090   3.580  0.8927  0.2735  0.2841
  815THF     C810590   3.992   4.036   3.687 -0.0522 -0.4433 -0.5449
  815THF     C910591   4.042   3.897   3.728  0.2655  0.4328  0.0265
  815THF    H1010592   3.957   4.099   3.769 -1.7104 -1.8961 -0.0803
  815THF    H1110593   4.080   4.092   3.653  0.1072  1.0924  2.1178
  815THF    H1210594   4.148   3.885   3.707 -0.1585 -2.8152 -0.8476
  815THF    H1310595   4.033   3.873   3.834  0.0422  1.5431  0.2644
  816THF     O110596   3.437   0.384   2.305  0.7616 -0.2435 -0.1655
  816THF     C210597   3.552   0.323   2.247 -0.6463 -0.4942 -0.1986
  816THF     C310598   3.322   0.336   2.228 -0.3715 -0.6583 -0.0356
  816THF     H410599   3.626   0.276   2.312  0.0236 -0.0642 -0.6357
  816THF     H510600   3.601   0.410   2.203  0.3259  0.0485  1.8122
  816THF     H610601   3.276   0.254   2.282 -1.1583  0.5000  1.1174
  816THF     H710602   3.246   0.414   2.219 -1.7053 -1.5027  2.9277
  816THF     C810603   3.372   0.289   2.093 -0.2312 -0.2747  0.7130
  816THF     C910604   3.509   0.228   2.130 -0.0286 -0.2550 -0.0987
  816THF    H1010605   3.388   0.377   2.032  0.9880 -0.5220  0.6353
  816THF    H1110606   3.299   0.223   2.046  0.2551  1.1507 -2.2459
  816THF    H1210607   3.495   0.129   2.173 -1.0331 -0.1107 -0.0744
  816THF    H1310608   3.577   0.234   2.045  0.9194  2.3790  0.7257
  817THF     O110609   2.042   2.208   1.918  0.1162 -0.0115 -0.5785
  817THF     C210610   1.987   2.269   1.798 -0.3641 -0.5848 -0.5411
  817THF     C310611   2.044   2.068   1.906  0.2357  0.2842  0.2151
  817THF     H410612   2.052   2.298   1.715  0.9405  5.1551  1.9752
  817THF     H510613   1.942   2.367   1.814 -1.2963 -0.8161 -1.6880
  817THF     H610614   2.147   2.036   1.888 -0.3273 -2.1767  1.0240
  817THF     H710615   2.011   2.024   2.001  1.1944  1.1564  0.9763
  817THF     C810616   1.960   2.034   1.781 -0.4551 -0.2167  0.8962
  817THF     C910617   1.891   2.163   1.753  0.3143 -0.4274  0.2868
  817THF    H1010618   1.890   1.957   1.811 -3.1620  2.3703  1.7698
  817THF    H1110619   2.032   1.998   1.707  0.6461  3.5257 -0.1085
  817THF    H1210620   1.870   2.175   1.647 -0.5051 -0.9653  0.3838
  817THF    H1310621   1.794   2.168   1.803  0.2726  2.9773  0.1352
  818THF     O110622   3.027   1.983   3.211  0.1521 -0.1893 -0.5193
  818THF     C210623   3.118   2.034   3.309 -0.1649  0.3967 -0.8463
  818THF     C310624   2.930   2.083   3.197 -0.4619  0.2779 -0.3410
  818THF     H410625   3.181   2.115   3.271 -1.8797  1.6275 -1.1790
  818THF     H510626   3.192   1.965   3.350  0.9914  2.8531  1.5950
  818THF     H610627   2.972   2.173   3.153  1.4360 -0.9030 -1.0585
  818THF     H710628   2.840   2.056   3.142 -0.9653 -0.7695  0.9390
  818THF     C810629   2.896   2.118   3.346  0.3413  0.1246  0.1078
  818THF     C910630   3.021   2.091   3.416 -0.7256  0.9005  0.0701
  818THF    H1010631   2.822   2.045   3.380 -0.6160  1.1770  0.3457
  818THF    H1110632   2.858   2.218   3.364 -0.6981 -0.5763  2.1917
  818THF    H1210633   3.062   2.181   3.461  0.0527  0.2367  0.7120
  818THF    H1310634   2.999   2.022   3.497 -0.2376  3.9990  3.0631
  819THF     O110635   1.249   2.163   3.783  0.7323 -0.0641 -0.0369
  819THF     C210636   1.338   2.165   3.664 -0.6323  0.7351  0.0851
  819THF     C310637   1.280   2.047   3.860  0.2297 -0.8409 -0.9661
  819THF     H410638   1.327   2.263   3.618 -1.5839  0.6949  0.2160
  819THF     H510639   1.287   2.094   3.600 -0.0737  1.8722 -1.7009
  819THF     H610640   1.251   2.037   3.965  1.0730 -1.7074 -0.8024
  819THF     H710641   1.228   1.964   3.814 -0.8652 -1.7523  1.7347
  819THF     C810642   1.433   2.035   3.833  0.3629  0.2519 -0.5798
  819THF     C910643   1.476   2.139   3.725  0.4143 -0.7732  0.2850
  819THF    H1010644   1.456   1.931   3.807  0.8269  0.2108 -0.0322
  819THF    H1110645   1.491   2.055   3.923 -1.5027  1.1437  0.4768
  819THF    H1210646   1.515   2.228   3.775 -4.1611  1.8328 -0.2221
  819THF    H1310647   1.553   2.102   3.657  1.4517 -0.2044  1.1159
  820THF     O110648   3.572   0.787   2.236 -0.0656 -0.5598  0.3871
  820THF     C210649   3.510   0.700   2.329  0.1157 -0.1003 -0.2089
  820THF     C310650   3.537   0.920   2.260 -0.3456  0.3009 -0.3429
  820THF     H410651   3.588   0.635   2.369  0.1759  0.5300  0.7397
  820THF     H510652   3.424   0.644   2.292 -1.0498 -0.0231  2.1832
  820THF     H610653   3.628   0.980   2.262 -1.3316  1.8516 -0.3189
  820THF     H710654   3.474   0.964   2.183 -0.2854 -1.0727 -1.2126
  820THF     C810655   3.457   0.927   2.390 -0.1534  0.5522 -0.9153
  820THF     C910656   3.466   0.787   2.449 -0.1892  0.7514  0.8924
  820THF    H1010657   3.351   0.951   2.377 -0.2055  0.6291 -0.3488
  820THF    H1110658   3.491   1.010   2.451  0.0287 -0.3296  0.2092
  820THF    H1210659   3.536   0.790   2.532 -0.5686  0.7777  1.2190
  820THF    H1310660   3.373   0.748   2.492 -0.0290 -0.2180  0.3850
  821THF     O110661   4.187   2.755   1.403  0.0112 -0.2559 -0.4974
  821THF     C210662   4.323   2.710   1.432  0.0324  0.4373  0.6688
  821THF     C310663   4.112   2.687   1.506  0.5501  0.4009  0.5268
  821THF     H410664   4.401   2.767   1.382 -0.3041 -0.7816 -1.3326
  821THF     H510665   4.341   2.606   1.409 -1.1412  0.5934 -1.1182
  821THF     H610666   4.021   2.743   1.528  0.0828 -0.6704  1.4207
  821THF     H710667   4.067   2.594   1.471 -0.0364  0.3833  1.2941
  821THF     C810668   4.203   2.667   1.623 -0.1660  0.3679 -0.6050
  821THF     C910669   4.329   2.733   1.579 -0.5167  0.6267 -0.7938
  821THF    H1010670   4.208   2.560   1.641 -0.6577  0.5166  0.4911
  821THF    H1110671   4.161   2.713   1.712  0.4012  0.3997 -0.3519
  821THF    H1210672   4.340   2.841   1.590  2.9761  0.6467 -3.0538
  821THF    H1310673   4.416   2.694   1.633 -0.9354  0.3725 -0.2934
  822THF     O110674   4.887   4.781   3.042 -0.8396  0.2142  0.2126
  822THF     C210675   5.005   4.781   2.965  0.5125 -0.3436  0.0359
  822THF     C310676   4.785   4.767   2.951  0.8457 -1.0843  0.1625
  822THF     H410677   5.094   4.784   3.027 -1.2710  0.2075  2.7091
  822THF     H510678   5.025   4.869   2.903  0.5153  0.3367  0.9877
  822THF     H610679   4.696   4.732   3.002 -0.6281  3.9753  1.5993
  822THF     H710680   4.764   4.865   2.909  1.1411 -0.9124  0.4126
  822THF     C810681   4.846   4.656   2.852  0.2960  0.4340 -0.7038
  822THF     C910682   4.988   4.656   2.886 -0.2428  0.2815 -0.4058
  822THF    H1010683   4.827   4.677   2.747 -0.4734  0.2171 -0.6093
  822THF    H1110684   4.809   4.556   2.873  0.7946  0.2847 -0.5080
  822THF    H1210685   5.007   4.579   2.960 -0.1813  1.2085  0.5736
  822THF    H1310686   5.063   4.649   2.807  0.7222  1.1982  0.3803
  823THF     O110687   1.973   0.247   4.114  0.1457  0.5490  0.4109
  823THF     C210688   2.062   0.338   4.176  0.0850 -0.8278  0.7934
  823THF     C310689   1.948   0.299   3.984 -0.3577  0.3021  0.2273
  823THF     H410690   2.164   0.304   4.156  0.2985 -1.2201  2.4185
  823THF     H510691   2.054   0.334   4.285  1.3802  0.1262  0.9604
  823THF     H610692   2.033   0.290   3.916 -0.1939  2.8781 -0.0289
  823THF     H710693   1.868   0.243   3.936 -0.0497 -0.3201  0.4360
  823THF     C810694   1.926   0.446   4.003  0.2574 -0.5538 -0.0949
  823THF     C910695   2.031   0.477   4.108 -0.7307  0.4452  0.6953
  823THF    H1010696   1.821   0.459   4.030  0.1491 -2.1758  0.3663
  823THF    H1110697   1.948   0.502   3.912 -0.4213 -3.0000 -1.8841
  823THF    H1210698   2.119   0.524   4.064 -0.1680 -1.5303 -0.4031
  823THF    H1310699   1.994   0.560   4.167 -1.4247  0.0074  0.8897
  824THF     O110700   0.019   4.428   0.909  0.1690 -0.4645  0.2323
  824THF     C210701  -0.042   4.356   1.018 -0.7324  0.0887  0.2717
  824THF     C310702  -0.002   4.340   0.796 -0.9246 -0.0058 -0.1333
  824THF     H410703  -0.050   4.405   1.115 -0.4842  0.7880 -0.0576
  824THF     H510704   0.022   4.270   1.038  0.5287  1.1291  0.8515
  824THF     H610705   0.021   4.388   0.701  1.2767  0.7912  0.7227
  824THF     H710706   0.072   4.260   0.799 -0.6770  0.2159 -0.2482
  824THF     C810707  -0.151   4.313   0.807 -0.3979 -0.0569 -0.4483
  824THF     C910708  -0.178   4.312   0.959 -0.2122 -0.3969  0.2221
  824THF    H1010709  -0.178   4.220   0.757  0.1178 -0.8994  0.7821
  824THF    H1110710  -0.207   4.395   0.762  0.0695 -0.0894 -1.0927
  824THF    H1210711  -0.264   4.380   0.960  0.9336  1.1478  2.8075
  824THF    H1310712  -0.203   4.207   0.979  1.6756 -1.0319 -0.5061
  825THF     O110713   2.576   5.470   3.028 -0.6827  0.1742 -0.4968
  825THF     C210714   2.545   5.532   2.909  0.4209  0.6280  0.1972
  825THF     C310715   2.638   5.346   3.005  0.0284 -0.7309 -0.1291
  825THF     H410716   2.549   5.640   2.926  1.9519  0.5756  0.3506
  825THF     H510717   2.449   5.496   2.872  0.1331  1.0749  0.4975
  825THF     H610718   2.724   5.333   3.072 -0.3487 -0.5704  0.3969
  825THF     H710719   2.564   5.266   3.015  0.7837 -1.3041  1.1679
  825THF     C810720   2.691   5.355   2.863  0.1951  0.6051 -0.2941
  825THF     C910721   2.659   5.494   2.819 -0.2090  0.1313  0.5439
  825THF    H1010722   2.632   5.278   2.812  0.1419  0.0752  0.5359
  825THF    H1110723   2.794   5.326   2.839 -0.2124 -1.8081  0.5835
  825THF    H1210724   2.735   5.566   2.849  0.3643 -0.2805  0.1047
  825THF    H1310725   2.646   5.503   2.711 -0.1965  2.9553  0.7242
  826THF     O110726   4.590   3.351   2.221 -0.5291  0.3382 -0.3986
  826THF     C210727   4.543   3.465   2.295 -0.3577  0.2738  0.2431
  826THF     C310728   4.656   3.261   2.315  0.1479 -0.1468 -0.5310
  826THF     H410729   4.459   3.509   2.242 -0.0351 -0.0917 -0.5868
  826THF     H510730   4.623   3.538   2.303 -2.1082  2.6115 -1.9414
  826THF     H610731   4.629   3.159   2.285  1.2861 -0.4186 -0.6807
  826THF     H710732   4.764   3.272   2.312 -0.0755  2.5103 -0.7158
  826THF     C810733   4.595   3.292   2.460  0.9083 -0.1470  0.1516
  826THF     C910734   4.500   3.407   2.426  0.3760 -0.0134  0.3549
  826THF    H1010735   4.673   3.325   2.529  1.4996  0.4096 -0.7572
  826THF    H1110736   4.554   3.201   2.503  2.1918 -1.7868 -1.8656
  826THF    H1210737   4.398   3.370   2.410 -1.1256  3.3367  1.2426
  826THF    H1310738   4.490   3.482   2.504 -0.6156  1.9060 -1.5080
  827THF     O110739   4.938   2.483   3.845 -0.0189 -1.0895  0.0283
  827THF     C210740   5.017   2.376   3.889  0.1200  0.9523 -0.1195
  827THF     C310741   4.955   2.499   3.705 -0.2960 -0.0529 -0.2066
  827THF     H410742   4.970   2.283   3.858 -0.8848  1.6298 -0.6802
  827THF     H510743   5.018   2.377   3.998 -3.2410 -1.2871  0.0551
  827THF     H610744   4.909   2.411   3.660 -1.6217  0.1939  0.6196
  827THF     H710745   4.918   2.589   3.656  0.4845 -0.0509 -0.8077
  827THF     C810746   5.113   2.482   3.696  0.1711  0.3237 -0.4926
  827THF     C910747   5.152   2.399   3.816  0.0966  0.6614 -0.3702
  827THF    H1010748   5.147   2.585   3.698  0.6359  0.2596 -2.4395
  827THF    H1110749   5.133   2.436   3.599  0.4641  0.1917 -0.3677
  827THF    H1210750   5.189   2.297   3.801 -0.2331  0.5644 -0.5452
  827THF    H1310751   5.214   2.459   3.883 -0.3856  0.5391  0.2007
  828THF     O110752   5.459   0.370   2.768  0.2326 -0.0977 -0.7991
  828THF     C210753   5.323   0.399   2.763  0.9158  1.0187  0.0643
  828THF     C310754   5.503   0.424   2.648  0.6935 -0.4897  0.5713
  828THF     H410755   5.308   0.506   2.776  2.7828  1.6676 -2.3881
  828THF     H510756   5.267   0.344   2.839 -1.8250  3.6305  0.1304
  828THF     H610757   5.529   0.529   2.667  1.6927 -0.7309  0.5880
  828THF     H710758   5.590   0.372   2.610  1.0167 -0.4480  1.2336
  828THF     C810759   5.386   0.412   2.541  0.7478  0.1645  0.0712
  828THF     C910760   5.273   0.363   2.626  0.0821 -0.1322  0.0575
  828THF    H1010761   5.414   0.341   2.464  0.5011 -3.3723  2.9595
  828THF    H1110762   5.367   0.511   2.500 -0.4046 -0.4888 -1.0202
  828THF    H1210763   5.175   0.403   2.603  0.1883  0.3524  0.4276
  828THF    H1310764   5.267   0.254   2.629  1.0553 -0.1741  1.6872
  829THF     O110765   1.088   3.322   1.860 -0.5532 -0.2653 -0.0012
  829THF     C210766   1.037   3.287   1.984  0.3756  0.0762 -0.3432
  829THF     C310767   1.015   3.440   1.821  0.3061  0.0150 -0.6397
  829THF     H410768   1.072   3.338   2.074 -0.0208 -2.2348  1.2070
  829THF     H510769   1.056   3.182   2.005  0.0342  0.0961  0.0808
  829THF     H610770   1.058   3.530   1.867  1.4471 -0.4755 -0.7132
  829THF     H710771   1.016   3.455   1.713 -0.0746 -1.4515 -0.8698
  829THF     C810772   0.870   3.416   1.867  0.0144 -0.3784 -0.4211
  829THF     C910773   0.885   3.319   1.982  0.2208 -0.0297  0.3498
  829THF    H1010774   0.811   3.379   1.783  2.0515 -2.4072 -1.0721
  829THF    H1110775   0.825   3.511   1.894  2.7359  1.1817 -1.0296
  829THF    H1210776   0.836   3.342   2.077  1.8458  1.6129  0.8362
  829THF    H1310777   0.841   3.227   1.942 -0.8241 -0.6883  2.7802
  830THF     O110778   2.823   4.152   5.331 -0.0941 -0.3576  0.1002
  830THF     C210779   2.938   4.165   5.421  0.0203 -0.3547 -0.1156
  830THF     C310780   2.704   4.191   5.400 -0.6550  0.3914 -0.6687
  830THF     H410781   2.990   4.259   5.403  0.1903  0.0817  2.3201
  830THF     H510782   3.010   4.084   5.413 -0.7208 -1.2840  2.0788
  830THF     H610783   2.636   4.256   5.344 -0.3622  1.8246  0.5639
  830THF     H710784   2.653   4.097   5.417 -1.2348  0.2191 -3.0609
  830THF     C810785   2.745   4.250   5.538  0.0046  0.3156  0.8667
  830THF     C910786   2.874   4.184   5.557 -0.1536 -0.3003 -0.0408
  830THF    H1010787   2.673   4.232   5.618 -0.4667  0.9373  0.5903
  830THF    H1110788   2.749   4.358   5.531 -0.2962  0.3945  1.8619
  830THF    H1210789   2.928   4.236   5.637 -1.1249  0.4867  0.1245
  830THF    H1310790   2.856   4.088   5.605 -4.0434 -0.1683 -0.9219
  831THF     O110791   3.875   3.333   0.545 -0.5958 -0.1276 -0.2496
  831THF     C210792   3.996   3.365   0.620 -0.7334 -0.2988  0.5129
  831THF     C310793   3.792   3.254   0.625 -0.8279 -0.6140 -0.3334
  831THF     H410794   4.058   3.448   0.585 -0.5030 -1.2689 -1.5161
  831THF     H510795   4.050   3.271   0.631  0.1110  0.1343  0.1834
  831THF     H610796   3.690   3.251   0.586 -0.8435 -0.4427 -0.3038
  831THF     H710797   3.831   3.152   0.621 -2.4637 -1.2962  0.0122
  831THF     C810798   3.798   3.316   0.768  0.8405  0.5449  0.8836
  831THF     C910799   3.926   3.398   0.755  0.1207  0.5687 -0.0469
  831THF    H1010800   3.817   3.243   0.846  1.5205  0.3348  0.5310
  831THF    H1110801   3.712   3.379   0.790  0.9715  1.4221 -0.9027
  831THF    H1210802   3.899   3.502   0.739  0.7986  1.0340  1.5897
  831THF    H1310803   3.990   3.397   0.844 -1.5478  0.1551  1.2087
  832THF     O110804   3.409   3.006   4.052  0.3428  0.3081  0.2441
  832THF     C210805   3.489   3.066   4.147  0.0002 -0.0656 -0.2202
  832THF     C310806   3.469   3.011   3.927  0.2546  1.0956 -0.7367
  832THF     H410807   3.561   2.992   4.183  0.2624  0.8005  1.1142
  832THF     H510808   3.443   3.108   4.237  1.5778 -1.7275  1.4523
  832THF     H610809   3.539   2.927   3.924 -0.7822  0.1986 -0.3467
  832THF     H710810   3.400   2.999   3.844 -1.9630  1.0610  0.9977
  832THF     C810811   3.542   3.137   3.928 -0.3511 -0.7949  0.3223
  832THF     C910812   3.567   3.178   4.076 -0.6253 -0.1977  0.1331
  832THF    H1010813   3.500   3.224   3.876 -2.3733 -1.9212 -0.0631
  832THF    H1110814   3.643   3.120   3.891 -0.6742 -2.8748  0.2917
  832THF    H1210815   3.671   3.187   4.106 -0.3069  0.9642 -1.2076
  832THF    H1310816   3.544   3.282   4.097  1.8437  0.4082  0.1779
  833THF     O110817   3.308   0.714   1.357 -0.1340  0.5608  0.1910
  833THF     C210818   3.291   0.580   1.297 -0.1841 -0.5815  0.3785
  833THF     C310819   3.283   0.691   1.494 -0.8563 -0.0269  0.5324
  833THF     H410820   3.364   0.504   1.326  1.3746 -0.0102 -1.7591
  833THF     H510821   3.285   0.581   1.188  1.7825 -2.8372  0.1721
  833THF     H610822   3.358   0.626   1.539 -1.0821  0.0765  1.0677
  833THF     H710823   3.276   0.786   1.546  1.4560 -0.1066  1.0794
  833THF     C810824   3.158   0.608   1.494 -0.1842 -0.0873 -0.1183
  833THF     C910825   3.160   0.552   1.348  0.3596 -0.3249 -0.5099
  833THF    H1010826   3.069   0.670   1.504 -0.8728 -1.3326  1.9312
  833THF    H1110827   3.156   0.547   1.584  1.5562  1.1467  0.8369
  833THF    H1210828   3.130   0.448   1.341  0.0914 -0.1562 -2.6377
  833THF    H1310829   3.076   0.600   1.299  1.7094  0.1685 -2.4732
  834THF     O110830   2.037   5.330   2.955  0.1410  0.1075 -0.6959
  834THF     C210831   1.912   5.284   3.003  0.6860  0.6229 -0.4403
  834THF     C310832   2.059   5.459   3.006  0.2913 -0.4427 -0.5236
  834THF     H410833   1.903   5.176   3.010  0.0411  0.7318  0.7046
  834THF     H510834   1.828   5.312   2.938 -0.6975  1.0588  1.4419
  834THF     H610835   2.168   5.465   3.018  0.2888  0.1922 -0.7802
  834THF     H710836   2.045   5.539   2.934  2.1480  1.1609  0.7588
  834THF     C810837   1.980   5.476   3.138  0.1958  0.7300  0.1764
  834THF     C910838   1.898   5.352   3.141  0.5774 -0.5204 -0.3075
  834THF    H1010839   1.924   5.568   3.122 -0.9551 -0.1577 -1.0834
  834THF    H1110840   2.049   5.492   3.221  1.4315 -0.9476 -0.4735
  834THF    H1210841   1.909   5.278   3.221 -0.7641  0.4344  0.8159
  834THF    H1310842   1.798   5.392   3.159  2.2267  2.8525  2.8173
  835THF     O110843   4.996   1.414   1.084  0.3557  0.1801  0.8467
  835THF     C210844   4.858   1.401   1.047  0.0933 -0.6496  0.0618
  835THF     C310845   5.002   1.483   1.210  0.2881  0.4422  0.4713
  835THF     H410846   4.823   1.298   1.045 -3.1099  0.3086  0.8780
  835THF     H510847   4.840   1.451   0.952  0.0960 -0.2194  0.2818
  835THF     H610848   5.075   1.445   1.282  1.9496 -0.5233 -1.6263
  835THF     H710849   5.045   1.580   1.183 -0.8895  0.2500 -2.4435
  835THF     C810850   4.865   1.499   1.273 -0.0046  0.1046  0.0102
  835THF     C910851   4.781   1.490   1.143 -0.8371  0.8593  0.2048
  835THF    H1010852   4.843   1.587   1.333 -4.4888 -0.9839  0.3547
  835THF    H1110853   4.838   1.413   1.334  2.3982 -1.0074 -0.3809
  835THF    H1210854   4.689   1.438   1.171 -0.8684  0.5753 -0.4226
  835THF    H1310855   4.754   1.584   1.096 -0.4546  0.0349 -1.7321
  836THF     O110856   1.025   4.313   3.251 -0.1822 -0.0932  0.1244
  836THF     C210857   0.914   4.252   3.318 -0.4441 -0.4704  0.4317
  836THF     C310858   1.004   4.326   3.114 -0.1012 -0.5645  0.1697
  836THF     H410859   0.910   4.269   3.426 -1.9525  0.0474  0.3273
  836THF     H510860   0.923   4.144   3.307 -1.3679 -0.9667  3.4808
  836THF     H610861   1.064   4.404   3.067  1.4846 -2.2481 -0.7100
  836THF     H710862   1.029   4.231   3.067 -1.6408 -1.9545  1.9878
  836THF     C810863   0.853   4.323   3.098  0.2112 -0.2476 -0.9932
  836THF     C910864   0.796   4.316   3.246 -0.5023  0.6429 -0.1338
  836THF    H1010865   0.815   4.234   3.047 -0.0000 -2.4087  2.5260
  836THF    H1110866   0.806   4.400   3.037 -2.8305  2.2858  3.8967
  836THF    H1210867   0.766   4.416   3.278 -0.7914  0.5719 -0.1741
  836THF    H1310868   0.702   4.260   3.256 -0.2540  0.3065  0.3465
  837THF     O110869   1.915   1.283   3.719 -0.5095 -0.2812 -0.7551
  837THF     C210870   1.910   1.341   3.588 -0.4432 -0.6773  0.4084
  837THF     C310871   1.825   1.358   3.801  0.1487  0.6949  0.3305
  837THF     H410872   1.951   1.279   3.508 -0.5327  2.4857 -2.3542
  837THF     H510873   1.953   1.441   3.586 -4.3252  1.2764  2.8753
  837THF     H610874   1.793   1.295   3.884  0.7880 -0.3171 -0.1811
  837THF     H710875   1.881   1.446   3.834  0.2032  1.5614 -1.9195
  837THF     C810876   1.711   1.408   3.708 -0.5379 -0.7631  0.3934
  837THF     C910877   1.763   1.359   3.574 -0.3574 -1.4212 -0.1565
  837THF    H1010878   1.703   1.515   3.728  0.3553 -0.6056 -0.0446
  837THF    H1110879   1.621   1.353   3.734 -0.4880 -0.5040  1.1601
  837THF    H1210880   1.716   1.265   3.544 -2.1035 -0.0203 -2.0987
  837THF    H1310881   1.748   1.426   3.489  1.9217 -0.8096 -0.1423
  838THF     O110882   0.354   5.001   2.931  0.0565 -0.0578  0.5780
  838THF     C210883   0.324   5.032   3.062 -0.3268 -1.1114 -0.9521
  838THF     C310884   0.478   5.054   2.891  0.0077 -0.5994  0.1325
  838THF     H410885   0.270   4.956   3.119 -2.3237  1.8760  1.4972
  838THF     H510886   0.255   5.116   3.057  1.0256 -0.0251 -2.1337
  838THF     H610887   0.503   4.993   2.804 -1.6406 -0.6789 -0.3211
  838THF     H710888   0.473   5.162   2.875  0.4633 -0.4006  1.2197
  838THF     C810889   0.554   5.011   3.013 -0.2804 -0.8532 -0.1742
  838THF     C910890   0.464   5.054   3.126  0.5713 -0.0838 -0.1392
  838THF    H1010891   0.650   5.062   3.018 -1.0645  0.6476  0.1375
  838THF    H1110892   0.568   4.903   3.016  2.1737 -0.6821 -1.8360
  838THF    H1210893   0.479   4.992   3.214  2.4054 -1.1663 -1.1638
  838THF    H1310894   0.477   5.158   3.156  1.8494 -0.4950  0.7796
  839THF     O110895   0.557   2.531   4.394  1.0028 -0.5793 -0.1960
  839THF     C210896   0.671   2.524   4.475  0.0387  0.5304 -0.1726
  839THF     C310897   0.519   2.397   4.363  0.4783  0.4133  0.7088
  839THF     H410898   0.700   2.623   4.511  2.1349  1.4952 -3.9843
  839THF     H510899   0.755   2.490   4.413 -1.0601 -2.4394 -0.2020
  839THF     H610900   0.411   2.382   4.361  0.3725  0.9583  1.7326
  839THF     H710901   0.572   2.373   4.271  0.1267  2.4588 -0.0830
  839THF     C810902   0.562   2.316   4.489 -0.5548 -0.0194 -0.0038
  839THF     C910903   0.643   2.414   4.573 -0.5388  0.1897  0.0139
  839THF    H1010904   0.615   2.230   4.448 -1.7407 -0.8890  0.2429
  839THF    H1110905   0.482   2.269   4.546 -0.8478 -2.5418 -2.2922
  839THF    H1210906   0.587   2.443   4.662  1.2418  0.1127  1.2293
  839THF    H1310907   0.730   2.361   4.613 -2.3315 -2.6930  0.3937
  840THF     O110908   0.038   4.155   5.358  0.2696  0.1393 -0.2613
  840THF     C210909   0.061   4.283   5.303 -0.4424 -1.0085  0.5639
  840THF     C310910   0.011   4.064   5.251  0.3736 -1.1245 -0.1048
  840THF     H410911   0.159   4.286   5.254 -0.3890 -1.9549  0.5962
  840THF     H510912   0.047   4.367   5.371  0.3353 -1.2671  1.0619
  840THF     H610913   0.102   4.027   5.206 -0.7083 -3.9812 -0.1514
  840THF     H710914  -0.036   3.972   5.286 -0.2737 -0.4824  0.7732
  840THF     C810915  -0.066   4.153   5.150 -0.2878 -0.5931 -0.1257
  840THF     C910916  -0.037   4.297   5.189 -0.1036  0.1032 -0.0641
  840THF    H1010917  -0.172   4.135   5.169 -0.1076 -0.9866  0.5389
  840THF    H1110918  -0.035   4.136   5.047 -0.3819  0.0530 -0.2693
  840THF    H1210919   0.004   4.351   5.104  3.8019  0.4144  1.7614
  840THF    H1310920  -0.125   4.346   5.231  1.2714  0.8079  2.2422
  841THF     O110921   0.714   0.562   1.301 -0.6716  0.4486 -0.6328
  841THF     C210922   0.682   0.646   1.192  0.5919 -0.1549  0.6247
  841THF     C310923   0.598   0.543   1.385  0.1247 -0.4011  0.2229
  841THF     H410924   0.750   0.632   1.108  1.0827 -0.8304  1.1267
  841THF     H510925   0.682   0.751   1.221  1.9358  0.1329 -0.3312
  841THF     H610926   0.602   0.441   1.423 -0.1090 -1.0379 -1.3798
  841THF     H710927   0.607   0.610   1.470 -1.1168 -0.5415  0.4851
  841THF     C810928   0.477   0.582   1.299 -0.1729 -0.2013 -0.0184
  841THF     C910929   0.539   0.594   1.157  0.4653  0.3761  0.3980
  841THF    H1010930   0.430   0.677   1.324 -2.3296 -1.1010 -0.4185
  841THF    H1110931   0.395   0.510   1.305 -2.3859  1.6866 -3.6228
  841THF    H1210932   0.542   0.501   1.101 -0.7612  1.6769 -1.9746
  841THF    H1310933   0.481   0.665   1.098  2.6279  1.3208 -0.7350
  842THF     O110934   0.298   2.509   0.465 -0.2771  0.9354 -0.0426
  842THF     C210935   0.196   2.599   0.412  0.0279 -0.3658 -0.4063
  842THF     C310936   0.278   2.526   0.607 -0.5065 -0.3165  0.1381
  842THF     H410937   0.183   2.575   0.307 -2.1334 -3.4237  0.4316
  842THF     H510938   0.228   2.702   0.428 -0.8494 -0.5857  3.8889
  842THF     H610939   0.312   2.436   0.657 -1.9099  0.0705  1.8583
  842THF     H710940   0.334   2.611   0.646  2.0678 -2.1129  0.5714
  842THF     C810941   0.131   2.552   0.637  0.6013 -0.2903  0.5332
  842THF     C910942   0.078   2.570   0.494 -0.0431  0.2563 -0.3986
  842THF    H1010943   0.116   2.638   0.703 -2.9471 -1.4329  1.4407
  842THF    H1110944   0.088   2.467   0.690  1.3126 -0.6191  0.5901
  842THF    H1210945   0.033   2.476   0.462 -0.9353  1.4945 -3.0476
  842THF    H1310946   0.003   2.648   0.479 -0.1151  0.0916 -0.9341
  843THF     O110947   0.965   0.358   1.492 -0.1834  0.5254  0.1428
  843THF     C210948   0.972   0.231   1.561 -0.2462 -0.2280  0.1291
  843THF     C310949   1.042   0.365   1.372 -0.4791 -0.0628  0.2561
  843THF     H410950   0.884   0.175   1.531 -0.1148  0.1750 -1.0264
  843THF     H510951   0.976   0.257   1.667 -1.8299  0.3145  0.0826
  843THF     H610952   0.991   0.394   1.280  1.3355  1.5249 -0.2952
  843THF     H710953   1.116   0.441   1.396 -1.3684  0.3697  1.7443
  843THF     C810954   1.089   0.222   1.357  0.3903  1.0773  0.0832
  843THF     C910955   1.103   0.172   1.504 -0.3113 -0.5867  0.0300
  843THF    H1010956   1.176   0.196   1.296  0.0216  1.0595 -0.4394
  843THF    H1110957   1.014   0.166   1.302  1.4422  0.0036 -0.3093
  843THF    H1210958   1.109   0.063   1.506  0.1342 -0.5782 -0.5825
  843THF    H1310959   1.197   0.213   1.539 -0.3385 -1.0310  0.6556
  844THF     O110960   4.815   3.384   3.106 -0.0056 -0.4117  0.2200
  844THF     C210961   4.760   3.500   3.166 -0.9893  0.2310 -0.3212
  844THF     C310962   4.914   3.433   3.009 -0.3714 -0.8151  0.5319
  844THF     H410963   4.707   3.482   3.259 -1.1945  1.2034 -0.2473
  844THF     H510964   4.691   3.541   3.092 -2.8383 -0.5087  0.9332
  844THF     H610965   4.987   3.362   2.969  0.2802  0.0650  0.1191
  844THF     H710966   4.859   3.478   2.926  0.1849 -1.2118 -0.0654
  844THF     C810967   4.991   3.543   3.082 -0.0752  0.2070 -0.4735
  844THF     C910968   4.884   3.589   3.189 -0.3392  0.1546 -0.1275
  844THF    H1010969   5.024   3.626   3.021  0.6054 -0.4398 -1.0060
  844THF    H1110970   5.071   3.496   3.139 -0.8493  1.2301  1.5382
  844THF    H1210971   4.907   3.580   3.295  0.6748  0.7912 -0.2915
  844THF    H1310972   4.871   3.696   3.174  0.7940  0.5942  1.6934
  845THF     O110973   5.209   2.091   0.589 -0.2215  0.2846  0.0008
  845THF     C210974   5.183   2.165   0.703  0.1861 -0.2414  0.2868
  845THF     C310975   5.344   2.043   0.592 -0.2762  0.2090 -0.2285
  845THF     H410976   5.169   2.091   0.782  1.1523  0.7573  1.4471
  845THF     H510977   5.088   2.219   0.696  0.3456  0.0812  0.5652
  845THF     H610978   5.348   1.951   0.649 -0.5411 -1.0245 -2.0973
  845THF     H710979   5.386   2.015   0.495 -1.0758 -0.4610 -0.3976
  845THF     C810980   5.421   2.164   0.654  0.1740 -0.0947  0.0654
  845THF     C910981   5.307   2.244   0.722 -0.4392 -0.5141  0.1208
  845THF    H1010982   5.481   2.216   0.580 -0.3693 -0.1036 -0.3896
  845THF    H1110983   5.488   2.127   0.732  0.6892 -0.4989 -0.5612
  845THF    H1210984   5.332   2.270   0.825 -2.5824 -0.8686  0.7904
  845THF    H1310985   5.285   2.334   0.666 -2.0063 -0.3713  0.8913
  846THF     O110986   2.299   2.759   0.626  0.4233 -0.3334 -0.0718
  846THF     C210987   2.216   2.777   0.512  0.1422  0.4454  0.2658
  846THF     C310988   2.242   2.837   0.732  0.4809  0.3362  0.1800
  846THF     H410989   2.241   2.713   0.427 -0.7597  0.1351  0.2159
  846THF     H510990   2.215   2.878   0.470 -0.4886  1.2930  2.2093
  846THF     H610991   2.282   2.796   0.824  0.9656 -0.1179 -0.2242
  846THF     H710992   2.289   2.934   0.714 -1.2828  1.4720  1.4841
  846THF     C810993   2.090   2.828   0.717  0.1691  0.1824 -0.8645
  846THF     C910994   2.081   2.759   0.582 -0.0153  0.2518 -0.5245
  846THF    H1010995   2.053   2.930   0.728  1.3525  0.5328  0.3133
  846THF    H1110996   2.054   2.761   0.795 -1.8218  1.3810 -0.7100
  846THF    H1210997   2.066   2.651   0.592  2.6701 -0.1193  0.1793
  846THF    H1310998   1.994   2.810   0.540 -1.0661  1.3615  2.6727
  847THF     O110999   0.263   4.749   4.259  0.1791 -0.1825  0.2089
  847THF     C211000   0.317   4.820   4.141  0.0793  0.0455 -0.3277
  847THF     C311001   0.273   4.848   4.364  0.2864 -0.3466  0.3216
  847THF     H411002   0.228   4.849   4.085 -0.2281  3.0343  1.4692
  847THF     H511003   0.386   4.757   4.085 -0.0004 -1.9965  1.7361
  847THF     H611004   0.185   4.906   4.391 -1.4905 -1.4251 -2.6228
  847THF     H711005   0.300   4.795   4.455  2.5165 -1.6023 -0.9795
  847THF     C811006   0.407   4.929   4.341 -0.2438  0.2394 -0.4540
  847THF     C911007   0.396   4.942   4.187  0.1942 -0.0974  0.5058
  847THF    H1011008   0.492   4.866   4.366 -0.1075  0.0064 -1.4486
  847THF    H1111009   0.410   5.019   4.401  0.4961 -1.3783  2.0685
  847THF    H1211010   0.342   5.035   4.168  3.6446  2.1299  0.6367
  847THF    H1311011   0.496   4.948   4.142  0.9535  0.9405  2.2409
  848THF     O111012   0.976   0.672   0.132  0.0748 -0.4420  0.0514
  848THF     C211013   0.941   0.781   0.221 -0.7463 -0.2850 -0.0168
  848THF     C311014   0.970   0.556   0.211  0.6663 -0.4075  0.4735
  848THF     H411015   0.925   0.873   0.165  2.3835  0.2616 -0.1515
  848THF     H511016   1.010   0.815   0.298 -1.1494  1.5560 -0.4214
  848THF     H611017   0.977   0.462   0.158  3.0653 -0.7142  1.1897
  848THF     H711018   1.048   0.555   0.287  0.6318 -0.2388  0.5121
  848THF     C811019   0.828   0.574   0.274  0.3762  0.0461 -0.8443
  848THF     C911020   0.812   0.729   0.294 -0.2853 -0.2429  0.5455
  848THF    H1011021   0.841   0.514   0.365 -1.3610 -1.1848 -1.3647
  848THF    H1111022   0.758   0.524   0.208 -0.8309  0.5950 -0.0224
  848THF    H1211023   0.718   0.767   0.255 -0.3178 -0.6782  0.1935
  848THF    H1311024   0.818   0.744   0.402 -2.0050 -1.3385  0.8309
  849THF     O111025   3.245   1.133   1.137 -0.7505  0.2337  0.4729
  849THF     C211026   3.333   1.247   1.108 -0.1585 -0.4129  0.2113
  849THF     C311027   3.141   1.139   1.039  0.1707 -0.3011 -0.4450
  849THF     H411028   3.429   1.243   1.160  0.4968  1.1580 -0.7887
  849THF     H511029   3.280   1.336   1.143 -0.0520 -0.4155  0.3799
  849THF     H611030   3.115   1.034   1.028  0.1978 -0.4428  0.6858
  849THF     H711031   3.059   1.196   1.085 -0.4308 -1.1664 -0.4356
  849THF     C811032   3.217   1.180   0.911  0.7242  0.3910  0.7371
  849THF     C911033   3.351   1.236   0.957 -0.6031  0.0304 -0.2188
  849THF    H1011034   3.157   1.256   0.860  2.0521  0.0992 -1.3831
  849THF    H1111035   3.226   1.094   0.844  0.2419 -0.7103  2.0395
  849THF    H1211036   3.436   1.170   0.935 -0.9783 -0.0805 -1.4259
  849THF    H1311037   3.379   1.328   0.905  3.5354 -1.5743 -1.2132
  850THF     O111038   3.243   1.988   4.712  0.3450 -0.2292 -0.6743
  850THF     C211039   3.218   2.111   4.770 -0.2042  0.0392  0.1440
  850THF     C311040   3.235   1.888   4.813  0.8740  0.3295 -0.1941
  850THF     H411041   3.210   2.192   4.698  0.2032 -0.0971 -0.0628
  850THF     H511042   3.309   2.137   4.825  0.9393 -1.2021 -1.0912
  850THF     H611043   3.194   1.799   4.765 -1.7888  2.1663 -1.6150
  850THF     H711044   3.327   1.863   4.865 -0.0516 -1.9102  0.5266
  850THF     C811045   3.128   1.940   4.911 -0.3473  0.1561 -0.2327
  850THF     C911046   3.102   2.084   4.862  0.4984  0.4377  0.1788
  850THF    H1011047   3.183   1.941   5.005  0.1614  0.1906 -0.5273
  850THF    H1111048   3.040   1.875   4.915  1.0362 -1.7816  0.4932
  850THF    H1211049   3.006   2.095   4.811  1.9057  1.6890 -2.3777
  850THF    H1311050   3.090   2.148   4.949  0.5147  0.4219  0.1927
  851THF     O111051   1.712   1.451   5.190 -0.0366  0.5756 -0.3685
  851THF     C211052   1.818   1.382   5.116  0.1167  0.3124  0.7396
  851THF     C311053   1.747   1.586   5.182  0.3255  0.6626  0.0662
  851THF     H411054   1.780   1.282   5.095 -2.0391  1.4322 -1.0765
  851THF     H511055   1.904   1.362   5.179  0.3926  0.8888  0.5570
  851THF     H611056   1.657   1.642   5.207 -0.5096 -0.5764 -0.0790
  851THF     H711057   1.824   1.614   5.253 -0.3288  1.5876  0.4282
  851THF     C811058   1.776   1.597   5.027  0.1576 -0.2594 -0.7301
  851THF     C911059   1.857   1.472   4.998  0.4144 -0.4298 -0.0879
  851THF    H1011060   1.814   1.698   5.015  2.4538 -1.0125 -0.2809
  851THF    H1111061   1.686   1.596   4.966  0.2135 -1.4348 -0.8153
  851THF    H1211062   1.826   1.441   4.898 -0.5942  0.4558 -0.0771
  851THF    H1311063   1.963   1.497   4.993  0.0785  1.8518  2.0208
  852THF     O111064   3.087   0.885   2.859 -0.6888  0.2469  0.6012
  852THF     C211065   2.993   0.818   2.940 -0.3822  0.0876 -0.4186
  852THF     C311066   3.201   0.911   2.936 -0.2768 -0.0344  0.2512
  852THF     H411067   2.920   0.759   2.885  0.6450 -0.6407 -1.0324
  852THF     H511068   2.936   0.897   2.989  1.8862  1.3125  0.3794
  852THF     H611069   3.295   0.923   2.881  0.4092 -3.3921  0.4367
  852THF     H711070   3.194   1.000   2.998  0.1280 -0.4499  0.9175
  852THF     C811071   3.213   0.790   3.037 -0.1469  0.1605 -0.0798
  852THF     C911072   3.079   0.730   3.040  0.2709  0.5373  0.4518
  852THF    H1011073   3.265   0.823   3.127  0.4136 -0.2676 -0.2406
  852THF    H1111074   3.280   0.714   2.996 -1.0823  0.0160 -1.4325
  852THF    H1211075   3.077   0.626   3.007 -0.9341  1.0021 -1.0642
  852THF    H1311076   3.039   0.724   3.142 -2.0186  0.7528 -0.3652
  853THF     O111077   2.113   3.133   2.430 -0.6139  0.1766 -0.1475
  853THF     C211078   2.097   3.034   2.328 -0.2899 -0.8204  0.0486
  853THF     C311079   1.980   3.144   2.489 -0.3652  0.2806 -0.3363
  853THF     H411080   2.079   2.941   2.382  0.0246 -0.0414  1.5366
  853THF     H511081   2.178   3.029   2.256 -1.0816 -2.2762 -0.7900
  853THF     H611082   1.946   3.055   2.544 -1.8660  1.2802  0.4235
  853THF     H711083   1.984   3.230   2.556 -1.8723  0.8632 -0.9560
  853THF     C811084   1.901   3.167   2.357  0.2090  0.6500  0.4188
  853THF     C911085   1.975   3.081   2.250 -0.0999  0.2829  0.3185
  853THF    H1011086   1.903   3.274   2.338 -4.2128  0.7716 -0.4301
  853THF    H1111087   1.801   3.125   2.370 -0.0999  1.3698  0.4248
  853THF    H1211088   1.910   3.004   2.209  1.5646 -1.3671  0.6387
  853THF    H1311089   2.000   3.145   2.166  0.1405  0.0722  0.2289
  854THF     O111090   1.700   5.015   3.205  0.0279 -0.8849  0.4422
  854THF     C211091   1.727   4.888   3.156 -0.2814  0.2147  0.1575
  854THF     C311092   1.658   4.997   3.339 -0.7354 -0.1460  0.0176
  854THF     H411093   1.796   4.912   3.075  0.2964 -2.6846 -0.3234
  854THF     H511094   1.639   4.844   3.110 -1.2330  0.9157  1.2363
  854THF     H611095   1.666   5.091   3.394 -0.3789 -0.2186  0.0908
  854THF     H711096   1.554   4.963   3.346 -0.4943 -0.6632  1.3107
  854THF     C811097   1.752   4.892   3.394 -0.0825  0.1420 -0.0773
  854THF     C911098   1.790   4.804   3.269 -0.0703  0.0879  0.0775
  854THF    H1011099   1.701   4.841   3.476 -2.0796  3.5236  0.9896
  854THF    H1111100   1.841   4.938   3.436  0.8613  0.0475 -1.8715
  854THF    H1211101   1.896   4.780   3.264 -0.2421 -1.0627  1.3543
  854THF    H1311102   1.743   4.707   3.284  0.1159  0.3567  2.9712
  855THF     O111103   2.765   3.829   0.500 -0.6890  0.1629 -0.7286
  855THF     C211104   2.718   3.959   0.470  0.5100 -0.3096  0.3209
  855THF     C311105   2.655   3.742   0.504  0.0082 -0.9047 -0.2756
  855THF     H411106   2.744   4.010   0.377  1.7263 -0.8067  0.3748
  855THF     H511107   2.771   4.021   0.543 -1.8297  2.0720  0.1631
  855THF     H611108   2.624   3.723   0.401 -4.1862  1.2221  0.3796
  855THF     H711109   2.669   3.651   0.562 -0.3419  0.4926  2.1539
  855THF     C811110   2.556   3.833   0.575  0.3927 -0.3451  0.2915
  855THF     C911111   2.571   3.966   0.515  0.0379  0.0110  0.4554
  855THF    H1011112   2.573   3.829   0.683 -2.4233 -1.4043  0.7875
  855THF    H1111113   2.454   3.802   0.555  0.4843 -0.7206  0.3865
  855THF    H1211114   2.520   3.963   0.419  0.7038 -1.4469  0.1200
  855THF    H1311115   2.530   4.053   0.567 -3.5181 -1.3866  0.2552
  856THF     O111116   1.884   3.101   1.076 -0.5667  0.4337 -0.8483
  856THF     C211117   1.807   3.013   1.005  0.4524 -0.0105  0.0957
  856THF     C311118   1.935   3.040   1.194 -0.6227 -0.0781 -0.4078
  856THF     H411119   1.822   3.051   0.904 -0.1365  0.2973  0.1213
  856THF     H511120   1.704   3.033   1.034  0.2213  0.2261 -0.8750
  856THF     H611121   2.016   3.099   1.236  0.6659 -1.7613 -0.4616
  856THF     H711122   1.852   3.039   1.265  0.7242  0.2417  1.2334
  856THF     C811123   1.967   2.903   1.148 -0.1808 -0.2697 -0.2507
  856THF     C911124   1.864   2.870   1.042  0.4005  0.0475 -1.2221
  856THF    H1011125   1.959   2.831   1.230  0.1842 -1.7419 -1.4434
  856THF    H1111126   2.064   2.897   1.099 -0.4923 -1.9762 -0.7277
  856THF    H1211127   1.913   2.826   0.955  0.8392  1.4127 -1.6846
  856THF    H1311128   1.792   2.801   1.086  1.0620  0.6863  0.9766
  857THF     O111129   0.069   3.029   0.084  0.6371  0.3673 -0.4132
  857THF     C211130   0.099   2.938   0.189  0.0893 -0.3588  0.4172
  857THF     C311131   0.191   3.065   0.032 -0.2262 -0.7944 -0.2241
  857THF     H411132   0.010   2.887   0.226  1.0831 -2.3107  0.2768
  857THF     H511133   0.150   2.988   0.271 -0.5144  0.6416  0.1924
  857THF     H611134   0.170   3.125  -0.056  1.0084  0.0669  0.0470
  857THF     H711135   0.226   3.136   0.107 -4.0569 -1.9434  2.9957
  857THF     C811136   0.260   2.930   0.016 -0.2497  0.0097 -0.2227
  857THF     C911137   0.195   2.843   0.117  0.2032  0.6251  0.0256
  857THF    H1011138   0.369   2.927   0.018 -0.2763 -1.1071  1.5156
  857THF    H1111139   0.230   2.876  -0.074  1.7005 -3.0259  0.7899
  857THF    H1211140   0.145   2.771   0.052  1.9747 -0.4655 -0.1757
  857THF    H1311141   0.266   2.787   0.177 -1.5031 -2.7440 -0.8102
  858THF     O111142   2.865   5.097   3.433 -0.0207  0.8099  0.5448
  858THF     C211143   2.764   5.151   3.357 -0.3149  0.1039  0.3687
  858THF     C311144   2.819   4.974   3.484  0.0272 -0.2179 -0.0600
  858THF     H411145   2.769   5.111   3.256  0.1246  0.4383  0.2580
  858THF     H511146   2.769   5.259   3.343 -0.6651  0.4004  2.2458
  858THF     H611147   2.832   4.894   3.411 -0.2396 -2.5758  2.3194
  858THF     H711148   2.871   4.945   3.576  0.9024 -0.2917 -0.5680
  858THF     C811149   2.673   4.997   3.519  0.4454  0.5227 -0.4186
  858THF     C911150   2.644   5.129   3.445  0.2472  0.2823  0.0111
  858THF    H1011151   2.663   5.004   3.627  0.1500 -0.4937 -0.3769
  858THF    H1111152   2.601   4.922   3.487 -0.7904  0.8753  1.3762
  858THF    H1211153   2.542   5.129   3.408  0.1242 -0.3363  0.3463
  858THF    H1311154   2.648   5.207   3.521 -1.3016 -0.0390  0.4457
  859THF     O111155   0.302   5.445   4.249  0.1268 -0.2306 -0.4018
  859THF     C211156   0.250   5.508   4.133 -0.1419 -0.4475 -0.2560
  859THF     C311157   0.433   5.484   4.260 -0.7093 -0.0769 -0.0124
  859THF     H411158   0.227   5.613   4.152  1.6581  0.4767 -2.7932
  859THF     H511159   0.159   5.456   4.101 -0.6466  1.3113 -1.8510
  859THF     H611160   0.427   5.588   4.294  0.5417  0.9260 -2.6272
  859THF     H711161   0.482   5.423   4.336 -1.6967 -0.8203  0.0473
  859THF     C811162   0.480   5.463   4.116  0.1011 -0.6067 -0.2679
  859THF     C911163   0.360   5.496   4.028  0.3546  0.1229  0.1441
  859THF    H1011164   0.505   5.358   4.105  0.1664 -0.8632  1.9432
  859THF    H1111165   0.562   5.530   4.092 -0.3782  0.6883  1.5062
  859THF    H1211166   0.377   5.588   3.971  0.3736 -0.4833 -0.8523
  859THF    H1311167   0.341   5.415   3.957  0.2223 -0.9467  1.3742
  860THF     O111168   3.283   0.933   4.216 -0.5210 -0.3467  0.0264
  860THF     C211169   3.265   1.052   4.292 -0.5490  0.0707 -0.8169
  860THF     C311170   3.209   0.953   4.099  0.2107 -0.1494 -0.7709
  860THF     H411171   3.353   1.071   4.353 -1.9360 -2.6792  2.3604
  860THF     H511172   3.186   1.046   4.367  0.8907  0.0366  0.7596
  860THF     H611173   3.285   0.956   4.021  1.7481  0.2165  0.6747
  860THF     H711174   3.149   0.864   4.082  0.0961  0.0324 -1.3253
  860THF     C811175   3.138   1.088   4.113 -0.2882 -0.7978  0.5520
  860THF     C911176   3.249   1.164   4.192  0.8722 -0.2968  0.5707
  860THF    H1011177   3.045   1.071   4.166  0.3657  0.7983  2.3185
  860THF    H1111178   3.127   1.144   4.020  2.6751  1.1260  1.2133
  860THF    H1211179   3.342   1.183   4.138 -0.8841  1.7192 -1.9825
  860THF    H1311180   3.222   1.260   4.236  1.3647  0.5850 -0.9775
  861THF     O111181   1.543   0.709   0.382  0.3015  0.2719 -0.1590
  861THF     C211182   1.427   0.747   0.307  0.0091 -0.5661 -0.4557
  861THF     C311183   1.630   0.626   0.298 -0.4979  0.0992 -0.5648
  861THF     H411184   1.396   0.847   0.339  0.8878  0.6325 -3.0023
  861THF     H511185   1.346   0.675   0.303  0.0546 -0.6016 -0.8307
  861THF     H611186   1.735   0.627   0.328 -0.8930 -0.7216  0.9500
  861THF     H711187   1.602   0.521   0.287  0.0733 -0.0715 -0.4265
  861THF     C811188   1.616   0.683   0.164  1.0198 -0.2960  0.2472
  861THF     C911189   1.489   0.754   0.168 -0.3595 -0.3784  0.4172
  861THF    H1011190   1.605   0.626   0.071 -1.5543 -0.0388  0.3372
  861THF    H1111191   1.693   0.757   0.140 -1.1021  1.9996  0.2037
  861THF    H1211192   1.512   0.860   0.159  0.6388 -0.4907  1.4614
  861THF    H1311193   1.425   0.730   0.083  2.5545  0.5120 -2.1975
  862THF     O111194   1.953   3.121   0.112  0.5562  0.1369 -0.0600
  862THF     C211195   2.011   3.221   0.196 -0.0913 -0.8372 -0.0723
  862THF     C311196   1.978   3.167  -0.019 -0.2511 -0.3195  0.0429
  862THF     H411197   2.012   3.183   0.298  0.8088 -1.1982 -0.2037
  862THF     H511198   1.946   3.308   0.184  2.6223  1.4396  0.5979
  862THF     H611199   1.982   3.078  -0.082  3.2373 -0.4810  0.3010
  862THF     H711200   1.910   3.245  -0.053  1.0601  1.2779  0.9052
  862THF     C811201   2.129   3.211  -0.012  0.1807 -0.2154 -0.2254
  862THF     C911202   2.144   3.252   0.136 -0.7794 -1.3387  0.2391
  862THF    H1011203   2.156   3.288  -0.084  1.3969 -3.0644 -3.0263
  862THF    H1111204   2.192   3.125  -0.032  0.7956  0.1944 -0.1014
  862THF    H1211205   2.217   3.190   0.188  2.0555  1.5115 -0.0406
  862THF    H1311206   2.166   3.358   0.130  0.4772 -1.6388 -1.3991
  863THF     O111207   5.144   0.950   3.100  0.3022  0.1465 -0.5277
  863THF     C211208   5.008   0.983   3.065 -0.1795 -0.4497  0.1537
  863THF     C311209   5.165   0.989   3.232  0.2810 -0.4003  0.8959
  863THF     H411210   4.943   0.926   3.132  0.2433  2.7179  3.6417
  863THF     H511211   4.977   0.981   2.961 -0.8370  1.5778  0.2561
  863THF     H611212   5.123   0.909   3.294 -3.4695  0.1102 -0.7156
  863THF     H711213   5.269   0.986   3.265  0.7132 -0.8898 -0.4617
  863THF     C811214   5.093   1.124   3.241 -0.0289  0.5705 -0.5027
  863THF     C911215   4.997   1.126   3.122  0.8610 -0.2651 -0.6939
  863THF    H1011216   5.155   1.213   3.248 -0.8793  1.1235  0.4111
  863THF    H1111217   5.027   1.133   3.328  0.2103 -0.9768 -0.1423
  863THF    H1211218   4.897   1.142   3.163  1.2152  0.8126 -0.2108
  863THF    H1311219   5.014   1.204   3.047 -1.1517  1.1610  0.2321
  864THF     O111220   2.304   0.125   1.989  0.0928  0.2950  0.2056
  864THF     C211221   2.215   0.153   1.892  0.2752  0.3079 -0.0329
  864THF     C311222   2.257   0.023   2.070  0.0742 -1.2002  0.0238
  864THF     H411223   2.198   0.094   1.802 -0.0240  1.8347 -1.0199
  864THF     H511224   2.247   0.252   1.859 -0.1493  0.6568  0.5753
  864THF     H611225   2.290  -0.070   2.022  2.6169 -0.2103 -0.3208
  864THF     H711226   2.303   0.007   2.168 -1.4879 -2.4654  0.5899
  864THF     C811227   2.106   0.049   2.074 -0.2757 -0.1618  0.4160
  864THF     C911228   2.078   0.151   1.963  0.0756 -0.1612  0.0144
  864THF    H1011229   2.066   0.097   2.163 -1.1577  0.6614 -0.4037
  864THF    H1111230   2.057  -0.048   2.067 -1.5075  0.4934 -0.4780
  864THF    H1211231   1.997   0.138   1.891  1.3022 -0.6384 -1.3399
  864THF    H1311232   2.052   0.242   2.017 -0.9972 -1.6034  2.0506
  865THF     O111233   4.252   3.978   2.154 -0.0835  0.4758 -0.2394
  865THF     C211234   4.187   3.874   2.228  0.7724  0.7207  0.0754
  865THF     C311235   4.151   4.052   2.093  0.5021  0.2017  0.0471
  865THF     H411236   4.244   3.833   2.311  1.6046  1.2646 -0.2103
  865THF     H511237   4.155   3.796   2.160 -0.0444  1.8859 -0.9136
  865THF     H611238   4.192   4.150   2.069  0.0683  0.5235  0.5810
  865THF     H711239   4.125   3.995   2.005 -1.8058 -0.4373  1.0556
  865THF     C811240   4.042   4.058   2.198  0.3974 -0.4446 -0.0876
  865THF     C911241   4.073   3.944   2.294  0.1775 -0.2540 -0.5944
  865THF    H1011242   3.946   4.052   2.148 -0.8955  0.0440  2.1846
  865THF    H1111243   4.039   4.151   2.255  0.4411 -2.0015  2.6217
  865THF    H1211244   4.094   3.967   2.398  0.0820  1.9286 -1.0118
  865THF    H1311245   3.990   3.875   2.304  0.1346 -0.4041 -1.8368
  866THF     O111246   4.503   5.196   2.782  0.6766 -0.8284 -0.2397
  866THF     C211247   4.586   5.102   2.861  0.1275  0.3016  0.3323
  866THF     C311248   4.580   5.318   2.765  0.9368 -0.3121  0.6179
  866THF     H411249   4.560   4.998   2.839 -0.6242  0.8580 -1.7012
  866THF     H511250   4.558   5.123   2.964 -2.0300  1.3667 -0.3936
  866THF     H611251   4.552   5.388   2.687 -0.0542  1.6526  2.6502
  866THF     H711252   4.579   5.377   2.856  0.1311  1.5575 -0.5494
  866THF     C811253   4.725   5.259   2.735 -0.1942 -0.0972  0.0246
  866THF     C911254   4.740   5.140   2.828  1.0822  0.2850 -0.6214
  866THF    H1011255   4.806   5.332   2.739  0.1193 -0.3609 -1.0125
  866THF    H1111256   4.725   5.218   2.633  1.5262 -0.6483  0.2068
  866THF    H1211257   4.772   5.058   2.765  1.4170  1.4447 -2.0150
  866THF    H1311258   4.801   5.139   2.918  0.3247  2.3218 -0.0174
  867THF     O111259   2.687   0.019   0.091  0.4871 -0.0410 -0.9080
  867THF     C211260   2.622  -0.002   0.215 -0.3712 -0.1806  0.6865
  867THF     C311261   2.811   0.081   0.117  0.2248 -0.2999  0.8097
  867THF     H411262   2.568  -0.096   0.201  0.3302 -0.5996  0.7269
  867THF     H511263   2.554   0.080   0.237 -0.7807 -0.3668  0.1529
  867THF     H611264   2.878   0.062   0.033 -0.7475 -0.0739 -0.0354
  867THF     H711265   2.797   0.188   0.128 -1.1464 -0.0246 -2.5730
  867THF     C811266   2.848   0.010   0.250 -0.2315 -0.0310  0.6480
  867THF     C911267   2.723  -0.015   0.323  0.4929  0.1897  0.2390
  867THF    H1011268   2.923   0.063   0.309 -0.8258  1.0493  0.4559
  867THF    H1111269   2.892  -0.088   0.234  1.2664  0.8173 -0.8293
  867THF    H1211270   2.740  -0.115   0.363  1.2703 -0.5023 -1.6840
  867THF    H1311271   2.703   0.044   0.412 -1.9156 -2.2096  1.4180
  868THF     O111272   0.322   1.689   5.410  0.2459  0.1085 -0.0782
  868THF     C211273   0.277   1.802   5.483  0.3675 -0.5233 -0.1456
  868THF     C311274   0.466   1.704   5.420  0.5489  0.2734  0.5726
  868THF     H411275   0.170   1.789   5.501  0.3510  0.2785  0.3950
  868THF     H511276   0.291   1.881   5.409  0.2748 -0.6631 -0.3137
  868THF     H611277   0.506   1.611   5.379 -1.7264 -0.8512  0.7182
  868THF     H711278   0.508   1.786   5.362  3.1780 -2.0824 -1.1583
  868THF     C811279   0.493   1.742   5.562 -0.1903  0.1742 -0.3254
  868THF     C911280   0.365   1.814   5.599 -0.4602  0.2510 -0.3711
  868THF    H1011281   0.589   1.794   5.571 -0.2482  0.3452 -0.6867
  868THF    H1111282   0.507   1.655   5.627 -2.5005 -0.5855 -0.7438
  868THF    H1211283   0.321   1.753   5.678 -2.3862  0.9574 -0.8386
  868THF    H1311284   0.373   1.919   5.628 -2.0380  0.6343 -1.2425
  869THF     O111285   0.713   0.138   5.407  0.4882 -0.6137 -0.1306
  869THF     C211286   0.713   0.288   5.398 -0.1628  0.2860  0.2720
  869THF     C311287   0.834   0.091   5.356  0.1487  0.3844 -0.3603
  869THF     H411288   0.703   0.331   5.498  2.0025 -1.9292  1.5460
  869THF     H511289   0.627   0.338   5.353  0.1065 -0.6752 -1.3532
  869THF     H611290   0.911   0.066   5.430 -0.0121  3.5748  1.0594
  869THF     H711291   0.814  -0.006   5.310  1.4689 -1.1799  2.1166
  869THF     C811292   0.877   0.202   5.264  0.4453 -0.1840  0.3184
  869THF     C911293   0.845   0.327   5.336  0.4172 -0.1933  0.0883
  869THF    H1011294   0.812   0.203   5.177 -1.6792 -0.5819  1.8285
  869THF    H1111295   0.979   0.201   5.224 -0.5423  2.1838 -2.6532
  869THF    H1211296   0.931   0.335   5.403 -0.3566 -0.8914  1.1938
  869THF    H1311297   0.835   0.417   5.276  2.3693  0.0835  0.0943
  870THF     O111298   0.113   0.615   1.071 -0.2989  0.5339 -0.4400
  870THF     C211299   0.176   0.656   0.949 -0.3633  0.4732  0.6753
  870THF     C311300   0.004   0.697   1.100 -0.1352  0.1334  0.1758
  870THF     H411301   0.160   0.593   0.862 -2.2285  1.3187  0.3417
  870THF     H511302   0.283   0.663   0.967 -0.1643  0.2678 -0.3898
  870THF     H611303  -0.083   0.657   1.048 -0.5936  1.8301 -0.4007
  870THF     H711304  -0.012   0.703   1.208 -2.2320 -0.5701 -0.0449
  870THF     C811305   0.047   0.841   1.048 -0.4468  0.4276  0.2209
  870THF     C911306   0.125   0.795   0.921  0.3672  0.5973 -0.1225
  870THF    H1011307   0.115   0.881   1.124 -0.3247  0.0610  0.3043
  870THF    H1111308  -0.025   0.922   1.033  0.1343  0.8713 -0.2133
  870THF    H1211309   0.050   0.799   0.842 -1.3591  0.8060  1.4677
  870THF    H1311310   0.205   0.868   0.907 -0.6053  2.8749  4.2408
  871THF     O111311   4.710   1.305   1.825 -0.1538  0.3038  0.3914
  871THF     C211312   4.571   1.323   1.844  0.0827  0.6479 -0.8263
  871THF     C311313   4.740   1.155   1.814 -0.3210 -0.3070 -0.1500
  871THF     H411314   4.539   1.372   1.752  2.2513  0.4297 -1.7539
  871THF     H511315   4.533   1.381   1.929 -1.4678  0.0953 -1.1054
  871THF     H611316   4.808   1.130   1.733 -0.4758  1.0144 -0.7117
  871THF     H711317   4.775   1.113   1.908 -1.6266 -0.7473  0.1687
  871THF     C811318   4.602   1.091   1.783  0.3220  0.6593 -0.5871
  871THF     C911319   4.512   1.181   1.868  0.3134 -0.2689 -0.2974
  871THF    H1011320   4.597   0.985   1.809  0.7121  0.8293  0.2178
  871THF    H1111321   4.572   1.103   1.679  0.1115  2.9141 -0.3061
  871THF    H1211322   4.405   1.182   1.850 -0.0871 -0.9192  1.8068
  871THF    H1311323   4.515   1.146   1.971 -3.5225  1.9073  0.7422
  872THF     O111324   4.256   2.804   2.475 -0.2426 -0.4355 -0.4454
  872THF     C211325   4.268   2.931   2.529  0.2517  0.7111 -0.1533
  872THF     C311326   4.371   2.730   2.530  0.0696 -0.0985 -0.1406
  872THF     H411327   4.253   2.930   2.637 -1.9852 -2.5247 -0.3844
  872THF     H511328   4.206   3.009   2.485  0.7165 -0.2160 -2.5821
  872THF     H611329   4.351   2.704   2.634  0.1522  0.3397 -0.0110
  872THF     H711330   4.407   2.641   2.479  0.0158 -2.5058  3.6577
  872THF     C811331   4.481   2.832   2.519 -0.8974  0.5581 -0.0423
  872THF     C911332   4.411   2.966   2.506  0.5877  0.5178 -0.7061
  872THF    H1011333   4.535   2.806   2.428  0.7859 -1.4063  1.4080
  872THF    H1111334   4.531   2.827   2.615 -0.4385 -0.1111 -0.3119
  872THF    H1211335   4.455   3.040   2.573  1.7443  1.3474 -2.3111
  872THF    H1311336   4.406   3.017   2.410  0.1967 -0.1040 -1.0225
  873THF     O111337   0.040   3.932   4.768 -0.3577  0.1259 -0.6131
  873THF     C211338  -0.100   3.914   4.769 -0.6144  0.2879 -0.2368
  873THF     C311339   0.061   4.049   4.695  0.4713  0.5965  0.0930
  873THF     H411340  -0.130   3.851   4.853 -0.1134  0.3228 -0.0281
  873THF     H511341  -0.134   3.873   4.674 -1.4048  0.3732  0.0017
  873THF     H611342   0.156   4.094   4.726  1.6050 -2.1752  0.8902
  873THF     H711343   0.067   4.021   4.590  1.0185  1.0277 -0.0021
  873THF     C811344  -0.045   4.147   4.732  0.0032  0.1270 -0.0114
  873THF     C911345  -0.168   4.057   4.782 -0.4563  0.1605  0.4741
  873THF    H1011346  -0.087   4.207   4.652  0.1497 -2.2543 -1.9923
  873THF    H1111347  -0.013   4.211   4.814 -0.7378  1.6760 -0.8801
  873THF    H1211348  -0.217   4.083   4.875 -0.2010  0.0744  0.6335
  873THF    H1311349  -0.251   4.063   4.711 -1.1086  1.0688  1.2960
  874THF     O111350   2.234   4.688   2.355  0.1104  0.0517  0.6078
  874THF     C211351   2.174   4.658   2.480  0.0639  0.2954  0.5696
  874THF     C311352   2.291   4.578   2.297 -0.0538  0.3274  0.0516
  874THF     H411353   2.101   4.731   2.518  2.4816  3.9487 -1.1971
  874THF     H511354   2.243   4.642   2.562  1.8753  1.0262 -0.7598
  874THF     H611355   2.266   4.576   2.191 -0.2074 -1.8114  0.0845
  874THF     H711356   2.398   4.575   2.318  0.6896 -3.5635 -3.1558
  874THF     C811357   2.222   4.455   2.363  0.0346  0.7115  0.3776
  874THF     C911358   2.115   4.516   2.455  0.5801  0.1232  0.1200
  874THF    H1011359   2.288   4.409   2.437  0.8063 -1.1676 -1.3752
  874THF    H1111360   2.197   4.372   2.297  1.2174 -1.7369  2.7687
  874THF    H1211361   2.022   4.517   2.399  0.9429  0.6445 -0.4886
  874THF    H1311362   2.092   4.459   2.545 -2.9518  0.5423 -0.4081
  875THF     O111363   3.238   2.122   3.673  0.6194 -0.2567 -0.2293
  875THF     C211364   3.221   1.993   3.717  0.5954 -0.0953 -0.4582
  875THF     C311365   3.310   2.182   3.779  1.2452  0.4111 -0.3680
  875THF     H411366   3.315   1.939   3.727  0.0183 -1.0055  0.2893
  875THF     H511367   3.148   1.953   3.646 -0.3809  0.6297  0.1132
  875THF     H611368   3.411   2.143   3.779  0.7443 -0.9258 -0.2456
  875THF     H711369   3.306   2.289   3.755  0.9312  0.5875  0.4593
  875THF     C811370   3.228   2.141   3.901  0.2459 -0.1063 -0.5638
  875THF     C911371   3.172   2.005   3.863 -0.9585  0.3865  0.1072
  875THF    H1011372   3.155   2.218   3.927  0.4753  0.4929 -1.6104
  875THF    H1111373   3.290   2.140   3.990 -1.3241 -0.3459  0.5878
  875THF    H1211374   3.208   1.928   3.931 -0.0573  0.9403  0.2756
  875THF    H1311375   3.064   2.006   3.877 -1.2836  1.3888 -2.0809
  876THF     O111376   1.107   3.457   1.291 -0.1268  0.3586  0.0136
  876THF     C211377   1.140   3.537   1.173  0.2840  0.0465 -0.8345
  876THF     C311378   0.989   3.514   1.348 -0.4430 -0.7890 -0.3618
  876THF     H411379   1.077   3.518   1.085  1.0098  0.2300 -1.3996
  876THF     H511380   1.242   3.519   1.139  0.1217 -1.3157 -0.6783
  876THF     H611381   0.905   3.479   1.288 -0.8987  1.1900 -0.9582
  876THF     H711382   0.971   3.485   1.451  0.5852 -0.2154 -0.0099
  876THF     C811383   0.998   3.665   1.329 -0.1948  0.1447 -0.3702
  876THF     C911384   1.112   3.681   1.228  0.0265 -0.5245 -0.0060
  876THF    H1011385   1.037   3.706   1.422  0.4736 -0.4818 -0.3569
  876THF    H1111386   0.907   3.715   1.297  0.2970  1.1208 -0.2662
  876THF    H1211387   1.091   3.757   1.152  0.3638  0.9058  1.2944
  876THF    H1311388   1.196   3.719   1.285 -0.2769  1.6391 -0.8886
  877THF     O111389   3.388   0.521   3.448  0.8355 -0.1073  0.5420
  877THF     C211390   3.306   0.404   3.484 -0.8706 -0.4442  0.1904
  877THF     C311391   3.370   0.545   3.308 -0.1436  0.0002  0.6571
  877THF     H411392   3.212   0.449   3.517 -0.7304  0.5539 -0.7389
  877THF     H511393   3.345   0.350   3.570 -0.5566 -1.2362 -0.4324
  877THF     H611394   3.275   0.587   3.276 -0.0759  0.1448  0.6446
  877THF     H711395   3.452   0.610   3.277 -0.6053  1.1016  1.6900
  877THF     C811396   3.385   0.399   3.260  0.1565  0.0266  0.7128
  877THF     C911397   3.300   0.317   3.361 -0.3820  0.0692 -0.0306
  877THF    H1011398   3.486   0.357   3.262  0.0301 -0.2549  2.8343
  877THF    H1111399   3.343   0.379   3.161 -0.7019  0.3810  1.0011
  877THF    H1211400   3.200   0.302   3.322 -0.4478  0.0732  0.1359
  877THF    H1311401   3.337   0.216   3.378 -1.1564 -0.0376  1.1455
  878THF     O111402   2.841   2.392   5.460  0.5986  0.7315  0.1016
  878THF     C211403   2.765   2.512   5.451  0.0091  0.6124 -0.4711
  878THF     C311404   2.824   2.344   5.593 -0.4368 -0.3840  0.6889
  878THF     H411405   2.669   2.496   5.402 -0.1993 -0.0096  0.1325
  878THF     H511406   2.820   2.589   5.398  0.8996 -0.1744 -0.7202
  878THF     H611407   2.725   2.301   5.602 -0.9370  0.6639  0.3829
  878THF     H711408   2.907   2.281   5.625 -0.1671  1.2427  3.4962
  878THF     C811409   2.831   2.475   5.673 -0.3703  1.4027  0.5627
  878THF     C911410   2.745   2.560   5.590  0.1568  0.5160 -0.0862
  878THF    H1011411   2.936   2.503   5.675 -0.0362  0.2681 -0.3524
  878THF    H1111412   2.796   2.464   5.776 -0.9574  1.5348  0.3850
  878THF    H1211413   2.642   2.545   5.620  0.2550 -0.0304 -0.0176
  878THF    H1311414   2.756   2.668   5.603 -1.2019  0.6147  0.3828
  879THF     O111415   1.862   2.272   4.255 -0.2900 -0.2244 -0.1299
  879THF     C211416   1.849   2.212   4.385 -0.0062 -0.2717 -0.0880
  879THF     C311417   1.930   2.177   4.169  0.4435 -0.7448  0.4228
  879THF     H411418   1.749   2.232   4.425  0.5464  2.6705 -0.0139
  879THF     H511419   1.914   2.268   4.451 -0.2772  0.4475 -0.4209
  879THF     H611420   1.854   2.132   4.104  0.1760  0.6368 -0.2656
  879THF     H711421   1.995   2.229   4.099 -0.0111 -1.1623 -0.3248
  879THF     C811422   1.997   2.081   4.259 -0.2770  0.4473 -0.0734
  879THF     C911423   1.900   2.068   4.380 -0.6130  0.1442  0.0749
  879THF    H1011424   2.087   2.125   4.303  0.9168 -1.5978 -0.3377
  879THF    H1111425   2.023   1.986   4.211 -0.0155 -0.2343  1.3556
  879THF    H1211426   1.818   1.997   4.371  0.3769 -0.9565 -0.4739
  879THF    H1311427   1.949   2.053   4.476 -0.2221  2.5302  0.3159
  880THF     O111428   3.455   0.162   0.952 -0.2709 -0.1385  0.3390
  880THF     C211429   3.531   0.255   1.031 -0.5626  0.5718 -0.3748
  880THF     C311430   3.314   0.186   0.976  0.0400  0.2084 -0.4409
  880THF     H411431   3.544   0.353   0.986  0.6080  0.3901 -0.4792
  880THF     H511432   3.633   0.218   1.044 -0.9632 -0.4002  0.0861
  880THF     H611433   3.283   0.261   0.904 -0.1978 -0.2194 -0.7881
  880THF     H711434   3.265   0.092   0.953  2.0891 -1.0564  0.0943
  880THF     C811435   3.311   0.221   1.127  1.0575  0.0833 -0.1587
  880THF     C911436   3.453   0.246   1.165 -0.2828  0.9539  0.3440
  880THF    H1011437   3.255   0.142   1.177 -0.9429  0.6850 -1.3603
  880THF    H1111438   3.249   0.307   1.152  0.0508  0.0113 -2.2199
  880THF    H1211439   3.468   0.321   1.243 -1.5730  0.7698  0.7942
  880THF    H1311440   3.489   0.153   1.208  0.6275  1.6151  1.0557
  881THF     O111441   0.001   1.348   4.524  0.7257  0.6213 -0.4037
  881THF     C211442  -0.122   1.417   4.544  0.5623  0.1009  0.1418
  881THF     C311443   0.074   1.347   4.648 -0.4278 -0.2437 -0.1604
  881THF     H411444  -0.191   1.351   4.491  0.6877 -1.2017  1.5433
  881THF     H511445  -0.119   1.518   4.502 -0.8115 -0.6648 -1.9785
  881THF     H611446   0.145   1.264   4.650  0.8551  0.7515 -1.6832
  881THF     H711447   0.133   1.438   4.651 -0.0471 -0.5084  1.1441
  881THF     C811448  -0.038   1.333   4.750  0.3299 -0.5424 -0.2219
  881THF     C911449  -0.144   1.416   4.694 -0.4929 -0.0470 -0.1206
  881THF    H1011450  -0.023   1.372   4.850 -1.3944  0.2622 -0.2452
  881THF    H1111451  -0.085   1.234   4.760  3.5928 -2.3297 -1.1877
  881THF    H1211452  -0.243   1.388   4.727 -0.7168 -0.0463 -0.7839
  881THF    H1311453  -0.122   1.519   4.725  0.3139 -0.6298  1.3546
  882THF     O111454   4.930   4.226   5.373  0.8339 -0.3436 -0.0303
  882THF     C211455   4.858   4.261   5.498  0.5534  0.0588  0.6767
  882THF     C311456   4.981   4.353   5.321 -1.5811  0.2380 -0.7033
  882THF     H411457   4.831   4.175   5.559  1.2481  0.3972  1.4703
  882THF     H511458   4.767   4.319   5.482 -0.4509 -0.9959  2.2870
  882THF     H611459   5.071   4.339   5.261 -1.4537  1.1204 -0.7228
  882THF     H711460   4.901   4.399   5.262 -2.1160 -0.9160 -0.9303
  882THF     C811461   5.025   4.426   5.450 -0.4290  0.5250 -0.2971
  882THF     C911462   4.959   4.349   5.560  0.4435 -0.5338  0.5052
  882THF    H1011463   5.005   4.533   5.450  0.8859  0.7984  1.0092
  882THF    H1111464   5.132   4.420   5.468 -0.4511 -0.4250 -0.4401
  882THF    H1211465   5.036   4.301   5.620  0.1529  0.7036  1.9222
  882THF    H1311466   4.911   4.407   5.639 -2.2866 -1.0288 -0.6671
  883THF     O111467   3.179   0.486   0.242  0.3111 -0.1944  0.0495
  883THF     C211468   3.139   0.358   0.256 -0.1272  0.2810 -0.3148
  883THF     C311469   3.223   0.508   0.111 -0.5359 -0.0106 -0.4637
  883THF     H411470   3.032   0.356   0.276 -0.1392  1.0047 -0.2871
  883THF     H511471   3.188   0.308   0.339 -2.5603 -0.1445  0.9624
  883THF     H611472   3.202   0.611   0.080 -0.2996  0.9179  2.2188
  883THF     H711473   3.331   0.502   0.115 -0.5810 -0.6979 -0.0024
  883THF     C811474   3.169   0.401   0.030 -0.0051 -0.2851  1.1962
  883THF     C911475   3.180   0.288   0.129  0.0385  0.4874 -0.3058
  883THF    H1011476   3.215   0.395  -0.069  1.6568  0.5869  1.8796
  883THF    H1111477   3.063   0.411   0.006  0.2880  1.1949  0.3984
  883THF    H1211478   3.119   0.202   0.100 -0.5143  1.0007 -0.6936
  883THF    H1311479   3.282   0.252   0.142  0.9460  3.0038 -0.0624
  884THF     O111480   5.280   3.514   3.968 -0.6458 -0.0804  0.2275
  884THF     C211481   5.390   3.547   3.879  0.8982 -0.2763 -0.4490
  884THF     C311482   5.175   3.612   3.965  0.0867 -0.2943  0.0321
  884THF     H411483   5.395   3.471   3.801 -0.9138 -0.4858 -0.4064
  884THF     H511484   5.483   3.535   3.935 -0.7521 -1.3766  2.2486
  884THF     H611485   5.098   3.594   3.890 -0.8323 -1.4472  1.2101
  884THF     H711486   5.124   3.624   4.061 -1.5096  1.2629 -0.9484
  884THF     C811487   5.255   3.738   3.944  0.2637 -0.4999  0.6007
  884THF     C911488   5.360   3.694   3.841  0.3943  0.0678  0.8251
  884THF    H1011489   5.306   3.777   4.032  1.0703 -0.2511  0.0461
  884THF    H1111490   5.193   3.821   3.911  2.4723  0.7936 -0.6116
  884THF    H1211491   5.310   3.685   3.745 -1.6190 -2.5092  2.0003
  884THF    H1311492   5.441   3.766   3.826 -0.0319  0.9349  2.4402
  885THF     O111493   2.278   3.810   4.218 -0.2892  0.5733  0.5322
  885THF     C211494   2.207   3.839   4.336 -0.5449 -0.4810 -0.0881
  885THF     C311495   2.221   3.694   4.145  0.1577  1.0024 -0.1068
  885THF     H411496   2.189   3.946   4.352  3.6927  0.9458 -3.1163
  885THF     H511497   2.263   3.804   4.422  2.9534  2.7337 -0.7698
  885THF     H611498   2.158   3.725   4.062 -1.4105  1.8845  1.3401
  885THF     H711499   2.308   3.639   4.108  0.8034  1.5664  0.5303
  885THF     C811500   2.123   3.628   4.248 -0.8731  0.1565  0.3312
  885THF     C911501   2.082   3.753   4.319  0.3253 -0.6138  0.0222
  885THF    H1011502   2.180   3.565   4.316 -1.5246  0.6640  1.3677
  885THF    H1111503   2.047   3.565   4.202 -1.0800  1.2192 -0.8311
  885THF    H1211504   2.006   3.814   4.270  1.4921  0.0874 -0.9834
  885THF    H1311505   2.046   3.731   4.419  1.1200  0.0622  0.4710
  886THF     O111506   3.796   1.841   2.589  0.3979 -0.0939 -0.3277
  886THF     C211507   3.682   1.763   2.549  0.7742 -0.6623 -0.6107
  886THF     C311508   3.816   1.951   2.507 -0.1874 -0.3840  0.9820
  886THF     H411509   3.607   1.811   2.612  2.1587 -0.4078  0.9239
  886THF     H511510   3.689   1.659   2.582  1.5679 -0.9782 -1.7270
  886THF     H611511   3.786   2.041   2.560  0.1413 -0.3293  1.0778
  886THF     H711512   3.920   1.962   2.477 -0.7353 -0.3122 -1.1022
  886THF     C811513   3.718   1.923   2.387 -0.3248  0.2798 -0.6680
  886THF     C911514   3.659   1.787   2.405 -0.2753 -0.2312  0.0237
  886THF    H1011515   3.766   1.946   2.292 -2.4291  0.9914 -1.6236
  886THF    H1111516   3.637   1.995   2.387  1.0117  1.8360  0.2712
  886THF    H1211517   3.553   1.779   2.381 -0.2482  0.5769 -0.3941
  886THF    H1311518   3.715   1.714   2.346 -0.8595 -0.0624 -0.7508
  887THF     O111519   3.135   5.062   5.180 -0.6457 -0.2225 -0.0267
  887THF     C211520   3.261   5.112   5.230 -0.2275  0.3361  0.3539
  887THF     C311521   3.159   4.946   5.106 -0.1182  0.2375 -0.2264
  887THF     H411522   3.275   5.114   5.338 -2.0429 -4.4240  0.9250
  887THF     H511523   3.285   5.214   5.200 -0.2286  0.2021 -0.1048
  887THF     H611524   3.078   4.873   5.110  0.7015 -0.6755  0.3546
  887THF     H711525   3.178   4.972   5.002 -0.0042 -1.1608 -0.5745
  887THF     C811526   3.293   4.886   5.157  0.4051 -0.1975 -0.2203
  887THF     C911527   3.369   5.013   5.189  0.1765 -0.2619  0.3842
  887THF    H1011528   3.336   4.811   5.090 -1.7021 -0.1704 -1.6942
  887THF    H1111529   3.276   4.838   5.253  0.2445  0.1374 -0.0800
  887THF    H1211530   3.459   4.997   5.250 -0.0539  1.8499  1.3724
  887THF    H1311531   3.408   5.033   5.090  1.0999 -3.1111  0.0987
  888THF     O111532   4.253   3.955   4.905 -0.3750  0.0922  0.3282
  888THF     C211533   4.365   4.040   4.879  0.7032  0.7346  0.4910
  888THF     C311534   4.139   4.032   4.938  0.1446  0.1016 -0.2045
  888THF     H411535   4.399   3.993   4.787 -1.7971 -2.5374  1.0135
  888THF     H511536   4.437   4.044   4.961 -0.2215 -1.1070  1.4889
  888THF     H611537   4.040   3.989   4.926 -0.6274  0.7393  3.0413
  888THF     H711538   4.141   4.047   5.046 -0.2405  1.4575 -0.3650
  888THF     C811539   4.154   4.164   4.859  0.3027 -0.2256  0.7945
  888THF     C911540   4.307   4.185   4.863  0.1768 -0.1474 -0.1897
  888THF    H1011541   4.090   4.248   4.888  1.0299  0.0350  1.7032
  888THF    H1111542   4.123   4.133   4.759  0.9688 -0.9601  0.8047
  888THF    H1211543   4.344   4.236   4.775 -0.0201 -0.2557 -0.3357
  888THF    H1311544   4.325   4.244   4.953 -1.2212 -0.5339  0.3664
  889THF     O111545   4.028   3.565   3.945 -0.1010  0.2209  0.2299
  889THF     C211546   3.997   3.429   3.964 -0.0848  0.4904  0.7881
  889THF     C311547   4.149   3.566   3.871 -0.4418  0.4580  0.1577
  889THF     H411548   3.951   3.400   3.871 -0.5267  0.2595  1.0782
  889THF     H511549   3.925   3.409   4.043 -0.4016 -1.2150  0.1077
  889THF     H611550   4.134   3.553   3.764  0.9039  0.9541 -0.1131
  889THF     H711551   4.204   3.660   3.873  1.1196 -0.4310  0.7666
  889THF     C811552   4.233   3.438   3.912  0.2661  0.1803  0.4379
  889THF     C911553   4.133   3.355   3.982 -0.2560  0.4664 -0.3543
  889THF    H1011554   4.306   3.479   3.982 -0.2781 -0.7622  1.5773
  889THF    H1111555   4.297   3.397   3.834  0.9092 -1.6363  1.8519
  889THF    H1211556   4.127   3.251   3.953  0.1823  0.5442 -0.7360
  889THF    H1311557   4.155   3.342   4.088  0.6233 -0.4928 -0.6415
  890THF     O111558   0.029   2.222   2.584 -0.1166 -0.3065 -0.2437
  890THF     C211559   0.073   2.189   2.459 -0.0504  0.0416  0.3308
  890THF     C311560   0.002   2.363   2.589  0.1354  0.4930  0.1613
  890THF     H411561  -0.015   2.167   2.399 -0.5809  0.4963  0.9249
  890THF     H511562   0.148   2.110   2.470 -0.7055 -0.5614  0.5837
  890THF     H611563  -0.106   2.365   2.604  0.4077  0.6926  2.5273
  890THF     H711564   0.040   2.408   2.680 -0.3716 -0.3996  0.8380
  890THF     C811565   0.052   2.422   2.461  0.7444  0.0441  0.0700
  890THF     C911566   0.135   2.314   2.402  0.1627 -0.1263 -0.8360
  890THF    H1011567   0.106   2.516   2.477 -1.1455  1.4830 -1.4183
  890THF    H1111568  -0.032   2.446   2.396 -0.4288  1.4680  1.9857
  890THF    H1211569   0.105   2.320   2.297 -0.6694  0.6071 -0.5765
  890THF    H1311570   0.237   2.333   2.435 -0.5169  0.9825  0.7184
  891THF     O111571   3.638   3.145   0.981  0.2646 -0.5421 -1.1803
  891THF     C211572   3.665   3.174   1.116  0.2225 -0.3077 -0.7491
  891THF     C311573   3.496   3.170   0.955 -0.6934 -0.7783 -0.3212
  891THF     H411574   3.705   3.275   1.124  0.0583 -0.3871  1.9718
  891THF     H511575   3.736   3.112   1.172  0.9265  0.1926 -1.0766
  891THF     H611576   3.458   3.211   0.861 -3.3853 -0.6725  0.7214
  891THF     H711577   3.450   3.071   0.957 -0.9733 -0.7196 -2.1076
  891THF     C811578   3.448   3.251   1.080 -0.6151  0.8178  0.5172
  891THF     C911579   3.528   3.178   1.185 -0.1543  0.0326  0.4729
  891THF    H1011580   3.343   3.267   1.105 -0.1737  0.0819  3.1108
  891THF    H1111581   3.495   3.349   1.082  1.7898 -0.2164 -0.8995
  891THF    H1211582   3.533   3.221   1.286 -1.1867  0.6962  0.2538
  891THF    H1311583   3.493   3.076   1.198 -0.4477  0.1912  1.0026
  892THF     O111584   2.231   1.224   3.753 -1.7142  0.4839  0.2193
  892THF     C211585   2.296   1.235   3.635 -0.4128  0.9031  0.4090
  892THF     C311586   2.288   1.319   3.847 -0.4839  0.0766  0.2576
  892THF     H411587   2.263   1.329   3.591  1.6892  1.7765  0.5639
  892THF     H511588   2.271   1.149   3.573 -0.6668  1.1623  0.1535
  892THF     H611589   2.256   1.420   3.818  0.3861  0.9058  2.0199
  892THF     H711590   2.271   1.305   3.954  2.2094 -0.3797  0.6843
  892THF     C811591   2.434   1.307   3.824 -0.4372  0.1645  1.1507
  892THF     C911592   2.440   1.239   3.688  0.0120 -0.5259 -0.1514
  892THF    H1011593   2.486   1.251   3.902  0.6496  0.5442  0.7178
  892THF    H1111594   2.480   1.406   3.824  0.4141 -0.2179  0.9079
  892THF    H1211595   2.504   1.294   3.619 -1.0289  0.3296 -0.4439
  892THF    H1311596   2.485   1.140   3.696  1.1768 -0.4796 -4.0049
  893THF     O111597   3.958   4.422   1.134  0.2332 -0.5643  0.0363
  893THF     C211598   4.069   4.373   1.052 -0.2780 -0.1174 -0.6220
  893THF     C311599   3.895   4.532   1.055  0.1675  0.1972  1.0459
  893THF     H411600   4.108   4.276   1.081  2.1915  0.3800 -1.9574
  893THF     H511601   4.148   4.448   1.063  0.3699 -0.8349 -0.3004
  893THF     H611602   3.805   4.581   1.091 -0.0462  1.5805 -1.2093
  893THF     H711603   3.964   4.617   1.057 -1.4986  1.8080 -2.2670
  893THF     C811604   3.891   4.485   0.915  0.0113  0.0913  0.6236
  893THF     C911605   4.009   4.377   0.914  0.1311 -0.6814  0.5943
  893THF    H1011606   3.918   4.557   0.838  0.1593 -1.0707 -0.4448
  893THF    H1111607   3.799   4.434   0.885  1.2968 -1.5483 -0.7431
  893THF    H1211608   3.970   4.278   0.891 -0.9598 -0.1192 -0.0522
  893THF    H1311609   4.088   4.399   0.843 -0.6659 -0.0616 -0.1242
  894THF     O111610   1.875   5.225   1.524  0.3221 -0.0739  0.3656
  894THF     C211611   1.856   5.151   1.648  0.2561  0.0072  0.4651
  894THF     C311612   2.008   5.265   1.518 -0.5117 -0.2266  0.2367
  894THF     H411613   1.901   5.052   1.640  0.1803 -0.0993  1.2737
  894THF     H511614   1.752   5.157   1.681 -0.4741 -1.9248 -1.2348
  894THF     H611615   2.078   5.187   1.485  1.4729  1.3081  0.5877
  894THF     H711616   2.017   5.349   1.450  2.3846  0.5671  1.4506
  894THF     C811617   2.042   5.297   1.660  0.3644 -0.2063 -0.4528
  894THF     C911618   1.929   5.249   1.741 -0.0552 -0.0281 -0.4328
  894THF    H1011619   2.077   5.399   1.675 -1.1061  0.6923 -2.5669
  894THF    H1111620   2.120   5.229   1.694  1.8651  1.4465 -0.4440
  894THF    H1211621   1.948   5.204   1.838 -0.5132  0.8441  0.0804
  894THF    H1311622   1.859   5.330   1.762 -1.6880 -1.5541  0.2784
  895THF     O111623   1.593   4.581   2.588  0.2470  0.2627 -0.3699
  895THF     C211624   1.711   4.616   2.515 -0.4311 -0.5337 -0.2880
  895THF     C311625   1.590   4.649   2.714  0.4573 -0.0678  0.1386
  895THF     H411626   1.688   4.646   2.413  0.7373  1.4420 -0.0115
  895THF     H511627   1.783   4.535   2.505 -1.2538 -1.0512 -3.1118
  895THF     H611628   1.487   4.666   2.747  0.7290 -0.3828  1.1917
  895THF     H711629   1.646   4.592   2.789  0.5748 -0.2310 -0.0717
  895THF     C811630   1.657   4.780   2.682  0.1357  0.4300  0.2326
  895THF     C911631   1.764   4.739   2.575  0.1345 -0.2904 -0.0309
  895THF    H1011632   1.696   4.851   2.755  1.4218  1.4667 -1.3780
  895THF    H1111633   1.596   4.848   2.623  0.1787 -1.1730 -1.7775
  895THF    H1211634   1.772   4.826   2.510  2.7692 -0.2696  0.2128
  895THF    H1311635   1.862   4.713   2.615  0.6118 -0.0529 -1.0360
  896THF     O111636   2.792   4.794   4.657 -1.1604  1.0582  0.2981
  896THF     C211637   2.774   4.740   4.785  0.3737  0.3748  0.6962
  896THF     C311638   2.885   4.897   4.656  0.2440  0.3278  0.1603
  896THF     H411639   2.830   4.648   4.805  0.1314  0.2524  0.8146
  896THF     H511640   2.670   4.709   4.800  0.3910 -0.5837 -0.9741
  896THF     H611641   2.961   4.873   4.581 -0.9632 -1.9574 -0.4274
  896THF     H711642   2.833   4.986   4.620 -2.1050 -0.3160  1.7645
  896THF     C811643   2.938   4.902   4.801 -0.1727 -0.0361 -0.1741
  896THF     C911644   2.825   4.845   4.884 -0.1531 -0.5642 -0.2294
  896THF    H1011645   2.962   5.000   4.841 -0.5286 -0.1727  0.3854
  896THF    H1111646   3.026   4.839   4.817 -1.5791 -2.4570 -1.4402
  896THF    H1211647   2.857   4.796   4.975  0.4244 -0.9851 -0.6526
  896THF    H1311648   2.750   4.918   4.914 -1.8191 -1.7264 -1.4461
  897THF     O111649   1.490   5.418   1.629 -0.4125 -0.2026 -0.1996
  897THF     C211650   1.480   5.302   1.546  0.1578  0.2122  0.1164
  897THF     C311651   1.519   5.535   1.548  0.1008  0.2543  0.4011
  897THF     H411652   1.410   5.233   1.595  1.9568 -0.9631  1.1608
  897THF     H511653   1.565   5.241   1.517 -0.3918  0.1191 -1.3819
  897THF     H611654   1.444   5.614   1.557  0.4442  1.1840 -3.2299
  897THF     H711655   1.618   5.574   1.571 -0.0666  0.7097  0.3483
  897THF     C811656   1.486   5.496   1.405 -0.0333 -0.1023  0.3326
  897THF     C911657   1.405   5.364   1.427  0.2799  0.4179 -0.3278
  897THF    H1011658   1.577   5.493   1.345  0.3323  2.1980  0.6966
  897THF    H1111659   1.417   5.563   1.354 -2.0839 -1.7189  0.8628
  897THF    H1211660   1.300   5.379   1.450  0.7405  1.8736  1.0250
  897THF    H1311661   1.408   5.296   1.342  1.0889  0.4013 -0.2980
  898THF     O111662   4.502   4.800   0.967 -0.3224 -0.3692 -0.0724
  898THF     C211663   4.443   4.708   1.053  0.1526 -0.4439 -0.3153
  898THF     C311664   4.424   4.795   0.845  0.7965 -0.6765  0.1083
  898THF     H411665   4.479   4.716   1.156  1.1183 -1.7441 -0.5238
  898THF     H511666   4.472   4.607   1.022  0.1374 -1.0305  1.4824
  898THF     H611667   4.447   4.879   0.779  0.7280 -0.5397  0.2570
  898THF     H711668   4.446   4.702   0.793  0.3421  0.1781 -1.7030
  898THF     C811669   4.278   4.793   0.891  0.0735 -0.0124  0.7182
  898THF     C911670   4.299   4.734   1.032  0.5400 -0.1032  0.1540
  898THF    H1011671   4.216   4.731   0.826  1.1825  0.4045 -0.8001
  898THF    H1111672   4.225   4.887   0.902 -0.0462 -0.2790  2.9199
  898THF    H1211673   4.253   4.796   1.109 -2.6949 -0.7547 -1.0709
  898THF    H1311674   4.249   4.637   1.036  1.3498 -0.5728 -0.5710
  899THF     O111675   2.674   0.491   2.673  0.3604 -0.5388  0.5575
  899THF     C211676   2.682   0.582   2.776  0.3041 -0.2600  0.0839
  899THF     C311677   2.545   0.500   2.613 -0.0414 -0.2633 -0.0152
  899THF     H411678   2.783   0.623   2.787 -0.0586  0.7603 -0.2390
  899THF     H511679   2.646   0.541   2.870  0.6902  1.4655  1.0315
  899THF     H611680   2.548   0.448   2.517  1.3597  0.0987 -0.1916
  899THF     H711681   2.471   0.456   2.680 -0.7632  1.0868  0.1251
  899THF     C811682   2.515   0.644   2.603 -0.7856  0.0550  0.0056
  899THF     C911683   2.585   0.692   2.728 -0.8146 -0.3703 -0.1034
  899THF    H1011684   2.411   0.673   2.584 -0.7955  0.1864  0.2512
  899THF    H1111685   2.582   0.690   2.531  1.8633 -2.5238  0.6281
  899THF    H1211686   2.631   0.789   2.707 -1.3932  0.2805  1.5272
  899THF    H1311687   2.520   0.714   2.812 -0.6264  2.5716 -0.6206
  900THF     O111688   1.292   1.484   2.875 -0.0455  0.3559 -0.3348
  900THF     C211689   1.344   1.444   2.998 -0.2390 -0.4072 -1.0944
  900THF     C311690   1.375   1.478   2.765  0.4069 -0.7361  1.3470
  900THF     H411691   1.296   1.353   3.037 -2.4514 -0.0136 -2.7037
  900THF     H511692   1.338   1.516   3.080 -1.9799  0.0954 -1.6247
  900THF     H611693   1.327   1.438   2.676  0.0725 -0.9517  1.6190
  900THF     H711694   1.406   1.580   2.741  0.2358 -1.0125 -0.1533
  900THF     C811695   1.494   1.394   2.814  0.2822  0.3068 -0.0586
  900THF     C911696   1.486   1.412   2.964 -0.0275 -0.2664  0.1819
  900THF    H1011697   1.594   1.409   2.774  0.5690 -1.2846  0.0193
  900THF    H1111698   1.469   1.292   2.786 -0.7504  0.9891 -1.7630
  900THF    H1211699   1.528   1.319   3.004  0.5556 -0.8405 -1.6347
  900THF    H1311700   1.564   1.483   2.992  1.8564 -2.4849  0.8553
  901THF     O111701   3.386   4.254   3.718 -0.0434 -0.1158 -0.4136
  901THF     C211702   3.496   4.286   3.816  0.1284  0.0108  0.7757
  901THF     C311703   3.419   4.129   3.657  0.1347  0.0126  0.6291
  901THF     H411704   3.444   4.314   3.907 -1.4650 -0.8034  0.1599
  901THF     H511705   3.561   4.365   3.780  1.4422  0.2359  3.4045
  901THF     H611706   3.325   4.082   3.630  0.3495 -0.2326  0.3103
  901THF     H711707   3.478   4.131   3.565  0.3245  0.8188  0.7620
  901THF     C811708   3.489   4.051   3.767  0.1712 -0.0273  0.4382
  901THF     C911709   3.570   4.160   3.832  0.0590 -0.2411 -0.1687
  901THF    H1011710   3.534   3.957   3.734 -0.3903  0.4546 -1.8826
  901THF    H1111711   3.409   4.030   3.838 -1.1957 -0.1779 -1.0694
  901THF    H1211712   3.593   4.148   3.938 -1.0212 -0.3439  0.0684
  901THF    H1311713   3.663   4.161   3.775  0.1947  2.6895 -0.0571
  902THF     O111714   4.217   3.784   0.550  0.4140 -0.3325 -0.3606
  902THF     C211715   4.215   3.916   0.485 -0.2393 -0.5550 -0.5896
  902THF     C311716   4.237   3.686   0.451  0.0310  0.5436  0.4510
  902THF     H411717   4.319   3.940   0.464 -0.6057  2.1767  0.3997
  902THF     H511718   4.172   3.993   0.549 -0.0366 -0.8657 -0.0679
  902THF     H611719   4.343   3.682   0.426 -0.0603  1.4446 -0.1359
  902THF     H711720   4.196   3.589   0.479  0.9197 -0.7873 -2.4429
  902THF     C811721   4.154   3.736   0.337 -0.2824 -0.1740  0.3658
  902THF     C911722   4.131   3.892   0.359 -0.3567  0.0127 -0.4813
  902THF    H1011723   4.064   3.676   0.346  0.0693 -0.8713 -0.6081
  902THF    H1111724   4.200   3.704   0.243 -0.0819  1.4052 -0.1124
  902THF    H1211725   4.166   3.964   0.285  0.0683 -0.2509 -0.5356
  902THF    H1311726   4.026   3.913   0.379  0.0384 -0.4006  2.4860
  903THF     O111727   2.995   4.724   2.485 -0.1445 -0.5186 -0.1529
  903THF     C211728   2.953   4.591   2.510 -0.6755 -0.5305 -0.1779
  903THF     C311729   2.974   4.761   2.351  0.1507  0.2483  0.5751
  903THF     H411730   2.941   4.578   2.618  1.4608 -1.2264  0.0393
  903THF     H511731   3.034   4.523   2.485  0.5429  0.7867  0.0109
  903THF     H611732   2.962   4.868   2.336  0.4667  0.5252  2.1376
  903THF     H711733   3.061   4.728   2.293 -0.4738 -0.6051  0.1017
  903THF     C811734   2.854   4.685   2.301 -0.2980  0.3867  0.2332
  903THF     C911735   2.835   4.574   2.417 -0.2894  0.3136 -0.2402
  903THF    H1011736   2.880   4.641   2.204 -4.4922  0.1179 -0.9392
  903THF    H1111737   2.763   4.744   2.298 -0.1074  0.6815  0.1273
  903THF    H1211738   2.740   4.583   2.469  0.5375 -0.8364  1.5413
  903THF    H1311739   2.831   4.476   2.368  0.2735 -0.6320  1.5049
  904THF     O111740   4.728   2.359   0.989  0.4375  1.1094  0.4468
  904THF     C211741   4.735   2.385   0.852 -0.1179 -0.5496 -0.8143
  904THF     C311742   4.594   2.369   1.034 -0.0396  0.3528 -0.3899
  904THF     H411743   4.823   2.350   0.798  0.0397 -1.9153  0.2860
  904THF     H511744   4.729   2.494   0.847  1.2413 -0.4578 -0.7262
  904THF     H611745   4.581   2.304   1.121 -3.6468  1.4414  0.0521
  904THF     H711746   4.578   2.472   1.065  1.4408  0.7664 -0.9648
  904THF     C811747   4.514   2.322   0.908 -0.2226  0.1043 -0.1349
  904THF     C911748   4.615   2.317   0.796  0.5837 -0.2891 -0.5627
  904THF    H1011749   4.431   2.387   0.882  0.8816  0.7652 -2.2942
  904THF    H1111750   4.467   2.224   0.918 -0.0810  0.0123 -0.3460
  904THF    H1211751   4.641   2.214   0.776  0.9958 -1.1264  3.4085
  904THF    H1311752   4.564   2.357   0.708 -2.9960 -0.4249  1.2276
  905THF     O111753   3.898   3.588   4.422  0.3800 -1.4415  0.5268
  905THF     C211754   3.787   3.587   4.504  0.1271 -0.6163  0.0177
  905THF     C311755   3.991   3.683   4.472 -0.1870 -0.9539 -0.3685
  905THF     H411756   3.731   3.496   4.483 -1.1355 -0.2053  1.3981
  905THF     H511757   3.723   3.673   4.486  2.0803  0.9194  0.0707
  905THF     H611758   4.088   3.642   4.445  0.2073  0.3002 -0.9089
  905THF     H711759   3.985   3.781   4.425 -4.1512 -0.7664  0.1587
  905THF     C811760   3.970   3.690   4.626  0.1975 -0.2192  0.3999
  905THF     C911761   3.849   3.601   4.639 -0.1980  0.3459 -0.0013
  905THF    H1011762   3.945   3.794   4.649 -1.3051  0.2938 -3.0605
  905THF    H1111763   4.055   3.642   4.673  0.2461 -0.3025  0.2253
  905THF    H1211764   3.859   3.499   4.675  1.2769  0.3850 -0.2152
  905THF    H1311765   3.782   3.650   4.710  2.2243  0.8880  2.0673
  906THF     O111766   3.971   4.047   0.909 -0.5357 -0.0212  0.2654
  906THF     C211767   4.028   4.012   0.782  0.5722 -0.9758  0.2188
  906THF     C311768   3.918   3.937   0.980 -0.0670  0.9628  0.2962
  906THF     H411769   4.132   3.980   0.782  0.9088 -0.0344 -1.5487
  906THF     H511770   4.024   4.093   0.709  0.7734 -2.7597 -1.8932
  906THF     H611771   3.988   3.884   1.044  0.7471  0.8799 -0.6216
  906THF     H711772   3.833   3.959   1.044 -0.5019  0.1654 -0.0019
  906THF     C811773   3.860   3.849   0.868 -0.0576 -0.3214 -0.5813
  906THF     C911774   3.955   3.876   0.749  0.4634 -0.5223  0.0106
  906THF    H1011775   3.756   3.877   0.854 -0.5056 -2.0925 -1.0448
  906THF    H1111776   3.853   3.744   0.896 -0.3794  0.1245  1.1271
  906THF    H1211777   4.029   3.797   0.744  0.8633 -0.1518  0.0399
  906THF    H1311778   3.914   3.872   0.648  3.0348  0.9456 -1.1915
  907THF     O111779   0.043   5.129   3.777 -0.1873  0.9929  0.0618
  907THF     C211780   0.080   5.096   3.909 -0.1912  0.4806 -0.1076
  907THF     C311781   0.161   5.107   3.696  0.0162  0.1381 -0.4533
  907THF     H411782   0.099   4.992   3.938 -2.2828  0.1135  0.1094
  907THF     H511783   0.013   5.138   3.983  1.6053  0.0327  1.8675
  907THF     H611784   0.165   4.999   3.685  1.4407  0.0130  0.9507
  907THF     H711785   0.155   5.153   3.597  1.0428 -1.3668 -1.2485
  907THF     C811786   0.272   5.168   3.779  0.5644  0.2335 -0.8844
  907THF     C911787   0.214   5.175   3.919 -0.0322 -0.5388 -0.1424
  907THF    H1011788   0.298   5.271   3.753 -0.6250  0.1947 -2.3864
  907THF    H1111789   0.357   5.100   3.771  0.0467 -0.2900 -2.0933
  907THF    H1211790   0.287   5.143   3.994 -0.3053  1.0438  0.8335
  907THF    H1311791   0.186   5.279   3.935  0.4505 -0.7304  2.3666
  908THF     O111792   1.067   0.206   3.592 -0.0497  0.0329  0.6678
  908THF     C211793   0.924   0.179   3.613  0.1840 -0.2559  0.3763
  908THF     C311794   1.080   0.283   3.470  0.2031 -0.0901  0.1654
  908THF     H411795   0.882   0.244   3.689 -2.2163  0.9005 -1.8194
  908THF     H511796   0.904   0.075   3.640 -0.7981 -0.4184 -0.8713
  908THF     H611797   1.155   0.361   3.454 -0.8297  0.3348 -3.4256
  908THF     H711798   1.109   0.215   3.390 -0.2838 -0.2362  0.1110
  908THF     C811799   0.943   0.348   3.442  0.3597  1.0193  0.0834
  908THF     C911800   0.854   0.233   3.487  0.1211 -0.1874 -0.0621
  908THF    H1011801   0.913   0.368   3.339  1.8457  0.6749 -0.4436
  908THF    H1111802   0.929   0.437   3.502  0.8897  1.2002 -0.0546
  908THF    H1211803   0.755   0.276   3.505  0.7794  1.2117  0.4236
  908THF    H1311804   0.846   0.148   3.420  1.6358  0.3047 -0.8965
  909THF     O111805   2.883   5.135   4.183 -0.4896 -0.5084 -0.0778
  909THF     C211806   2.936   5.116   4.311  0.1583  0.5740  0.1469
  909THF     C311807   2.988   5.144   4.101  0.0853  0.1975  0.9274
  909THF     H411808   2.862   5.071   4.377  0.4142  2.3610  1.7235
  909THF     H511809   2.967   5.213   4.349  0.1081 -0.4167  2.9255
  909THF     H611810   2.955   5.131   3.998  2.2759 -1.9360  0.3929
  909THF     H711811   3.027   5.245   4.101  0.9219 -0.1163  1.1872
  909THF     C811812   3.094   5.038   4.142  0.2075  0.3634  0.2999
  909THF     C911813   3.056   5.019   4.285  0.6761  0.0257  0.5780
  909THF    H1011814   3.194   5.080   4.131  0.7420 -1.3732 -2.4748
  909THF    H1111815   3.094   4.950   4.078  1.0494 -0.1223  0.9434
  909THF    H1211816   3.022   4.916   4.300  1.1505  0.1066  2.3333
  909THF    H1311817   3.137   5.041   4.354 -0.6697 -1.2109  2.6424
  910THF     O111818   4.984   5.419   3.554  0.1536 -0.5975 -0.0154
  910THF     C211819   5.038   5.475   3.444 -0.1530  0.0510  0.1996
  910THF     C311820   4.862   5.490   3.572 -0.0909  0.3407 -0.5045
  910THF     H411821   5.068   5.391   3.382 -1.8007 -0.0414 -0.4977
  910THF     H511822   5.136   5.512   3.474 -1.2745  1.8375  1.8935
  910THF     H611823   4.788   5.420   3.610 -0.3273  1.3314  0.9299
  910THF     H711824   4.893   5.553   3.655  2.2294 -0.6022 -0.5737
  910THF     C811825   4.822   5.558   3.442  0.1515 -0.1145  0.0762
  910THF     C911826   4.948   5.584   3.372 -1.3638 -0.1521 -0.1611
  910THF    H1011827   4.767   5.651   3.459  1.0131  0.6157 -1.0122
  910THF    H1111828   4.754   5.490   3.391  0.5044 -0.8936  0.6344
  910THF    H1211829   4.938   5.573   3.264  1.0224 -0.4635 -0.4039
  910THF    H1311830   4.972   5.688   3.391 -1.3401 -0.3306  0.8404
  911THF     O111831   4.627   1.892   5.264 -0.1763  0.3017 -0.0053
  911THF     C211832   4.753   1.848   5.308 -0.3562 -0.3630 -0.2485
  911THF     C311833   4.644   1.984   5.155  0.0419  0.0021  0.1602
  911THF     H411834   4.738   1.744   5.337 -0.9657 -0.0680  0.5302
  911THF     H511835   4.772   1.917   5.389 -1.6208 -1.0160  0.6504
  911THF     H611836   4.562   1.983   5.083  0.4685 -1.1433 -0.3189
  911THF     H711837   4.633   2.082   5.203 -0.0982  0.6366 -1.1291
  911THF     C811838   4.790   1.987   5.113 -0.0239  0.7817  0.1017
  911THF     C911839   4.847   1.871   5.192  0.1968  0.1682 -0.0163
  911THF    H1011840   4.837   2.083   5.137  0.9601  0.7510 -1.5749
  911THF    H1111841   4.805   1.978   5.006 -0.3225 -0.7362  0.1660
  911THF    H1211842   4.851   1.788   5.121  1.2933  0.5721 -0.4433
  911THF    H1311843   4.950   1.895   5.220  0.7488 -1.3815 -0.5905
  912THF     O111844   3.116   2.197   2.740 -0.1600 -0.0345  0.4231
  912THF     C211845   3.087   2.311   2.666  0.1549  0.2808 -0.0423
  912THF     C311846   3.157   2.244   2.867  0.4426 -0.7153 -0.4034
  912THF     H411847   2.989   2.352   2.690 -0.3517 -0.7246 -0.3706
  912THF     H511848   3.073   2.294   2.560  1.0903 -1.5643  0.0977
  912THF     H611849   3.062   2.259   2.918  1.3457  1.6753  0.7646
  912THF     H711850   3.212   2.168   2.922 -0.4887  0.0833  1.7705
  912THF     C811851   3.242   2.373   2.853  0.7478 -0.0857 -0.1865
  912THF     C911852   3.204   2.408   2.706  0.2674 -0.6674 -0.0591
  912THF    H1011853   3.349   2.368   2.869  0.9988  2.1246 -0.9138
  912THF    H1111854   3.202   2.451   2.918  0.1516 -0.3907 -0.1770
  912THF    H1211855   3.172   2.510   2.686  0.1834 -0.7386 -0.2926
  912THF    H1311856   3.281   2.378   2.635  0.3562 -0.5247 -0.0241
  913THF     O111857   0.757   2.036   3.631  0.1994  0.2217 -0.4643
  913THF     C211858   0.740   1.956   3.526 -0.1955 -0.9115  0.2659
  913THF     C311859   0.888   2.084   3.649  0.2268  0.4037 -0.3077
  913THF     H411860   0.742   2.006   3.429 -0.0400 -2.7154 -0.7072
  913THF     H511861   0.655   1.889   3.516  0.6038 -2.2245  1.7941
  913THF     H611862   0.897   2.170   3.583 -1.2634  2.1113  1.5781
  913THF     H711863   0.920   2.115   3.749 -1.8537  1.1186  0.1824
  913THF     C811864   0.970   1.968   3.589  0.7380  0.6152  0.0231
  913THF     C911865   0.865   1.865   3.537 -0.9343 -0.0706  0.4418
  913THF    H1011866   1.035   1.914   3.658  0.6988  1.5850  0.8312
  913THF    H1111867   1.030   2.000   3.503  0.7612 -0.6542 -0.4643
  913THF    H1211868   0.897   1.803   3.453  1.3947 -0.9648  1.9026
  913THF    H1311869   0.849   1.794   3.618  1.6137 -0.0570  1.0214
  914THF     O111870   0.902   5.385   3.100  0.3237  0.1855 -0.1943
  914THF     C211871   0.983   5.491   3.151  0.3168  0.0750  0.2938
  914THF     C311872   0.933   5.262   3.168  0.4663 -0.1962  0.9752
  914THF     H411873   0.931   5.585   3.167 -1.6381 -0.7788 -0.7247
  914THF     H511874   1.064   5.504   3.078 -1.9497  2.1010 -2.0840
  914THF     H611875   0.840   5.234   3.218 -0.2102 -1.7472 -1.0202
  914THF     H711876   0.963   5.187   3.094  0.4544  0.2021  0.5586
  914THF     C811877   1.053   5.290   3.251 -0.7092  0.3962  1.2567
  914THF     C911878   1.038   5.437   3.282 -0.5144  0.0522 -0.6626
  914THF    H1011879   1.140   5.266   3.189 -0.3897  1.3489  1.3184
  914THF    H1111880   1.066   5.222   3.335 -2.7525 -0.5714  0.8616
  914THF    H1211881   0.963   5.446   3.361  2.0884  0.3258  1.9134
  914THF    H1311882   1.128   5.486   3.318 -0.6187 -0.1950 -0.0540
  915THF     O111883   0.908   2.779   0.734 -0.7352 -0.1683  0.3453
  915THF     C211884   0.817   2.786   0.847 -0.3498 -0.4329  0.0434
  915THF     C311885   0.921   2.644   0.681  0.6774 -0.0426  0.0332
  915THF     H411886   0.737   2.852   0.811 -0.5174 -0.2853  0.6747
  915THF     H511887   0.873   2.830   0.929  2.1025  1.0330 -2.2729
  915THF     H611888   0.933   2.624   0.575 -0.5048 -1.0500  0.0731
  915THF     H711889   1.004   2.587   0.722  2.3427  0.4095 -2.4805
  915THF     C811890   0.799   2.573   0.729 -0.0578  0.3731 -1.0840
  915THF     C911891   0.769   2.641   0.868 -0.1724 -0.0451 -0.3012
  915THF    H1011892   0.812   2.467   0.749 -0.6944  0.6019  0.7857
  915THF    H1111893   0.716   2.586   0.659 -0.5815  0.8377 -0.3957
  915THF    H1211894   0.668   2.628   0.905  0.1002 -0.2271  0.4145
  915THF    H1311895   0.839   2.599   0.942  1.2385  1.1217 -0.9273
  916THF     O111896   1.162   4.442   2.752 -0.2632 -0.2814  0.0057
  916THF     C211897   1.170   4.554   2.660  0.6739  0.1649  0.3195
  916THF     C311898   1.156   4.318   2.685  0.5159  0.5717 -0.3164
  916THF     H411899   1.274   4.587   2.667  1.6358 -2.2081 -1.3957
  916THF     H511900   1.116   4.644   2.691 -0.3853  0.4739 -2.1763
  916THF     H611901   1.221   4.242   2.729  2.4529  2.4129  0.1647
  916THF     H711902   1.054   4.288   2.711  0.1969  3.0134  1.5335
  916THF     C811903   1.179   4.357   2.536 -0.0842  0.0968 -0.2252
  916THF     C911904   1.127   4.504   2.524 -0.1074 -0.0431  0.0574
  916THF    H1011905   1.121   4.289   2.474 -3.6004 -0.3809  3.2233
  916THF    H1111906   1.286   4.351   2.513 -0.2883 -1.6307 -0.8417
  916THF    H1211907   1.155   4.563   2.437 -1.1557  0.0243 -0.2527
  916THF    H1311908   1.018   4.501   2.518 -0.1383 -1.8230  0.8404
  917THF     O111909   2.926   3.920   2.049 -1.1116 -0.0216 -0.3593
  917THF     C211910   3.031   3.821   2.029  0.2945 -0.1956 -0.3374
  917THF     C311911   2.848   3.872   2.157  0.0362  0.1738  0.4420
  917THF     H411912   3.105   3.855   1.956  0.0606 -1.1956 -1.0607
  917THF     H511913   2.986   3.730   1.990  0.1438 -1.3684  2.3648
  917THF     H611914   2.786   3.954   2.193 -0.5812  0.9081 -2.1160
  917THF     H711915   2.777   3.796   2.124  0.6522 -0.9744  1.6613
  917THF     C811916   2.956   3.817   2.252 -0.0369 -0.5713  0.2740
  917THF     C911917   3.087   3.809   2.171  0.3520  0.3979 -0.1184
  917THF    H1011918   2.931   3.723   2.299 -1.7760 -0.1520  0.2581
  917THF    H1111919   2.964   3.892   2.330 -1.8600 -1.1876  1.1011
  917THF    H1211920   3.153   3.892   2.196 -0.5785  1.4818 -1.1503
  917THF    H1311921   3.149   3.723   2.195 -0.5949 -0.0087  1.0135
  918THF     O111922   2.617   5.382   0.790 -0.1094 -0.0792 -0.0680
  918THF     C211923   2.625   5.342   0.659 -0.6416  0.2215 -0.0910
  918THF     C311924   2.716   5.313   0.864 -0.8958 -0.2030 -0.2416
  918THF     H411925   2.582   5.409   0.584  2.3622  1.1754 -1.1254
  918THF     H511926   2.588   5.240   0.650 -2.4609  0.6485  1.7534
  918THF     H611927   2.716   5.353   0.965 -2.2515  0.0973 -0.3403
  918THF     H711928   2.695   5.206   0.866  1.3628 -0.7073 -0.2109
  918THF     C811929   2.833   5.338   0.776 -0.0789  0.2434 -0.6050
  918THF     C911930   2.777   5.340   0.635  0.9207 -0.2422 -0.0857
  918THF    H1011931   2.910   5.260   0.782 -0.0208  0.0312 -3.0431
  918THF    H1111932   2.882   5.431   0.803  2.5674 -0.5053 -2.3760
  918THF    H1211933   2.808   5.430   0.582 -0.5690  0.1445 -0.3384
  918THF    H1311934   2.818   5.262   0.571  2.0460  1.1207 -1.0810
  919THF     O111935   0.072   1.111   4.354  0.1226  0.7456  0.1934
  919THF     C211936   0.170   1.019   4.396  0.5219 -0.0443 -0.3662
  919THF     C311937  -0.048   1.048   4.384 -0.6548  0.2348 -0.0969
  919THF     H411938   0.189   1.024   4.503 -0.9348 -0.8514 -0.0376
  919THF     H511939   0.263   1.037   4.341  0.4816  2.1973  0.1883
  919THF     H611940  -0.066   1.045   4.491 -0.5458  0.7658 -0.0618
  919THF     H711941  -0.127   1.096   4.326  0.4817  0.6595 -1.3606
  919THF     C811942  -0.033   0.910   4.331  0.0943 -0.1154  0.3741
  919THF     C911943   0.116   0.878   4.352  0.2901 -0.3590  0.4116
  919THF    H1011944  -0.055   0.911   4.224  2.5508  1.4962 -0.2069
  919THF    H1111945  -0.103   0.842   4.380  0.3677 -2.2411 -1.9641
  919THF    H1211946   0.115   0.801   4.429  3.2450  0.0712  1.0293
  919THF    H1311947   0.188   0.846   4.277  0.9451  0.4244  0.6947
  920THF     O111948   4.053   4.638   2.228 -0.1727 -0.0587  0.0590
  920THF     C211949   4.155   4.698   2.309 -0.0551  0.0999  0.4813
  920THF     C311950   4.079   4.667   2.092 -0.8598  0.2031  0.0766
  920THF     H411951   4.248   4.641   2.301 -0.0359  0.1445  0.3962
  920THF     H511952   4.123   4.697   2.413  0.0879  1.2402  0.5469
  920THF     H611953   4.134   4.590   2.038  0.7134  1.6888 -0.5091
  920THF     H711954   3.980   4.682   2.049 -1.9904  1.6724  2.9087
  920THF     C811955   4.156   4.800   2.087 -0.1376 -0.8724  0.0426
  920THF     C911956   4.181   4.837   2.239 -0.7811  0.1992  0.3944
  920THF    H1011957   4.087   4.875   2.050  0.2366 -0.6234 -0.1457
  920THF    H1111958   4.246   4.795   2.026 -0.4473 -1.4677 -0.3826
  920THF    H1211959   4.279   4.877   2.264  0.1651 -2.3352  1.1032
  920THF    H1311960   4.116   4.921   2.260 -2.9277 -1.7780  2.3055
  921THF     O111961   2.425   3.120   3.022  0.2766 -0.1331  0.4253
  921THF     C211962   2.435   2.982   3.034 -0.0115  0.2698 -0.5138
  921THF     C311963   2.440   3.181   3.151  0.6248  0.4266 -0.3270
  921THF     H411964   2.476   2.938   2.943 -3.4880 -1.5481 -1.3932
  921THF     H511965   2.336   2.939   3.054  0.6712 -0.9052  0.4921
  921THF     H611966   2.519   3.255   3.138  1.4988 -0.3662  0.3169
  921THF     H711967   2.358   3.236   3.197  1.2042 -1.2780  3.0663
  921THF     C811968   2.491   3.075   3.249  0.1259  0.3103 -0.7643
  921THF     C911969   2.528   2.958   3.152 -0.0674 -0.6987  0.4437
  921THF    H1011970   2.426   3.046   3.331 -2.2349  0.1782 -2.5673
  921THF    H1111971   2.579   3.111   3.302  0.7398 -0.0304 -1.5234
  921THF    H1211972   2.630   2.953   3.115 -0.8499 -1.4576 -1.7587
  921THF    H1311973   2.504   2.857   3.186  2.3943 -1.8407 -0.9548
  922THF     O111974   4.861   3.557   3.925  0.2531  0.8791  0.9968
  922THF     C211975   4.797   3.644   4.017 -0.1103  0.2609  0.1447
  922THF     C311976   4.762   3.460   3.877  0.1039 -0.0662  0.5220
  922THF     H411977   4.808   3.748   3.988  0.3316  0.5204  1.2118
  922THF     H511978   4.847   3.637   4.114 -3.1907 -0.2359  1.7958
  922THF     H611979   4.779   3.426   3.775  0.6550 -0.1176  0.6286
  922THF     H711980   4.772   3.371   3.940 -0.3376 -2.1525 -2.1654
  922THF     C811981   4.628   3.528   3.894 -0.3461  0.0873 -0.6811
  922THF     C911982   4.647   3.598   4.028 -0.4421 -0.3418 -0.1354
  922THF    H1011983   4.552   3.450   3.900  0.7200 -0.9332 -0.2276
  922THF    H1111984   4.601   3.593   3.810 -0.1566  1.2366  0.1158
  922THF    H1211985   4.577   3.682   4.032 -1.2675 -1.0294  0.1749
  922THF    H1311986   4.633   3.534   4.115 -1.7343 -2.2283 -1.6483
  923THF     O111987   1.073   2.640   2.110 -0.6191 -0.6096 -0.4396
  923THF     C211988   1.015   2.768   2.130 -1.0166  0.7654  0.2905
  923THF     C311989   1.024   2.580   1.987 -0.0349 -1.0113  0.3315
  923THF     H411990   1.094   2.823   2.181  1.3375 -2.7466  0.7895
  923THF     H511991   0.939   2.750   2.206 -1.8227  3.1611  0.1418
  923THF     H611992   1.097   2.514   1.939 -1.5208 -0.5723 -2.7952
  923THF     H711993   0.932   2.532   2.019 -0.3160 -0.9928 -0.4279
  923THF     C811994   1.003   2.693   1.897 -0.4387 -0.0996  0.4248
  923THF     C911995   0.951   2.797   1.994 -0.1174  0.2270 -0.4224
  923THF    H1011996   0.936   2.668   1.815 -0.2465 -1.7470  0.7334
  923THF    H1111997   1.102   2.718   1.858  0.7172 -0.6387  2.8550
  923THF    H1211998   0.969   2.895   1.951 -2.8917  0.8715 -0.3326
  923THF    H1311999   0.845   2.784   2.016  0.4730 -1.6805  1.6669
  924THF     O112000   0.869   4.704   4.098 -0.5360 -0.4148 -0.6043
  924THF     C212001   0.759   4.643   4.037  1.0505  0.2175 -0.6039
  924THF     C312002   0.874   4.686   4.240 -0.4829 -0.0334  0.3643
  924THF     H412003   0.785   4.544   4.000 -0.4329 -1.1153  1.7197
  924THF     H512004   0.726   4.702   3.952  3.4706 -1.0940 -2.6103
  924THF     H612005   0.967   4.642   4.277  1.5509  2.8513 -0.9396
  924THF     H712006   0.865   4.778   4.298  0.6536 -0.6216  1.5560
  924THF     C812007   0.743   4.607   4.272 -0.2294  0.0832 -0.3586
  924THF     C912008   0.656   4.646   4.153 -0.3499 -0.2632  0.3360
  924THF    H1012009   0.703   4.635   4.369  0.7352 -1.4778  0.5290
  924THF    H1112010   0.755   4.499   4.284 -0.1896  0.1128 -0.1365
  924THF    H1212011   0.576   4.574   4.136 -1.7413  0.8328  1.9125
  924THF    H1312012   0.617   4.748   4.159  0.4568  0.0956 -0.3214
  925THF     O112013   3.864   0.168   2.679  0.1634 -0.1916  0.1528
  925THF     C212014   3.867   0.301   2.714  0.1256  0.1166 -0.1258
  925THF     C312015   3.982   0.109   2.729  0.0127 -0.2436 -0.3752
  925THF     H412016   3.851   0.321   2.820  0.7651  0.7379 -0.1458
  925THF     H512017   3.799   0.365   2.658 -0.3583  0.8569  1.2610
  925THF     H612018   3.978   0.072   2.832 -0.3672 -1.3236 -0.7552
  925THF     H712019   4.008   0.021   2.670  0.0586  0.2722 -1.1285
  925THF     C812020   4.087   0.223   2.718 -0.3905  0.2391  0.4950
  925THF     C912021   4.003   0.341   2.664 -0.3033 -0.3711 -0.8817
  925THF    H1012022   4.157   0.194   2.640 -1.4168 -0.5682 -0.1671
  925THF    H1112023   4.133   0.261   2.809 -3.8614 -1.0313  2.9990
  925THF    H1212024   4.044   0.431   2.709 -1.5658  0.2770 -0.9677
  925THF    H1312025   4.003   0.363   2.557  1.3388 -1.0543 -1.0560
  926THF     O112026   2.284   5.194   5.467  0.1425 -0.6133  0.1899
  926THF     C212027   2.383   5.181   5.567  0.2270  0.3471 -0.1146
  926THF     C312028   2.241   5.332   5.478  0.4950  0.6864 -0.2462
  926THF     H412029   2.473   5.233   5.536 -1.5192  1.5424 -3.6429
  926THF     H512030   2.411   5.076   5.574 -0.8962  0.0732  0.6474
  926THF     H612031   2.309   5.400   5.427 -0.3086  1.7735  0.0823
  926THF     H712032   2.141   5.354   5.438 -0.6408 -1.4538  1.2166
  926THF     C812033   2.247   5.357   5.629  0.2896  0.2044  0.0045
  926THF     C912034   2.322   5.243   5.694 -0.0155  0.2710  0.2399
  926THF    H1012035   2.149   5.379   5.670 -0.2505 -0.5034 -0.8786
  926THF    H1112036   2.296   5.452   5.650 -0.5647  0.5674  0.4100
  926THF    H1212037   2.390   5.273   5.773 -1.3422 -0.8030  1.8635
  926THF    H1312038   2.255   5.179   5.752  1.2197 -1.3625 -0.0429
  927THF     O112039   2.174   3.613   2.197  0.3072  0.1300  0.4107
  927THF     C212040   2.308   3.592   2.158  0.6490  0.0868 -0.1650
  927THF     C312041   2.172   3.601   2.339  0.7584  0.4426  0.0234
  927THF     H412042   2.377   3.674   2.179  0.2869 -0.0835  1.9046
  927THF     H512043   2.310   3.575   2.050  2.9855  0.9524 -0.3228
  927THF     H612044   2.214   3.697   2.368 -0.4294  1.3334 -1.0531
  927THF     H712045   2.070   3.604   2.378  0.5991 -0.0365 -0.3383
  927THF     C812046   2.257   3.471   2.361  0.3176 -0.3343 -0.7588
  927THF     C912047   2.343   3.464   2.240  0.1297  0.1406  0.5882
  927THF    H1012048   2.190   3.385   2.355 -1.0739  0.7865 -2.2547
  927THF    H1112049   2.308   3.461   2.457  2.0230 -0.0521 -1.6000
  927THF    H1212050   2.450   3.467   2.262  0.4312 -1.3646 -0.5291
  927THF    H1312051   2.317   3.377   2.181 -0.1211 -0.3951  1.4834
  928THF     O112052   4.822   5.139   4.991 -0.3077  0.3531 -0.0951
  928THF     C212053   4.779   5.265   5.048 -0.0677 -0.2343 -0.1335
  928THF     C312054   4.713   5.088   4.920 -0.3285  0.0562  0.2167
  928THF     H412055   4.794   5.342   4.972 -1.2531  2.3230  2.0609
  928THF     H512056   4.841   5.307   5.128 -0.4601 -0.5100  0.3209
  928THF     H612057   4.706   5.131   4.820  2.1659  0.6745  0.2574
  928THF     H712058   4.719   4.982   4.897 -1.8677 -0.1113  0.4408
  928THF     C812059   4.592   5.130   4.997 -0.5786 -0.1734  0.1170
  928THF     C912060   4.633   5.252   5.079 -0.4245 -0.4328  0.2775
  928THF    H1012061   4.541   5.049   5.049  0.2572 -0.1202  1.0624
  928THF    H1112062   4.515   5.149   4.924 -0.4530 -1.7163 -0.4591
  928THF    H1212063   4.568   5.332   5.045  1.4853  0.9405 -0.3160
  928THF    H1312064   4.623   5.232   5.186  1.4208 -1.6997  0.2622
  929THF     O112065   1.040   0.368   4.764 -0.0804 -0.2396  0.5274
  929THF     C212066   1.120   0.355   4.651 -0.1683 -0.1174 -0.8352
  929THF     C312067   1.107   0.454   4.858  0.1866  0.3201  0.5164
  929THF     H412068   1.103   0.445   4.593 -1.2683  2.8925  3.5979
  929THF     H512069   1.096   0.267   4.590 -0.5528 -0.8955  0.3903
  929THF     H612070   1.107   0.561   4.834 -0.3320 -0.0765 -1.4410
  929THF     H712071   1.073   0.458   4.961  0.1747  3.7389  0.5127
  929THF     C812072   1.249   0.393   4.849 -0.3104  0.4612  0.3942
  929THF     C912073   1.271   0.351   4.706 -0.1147 -0.3055 -1.1841
  929THF    H1012074   1.263   0.306   4.913 -1.5841 -0.3998 -0.4560
  929THF    H1112075   1.322   0.460   4.895  0.7100 -0.2444 -0.1753
  929THF    H1212076   1.345   0.409   4.650  2.3036 -0.0475  1.9998
  929THF    H1312077   1.317   0.253   4.702 -0.0901 -0.2747 -1.7799
  930THF     O112078   2.090   0.410   2.294  0.1581 -0.3148  0.1606
  930THF     C212079   2.104   0.399   2.440 -0.3613  0.6761  0.1469
  930THF     C312080   1.963   0.466   2.259 -0.6970 -0.1307  0.6261
  930THF     H412081   2.178   0.465   2.486 -0.3919  0.5737  0.3422
  930THF     H512082   2.132   0.297   2.465  0.0230  0.2147 -1.9564
  930THF     H612083   1.979   0.573   2.269 -2.9169  0.2461  0.5686
  930THF     H712084   1.934   0.431   2.160  0.9409 -0.1265  0.1053
  930THF     C812085   1.872   0.416   2.368 -0.1283  0.7665 -0.3987
  930THF     C912086   1.963   0.430   2.488 -0.3405  0.3579 -0.2259
  930THF    H1012087   1.843   0.312   2.353 -1.0950  0.8160  0.9903
  930THF    H1112088   1.785   0.481   2.379  0.1231  1.0786 -0.2439
  930THF    H1212089   1.964   0.531   2.530 -0.5448  0.8489 -1.3772
  930THF    H1312090   1.933   0.363   2.569  0.8314 -0.4934 -0.4700
  931THF     O112091   3.077   4.934   2.770  0.6463 -0.5707  0.0624
  931THF     C212092   3.096   5.061   2.702 -0.0001  0.4353  0.2832
  931THF     C312093   2.965   4.940   2.859 -0.1612  0.1015  0.1863
  931THF     H412094   3.142   5.059   2.603 -0.3316 -1.3738  0.1320
  931THF     H512095   3.167   5.111   2.766 -0.0660  1.6103 -0.5199
  931THF     H612096   2.898   4.855   2.854 -2.2056  1.6971 -1.2143
  931THF     H712097   2.998   4.952   2.962 -0.5824  1.8420  0.1475
  931THF     C812098   2.884   5.061   2.807  0.3314 -0.0455 -0.5509
  931THF     C912099   2.964   5.134   2.703  0.2919 -0.6690 -0.3497
  931THF    H1012100   2.860   5.126   2.891 -1.0622  0.2448 -1.1474
  931THF    H1112101   2.787   5.029   2.770 -0.0543 -0.3263  0.6415
  931THF    H1212102   2.912   5.144   2.608  0.7854  0.8545 -0.4784
  931THF    H1312103   2.987   5.231   2.746 -1.4983 -0.1606 -0.4892
  932THF     O112104   0.469   2.133   5.480  0.3888  0.5307  0.4101
  932THF     C212105   0.425   2.230   5.383 -0.0623  0.1605  0.2609
  932THF     C312106   0.587   2.079   5.419  0.2001 -0.2100 -0.0310
  932THF     H412107   0.360   2.305   5.428 -2.4537 -1.6754  0.0679
  932THF     H512108   0.368   2.180   5.304 -1.8399  2.2991  0.0648
  932THF     H612109   0.658   2.049   5.497 -0.5069 -0.2714  0.5957
  932THF     H712110   0.562   1.992   5.358 -3.7541  0.1048  0.9039
  932THF     C812111   0.654   2.183   5.325 -0.0134  0.1379 -0.2997
  932THF     C912112   0.557   2.296   5.329  0.2656 -0.6503 -0.8107
  932THF    H1012113   0.693   2.148   5.229 -0.4011  1.2245 -0.8595
  932THF    H1112114   0.745   2.224   5.369  1.3567 -1.6422 -1.3265
  932THF    H1212115   0.586   2.379   5.393  1.1279 -1.0089 -0.7232
  932THF    H1312116   0.539   2.347   5.234 -0.3522  0.4588 -0.1176
  933THF     O112117   1.457   4.137   2.290  0.2801 -0.1566  0.0347
  933THF     C212118   1.361   4.136   2.179  0.1323 -0.6539 -0.0833
  933THF     C312119   1.533   4.252   2.293  0.9469  0.0366 -0.1704
  933THF     H412120   1.262   4.101   2.206  0.0119 -1.5692 -1.6289
  933THF     H512121   1.400   4.066   2.105  1.6549  0.5265 -0.4569
  933THF     H612122   1.483   4.308   2.372 -3.0177 -1.9223 -1.0227
  933THF     H712123   1.636   4.230   2.318  1.1768 -1.2967 -2.1048
  933THF     C812124   1.518   4.312   2.152 -0.1129  0.5759 -0.3138
  933THF     C912125   1.371   4.271   2.111 -0.3989 -0.1963 -0.4115
  933THF    H1012126   1.588   4.248   2.098 -1.0536 -2.0057  1.3460
  933THF    H1112127   1.554   4.415   2.139  2.6945 -0.2756 -0.0201
  933THF    H1212128   1.301   4.332   2.168  0.3784 -1.0029  1.4718
  933THF    H1312129   1.345   4.278   2.005 -1.0026 -0.2127 -0.2704
  934THF     O112130   4.784   4.419   4.693 -0.2550  0.0221  0.0348
  934THF     C212131   4.662   4.347   4.686 -0.4109  0.0619 -0.3139
  934THF     C312132   4.836   4.444   4.564 -0.9172  0.0794  0.6360
  934THF     H412133   4.570   4.401   4.663 -0.3934 -0.3133 -1.3172
  934THF     H512134   4.642   4.284   4.772  0.7770 -1.1339 -0.8706
  934THF     H612135   4.773   4.512   4.507  0.8358  0.5378 -0.8607
  934THF     H712136   4.936   4.488   4.564 -1.6939  1.9547 -0.3336
  934THF     C812137   4.818   4.301   4.505 -0.1501 -0.2353 -0.2729
  934THF     C912138   4.683   4.255   4.556  0.1668 -0.1664  0.3023
  934THF    H1012139   4.894   4.230   4.537 -0.1604  0.0541  0.4197
  934THF    H1112140   4.827   4.297   4.396  2.9067 -2.6565 -0.0856
  934THF    H1212141   4.605   4.261   4.480 -1.0153  1.7643  1.5976
  934THF    H1312142   4.686   4.152   4.594 -1.1647 -0.1128  0.5902
  935THF     O112143   3.192   3.944   3.411  0.3685 -0.0600  0.1755
  935THF     C212144   3.109   4.058   3.375 -0.7256  0.1148 -0.3867
  935THF     C312145   3.114   3.829   3.414 -0.0259 -0.4753 -0.4228
  935THF     H412146   3.111   4.084   3.269 -1.1105 -1.3507 -0.7912
  935THF     H512147   3.150   4.142   3.430  1.6290 -2.2223  1.7069
  935THF     H612148   3.097   3.799   3.311  2.1089  0.6694 -1.1536
  935THF     H712149   3.145   3.733   3.456 -0.9372 -1.4742 -1.9507
  935THF     C812150   2.977   3.880   3.465  0.8578 -0.4288  0.2866
  935THF     C912151   2.964   4.017   3.416 -0.9342 -0.6270 -0.3793
  935THF    H1012152   2.965   3.878   3.573 -2.6588  3.1107  0.1755
  935THF    H1112153   2.904   3.808   3.428 -0.0546  1.2272 -1.3490
  935THF    H1212154   2.899   4.033   3.330  0.6731  0.0616 -1.5149
  935THF    H1312155   2.935   4.084   3.497  0.0449 -0.2958 -0.2842
  936THF     O112156   1.182   0.913   2.734 -0.3543  0.1664 -0.0791
  936THF     C212157   1.182   0.993   2.852  0.0471  0.0857 -0.4509
  936THF     C312158   1.307   0.857   2.721 -0.9874 -0.4653  0.2602
  936THF     H412159   1.123   0.965   2.940  0.7362  0.6387  0.2090
  936THF     H512160   1.128   1.075   2.805  1.0411  0.3994 -1.0751
  936THF     H612161   1.314   0.782   2.801 -0.0362 -1.2421 -0.5239
  936THF     H712162   1.339   0.811   2.627  0.3350 -2.5454  1.6291
  936THF     C812163   1.389   0.983   2.746 -0.0302  0.8533 -0.5066
  936THF     C912164   1.328   1.037   2.874  0.5536 -0.0211  0.2986
  936THF    H1012165   1.390   1.052   2.662  1.2618 -2.4645 -3.4824
  936THF    H1112166   1.494   0.959   2.765  0.1353  1.3099 -0.8340
  936THF    H1212167   1.368   0.968   2.948 -0.2302 -0.2857  0.4777
  936THF    H1312168   1.350   1.143   2.888 -3.3107  1.0708 -0.6187
  937THF     O112169   0.489   3.191   1.486  0.4123 -0.2958  0.2892
  937THF     C212170   0.566   3.154   1.597  0.1582  0.8898 -0.3414
  937THF     C312171   0.533   3.127   1.365  0.1604  0.3554 -0.3732
  937THF     H412172   0.498   3.142   1.681  0.1060  1.8995 -0.2307
  937THF     H512173   0.613   3.251   1.612 -0.4722  1.3242 -1.0973
  937THF     H612174   0.457   3.115   1.288 -0.4094  0.0705  0.2241
  937THF     H712175   0.611   3.190   1.322  1.2486 -0.7001 -0.0038
  937THF     C812176   0.604   3.002   1.412 -0.1489 -0.2479  0.2817
  937THF     C912177   0.655   3.038   1.548 -0.0306 -0.4818 -0.2897
  937THF    H1012178   0.684   2.975   1.343 -0.4170  0.6981 -0.4153
  937THF    H1112179   0.529   2.923   1.405 -0.8807  0.3705  1.0360
  937THF    H1212180   0.632   2.948   1.605  1.2457 -0.2389  0.6622
  937THF    H1312181   0.760   3.067   1.552 -0.0942 -0.3561  0.4962
  938THF     O112182   2.477   1.672   2.416 -0.5067  0.1572  0.7492
  938THF     C212183   2.452   1.673   2.554  0.1419  0.7723  0.7531
  938THF     C312184   2.600   1.745   2.400  0.7010  0.1397  1.0287
  938THF     H412185   2.499   1.586   2.600  0.0779  0.5613  0.4231
  938THF     H512186   2.346   1.671   2.582  0.6162 -1.1672  2.6963
  938THF     H612187   2.678   1.680   2.361 -1.4689 -0.5510 -2.6085
  938THF     H712188   2.577   1.820   2.324  1.0221  1.1286  1.8816
  938THF     C812189   2.650   1.795   2.536 -0.2901  0.4496  0.3887
  938THF     C912190   2.513   1.801   2.605  0.6495 -0.3137 -0.1426
  938THF    H1012191   2.704   1.890   2.536 -1.3528  1.1196 -2.0560
  938THF    H1112192   2.715   1.726   2.590 -1.8983 -0.7869  0.8036
  938THF    H1212193   2.525   1.812   2.712 -0.6222 -0.4595  0.0231
  938THF    H1312194   2.451   1.883   2.569 -0.8372 -0.5290  1.7858
  939THF     O112195   4.749   0.996   4.294  0.2407 -0.3377  0.6369
  939THF     C212196   4.850   0.971   4.384 -0.4344 -0.0769  0.1875
  939THF     C312197   4.691   0.876   4.252 -0.7630 -0.1426 -0.1670
  939THF     H412198   4.810   0.954   4.484 -0.6574 -2.5314 -0.2618
  939THF     H512199   4.930   1.045   4.391  0.7123 -1.2163 -0.5917
  939THF     H612200   4.619   0.831   4.320  1.6393 -2.3075  1.1185
  939THF     H712201   4.635   0.893   4.160  2.2185 -1.5689 -2.4168
  939THF     C812202   4.814   0.791   4.219 -0.4696 -0.0217 -0.0778
  939THF     C912203   4.912   0.839   4.328  0.3953 -0.8590 -0.8549
  939THF    H1012204   4.870   0.811   4.127 -0.1022 -1.6137 -0.2240
  939THF    H1112205   4.790   0.685   4.211 -1.3326  0.3185 -3.8371
  939THF    H1212206   4.935   0.765   4.405 -1.6101 -1.2424 -0.5768
  939THF    H1312207   5.011   0.863   4.290  1.1545  0.5534  1.7558
  940THF     O112208   2.975   2.684   1.834 -0.0918  0.0199 -0.1292
  940THF     C212209   2.955   2.823   1.860 -0.1868  0.1026  0.1639
  940THF     C312210   3.103   2.668   1.770 -0.2696  0.6171  0.4453
  940THF     H412211   2.858   2.830   1.908 -0.9830  1.7637 -1.5596
  940THF     H512212   2.948   2.889   1.773  2.0827 -0.5193 -0.5805
  940THF     H612213   3.124   2.562   1.762  1.1711  0.8331  1.0931
  940THF     H712214   3.103   2.717   1.672  0.6664  0.4843  0.3720
  940THF     C812215   3.185   2.740   1.873  0.3721  0.4171 -0.5289
  940THF     C912216   3.085   2.843   1.942 -0.7704  0.0284 -0.4169
  940THF    H1012217   3.277   2.779   1.829  1.1709 -0.0869  0.6468
  940THF    H1112218   3.215   2.672   1.952  0.8565  1.7334  0.4616
  940THF    H1212219   3.055   2.821   2.045  1.9513  0.7034  0.6356
  940THF    H1312220   3.129   2.943   1.939 -3.5482  1.3172 -1.4762
  941THF     O112221   4.764   3.521   1.125  0.5841  0.2025  0.7884
  941THF     C212222   4.711   3.451   1.243 -0.1824 -0.0016  0.8751
  941THF     C312223   4.814   3.422   1.033  0.6685  0.1897  0.2231
  941THF     H412224   4.632   3.510   1.291 -1.2805 -0.9447  0.2845
  941THF     H512225   4.798   3.429   1.305 -1.3189  1.7923  3.2792
  941THF     H612226   4.807   3.479   0.940 -0.4147  0.6152  0.5531
  941THF     H712227   4.916   3.394   1.061  1.2274  1.5988 -0.3430
  941THF     C812228   4.718   3.305   1.051  0.2662 -0.2083 -0.0798
  941THF     C912229   4.646   3.331   1.183 -0.1467 -0.0624 -0.3323
  941THF    H1012230   4.756   3.203   1.044 -0.7108 -0.5614 -0.4692
  941THF    H1112231   4.654   3.303   0.962  2.9916  0.5254 -2.2189
  941THF    H1212232   4.539   3.352   1.170  0.1680  2.5629  0.7095
  941THF    H1312233   4.647   3.246   1.252 -1.4355 -0.7803 -1.1511
  942THF     O112234   5.206   4.460   2.255 -0.4950 -0.6588  0.3517
  942THF     C212235   5.116   4.383   2.171 -0.0286  0.0330 -0.5473
  942THF     C312236   5.161   4.596   2.241  0.0178  0.2570 -0.1683
  942THF     H412237   5.113   4.275   2.187  0.2786  0.1632  0.3947
  942THF     H512238   5.141   4.411   2.069  2.1687 -0.9473 -0.3408
  942THF     H612239   5.208   4.655   2.320  1.9127  0.2902 -1.2584
  942THF     H712240   5.186   4.644   2.146 -2.3738 -0.6316 -1.3237
  942THF     C812241   5.011   4.582   2.261  0.2774  0.5732 -0.2053
  942THF     C912242   4.977   4.448   2.200  0.1554 -0.0164 -0.7153
  942THF    H1012243   4.960   4.670   2.222  1.7930  0.9626 -1.3577
  942THF    H1112244   4.985   4.587   2.367  1.1988  0.5263  0.0277
  942THF    H1212245   4.932   4.382   2.275 -0.3521  0.4057 -0.6418
  942THF    H1312246   4.924   4.465   2.106  1.0679  0.3240 -1.1758
  943THF     O112247   3.978   2.422   2.227 -0.0989  0.0118 -0.2713
  943THF     C212248   3.851   2.387   2.198  0.6946 -0.5573 -0.5209
  943THF     C312249   4.063   2.314   2.217 -0.0260  0.1121  0.2567
  943THF     H412250   3.823   2.389   2.092 -2.2091  0.5178  0.1829
  943THF     H512251   3.779   2.456   2.242  1.3081 -0.3756  0.2040
  943THF     H612252   4.075   2.283   2.113 -0.6274  0.8077 -0.0264
  943THF     H712253   4.160   2.326   2.265  0.0996  0.5435 -0.0954
  943THF     C812254   3.985   2.204   2.288 -0.5003 -0.0771 -0.3125
  943THF     C912255   3.836   2.246   2.263  0.4425 -0.2342 -0.1042
  943THF    H1012256   4.000   2.192   2.395  0.4213  2.1095 -0.1450
  943THF    H1112257   4.005   2.109   2.238  1.5389  0.6208 -0.9220
  943THF    H1212258   3.775   2.172   2.212  0.0351 -1.5889  2.1836
  943THF    H1312259   3.803   2.248   2.367 -0.3682 -0.8021 -0.3440
  944THF     O112260   5.179   1.334   0.161 -0.2142 -0.3970  0.0720
  944THF     C212261   5.250   1.239   0.086  0.7550 -0.9558 -0.7681
  944THF     C312262   5.061   1.276   0.214 -0.2620 -0.4866 -0.2953
  944THF     H412263   5.355   1.266   0.071  0.3730  0.3921 -1.1599
  944THF     H512264   5.194   1.226  -0.006 -2.3347  0.2691  0.8279
  944THF     H612265   5.035   1.313   0.313 -0.7787 -0.0889 -0.5765
  944THF     H712266   4.974   1.293   0.151  0.5010 -1.8948 -1.8111
  944THF     C812267   5.100   1.129   0.225  0.2771  0.2572  0.0699
  944THF     C912268   5.239   1.119   0.174  0.0258  0.4884 -0.1041
  944THF    H1012269   5.028   1.060   0.181 -0.5906 -0.0381  1.8610
  944THF    H1112270   5.098   1.106   0.332 -0.0989  1.4208  0.3248
  944THF    H1212271   5.314   1.135   0.252 -0.7250 -1.2581  1.0373
  944THF    H1312272   5.270   1.027   0.126  1.4664  1.6416 -1.4952
  945THF     O112273   2.675   3.065   2.491  0.2138 -0.0695 -0.6003
  945THF     C212274   2.564   3.090   2.408  0.7615 -0.4556 -0.0735
  945THF     C312275   2.643   3.129   2.615  0.8971  0.2705 -0.6031
  945THF     H412276   2.563   3.020   2.325  1.3876 -0.6183  0.0521
  945THF     H512277   2.591   3.187   2.366  0.5439 -0.8564 -1.1744
  945THF     H612278   2.708   3.101   2.698 -0.3440 -0.4193  0.1702
  945THF     H712279   2.650   3.235   2.591 -1.5380  0.4441 -0.7993
  945THF     C812280   2.495   3.082   2.628  0.7819 -0.5544  0.2432
  945THF     C912281   2.439   3.095   2.492  0.1889 -0.5360 -0.1984
  945THF    H1012282   2.447   3.134   2.711  3.1086  2.0226  0.1039
  945THF    H1112283   2.489   2.978   2.661  0.7077  0.3270  3.4049
  945THF    H1212284   2.365   3.022   2.458  0.1030 -0.5469  0.0106
  945THF    H1312285   2.398   3.195   2.481  1.4140  0.1455  1.0805
  946THF     O112286   2.561   4.372   0.995 -0.2193 -0.5994  0.0903
  946THF     C212287   2.577   4.264   1.091 -0.1954 -0.0519 -0.6104
  946THF     C312288   2.680   4.457   0.981 -0.9777 -0.4804  0.0678
  946THF     H412289   2.604   4.175   1.035  2.4098  1.9978 -2.8747
  946THF     H512290   2.484   4.249   1.146  0.1873  4.4303  1.7099
  946THF     H612291   2.734   4.398   0.908  1.2291  0.7295  0.6402
  946THF     H712292   2.669   4.557   0.940 -1.1732 -1.3743 -2.1923
  946THF     C812293   2.751   4.445   1.118 -0.0416  0.2293 -0.1017
  946THF     C912294   2.698   4.313   1.173  0.6263 -0.8273  0.2914
  946THF    H1012295   2.711   4.521   1.185 -1.7590  2.8501 -3.7772
  946THF    H1112296   2.860   4.445   1.121  0.0039  1.4325 -1.0768
  946THF    H1212297   2.778   4.239   1.171 -0.6367 -2.2504  0.5272
  946THF    H1312298   2.648   4.336   1.268 -0.3477  1.0325 -0.6184
  947THF     O112299   4.691   4.491   2.433 -0.0616 -0.5307 -0.6836
  947THF     C212300   4.696   4.450   2.571  0.5116  0.2249 -0.3306
  947THF     C312301   4.558   4.482   2.395  0.5823  0.1613  0.4267
  947THF     H412302   4.789   4.472   2.623 -0.2821  1.9088  0.4445
  947THF     H512303   4.682   4.342   2.574 -0.5365  0.3071 -1.5554
  947THF     H612304   4.536   4.546   2.310 -2.1602 -2.0212 -0.6597
  947THF     H712305   4.526   4.379   2.379  1.4930 -0.3272  1.5960
  947THF     C812306   4.480   4.541   2.513  0.0710 -0.3108 -0.3661
  947THF     C912307   4.572   4.519   2.637 -0.5243  0.0259  0.7283
  947THF    H1012308   4.377   4.504   2.522 -0.6944  1.6320 -0.6450
  947THF    H1112309   4.464   4.648   2.507  0.1327 -0.2415  0.5525
  947THF    H1212310   4.612   4.609   2.685  1.8193 -1.2640  1.3491
  947THF    H1312311   4.527   4.450   2.708  0.9282  0.1515  1.8178
  948THF     O112312   3.224   4.995   3.365  0.2379 -0.0227  0.6104
  948THF     C212313   3.197   4.859   3.338  0.3938 -0.1953 -0.3610
  948THF     C312314   3.356   5.017   3.313 -0.3460 -0.1882  0.2574
  948THF     H412315   3.092   4.835   3.352  0.3496  1.0778  2.0663
  948THF     H512316   3.248   4.791   3.406 -0.5654 -2.0017 -1.3746
  948THF     H612317   3.372   5.124   3.305  2.0524 -0.5819 -1.6140
  948THF     H712318   3.439   4.962   3.359 -0.5651 -0.3223  0.4951
  948THF     C812319   3.346   4.953   3.170  0.4360  0.3569 -0.2225
  948THF     C912320   3.250   4.835   3.193 -0.8543 -0.2380  0.5683
  948THF    H1012321   3.438   4.921   3.120 -0.4376  1.7539 -2.9475
  948THF    H1112322   3.297   5.031   3.112 -2.6951 -0.9173  0.5069
  948THF    H1212323   3.181   4.836   3.109  0.6194 -0.6278 -0.6845
  948THF    H1312324   3.319   4.752   3.177 -1.1739 -0.5123  0.5972
  949THF     O112325   2.955   0.368   3.816  0.1639 -0.0151  0.5160
  949THF     C212326   3.062   0.371   3.903 -0.1860  0.4426 -0.1564
  949THF     C312327   2.939   0.494   3.745 -0.1577  0.0532 -0.4084
  949THF     H412328   3.093   0.274   3.941 -1.3659  0.9784  2.3742
  949THF     H512329   3.025   0.410   3.998 -2.1475  0.4244 -0.8631
  949THF     H612330   2.911   0.484   3.640  0.5010  1.2028 -0.7110
  949THF     H712331   2.855   0.551   3.786 -1.0581 -0.4201 -1.5259
  949THF     C812332   3.081   0.556   3.762  0.8978  0.2794  0.5154
  949THF     C912333   3.160   0.447   3.839 -0.1427  0.0513 -0.7653
  949THF    H1012334   3.082   0.655   3.807  1.4657  0.9120 -0.8545
  949THF    H1112335   3.128   0.571   3.665 -0.2481  0.2422 -0.0524
  949THF    H1212336   3.204   0.381   3.764 -2.0708 -1.9134 -0.2735
  949THF    H1312337   3.235   0.491   3.905  0.7064 -1.8381 -0.4055
  950THF     O112338   1.038   1.433   4.741 -0.8627 -0.0172  0.5010
  950THF     C212339   0.945   1.339   4.682 -0.3403 -0.0390  0.8487
  950THF     C312340   1.102   1.508   4.641  0.3198 -0.3681  0.1433
  950THF     H412341   0.848   1.387   4.695 -0.6806 -0.3379 -0.4510
  950THF     H512342   0.953   1.244   4.736  1.0347  0.1712  1.0330
  950THF     H612343   1.049   1.592   4.596  1.3242  1.1593  1.6975
  950THF     H712344   1.195   1.551   4.680  1.3440 -1.8096 -0.5861
  950THF     C812345   1.112   1.409   4.527 -0.5353  0.9668 -0.4953
  950THF     C912346   0.990   1.316   4.533 -0.2483  0.6089 -0.1870
  950THF    H1012347   1.194   1.344   4.557 -1.7406 -0.0774  0.6770
  950THF    H1112348   1.140   1.452   4.431  0.4167 -1.3874 -1.3596
  950THF    H1212349   0.914   1.345   4.461 -1.1724 -2.0050 -0.3832
  950THF    H1312350   1.024   1.213   4.521  0.2676  0.8276 -0.6241
  951THF     O112351   3.388   0.485   0.577 -0.0362  0.1491  0.0878
  951THF     C212352   3.459   0.458   0.694 -0.0067 -0.1422 -0.5814
  951THF     C312353   3.471   0.442   0.472  0.4201  0.5094 -0.1572
  951THF     H412354   3.394   0.463   0.781  1.6260 -0.3154  0.7025
  951THF     H512355   3.543   0.524   0.717  0.2513 -1.6475  3.6131
  951THF     H612356   3.419   0.442   0.376 -2.4804  0.6808  1.3041
  951THF     H712357   3.555   0.510   0.452 -0.0333  0.3996 -2.7287
  951THF     C812358   3.520   0.305   0.520  0.9065 -0.7013  0.1544
  951THF     C912359   3.506   0.314   0.668 -0.5166 -0.5671 -0.1814
  951THF    H1012360   3.624   0.285   0.496  1.1651  1.8590 -1.2632
  951THF    H1112361   3.453   0.231   0.475 -0.2367  0.1018  0.4705
  951THF    H1212362   3.430   0.245   0.705 -0.3902 -0.8007 -0.3588
  951THF    H1312363   3.602   0.290   0.713 -0.4000 -1.1337 -0.7201
  952THF     O112364   5.294   1.147   3.557  0.0252  0.2753  0.0134
  952THF     C212365   5.384   1.258   3.559 -0.2544  1.0590  0.5597
  952THF     C312366   5.368   1.026   3.564  0.0160 -0.0474  0.3700
  952THF     H412367   5.409   1.281   3.662 -1.9965  2.0076  0.8023
  952THF     H512368   5.345   1.341   3.499 -1.4756 -0.4406 -0.8143
  952THF     H612369   5.356   0.988   3.665  2.5691  1.2719  1.2523
  952THF     H712370   5.333   0.951   3.493 -1.4485 -2.1837  3.1668
  952THF     C812371   5.519   1.053   3.546 -0.5545  0.4218  0.5319
  952THF     C912372   5.506   1.195   3.491 -0.2420 -0.5225  0.7785
  952THF    H1012373   5.556   1.012   3.452 -0.3512  3.4325 -0.7995
  952THF    H1112374   5.592   1.022   3.621  0.2454 -0.3245 -0.5222
  952THF    H1212375   5.598   1.251   3.509 -0.7105  1.1447 -1.4973
  952THF    H1312376   5.504   1.189   3.383  1.6575 -0.7188  0.7176
  953THF     O112377   0.707   0.920   4.693  0.2485 -0.2860  0.3722
  953THF     C212378   0.633   0.994   4.602  0.4815 -0.9219  0.6734
  953THF     C312379   0.714   0.999   4.809  0.3099  0.1420 -0.1434
  953THF     H412380   0.587   0.941   4.520 -0.0916  2.1790 -1.1755
  953THF     H512381   0.703   1.064   4.556 -2.2122  0.6794 -1.2427
  953THF     H612382   0.756   0.946   4.894 -0.4354  3.0726  2.2239
  953THF     H712383   0.780   1.086   4.797  0.7611 -0.0380  0.9002
  953THF     C812384   0.577   1.048   4.836 -0.1619 -0.4443  0.5706
  953THF     C912385   0.523   1.052   4.693 -0.1495 -0.7569 -0.7635
  953THF    H1012386   0.571   1.140   4.894  0.2597 -0.8022  1.1956
  953THF    H1112387   0.524   0.972   4.893  0.6852  0.3632  2.5013
  953THF    H1212388   0.425   1.005   4.684 -0.4880 -0.3889  0.7070
  953THF    H1312389   0.511   1.153   4.655  1.2718 -1.2226 -2.5875
  954THF     O112390   3.374   4.256   0.300  0.0213  0.0722  0.4209
  954THF     C212391   3.276   4.171   0.359 -0.1021  0.0933  0.2981
  954THF     C312392   3.445   4.190   0.199  0.4143  0.4576 -0.0506
  954THF     H412393   3.186   4.181   0.298 -0.7389  0.0795  1.2101
  954THF     H512394   3.246   4.198   0.460 -0.1394 -0.4022  0.4216
  954THF     H612395   3.414   4.232   0.102 -1.0490  0.0321  0.2053
  954THF     H712396   3.553   4.207   0.203  0.5070  0.0025 -0.4762
  954THF     C812397   3.413   4.042   0.210  0.5332 -0.5328  0.4254
  954THF     C912398   3.337   4.035   0.346  0.1539  0.7275 -0.1262
  954THF    H1012399   3.497   3.973   0.201  1.2251  0.5404 -2.7477
  954THF    H1112400   3.352   4.018   0.124 -0.0634  1.3612  0.2677
  954THF    H1212401   3.263   3.955   0.350  1.4134 -0.5158 -0.4925
  954THF    H1312402   3.408   4.015   0.427  1.3945  0.6156 -1.2094
  955THF     O112403   5.258   2.056   2.827 -0.5582 -0.3365 -0.0409
  955THF     C212404   5.210   2.168   2.908 -0.0764  0.1198 -0.6207
  955THF     C312405   5.149   1.982   2.778  0.3802  0.4738  0.3192
  955THF     H412406   5.268   2.260   2.907 -1.5266  1.0673 -1.7063
  955THF     H512407   5.193   2.144   3.013 -1.9232 -0.5224 -1.0456
  955THF     H612408   5.172   1.922   2.691  1.9144  0.9173  0.3941
  955THF     H712409   5.099   1.917   2.851  1.8416  1.3189  2.1681
  955THF     C812410   5.043   2.088   2.749 -0.2581 -0.1101  0.0259
  955THF     C912411   5.066   2.197   2.856  0.0706 -0.0545  0.1846
  955THF    H1012412   4.946   2.039   2.738  0.4534 -1.3438 -0.9852
  955THF    H1112413   5.069   2.131   2.652 -0.4545 -0.1680 -0.0532
  955THF    H1212414   5.051   2.298   2.816  1.8859 -0.1271 -0.8149
  955THF    H1312415   4.995   2.185   2.937 -0.1139 -2.3438 -0.2570
  956THF     O112416   4.821   3.123   5.428 -0.4612  0.1617  0.0002
  956THF     C212417   4.957   3.107   5.401 -0.0778  0.7534  0.0704
  956THF     C312418   4.748   3.007   5.388  0.7907 -0.3031  0.4556
  956THF     H412419   5.020   3.167   5.467  0.4722  2.2404 -1.7206
  956THF     H512420   4.965   3.134   5.296  1.8085 -2.1089 -0.6416
  956THF     H612421   4.659   2.987   5.449  0.3340  0.9516  0.2268
  956THF     H712422   4.713   3.013   5.285  1.3381 -0.2826  0.2699
  956THF     C812423   4.854   2.894   5.397 -0.1560  0.1772  0.1862
  956THF     C912424   4.989   2.960   5.420 -0.0952 -0.3503  0.4125
  956THF    H1012425   4.847   2.828   5.310  2.0944 -0.6278  0.5320
  956THF    H1112426   4.827   2.827   5.478  1.3084  1.3754  1.7420
  956THF    H1212427   5.019   2.948   5.524 -0.0836 -0.8026  0.3616
  956THF    H1312428   5.071   2.922   5.359  0.5683 -1.1330  1.7586
  957THF     O112429   1.393   0.505   5.217 -0.2687  0.1008  0.3274
  957THF     C212430   1.291   0.602   5.227  0.1924  0.1162 -0.3090
  957THF     C312431   1.446   0.469   5.339  0.4272 -0.4111 -0.1858
  957THF     H412432   1.222   0.591   5.143 -0.7497 -0.1143  0.4733
  957THF     H512433   1.321   0.707   5.238 -2.2587  1.1034 -1.9722
  957THF     H612434   1.492   0.370   5.334  2.3931  0.4396  0.0095
  957THF     H712435   1.518   0.544   5.371 -1.9133  1.1598  1.7942
  957THF     C812436   1.330   0.477   5.433  0.7702 -0.2601  0.5469
  957THF     C912437   1.232   0.562   5.361  0.5837  0.1861 -0.4231
  957THF    H1012438   1.355   0.509   5.534  2.9589  1.0677 -0.3489
  957THF    H1112439   1.291   0.375   5.439  2.2887 -0.8342  1.3129
  957THF    H1212440   1.133   0.516   5.366 -0.7399  3.0158  3.2752
  957THF    H1312441   1.197   0.652   5.410 -0.0048 -1.6528  2.8035
  958THF     O112442   3.087   4.394   3.500 -0.2490  0.3708 -0.4804
  958THF     C212443   2.957   4.384   3.541  0.1611 -0.2573 -0.0995
  958THF     C312444   3.106   4.494   3.397 -0.2419 -0.1285 -1.0351
  958THF     H412445   2.947   4.465   3.613 -0.5036  0.1161 -0.5951
  958THF     H512446   2.919   4.290   3.580 -0.7180 -1.0612 -2.7055
  958THF     H612447   3.176   4.572   3.428  1.0842 -1.5111 -0.3655
  958THF     H712448   3.155   4.445   3.312  2.0697  2.0002 -1.0517
  958THF     C812449   2.964   4.530   3.355  0.0386  0.2687 -0.1574
  958THF     C912450   2.881   4.421   3.415 -0.3488  0.1763  0.1826
  958THF    H1012451   2.946   4.552   3.249  0.8427  2.1540  0.0580
  958THF    H1112452   2.948   4.617   3.419  0.2138  0.1224  0.0848
  958THF    H1212453   2.783   4.461   3.439 -0.4954 -0.2563  0.2985
  958THF    H1312454   2.879   4.334   3.350  0.0416 -0.6866  1.2812
  959THF     O112455   0.774   4.840   0.685  0.3027  0.5324  0.2164
  959THF     C212456   0.672   4.784   0.606  0.6615 -0.4971  0.2302
  959THF     C312457   0.710   4.910   0.793  0.6677 -0.0814 -0.1273
  959THF     H412458   0.631   4.700   0.660 -0.9803  0.8426  1.1587
  959THF     H512459   0.706   4.742   0.511  0.8824  1.8436 -0.8160
  959THF     H612460   0.691   4.839   0.873  0.2815 -1.0677 -1.0760
  959THF     H712461   0.783   4.986   0.822  1.8976 -0.4113 -2.1664
  959THF     C812462   0.580   4.966   0.724  0.5939 -0.5145 -0.2769
  959THF     C912463   0.572   4.903   0.591  0.1801  0.5540 -0.7421
  959THF    H1012464   0.577   5.074   0.716 -2.4304 -0.3271  1.6580
  959THF    H1112465   0.493   4.936   0.782 -0.3169 -1.6308 -2.1265
  959THF    H1212466   0.473   4.865   0.569  0.8704 -0.4929 -2.1958
  959THF    H1312467   0.601   4.971   0.511 -0.3046  0.1910 -1.2387
  960THF     O112468   2.416   2.094   4.214 -0.3446 -0.8093 -0.1207
  960THF     C212469   2.454   2.218   4.152 -1.4943  0.3629  0.8229
  960THF     C312470   2.511   1.995   4.175 -0.0359  0.4864  0.3369
  960THF     H412471   2.411   2.296   4.215 -1.1871  0.2345  1.1936
  960THF     H512472   2.409   2.223   4.053 -0.1782 -2.1025  0.0204
  960THF     H612473   2.533   1.933   4.261 -1.5093  0.3774  0.6558
  960THF     H712474   2.470   1.944   4.087 -1.5025  0.4324  1.0151
  960THF     C812475   2.641   2.074   4.137  0.7695 -0.6478 -0.0023
  960THF     C912476   2.605   2.220   4.151 -0.3779  0.1909 -0.8227
  960THF    H1012477   2.668   2.048   4.035  0.5184 -0.1028 -0.2175
  960THF    H1112478   2.724   2.044   4.200  1.0182 -1.2450 -0.6033
  960THF    H1212479   2.626   2.261   4.249 -2.1090  1.7993 -1.0635
  960THF    H1312480   2.663   2.285   4.085  0.3450 -0.1936 -0.5869
  961THF     O112481   5.203   0.431   3.151  0.3782 -0.0229 -0.5056
  961THF     C212482   5.199   0.576   3.159 -0.7598  0.6479 -0.2088
  961THF     C312483   5.072   0.391   3.116  0.0030  0.1047 -0.1591
  961THF     H412484   5.204   0.622   3.060  0.0534  1.4882  0.1993
  961THF     H512485   5.293   0.604   3.208  0.0367 -2.3014  0.1165
  961THF     H612486   5.050   0.408   3.010  2.7431 -1.3086 -1.0516
  961THF     H712487   5.054   0.285   3.131  0.7104  0.0873  0.5589
  961THF     C812488   4.993   0.476   3.219 -0.5472  0.3551  0.5359
  961THF     C912489   5.063   0.610   3.233  0.2059 -0.3148  0.8578
  961THF    H1012490   4.983   0.416   3.309  1.1311 -0.5926  0.1275
  961THF    H1112491   4.892   0.485   3.178 -0.0410 -0.9760 -1.1162
  961THF    H1212492   5.014   0.691   3.181 -0.1981 -0.4929  0.9535
  961THF    H1312493   5.076   0.650   3.334 -0.1937  0.2346  0.6889
  962THF     O112494   1.214   2.019   4.812  0.5631 -0.7378  0.1061
  962THF     C212495   1.132   1.915   4.848  0.6248  0.1087  0.4324
  962THF     C312496   1.161   2.061   4.693 -0.3807 -0.6463 -0.7730
  962THF     H412497   1.029   1.942   4.874  0.2181 -1.2467  0.3385
  962THF     H512498   1.168   1.867   4.939  1.3127  0.3668  0.2997
  962THF     H612499   1.069   2.114   4.716 -0.0274  0.3153 -1.5238
  962THF     H712500   1.216   2.143   4.647 -1.2806  0.4649  0.0781
  962THF     C812501   1.141   1.939   4.607 -0.1176  0.0944  0.1913
  962THF     C912502   1.139   1.834   4.715  0.3391  0.0678 -0.1565
  962THF    H1012503   1.223   1.920   4.538 -0.4853 -2.1190  0.2773
  962THF    H1112504   1.051   1.946   4.545  0.7362  0.2433 -1.0651
  962THF    H1212505   1.056   1.764   4.712  1.1324 -0.9382  0.5089
  962THF    H1312506   1.229   1.774   4.702 -0.7256 -1.0796 -2.8507
  963THF     O112507   3.266   3.516   1.229  0.1782  0.5625  0.0654
  963THF     C212508   3.167   3.596   1.171  0.2748  0.1002 -0.3083
  963THF     C312509   3.241   3.491   1.362 -0.0670  0.9598 -0.7601
  963THF     H412510   3.141   3.562   1.071 -0.2383  0.2839 -0.2407
  963THF     H512511   3.203   3.699   1.165 -0.9744  0.7112  1.7016
  963THF     H612512   3.200   3.391   1.378  0.5914  0.9939  1.3545
  963THF     H712513   3.321   3.505   1.434 -0.6263  1.8441 -0.3002
  963THF     C812514   3.121   3.585   1.403  0.3446  0.5032  0.1757
  963THF     C912515   3.043   3.593   1.270 -0.2325  1.0261 -0.3365
  963THF    H1012516   3.167   3.680   1.432  2.0881 -0.4731  0.7986
  963THF    H1112517   3.072   3.541   1.490  0.8120  0.8550  0.6235
  963THF    H1212518   2.989   3.499   1.265 -0.3736  1.0423  0.7089
  963THF    H1312519   2.974   3.677   1.264 -0.9576  0.3601 -1.5649
  964THF     O112520   0.906   0.175   3.953 -0.0826  0.1370  0.9249
  964THF     C212521   1.002   0.214   4.054 -0.0571 -0.2917  0.0493
  964THF     C312522   0.878   0.036   3.983  0.2585 -0.9008  0.7554
  964THF     H412523   0.950   0.290   4.112 -1.2866 -1.1809  0.1634
  964THF     H512524   1.096   0.246   4.009 -0.3518  0.4618 -0.0413
  964THF     H612525   0.775   0.011   3.957  0.7499 -0.3597 -2.0022
  964THF     H712526   0.949  -0.028   3.931  0.3993 -0.1783  0.0434
  964THF     C812527   0.884   0.021   4.133 -0.4180  0.6998 -0.8225
  964THF     C912528   1.013   0.096   4.156  0.0670  0.6311 -0.1715
  964THF    H1012529   0.883  -0.079   4.177 -0.4194  1.1004  0.1065
  964THF    H1112530   0.798   0.069   4.180 -1.3912 -2.5187  0.9833
  964THF    H1212531   1.006   0.131   4.259 -0.3851  1.1832 -0.3773
  964THF    H1312532   1.098   0.031   4.141  0.8399  1.4643  0.4965
  965THF     O112533   0.313   0.296   4.468 -0.4248 -0.0888 -1.0719
  965THF     C212534   0.245   0.365   4.575  0.2689  0.2755 -0.1567
  965THF     C312535   0.227   0.284   4.366 -0.5031 -0.3482  0.1330
  965THF     H412536   0.317   0.406   4.647 -0.7053 -1.4414  1.9238
  965THF     H512537   0.175   0.299   4.626 -0.3519 -1.0333 -2.5765
  965THF     H612538   0.281   0.308   4.274 -0.6492  0.7223  0.3077
  965THF     H712539   0.199   0.179   4.362  3.0783 -1.5463  2.3808
  965THF     C812540   0.118   0.389   4.377 -0.0211 -0.4846  0.8669
  965THF     C912541   0.173   0.470   4.494  0.1324 -0.3492 -0.0159
  965THF    H1012542   0.030   0.332   4.409  0.9723 -2.7342 -0.1617
  965THF    H1112543   0.096   0.442   4.285  0.0990 -1.1693  0.4354
  965THF    H1212544   0.234   0.553   4.458 -0.2733  0.3321  0.8229
  965THF    H1312545   0.097   0.517   4.557 -0.3054 -0.5419 -0.3980
  966THF     O112546   1.383   3.208   5.416  0.1489 -0.0720 -0.1355
  966THF     C212547   1.523   3.170   5.412  0.6584 -0.4412  0.2461
  966THF     C312548   1.358   3.277   5.543  0.2500  1.3743 -0.2788
  966THF     H412549   1.553   3.147   5.310 -0.4893 -0.4603 -0.1030
  966THF     H512550   1.539   3.083   5.474  3.4175  1.1153  1.9292
  966THF     H612551   1.262   3.329   5.538 -0.5562 -0.1419 -1.3510
  966THF     H712552   1.357   3.202   5.622 -2.3045 -0.7718 -2.1900
  966THF     C812553   1.479   3.366   5.555  0.0618  0.0407 -0.1401
  966THF     C912554   1.588   3.293   5.479  0.5060  0.2085 -0.0079
  966THF    H1012555   1.522   3.380   5.655  2.3306  0.5853 -1.1120
  966THF    H1112556   1.468   3.461   5.502 -0.9177 -0.7857 -1.4481
  966THF    H1212557   1.626   3.358   5.400 -2.1371  1.2016 -0.5803
  966THF    H1312558   1.670   3.263   5.544 -0.2831 -0.7529  0.5512
  967THF     O112559   3.378   4.945   2.670  0.0218 -0.8868 -0.2473
  967THF     C212560   3.491   4.955   2.592 -0.5448 -0.7513  0.2458
  967THF     C312561   3.423   4.938   2.808  0.6131 -0.4014  0.6899
  967THF     H412562   3.480   4.972   2.485  1.7858 -1.4708 -0.1639
  967THF     H512563   3.547   4.862   2.601  0.0612 -0.5634 -1.3239
  967THF     H612564   3.345   4.978   2.873  0.7199  0.9738  0.0206
  967THF     H712565   3.447   4.833   2.819  2.4031 -0.4034 -2.1775
  967THF     C812566   3.547   5.027   2.805 -0.3626 -0.3771 -0.1154
  967THF     C912567   3.561   5.068   2.662  0.0348 -0.0796  0.1531
  967THF    H1012568   3.637   4.982   2.846 -1.0271 -0.6319  1.1036
  967THF    H1112569   3.514   5.117   2.857  0.0228 -0.6694  0.6406
  967THF    H1212570   3.494   5.152   2.643 -0.3760 -0.1744  1.1300
  967THF    H1312571   3.663   5.082   2.628 -0.3410 -2.3736 -2.2707
  968THF     O112572   2.082   3.469   5.073 -0.1350 -0.0185 -0.5277
  968THF     C212573   2.094   3.616   5.095  0.1234 -0.1184 -0.7236
  968THF     C312574   2.048   3.414   5.204  0.3231 -0.2469  0.0879
  968THF     H412575   1.998   3.664   5.077  0.3668  1.2734  1.4071
  968THF     H512576   2.172   3.645   5.024  1.0499 -1.2473 -0.2027
  968THF     H612577   1.943   3.386   5.196 -0.4156  2.6435 -1.8206
  968THF     H712578   2.110   3.326   5.221 -0.8592 -1.0720  0.2092
  968THF     C812579   2.068   3.528   5.305  0.6235 -0.6200 -0.5684
  968THF     C912580   2.156   3.630   5.236 -0.5554 -0.3890 -0.5278
  968THF    H1012581   2.121   3.506   5.397 -0.0603 -0.6226 -0.1631
  968THF    H1112582   1.977   3.579   5.337  1.8879  1.5244 -0.2051
  968THF    H1212583   2.140   3.723   5.290  1.2937 -1.2316  1.6386
  968THF    H1312584   2.259   3.596   5.249 -0.6534 -0.5981 -0.2904
  969THF     O112585   2.496   1.365   5.498  0.5258  0.3237 -0.3035
  969THF     C212586   2.587   1.379   5.603 -0.2889  0.0496 -0.5989
  969THF     C312587   2.573   1.382   5.379  0.3105  0.9610  0.0379
  969THF     H412588   2.535   1.359   5.697 -1.3621 -1.6979 -1.5173
  969THF     H512589   2.621   1.482   5.611  0.1819 -0.2337  1.8541
  969THF     H612590   2.536   1.335   5.288  2.9136 -0.9983 -0.1381
  969THF     H712591   2.577   1.490   5.364 -2.9797  1.2321  0.2484
  969THF     C812592   2.714   1.321   5.403 -0.2218 -0.1526  0.1243
  969THF     C912593   2.704   1.290   5.557  0.2822 -0.4953 -0.6004
  969THF    H1012594   2.798   1.386   5.381 -0.7850  0.3842 -0.5083
  969THF    H1112595   2.746   1.226   5.360  1.5568  0.4302  0.1092
  969THF    H1212596   2.705   1.184   5.582  2.2492 -0.4700 -0.3944
  969THF    H1312597   2.794   1.320   5.611  0.4767 -1.6190 -0.2752
  970THF     O112598   3.722   2.509   1.187  0.4032 -0.1707  0.0472
  970THF     C212599   3.731   2.577   1.064  0.5199  0.7409 -0.1158
  970THF     C312600   3.725   2.599   1.294 -0.1261  0.4399  0.0319
  970THF     H412601   3.635   2.601   1.020  0.4507  1.1852  0.2648
  970THF     H512602   3.787   2.512   0.997 -0.4142  0.1644 -0.3496
  970THF     H612603   3.621   2.626   1.312  0.6576  3.0426  1.1583
  970THF     H712604   3.767   2.541   1.377 -0.2154 -0.6620 -0.6681
  970THF     C812605   3.823   2.712   1.252  0.3580 -0.4433  0.4159
  970THF     C912606   3.806   2.704   1.103  0.5456  0.2420 -0.0729
  970THF    H1012607   3.929   2.692   1.269  0.4958  0.0807  0.1891
  970THF    H1112608   3.783   2.811   1.272 -0.8789 -0.0807 -3.2265
  970THF    H1212609   3.748   2.792   1.075 -1.8258 -0.8012  1.2032
  970THF    H1312610   3.902   2.694   1.053  0.7707 -1.7401  0.6518
  971THF     O112611   1.855   2.405   0.678  0.5027  0.6216  0.0438
  971THF     C212612   1.762   2.515   0.679  0.4414  0.4462  0.2908
  971THF     C312613   1.895   2.376   0.548  0.2135 -0.1912  0.7953
  971THF     H412614   1.811   2.610   0.702 -3.0951  1.9612  2.3912
  971THF     H512615   1.686   2.497   0.755  0.5123 -1.3743 -0.0410
  971THF     H612616   2.003   2.372   0.536  0.1288  1.0057 -0.7108
  971THF     H712617   1.851   2.278   0.533  0.5151 -0.0807 -0.9669
  971THF     C812618   1.823   2.467   0.455 -0.2590  0.2246 -0.3074
  971THF     C912619   1.701   2.509   0.535 -0.2004  0.7108  0.1359
  971THF    H1012620   1.800   2.426   0.357  1.0015  0.1828 -0.6014
  971THF    H1112621   1.891   2.548   0.429  2.9150 -2.5601 -1.5347
  971THF    H1212622   1.660   2.601   0.491  0.3020  0.0862 -1.7556
  971THF    H1312623   1.627   2.430   0.524 -0.1488  0.5566  0.8866
  972THF     O112624   0.853   1.822   5.359 -0.0552 -0.6701 -0.4230
  972THF     C212625   0.973   1.753   5.371 -0.9704 -0.2224 -0.4420
  972THF     C312626   0.773   1.767   5.259  0.5030 -0.5094 -0.4139
  972THF     H412627   0.958   1.673   5.443 -0.8275  0.4879  0.3888
  972THF     H512628   1.053   1.822   5.400 -0.4526 -0.8511 -0.3647
  972THF     H612629   0.734   1.675   5.302  0.5018 -0.2538  0.1279
  972THF     H712630   0.685   1.826   5.233 -1.6067 -2.2844  2.1619
  972THF     C812631   0.876   1.734   5.150  0.0726 -0.4385  0.9809
  972THF     C912632   0.997   1.689   5.235  0.3421 -0.6547 -0.4851
  972THF    H1012633   0.887   1.827   5.093 -1.1622 -1.6924 -1.4676
  972THF    H1112634   0.853   1.658   5.075  0.2707  0.5640 -0.1266
  972THF    H1212635   0.988   1.580   5.237  1.4000 -0.7728 -1.1788
  972THF    H1312636   1.081   1.739   5.187 -0.4672 -0.3962 -1.6942
  973THF     O112637   1.281   4.539   1.195 -0.2070 -0.3184 -0.3410
  973THF     C212638   1.298   4.556   1.337 -0.6200  0.1439  0.6992
  973THF     C312639   1.159   4.598   1.159  0.4203  0.3495  0.3210
  973THF     H412640   1.375   4.633   1.341  1.1008 -1.4327 -0.6079
  973THF     H512641   1.330   4.467   1.391  0.2621  1.2336  2.0221
  973THF     H612642   1.169   4.707   1.153 -1.0571  0.5267  0.8536
  973THF     H712643   1.127   4.550   1.066 -2.0877  1.7761  0.3799
  973THF     C812644   1.071   4.570   1.278 -0.6337 -0.8959  0.4003
  973THF     C912645   1.160   4.602   1.394 -0.7614 -0.5360 -0.4433
  973THF    H1012646   1.047   4.464   1.284 -0.6730 -0.9039  0.1391
  973THF    H1112647   0.975   4.623   1.282 -0.5284 -0.4176 -1.8152
  973THF    H1212648   1.176   4.706   1.425  0.2616 -0.4848 -1.1064
  973THF    H1312649   1.130   4.540   1.478 -1.5787 -0.2773 -0.5359
  974THF     O112650   4.698   1.823   1.888 -0.0831 -0.0037 -0.0544
  974THF     C212651   4.730   1.958   1.874 -0.0176 -0.6930 -0.7201
  974THF     C312652   4.803   1.753   1.954 -0.5164 -0.1308 -0.0762
  974THF     H412653   4.707   2.008   1.968 -0.9408 -1.5432 -0.4823
  974THF     H512654   4.661   1.990   1.796  0.1784  1.7365  0.0074
  974THF     H612655   4.777   1.712   2.052  0.5163 -2.9509 -0.8907
  974THF     H712656   4.816   1.661   1.897  0.8505 -0.3311  0.5072
  974THF     C812657   4.934   1.843   1.945  0.2923  0.4345  0.1233
  974THF     C912658   4.882   1.956   1.853  0.2275 -0.1260 -0.4743
  974THF    H1012659   5.013   1.784   1.899  1.3361  2.1274 -0.3148
  974THF    H1112660   4.970   1.869   2.044  1.3381  1.4625 -0.5022
  974THF    H1212661   4.933   2.047   1.885  0.3152 -0.2864 -0.1547
  974THF    H1312662   4.906   1.926   1.751  1.5653 -0.7250 -0.0201
  975THF     O112663   1.395   3.449   1.482 -0.0536  0.1462  1.0072
  975THF     C212664   1.301   3.467   1.591 -0.6416  0.7943 -0.7205
  975THF     C312665   1.450   3.577   1.453  0.3363  0.4522 -0.6041
  975THF     H412666   1.335   3.421   1.683  0.0376  1.2893 -0.7167
  975THF     H512667   1.205   3.422   1.564 -0.4298  0.4854 -0.9710
  975THF     H612668   1.548   3.557   1.408  0.0536  0.6269 -1.3233
  975THF     H712669   1.406   3.619   1.362  0.6154  1.2476 -0.3763
  975THF     C812670   1.433   3.658   1.579 -0.4581  0.2931  0.0758
  975THF     C912671   1.294   3.614   1.613 -0.1308 -0.5580 -0.0730
  975THF    H1012672   1.452   3.764   1.563 -0.3938  0.2888  0.1190
  975THF    H1112673   1.506   3.608   1.643 -0.5868 -0.0923 -0.0736
  975THF    H1212674   1.259   3.633   1.715 -0.3615 -0.7814 -0.1105
  975THF    H1312675   1.222   3.656   1.543  0.4158  0.0759 -0.2637
  976THF     O112676   4.174   4.262   0.395 -0.2721  0.2012  0.6076
  976THF     C212677   4.228   4.368   0.323 -0.3132 -0.5690  0.4429
  976THF     C312678   4.095   4.312   0.508  0.2072  0.3263  0.0112
  976THF     H412679   4.230   4.348   0.216 -0.5856  1.4736  0.0178
  976THF     H512680   4.330   4.392   0.353 -0.2680 -0.8896  0.5495
  976THF     H612681   3.994   4.274   0.493 -1.4055  3.7211  1.1407
  976THF     H712682   4.121   4.282   0.609  1.8644 -0.0206 -0.4817
  976THF     C812683   4.101   4.460   0.499  1.1780 -0.2287  0.2561
  976THF     C912684   4.132   4.481   0.352 -0.5196 -0.2997 -0.3075
  976THF    H1012685   4.188   4.492   0.556 -0.0347 -0.0979  2.1194
  976THF    H1112686   4.019   4.517   0.542  0.9871  1.6762 -2.3538
  976THF    H1212687   4.035   4.467   0.304 -0.0190 -3.3256 -0.6487
  976THF    H1312688   4.169   4.583   0.344  1.5433 -0.9216  0.6203
  977THF     O112689   3.962   4.581   3.615  1.0302  0.3699  0.1825
  977THF     C212690   3.932   4.443   3.609  0.7341  0.0995 -0.2279
  977THF     C312691   4.055   4.609   3.510  0.3984  0.5323 -0.3630
  977THF     H412692   3.850   4.420   3.677  1.8433 -0.4725  0.9776
  977THF     H512693   4.017   4.381   3.639 -0.6774 -0.6755  2.5341
  977THF     H612694   4.064   4.716   3.489  0.2994  0.3269 -1.5336
  977THF     H712695   4.152   4.570   3.541 -0.7830  0.2723  3.5652
  977THF     C812696   3.991   4.530   3.387 -0.1663 -0.2808  0.5935
  977THF     C912697   3.905   4.428   3.456 -0.1851  0.5372 -0.0324
  977THF    H1012698   4.067   4.475   3.331 -0.2858 -1.4882  1.5833
  977THF    H1112699   3.938   4.587   3.312 -1.4240 -0.6943  1.1434
  977THF    H1212700   3.798   4.439   3.435 -0.7109 -1.0942  1.5273
  977THF    H1312701   3.933   4.326   3.430  2.6610  0.9566  1.1264
  978THF     O112702   4.441   0.035   0.301 -0.4292  0.5003  0.2274
  978THF     C212703   4.490  -0.100   0.322 -0.7414 -0.0152  0.1211
  978THF     C312704   4.523   0.094   0.207  0.8032 -0.5920 -0.3541
  978THF     H412705   4.454  -0.165   0.242  2.8460 -0.2030 -1.5166
  978THF     H512706   4.460  -0.142   0.418 -1.3808  1.7712  0.7352
  978THF     H612707   4.490   0.064   0.108 -1.0565 -2.3871  0.7220
  978THF     H712708   4.535   0.202   0.208 -0.0586 -0.4870 -0.8705
  978THF     C812709   4.660   0.028   0.224  0.5732  0.1007 -0.2937
  978THF     C912710   4.639  -0.088   0.330 -0.4622 -0.0774  0.0372
  978THF    H1012711   4.731   0.102   0.260  0.4357  0.0213  0.1370
  978THF    H1112712   4.695  -0.014   0.130 -0.3588 -3.8959  0.9573
  978THF    H1212713   4.696  -0.180   0.315 -0.4350 -0.1999  0.8730
  978THF    H1312714   4.668  -0.039   0.423 -3.3980  1.6090  0.1607
  979THF     O112715   5.169   3.203   2.320 -0.2841 -0.8590  0.4308
  979THF     C212716   5.273   3.108   2.339  0.3850 -0.1450 -0.2779
  979THF     C312717   5.153   3.220   2.180 -0.1019 -0.3971  0.1119
  979THF     H412718   5.274   3.086   2.446 -0.3347  0.9517 -0.0248
  979THF     H512719   5.368   3.149   2.307  0.3288 -0.2522 -0.5803
  979THF     H612720   5.049   3.245   2.161 -0.1753 -0.2289  0.7119
  979THF     H712721   5.211   3.306   2.148  0.3580 -0.0931  1.6506
  979THF     C812722   5.212   3.091   2.112  0.1770  0.1796 -0.1920
  979THF     C912723   5.238   3.000   2.230  0.4824 -0.0248  0.3543
  979THF    H1012724   5.302   3.112   2.056 -0.0443  0.0367 -0.6053
  979THF    H1112725   5.133   3.053   2.047  0.4410 -1.3884  0.3653
  979THF    H1212726   5.143   2.950   2.246 -0.4456  0.8578 -1.9723
  979THF    H1312727   5.321   2.931   2.216 -1.5008 -2.4760  0.0152
  980THF     O112728   0.336   1.125   0.096  0.1549 -0.3525  0.2277
  980THF     C212729   0.360   1.033   0.203 -0.3108  0.4378  0.7078
  980THF     C312730   0.201   1.128   0.056  0.3675 -0.0280  0.1564
  980THF     H412731   0.343   1.076   0.302 -0.8969 -1.9042  1.6783
  980THF     H512732   0.463   0.998   0.207 -0.3670  0.1985  0.1084
  980THF     H612733   0.145   1.191   0.124  1.0913  0.1929  0.5540
  980THF     H712734   0.196   1.161  -0.048  1.7418  3.9253  1.1692
  980THF     C812735   0.174   0.977   0.056 -0.3453  0.2321 -0.0800
  980THF     C912736   0.250   0.931   0.181 -0.0699  0.5519  1.0584
  980THF    H1012737   0.205   0.928  -0.036  1.4400 -0.9387  1.0831
  980THF    H1112738   0.067   0.959   0.054 -0.2654 -0.5436 -3.2363
  980THF    H1212739   0.179   0.928   0.265 -0.4760  1.2522  0.7436
  980THF    H1312740   0.285   0.829   0.165  1.6607  1.4905 -1.6503
  981THF     O112741   5.072   4.910   0.160  0.3491  0.1792 -0.3936
  981THF     C212742   5.186   4.829   0.191  0.7308 -0.0569  0.0011
  981THF     C312743   4.955   4.847   0.209 -0.0519  0.1187 -0.1791
  981THF     H412744   5.276   4.887   0.212  0.3772  0.9306 -1.0910
  981THF     H512745   5.198   4.749   0.118  2.0968  0.1882 -0.0689
  981THF     H612746   4.862   4.904   0.205  1.3614  2.6014  0.3242
  981THF     H712747   4.943   4.756   0.151  1.8485 -0.6352  0.5135
  981THF     C812748   4.992   4.815   0.355  0.2810  0.4981 -0.4236
  981THF     C912749   5.141   4.770   0.332  0.1834  0.1947 -0.6139
  981THF    H1012750   4.938   4.728   0.392  0.4720  0.0653 -1.1277
  981THF    H1112751   4.988   4.899   0.424  1.8492  1.0622 -0.9592
  981THF    H1212752   5.204   4.809   0.412 -0.6195  0.2357  0.0094
  981THF    H1312753   5.137   4.661   0.337 -1.8956  0.2115 -0.9505
  982THF     O112754   2.183   1.111   4.652 -0.1814 -0.0348  0.2438
  982THF     C212755   2.217   1.157   4.779 -0.6013  0.1499  0.4187
  982THF     C312756   2.156   1.220   4.566 -0.0416 -0.3681  0.5278
  982THF     H412757   2.277   1.084   4.833 -0.6925 -0.6052 -0.4645
  982THF     H512758   2.125   1.167   4.836 -0.5214 -0.3047  0.6328
  982THF     H612759   2.193   1.194   4.467  0.5078  0.1226  0.6010
  982THF     H712760   2.050   1.234   4.547 -0.1302 -2.5454 -0.9855
  982THF     C812761   2.193   1.347   4.640  0.3402  0.2002  0.2457
  982THF     C912762   2.288   1.289   4.745 -0.4680 -0.0482 -0.1094
  982THF    H1012763   2.112   1.387   4.700  0.3019  0.0708  0.2813
  982THF    H1112764   2.247   1.417   4.577 -0.5845 -0.8975 -1.8773
  982THF    H1212765   2.384   1.255   4.705 -1.4867 -0.3666 -2.4301
  982THF    H1312766   2.291   1.358   4.829  2.6881  0.1969 -0.2910
  983THF     O112767   0.736   3.728   2.189  0.1599  0.3436  0.4416
  983THF     C212768   0.653   3.620   2.140 -0.3225 -0.3326 -0.0895
  983THF     C312769   0.696   3.777   2.313 -0.0756  0.7430 -0.1237
  983THF     H412770   0.715   3.532   2.125  0.1705  0.2042 -1.3459
  983THF     H512771   0.594   3.637   2.050 -0.2261 -1.1068 -0.3077
  983THF     H612772   0.785   3.798   2.373  0.3085  0.4194 -0.5803
  983THF     H712773   0.644   3.873   2.310  2.4088  2.2886  1.9591
  983THF     C812774   0.612   3.660   2.377  0.3544  0.4933 -0.0716
  983THF     C912775   0.552   3.602   2.252 -0.2398  0.0590  0.0826
  983THF    H1012776   0.531   3.706   2.432 -0.9092  0.6301 -1.9564
  983THF    H1112777   0.671   3.590   2.437 -1.0001 -1.2456 -0.6842
  983THF    H1212778   0.514   3.500   2.262 -2.1870  0.7712  0.5441
  983THF    H1312779   0.462   3.663   2.241  0.4609  1.2042  0.5334
  984THF     O112780   3.511   5.400   2.374  0.1346  0.3807 -0.2837
  984THF     C212781   3.580   5.322   2.274  0.1793 -0.3192 -0.2570
  984THF     C312782   3.615   5.478   2.432  0.0115  0.8539  0.2292
  984THF     H412783   3.619   5.354   2.177  0.2720 -0.1517 -0.1658
  984THF     H512784   3.500   5.253   2.248 -0.6616  1.5092 -2.9780
  984THF     H612785   3.641   5.557   2.362 -0.3280 -0.9424 -2.0308
  984THF     H712786   3.604   5.541   2.521  1.3012  5.1123 -2.3507
  984THF     C812787   3.729   5.373   2.451  0.2519  0.0400 -0.2882
  984THF     C912788   3.700   5.266   2.341 -0.7865 -0.5396 -0.0750
  984THF    H1012789   3.736   5.333   2.552 -0.1783  1.0005  0.1344
  984THF    H1112790   3.824   5.426   2.437  0.0876  1.0483  2.0485
  984THF    H1212791   3.792   5.255   2.284  0.3696  0.0295  1.5967
  984THF    H1312792   3.673   5.174   2.393 -2.4740  0.2333  0.5286
  985THF     O112793   1.554   1.603   3.463  0.4186  0.1916  0.3598
  985THF     C212794   1.435   1.533   3.433  0.7901  0.0877  0.1729
  985THF     C312795   1.528   1.701   3.563 -0.5301 -0.0682  0.2697
  985THF     H412796   1.415   1.462   3.513  2.5101  0.2724  0.7972
  985THF     H512797   1.443   1.490   3.333  0.9271  0.4140  0.0407
  985THF     H612798   1.525   1.649   3.659  0.7715 -1.7218 -0.5291
  985THF     H712799   1.603   1.779   3.568 -0.4710 -0.1895  2.0540
  985THF     C812800   1.397   1.746   3.517  0.0737  0.3520  0.1423
  985THF     C912801   1.326   1.638   3.436  0.2820 -0.3256 -0.4013
  985THF    H1012802   1.403   1.824   3.440  1.6569 -3.6219 -4.2655
  985THF    H1112803   1.341   1.782   3.603 -0.0822 -0.8434  0.5477
  985THF    H1212804   1.250   1.601   3.505 -0.1764 -0.4574 -0.9714
  985THF    H1312805   1.282   1.659   3.338 -2.7336 -1.7842  0.5109
  986THF     O112806   3.443   3.301   1.994  0.0089 -0.0702  0.0754
  986THF     C212807   3.527   3.212   2.053  0.3918  0.0394 -0.5813
  986THF     C312808   3.430   3.410   2.079  0.0258 -0.2949 -0.3618
  986THF     H412809   3.572   3.137   1.989 -1.5675  0.3609 -2.4543
  986THF     H512810   3.486   3.157   2.138  3.1386 -0.7886  0.3078
  986THF     H612811   3.392   3.495   2.023  1.9688  0.9031  0.0218
  986THF     H712812   3.360   3.394   2.160  0.3773  1.0543  0.2448
  986THF     C812813   3.573   3.441   2.116 -0.1533  0.1240 -0.2594
  986THF     C912814   3.640   3.307   2.099 -0.5228 -1.0290 -0.0919
  986THF    H1012815   3.584   3.473   2.219  1.9402 -0.5452 -0.2276
  986THF    H1112816   3.605   3.512   2.040 -3.1854  1.3541 -0.5435
  986THF    H1212817   3.698   3.318   2.007 -2.2168  1.2330 -0.9893
  986THF    H1312818   3.700   3.281   2.185  2.0379  0.0404 -1.4463
  987THF     O112819   3.917   1.304   1.041  0.6139  0.2593 -0.4377
  987THF     C212820   3.979   1.388   0.948  0.1067 -0.0635  0.1463
  987THF     C312821   3.778   1.287   1.007  0.1942 -0.0968  0.2045
  987THF     H412822   4.088   1.395   0.948  0.2847 -1.9266  1.8839
  987THF     H512823   3.933   1.487   0.957 -0.4118 -0.4376  2.0052
  987THF     H612824   3.736   1.199   1.057 -0.9996  0.0282 -0.5230
  987THF     H712825   3.715   1.372   1.033 -0.6597 -0.7178  0.2333
  987THF     C812826   3.777   1.279   0.852 -1.6245 -0.6591  0.3128
  987THF     C912827   3.916   1.329   0.824  0.2676  1.0004  0.6508
  987THF    H1012828   3.700   1.341   0.808  0.5224  0.4312 -2.1955
  987THF    H1112829   3.759   1.172   0.839 -0.0907 -1.0786  1.2363
  987THF    H1212830   3.981   1.250   0.786  1.8646  2.4009  0.3320
  987THF    H1312831   3.917   1.408   0.749 -1.0326 -0.2460 -0.7455
  988THF     O112832   0.086   3.088   3.672  0.5458  0.3663  0.0561
  988THF     C212833   0.093   3.177   3.781 -0.3600  0.2066 -0.2956
  988THF     C312834   0.221   3.037   3.663  0.4522  0.4796  0.4078
  988THF     H412835   0.105   3.107   3.863  0.8683  0.1171 -0.5373
  988THF     H512836  -0.002   3.230   3.787 -1.1498 -1.1897 -0.0497
  988THF     H612837   0.249   2.975   3.748  0.9193  0.6430  0.3747
  988THF     H712838   0.245   2.973   3.579  1.0260 -2.8234  2.8906
  988THF     C812839   0.305   3.159   3.667 -0.4323 -0.2574 -0.2940
  988THF     C912840   0.229   3.254   3.756  0.4938  0.2781  0.0375
  988THF    H1012841   0.303   3.195   3.564  0.2500  1.1120  0.1543
  988THF    H1112842   0.411   3.143   3.689  0.4060 -0.2671 -3.7664
  988THF    H1212843   0.288   3.266   3.847 -0.0264 -2.2509  0.7905
  988THF    H1312844   0.220   3.354   3.713 -0.0062  1.4739  2.7178
  989THF     O112845   2.224   3.586   0.396  0.4492  0.0300 -0.3433
  989THF     C212846   2.199   3.726   0.392  0.1560 -0.0895 -0.0596
  989THF     C312847   2.328   3.562   0.307 -0.2698  0.0280 -0.8608
  989THF     H412848   2.252   3.786   0.466  0.6132 -1.9591  1.2276
  989THF     H512849   2.094   3.736   0.416  0.2205 -1.7538  1.1408
  989THF     H612850   2.419   3.571   0.366 -0.8864  0.0903  0.1092
  989THF     H712851   2.327   3.461   0.267 -1.1433  0.1544 -1.1679
  989THF     C812852   2.312   3.654   0.188  0.1250  0.0312  0.5399
  989THF     C912853   2.225   3.767   0.240  0.1429  0.1188  0.0273
  989THF    H1012854   2.267   3.596   0.108 -0.3574 -0.0606  0.8718
  989THF    H1112855   2.413   3.685   0.159 -0.5942  1.2163 -0.8147
  989THF    H1212856   2.275   3.864   0.236 -0.9221  0.7829  1.8319
  989THF    H1312857   2.133   3.771   0.181  0.2339 -1.8387 -0.2947
  990THF     O112858   4.284   1.874   2.239 -0.0881  0.1808  0.6734
  990THF     C212859   4.360   1.770   2.176 -0.6147 -0.7527  0.2447
  990THF     C312860   4.306   2.002   2.173  0.1789  0.3719 -0.0801
  990THF     H412861   4.306   1.747   2.084 -0.3593  1.5809 -0.5605
  990THF     H512862   4.385   1.680   2.232 -2.3989 -2.6730 -1.8541
  990THF     H612863   4.216   2.019   2.115  0.2451  0.8247 -0.0515
  990THF     H712864   4.327   2.076   2.250  0.2930  1.1410 -0.8468
  990THF     C812865   4.429   1.984   2.083  0.1551 -0.4821  0.0933
  990THF     C912866   4.479   1.851   2.124  0.7424  0.3528 -0.2525
  990THF    H1012867   4.505   2.062   2.095  0.3708 -0.7929  0.7616
  990THF    H1112868   4.390   1.984   1.981 -0.5814  0.3050  0.3627
  990THF    H1212869   4.534   1.791   2.051  1.5402 -0.5777  1.0665
  990THF    H1312870   4.542   1.869   2.211  0.0438  3.0346 -0.2022
  991THF     O112871   2.665   1.700   2.946  0.2912 -0.2057  0.5745
  991THF     C212872   2.758   1.751   3.034 -0.4240 -0.3767 -0.5102
  991THF     C312873   2.743   1.608   2.866  0.5239  0.4377  0.1224
  991THF     H412874   2.790   1.672   3.102  0.3760 -0.4495 -0.9690
  991THF     H512875   2.733   1.840   3.092 -3.2623 -1.1918 -0.3081
  991THF     H612876   2.746   1.514   2.920 -1.1858  0.6081  0.5689
  991THF     H712877   2.700   1.573   2.772 -0.7909 -0.9791  1.2049
  991THF     C812878   2.873   1.677   2.836  0.0489 -0.0844  0.3410
  991THF     C912879   2.880   1.780   2.951 -0.5347 -0.8589  0.2697
  991THF    H1012880   2.852   1.725   2.741  0.2661 -1.3082 -0.3467
  991THF    H1112881   2.964   1.616   2.833 -0.5334 -0.9608  0.0073
  991THF    H1212882   2.969   1.771   3.014 -0.2699  3.5483  0.8960
  991THF    H1312883   2.882   1.883   2.915  0.1709 -0.9027  0.1635
  992THF     O112884   2.639   3.895   4.947 -0.5349  0.2658 -0.1152
  992THF     C212885   2.580   3.765   4.916  0.1102  0.8104  0.7712
  992THF     C312886   2.689   3.957   4.830  0.4670  0.2606  0.5625
  992THF     H412887   2.477   3.771   4.950 -0.3688 -0.2422 -0.3812
  992THF     H512888   2.633   3.687   4.972 -0.3089 -0.3697 -0.4136
  992THF     H612889   2.609   4.023   4.796 -0.7607 -2.4680 -2.3789
  992THF     H712890   2.778   4.016   4.846  0.1587  1.5115 -1.9102
  992THF     C812891   2.704   3.843   4.726  0.8666  0.1741  0.1915
  992THF     C912892   2.592   3.745   4.761 -0.1619  0.7206 -0.1983
  992THF    H1012893   2.795   3.782   4.735 -1.1045 -2.8704  0.9003
  992THF    H1112894   2.702   3.875   4.622  0.9137 -1.0677 -0.2075
  992THF    H1212895   2.495   3.765   4.716  0.0201  0.1974 -0.8292
  992THF    H1312896   2.619   3.644   4.733  0.7937  0.0397  2.7785
  993THF     O112897   2.304   3.363   1.672  0.2907  0.1118 -0.5956
  993THF     C212898   2.314   3.254   1.583  0.8670 -0.8344  0.0124
  993THF     C312899   2.414   3.340   1.762 -0.4007 -0.6997 -0.1331
  993THF     H412900   2.250   3.268   1.495 -0.6203  3.2895  1.4990
  993THF     H512901   2.269   3.163   1.622 -0.8242 -0.4388 -0.8981
  993THF     H612902   2.434   3.434   1.814  1.3898 -0.9837 -0.2646
  993THF     H712903   2.381   3.262   1.830 -2.4498  1.2301  1.2602
  993THF     C812904   2.527   3.300   1.671 -0.7333  0.4036  0.2702
  993THF     C912905   2.457   3.231   1.548  0.4251 -0.6070  0.3230
  993THF    H1012906   2.593   3.231   1.722  0.3998  0.7542 -0.6936
  993THF    H1112907   2.582   3.388   1.637 -0.4044  0.2606  0.4332
  993THF    H1212908   2.491   3.282   1.458 -1.3818  0.0850 -0.0081
  993THF    H1312909   2.486   3.127   1.540  0.2016 -0.5860 -0.8440
  994THF     O112910   0.433   3.013   0.764 -0.3428  0.0180  0.5126
  994THF     C212911   0.367   2.951   0.870  0.0291 -0.0946  0.3847
  994THF     C312912   0.344   3.110   0.707  0.2780  0.3353  0.2837
  994THF     H412913   0.360   3.029   0.946  0.9071  1.3406 -0.9395
  994THF     H512914   0.415   2.867   0.920 -2.5642 -1.0485  1.4519
  994THF     H612915   0.337   3.198   0.771  0.1897  1.0391 -0.6695
  994THF     H712916   0.383   3.142   0.611 -0.1416 -1.0679 -0.3853
  994THF     C812917   0.216   3.022   0.699  0.2093 -0.0894  0.1851
  994THF     C912918   0.226   2.915   0.814  0.3472 -0.1748  1.0277
  994THF    H1012919   0.216   2.960   0.610 -0.8652 -2.3198  1.6465
  994THF    H1112920   0.129   3.087   0.700 -1.3172 -2.0291 -0.6929
  994THF    H1212921   0.146   2.924   0.887 -1.2943 -0.8402 -0.6037
  994THF    H1312922   0.231   2.815   0.771 -1.1362 -0.0247  0.4328
  995THF     O112923   3.315   1.480   3.717 -0.6816  0.6694 -0.0243
  995THF     C212924   3.428   1.427   3.798  0.1814  0.2084 -0.1528
  995THF     C312925   3.220   1.524   3.814 -0.3566  0.1594 -0.5563
  995THF     H412926   3.483   1.520   3.813  0.1276  0.0467  1.1526
  995THF     H512927   3.485   1.359   3.735  2.0940  0.9666  0.6972
  995THF     H612928   3.252   1.621   3.852  2.6464 -0.4545 -1.2524
  995THF     H712929   3.120   1.529   3.770 -0.2549  1.8541 -0.6514
  995THF     C812930   3.228   1.419   3.923  0.4043  0.3107 -0.3668
  995THF     C912931   3.371   1.374   3.934  0.1255 -0.0248 -0.0541
  995THF    H1012932   3.162   1.348   3.873  0.3592  0.6935 -0.8670
  995THF    H1112933   3.179   1.437   4.019 -1.3013  0.3707 -1.1956
  995THF    H1212934   3.433   1.426   4.007 -0.1948  0.4976 -0.1555
  995THF    H1312935   3.375   1.265   3.933  0.6910 -0.0546  1.7602
  996THF     O112936   4.501   4.635   5.163  0.2613 -0.0636  0.0550
  996THF     C212937   4.587   4.682   5.059 -0.1447  0.5642 -0.1741
  996THF     C312938   4.474   4.497   5.142 -0.8898 -0.4077  0.6369
  996THF     H412939   4.616   4.784   5.083  1.8989 -0.2854  1.2283
  996THF     H512940   4.523   4.688   4.970  0.8662 -0.3665 -0.9946
  996THF     H612941   4.425   4.446   5.225  0.8872 -2.9726  0.2289
  996THF     H712942   4.417   4.478   5.050  0.7108 -1.3253 -0.2132
  996THF     C812943   4.613   4.443   5.102  0.0089 -0.1977 -0.1894
  996THF     C912944   4.691   4.566   5.058  0.3870 -0.3710  0.0070
  996THF    H1012945   4.608   4.380   5.013  1.0170  1.0868 -1.1909
  996THF    H1112946   4.659   4.399   5.190  0.3263  0.1832 -0.1598
  996THF    H1212947   4.773   4.596   5.123 -0.3402  0.9392  0.3590
  996THF    H1312948   4.739   4.557   4.961  1.0983 -1.3567  0.4388
  997THF     O112949   0.001   2.384   5.270  0.5022  0.5104  0.6522
  997THF     C212950  -0.096   2.453   5.347 -0.1613  0.2292  0.1195
  997THF     C312951   0.109   2.470   5.241 -0.8909 -0.3725 -0.5349
  997THF     H412952  -0.063   2.455   5.451  0.7827 -2.4187 -0.0604
  997THF     H512953  -0.194   2.409   5.332 -0.4545  0.3879  1.4358
  997THF     H612954   0.200   2.459   5.300 -1.6566 -0.3518  0.6850
  997THF     H712955   0.119   2.467   5.133 -1.6241  0.7911 -0.6514
  997THF     C812956   0.053   2.609   5.261  0.5823 -0.6805  0.0429
  997THF     C912957  -0.088   2.585   5.281  0.0324 -0.2149  0.0970
  997THF    H1012958   0.069   2.670   5.172  0.0699  1.6720  1.4583
  997THF    H1112959   0.094   2.653   5.352  1.0221 -2.0247  0.5189
  997THF    H1212960  -0.138   2.663   5.339 -0.5187  0.8201 -1.7059
  997THF    H1312961  -0.150   2.581   5.192  0.2221  2.6305 -0.2419
  998THF     O112962   1.097   3.525   2.336 -0.8433 -0.2821  0.2240
  998THF     C212963   1.019   3.632   2.296  0.1027 -0.1701  0.0622
  998THF     C312964   1.228   3.555   2.286  0.5396 -0.7843 -0.0740
  998THF     H412965   1.030   3.729   2.344 -2.6686  1.1374 -1.7249
  998THF     H512966   0.914   3.607   2.305 -0.3125  0.9315 -1.3384
  998THF     H612967   1.269   3.636   2.346  2.5648 -0.5064 -1.7197
  998THF     H712968   1.293   3.468   2.295 -0.5605 -1.7300 -0.9633
  998THF     C812969   1.202   3.600   2.137  0.6213  0.2547  0.2855
  998THF     C912970   1.056   3.655   2.147  0.1922  0.3731 -0.5617
  998THF    H1012971   1.203   3.521   2.062 -0.1661  1.6472 -1.2505
  998THF    H1112972   1.270   3.680   2.106 -0.1592 -0.0748 -2.5372
  998THF    H1212973   1.046   3.760   2.122  0.3570  0.6038  0.3141
  998THF    H1312974   0.979   3.610   2.084  0.6153 -0.0467 -0.7878
  999THF     O112975   4.449   1.836   2.677  0.4016 -0.1055 -0.5614
  999THF     C212976   4.555   1.747   2.723 -0.7785  0.0085 -0.0231
  999THF     C312977   4.472   1.864   2.536 -0.6843  0.2871  0.1408
  999THF     H412978   4.487   1.692   2.787  0.3659  0.6678  1.8237
  999THF     H512979   4.628   1.808   2.776 -1.5465  0.1993  0.8334
  999THF     H612980   4.389   1.899   2.474 -1.6965 -0.9029  0.7749
  999THF     H712981   4.536   1.952   2.527  2.2632 -1.6845  0.4940
  999THF     C812982   4.535   1.736   2.484 -0.1307 -0.3279  0.5216
  999THF     C912983   4.616   1.673   2.598  0.2759  0.5742 -0.0680
  999THF    H1012984   4.599   1.751   2.397  0.1903  0.8084  0.9286
  999THF    H1112985   4.454   1.669   2.457 -0.0447  0.5570 -2.2440
  999THF    H1212986   4.608   1.564   2.596 -1.1489  0.6066  1.3967
  999THF    H1312987   4.721   1.702   2.592  1.2524 -1.6451  3.1353
 1000THF     O112988   1.167   4.913   4.076 -0.1921  0.3226 -0.5684
 1000THF     C212989   1.189   5.051   4.045  0.6263  0.3916 -0.0296
 1000THF     C312990   1.200   4.887   4.219 -0.3022  0.1379  0.0255
 1000THF     H412991   1.108   5.117   4.075 -0.4077 -1.3235  1.1080
 1000THF     H512992   1.198   5.064   3.937 -1.3995 -1.0701 -0.4250
 1000THF     H612993   1.119   4.863   4.289  0.4621  0.4757  1.0446
 1000THF     H712994   1.269   4.803   4.214 -0.6500 -0.1789  0.4314
 1000THF     C812995   1.284   5.007   4.257 -0.3526  0.4365  0.1990
 1000THF     C912996   1.310   5.074   4.115 -0.1042  0.1657  0.1351
 1000THF    H1012997   1.377   4.980   4.305 -0.1669 -1.0726 -0.9489
 1000THF    H1112998   1.226   5.075   4.320  0.5958  3.0719 -1.5992
 1000THF    H1212999   1.341   5.178   4.121  1.1968 -0.1862 -0.1140
 1000THF    H1313000   1.397   5.021   4.075  0.7110 -0.4454  2.5417
 1001THF     O113001   3.106   4.046   1.413 -0.0780 -0.0679  0.1576
 1001THF     C213002   2.992   4.085   1.337  0.6467  0.2563  0.7800
 1001THF     C313003   3.064   4.021   1.550 -0.6603  0.4788 -0.8481
 1001THF     H413004   3.014   4.072   1.231  0.2297  1.1902  0.5673
 1001THF     H513005   2.967   4.189   1.357 -0.0504  0.3203 -0.3858
 1001THF     H613006   3.137   3.951   1.591 -1.2493 -0.1944 -0.9239
 1001THF     H713007   3.055   4.115   1.604  2.8935  0.9257 -0.8145
 1001THF     C813008   2.928   3.951   1.530 -0.9024 -0.1715 -0.0679
 1001THF     C913009   2.889   3.983   1.386 -0.1184  0.1500 -0.4213
 1001THF    H1013010   2.855   3.993   1.599  2.9488  0.4076  4.2204
 1001THF    H1113011   2.932   3.844   1.550 -0.3414 -0.1049  0.2044
 1001THF    H1213012   2.900   3.890   1.331  2.6602 -0.0878  0.3826
 1001THF    H1313013   2.788   4.024   1.376 -0.2077 -0.2655 -1.2628
 1002THF     O113014   0.905   2.840   3.909  0.4731  0.2289 -0.5361
 1002THF     C213015   0.941   2.710   3.951  0.8023 -0.2471  0.3334
 1002THF     C313016   0.974   2.927   3.999  0.5490 -0.3999 -0.1311
 1002THF     H413017   1.048   2.699   3.935  1.0834  0.7822  1.3129
 1002THF     H513018   0.887   2.632   3.897 -2.4188 -0.0625  2.9697
 1002THF     H613019   1.083   2.923   3.996  0.6033  0.3934  0.5122
 1002THF     H713020   0.937   3.027   3.977 -0.4056 -1.1669 -2.3301
 1002THF     C813021   0.940   2.867   4.134  0.1882 -0.1478 -0.4002
 1002THF     C913022   0.913   2.723   4.104 -0.2654 -0.5764  0.2500
 1002THF    H1013023   0.849   2.909   4.175  0.1485 -0.3714 -0.2543
 1002THF    H1113024   1.019   2.888   4.206  0.1714  2.8082 -1.1371
 1002THF    H1213025   0.964   2.654   4.170 -1.6353 -1.8766  0.0079
 1002THF    H1313026   0.807   2.702   4.115  0.1587 -2.2339  1.6686
 1003THF     O113027   2.473   1.907   1.477  0.8326 -0.0526  1.1795
 1003THF     C213028   2.550   2.009   1.540  1.2939  0.4510  0.3045
 1003THF     C313029   2.351   1.967   1.440 -0.3677  0.2180 -0.1870
 1003THF     H413030   2.592   2.069   1.459  0.9281 -0.4751 -0.5936
 1003THF     H513031   2.620   1.960   1.608  1.6664  0.6495  0.0667
 1003THF     H613032   2.351   1.983   1.332 -2.3953  0.5721 -0.1788
 1003THF     H713033   2.270   1.899   1.467  0.7936  0.3489  4.4801
 1003THF     C813034   2.337   2.104   1.509 -0.2039 -0.2558 -0.0919
 1003THF     C913035   2.450   2.103   1.606  0.2640  0.1573  0.2094
 1003THF    H1013036   2.244   2.109   1.565 -0.9384 -1.4331 -1.1554
 1003THF    H1113037   2.344   2.182   1.434  0.6962 -1.4354 -1.2718
 1003THF    H1213038   2.494   2.199   1.632  0.1074  1.4814 -3.8099
 1003THF    H1313039   2.421   2.064   1.704  1.9949  0.2068  0.7730
 1004THF     O113040   3.326   2.612   1.000  0.0875 -0.1320 -0.5477
 1004THF     C213041   3.380   2.666   1.118 -0.3841  0.0450  0.2698
 1004THF     C313042   3.210   2.691   0.973 -0.2435 -0.1716 -0.7221
 1004THF     H413043   3.483   2.636   1.138 -0.7965 -2.4536 -1.0085
 1004THF     H513044   3.322   2.649   1.209  1.9416 -1.0384  1.6310
 1004THF     H613045   3.190   2.681   0.866  0.8667  1.3595 -1.1084
 1004THF     H713046   3.120   2.664   1.029 -0.1439  0.3969 -0.2799
 1004THF     C813047   3.248   2.831   1.021  0.2719 -0.0042  0.0887
 1004THF     C913048   3.375   2.814   1.102  0.3252 -0.8992 -0.6446
 1004THF    H1013049   3.166   2.868   1.082  0.1698  1.8146 -1.0800
 1004THF    H1113050   3.283   2.889   0.935 -0.9727 -1.6516 -1.6278
 1004THF    H1213051   3.461   2.854   1.048  0.4675  0.5336  0.5989
 1004THF    H1313052   3.363   2.871   1.193  1.1966 -0.5725 -0.7235
 1005THF     O113053   0.467   3.639   1.351 -0.5396  0.0272 -0.0532
 1005THF     C213054   0.526   3.752   1.421  0.6032  0.5955 -0.2764
 1005THF     C313055   0.462   3.527   1.441 -0.6702 -0.0544 -0.1219
 1005THF     H413056   0.436   3.797   1.464  0.6540 -0.6478  1.2071
 1005THF     H513057   0.568   3.831   1.358  2.8220 -3.8400 -5.1395
 1005THF     H613058   0.368   3.552   1.490 -1.0851  0.7771 -1.3000
 1005THF     H713059   0.449   3.432   1.390  2.1204  0.6969 -2.5366
 1005THF     C813060   0.592   3.537   1.529  0.7149 -0.4180 -0.3667
 1005THF     C913061   0.616   3.695   1.533 -0.6050  0.6322  0.6319
 1005THF    H1013062   0.671   3.491   1.470  2.0867  0.1327  0.9476
 1005THF    H1113063   0.594   3.495   1.630  2.0789  2.2785  0.8334
 1005THF    H1213064   0.599   3.738   1.632 -3.4529 -0.1785  0.5801
 1005THF    H1313065   0.715   3.712   1.490 -2.1486  0.5133 -3.4075
 1006THF     O113066   2.634   1.192   3.136 -0.7387 -0.3667 -0.5993
 1006THF     C213067   2.559   1.300   3.082  0.8697 -0.4492  0.1675
 1006THF     C313068   2.608   1.184   3.277 -0.0542  0.6163 -0.1606
 1006THF     H413069   2.455   1.272   3.064  0.4665  0.5973  0.7467
 1006THF     H513070   2.590   1.320   2.979  1.4369 -1.8996  0.0384
 1006THF     H613071   2.529   1.110   3.287  1.0918 -0.5286  0.7693
 1006THF     H713072   2.699   1.143   3.323 -0.2235 -2.3856 -2.2281
 1006THF     C813073   2.589   1.333   3.315 -0.0658  0.6507 -0.7142
 1006THF     C913074   2.612   1.398   3.180 -0.3458 -0.3617  0.0727
 1006THF    H1013075   2.657   1.362   3.395  0.0054 -1.1645 -0.0603
 1006THF    H1113076   2.489   1.339   3.359  1.0511 -0.2082  2.1350
 1006THF    H1213077   2.556   1.490   3.165  1.0562  0.5862  0.4294
 1006THF    H1313078   2.715   1.428   3.160 -0.9306  1.2885 -0.6039
 1007THF     O113079   4.349   2.073   4.414 -0.5879 -0.2847 -0.1418
 1007THF     C213080   4.444   1.980   4.460  0.8929 -0.2573 -0.0111
 1007THF     C313081   4.274   2.120   4.527  0.0478 -0.1019  0.0731
 1007THF     H413082   4.521   1.963   4.385  0.0951 -1.5952 -0.5693
 1007THF     H513083   4.400   1.881   4.475 -1.5779  0.3485 -2.4637
 1007THF     H613084   4.233   2.218   4.504 -0.6797 -0.6462 -1.0834
 1007THF     H713085   4.199   2.044   4.549  0.0949 -0.6038 -1.3692
 1007THF     C813086   4.380   2.130   4.637 -0.5071 -0.0021  0.0511
 1007THF     C913087   4.489   2.031   4.592 -0.3035 -0.3467 -0.0685
 1007THF    H1013088   4.344   2.109   4.737 -0.5329 -0.5366 -0.0668
 1007THF    H1113089   4.414   2.233   4.643 -2.6871  0.9753 -2.3174
 1007THF    H1213090   4.580   2.088   4.572 -1.3127  0.3340 -3.3674
 1007THF    H1313091   4.505   1.942   4.652  1.3247 -0.1389 -0.1379
 1008THF     O113092   3.594   3.677   0.002  0.1998 -0.3543  0.1818
 1008THF     C213093   3.530   3.554   0.020  0.3474 -0.3496 -0.7979
 1008THF     C313094   3.503   3.756  -0.078 -0.2998  0.1048  0.4218
 1008THF     H413095   3.575   3.502   0.105 -0.9994  0.0944  0.2226
 1008THF     H513096   3.551   3.487  -0.063 -0.4037 -0.6634 -0.7415
 1008THF     H613097   3.509   3.860  -0.047  2.4920  0.1366  0.0050
 1008THF     H713098   3.520   3.740  -0.185 -2.9396  0.1449 -0.0729
 1008THF     C813099   3.360   3.703  -0.043  0.1197 -0.0076  0.3179
 1008THF     C913100   3.377   3.583   0.050 -0.1684 -0.0548  0.9835
 1008THF    H1013101   3.306   3.668  -0.131 -1.8792 -0.0506  1.4951
 1008THF    H1113102   3.304   3.790  -0.007 -3.6449 -1.0400 -2.4034
 1008THF    H1213103   3.356   3.608   0.154  1.2782 -0.3447  1.3779
 1008THF    H1313104   3.326   3.495   0.012  2.1058 -0.1852 -2.2037
 1009THF     O113105   2.532   2.162   2.343 -0.1495 -0.0639 -0.2106
 1009THF     C213106   2.445   2.262   2.388  0.5386  0.4409  0.0591
 1009THF     C313107   2.457   2.065   2.265 -0.7138  0.1583  0.3349
 1009THF     H413108   2.481   2.343   2.451 -0.7877  0.3110  1.0251
 1009THF     H513109   2.372   2.212   2.451  1.0516 -0.6588 -0.1756
 1009THF     H613110   2.518   2.009   2.194  2.5405  0.5681  2.6300
 1009THF     H713111   2.403   1.996   2.328  0.7447 -0.9651  0.3930
 1009THF     C813112   2.367   2.163   2.183 -0.0366 -0.2903 -0.4889
 1009THF     C913113   2.377   2.295   2.257 -0.2587  0.5670 -0.1192
 1009THF    H1013114   2.271   2.113   2.191 -1.3463  1.9324 -1.4118
 1009THF    H1113115   2.404   2.176   2.081  0.9589  2.8393  0.1657
 1009THF    H1213116   2.451   2.357   2.207  0.9133  0.2383  1.1620
 1009THF    H1313117   2.282   2.345   2.277 -0.3951 -0.0758  0.9594
 1010THF     O113118   2.128   2.258   1.053 -0.7518 -0.7209 -0.4687
 1010THF     C213119   2.130   2.374   1.147 -0.1377  0.6639  0.8309
 1010THF     C313120   2.060   2.286   0.936  0.0187 -0.8279 -0.1584
 1010THF     H413121   2.228   2.380   1.195  0.1481  0.4744  0.2793
 1010THF     H513122   2.040   2.360   1.206 -0.2953 -1.1999  0.2205
 1010THF     H613123   2.079   2.218   0.853  0.8748 -0.5558 -0.1937
 1010THF     H713124   1.958   2.265   0.966 -0.6442  1.9766 -0.1757
 1010THF     C813125   2.082   2.433   0.912 -0.4518  0.5305 -0.1162
 1010THF     C913126   2.115   2.494   1.048 -0.1980  0.2728  0.5269
 1010THF    H1013127   1.992   2.483   0.875 -1.7340 -0.1231  1.9756
 1010THF    H1113128   2.165   2.449   0.843  0.9465 -1.2006  1.1075
 1010THF    H1213129   2.207   2.552   1.043 -0.8188  1.1855 -1.8152
 1010THF    H1313130   2.031   2.557   1.079 -1.3579 -0.7822 -0.4110
 1011THF     O113131   3.127   1.603   5.253  0.8241  0.0739  0.3279
 1011THF     C213132   3.187   1.481   5.218  0.2041 -0.5541  0.3498
 1011THF     C313133   3.110   1.679   5.134 -0.0859 -0.7000  0.7325
 1011THF     H413134   3.117   1.406   5.254 -0.1759 -0.1322  0.5049
 1011THF     H513135   3.290   1.483   5.253  0.3653 -1.5033 -0.0389
 1011THF     H613136   3.015   1.732   5.140 -0.9082 -2.1221  0.6995
 1011THF     H713137   3.196   1.747   5.129 -0.5176 -0.2358 -3.6557
 1011THF     C813138   3.098   1.585   5.021  0.0151  0.2747  0.1054
 1011THF     C913139   3.192   1.479   5.067  0.4400  0.1358 -0.0564
 1011THF    H1013140   3.124   1.607   4.917 -0.6372 -2.3417 -0.6951
 1011THF    H1113141   2.998   1.543   5.015  0.8478 -1.8640  0.2277
 1011THF    H1213142   3.174   1.378   5.032  3.1694 -0.9673  1.4087
 1011THF    H1313143   3.293   1.504   5.032  1.2500 -0.4585  1.7441
 1012THF     O113144   0.229   3.506   2.186 -0.3228  0.1528 -1.3367
 1012THF     C213145   0.162   3.515   2.308 -0.2143 -0.0986  0.5361
 1012THF     C313146   0.124   3.481   2.090 -0.5990  0.2995 -0.2207
 1012THF     H413147   0.107   3.606   2.332  3.0662  1.6958  1.9806
 1012THF     H513148   0.234   3.497   2.388  0.2737  2.2813  0.7172
 1012THF     H613149   0.067   3.573   2.078  0.0678  1.0779  2.0152
 1012THF     H713150   0.166   3.446   1.996 -1.1111 -1.2556  0.0905
 1012THF     C813151   0.041   3.379   2.161 -0.8579  1.1494 -0.3494
 1012THF     C913152   0.065   3.402   2.308  0.6321 -0.1198  0.3536
 1012THF    H1013153   0.050   3.271   2.144  2.8867  0.6647  3.0881
 1012THF    H1113154  -0.062   3.407   2.140 -1.1271 -0.0018 -0.6209
 1012THF    H1213155  -0.036   3.416   2.346  0.3856 -0.1038 -0.2945
 1012THF    H1313156   0.100   3.313   2.360  0.7896 -0.4000 -0.2188
 1013THF     O113157   5.424   5.268   4.623 -0.1850 -0.1595  0.1477
 1013THF     C213158   5.475   5.186   4.519  0.2885  0.2614  0.1908
 1013THF     C313159   5.497   5.395   4.607  0.2036 -0.0077  0.1664
 1013THF     H413160   5.421   5.217   4.430 -0.2327 -1.6514 -0.2081
 1013THF     H513161   5.446   5.083   4.538 -0.8118  0.5704  0.2023
 1013THF     H613162   5.441   5.455   4.535  0.2585 -0.8712 -0.6153
 1013THF     H713163   5.487   5.449   4.701  1.6900  1.0258 -0.2402
 1013THF     C813164   5.638   5.355   4.559 -0.2199 -0.9641 -0.4649
 1013THF     C913165   5.626   5.208   4.501  1.1050 -0.4074  0.2248
 1013THF    H1013166   5.699   5.352   4.648 -1.1290  1.2089  0.2987
 1013THF    H1113167   5.673   5.427   4.484  0.5013  0.4021  1.1264
 1013THF    H1213168   5.655   5.205   4.396  2.1471 -1.9150  0.5307
 1013THF    H1313169   5.690   5.136   4.551  1.5838 -0.7431 -0.8429
 1014THF     O113170   3.220   0.419   2.743 -0.2784 -0.1997 -0.5746
 1014THF     C213171   3.292   0.430   2.868  0.1280  0.3970 -0.3816
 1014THF     C313172   3.240   0.538   2.668 -0.1678 -0.3037  0.4851
 1014THF     H413173   3.306   0.337   2.924 -2.7315  0.4532  0.5678
 1014THF     H513174   3.252   0.512   2.927  2.4866  1.8301 -0.6167
 1014THF     H613175   3.230   0.525   2.561  3.0445 -0.6691  0.1417
 1014THF     H713176   3.178   0.620   2.704  0.6183  1.1039 -1.2645
 1014THF     C813177   3.387   0.578   2.707  0.3354  0.0385  0.5045
 1014THF     C913178   3.429   0.488   2.828 -0.6191 -0.1384  0.1273
 1014THF    H1013179   3.398   0.684   2.729  0.2572  0.1718 -0.0800
 1014THF    H1113180   3.453   0.560   2.622  0.5997 -0.0945  0.7358
 1014THF    H1213181   3.496   0.408   2.796  1.6837  1.5093  0.5751
 1014THF    H1313182   3.481   0.539   2.909 -1.0070  2.8339 -1.3601
 1015THF     O113183   1.497   2.992   4.080 -0.2112  0.4003  0.7845
 1015THF     C213184   1.355   2.957   4.076  0.0938 -0.4688 -0.1880
 1015THF     C313185   1.566   2.880   4.144  0.5625  0.0907  0.4027
 1015THF     H413186   1.313   3.032   4.008  0.6714  2.0140  2.0148
 1015THF     H513187   1.317   2.991   4.172  2.3319  0.7664  0.3587
 1015THF     H613188   1.671   2.898   4.117 -0.4954  3.3867 -2.2698
 1015THF     H713189   1.552   2.888   4.252  1.0669 -1.8584  0.6499
 1015THF     C813190   1.490   2.759   4.091 -0.2350 -0.3419  0.1732
 1015THF     C913191   1.349   2.805   4.066 -0.6479  0.0622 -0.3009
 1015THF    H1013192   1.499   2.682   4.167  0.7193  1.7759  2.3510
 1015THF    H1113193   1.529   2.713   4.000  1.1579 -2.0248  1.5637
 1015THF    H1213194   1.330   2.777   3.962 -0.3741  0.8292 -0.5641
 1015THF    H1313195   1.260   2.758   4.108 -0.5827  0.2271  0.0176
 1016THF     O113196   1.659   0.156   1.870 -0.2452 -0.1618 -1.2347
 1016THF     C213197   1.525   0.185   1.841 -0.0684 -0.3289  0.9012
 1016THF     C313198   1.688   0.249   1.978 -0.0875 -0.0622  0.0163
 1016THF     H413199   1.479   0.093   1.804 -0.9775  1.3298 -2.4374
 1016THF     H513200   1.508   0.249   1.754 -0.4144 -1.3348  0.2109
 1016THF     H613201   1.783   0.220   2.023 -0.0695 -0.4236 -0.2490
 1016THF     H713202   1.712   0.346   1.934  2.4572 -0.5519  0.1588
 1016THF     C813203   1.567   0.239   2.070 -0.3044  0.2105 -0.1194
 1016THF     C913204   1.458   0.249   1.970 -0.1711  0.8043  0.7679
 1016THF    H1013205   1.553   0.315   2.148 -1.9584 -0.2244  0.0592
 1016THF    H1113206   1.574   0.143   2.121  1.2289  0.6074  0.4793
 1016THF    H1213207   1.361   0.203   1.990 -0.9987  1.1587 -1.9628
 1016THF    H1313208   1.437   0.355   1.955  0.3918  1.0575  1.6584
 1017THF     O113209   4.488   1.113   0.210 -0.4050  0.4024 -0.3649
 1017THF     C213210   4.585   1.100   0.101 -0.6554 -0.4619  0.7899
 1017THF     C313211   4.369   1.052   0.157 -1.1148 -0.1581 -0.3121
 1017THF     H413212   4.688   1.127   0.123 -0.0811  1.7782 -3.4974
 1017THF     H513213   4.553   1.160   0.016  3.1200  3.5836  1.8886
 1017THF     H613214   4.294   1.037   0.234 -0.2175  0.0258  0.6235
 1017THF     H713215   4.332   1.114   0.075  3.2333  0.6256 -1.9554
 1017THF     C813216   4.426   0.922   0.106  0.0579  0.3853  0.2082
 1017THF     C913217   4.569   0.951   0.073 -0.6047 -0.8047 -0.8088
 1017THF    H1013218   4.377   0.900   0.011  4.2011 -1.2964 -1.7562
 1017THF    H1113219   4.412   0.843   0.180  0.0492 -0.2148 -0.4239
 1017THF    H1213220   4.637   0.894   0.136 -2.3220 -0.4254  1.5370
 1017THF    H1313221   4.568   0.927  -0.033  0.0651 -3.5523 -0.2624
 1018THF     O113222   5.293   1.762   0.956  0.3041  0.4363  0.3808
 1018THF     C213223   5.325   1.897   0.972 -0.6246 -0.3045  0.1901
 1018THF     C313224   5.384   1.693   1.035 -0.6522 -0.0649  0.4528
 1018THF     H413225   5.241   1.960   0.945  1.3917  1.5740 -2.1853
 1018THF     H513226   5.410   1.927   0.911  0.2100 -2.9335 -0.0898
 1018THF     H613227   5.345   1.591   1.039  1.1446 -0.7478  1.6601
 1018THF     H713228   5.485   1.711   0.999 -0.2720  0.1421  1.5776
 1018THF     C813229   5.370   1.768   1.165  0.3147  0.3940 -0.7252
 1018THF     C913230   5.339   1.906   1.121  0.3180 -0.2350  0.6345
 1018THF    H1013231   5.462   1.770   1.224 -0.3956  0.2980  0.4253
 1018THF    H1113232   5.291   1.725   1.227  1.4014  4.9210  4.5462
 1018THF    H1213233   5.239   1.921   1.161 -0.7200 -2.0124 -1.1365
 1018THF    H1313234   5.405   1.991   1.140 -0.4247  1.0582 -1.9621
 1019THF     O113235   0.237   0.165   4.856 -0.3142 -0.2867 -0.1834
 1019THF     C213236   0.371   0.167   4.914  0.1620  0.1084  0.0971
 1019THF     C313237   0.147   0.110   4.952 -0.3687  0.2915 -0.3895
 1019THF     H413238   0.400   0.253   4.974  1.5287 -0.7551  0.7260
 1019THF     H513239   0.449   0.148   4.840 -0.2918  1.6509 -0.8301
 1019THF     H613240   0.123   0.182   5.029 -0.8694  0.5197 -0.7535
 1019THF     H713241   0.057   0.069   4.906 -1.9406  3.2728 -0.2290
 1019THF     C813242   0.233  -0.003   5.000  0.2075 -0.0624 -0.3867
 1019THF     C913243   0.373   0.056   5.016  0.7449  0.0253  0.2131
 1019THF    H1013244   0.245  -0.076   4.920  0.1171 -2.1465  1.3913
 1019THF    H1113245   0.196  -0.049   5.092 -1.2991  0.4757 -0.6990
 1019THF    H1213246   0.375   0.102   5.115 -0.5193  0.1606  0.1932
 1019THF    H1313247   0.450  -0.020   5.002 -0.0378 -0.4805 -1.5813
 1020THF     O113248   4.477   1.269   0.705 -0.4335 -0.2027  0.0809
 1020THF     C213249   4.359   1.224   0.768  0.6023  0.1072 -0.0244
 1020THF     C313250   4.553   1.341   0.810  0.2917  0.6279  0.4248
 1020THF     H413251   4.314   1.144   0.709 -2.6087  0.6664  1.4373
 1020THF     H513252   4.289   1.307   0.776 -1.5992 -1.7670  1.5320
 1020THF     H613253   4.659   1.340   0.788  0.5205 -3.2680  0.9387
 1020THF     H713254   4.517   1.440   0.839 -1.2452  0.5245 -0.9785
 1020THF     C813255   4.542   1.246   0.925 -0.0641 -0.7839 -0.1491
 1020THF     C913256   4.405   1.177   0.908 -0.5936  0.2136 -0.0764
 1020THF    H1013257   4.534   1.305   1.017  2.4159 -0.2168 -0.2530
 1020THF    H1113258   4.620   1.171   0.931 -0.3379 -1.2957 -2.1993
 1020THF    H1213259   4.423   1.070   0.916  1.0562  0.3418 -1.4638
 1020THF    H1313260   4.336   1.202   0.989 -0.2732  1.9054 -0.2831
 1021THF     O113261   2.230   1.123   0.865 -0.0079 -0.1417 -0.2375
 1021THF     C213262   2.091   1.153   0.871 -0.6685  0.5710 -0.1390
 1021THF     C313263   2.261   1.089   1.003 -0.0994  0.1337 -0.1633
 1021THF     H413264   2.049   1.168   0.772 -1.9489 -1.0716  0.1215
 1021THF     H513265   2.085   1.252   0.916 -0.9693  0.6631 -0.3805
 1021THF     H613266   2.358   1.044   1.022  0.0587  1.7137  3.5565
 1021THF     H713267   2.261   1.173   1.073 -1.0167 -1.8631  2.3918
 1021THF     C813268   2.142   0.999   1.041 -0.1204  0.1563 -0.0705
 1021THF     C913269   2.031   1.042   0.953  0.4669  0.0518 -0.1331
 1021THF    H1013270   2.119   1.020   1.146 -0.7133  1.6703 -0.4798
 1021THF    H1113271   2.170   0.894   1.043  2.5379  0.7469 -1.7024
 1021THF    H1213272   2.009   0.954   0.893 -0.7527 -0.0206  0.3965
 1021THF    H1313273   1.937   1.076   0.997 -0.7229  2.4544 -4.0379
 1022THF     O113274   1.108   1.818   4.039 -0.2931  0.7078 -0.1272
 1022THF     C213275   1.106   1.766   4.171 -0.2933  0.6521  0.2789
 1022THF     C313276   1.001   1.905   4.022  0.5558 -1.3180  0.5015
 1022THF     H413277   1.147   1.830   4.249  1.8679  0.1458 -0.3851
 1022THF     H513278   1.153   1.668   4.185 -0.6233  0.2527 -1.2451
 1022THF     H613279   1.033   2.005   4.052  1.2544 -0.8869 -1.5350
 1022THF     H713280   0.956   1.908   3.923  0.4488  0.2274  0.5691
 1022THF     C813281   0.886   1.855   4.116  0.3434 -0.4216  0.0373
 1022THF     C913282   0.963   1.745   4.194  0.3654  0.2206  0.1604
 1022THF    H1013283   0.801   1.806   4.070  0.3364 -1.2336  0.8888
 1022THF    H1113284   0.849   1.926   4.190  0.4502  0.2715 -0.5640
 1022THF    H1213285   0.943   1.747   4.301 -0.7163 -1.4540  0.0230
 1022THF    H1313286   0.923   1.648   4.162 -0.0259  0.1942  0.7209
 1023THF     O113287   4.513   2.109   5.452 -0.0173  0.5878 -0.1540
 1023THF     C213288   4.546   2.133   5.589  0.3518  0.6266  0.3019
 1023THF     C313289   4.400   2.023   5.451 -0.0490  0.3810 -0.6549
 1023THF     H413290   4.460   2.192   5.619 -1.6079 -0.8389 -2.0340
 1023THF     H513291   4.635   2.192   5.611  0.4532  0.0573  1.4597
 1023THF     H613292   4.314   2.086   5.473 -1.4335 -0.9437 -2.0017
 1023THF     H713293   4.386   1.971   5.356  0.5895  0.9850 -1.0937
 1023THF     C813294   4.425   1.925   5.570 -0.6708 -0.5925 -0.8226
 1023THF     C913295   4.536   1.991   5.652 -0.0804 -0.0719 -0.6237
 1023THF    H1013296   4.456   1.824   5.544  0.0465 -0.4033 -0.7416
 1023THF    H1113297   4.331   1.925   5.624 -1.2018  1.5531 -1.6404
 1023THF    H1213298   4.524   1.993   5.760  1.3838  1.1017 -0.4456
 1023THF    H1313299   4.624   1.932   5.627 -0.0175 -0.5830  0.7278
 1024THF     O113300   0.149   3.630   5.041  0.7082 -0.1356  0.2396
 1024THF     C213301   0.103   3.635   5.176  0.4490  0.3185 -0.1031
 1024THF     C313302   0.280   3.587   5.037 -0.2736 -0.6695  0.7844
 1024THF     H413303   0.080   3.535   5.210  0.9639  0.3075  0.2301
 1024THF     H513304   0.014   3.697   5.183 -0.3483 -0.7574 -0.5457
 1024THF     H613305   0.291   3.479   5.045  0.0639 -0.6820  0.2111
 1024THF     H713306   0.326   3.618   4.943  1.4250 -2.0873  1.0941
 1024THF     C813307   0.337   3.666   5.154  0.6663  0.0408 -0.3264
 1024THF     C913308   0.223   3.688   5.257 -0.7721 -0.2660  1.2432
 1024THF    H1013309   0.358   3.760   5.102  0.2807 -0.7948 -2.0680
 1024THF    H1113310   0.436   3.646   5.194  0.2047 -0.0438  0.7985
 1024THF    H1213311   0.236   3.624   5.345 -0.4974 -1.7690  0.1651
 1024THF    H1313312   0.224   3.791   5.292  1.3033  0.7547 -1.4748
 1025THF     O113313   2.038   2.023   0.294 -0.0717  0.2334 -0.2995
 1025THF     C213314   2.051   1.981   0.155  0.3584  0.3365 -0.4425
 1025THF     C313315   2.079   2.157   0.298  0.1394  0.6756 -0.1132
 1025THF     H413316   1.957   1.940   0.116  0.1885 -0.7343  1.0116
 1025THF     H513317   2.113   1.891   0.148  0.8139  0.6367 -0.3241
 1025THF     H613318   1.984   2.210   0.293 -0.2894 -0.1607 -1.2906
 1025THF     H713319   2.136   2.186   0.387  0.4506 -0.4758  0.0835
 1025THF     C813320   2.159   2.192   0.172 -0.0470 -0.2374  0.4260
 1025THF     C913321   2.103   2.094   0.068  0.4882 -0.1328  0.5418
 1025THF    H1013322   2.265   2.171   0.172 -0.2840 -1.5229  1.1334
 1025THF    H1113323   2.139   2.295   0.142 -1.2629  0.2882  2.7539
 1025THF    H1213324   2.019   2.139   0.015  0.4020  0.5845  1.2673
 1025THF    H1313325   2.177   2.065  -0.005 -0.8960  3.1658 -2.4724
 1026THF     O113326   4.545   1.778   1.446  0.2556 -0.2875  0.1025
 1026THF     C213327   4.613   1.660   1.487 -0.2581  0.7306 -0.4803
 1026THF     C313328   4.487   1.757   1.318  0.3858  0.5538  0.2491
 1026THF     H413329   4.603   1.662   1.595  0.9154  3.8102 -0.3051
 1026THF     H513330   4.715   1.675   1.450 -0.6777  0.9996 -1.5834
 1026THF     H613331   4.404   1.824   1.296 -0.6428 -1.5639 -2.9335
 1026THF     H713332   4.564   1.764   1.240 -1.8994 -0.2179 -2.2288
 1026THF     C813333   4.435   1.608   1.329  0.2542 -0.3431  0.0514
 1026THF     C913334   4.541   1.544   1.420 -0.0750  0.0747 -0.6564
 1026THF    H1013335   4.431   1.556   1.234  0.4061  0.8906 -0.6532
 1026THF    H1113336   4.341   1.614   1.384 -0.6274  1.7889 -1.5605
 1026THF    H1213337   4.504   1.461   1.480  1.6200 -1.3870 -1.5391
 1026THF    H1313338   4.612   1.496   1.353 -0.8821 -0.5819 -1.0599
 1027THF     O113339   3.153   3.269   5.396  0.0685 -0.2647  0.4674
 1027THF     C213340   3.064   3.312   5.294  0.0640  0.0476  0.0379
 1027THF     C313341   3.084   3.285   5.519 -0.0754  0.5366 -0.0334
 1027THF     H413342   3.091   3.256   5.204  0.0963 -1.5933  1.0377
 1027THF     H513343   3.072   3.418   5.267 -2.0644 -0.0967 -1.4332
 1027THF     H613344   3.100   3.198   5.582 -0.4180  0.6987  0.2766
 1027THF     H713345   3.127   3.371   5.569  2.1107 -1.4317  1.6952
 1027THF     C813346   2.933   3.291   5.489  0.6551 -0.0570  0.3854
 1027THF     C913347   2.922   3.264   5.336  0.7081 -0.4241  0.6589
 1027THF    H1013348   2.881   3.383   5.516 -1.6391 -1.2009  0.1585
 1027THF    H1113349   2.861   3.220   5.530 -0.3687  0.0512 -1.1172
 1027THF    H1213350   2.901   3.160   5.310 -0.2636 -0.6279  2.1649
 1027THF    H1313351   2.845   3.326   5.289  0.2213 -0.2707  1.6319
 1028THF     O113352   0.368   4.898   0.134  0.5067  0.1519  0.7271
 1028THF     C213353   0.505   4.928   0.118 -0.4236 -0.1210 -0.4435
 1028THF     C313354   0.358   4.754   0.125  0.2201  0.0189 -0.7250
 1028THF     H413355   0.543   5.024   0.152 -1.9701  0.4363 -0.2153
 1028THF     H513356   0.521   4.921   0.010 -1.8788  0.9518 -0.7578
 1028THF     H613357   0.261   4.721   0.162  0.8848  0.3733  1.4920
 1028THF     H713358   0.356   4.726   0.019 -2.2434  0.0533 -0.7460
 1028THF     C813359   0.485   4.707   0.198 -0.7964  0.1613  0.2658
 1028THF     C913360   0.593   4.804   0.166 -0.2814 -0.0578 -0.1154
 1028THF    H1013361   0.499   4.603   0.167 -0.1040  0.2759  0.1810
 1028THF    H1113362   0.455   4.702   0.302 -1.3169 -1.6878  0.0711
 1028THF    H1213363   0.656   4.818   0.253 -0.3915  0.8746 -0.1765
 1028THF    H1313364   0.657   4.779   0.082  0.4401  2.2542 -0.3209
 1029THF     O113365   3.052   2.147   1.038 -0.3065  0.0736 -0.0199
 1029THF     C213366   2.950   2.234   0.997  0.2024 -0.1630 -0.0535
 1029THF     C313367   3.123   2.191   1.148  0.0184 -0.2377 -0.4619
 1029THF     H413368   2.856   2.182   0.979  0.3776  0.0335 -1.5896
 1029THF     H513369   2.982   2.274   0.901  0.4673  3.3406  1.3192
 1029THF     H613370   3.091   2.156   1.246  0.9299  3.6101  1.4192
 1029THF     H713371   3.230   2.170   1.137  0.4305  1.5225 -0.1887
 1029THF     C813372   3.080   2.339   1.158  0.1052  0.3475 -0.2828
 1029THF     C913373   2.936   2.337   1.102 -0.2255  0.1837 -0.2985
 1029THF    H1013374   3.140   2.402   1.092  2.3021 -0.1494  1.1318
 1029THF    H1113375   3.073   2.375   1.260 -1.5730 -0.9726  0.1076
 1029THF    H1213376   2.858   2.307   1.172 -0.1853 -0.0955 -0.3735
 1029THF    H1313377   2.912   2.436   1.064 -1.1801  0.2411  0.4070
 1030THF     O113378   3.495   2.908   0.622 -0.2950  0.4460 -0.0427
 1030THF     C213379   3.417   2.796   0.633  0.6283 -0.5370 -0.0330
 1030THF     C313380   3.627   2.863   0.603  0.4986 -0.0069  0.1019
 1030THF     H413381   3.393   2.758   0.534  0.0772 -2.3823  0.7395
 1030THF     H513382   3.324   2.816   0.686  0.9844  1.9245 -0.2546
 1030THF     H613383   3.646   2.823   0.503  1.2757 -0.8653  0.5781
 1030THF     H713384   3.710   2.926   0.635  0.7234 -1.1381  1.9247
 1030THF     C813385   3.638   2.731   0.688 -0.1999  0.3753  0.0416
 1030THF     C913386   3.492   2.688   0.708 -0.0850  0.0283  0.3521
 1030THF    H1013387   3.693   2.737   0.782 -2.0126 -0.1218  1.1828
 1030THF    H1113388   3.700   2.654   0.642  0.1186  1.0139 -0.6010
 1030THF    H1213389   3.470   2.590   0.666 -1.3810  0.8927 -1.0879
 1030THF    H1313390   3.464   2.699   0.813  1.1001  0.6743  0.6258
 1031THF     O113391   3.620   1.198   5.004 -0.6847  0.6301 -0.4408
 1031THF     C213392   3.499   1.237   4.945 -0.2186  0.0306  0.1447
 1031THF     C313393   3.597   1.188   5.150  0.6874  0.1660  0.9293
 1031THF     H413394   3.511   1.222   4.838 -0.8492 -1.3675  0.2519
 1031THF     H513395   3.473   1.341   4.965 -1.3774 -0.7151  2.9179
 1031THF     H613396   3.655   1.101   5.182  1.0447 -0.3628 -1.0296
 1031THF     H713397   3.634   1.278   5.200 -0.1410  0.5387  0.8802
 1031THF     C813398   3.446   1.167   5.159 -0.0413  0.3277  0.2147
 1031THF     C913399   3.399   1.149   5.016  0.0481 -0.0723 -0.1493
 1031THF    H1013400   3.407   1.256   5.208 -0.2472  0.4480 -0.1582
 1031THF    H1113401   3.419   1.083   5.223 -1.7700 -0.1946 -1.1037
 1031THF    H1213402   3.406   1.048   4.976 -0.8540  0.5248 -1.9536
 1031THF    H1313403   3.291   1.164   5.004  0.0243  1.7180  1.7404
 1032THF     O113404   1.332   4.596   3.248  0.4972  0.3377  0.3333
 1032THF     C213405   1.474   4.615   3.266 -0.1984 -0.5631 -0.5921
 1032THF     C313406   1.302   4.607   3.104  0.0143 -0.2538  0.3111
 1032THF     H413407   1.508   4.580   3.364  0.3967  2.1258  0.2520
 1032THF     H513408   1.493   4.722   3.276  1.7324 -0.9570  0.5684
 1032THF     H613409   1.233   4.524   3.087 -0.4607 -0.1344  1.5741
 1032THF     H713410   1.267   4.705   3.073  1.6936  0.1495 -0.4337
 1032THF     C813411   1.436   4.596   3.039 -0.4700 -0.0595  0.6063
 1032THF     C913412   1.527   4.541   3.145 -0.0462 -0.5562 -0.3745
 1032THF    H1013413   1.475   4.696   3.022  2.5491 -0.9322  1.7255
 1032THF    H1113414   1.434   4.537   2.947 -1.9499  0.4468  0.2848
 1032THF    H1213415   1.523   4.433   3.143  0.1986 -0.5693 -0.1969
 1032THF    H1313416   1.628   4.576   3.119 -1.0176  1.4889 -1.7359
 1033THF     O113417   3.065   0.639   0.697 -0.1373 -0.4781 -0.6410
 1033THF     C213418   2.926   0.662   0.695 -0.0449 -0.4297  0.2582
 1033THF     C313419   3.110   0.705   0.813  0.1662  0.1914 -0.7736
 1033THF     H413420   2.873   0.586   0.638 -0.9931  0.7627 -0.5247
 1033THF     H513421   2.893   0.756   0.649  0.7205 -0.8520 -1.1979
 1033THF     H613422   3.209   0.665   0.836  0.7453  1.0002 -1.7498
 1033THF     H713423   3.120   0.811   0.787  1.2497  0.2440 -0.1916
 1033THF     C813424   3.012   0.660   0.916  0.3124 -0.1309 -0.0284
 1033THF     C913425   2.878   0.657   0.838  0.3342 -0.0670  0.1340
 1033THF    H1013426   3.011   0.718   1.009  0.8015 -1.0710  0.5802
 1033THF    H1113427   3.040   0.559   0.946 -1.1994 -0.6774 -0.3698
 1033THF    H1213428   2.834   0.566   0.879  0.6306 -0.4233 -0.3344
 1033THF    H1313429   2.812   0.739   0.866  2.3468  1.9280 -0.7255
 1034THF     O113430   3.759   4.319   0.608 -0.0400  0.3988 -0.4687
 1034THF     C213431   3.690   4.240   0.704 -0.6227 -0.2359 -0.3066
 1034THF     C313432   3.715   4.293   0.481 -0.1607  0.0717 -0.1206
 1034THF     H413433   3.601   4.287   0.747  1.2269  1.1095  2.2595
 1034THF     H513434   3.757   4.211   0.785 -0.6610 -0.2713 -0.2871
 1034THF     H613435   3.614   4.332   0.470 -0.0995  0.5015  0.7555
 1034THF     H713436   3.765   4.331   0.392 -2.0801 -0.3792 -1.4390
 1034THF     C813437   3.707   4.139   0.491  0.1246  0.2614 -0.5480
 1034THF     C913438   3.649   4.113   0.631 -0.6941  0.8095  0.1872
 1034THF    H1013439   3.807   4.094   0.487  0.0013 -0.0723 -0.0733
 1034THF    H1113440   3.653   4.107   0.403  1.3133  0.6434 -1.4379
 1034THF    H1213441   3.540   4.112   0.630 -0.7173  2.1381 -0.3096
 1034THF    H1313442   3.682   4.018   0.673 -1.4116  1.0010  1.2551
 1035THF     O113443   3.608   2.069   1.213 -0.0845  0.4852  0.3302
 1035THF     C213444   3.489   2.015   1.268  0.6720  0.0266  0.4483
 1035THF     C313445   3.668   1.974   1.127  0.6997 -0.9736  0.1633
 1035THF     H413446   3.401   2.048   1.212 -0.0047  1.0557  2.0367
 1035THF     H513447   3.456   2.049   1.366 -0.5843 -2.6901  1.0771
 1035THF     H613448   3.614   1.976   1.032 -1.5106 -0.6369  1.3433
 1035THF     H713449   3.773   1.996   1.108  0.6477 -1.0395 -0.2176
 1035THF     C813450   3.650   1.846   1.206 -0.2892  0.1751 -0.1730
 1035THF     C913451   3.522   1.867   1.278  0.7259  0.7844  0.2094
 1035THF    H1013452   3.730   1.833   1.279 -0.1576  1.0393 -0.1553
 1035THF    H1113453   3.651   1.760   1.138  2.2944  1.8878 -2.5093
 1035THF    H1213454   3.442   1.805   1.238  0.1870  2.2707 -1.1202
 1035THF    H1313455   3.528   1.820   1.376 -2.0157 -0.6059 -0.1875
 1036THF     O113456   4.066   5.478   1.490  0.1086  0.2364 -0.6384
 1036THF     C213457   4.185   5.554   1.517  0.0016 -0.0900  0.6896
 1036THF     C313458   3.986   5.466   1.609  0.7630 -0.1413 -1.3692
 1036THF     H413459   4.221   5.602   1.426  0.6539  0.4583  1.2188
 1036THF     H513460   4.272   5.497   1.552  0.7944 -0.2220 -1.3309
 1036THF     H613461   3.882   5.433   1.601  1.0926 -1.8241  0.5459
 1036THF     H713462   4.033   5.395   1.676 -1.2594  0.5252  0.9398
 1036THF     C813463   4.008   5.607   1.666 -0.2889  0.4222 -0.7962
 1036THF     C913464   4.138   5.658   1.610 -0.4611  0.4218  0.1732
 1036THF    H1013465   4.018   5.607   1.775 -0.3567 -0.1814 -0.7872
 1036THF    H1113466   3.932   5.676   1.631  0.1044  0.8702 -0.7808
 1036THF    H1213467   4.125   5.755   1.560  1.4479 -0.1937 -1.6682
 1036THF    H1313468   4.214   5.679   1.685  0.3855  0.6744 -0.7381
 1037THF     O113469   4.010   3.175   3.196 -0.7910  0.3250  0.3133
 1037THF     C213470   4.122   3.211   3.117 -0.1681 -0.0281  0.1289
 1037THF     C313471   4.028   3.208   3.328 -0.3649 -0.2175 -0.1656
 1037THF     H413472   4.101   3.215   3.011  2.9852 -1.5029 -0.6838
 1037THF     H513473   4.200   3.136   3.130  0.6858  1.1161  2.0900
 1037THF     H613474   3.927   3.192   3.368  0.0601 -2.1302  0.2521
 1037THF     H713475   4.101   3.141   3.372 -0.5118 -0.9877 -1.0699
 1037THF     C813476   4.078   3.343   3.324  0.3787 -0.5008 -0.2469
 1037THF     C913477   4.167   3.334   3.196 -0.2415  0.3813  0.1629
 1037THF    H1013478   4.124   3.376   3.417 -1.2841  2.2680 -0.3162
 1037THF    H1113479   3.991   3.406   3.305 -0.3760 -1.8334 -1.4043
 1037THF    H1213480   4.168   3.427   3.139  0.4687 -0.5290 -1.3668
 1037THF    H1313481   4.269   3.325   3.235 -0.1507 -0.3050 -0.2290
 1038THF     O113482   0.701   3.593   4.561  0.2499 -0.0197 -0.5477
 1038THF     C213483   0.763   3.470   4.526  0.3929  0.1899  0.6302
 1038THF     C313484   0.727   3.613   4.701 -0.1255 -0.0091  0.5945
 1038THF     H413485   0.809   3.495   4.431  2.4600 -1.5189  1.0981
 1038THF     H513486   0.700   3.385   4.503  1.9696 -0.9387  0.3338
 1038THF     H613487   0.728   3.721   4.720 -3.4894 -0.0321  1.6868
 1038THF     H713488   0.649   3.553   4.749  0.2650 -0.4112  0.7289
 1038THF     C813489   0.856   3.546   4.734  0.0797 -0.0223 -0.4703
 1038THF     C913490   0.869   3.437   4.630 -0.3198  0.0379 -0.2534
 1038THF    H1013491   0.862   3.502   4.833 -0.9089 -1.0270 -0.8382
 1038THF    H1113492   0.934   3.622   4.731  1.2458 -1.2006 -1.8230
 1038THF    H1213493   0.968   3.434   4.582  0.4871 -0.9493  1.3933
 1038THF    H1313494   0.860   3.339   4.678  0.3506 -0.4133 -1.0096
 1039THF     O113495   4.557   3.194   4.036  0.2340  0.6449  0.3199
 1039THF     C213496   4.542   3.145   3.904  0.3586  0.2721 -1.0252
 1039THF     C313497   4.500   3.092   4.123 -0.0726  0.1897 -0.4918
 1039THF     H413498   4.607   3.058   3.893  2.0920  1.2184  0.9492
 1039THF     H513499   4.573   3.221   3.831  1.4666  0.4839 -0.3644
 1039THF     H613500   4.574   3.017   4.152 -0.5612 -0.0705  0.0973
 1039THF     H713501   4.476   3.132   4.221  3.9656  0.3537  0.5866
 1039THF     C813502   4.396   3.021   4.035 -0.0187  0.3019  0.8055
 1039THF     C913503   4.398   3.099   3.901  0.3978 -0.8352  1.0764
 1039THF    H1013504   4.299   3.033   4.085 -0.3843  3.9378 -0.4224
 1039THF    H1113505   4.431   2.919   4.021  0.3705  0.4902  0.3885
 1039THF    H1213506   4.368   3.043   3.813 -0.7886  0.3466  0.7101
 1039THF    H1313507   4.328   3.182   3.904 -1.3692 -1.8024 -3.7589
 1040THF     O113508   1.043   5.148   1.150  0.0010 -0.3199  0.2624
 1040THF     C213509   1.115   5.175   1.269 -0.2118 -0.8320 -0.3509
 1040THF     C313510   0.936   5.059   1.189  0.5074 -0.0269 -0.2568
 1040THF     H413511   1.053   5.246   1.325 -0.1508 -2.3703  1.7880
 1040THF     H513512   1.210   5.225   1.250  0.0450 -0.7450  1.0596
 1040THF     H613513   0.838   5.106   1.192 -0.1854 -1.3392 -1.0456
 1040THF     H713514   0.940   4.982   1.112  2.1288  0.2423 -0.4696
 1040THF     C813515   0.981   4.997   1.318  0.5523  0.1926 -0.0458
 1040THF     C913516   1.121   5.040   1.332  0.6169 -0.3657  0.2608
 1040THF    H1013517   0.961   4.891   1.331  0.9406 -0.0353 -1.1936
 1040THF    H1113518   0.915   5.040   1.393 -0.6120 -2.0126  0.2588
 1040THF    H1213519   1.173   5.043   1.428 -1.3830 -2.8515  1.5308
 1040THF    H1313520   1.184   4.971   1.277  1.4177 -0.2627  1.0315
 1041THF     O113521   1.870   3.397   0.475  0.4467  0.3774 -0.6190
 1041THF     C213522   1.967   3.401   0.586  0.2705  0.5549  0.0497
 1041THF     C313523   1.783   3.291   0.517 -0.5730 -0.1292 -0.1785
 1041THF     H413524   1.926   3.471   0.659 -0.6410 -1.1600  1.2472
 1041THF     H513525   2.059   3.441   0.543  1.1270  0.1126  1.4068
 1041THF     H613526   1.712   3.318   0.595 -2.1654 -1.3521 -1.1502
 1041THF     H713527   1.722   3.259   0.432 -0.3583  1.2794 -0.9028
 1041THF     C813528   1.879   3.189   0.583 -0.2094  0.2814 -0.0640
 1041THF     C913529   1.990   3.267   0.648 -0.0044 -0.4271  0.1262
 1041THF    H1013530   1.924   3.123   0.509  0.3319 -1.2931  1.6027
 1041THF    H1113531   1.824   3.131   0.657  1.5831 -0.8676  0.4151
 1041THF    H1213532   1.991   3.263   0.756  1.4833  0.1390  0.1487
 1041THF    H1313533   2.077   3.216   0.608 -1.8706 -2.6859 -1.3440
 1042THF     O113534   1.632   4.620   4.090 -0.1045  0.5463  0.5459
 1042THF     C213535   1.625   4.499   4.018  0.0492 -0.1348 -0.6367
 1042THF     C313536   1.504   4.678   4.084 -0.2509  0.2955  0.1742
 1042THF     H413537   1.680   4.423   4.074 -1.4174 -0.6264  0.1822
 1042THF     H513538   1.673   4.510   3.920  1.3187  1.7714  0.1526
 1042THF     H613539   1.472   4.675   4.188  1.0421 -0.2760  0.5674
 1042THF     H713540   1.502   4.784   4.056 -0.1389  0.1302 -0.4737
 1042THF     C813541   1.423   4.594   3.987  0.1155 -0.3906 -0.2267
 1042THF     C913542   1.473   4.460   4.012 -0.6924  0.0149  0.0082
 1042THF    H1013543   1.447   4.613   3.882  0.0019  0.4919 -0.0993
 1042THF    H1113544   1.317   4.618   3.999  0.4290  0.1563  1.7839
 1042THF    H1213545   1.443   4.415   4.107 -0.1663  0.6532  0.4844
 1042THF    H1313546   1.453   4.397   3.925 -1.1206  2.4155 -1.7603
 1043THF     O113547   0.888   1.919   0.417 -0.3576  0.4955  0.0332
 1043THF     C213548   0.913   1.801   0.342  0.4123 -0.1644  0.3468
 1043THF     C313549   0.753   1.912   0.454 -0.3056 -0.0448 -0.1203
 1043THF     H413550   0.938   1.714   0.402  0.8381 -0.3969 -0.1555
 1043THF     H513551   1.000   1.820   0.280 -0.1966  2.3109  0.1549
 1043THF     H613552   0.743   1.825   0.519 -1.7768 -0.4529 -0.8615
 1043THF     H713553   0.706   2.003   0.489 -1.6263  0.0320 -1.9620
 1043THF     C813554   0.686   1.871   0.317  0.4279  0.8668  0.4594
 1043THF     C913555   0.784   1.769   0.267  0.1553 -0.0232 -0.0698
 1043THF    H1013556   0.680   1.954   0.247  0.8893 -0.1995 -0.8913
 1043THF    H1113557   0.587   1.834   0.344  1.4975 -2.0699  0.7612
 1043THF    H1213558   0.746   1.667   0.274 -0.4403  0.1108 -1.1410
 1043THF    H1313559   0.808   1.771   0.161  1.6513 -0.7028  0.2365
 1044THF     O113560   4.431   1.511   0.009 -0.3120  0.5227 -0.2310
 1044THF     C213561   4.427   1.499  -0.138  0.1024 -0.2311  0.3790
 1044THF     C313562   4.300   1.536   0.064 -1.2302  0.1056  0.4363
 1044THF     H413563   4.507   1.437  -0.178  0.3477  0.1272  0.3042
 1044THF     H513564   4.427   1.599  -0.182  0.2026  0.4683  1.9088
 1044THF     H613565   4.297   1.508   0.169  2.6432  2.0606  1.2630
 1044THF     H713566   4.285   1.643   0.051  0.9264  0.5967  1.5440
 1044THF     C813567   4.212   1.439  -0.014 -0.2450 -0.0847  1.1195
 1044THF     C913568   4.289   1.423  -0.148  0.6617  0.0181  0.4942
 1044THF    H1013569   4.108   1.471  -0.024 -0.0699  0.1285 -0.1106
 1044THF    H1113570   4.204   1.340   0.031 -2.4078  0.1904  1.4586
 1044THF    H1213571   4.310   1.317  -0.164 -0.0672 -0.2698  1.3155
 1044THF    H1313572   4.227   1.452  -0.232  0.0853 -0.4275  0.7600
 1045THF     O113573   3.271   5.309   4.866 -0.2093 -0.3804 -0.1449
 1045THF     C213574   3.371   5.264   4.777 -0.0447  0.6368  0.1684
 1045THF     C313575   3.162   5.338   4.784  0.9908  0.5019 -0.0844
 1045THF     H413576   3.443   5.201   4.829 -0.1503  0.3228 -0.0597
 1045THF     H513577   3.430   5.346   4.735 -1.5407  1.4220 -0.4756
 1045THF     H613578   3.071   5.338   4.844  0.0347  1.8944 -1.4716
 1045THF     H713579   3.183   5.436   4.741  1.3629 -0.0526 -1.2175
 1045THF     C813580   3.152   5.217   4.691 -0.4490  0.5813  0.4984
 1045THF     C913581   3.301   5.178   4.670  0.3579  0.4722 -0.0231
 1045THF    H1013582   3.103   5.237   4.596 -0.3730 -1.9489 -0.1550
 1045THF    H1113583   3.094   5.137   4.737  0.1829  0.6680  1.4786
 1045THF    H1213584   3.313   5.070   4.683  3.3695  0.7673  0.2945
 1045THF    H1313585   3.339   5.201   4.570 -0.4884 -0.5659 -0.6197
 1046THF     O113586   5.403   3.371   4.808  0.0263 -0.4229  0.1043
 1046THF     C213587   5.316   3.261   4.808 -0.1360 -0.4899  0.2503
 1046THF     C313588   5.351   3.465   4.898 -0.4123  0.6092 -0.0388
 1046THF     H413589   5.387   3.192   4.761  0.3106  0.8878 -1.2042
 1046THF     H513590   5.242   3.281   4.731 -0.5827  2.2971  1.2973
 1046THF     H613591   5.432   3.529   4.933  1.2480 -0.9948 -0.7741
 1046THF     H713592   5.275   3.523   4.847 -1.0869 -0.4754 -0.3163
 1046THF     C813593   5.300   3.369   5.014  0.0030 -0.4683  0.2709
 1046THF     C913594   5.275   3.238   4.942  0.8542  0.3373  0.4876
 1046THF    H1013595   5.207   3.399   5.062  0.2618 -0.1524  0.5800
 1046THF    H1113596   5.369   3.359   5.098  2.1641 -0.2685 -1.4039
 1046THF    H1213597   5.330   3.155   4.987  0.0770 -2.0142 -2.5166
 1046THF    H1313598   5.169   3.214   4.943  0.7143  0.6735 -1.7139
 1047THF     O113599   1.321   1.065   1.859  0.2633  0.2705 -0.0459
 1047THF     C213600   1.390   0.979   1.763 -0.0086  0.0608 -0.5253
 1047THF     C313601   1.199   1.110   1.809 -0.3694 -0.6894 -0.6048
 1047THF     H413602   1.336   0.885   1.754 -0.0564  0.0471 -0.1167
 1047THF     H513603   1.491   0.962   1.801  1.0597  0.4767 -2.9765
 1047THF     H613604   1.126   1.031   1.822 -0.1097 -1.2034 -2.1210
 1047THF     H713605   1.163   1.200   1.858 -2.3046 -0.6693 -1.9500
 1047THF     C813606   1.240   1.152   1.666 -0.0238 -0.2261 -0.4724
 1047THF     C913607   1.364   1.067   1.637  0.1439  0.0659  0.7447
 1047THF    H1013608   1.264   1.258   1.657  0.3016 -0.0294  2.0204
 1047THF    H1113609   1.150   1.128   1.609 -0.9714  0.4507  0.6802
 1047THF    H1213610   1.344   1.004   1.550  0.7338  0.9994 -0.0950
 1047THF    H1313611   1.437   1.138   1.597  1.1169 -1.7332 -0.8643
 1048THF     O113612   1.012   2.385   0.161 -0.4780 -0.1240 -0.3336
 1048THF     C213613   0.997   2.342   0.025  0.7039  0.2062 -0.5235
 1048THF     C313614   0.991   2.261   0.234  0.2759  0.4538 -0.5909
 1048THF     H413615   1.031   2.409  -0.053  1.8442  2.4030  1.7262
 1048THF     H513616   0.892   2.316   0.011  1.1395 -1.8979 -0.3616
 1048THF     H613617   1.022   2.268   0.338 -0.8014 -0.0469 -0.2237
 1048THF     H713618   0.883   2.245   0.230  0.3329 -0.4169  0.8419
 1048THF     C813619   1.079   2.158   0.159 -0.4490 -0.0728  0.4578
 1048THF     C913620   1.078   2.216   0.013  0.4499 -0.3788  0.1742
 1048THF    H1013621   1.035   2.058   0.151 -1.1614  0.3094 -0.6288
 1048THF    H1113622   1.178   2.142   0.202 -0.9810 -1.8352  1.1253
 1048THF    H1213623   1.171   2.245  -0.034  0.3081 -0.3205 -0.0735
 1048THF    H1313624   1.030   2.149  -0.058  0.7805  0.3329 -0.7444
 1049THF     O113625   4.157   0.720   2.968 -0.3079  0.2390  0.3331
 1049THF     C213626   4.249   0.763   2.870 -0.4200  0.5267 -0.3063
 1049THF     C313627   4.218   0.629   3.053  0.6672  0.3445 -0.4433
 1049THF     H413628   4.318   0.837   2.911 -0.6140  0.7313 -0.3523
 1049THF     H513629   4.192   0.817   2.795 -0.0668  1.5222  0.1196
 1049THF     H613630   4.290   0.672   3.123 -0.4812  1.4756  0.0801
 1049THF     H713631   4.137   0.586   3.112  0.5695  1.2319  0.0797
 1049THF     C813632   4.272   0.535   2.959 -0.1472 -0.7115  0.4464
 1049THF     C913633   4.319   0.622   2.839 -0.6443  0.2404  0.3906
 1049THF    H1013634   4.177   0.487   2.935  0.8523 -1.5926 -2.0746
 1049THF    H1113635   4.345   0.467   3.003  1.8234 -0.3370 -1.9680
 1049THF    H1213636   4.425   0.646   2.830 -0.9378  0.8410 -2.7754
 1049THF    H1313637   4.273   0.597   2.743 -1.2915  0.1905  0.7041
 1050THF     O113638   4.242   2.988   1.050 -0.1063 -0.0823  0.0767
 1050THF     C213639   4.254   3.027   1.191  0.4799 -0.2853  0.3974
 1050THF     C313640   4.116   2.923   1.045 -0.4068  0.2258 -0.1889
 1050THF     H413641   4.334   3.101   1.203  0.4287 -0.3810  1.4227
 1050THF     H513642   4.278   2.936   1.245  0.7139 -0.9895 -0.8536
 1050THF     H613643   4.071   2.908   0.947  0.2417 -0.8170 -0.3411
 1050THF     H713644   4.115   2.828   1.098  2.4706 -0.5021 -1.2812
 1050THF     C813645   4.035   3.029   1.107  0.1568  0.3345  0.1488
 1050THF     C913646   4.113   3.067   1.235  0.0823 -0.4365 -0.2251
 1050THF    H1013647   3.936   2.995   1.135  0.4953 -0.5061  0.3367
 1050THF    H1113648   4.036   3.106   1.029 -1.1810 -0.4473 -0.6732
 1050THF    H1213649   4.120   3.175   1.250  1.8702 -0.5803  0.2260
 1050THF    H1313650   4.072   3.018   1.324  0.5175  0.2010  0.3414
 1051THF     O113651   2.127   3.157   4.977 -0.0965 -0.0192 -0.3189
 1051THF     C213652   2.101   3.048   5.066 -0.0369  0.0484 -0.5658
 1051THF     C313653   2.265   3.196   4.999 -0.0751  0.3618  0.3055
 1051THF     H413654   2.058   2.959   5.020  0.7143 -2.3049  2.8025
 1051THF     H513655   2.026   3.085   5.136  1.5381 -0.5517  1.5779
 1051THF     H613656   2.322   3.165   4.911  1.7686  3.3288  0.2967
 1051THF     H713657   2.284   3.303   4.994 -3.1609  1.0400  0.9883
 1051THF     C813658   2.310   3.136   5.132  0.1390 -0.5868  0.4342
 1051THF     C913659   2.227   3.016   5.141 -0.1106  0.7907  0.6169
 1051THF    H1013660   2.301   3.198   5.221  0.4234 -1.3680  1.0136
 1051THF    H1113661   2.418   3.119   5.126  0.5619  1.2258  1.7314
 1051THF    H1213662   2.272   2.938   5.079 -1.0719 -0.3259  1.2809
 1051THF    H1313663   2.211   2.984   5.244 -1.2920 -1.4295 -0.1863
 1052THF     O113664   0.674   2.316   0.407  0.1177  0.1852 -0.1830
 1052THF     C213665   0.588   2.256   0.303  0.6008 -0.0472 -0.3167
 1052THF     C313666   0.655   2.455   0.408 -0.1216 -0.6189 -0.2888
 1052THF     H413667   0.491   2.227   0.344  1.8139  0.4891  3.2840
 1052THF     H513668   0.643   2.176   0.254  2.7445  0.9202  0.3649
 1052THF     H613669   0.579   2.488   0.479 -1.7573 -1.6591 -1.4797
 1052THF     H713670   0.749   2.495   0.446 -0.0437 -0.5996 -0.5014
 1052THF     C813671   0.631   2.505   0.265  0.1757  0.3398 -0.2856
 1052THF     C913672   0.593   2.372   0.198  0.7686 -0.3526 -0.8556
 1052THF    H1013673   0.721   2.558   0.234  2.3544 -0.6955  3.5703
 1052THF    H1113674   0.562   2.588   0.262 -0.2630  0.0850  1.4220
 1052THF    H1213675   0.493   2.391   0.157 -0.0883  0.7057  1.5390
 1052THF    H1313676   0.668   2.350   0.122  1.8047  0.0177  0.0435
 1053THF     O113677   1.344   5.365   1.009 -0.0045 -0.3164 -0.8407
 1053THF     C213678   1.479   5.398   0.981 -0.2873  0.0076 -0.9814
 1053THF     C313679   1.256   5.458   0.940 -0.0503  0.3492 -0.3744
 1053THF     H413680   1.493   5.362   0.879  1.9577  0.7279 -0.9840
 1053THF     H513681   1.534   5.342   1.057 -0.2175  0.7791 -0.4411
 1053THF     H613682   1.249   5.433   0.834  5.7346 -0.1349 -1.0082
 1053THF     H713683   1.163   5.476   0.994 -0.2102 -0.6788 -0.2977
 1053THF     C813684   1.345   5.586   0.947  0.2845  0.4065  0.6308
 1053THF     C913685   1.489   5.546   0.997  0.5222  0.1100  0.6126
 1053THF    H1013686   1.298   5.661   1.012  0.9657  1.2172  0.2127
 1053THF    H1113687   1.350   5.628   0.847 -1.6236 -2.3391 -0.7222
 1053THF    H1213688   1.564   5.591   0.932 -0.8321  1.0481 -0.3342
 1053THF    H1313689   1.501   5.566   1.104 -0.8203 -3.4653  1.5638
 1054THF     O113690   3.878   2.872   5.360  0.1178 -1.3821  0.6240
 1054THF     C213691   3.891   2.984   5.272 -0.0964  0.2159 -0.3098
 1054THF     C313692   4.007   2.813   5.356 -0.2670 -0.0292  1.4095
 1054THF     H413693   3.806   3.050   5.292 -0.4805 -0.5206  0.5806
 1054THF     H513694   3.894   2.952   5.168 -0.4510  0.6776 -0.4688
 1054THF     H613695   4.020   2.731   5.427  0.2053  0.3954  1.8115
 1054THF     H713696   4.023   2.763   5.260  0.0810 -1.5223  2.2046
 1054THF     C813697   4.099   2.932   5.372  0.2326 -0.2650 -0.4185
 1054THF     C913698   4.020   3.048   5.311 -0.0402 -1.0031  0.0070
 1054THF    H1013699   4.195   2.915   5.324 -0.1606 -1.2586 -0.8804
 1054THF    H1113700   4.108   2.931   5.481 -1.3537 -0.6926 -0.2737
 1054THF    H1213701   4.004   3.134   5.375  0.7736 -1.1397  0.4031
 1054THF    H1313702   4.071   3.074   5.218  0.6247 -0.5955  0.4736
 1055THF     O113703   5.141   5.300   0.009  0.2602  0.7837  0.0800
 1055THF     C213704   5.118   5.182   0.088 -0.4955  0.2054  0.1269
 1055THF     C313705   5.034   5.383   0.040  0.4612 -1.1643 -0.3898
 1055THF     H413706   5.208   5.122   0.106  2.7848  4.5738 -0.0733
 1055THF     H513707   5.043   5.125   0.033  0.1543 -1.1900  0.6419
 1055THF     H613708   5.052   5.486   0.007 -1.1659 -0.6918  0.0946
 1055THF     H713709   4.938   5.347   0.004 -1.7950  3.0195  0.7428
 1055THF     C813710   5.038   5.377   0.194 -0.6741  0.0189 -0.1637
 1055THF     C913711   5.075   5.225   0.223  0.0996 -0.0226 -0.5516
 1055THF    H1013712   4.949   5.400   0.253  0.0594 -0.0904  1.0159
 1055THF    H1113713   5.116   5.440   0.235 -0.2509 -0.8086  0.3342
 1055THF    H1213714   5.147   5.214   0.304 -0.6403 -0.3901  0.0713
 1055THF    H1313715   4.987   5.168   0.252  1.4177 -1.2359  1.3494
 1056THF     O113716   1.545   2.281   1.896 -0.2265 -0.4065 -0.4592
 1056THF     C213717   1.537   2.319   2.036 -0.2792  0.7065  0.3138
 1056THF     C313718   1.488   2.150   1.896 -0.1091  1.5576  0.2356
 1056THF     H413719   1.432   2.333   2.064  0.3445  0.7116  2.8096
 1056THF     H513720   1.603   2.404   2.050  2.2975 -1.0159 -0.6203
 1056THF     H613721   1.382   2.161   1.921 -0.0317  0.2004  1.2769
 1056THF     H713722   1.504   2.102   1.800 -3.0285 -0.6718  0.7183
 1056THF     C813723   1.571   2.083   2.008  0.3000 -0.1894 -0.1159
 1056THF     C913724   1.609   2.196   2.098 -0.0020 -0.4339 -1.6676
 1056THF    H1013725   1.661   2.031   1.975 -0.6848 -2.1540  0.0929
 1056THF    H1113726   1.503   2.011   2.055  0.4266  0.6518  1.4276
 1056THF    H1213727   1.577   2.178   2.201  0.3717 -2.5177 -1.8759
 1056THF    H1313728   1.715   2.219   2.108 -0.4299  0.9740  0.4804
 1057THF     O113729   0.550   1.837   3.208 -0.5594 -0.2981  0.2792
 1057THF     C213730   0.588   1.750   3.098 -0.0258 -0.5210 -1.0536
 1057THF     C313731   0.492   1.757   3.313 -0.0255 -0.3459  0.1139
 1057THF     H413732   0.642   1.804   3.020 -2.0657  0.0304 -2.1819
 1057THF     H513733   0.499   1.712   3.047 -1.5164  1.1551  0.1678
 1057THF     H613734   0.489   1.803   3.411  1.4894  0.4586 -0.1858
 1057THF     H713735   0.391   1.736   3.277 -0.6667  2.4006  0.1262
 1057THF     C813736   0.580   1.637   3.313 -0.2830  0.0105 -0.0508
 1057THF     C913737   0.653   1.634   3.177 -0.5683 -0.4968  0.9013
 1057THF    H1013738   0.515   1.551   3.327  0.5748 -0.7012 -0.3300
 1057THF    H1113739   0.646   1.646   3.400  0.2945 -0.0430 -0.4762
 1057THF    H1213740   0.753   1.667   3.203 -0.6252 -0.6901  1.3758
 1057THF    H1313741   0.665   1.532   3.141  0.6375 -0.8072  2.0883
 1058THF     O113742   4.169   5.126   1.399 -0.7467 -0.3501 -0.0440
 1058THF     C213743   4.248   5.166   1.501 -0.6526  0.3957 -0.4442
 1058THF     C313744   4.231   5.012   1.340 -0.1893 -0.2228 -0.2328
 1058THF     H413745   4.185   5.209   1.579 -0.3299  0.3829 -0.1748
 1058THF     H513746   4.319   5.236   1.457  0.4940 -0.0822  0.5650
 1058THF     H613747   4.160   4.930   1.351  0.9562 -1.3843 -1.2301
 1058THF     H713748   4.256   5.009   1.234 -0.6856 -0.5273 -0.3468
 1058THF     C813749   4.364   4.992   1.417  0.0961 -0.4363 -0.0442
 1058THF     C913750   4.320   5.048   1.551  0.5549 -0.1217  0.5378
 1058THF    H1013751   4.454   5.039   1.379  1.5335 -2.2610  0.9650
 1058THF    H1113752   4.387   4.886   1.414  2.5312 -0.1408  2.9802
 1058THF    H1213753   4.247   4.986   1.603  1.0130  0.4986  1.9761
 1058THF    H1313754   4.395   5.088   1.619  0.0162  2.1351 -0.1214
 1059THF     O113755   2.539   4.967   5.298 -0.1263 -0.5779  0.0705
 1059THF     C213756   2.562   4.831   5.318 -0.3915  0.7449  0.7334
 1059THF     C313757   2.662   5.039   5.331 -0.0353 -0.4987 -0.0218
 1059THF     H413758   2.487   4.774   5.263  1.2112  1.0604 -1.9530
 1059THF     H513759   2.554   4.806   5.424 -2.0225  0.7314  0.6322
 1059THF     H613760   2.663   5.139   5.287  0.7479  0.2231  1.5646
 1059THF     H713761   2.680   5.042   5.438 -2.6224 -0.0691  0.4549
 1059THF     C813762   2.765   4.949   5.269 -0.3950 -0.6144 -0.5781
 1059THF     C913763   2.698   4.810   5.262  0.7748 -0.1006  0.0845
 1059THF    H1013764   2.861   4.950   5.320 -1.2930 -0.5212  1.1740
 1059THF    H1113765   2.787   4.984   5.168  2.4394 -0.2246  0.1007
 1059THF    H1213766   2.683   4.767   5.162 -2.9015  2.4099 -0.6583
 1059THF    H1313767   2.752   4.737   5.322  0.5883 -1.2936 -1.1330
 1060THF     O113768   2.373   0.175   4.957 -0.3060  0.2262 -0.2539
 1060THF     C213769   2.358   0.264   5.068 -0.2527  0.0459 -0.4113
 1060THF     C313770   2.310   0.235   4.841  0.2703 -0.4592  0.6730
 1060THF     H413771   2.439   0.335   5.084  0.8491 -1.0150 -1.1181
 1060THF     H513772   2.337   0.195   5.150  2.7318 -0.8267 -0.2718
 1060THF     H613773   2.371   0.307   4.786  0.4899 -1.6514 -0.6914
 1060THF     H713774   2.286   0.172   4.755  1.2551  0.4178 -0.2738
 1060THF     C813775   2.181   0.298   4.905 -0.5693 -0.8897 -0.8434
 1060THF     C913776   2.230   0.350   5.043  0.6239  0.6151  0.0730
 1060THF    H1013777   2.105   0.223   4.922 -1.0093 -0.2117  0.3030
 1060THF    H1113778   2.148   0.379   4.839 -1.1087 -0.8837 -0.5729
 1060THF    H1213779   2.245   0.458   5.041 -0.6689  0.8398  1.2026
 1060THF    H1313780   2.160   0.342   5.126  1.9825  0.7931  1.2759
 1061THF     O113781   3.950   3.325   2.498  0.2373 -0.2897  0.2650
 1061THF     C213782   3.889   3.416   2.410  0.7746  0.4781  0.2209
 1061THF     C313783   4.085   3.366   2.519  0.5810  0.1164 -0.4141
 1061THF     H413784   3.785   3.431   2.436  0.3878 -2.1854  0.4861
 1061THF     H513785   3.887   3.372   2.310 -0.7551  0.0717  0.4071
 1061THF     H613786   4.082   3.405   2.620 -0.8337  1.0036 -0.7817
 1061THF     H713787   4.155   3.283   2.506  0.2569 -0.2543  0.1639
 1061THF     C813788   4.118   3.479   2.420  0.1282 -0.5214 -0.4651
 1061THF     C913789   3.979   3.544   2.395  0.2347  0.1319 -0.0862
 1061THF    H1013790   4.169   3.426   2.340 -0.3918 -0.9036 -0.5487
 1061THF    H1113791   4.189   3.548   2.466  1.8435 -0.5428 -2.8784
 1061THF    H1213792   3.944   3.607   2.477 -4.0131 -2.0832  0.0794
 1061THF    H1313793   3.957   3.586   2.297  0.1256 -0.2523 -0.2278
 1062THF     O113794   1.452   5.027   5.494 -0.0497  0.0982  0.1644
 1062THF     C213795   1.551   4.938   5.542 -0.1544 -1.1620  0.1711
 1062THF     C313796   1.344   4.955   5.432  0.1373  0.0646  0.4696
 1062THF     H413797   1.618   4.982   5.616 -1.3941 -1.7143  1.6848
 1062THF     H513798   1.622   4.908   5.466  0.5109 -1.9350  1.0669
 1062THF     H613799   1.252   5.011   5.418 -1.1511 -1.5265  2.0042
 1062THF     H713800   1.383   4.913   5.339  0.2389 -0.3653  0.7037
 1062THF     C813801   1.335   4.832   5.520 -0.0127  0.1133  0.4327
 1062THF     C913802   1.471   4.816   5.582  0.2156  0.4260  0.1389
 1062THF    H1013803   1.301   4.741   5.471  1.2963 -0.1902  0.0623
 1062THF    H1113804   1.258   4.850   5.595 -0.8312 -1.4486  0.0122
 1062THF    H1213805   1.470   4.807   5.691  0.2897 -1.3308  0.0196
 1062THF    H1313806   1.509   4.727   5.532 -0.2003  0.3641 -0.0618
 1063THF     O113807   3.780   4.403   2.145 -0.2783 -0.3031  0.4546
 1063THF     C213808   3.657   4.351   2.106  0.5353 -0.5334 -0.4857
 1063THF     C313809   3.876   4.372   2.036 -0.6341  0.6361  0.0899
 1063THF     H413810   3.608   4.413   2.030  1.8783 -0.2598 -1.1575
 1063THF     H513811   3.600   4.349   2.199  0.4013 -2.8931 -0.5770
 1063THF     H613812   3.895   4.462   1.977  0.4001  0.1412 -0.3587
 1063THF     H713813   3.971   4.341   2.078 -1.1677 -0.0231  0.8509
 1063THF     C813814   3.816   4.252   1.962 -0.2209 -0.6038 -0.0506
 1063THF     C913815   3.699   4.218   2.050  0.1214  0.9518  0.3577
 1063THF    H1013816   3.880   4.166   1.948 -0.9307 -1.3271  1.0149
 1063THF    H1113817   3.778   4.284   1.864 -0.4093  3.2879  1.0973
 1063THF    H1213818   3.623   4.158   2.001  0.8382  0.2472  0.0729
 1063THF    H1313819   3.740   4.160   2.133 -0.0217 -0.7582 -0.7088
 1064THF     O113820   0.517   3.026   2.898  0.2402 -1.0355 -0.6201
 1064THF     C213821   0.505   3.049   2.756 -0.3243 -0.6963  0.3201
 1064THF     C313822   0.397   3.058   2.969  0.3732 -0.5709  0.2074
 1064THF     H413823   0.494   2.967   2.685  0.8214 -0.4020 -0.2215
 1064THF     H513824   0.598   3.101   2.732 -0.9105  1.5550  2.5100
 1064THF     H613825   0.321   2.981   2.974 -2.6257  2.2925  3.3415
 1064THF     H713826   0.435   3.071   3.070 -0.2374 -0.3051  0.4023
 1064THF     C813827   0.354   3.187   2.896  0.7687  0.0429  0.1648
 1064THF     C913828   0.376   3.139   2.751  0.4547  0.0718 -0.0645
 1064THF    H1013829   0.413   3.272   2.931  0.3778  0.4445 -0.1390
 1064THF    H1113830   0.251   3.216   2.917  0.2176 -1.9581  0.4251
 1064THF    H1213831   0.286   3.084   2.725  1.5324 -1.3068 -0.9843
 1064THF    H1313832   0.372   3.224   2.683 -0.9361  2.1088  2.3857
 1065THF     O113833   2.551   4.880   2.302 -0.8066  0.5432 -0.6758
 1065THF     C213834   2.498   4.908   2.428  0.8192  0.0369 -0.3354
 1065THF     C313835   2.562   5.000   2.228 -0.9164  0.1920  0.2608
 1065THF     H413836   2.510   4.827   2.499 -2.2902  0.2804  0.6271
 1065THF     H513837   2.391   4.927   2.413  1.0246  0.7127 -1.0759
 1065THF     H613838   2.634   4.984   2.148  2.3829 -1.5989  3.2785
 1065THF     H713839   2.462   5.028   2.194 -1.0072 -1.3696 -0.8657
 1065THF     C813840   2.620   5.094   2.342  0.4362  0.6538 -0.2191
 1065THF     C913841   2.576   5.029   2.472  0.6388 -0.1162  0.0564
 1065THF    H1013842   2.593   5.196   2.314  1.4101  0.9010 -0.2773
 1065THF    H1113843   2.729   5.087   2.340  0.6098  2.2204  1.6160
 1065THF    H1213844   2.649   5.022   2.552  0.2753  1.0829  0.5257
 1065THF    H1313845   2.504   5.096   2.518  1.7759  0.6155  0.8153
 1066THF     O113846   4.587   1.174   2.201 -0.0564  0.0285  0.6897
 1066THF     C213847   4.639   1.117   2.320  0.4111  0.7094  0.7299
 1066THF     C313848   4.514   1.286   2.239  0.0617  0.1940 -0.0095
 1066THF     H413849   4.724   1.051   2.299 -1.3623 -1.3068 -0.5427
 1066THF     H513850   4.565   1.050   2.364  0.0055  0.9954  0.4854
 1066THF     H613851   4.494   1.351   2.153 -0.8094  0.2482  0.2208
 1066THF     H713852   4.425   1.238   2.280  0.1889  1.3537  1.7145
 1066THF     C813853   4.592   1.348   2.359 -0.2505 -0.6168 -0.2588
 1066THF     C913854   4.667   1.230   2.415  0.7257  0.1844 -0.5065
 1066THF    H1013855   4.536   1.400   2.437  1.5629  0.1365  0.5894
 1066THF    H1113856   4.656   1.420   2.310 -1.7340  1.1831  0.3367
 1066THF    H1213857   4.775   1.246   2.422  0.7477 -0.1396 -0.0981
 1066THF    H1313858   4.640   1.218   2.520  0.9517 -1.8717 -0.6507
 1067THF     O113859   3.041   3.923   0.882  0.2636 -0.5782  0.5300
 1067THF     C213860   2.954   3.974   0.781  0.1730  0.0254  0.9718
 1067THF     C313861   2.961   3.897   0.993  0.6592  0.2563 -0.2639
 1067THF     H413862   2.951   3.889   0.713 -0.5007  0.9608 -0.2012
 1067THF     H513863   2.997   4.061   0.732  0.3970 -0.7388 -0.2271
 1067THF     H613864   2.941   3.791   0.974 -1.9093  0.6569 -0.1769
 1067THF     H713865   3.009   3.912   1.089  3.2751  0.3579 -1.4986
 1067THF     C813866   2.834   3.977   0.993 -0.1326  0.6783  0.7245
 1067THF     C913867   2.817   4.005   0.842  0.3536  0.1204  0.3540
 1067THF    H1013868   2.858   4.067   1.050  0.8779  1.9881 -1.6285
 1067THF    H1113869   2.753   3.925   1.044 -0.0976 -1.0431 -0.8756
 1067THF    H1213870   2.735   3.942   0.809 -0.8549  0.9195  1.6935
 1067THF    H1313871   2.778   4.106   0.826  2.1700  0.6985 -0.6765
 1068THF     O113872   4.385   0.555   3.451 -0.1913 -0.0092  0.2309
 1068THF     C213873   4.351   0.430   3.385  0.2288 -0.5786 -0.4741
 1068THF     C313874   4.482   0.531   3.560  0.0115  0.1030  0.9668
 1068THF     H413875   4.323   0.445   3.281  0.7755  0.8389 -0.4354
 1068THF     H513876   4.257   0.401   3.432 -0.4937  2.4332  0.1436
 1068THF     H613877   4.555   0.611   3.565 -2.8834  2.9704  0.9239
 1068THF     H713878   4.427   0.527   3.654  0.9606 -0.8180  1.5102
 1068THF     C813879   4.547   0.394   3.522 -0.5902  0.1089  0.4879
 1068THF     C913880   4.456   0.334   3.421  0.4894 -0.2255  0.9650
 1068THF    H1013881   4.551   0.329   3.610 -1.4891 -1.0353 -0.2918
 1068THF    H1113882   4.644   0.415   3.478 -0.9901  2.0755  0.4395
 1068THF    H1213883   4.519   0.315   3.334 -1.7292  0.0859 -0.7768
 1068THF    H1313884   4.413   0.241   3.456  0.6474  0.0775  2.0002
 1069THF     O113885   2.722   0.974   5.024 -0.2381 -0.6161  0.1604
 1069THF     C213886   2.806   0.954   5.140  0.0512 -0.0627 -0.3423
 1069THF     C313887   2.586   1.006   5.071  0.2910  0.0911  0.2112
 1069THF     H413888   2.849   1.046   5.180  1.7639 -1.0423  0.1354
 1069THF     H513889   2.886   0.882   5.124  0.3775  0.4616 -1.1244
 1069THF     H613890   2.562   1.109   5.046 -1.8803 -0.2508  0.6713
 1069THF     H713891   2.523   0.940   5.011  0.7084  0.4444 -0.6374
 1069THF     C813892   2.575   0.983   5.220  0.8325  0.0644 -0.5563
 1069THF     C913893   2.702   0.903   5.249  0.3064 -1.1796  0.5484
 1069THF    H1013894   2.482   0.935   5.250  0.7968  1.2298  1.3563
 1069THF    H1113895   2.577   1.079   5.272  0.8966 -0.3258  0.1698
 1069THF    H1213896   2.733   0.910   5.354 -0.7357 -0.7851  0.8387
 1069THF    H1313897   2.679   0.798   5.233  1.3258 -0.9965 -2.8264
 1070THF     O113898   1.132   2.068   1.445 -0.0169 -0.2405  0.0155
 1070THF     C213899   1.082   2.201   1.438 -0.0574  0.5988  0.2544
 1070THF     C313900   1.088   1.999   1.561 -0.1031 -0.4520  0.5325
 1070THF     H413901   0.988   2.208   1.383 -0.0083  1.2151  0.2372
 1070THF     H513902   1.157   2.268   1.397 -0.1000  0.0850 -0.7006
 1070THF     H613903   0.986   1.964   1.546 -0.5424  0.3913  1.4280
 1070THF     H713904   1.166   1.927   1.586  0.4970  0.6107  1.8666
 1070THF     C813905   1.084   2.114   1.665  0.4332  0.1266  0.8262
 1070THF     C913906   1.040   2.230   1.583 -0.9203  0.0681 -0.6151
 1070THF    H1013907   1.186   2.130   1.701  0.4364  0.4170  0.6890
 1070THF    H1113908   1.019   2.087   1.748  0.2621  0.2921  0.7484
 1070THF    H1213909   0.931   2.227   1.582 -0.9088 -0.0798 -1.4023
 1070THF    H1313910   1.076   2.323   1.626 -1.7802 -0.2852  0.9561
 1071THF     O113911   4.392   4.846   0.485 -0.2695 -0.8017 -0.3283
 1071THF     C213912   4.394   4.710   0.491 -0.1174 -0.4363  0.9875
 1071THF     C313913   4.508   4.892   0.413 -0.9937  0.5947 -0.3105
 1071THF     H413914   4.372   4.670   0.392 -0.2507 -1.6959  1.5106
 1071THF     H513915   4.331   4.665   0.567  0.1921 -1.4492  0.6636
 1071THF     H613916   4.512   4.890   0.304 -0.9719  2.4576 -0.3678
 1071THF     H713917   4.516   4.990   0.460 -2.2539  0.5194  0.1051
 1071THF     C813918   4.622   4.799   0.470 -0.1083 -1.1142  0.2605
 1071THF     C913919   4.542   4.676   0.517 -0.3666  0.0238  0.7462
 1071THF    H1013920   4.673   4.848   0.553 -0.2230 -0.3603 -0.1049
 1071THF    H1113921   4.694   4.774   0.393 -1.2029 -1.2268 -0.7499
 1071THF    H1213922   4.569   4.584   0.464 -0.0181  0.6041 -0.0991
 1071THF    H1313923   4.570   4.654   0.620  0.5309  1.3650  0.8170
 1072THF     O113924   1.635   5.048   1.323  0.0774 -0.3505 -0.2036
 1072THF     C213925   1.706   5.145   1.234  0.7526  0.0325 -0.1631
 1072THF     C313926   1.561   4.957   1.246 -0.1645  0.4115 -0.5371
 1072THF     H413927   1.805   5.169   1.271  0.4283  0.2988  0.5527
 1072THF     H513928   1.642   5.232   1.247 -0.3473 -0.9333  1.3052
 1072THF     H613929   1.611   4.863   1.267  1.9871  1.5959 -0.0688
 1072THF     H713930   1.458   4.943   1.279 -0.2204  1.5530 -0.1535
 1072THF     C813931   1.580   5.009   1.104  0.6547 -0.0598  0.2752
 1072THF     C913932   1.711   5.081   1.092  0.0250  0.1694 -0.6112
 1072THF    H1013933   1.501   5.080   1.081  0.2547 -0.3962  0.6052
 1072THF    H1113934   1.563   4.922   1.039 -2.1601  1.0424 -0.6130
 1072THF    H1213935   1.796   5.014   1.090 -0.0822 -0.0235  0.4888
 1072THF    H1313936   1.715   5.149   1.007 -0.4750  1.4865  0.3729
 1073THF     O113937   2.320   1.756   4.269  0.1970  0.3790 -0.2745
 1073THF     C213938   2.235   1.735   4.152 -0.0336 -0.4186 -0.6288
 1073THF     C313939   2.394   1.633   4.286  0.3983 -0.2449 -0.2622
 1073THF     H413940   2.202   1.830   4.108 -2.2651 -0.1291  1.4684
 1073THF     H513941   2.145   1.680   4.179  0.1343 -0.6596 -0.5647
 1073THF     H613942   2.489   1.655   4.334 -1.1359 -0.0877  2.9603
 1073THF     H713943   2.350   1.573   4.365 -3.6342  1.7082 -0.7926
 1073THF     C813944   2.397   1.561   4.148  0.1690  0.2143  0.2685
 1073THF     C913945   2.309   1.645   4.057  0.2210  0.1212  0.3373
 1073THF    H1013946   2.370   1.456   4.148  2.2679 -0.4086 -1.7422
 1073THF    H1113947   2.501   1.558   4.116  0.1940  2.9271 -0.1774
 1073THF    H1213948   2.365   1.704   3.985 -0.3824 -0.7811 -0.9051
 1073THF    H1313949   2.241   1.577   4.007 -0.0021 -0.8295  1.8431
 1074THF     O113950   4.869   0.764   2.600 -0.3446  0.0631 -0.0208
 1074THF     C213951   4.857   0.626   2.601  0.6153  0.7307 -0.4515
 1074THF     C313952   4.818   0.805   2.729  0.8846 -0.3498 -0.6486
 1074THF     H413953   4.954   0.589   2.569 -0.2469 -1.5862 -0.5504
 1074THF     H513954   4.786   0.587   2.528 -2.8740  3.2161  1.2903
 1074THF     H613955   4.863   0.898   2.762 -0.7123 -0.1299  1.0803
 1074THF     H713956   4.710   0.816   2.719  1.0463  0.0888 -2.2056
 1074THF     C813957   4.844   0.692   2.826  0.2080  0.1441 -0.8283
 1074THF     C913958   4.828   0.566   2.739 -0.4373 -0.5236 -0.0463
 1074THF    H1013959   4.784   0.694   2.917  0.3773  0.8067 -0.7223
 1074THF    H1113960   4.947   0.711   2.854 -0.3229  2.1213 -0.0355
 1074THF    H1213961   4.900   0.492   2.774  1.1331  0.8552 -0.2493
 1074THF    H1313962   4.724   0.535   2.751 -0.2796 -1.1420 -0.2259
 1075THF     O113963   4.576   2.938   3.025 -0.1705 -0.0130  0.3219
 1075THF     C213964   4.634   2.810   3.054 -0.0107 -0.2235  0.5075
 1075THF     C313965   4.428   2.924   3.014  0.0515 -0.4479  0.3195
 1075THF     H413966   4.724   2.827   3.114  1.2380  1.0003 -1.6067
 1075THF     H513967   4.675   2.769   2.962 -1.5616  1.0223 -0.8148
 1075THF     H613968   4.372   2.958   3.101 -0.7115 -1.2937  0.1726
 1075THF     H713969   4.392   2.988   2.934  2.0175  1.3132  0.7543
 1075THF     C813970   4.414   2.777   3.003 -0.0639  0.3808 -0.0684
 1075THF     C913971   4.514   2.725   3.102 -0.1806 -0.5397  0.1494
 1075THF    H1013972   4.436   2.760   2.898  0.9137 -1.7394  0.4429
 1075THF    H1113973   4.313   2.751   3.034 -0.2672  1.4080  0.1916
 1075THF    H1213974   4.495   2.748   3.207  1.8794 -0.1034  0.4745
 1075THF    H1313975   4.537   2.619   3.093  0.9487 -0.2722 -0.2936
 1076THF     O113976   0.198   3.927   1.005 -0.1523 -0.1478  0.4754
 1076THF     C213977   0.266   4.014   1.090 -0.0208  0.0987 -0.3096
 1076THF     C313978   0.288   3.820   0.993 -0.1574 -0.3259  0.8370
 1076THF     H413979   0.261   3.982   1.194 -0.2383  1.0836 -0.0023
 1076THF     H513980   0.230   4.117   1.085 -0.8915 -0.2312 -1.1843
 1076THF     H613981   0.280   3.761   1.084 -0.5710 -0.6162  0.6152
 1076THF     H713982   0.264   3.756   0.908 -2.8247  0.8203  0.6405
 1076THF     C813983   0.426   3.877   0.990 -0.6325 -0.4442 -0.5260
 1076THF     C913984   0.418   4.014   1.055  1.5632  0.3369  0.0925
 1076THF    H1013985   0.473   3.878   0.891 -0.0116 -2.3851 -0.2990
 1076THF    H1113986   0.487   3.817   1.058  0.3165  1.3022  0.2168
 1076THF    H1213987   0.475   4.028   1.147  0.1438  1.6825  0.8311
 1076THF    H1313988   0.445   4.097   0.989  1.2859  0.5453  0.2390
 1077THF     O113989   4.911   0.073   2.328  0.0934 -0.3814  0.7164
 1077THF     C213990   4.815   0.086   2.226 -0.7527 -0.2908 -0.2102
 1077THF     C313991   4.868  -0.032   2.409 -0.7732 -0.3375 -0.4778
 1077THF     H413992   4.818   0.014   2.144 -0.1952  0.9964 -1.3787
 1077THF     H513993   4.815   0.184   2.178 -1.0442 -0.2710 -0.1700
 1077THF     H613994   4.900  -0.133   2.382  0.4005 -1.1192  3.2713
 1077THF     H713995   4.903  -0.015   2.511 -0.1333 -2.2416 -0.3473
 1077THF     C813996   4.718  -0.017   2.422 -0.4835  0.1375  0.4289
 1077THF     C913997   4.682   0.074   2.303 -0.4620 -0.5609  1.0639
 1077THF    H1013998   4.686   0.039   2.509 -3.0762  0.9548 -0.9287
 1077THF    H1113999   4.675  -0.117   2.416  0.5871 -0.3341  0.4337
 1077THF    H1214000   4.607   0.027   2.240  0.5799 -0.5764 -0.2169
 1077THF    H1314001   4.651   0.174   2.330 -0.2855 -0.1417 -0.2310
 1078THF     O114002   1.258   5.175   4.906 -0.1045  0.4640  0.1711
 1078THF     C214003   1.394   5.217   4.906  0.6702 -1.2047 -0.1308
 1078THF     C314004   1.226   5.144   5.044  0.8335 -0.3863  0.7112
 1078THF     H414005   1.422   5.308   4.960 -1.4243  1.6706 -3.4460
 1078THF     H514006   1.435   5.220   4.805  0.3735 -2.2719 -0.2958
 1078THF     H614007   1.220   5.238   5.098  0.2841 -0.2717  0.4562
 1078THF     H714008   1.129   5.094   5.049  1.2308 -1.4614 -1.1506
 1078THF     C814009   1.351   5.071   5.087  0.2286 -0.2084  0.4559
 1078THF     C914010   1.456   5.098   4.982  0.2439 -0.5162 -0.6923
 1078THF    H1014011   1.318   4.966   5.090 -0.8060  0.0742  4.2348
 1078THF    H1114012   1.382   5.113   5.182  0.7799 -0.8503  0.5637
 1078THF    H1214013   1.547   5.127   5.034  1.0423 -0.0591 -2.2991
 1078THF    H1314014   1.475   5.008   4.924 -1.2614  0.3805 -2.6910
 1079THF     O114015   0.985   4.328   4.852 -0.1025  0.1295 -0.0321
 1079THF     C214016   1.063   4.211   4.877 -0.6871  0.0926  0.1859
 1079THF     C314017   0.860   4.316   4.922  0.0799  0.0175 -0.1826
 1079THF     H414018   1.157   4.238   4.925  0.6315 -1.8698 -1.1458
 1079THF     H514019   1.095   4.152   4.791  0.2004  2.0750 -0.9399
 1079THF     H614020   0.801   4.406   4.941 -2.7877 -0.5884 -4.5960
 1079THF     H714021   0.796   4.267   4.848 -0.3958 -3.4563  2.3080
 1079THF     C814022   0.892   4.232   5.038 -0.0931 -0.5028 -0.1236
 1079THF     C914023   0.982   4.125   4.971  0.3608  0.0504 -0.3974
 1079THF    H1014024   0.806   4.177   5.077  0.1497 -0.0707  1.0655
 1079THF    H1114025   0.953   4.279   5.115  0.4352  0.2480 -0.9832
 1079THF    H1214026   1.053   4.075   5.037  1.9188  1.3467 -1.0239
 1079THF    H1314027   0.924   4.051   4.916  0.7579 -0.9530  0.5033
 1080THF     O114028   0.571   4.273   1.674  0.3085 -0.5174  0.5044
 1080THF     C214029   0.575   4.149   1.744 -0.1974 -0.5125  0.0533
 1080THF     C314030   0.536   4.379   1.765  0.1773 -0.2959  0.0885
 1080THF     H414031   0.654   4.158   1.818 -0.2648  1.7731 -0.0763
 1080THF     H514032   0.588   4.057   1.687 -1.1429 -0.1363 -0.8148
 1080THF     H614033   0.620   4.390   1.834 -1.0297 -2.3911  2.0014
 1080THF     H714034   0.526   4.473   1.710  0.4699 -1.1879 -1.5567
 1080THF     C814035   0.413   4.302   1.828 -0.5035 -0.6853 -0.0097
 1080THF     C914036   0.452   4.149   1.829  0.0755 -0.0777  0.3002
 1080THF    H1014037   0.317   4.312   1.777 -0.3252 -0.7505 -0.3626
 1080THF    H1114038   0.391   4.349   1.924 -1.2360  0.2425 -0.6086
 1080THF    H1214039   0.457   4.101   1.927  0.2953  0.9834  0.8229
 1080THF    H1314040   0.373   4.093   1.778 -0.0669 -0.5479  1.0097
 1081THF     O114041   1.838   0.621   0.947  0.1639 -0.2874 -0.4229
 1081THF     C214042   1.748   0.518   0.971  0.2450  0.0897  0.0504
 1081THF     C314043   1.914   0.571   0.834  0.7015 -0.7424  0.3175
 1081THF     H414044   1.658   0.510   0.909 -2.2472  1.2387  3.2497
 1081THF     H514045   1.694   0.528   1.065 -0.3724 -4.3697  0.4040
 1081THF     H614046   1.851   0.580   0.745  1.4457  1.3650 -0.0626
 1081THF     H714047   2.005   0.630   0.822  1.5688 -2.1594 -0.3372
 1081THF     C814048   1.946   0.435   0.873 -0.0696  0.1940 -0.5147
 1081THF     C914049   1.838   0.395   0.975  0.0468 -0.9214  0.1718
 1081THF    H1014050   2.042   0.437   0.924  0.3889  0.1613 -1.3649
 1081THF    H1114051   1.957   0.367   0.789 -0.3439  0.7173 -0.9804
 1081THF    H1214052   1.795   0.297   0.952  0.1350 -1.0923  0.7284
 1081THF    H1314053   1.882   0.397   1.074 -1.9136  0.8969  1.1090
 1082THF     O114054   2.414   3.859   1.106  0.4979  0.3588 -0.3356
 1082THF     C214055   2.376   3.729   1.081  0.3739  0.1226 -0.0650
 1082THF     C314056   2.471   3.852   1.241 -0.0623 -0.1910 -0.2330
 1082THF     H414057   2.340   3.719   0.979 -0.2454 -0.2251  0.1826
 1082THF     H514058   2.288   3.712   1.143  0.7574 -1.0819  0.1697
 1082THF     H614059   2.546   3.927   1.266  2.7566 -2.3571 -1.5841
 1082THF     H714060   2.389   3.869   1.310  1.1433  1.0556  0.9765
 1082THF     C814061   2.536   3.715   1.254  0.2254 -0.3410  0.7050
 1082THF     C914062   2.494   3.647   1.125  0.4469 -0.3387  0.2254
 1082THF    H1014063   2.485   3.663   1.335 -0.6101 -1.8574 -0.7288
 1082THF    H1114064   2.645   3.721   1.253  0.3317 -1.1186 -1.9468
 1082THF    H1214065   2.566   3.662   1.045  0.6827 -0.7854  0.3468
 1082THF    H1314066   2.483   3.539   1.137  0.2612 -0.2204  1.2595
 1083THF     O114067   1.665   3.932   1.873 -0.1901 -0.0662  0.2385
 1083THF     C214068   1.626   3.807   1.859 -0.4998 -0.0450  0.2001
 1083THF     C314069   1.736   3.941   1.996  0.2796  0.1645 -0.6031
 1083THF     H414070   1.706   3.738   1.834  0.2833  0.5014  1.1009
 1083THF     H514071   1.542   3.793   1.791 -0.8157 -0.0387  0.5841
 1083THF     H614072   1.836   3.907   1.972 -0.2373 -0.1674 -2.4011
 1083THF     H714073   1.745   4.043   2.035  0.5115 -0.7494  1.9796
 1083THF     C814074   1.650   3.854   2.090  0.3995  0.1105  0.2069
 1083THF     C914075   1.579   3.754   1.996 -0.3636  0.8960  0.3068
 1083THF    H1014076   1.579   3.926   2.131 -0.4245  0.1972 -1.2961
 1083THF    H1114077   1.700   3.816   2.179 -1.1632  0.1690  1.1553
 1083THF    H1214078   1.620   3.653   1.995 -0.8895  0.6327 -2.3791
 1083THF    H1314079   1.473   3.763   2.021 -0.1638  2.2568  0.7906
 1084THF     O114080   4.202   2.514   2.677 -0.1139  0.4260 -0.0057
 1084THF     C214081   4.123   2.576   2.775 -0.4341  0.2432  0.3185
 1084THF     C314082   4.127   2.483   2.564 -0.9525 -0.9227  0.2289
 1084THF     H414083   4.103   2.673   2.729  0.8877  0.0178 -0.8159
 1084THF     H514084   4.166   2.602   2.871 -1.7267  1.5284  0.5833
 1084THF     H614085   4.101   2.575   2.512 -0.1363  0.3429  1.9814
 1084THF     H714086   4.168   2.407   2.497  1.4244  0.4039  0.0890
 1084THF     C814087   4.004   2.420   2.631  0.1855 -0.0658 -0.1331
 1084THF     C914088   3.994   2.490   2.768  0.8043 -0.1037  0.7384
 1084THF    H1014089   4.025   2.315   2.649  1.9470  0.1982 -0.4625
 1084THF    H1114090   3.911   2.437   2.575  0.4051 -1.1731 -0.8751
 1084THF    H1214091   3.901   2.546   2.780  0.7847  0.0376 -0.0222
 1084THF    H1314092   3.993   2.414   2.846  2.1884  0.4171  1.2952
 1085THF     O114093   1.417   3.795   3.494  0.0034  0.6551  0.1106
 1085THF     C214094   1.430   3.752   3.362  0.0832 -0.5546  0.6434
 1085THF     C314095   1.525   3.735   3.572  0.3078  0.4236 -0.1719
 1085THF     H414096   1.508   3.803   3.304 -2.5393  1.6677 -1.2239
 1085THF     H514097   1.346   3.758   3.292 -0.4292  1.5135  1.3429
 1085THF     H614098   1.614   3.787   3.538  0.2424  0.2715 -0.5837
 1085THF     H714099   1.507   3.753   3.678 -0.0244 -0.3616 -0.0850
 1085THF     C814100   1.527   3.587   3.518  0.3665 -0.0560  0.1949
 1085THF     C914101   1.461   3.602   3.381 -0.9241 -0.2846 -0.7981
 1085THF    H1014102   1.479   3.515   3.583  1.6988  0.7019  2.1129
 1085THF    H1114103   1.628   3.550   3.496  0.3414 -1.5352  2.2548
 1085THF    H1214104   1.516   3.556   3.298  0.1071  0.0904 -0.3386
 1085THF    H1314105   1.371   3.540   3.383 -1.8138  1.0063  0.6027
 1086THF     O114106   4.493   4.960   2.360 -0.4955 -0.2103 -0.1594
 1086THF     C214107   4.606   5.028   2.304  0.3810 -0.1830 -0.3054
 1086THF     C314108   4.518   4.946   2.498  0.5815  0.0877 -0.1778
 1086THF     H414109   4.598   5.134   2.329  0.8526 -0.3205  0.4624
 1086THF     H514110   4.622   5.018   2.197 -0.6425 -0.2846 -0.4603
 1086THF     H614111   4.496   5.041   2.546  2.5721  0.1397  0.7385
 1086THF     H714112   4.455   4.868   2.541 -0.5224  0.7781 -0.5329
 1086THF     C814113   4.665   4.909   2.509  0.7400  0.5407 -0.2101
 1086THF     C914114   4.720   4.972   2.382 -0.2278 -0.0404 -0.4275
 1086THF    H1014115   4.676   4.801   2.503 -0.9145  0.4059 -2.3085
 1086THF    H1114116   4.709   4.947   2.601  0.4562 -1.8585  1.0025
 1086THF    H1214117   4.796   5.049   2.396 -0.1029 -0.0460 -1.0349
 1086THF    H1314118   4.759   4.897   2.312 -1.3249  0.4979 -1.6498
 1087THF     O114119   0.804   2.467   1.431  0.0217 -0.7282 -0.0823
 1087THF     C214120   0.903   2.546   1.485  0.4286 -0.2495 -0.0930
 1087THF     C314121   0.800   2.476   1.293 -0.3721  0.2132 -0.4424
 1087THF     H414122   0.997   2.492   1.485  0.4049 -0.3227  1.2630
 1087THF     H514123   0.885   2.571   1.589  0.2821  1.8228 -0.5710
 1087THF     H614124   0.884   2.422   1.250 -0.8347 -0.6860 -0.2273
 1087THF     H714125   0.709   2.439   1.244  0.1834 -0.5648 -0.9011
 1087THF     C814126   0.815   2.627   1.274  0.2252  0.1686 -0.2442
 1087THF     C914127   0.888   2.674   1.402  0.2980 -0.0923  0.2293
 1087THF    H1014128   0.718   2.677   1.277  0.5688  0.9143 -1.1950
 1087THF    H1114129   0.864   2.664   1.184 -1.2578 -1.4160 -1.7656
 1087THF    H1214130   0.985   2.712   1.370  0.1859 -1.6389 -2.1849
 1087THF    H1314131   0.844   2.755   1.461 -0.6092  1.2716 -2.1769
 1088THF     O114132   0.750   0.646   4.886  0.6475 -0.2673 -0.4870
 1088THF     C214133   0.616   0.631   4.839  0.5033 -0.3241  0.8524
 1088THF     C314134   0.785   0.528   4.956 -0.2057 -0.4439  0.4125
 1088THF     H414135   0.614   0.580   4.743 -0.3553 -0.1900  0.7968
 1088THF     H514136   0.563   0.723   4.818 -1.0569 -1.3928 -0.0897
 1088THF     H614137   0.819   0.462   4.876  0.6881  0.8625 -0.3264
 1088THF     H714138   0.869   0.537   5.025  0.8995  1.2461 -1.0771
 1088THF     C814139   0.647   0.468   5.016 -0.3723 -0.7719 -0.0280
 1088THF     C914140   0.543   0.551   4.945  0.3461  0.1664  0.5618
 1088THF    H1014141   0.656   0.488   5.122  1.3941 -0.3627 -0.2270
 1088THF    H1114142   0.625   0.365   4.989 -0.0117 -0.3658 -2.0520
 1088THF    H1214143   0.469   0.482   4.904  0.8806 -0.0394 -0.0727
 1088THF    H1314144   0.498   0.615   5.021 -1.0301  1.2021 -1.0378
 1089THF     O114145   0.147   4.031   4.100 -0.2682 -0.0814 -0.1784
 1089THF     C214146   0.124   4.126   3.996  0.1803  0.4951 -0.0088
 1089THF     C314147   0.064   4.061   4.210 -0.1186  0.0419  0.1585
 1089THF     H414148   0.162   4.099   3.897  2.0283  2.3500  0.1151
 1089THF     H514149   0.177   4.220   4.012  0.2876  0.2955  0.8282
 1089THF     H614150   0.049   3.966   4.261  2.1538 -0.0858  0.7058
 1089THF     H714151   0.100   4.134   4.283 -4.3118  2.6748 -0.0445
 1089THF     C814152  -0.061   4.118   4.141  0.2240 -0.1252 -0.7693
 1089THF     C914153  -0.028   4.128   3.996 -0.3220 -0.3604  0.1619
 1089THF    H1014154  -0.086   4.218   4.177 -0.9935 -0.8359  0.4365
 1089THF    H1114155  -0.141   4.046   4.157  1.8633 -1.9335 -0.4021
 1089THF    H1214156  -0.063   4.037   3.946 -0.5492  0.8441 -1.9495
 1089THF    H1314157  -0.067   4.209   3.935 -0.6628 -2.3709 -2.4558
 1090THF     O114158   3.984   2.821   0.602  0.1162 -0.2499  0.1044
 1090THF     C214159   4.025   2.911   0.500  0.3253  0.0019  0.7570
 1090THF     C314160   4.086   2.737   0.640 -0.6800 -0.0755 -0.5325
 1090THF     H414161   4.075   2.993   0.552 -1.0184  0.9357  0.6359
 1090THF     H514162   3.952   2.963   0.437  1.9902  2.3740  0.6534
 1090THF     H614163   4.149   2.794   0.709  0.3637 -2.1307  0.3104
 1090THF     H714164   4.065   2.645   0.694 -0.3044 -0.0103 -0.2658
 1090THF     C814165   4.153   2.711   0.506 -0.7180 -0.2755 -0.2347
 1090THF     C914166   4.128   2.832   0.420 -0.5936 -0.7489 -0.3102
 1090THF    H1014167   4.116   2.620   0.459 -2.1294 -0.5765  1.3370
 1090THF    H1114168   4.256   2.685   0.530 -0.7181  0.6567  0.8662
 1090THF    H1214169   4.219   2.888   0.397 -0.5697 -0.9769 -0.7873
 1090THF    H1314170   4.088   2.803   0.323  1.7466  1.4428 -2.0621
 1091THF     O114171   4.101   5.150   2.866 -0.3428  0.0881 -0.6041
 1091THF     C214172   4.146   5.284   2.874 -0.3094 -0.4054  0.5524
 1091THF     C314173   4.186   5.069   2.948 -0.3184 -0.1685 -0.4645
 1091THF     H414174   4.066   5.357   2.859 -0.1824 -0.5076 -0.6830
 1091THF     H514175   4.221   5.298   2.797 -0.3747 -1.2335  0.3369
 1091THF     H614176   4.135   4.976   2.975 -4.8404  2.5117  1.3603
 1091THF     H714177   4.282   5.061   2.897 -0.1913  1.2728 -0.5052
 1091THF     C814178   4.217   5.161   3.066  0.1075  0.2600  0.2166
 1091THF     C914179   4.208   5.302   3.013  0.3276 -0.1599  0.5577
 1091THF    H1014180   4.316   5.153   3.111  0.6755  1.2243 -0.8123
 1091THF    H1114181   4.149   5.151   3.150  0.6234  1.4574  0.7991
 1091THF    H1214182   4.158   5.368   3.084  2.4144 -0.2834  2.2481
 1091THF    H1314183   4.303   5.354   3.003  0.4521 -0.5095 -0.1071
 1092THF     O114184   1.737   3.726   1.441 -0.2375  0.2839 -0.5900
 1092THF     C214185   1.848   3.798   1.487 -0.1574  0.3554  0.2860
 1092THF     C314186   1.695   3.792   1.319  0.2817 -0.1278 -0.8647
 1092THF     H414187   1.933   3.767   1.427 -0.5374 -1.8305  0.8006
 1092THF     H514188   1.857   3.768   1.591 -0.3494 -2.6595 -0.4941
 1092THF     H614189   1.770   3.779   1.242  0.7982 -0.4925 -0.3052
 1092THF     H714190   1.599   3.756   1.282 -1.4887  1.1077  2.1085
 1092THF     C814191   1.684   3.939   1.369  0.7450  0.2626 -0.2466
 1092THF     C914192   1.804   3.944   1.468  0.8120  0.4123  0.0904
 1092THF    H1014193   1.593   3.962   1.424  0.4590  3.0982 -1.7142
 1092THF    H1114194   1.690   4.009   1.286 -0.4092  0.6275 -0.0431
 1092THF    H1214195   1.886   4.007   1.434  0.1716  0.8131 -0.7308
 1092THF    H1314196   1.768   3.983   1.564  0.7433 -1.0449  0.6958
 1093THF     O114197   5.183   3.824   2.943  0.2263 -0.2406  0.0759
 1093THF     C214198   5.175   3.967   2.959  0.2098  0.4531 -0.7402
 1093THF     C314199   5.266   3.787   3.056 -0.3367 -0.2808 -0.2969
 1093THF     H414200   5.104   4.018   2.894 -0.3638 -0.5465 -0.9197
 1093THF     H514201   5.275   4.003   2.936  1.3394 -2.0840 -0.2110
 1093THF     H614202   5.271   3.680   3.079 -0.3670 -0.0050  1.0331
 1093THF     H714203   5.371   3.817   3.053 -0.6241  0.7819  0.0741
 1093THF     C814204   5.200   3.864   3.171 -0.0491  0.2273  0.6337
 1093THF     C914205   5.150   3.986   3.104 -0.2217  0.2083 -0.1596
 1093THF    H1014206   5.270   3.886   3.252 -1.3997  0.6044  1.7316
 1093THF    H1114207   5.125   3.802   3.221  0.0995 -1.0539 -0.6624
 1093THF    H1214208   5.043   3.999   3.123  0.2215  1.3502  1.9153
 1093THF    H1314209   5.213   4.070   3.134  0.5148 -0.2620 -0.3769
 1094THF     O114210   1.792   5.237   5.284 -0.0293  0.6257 -0.0143
 1094THF     C214211   1.834   5.206   5.417  0.0180  0.4255 -0.0242
 1094THF     C314212   1.663   5.288   5.299  0.0550 -0.9575  0.4056
 1094THF     H414213   1.942   5.208   5.436 -0.0852  2.0858  0.5049
 1094THF     H514214   1.810   5.101   5.433 -1.3306  0.7842  0.3919
 1094THF     H614215   1.645   5.349   5.210 -0.5706 -1.1977  0.3596
 1094THF     H714216   1.584   5.213   5.301 -1.2897  0.2039 -2.7421
 1094THF     C814217   1.661   5.372   5.431  0.2177 -0.3383  0.1445
 1094THF     C914218   1.754   5.294   5.521 -0.0136  0.7270 -0.8110
 1094THF    H1014219   1.561   5.367   5.475  0.4531 -1.3263  0.5949
 1094THF    H1114220   1.689   5.476   5.413 -1.2987  0.1739  0.5310
 1094THF    H1214221   1.817   5.356   5.585  0.1855  0.2669 -0.5565
 1094THF    H1314222   1.687   5.246   5.593  1.0098  2.3240  1.3025
 1095THF     O114223   3.915   0.899   2.440  0.1055  0.1990  0.3871
 1095THF     C214224   3.853   0.892   2.567 -0.3214  0.1810  0.7216
 1095THF     C314225   3.914   0.773   2.374  0.0902 -0.1667  0.1128
 1095THF     H414226   3.747   0.917   2.568 -0.7517 -1.5212  1.4777
 1095THF     H514227   3.888   0.956   2.648 -0.7341  1.2108  0.1127
 1095THF     H614228   3.813   0.756   2.338  0.6606 -0.6582 -1.3444
 1095THF     H714229   3.998   0.772   2.304  0.9819  0.2178  1.1381
 1095THF     C814230   3.946   0.683   2.488 -0.2176 -0.2960 -0.1233
 1095THF     C914231   3.872   0.747   2.603  0.0222  0.9562 -0.1400
 1095THF    H1014232   4.054   0.673   2.503 -0.5809 -0.6054  3.1148
 1095THF    H1114233   3.911   0.583   2.463  0.9075 -0.4141 -1.3111
 1095THF    H1214234   3.774   0.700   2.593 -0.2673  1.7760 -1.4058
 1095THF    H1314235   3.912   0.726   2.702 -2.3440 -0.2426  0.6297
 1096THF     O114236   5.216   2.000   5.166 -0.3175  0.5489  0.2375
 1096THF     C214237   5.301   1.882   5.150 -0.3183  0.7429 -0.2841
 1096THF     C314238   5.295   2.109   5.146 -0.0844 -0.2030 -0.2973
 1096THF     H414239   5.335   1.866   5.048  0.7076  1.1971 -0.0203
 1096THF     H514240   5.246   1.794   5.186  1.9569 -0.2031  1.0772
 1096THF     H614241   5.300   2.123   5.038 -1.7645 -0.0507 -0.3815
 1096THF     H714242   5.253   2.202   5.186 -1.2278 -0.6638 -0.4105
 1096THF     C814243   5.430   2.066   5.206  0.6566  0.1408 -0.4714
 1096THF     C914244   5.414   1.918   5.246  0.0025  0.2019  0.0807
 1096THF    H1014245   5.441   2.129   5.295 -1.7784 -0.9078  0.6731
 1096THF    H1114246   5.515   2.089   5.143  1.3789 -1.7826 -0.2803
 1096THF    H1214247   5.513   1.875   5.228  0.4274  0.8154  0.8635
 1096THF    H1314248   5.374   1.904   5.346 -1.6067  0.8902 -0.4404
 1097THF     O114249   2.617   4.680   3.826  0.7430  0.3108  0.2122
 1097THF     C214250   2.666   4.602   3.719 -0.0324  0.3723 -0.2487
 1097THF     C314251   2.476   4.663   3.816 -0.8307 -0.4434  0.1424
 1097THF     H414252   2.671   4.497   3.751 -1.1076  0.3873  0.0327
 1097THF     H514253   2.765   4.638   3.694  0.1914 -1.6906 -2.8038
 1097THF     H614254   2.446   4.567   3.858  0.0170  0.6528  3.5648
 1097THF     H714255   2.418   4.736   3.871  0.6556  1.0258 -0.1581
 1097THF     C814256   2.446   4.685   3.668 -0.3399 -0.2341  1.1947
 1097THF     C914257   2.566   4.629   3.602 -0.1954  0.4634 -0.2098
 1097THF    H1014258   2.430   4.789   3.639 -1.7081 -0.6009  0.5570
 1097THF    H1114259   2.353   4.630   3.651 -0.9188  0.3667  2.3359
 1097THF    H1214260   2.532   4.537   3.554  0.9271 -0.2230  0.2751
 1097THF    H1314261   2.608   4.700   3.531  1.3161 -2.3591 -2.3082
 1098THF     O114262   3.832   2.790   2.424 -0.1141 -0.0244  0.3661
 1098THF     C214263   3.816   2.741   2.295 -0.7422  0.0145 -0.9076
 1098THF     C314264   3.909   2.910   2.406 -0.1022  0.6018  0.4750
 1098THF     H414265   3.736   2.668   2.308 -1.1576  0.7464  0.8637
 1098THF     H514266   3.899   2.675   2.269 -2.2417 -2.4771  0.2207
 1098THF     H614267   3.913   2.976   2.493  0.3109  1.1052  0.0787
 1098THF     H714268   4.011   2.872   2.402 -0.4669 -0.6044  1.6966
 1098THF     C814269   3.870   2.968   2.267  0.0822 -0.5183  0.0379
 1098THF     C914270   3.782   2.860   2.209  0.4975  0.5313  0.1557
 1098THF    H1014271   3.948   2.992   2.196  0.7792 -0.9155  0.6594
 1098THF    H1114272   3.814   3.057   2.295  0.5443 -0.2871  0.2353
 1098THF    H1214273   3.676   2.885   2.210  0.7282  1.6138 -0.6567
 1098THF    H1314274   3.809   2.854   2.103 -1.7661  0.6850 -0.4694
 1099THF     O114275   5.052   0.170   1.559  0.3268 -0.2569 -0.0459
 1099THF     C214276   5.075   0.082   1.669  0.4587 -0.0199  1.0268
 1099THF     C314277   4.934   0.239   1.583  0.1139 -0.0573  0.3014
 1099THF     H414278   5.182   0.064   1.660  0.6401  1.3851 -0.0158
 1099THF     H514279   5.003   0.002   1.650 -0.0981  0.9170 -1.1469
 1099THF     H614280   4.927   0.327   1.519  2.4114  1.4907  1.9825
 1099THF     H714281   4.851   0.176   1.553  0.5803  0.0500 -1.3464
 1099THF     C814282   4.946   0.275   1.732  0.1684 -0.2920  0.1090
 1099THF     C914283   5.050   0.176   1.789 -0.3045  0.1013  0.1024
 1099THF    H1014284   4.849   0.265   1.780  0.3623  3.3974  1.6178
 1099THF    H1114285   4.993   0.370   1.758  0.9420 -1.2937  2.7464
 1099THF    H1214286   5.145   0.219   1.819 -0.3966  0.1899  0.2712
 1099THF    H1314287   5.019   0.119   1.876 -0.2950  0.2924  0.2305
 1100THF     O114288   2.438   1.101   2.824  0.2523 -0.7556 -0.0523
 1100THF     C214289   2.481   1.198   2.728  0.2927  0.6503 -0.3715
 1100THF     C314290   2.545   1.022   2.882 -0.5382 -0.0011  0.3199
 1100THF     H414291   2.504   1.293   2.777  0.9564  0.7038 -0.7850
 1100THF     H514292   2.419   1.220   2.641  0.4179  0.7089 -0.4466
 1100THF     H614293   2.558   1.013   2.989 -2.0285 -0.3293  0.4993
 1100THF     H714294   2.527   0.922   2.841 -1.0790  0.4245 -0.5347
 1100THF     C814295   2.665   1.080   2.805  0.3780 -0.0742  0.1471
 1100THF     C914296   2.613   1.134   2.681  0.1894 -0.6915 -0.2002
 1100THF    H1014297   2.748   1.013   2.781  0.7784  0.6349 -0.4785
 1100THF    H1114298   2.704   1.160   2.868  3.1349 -0.5467 -0.8026
 1100THF    H1214299   2.679   1.211   2.642 -0.9773  0.6753  0.4183
 1100THF    H1314300   2.594   1.054   2.609 -1.7827 -1.7470  1.3866
 1101THF     O114301   0.733   2.906   0.257  0.1505  0.1254  0.2602
 1101THF     C214302   0.605   2.962   0.250  0.2485  0.2839  0.0801
 1101THF     C314303   0.763   2.851   0.389  0.4091  0.3635  0.3655
 1101THF     H414304   0.537   2.890   0.204  0.6520 -1.0877  1.5247
 1101THF     H514305   0.606   3.056   0.195 -1.3605 -0.0722 -0.6078
 1101THF     H614306   0.796   2.750   0.366 -3.7150 -0.6985 -1.9836
 1101THF     H714307   0.840   2.916   0.431  0.9658  0.4621 -0.7593
 1101THF     C814308   0.629   2.866   0.461  0.9170  0.4786 -0.6605
 1101THF     C914309   0.565   2.985   0.399  0.0115  0.7436 -0.1473
 1101THF    H1014310   0.640   2.872   0.569  1.0146 -0.0325 -0.6402
 1101THF    H1114311   0.565   2.778   0.454  2.0141 -0.4472  0.5107
 1101THF    H1214312   0.457   2.985   0.413 -0.1846 -0.9854 -1.3500
 1101THF    H1314313   0.615   3.080   0.418  2.5135 -0.7119  0.9315
 1102THF     O114314   2.202   0.800   2.580 -0.2173  0.0773  0.3858
 1102THF     C214315   2.209   0.931   2.624 -0.3868  0.2563 -0.0823
 1102THF     C314316   2.104   0.806   2.477  0.4006  0.1571 -0.5019
 1102THF     H414317   2.301   0.951   2.678  0.5067 -0.1656 -1.3765
 1102THF     H514318   2.133   0.945   2.700 -0.3624  0.1503 -0.0376
 1102THF     H614319   2.120   0.725   2.406  3.3396  2.7876 -3.1754
 1102THF     H714320   2.003   0.808   2.516  0.2753 -0.8289 -0.7514
 1102THF     C814321   2.139   0.929   2.400 -0.2173  0.2710  0.5242
 1102THF     C914322   2.201   1.023   2.504 -0.0684  0.3910  0.4821
 1102THF    H1014323   2.050   0.966   2.348 -0.2129 -0.7433 -0.2510
 1102THF    H1114324   2.209   0.910   2.319 -0.7604 -0.3401  0.1914
 1102THF    H1214325   2.303   1.043   2.472  0.0500 -0.9104 -0.0213
 1102THF    H1314326   2.149   1.118   2.512 -0.7788 -0.0254  1.0338
 1103THF     O114327   1.566   0.429   3.611 -0.2369 -0.0749 -0.6876
 1103THF     C214328   1.449   0.349   3.648 -0.0729  0.2580  0.5079
 1103THF     C314329   1.524   0.548   3.548 -0.7937  0.2280  0.2522
 1103THF     H414330   1.461   0.269   3.721  0.1513  0.1094  0.3109
 1103THF     H514331   1.411   0.296   3.560  1.1454  1.2657 -0.6644
 1103THF     H614332   1.597   0.629   3.540  0.8662 -1.2314 -0.0557
 1103THF     H714333   1.503   0.518   3.445  0.9241 -1.9200  0.4471
 1103THF     C814334   1.402   0.590   3.620 -0.1694  0.4137 -0.5134
 1103THF     C914335   1.352   0.459   3.693  0.6543  0.7399  0.4033
 1103THF    H1014336   1.331   0.620   3.543 -1.0402  0.0475  0.1422
 1103THF    H1114337   1.414   0.671   3.692  1.6976  0.0973 -0.4051
 1103THF    H1214338   1.356   0.478   3.800 -1.6852  0.7443  0.5281
 1103THF    H1314339   1.251   0.423   3.673  1.4662 -1.1965 -0.3990
 1104THF     O114340   2.023   1.827   1.289  0.0346  0.1157 -0.0523
 1104THF     C214341   1.990   1.960   1.330 -0.0617 -0.0303 -0.2928
 1104THF     C314342   2.024   1.834   1.150 -0.8124 -0.5482  0.4184
 1104THF     H414343   2.082   2.018   1.324 -0.4377  0.4665 -1.6199
 1104THF     H514344   1.944   1.957   1.429 -1.6999  2.2725 -0.8820
 1104THF     H614345   2.116   1.876   1.110 -1.3772  0.8899  0.5690
 1104THF     H714346   2.013   1.735   1.105 -0.1684  0.2541 -1.5854
 1104THF     C814347   1.897   1.903   1.118  0.4460  0.6876 -0.3293
 1104THF     C914348   1.887   2.006   1.226 -0.2149 -0.5170 -0.0959
 1104THF    H1014349   1.818   1.828   1.114  0.6577  0.3511  1.1183
 1104THF    H1114350   1.906   1.953   1.022 -0.5542  1.1136 -0.2106
 1104THF    H1214351   1.928   2.100   1.190  0.5030 -0.6765  0.3109
 1104THF    H1314352   1.791   2.019   1.276  0.6062  1.9919  0.9892
 1105THF     O114353   1.348   0.303   3.067 -0.0997  0.3503  0.6569
 1105THF     C214354   1.458   0.388   3.108  0.3929 -0.0929  0.5069
 1105THF     C314355   1.334   0.182   3.154 -0.6141 -0.6480  1.1356
 1105THF     H414356   1.429   0.452   3.191  3.2974  1.8662  0.1364
 1105THF     H514357   1.509   0.444   3.030 -1.0088  1.9857  1.0121
 1105THF     H614358   1.294   0.217   3.250  2.4162  0.5262  2.0716
 1105THF     H714359   1.273   0.108   3.101 -2.1153  0.6551  0.9554
 1105THF     C814360   1.481   0.154   3.181  0.3051 -0.1709  0.2958
 1105THF     C914361   1.558   0.288   3.170  0.1170  0.6310  0.1592
 1105THF    H1014362   1.511   0.083   3.104 -1.8576 -1.0581  0.1789
 1105THF    H1114363   1.503   0.115   3.281  0.6731  0.4658  0.4663
 1105THF    H1214364   1.577   0.326   3.271 -0.4259 -1.3304  1.0452
 1105THF    H1314365   1.650   0.286   3.111  0.4771  0.6486  0.7101
 1106THF     O114366   4.018   3.041   1.652 -0.3413  0.7829  0.4625
 1106THF     C214367   3.948   3.147   1.592 -0.5770  0.4001 -0.0735
 1106THF     C314368   3.973   3.034   1.790 -0.2073  0.8166  0.1336
 1106THF     H414369   3.848   3.123   1.557 -0.9816  0.7704  0.8032
 1106THF     H514370   4.007   3.186   1.509  2.3675 -1.9309  0.7370
 1106THF     H614371   3.905   2.949   1.789  1.1758 -0.3340  0.2143
 1106THF     H714372   4.058   2.991   1.844 -0.6299 -2.4460 -1.5093
 1106THF     C814373   3.921   3.177   1.819  0.2689 -0.2046 -0.4295
 1106THF     C914374   3.942   3.258   1.695 -0.0977 -0.3961  0.2091
 1106THF    H1014375   3.979   3.228   1.896  0.1340  0.6079 -0.8546
 1106THF    H1114376   3.815   3.188   1.845  0.4439  0.4973  0.0201
 1106THF    H1214377   3.860   3.323   1.666 -0.7817 -0.6301  1.5783
 1106THF    H1314378   4.024   3.329   1.705  1.0237 -1.6673  0.4802
 1107THF     O114379   2.157   4.051   0.777  0.1755  0.4694  0.1604
 1107THF     C214380   2.297   4.083   0.786  0.0947 -0.0085 -0.5153
 1107THF     C314381   2.087   4.163   0.725 -1.3682 -0.7374 -0.1265
 1107THF     H414382   2.366   4.009   0.745  1.5771  0.4744  1.0278
 1107THF     H514383   2.321   4.076   0.892  0.6704 -1.4782 -0.7162
 1107THF     H614384   2.076   4.144   0.619  0.5865  0.4492 -0.5916
 1107THF     H714385   1.987   4.169   0.767 -1.4544  0.2071 -0.4458
 1107THF     C814386   2.182   4.284   0.749 -0.6658  0.3662  0.4742
 1107THF     C914387   2.324   4.225   0.726  0.2932  0.6443 -0.2262
 1107THF    H1014388   2.184   4.305   0.855 -0.5906 -2.6538  1.1754
 1107THF    H1114389   2.147   4.371   0.694 -0.8530  0.8599  1.3586
 1107THF    H1214390   2.334   4.216   0.617  1.6650 -2.1236  0.0322
 1107THF    H1314391   2.406   4.280   0.772  0.3130  0.0654  0.4547
 1108THF     O114392   3.773   3.731   1.355  0.1849 -0.0379 -0.2563
 1108THF     C214393   3.749   3.703   1.491  0.1591 -0.2878  0.6795
 1108THF     C314394   3.666   3.669   1.291  0.1336 -0.1180  0.7045
 1108THF     H414395   3.688   3.785   1.527 -0.9721  0.0655 -1.8073
 1108THF     H514396   3.848   3.697   1.537  0.6366  2.4113  0.1699
 1108THF     H614397   3.587   3.744   1.303  2.0819  1.6876  3.4963
 1108THF     H714398   3.683   3.661   1.183  0.1323  2.2777  0.4544
 1108THF     C814399   3.651   3.529   1.350  0.5433  0.3408  0.1881
 1108THF     C914400   3.667   3.571   1.498 -0.4426 -0.6398 -0.2599
 1108THF    H1014401   3.742   3.471   1.333  0.5612 -0.0033  1.3145
 1108THF    H1114402   3.560   3.473   1.331 -0.4787  2.2738 -0.8533
 1108THF    H1214403   3.567   3.573   1.540 -0.7289  1.4893 -0.9170
 1108THF    H1314404   3.729   3.496   1.548 -0.3206 -1.0618 -1.0303
 1109THF     O114405   2.163   4.858   2.733  0.0480 -0.1645  0.2035
 1109THF     C214406   2.111   4.838   2.861  0.7882  0.3899 -0.5399
 1109THF     C314407   2.266   4.950   2.742 -0.0021 -0.1678 -0.4276
 1109THF     H414408   2.135   4.737   2.897 -0.9871  1.0395  2.8854
 1109THF     H514409   2.004   4.825   2.873  1.0801  0.0664  2.8878
 1109THF     H614410   2.352   4.893   2.777  0.4012  0.9530  0.4542
 1109THF     H714411   2.286   5.008   2.652 -1.6733  3.4888  1.3519
 1109THF     C814412   2.214   5.044   2.851  0.0464  0.6816  0.4362
 1109THF     C914413   2.167   4.946   2.950  0.0981 -0.2811  0.1975
 1109THF    H1014414   2.130   5.104   2.818 -0.3579  0.0953  0.3757
 1109THF    H1114415   2.292   5.111   2.887 -0.0309  0.8070  0.3710
 1109THF    H1214416   2.244   4.896   3.008  1.6976  0.5160 -1.1493
 1109THF    H1314417   2.089   4.985   3.015  1.1142  0.9656  0.6949
 1110THF     O114418   2.770   4.232   5.042 -0.2924 -0.3103 -0.3176
 1110THF     C214419   2.679   4.317   4.966 -0.2648  0.6718  0.1338
 1110THF     C314420   2.889   4.310   5.067  0.0246  0.4428  0.6710
 1110THF     H414421   2.580   4.272   4.965 -0.4271  0.8757  2.2751
 1110THF     H514422   2.713   4.307   4.863 -2.0814 -1.8936 -0.2993
 1110THF     H614423   2.954   4.286   5.151  2.3723 -0.0643 -1.1943
 1110THF     H714424   2.944   4.300   4.974  1.6004 -0.5384  1.6592
 1110THF     C814425   2.840   4.447   5.080 -0.2346  0.0961  0.1642
 1110THF     C914426   2.699   4.454   5.018  1.0753  0.3010  0.1713
 1110THF    H1014427   2.916   4.518   5.048  1.5051 -1.8765 -0.2812
 1110THF    H1114428   2.831   4.470   5.186  0.2186 -2.3405  0.7953
 1110THF    H1214429   2.614   4.471   5.084  1.8037 -0.0219  1.2055
 1110THF    H1314430   2.692   4.530   4.940  0.1663  0.8427  0.7683
 1111THF     O114431   1.952   4.369   4.292 -0.2554  0.7278 -0.5369
 1111THF     C214432   2.094   4.359   4.286  0.4225  0.2466  0.8936
 1111THF     C314433   1.900   4.260   4.362  0.5014  0.1749  0.3270
 1111THF     H414434   2.142   4.449   4.325  1.4393  0.0402  0.1376
 1111THF     H514435   2.131   4.330   4.188 -2.9311  0.0925 -0.4646
 1111THF     H614436   1.875   4.310   4.455  1.2417  1.4304 -0.1161
 1111THF     H714437   1.813   4.224   4.308 -0.3811  0.1138  1.7328
 1111THF     C814438   2.009   4.158   4.391 -0.8163  0.6607  0.4023
 1111THF     C914439   2.132   4.250   4.384 -0.5496 -0.0022 -0.6204
 1111THF    H1014440   2.015   4.073   4.324  0.7205 -0.1993  1.5534
 1111THF    H1114441   2.011   4.112   4.490  1.6368 -0.8622 -0.2673
 1111THF    H1214442   2.155   4.292   4.482 -1.3016 -1.0641  0.0389
 1111THF    H1314443   2.220   4.189   4.360 -0.5683 -0.1274 -0.3822
 1112THF     O114444   1.103   3.913   1.599 -0.1888 -0.4928 -0.0224
 1112THF     C214445   0.972   3.966   1.593  0.5110  0.7663  0.0125
 1112THF     C314446   1.159   3.935   1.728  0.4793  0.1779  0.3152
 1112THF     H414447   0.910   3.933   1.510 -0.5181  1.8194  0.3360
 1112THF     H514448   0.994   4.072   1.585  0.1627  0.9340  1.0811
 1112THF     H614449   1.237   3.862   1.748 -2.1311 -3.1661 -0.7149
 1112THF     H714450   1.194   4.037   1.742 -1.2527  0.8519  0.0583
 1112THF     C814451   1.036   3.921   1.819  0.2068  0.3723 -0.0145
 1112THF     C914452   0.911   3.940   1.730  0.4252  0.1673 -0.0898
 1112THF    H1014453   1.044   3.968   1.917 -0.4486 -0.2231  0.3350
 1112THF    H1114454   1.040   3.816   1.848 -0.4554  0.4645  0.4349
 1112THF    H1214455   0.845   3.854   1.737  1.1627 -0.4271 -0.3364
 1112THF    H1314456   0.839   4.021   1.746 -1.5936 -0.6998 -3.6704
 1113PF6-    P114457   1.141   0.903   4.959  0.0810  0.2522  0.0816
 1113PF6-    F214458   1.217   0.767   4.931  0.5866  0.1157 -0.3848
 1113PF6-    F314459   1.065   1.040   4.993 -0.2921  0.4416 -0.2910
 1113PF6-    F414460   1.066   0.833   5.087 -0.1280  0.5083  0.1649
 1113PF6-    F514461   1.212   0.972   4.834 -0.3434 -0.1937  0.0281
 1113PF6-    F614462   1.021   0.850   4.864  0.0754 -0.2210  0.0934
 1113PF6-    F714463   1.263   0.949   5.049  0.2654 -0.0878  0.2932
 1114PF6-    P114464   3.095   4.462   1.503 -0.3531  0.2039 -0.1662
 1114PF6-    F214465   2.978   4.446   1.393 -0.0649  0.0154  0.0181
 1114PF6-    F314466   3.212   4.475   1.615 -0.0640  0.3915 -0.5083
 1114PF6-    F414467   3.176   4.338   1.434 -0.4727  0.2902 -0.2391
 1114PF6-    F514468   3.020   4.581   1.573  0.2908 -0.0710  0.5669
 1114PF6-    F614469   3.016   4.359   1.602 -0.3755  0.4754  0.0205
 1114PF6-    F714470   3.175   4.567   1.412  0.0342  0.2312  0.1776
 1115PF6-    P114471   2.915   1.697   1.132  0.0358 -0.1178  0.0396
 1115PF6-    F214472   2.910   1.855   1.118 -0.5213 -0.3126 -0.6031
 1115PF6-    F314473   2.920   1.538   1.146 -0.0313  0.3030  0.1202
 1115PF6-    F414474   2.918   1.684   0.975  0.2161 -0.5533  0.0216
 1115PF6-    F514475   2.912   1.704   1.290  0.5502 -0.1024  0.3348
 1115PF6-    F614476   2.751   1.690   1.132  0.0556  0.4416  0.1337
 1115PF6-    F714477   3.075   1.701   1.137 -0.0125 -0.2811  0.0419
 1116PF6-    P114478   4.777   2.939   2.061 -0.5398 -0.4418  0.4095
 1116PF6-    F214479   4.883   2.999   1.958 -0.6525 -0.6711  0.4508
 1116PF6-    F314480   4.669   2.880   2.159  0.3322  0.3411 -0.5076
 1116PF6-    F414481   4.877   2.814   2.085 -0.0546 -0.1343 -0.2141
 1116PF6-    F514482   4.688   3.070   2.030 -0.3802 -0.1446 -0.5262
 1116PF6-    F614483   4.711   2.857   1.937  0.4304  0.2496  0.4625
 1116PF6-    F714484   4.841   3.019   2.184 -0.3413 -0.3315 -0.1907
 1117PF6-    P114485   4.609   2.769   3.681 -0.3517  0.2743 -0.1331
 1117PF6-    F214486   4.496   2.782   3.794 -0.0692 -0.3197  0.0714
 1117PF6-    F314487   4.725   2.748   3.574 -0.4457 -0.0040  0.4075
 1117PF6-    F414488   4.500   2.760   3.566  0.1608  0.0420 -0.3429
 1117PF6-    F514489   4.721   2.774   3.798 -0.3219 -0.2263  0.3833
 1117PF6-    F614490   4.594   2.614   3.697 -0.3711 -0.0055 -0.2725
 1117PF6-    F714491   4.623   2.928   3.667 -0.5904 -0.1475 -0.0481
 1118PF6-    P114492   0.014   4.920   5.445  0.4045 -0.5209 -0.1682
 1118PF6-    F214493   0.024   5.042   5.347  0.6109 -0.1579  0.1010
 1118PF6-    F314494  -0.005   4.793   5.542 -0.2803 -0.2832  0.1075
 1118PF6-    F414495   0.172   4.902   5.444 -0.4683  0.3627 -0.2364
 1118PF6-    F514496  -0.142   4.947   5.455 -0.2472  0.3593  0.3034
 1118PF6-    F614497  -0.006   4.822   5.322 -0.0539  0.3184  0.0137
 1118PF6-    F714498   0.038   5.017   5.571 -0.3504 -0.2379  0.1550
 1119PF6-    P114499   4.855   5.180   0.631  0.1058  0.0678 -0.3517
 1119PF6-    F214500   4.809   5.164   0.787 -0.6031  0.0586 -0.2172
 1119PF6-    F314501   4.902   5.203   0.481 -0.5632  0.3620  0.0283
 1119PF6-    F414502   4.870   5.340   0.661  0.0701  0.7129  0.0115
 1119PF6-    F514503   4.842   5.030   0.615  0.7402 -0.1001  0.3376
 1119PF6-    F614504   4.700   5.201   0.585 -0.2188  0.1904 -0.1292
 1119PF6-    F714505   5.009   5.153   0.673 -0.0836  0.0614  0.2636
 1120PF6-    P114506   3.396   2.378   1.479  0.5893 -0.1685 -0.2893
 1120PF6-    F214507   3.302   2.254   1.441 -0.2398  0.6083  0.1659
 1120PF6-    F314508   3.486   2.506   1.513 -0.1535  0.0790 -0.1837
 1120PF6-    F414509   3.503   2.280   1.536 -0.2339 -0.7924  0.3222
 1120PF6-    F514510   3.289   2.477   1.408 -0.3284  0.3847 -0.4233
 1120PF6-    F614511   3.318   2.390   1.620 -0.1089  0.5069 -0.1593
 1120PF6-    F714512   3.474   2.366   1.337 -0.0129 -0.3376 -0.0856
 1121PF6-    P114513   0.460   2.629   3.779  0.2940  0.5939 -0.1169
 1121PF6-    F214514   0.367   2.754   3.734 -0.2394 -0.6475 -0.3642
 1121PF6-    F314515   0.552   2.507   3.810 -0.5016  0.8077  0.1018
 1121PF6-    F414516   0.398   2.547   3.655  0.1288  0.5544 -0.1211
 1121PF6-    F514517   0.530   2.718   3.893  0.4189 -0.0237  0.2204
 1121PF6-    F614518   0.347   2.574   3.875 -0.4330  0.2267 -0.0641
 1121PF6-    F714519   0.570   2.676   3.680  0.1197  0.1743  0.4609
 1122PF6-    P114520   4.723   5.067   4.292 -0.3025  0.8478  0.0946
 1122PF6-    F214521   4.881   5.096   4.292 -0.6094 -0.3986  0.0307
 1122PF6-    F314522   4.568   5.043   4.304 -0.1030  0.1094  0.2310
 1122PF6-    F414523   4.707   5.092   4.134  0.2803  0.5575 -0.0595
 1122PF6-    F514524   4.735   5.049   4.452 -0.2573  0.2894 -0.0159
 1122PF6-    F614525   4.685   5.220   4.316 -0.6961  0.1573 -0.2174
 1122PF6-    F714526   4.755   4.911   4.268  0.3202  0.2783 -0.0326
 1123PF6-    P114527   3.436   4.550   2.466 -0.4527  0.0847 -0.1040
 1123PF6-    F214528   3.369   4.688   2.416  0.0085  0.2813 -0.5411
 1123PF6-    F314529   3.510   4.423   2.528  0.7329 -0.4028  0.2777
 1123PF6-    F414530   3.497   4.536   2.317 -0.3104  0.0417 -0.1965
 1123PF6-    F514531   3.359   4.572   2.605  0.2742 -0.4895  0.7896
 1123PF6-    F614532   3.308   4.462   2.416 -0.2053 -1.0593  0.1696
 1123PF6-    F714533   3.562   4.636   2.513 -0.1893 -0.0455  0.2087
 1124PF6-    P114534   0.083   2.305   3.117  0.5545 -0.0723  0.0330
 1124PF6-    F214535   0.135   2.437   3.045  0.0081 -0.1160  0.1362
 1124PF6-    F314536   0.031   2.173   3.192  0.1901 -0.3860  0.0835
 1124PF6-    F414537   0.111   2.378   3.258  0.1841 -0.7120 -0.1385
 1124PF6-    F514538   0.059   2.235   2.973  0.2858 -0.5097 -0.1977
 1124PF6-    F614539   0.236   2.251   3.110 -0.0929  0.1370  0.2228
 1124PF6-    F714540  -0.071   2.365   3.121 -0.4585  0.2496 -0.1152
 1125PF6-    P114541   2.347   1.568   1.029  0.5365  0.3577 -0.4469
 1125PF6-    F214542   2.498   1.606   1.014 -0.1015 -0.6397  0.2614
 1125PF6-    F314543   2.201   1.528   1.068 -0.2879 -0.1026 -0.3682
 1125PF6-    F414544   2.371   1.436   0.949  0.1650 -0.0451  0.0776
 1125PF6-    F514545   2.327   1.701   1.121 -0.4906 -0.3930  0.2749
 1125PF6-    F614546   2.300   1.639   0.897  0.2470  0.0010  0.5766
 1125PF6-    F714547   2.396   1.497   1.168  0.2764  0.1366  0.3951
 1126PF6-    P114548   0.693   4.709   4.725  0.2315  0.2629  0.1566
 1126PF6-    F214549   0.764   4.847   4.774 -0.1994  0.5483 -0.2116
 1126PF6-    F314550   0.621   4.569   4.680 -0.4667 -0.1060 -0.0635
 1126PF6-    F414551   0.671   4.769   4.580  0.6508  0.2702  0.2561
 1126PF6-    F514552   0.717   4.643   4.874 -0.2426  0.4127 -0.0179
 1126PF6-    F614553   0.554   4.773   4.776  0.5749 -0.5599  0.3550
 1126PF6-    F714554   0.838   4.648   4.686 -0.2228 -0.2407  0.1635
 1127PF6-    P114555   1.241   4.820   3.640  0.3339  0.4763 -0.2155
 1127PF6-    F214556   1.285   4.895   3.772 -0.1564 -0.1160 -0.2092
 1127PF6-    F314557   1.184   4.741   3.520 -0.0507 -0.8456  0.3733
 1127PF6-    F414558   1.310   4.925   3.540  0.4308 -0.6126 -0.2313
 1127PF6-    F514559   1.172   4.715   3.735  0.0938 -0.3566  0.5214
 1127PF6-    F614560   1.109   4.914   3.642 -0.0088  0.4593  0.0705
 1127PF6-    F714561   1.374   4.732   3.638  0.1989 -0.3181  0.3965
 1128PF6-    P114562   2.615   4.887   3.049  0.0251 -0.3364  0.5613
 1128PF6-    F214563   2.684   4.809   2.929 -0.4145 -0.0648  0.0095
 1128PF6-    F314564   2.550   4.970   3.171 -0.1108  0.0462  0.2781
 1128PF6-    F414565   2.593   5.021   2.956  0.0617  0.2372 -0.4641
 1128PF6-    F514566   2.637   4.771   3.147 -0.2528  0.3616  0.2797
 1128PF6-    F614567   2.761   4.939   3.097  0.2729 -0.1584  0.0704
 1128PF6-    F714568   2.470   4.831   3.007  0.6337  0.0465  0.1046
 1129PF6-    P114569   3.618   5.325   1.401 -0.1395 -0.0467  0.7338
 1129PF6-    F214570   3.776   5.296   1.379  0.6535 -0.2914  0.4182
 1129PF6-    F314571   3.465   5.365   1.430  0.1346  0.2259 -0.6271
 1129PF6-    F414572   3.636   5.249   1.540  0.4847  0.2710  0.6093
 1129PF6-    F514573   3.614   5.399   1.254  0.0142  0.1853 -0.4763
 1129PF6-    F614574   3.575   5.181   1.341  0.3680 -0.0048 -0.2917
 1129PF6-    F714575   3.661   5.460   1.464 -0.1465 -0.2881 -0.3527
 1130PF6-    P114576   0.097   1.799   3.051 -0.0611  0.3944  0.0063
 1130PF6-    F214577  -0.009   1.691   2.987 -0.3321  0.1995  0.2559
 1130PF6-    F314578   0.206   1.897   3.109 -0.0642  0.1437  0.0397
 1130PF6-    F414579   0.216   1.716   2.982 -0.0652 -0.1264 -0.3028
 1130PF6-    F514580  -0.026   1.877   3.120 -0.3187  0.3046  0.0483
 1130PF6-    F614581   0.102   1.705   3.183 -0.2064  0.6409  0.6313
 1130PF6-    F714582   0.081   1.887   2.920 -0.3970  0.6867 -0.3392
 1131PF6-    P114583   0.960   3.135   1.132 -0.4452  0.5419  0.0427
 1131PF6-    F214584   0.912   3.209   1.265 -0.3821 -0.9778  0.1084
 1131PF6-    F314585   1.016   3.050   0.999 -0.7461 -0.1020 -0.1056
 1131PF6-    F414586   0.807   3.111   1.097  0.1579  0.4567  0.3519
 1131PF6-    F514587   1.112   3.160   1.173  0.0959  0.2491 -0.8026
 1131PF6-    F614588   0.967   2.994   1.216  0.2327  0.1814  0.2774
 1131PF6-    F714589   0.963   3.273   1.049  0.0184  0.6224  0.5095
 1132PF6-    P114590   2.399   3.945   5.287  0.4499  0.4916  0.0639
 1132PF6-    F214591   2.440   4.060   5.185  0.0995 -0.1323 -0.1096
 1132PF6-    F314592   2.350   3.831   5.388 -0.0525 -0.2152  0.4565
 1132PF6-    F414593   2.549   3.912   5.296 -0.4962  0.3164 -0.0526
 1132PF6-    F514594   2.249   3.984   5.262  0.4125  0.4321  0.3378
 1132PF6-    F614595   2.396   3.834   5.168  0.5056  0.2530  0.4827
 1132PF6-    F714596   2.413   4.047   5.410 -0.1142 -0.0371  0.0598
 1133PF6-    P114597   4.624   5.366   1.549 -0.3856 -0.5269  0.6204
 1133PF6-    F214598   4.512   5.343   1.661 -0.4052  0.6940  0.4645
 1133PF6-    F314599   4.741   5.384   1.439 -0.1872  0.1471 -0.2056
 1133PF6-    F414600   4.606   5.214   1.502 -0.0453  0.1910 -0.5234
 1133PF6-    F514601   4.648   5.512   1.603 -0.4641  0.3069 -0.0539
 1133PF6-    F614602   4.740   5.323   1.649  0.2333  0.1622 -0.0976
 1133PF6-    F714603   4.510   5.415   1.444  0.4053  0.2799 -0.3409
 1134PF6-    P114604   3.944   2.036   4.212 -0.0658 -0.1220 -0.1991
 1134PF6-    F214605   4.004   1.886   4.222 -0.2269 -0.0737  0.0504
 1134PF6-    F314606   3.887   2.186   4.207  0.0789 -0.0670 -0.0820
 1134PF6-    F414607   4.087   2.094   4.158 -0.5862 -0.2292 -0.7396
 1134PF6-    F514608   3.800   1.977   4.255 -0.2441 -0.0101 -0.0652
 1134PF6-    F614609   3.985   2.061   4.366  0.2324 -0.4504 -0.5116
 1134PF6-    F714610   3.904   2.012   4.059  0.3580 -0.1093  0.3697
 1135PF6-    P114611   3.904   0.246   4.732  0.4406 -0.2584 -0.0764
 1135PF6-    F214612   3.801   0.125   4.705 -0.1438 -0.0741 -0.1345
 1135PF6-    F314613   4.011   0.369   4.765 -0.4110 -0.1028 -0.1084
 1135PF6-    F414614   3.819   0.295   4.856  0.8309  0.1191  0.1156
 1135PF6-    F514615   3.991   0.196   4.606  0.9024  0.4990 -0.2471
 1135PF6-    F614616   3.821   0.345   4.634 -0.2449 -0.1767  0.4502
 1135PF6-    F714617   3.990   0.155   4.832  0.3666  0.4445  0.0925
 1136PF6-    P114618   0.547   0.431   3.213  0.0329 -0.2450  0.0956
 1136PF6-    F214619   0.599   0.445   3.066 -0.7156 -0.1058 -0.1641
 1136PF6-    F314620   0.480   0.421   3.353 -0.1764  0.0374  0.2276
 1136PF6-    F414621   0.639   0.303   3.242 -0.1243 -0.7382  0.1593
 1136PF6-    F514622   0.453   0.558   3.192 -0.2617 -0.0359 -0.4390
 1136PF6-    F614623   0.425   0.330   3.160 -0.4957 -0.0295 -0.4092
 1136PF6-    F714624   0.661   0.526   3.262 -0.0122  0.2259 -0.5713
 1137PF6-    P114625   3.846   4.042   0.007  0.2744 -0.3993  0.1911
 1137PF6-    F214626   3.898   3.930   0.102 -0.6102 -0.0482  0.4792
 1137PF6-    F314627   3.803   4.155  -0.099  0.1584  0.0448  0.2011
 1137PF6-    F414628   3.989   4.033  -0.065 -0.1803 -0.2317  0.7397
 1137PF6-    F514629   3.706   4.050   0.073 -0.4683 -0.2470 -0.1632
 1137PF6-    F614630   3.902   4.156   0.109 -0.0351  0.3869 -0.1352
 1137PF6-    F714631   3.794   3.925  -0.095 -0.0228  0.0180  0.6361
 1138PF6-    P114632   0.859   0.953   1.534  0.2948  0.3071 -0.0441
 1138PF6-    F214633   0.800   0.809   1.587 -0.1629  0.1069  0.3140
 1138PF6-    F314634   0.917   1.097   1.483  0.3025  0.1064  0.0085
 1138PF6-    F414635   0.995   0.888   1.477 -0.3153 -0.7896 -0.1450
 1138PF6-    F514636   0.730   1.024   1.586  0.5809 -0.3985  0.0168
 1138PF6-    F614637   0.932   0.978   1.674 -0.3818 -0.3313 -0.6836
 1138PF6-    F714638   0.789   0.925   1.395 -0.0622 -0.4731 -0.0096
 1139PF6-    P114639   3.448   3.944   1.706  0.3793  0.1007  0.5280
 1139PF6-    F214640   3.575   4.043   1.701  0.7426  0.4026  0.0351
 1139PF6-    F314641   3.322   3.847   1.713 -0.2817 -0.1128 -0.3468
 1139PF6-    F414642   3.343   4.064   1.683 -0.2958 -0.1528  0.3682
 1139PF6-    F514643   3.540   3.823   1.739 -0.0472  0.2020 -0.5481
 1139PF6-    F614644   3.424   3.975   1.865  0.0106  0.4795  0.6753
 1139PF6-    F714645   3.459   3.920   1.548  0.2075 -0.7302  0.4254
 1140PF6-    P114646   2.957   4.249   4.601  0.2539 -0.2507 -0.8084
 1140PF6-    F214647   2.797   4.219   4.613 -0.0986 -0.2445  0.3555
 1140PF6-    F314648   3.117   4.273   4.593  0.0150  0.1040 -0.1521
 1140PF6-    F414649   2.934   4.310   4.456  0.5568 -0.3247  0.2612
 1140PF6-    F514650   2.970   4.184   4.748 -0.0191  0.5148  0.2921
 1140PF6-    F614651   2.985   4.107   4.535 -0.2404 -0.7155 -0.3653
 1140PF6-    F714652   2.929   4.394   4.663 -0.0750 -0.4504 -0.8529
 1141PF6-    P114653   2.208   0.565   1.837  0.2635  0.2647  0.0777
 1141PF6-    F214654   2.076   0.469   1.841 -0.0479 -0.1612  0.4812
 1141PF6-    F314655   2.333   0.664   1.834  0.4883 -0.0888  0.3697
 1141PF6-    F414656   2.276   0.485   1.959 -0.2951  0.3327  0.3269
 1141PF6-    F514657   2.137   0.641   1.713 -0.1827  0.2209  0.0902
 1141PF6-    F614658   2.136   0.666   1.941 -0.0790  0.4608 -0.8340
 1141PF6-    F714659   2.277   0.466   1.731 -0.4981  0.1245 -0.0116
 1142PF6-    P114660   1.362   1.098   3.661  0.5799  0.1644  0.1199
 1142PF6-    F214661   1.502   1.095   3.585  0.4103 -0.7324 -0.1729
 1142PF6-    F314662   1.223   1.097   3.742  0.8000  0.0703 -0.4670
 1142PF6-    F414663   1.308   1.220   3.569  0.4349 -0.5640  0.5431
 1142PF6-    F514664   1.408   0.970   3.751 -0.2367  0.0448  0.2106
 1142PF6-    F614665   1.415   1.209   3.766 -0.4201  0.4467  0.1419
 1142PF6-    F714666   1.298   0.992   3.563  0.2840  0.7627  0.0975
 1143PF6-    P114667   1.339   3.460   2.801  0.4227 -0.4701  0.0129
 1143PF6-    F214668   1.341   3.458   2.640 -0.1208  0.0708 -0.0766
 1143PF6-    F314669   1.342   3.451   2.962 -0.0139 -0.4515  0.5491
 1143PF6-    F414670   1.208   3.369   2.791 -0.1110  0.0999  0.5331
 1143PF6-    F514671   1.465   3.560   2.809  0.3827  0.3328  0.0652
 1143PF6-    F614672   1.245   3.583   2.813 -0.1202 -0.3150  0.1760
 1143PF6-    F714673   1.434   3.334   2.798  0.1012  0.1315  0.1570
 1144PF6-    P114674   1.794   2.720   5.226  0.1122 -0.2249 -0.0311
 1144PF6-    F214675   1.657   2.653   5.281  0.3273  0.1466 -0.0585
 1144PF6-    F314676   1.925   2.798   5.181  0.6889 -0.6674  0.0498
 1144PF6-    F414677   1.713   2.775   5.095  0.3810  0.6317 -0.2611
 1144PF6-    F514678   1.876   2.664   5.347  0.2041 -0.2656 -0.4511
 1144PF6-    F614679   1.833   2.586   5.145 -0.6271  0.4715  0.5402
 1144PF6-    F714680   1.756   2.853   5.317  0.7536 -0.0523 -0.2003
 1145PF6-    P114681   0.853   5.334   1.681 -0.0730  0.2220 -0.0129
 1145PF6-    F214682   0.760   5.277   1.798  0.1033 -0.0664 -0.5215
 1145PF6-    F314683   0.941   5.390   1.559 -0.8505  0.0646  0.0019
 1145PF6-    F414684   0.985   5.278   1.757  0.1860 -0.1540  0.2490
 1145PF6-    F514685   0.725   5.395   1.610 -0.3141 -0.2786 -0.2618
 1145PF6-    F614686   0.868   5.474   1.764  0.3166 -0.2427 -0.1445
 1145PF6-    F714687   0.826   5.191   1.610  0.2024  0.5149  0.4420
 1146PF6-    P114688   2.929   1.155   3.686 -0.1356 -0.0422  0.1597
 1146PF6-    F214689   3.050   1.216   3.603  0.0301  0.1618  0.3805
 1146PF6-    F314690   2.808   1.090   3.777  0.0591  0.2587 -0.1463
 1146PF6-    F414691   3.036   1.122   3.803  0.7525  0.4484 -0.1860
 1146PF6-    F514692   2.828   1.187   3.567 -0.5010 -0.3295  0.6805
 1146PF6-    F614693   2.956   1.009   3.627  0.3706  0.2807  0.2600
 1146PF6-    F714694   2.903   1.304   3.754  0.1609  0.2454 -0.2129
 1147PF6-    P114695   2.228   3.459   4.654  0.0863  0.3526 -0.2175
 1147PF6-    F214696   2.268   3.305   4.662 -0.1785 -0.0916 -0.3869
 1147PF6-    F314697   2.184   3.612   4.646 -0.0225 -0.0407 -0.2818
 1147PF6-    F414698   2.339   3.493   4.763  0.0390 -0.1313  0.2818
 1147PF6-    F514699   2.118   3.420   4.545 -0.1343  0.3772  0.4722
 1147PF6-    F614700   2.117   3.434   4.774 -0.4610 -0.2097  0.3847
 1147PF6-    F714701   2.340   3.485   4.532 -0.1681  0.4913  0.0027
 1148PF6-    P114702   3.876   4.978   1.098  0.2015 -0.0581 -0.2242
 1148PF6-    F214703   3.829   4.879   1.223 -0.4019 -0.3520  0.0647
 1148PF6-    F314704   3.922   5.067   0.975  0.5744  0.2806 -0.2352
 1148PF6-    F414705   3.866   4.852   0.995  0.2213 -0.2965 -0.2941
 1148PF6-    F514706   3.891   5.099   1.202  0.0310  0.2808  0.2621
 1148PF6-    F614707   4.027   4.939   1.121  0.2677  0.0652  0.0195
 1148PF6-    F714708   3.722   5.014   1.071  0.7815 -0.3749  0.2676
 1149PF6-    P114709   0.727   3.245   3.760  0.4367 -0.0305  0.0905
 1149PF6-    F214710   0.636   3.295   3.638  0.3274  0.1682 -0.9435
 1149PF6-    F314711   0.815   3.186   3.880 -0.3784 -0.2555 -0.1654
 1149PF6-    F414712   0.749   3.395   3.813 -0.0906 -0.0250 -0.8472
 1149PF6-    F514713   0.704   3.093   3.705  0.0433  0.1017  0.1530
 1149PF6-    F614714   0.858   3.262   3.659  0.4684  0.2567 -0.4195
 1149PF6-    F714715   0.592   3.226   3.847  0.6994 -0.4306  0.2822
 1150PF6-    P114716   2.163   1.538   0.330 -0.3778  0.2275  0.3184
 1150PF6-    F214717   2.312   1.478   0.310 -0.4468  0.0238 -0.9037
 1150PF6-    F314718   2.012   1.592   0.349  0.9620  0.1328 -0.3387
 1150PF6-    F414719   2.166   1.504   0.484 -0.1931 -0.0176 -0.0477
 1150PF6-    F514720   2.164   1.576   0.171  0.1702 -0.4306 -0.1680
 1150PF6-    F614721   2.111   1.389   0.294 -0.4056 -0.0939 -0.3794
 1150PF6-    F714722   2.221   1.682   0.359  0.4478  0.3580 -0.1665
 1151PF6-    P114723   5.179   2.674   0.818 -0.1450 -0.2633 -0.2846
 1151PF6-    F214724   5.193   2.635   0.664  0.1830  0.6079  0.0017
 1151PF6-    F314725   5.164   2.718   0.972 -0.6026  0.4804  0.1121
 1151PF6-    F414726   5.059   2.574   0.827  0.4723  0.2435  0.1940
 1151PF6-    F514727   5.305   2.767   0.799  0.5235  0.5468  0.0834
 1151PF6-    F614728   5.084   2.790   0.778  0.3082 -0.0900 -0.2784
 1151PF6-    F714729   5.271   2.556   0.866 -0.0941  0.5292 -0.4392
 1152PF6-    P114730   5.387   3.965   1.287  0.0565  0.0119  0.0847
 1152PF6-    F214731   5.308   4.099   1.267 -0.1194  0.6161 -0.0587
 1152PF6-    F314732   5.464   3.830   1.307  0.0425 -0.1712  0.5068
 1152PF6-    F414733   5.513   4.049   1.350  0.1201  0.2173 -0.0848
 1152PF6-    F514734   5.262   3.882   1.230  0.3188  0.6502  0.1192
 1152PF6-    F614735   5.445   3.976   1.136 -0.2338 -0.2997 -0.1079
 1152PF6-    F714736   5.334   3.952   1.436 -0.3632 -0.2515 -0.3077
 1153PF6-    P114737   4.457   4.328   1.975  0.5127  0.1542 -0.1049
 1153PF6-    F214738   4.294   4.321   1.942 -0.1386 -0.1916 -0.0884
 1153PF6-    F314739   4.612   4.337   2.000 -0.2173  0.4562  0.2787
 1153PF6-    F414740   4.438   4.474   2.028 -0.3001  0.0786 -0.0285
 1153PF6-    F514741   4.467   4.180   1.921 -0.2785 -0.3701 -0.2677
 1153PF6-    F614742   4.488   4.382   1.832  0.0389  0.2920 -0.5041
 1153PF6-    F714743   4.440   4.270   2.127  0.4164 -0.2209  0.0804
 1154PF6-    P114744   0.342   4.228   3.494  0.5359  0.7374  0.0501
 1154PF6-    F214745   0.421   4.235   3.355 -0.2759  0.1890  0.9478
 1154PF6-    F314746   0.273   4.219   3.639 -0.2076 -0.0245  0.0036
 1154PF6-    F414747   0.463   4.139   3.543  0.1715 -0.1841  0.4328
 1154PF6-    F514748   0.219   4.315   3.436  0.6277 -0.4443  0.0712
 1154PF6-    F614749   0.259   4.090   3.454 -0.2299 -0.2235 -0.1081
 1154PF6-    F714750   0.424   4.353   3.544  0.2817 -0.0282  0.0626
 1155PF6-    P114751   4.055   5.356   0.265 -0.2658  0.3574  0.0960
 1155PF6-    F214752   4.169   5.368   0.147 -0.1498  0.1911  0.0110
 1155PF6-    F314753   3.946   5.358   0.380 -0.2565 -0.3164  0.3795
 1155PF6-    F414754   4.078   5.200   0.288  0.3603  0.4127 -0.2003
 1155PF6-    F514755   4.033   5.508   0.237  0.0334 -0.0892 -0.1925
 1155PF6-    F614756   3.939   5.322   0.158  0.5430 -0.0707  0.0723
 1155PF6-    F714757   4.164   5.395   0.374  0.0845 -0.1712  0.8778
 1156PF6-    P114758   0.779   3.472   2.749  0.0702  0.3344  0.5877
 1156PF6-    F214759   0.853   3.575   2.854  0.0145 -0.1166  0.2176
 1156PF6-    F314760   0.706   3.368   2.652  0.3669  0.3798  0.3781
 1156PF6-    F414761   0.921   3.398   2.719 -0.4363  0.3328 -0.7666
 1156PF6-    F514762   0.644   3.543   2.788  0.4088 -0.0280 -0.6273
 1156PF6-    F614763   0.798   3.574   2.622  0.4182 -0.0562 -0.2599
 1156PF6-    F714764   0.767   3.376   2.866 -0.2032 -0.7900 -0.3364
 1157PF6-    P114765   5.140   0.486   4.307  0.0343  0.1260  0.5875
 1157PF6-    F214766   5.250   0.433   4.406  0.3047 -0.1319 -0.1306
 1157PF6-    F314767   5.025   0.537   4.210 -0.1340 -0.3076  0.2058
 1157PF6-    F414768   5.241   0.614   4.274  0.3470 -0.3783 -0.5809
 1157PF6-    F514769   5.049   0.353   4.328  0.6141 -0.0058 -0.3329
 1157PF6-    F614770   5.082   0.566   4.431 -0.0105  0.2882  0.5418
 1157PF6-    F714771   5.203   0.416   4.186 -0.2901 -0.0149 -0.2229
 1158PF6-    P114772   0.323   5.294   0.999 -0.0761 -0.2777 -0.0583
 1158PF6-    F214773   0.211   5.311   0.890  0.1966  0.0039 -0.2300
 1158PF6-    F314774   0.436   5.277   1.112  0.5781  0.1822  0.0628
 1158PF6-    F414775   0.345   5.140   0.954 -0.2442  0.0210 -0.0368
 1158PF6-    F514776   0.296   5.449   1.044  0.0506 -0.2917 -0.2806
 1158PF6-    F614777   0.211   5.243   1.106 -0.3270 -0.3957  0.0951
 1158PF6-    F714778   0.442   5.343   0.902  0.4602  0.0546 -0.2152
 1159PF6-    P114779   2.859   4.832   0.900 -0.2250  0.3046 -0.3787
 1159PF6-    F214780   2.935   4.887   0.770 -0.1911  0.0339  0.3672
 1159PF6-    F314781   2.775   4.769   1.017 -0.1810  0.3776  0.0770
 1159PF6-    F414782   2.974   4.717   0.920  0.2775  0.1620 -0.1891
 1159PF6-    F514783   2.750   4.952   0.883  0.1935 -0.2577  0.0446
 1159PF6-    F614784   2.782   4.734   0.799  0.7391  0.2821  0.0038
 1159PF6-    F714785   2.948   4.925   1.002 -0.5670  0.2357 -0.2804
 1160PF6-    P114786   1.359   5.426   4.480  0.4450  0.1747 -0.0073
 1160PF6-    F214787   1.384   5.579   4.455 -0.4196 -0.3430  0.8501
 1160PF6-    F314788   1.327   5.266   4.507 -0.2568  0.1893  0.3076
 1160PF6-    F414789   1.219   5.467   4.546  0.3754 -0.0879  0.4008
 1160PF6-    F514790   1.494   5.383   4.407 -0.6679 -0.3063  0.3733
 1160PF6-    F614791   1.431   5.444   4.619 -0.3347 -0.0202 -0.0586
 1160PF6-    F714792   1.288   5.407   4.336 -0.3047 -0.1461 -0.3857
 1161PF6-    P114793   2.669   4.890   0.301  0.0817  0.2485 -0.1986
 1161PF6-    F214794   2.739   4.741   0.299 -0.2483 -0.0038  0.3797
 1161PF6-    F314795   2.605   5.037   0.300  0.1016  0.1859 -0.3128
 1161PF6-    F414796   2.585   4.856   0.437  0.0959  0.5400 -0.0701
 1161PF6-    F514797   2.759   4.929   0.172 -0.3597 -0.0967 -0.8104
 1161PF6-    F614798   2.550   4.828   0.210  0.6937  0.0689  0.1397
 1161PF6-    F714799   2.790   4.939   0.386  0.0261  0.0310  0.2820
 1162PF6-    P114800   0.115   0.653   4.854  0.2331  0.1656  0.1474
 1162PF6-    F214801   0.194   0.778   4.901 -0.0570  0.1865  0.0700
 1162PF6-    F314802   0.032   0.524   4.808  0.3358  0.0143 -0.3554
 1162PF6-    F414803   0.112   0.707   4.705 -0.1583 -0.3175  0.2957
 1162PF6-    F514804   0.112   0.596   5.003 -0.2228  0.2629  0.5855
 1162PF6-    F614805  -0.020   0.731   4.885 -0.4438  0.5088  0.1041
 1162PF6-    F714806   0.253   0.573   4.820 -0.0537 -0.0671  0.6797
 1163PF6-    P114807   1.266   1.498   0.094 -0.1112 -0.1078 -0.9891
 1163PF6-    F214808   1.306   1.353   0.149 -0.2493  0.1960 -0.1351
 1163PF6-    F314809   1.227   1.643   0.044  0.0547  0.0492  0.5018
 1163PF6-    F414810   1.182   1.516   0.228 -0.5309 -0.1842 -0.1633
 1163PF6-    F514811   1.351   1.476  -0.043 -0.0286  0.4087 -0.1230
 1163PF6-    F614812   1.140   1.437   0.024 -0.4601 -0.3269  0.0801
 1163PF6-    F714813   1.398   1.552   0.163 -0.2160  0.4263 -0.5720
 1164PF6-    P114814   0.377   1.679   1.075  0.0434  0.0278  0.1717
 1164PF6-    F214815   0.443   1.819   1.112  0.3016  0.1683 -0.3515
 1164PF6-    F314816   0.312   1.532   1.044 -0.3480 -0.2829  0.2936
 1164PF6-    F414817   0.285   1.689   1.210  0.1062  0.2830 -0.5872
 1164PF6-    F514818   0.479   1.665   0.954  0.7940 -0.2678 -0.3576
 1164PF6-    F614819   0.486   1.611   1.161 -0.4316  0.0148 -0.0549
 1164PF6-    F714820   0.266   1.748   0.988  0.1890 -0.5336  0.3037
 1165PF6-    P114821   2.657   1.903   4.650  0.0665 -0.3485 -0.1393
 1165PF6-    F214822   2.571   1.812   4.751  0.0043  0.5321 -0.1928
 1165PF6-    F314823   2.750   1.999   4.552  0.1108 -0.0805  0.3349
 1165PF6-    F414824   2.788   1.838   4.717 -0.1488 -0.2514 -0.2102
 1165PF6-    F514825   2.524   1.962   4.576 -0.0365  0.1347 -0.2384
 1165PF6-    F614826   2.655   2.020   4.762 -0.2940  0.0819 -0.6537
 1165PF6-    F714827   2.657   1.796   4.538  0.6658  0.3547  0.0348
 1166PF6-    P114828   2.714   0.667   1.318  0.0302 -0.0677 -0.0136
 1166PF6-    F214829   2.580   0.615   1.374  0.2059  0.0844 -0.0724
 1166PF6-    F314830   2.853   0.717   1.260 -0.1393  0.5491  0.0556
 1166PF6-    F414831   2.651   0.810   1.292  0.2680 -0.1693  0.1138
 1166PF6-    F514832   2.777   0.523   1.346 -0.3759 -0.5503  0.8411
 1166PF6-    F614833   2.664   0.620   1.170  0.0275  0.5594  0.0144
 1166PF6-    F714834   2.761   0.713   1.464 -0.5367 -0.5717  0.2735
 1167PF6-    P114835   4.108   0.976   4.896  0.6986 -0.1424 -0.0116
 1167PF6-    F214836   4.013   0.919   5.010  0.1173  0.6344 -0.7218
 1167PF6-    F314837   4.200   1.048   4.782  0.2738  0.0688 -0.2118
 1167PF6-    F414838   4.222   0.873   4.925  1.4132  0.4544 -0.4998
 1167PF6-    F514839   3.998   1.091   4.859 -0.8299  0.0702 -0.1254
 1167PF6-    F614840   4.175   1.065   5.008 -0.7133 -0.2266 -0.1212
 1167PF6-    F714841   4.038   0.875   4.792 -0.5435 -0.4744 -0.4396
 1168PF6-    P114842   5.112   3.694   0.839  0.5144  0.4402  0.0719
 1168PF6-    F214843   5.252   3.759   0.889 -0.0804  0.2230  0.6080
 1168PF6-    F314844   4.960   3.630   0.791 -0.5682  0.0387  0.6649
 1168PF6-    F414845   5.081   3.826   0.764 -0.4067 -0.1007  0.2982
 1168PF6-    F514846   5.146   3.559   0.919 -0.7537 -0.2726  0.1752
 1168PF6-    F614847   5.043   3.753   0.975  0.1868  0.0414 -0.1732
 1168PF6-    F714848   5.182   3.630   0.709  0.6173  0.0640  0.2838
 1169PF6-    P114849   2.382   5.236   1.356 -0.6604 -0.0449  0.4842
 1169PF6-    F214850   2.458   5.186   1.219  0.0058  0.1582  0.3039
 1169PF6-    F314851   2.309   5.281   1.488 -0.4283 -0.4368  0.1196
 1169PF6-    F414852   2.519   5.307   1.399  0.0063  0.0389 -0.2995
 1169PF6-    F514853   2.250   5.166   1.309 -0.2145  0.4459  0.1360
 1169PF6-    F614854   2.422   5.105   1.427 -0.2933 -0.0367  0.0408
 1169PF6-    F714855   2.338   5.368   1.280  0.1080  0.2286 -0.1820
 1170PF6-    P114856   3.824   1.808   0.771 -0.1444  0.1277  0.1437
 1170PF6-    F214857   3.862   1.865   0.629 -0.2637 -0.2925  0.0248
 1170PF6-    F314858   3.803   1.749   0.918 -0.0023 -0.1879  0.8818
 1170PF6-    F414859   3.830   1.954   0.831  0.5811  0.2503 -0.1779
 1170PF6-    F514860   3.820   1.661   0.711 -0.1320  0.0987  0.2363
 1170PF6-    F614861   3.981   1.787   0.802 -0.5706 -0.0397 -0.2945
 1170PF6-    F714862   3.667   1.822   0.745 -0.3765 -0.3053  0.2461
 1171PF6-    P114863   0.791   4.531   3.628 -0.3514  0.0155 -0.1827
 1171PF6-    F214864   0.870   4.639   3.726  0.1243  0.3114  0.3752
 1171PF6-    F314865   0.716   4.427   3.532 -0.8276 -0.5767  0.6226
 1171PF6-    F414866   0.665   4.532   3.725  0.1524 -0.1093  0.3055
 1171PF6-    F514867   0.919   4.524   3.533  0.3039 -0.1843  0.1387
 1171PF6-    F614868   0.855   4.410   3.713  0.1561  0.2835  0.5362
 1171PF6-    F714869   0.730   4.655   3.541 -0.2273 -0.2626  0.5859
 1172PF6-    P114870   2.364   4.906   4.921 -0.0591  0.0729 -0.1487
 1172PF6-    F214871   2.298   5.046   4.891  0.7751 -0.2492  0.4345
 1172PF6-    F314872   2.429   4.766   4.957 -0.2324  0.3312 -0.7773
 1172PF6-    F414873   2.501   4.974   4.977 -0.1456  0.2364  0.4340
 1172PF6-    F514874   2.236   4.832   4.862 -0.1269 -0.2617 -0.3796
 1172PF6-    F614875   2.434   4.898   4.770  0.6753  0.1122  0.3665
 1172PF6-    F714876   2.306   4.908   5.070  0.3682 -0.0286  0.1583
 1173PF6-    P114877   3.106   4.518   2.953 -0.0323  0.0637  0.1560
 1173PF6-    F214878   2.948   4.490   2.922 -0.6337 -0.4650 -0.0409
 1173PF6-    F314879   3.261   4.550   2.982  0.0966  0.5985  0.0567
 1173PF6-    F414880   3.062   4.625   3.066  0.0932  0.5870 -0.1116
 1173PF6-    F514881   3.150   4.413   2.843  0.1263 -0.4583  0.0385
 1173PF6-    F614882   3.094   4.626   2.833 -0.2184 -0.2270  0.4798
 1173PF6-    F714883   3.102   4.395   3.060 -0.4642 -0.3984  0.0587
 1174PF6-    P114884   3.622   0.922   4.631 -0.4060  0.2639 -0.2031
 1174PF6-    F214885   3.733   0.849   4.727  0.0465  0.6139  0.2926
 1174PF6-    F314886   3.512   0.980   4.533 -0.0738  0.5648 -0.4017
 1174PF6-    F414887   3.742   0.943   4.520 -0.1252  0.2121  0.1428
 1174PF6-    F514888   3.505   0.899   4.742 -0.2261 -0.5780 -0.4584
 1174PF6-    F614889   3.646   1.070   4.695  0.0961  0.7381 -0.0532
 1174PF6-    F714890   3.591   0.779   4.571 -0.3720  0.3779 -0.2708
 1175PF6-    P114891   3.862   1.716   0.089 -0.1157 -0.1196  0.4476
 1175PF6-    F214892   3.892   1.584   0.176 -0.1575  0.5065 -0.6935
 1175PF6-    F314893   3.830   1.848   0.008 -0.0882  0.0508  0.0456
 1175PF6-    F414894   3.717   1.728   0.158  0.0449  0.3342  0.2300
 1175PF6-    F514895   4.008   1.699   0.013 -0.1504  0.0962 -0.2371
 1175PF6-    F614896   3.809   1.625  -0.033 -0.0206  0.3131  0.2163
 1175PF6-    F714897   3.924   1.799   0.208  0.6374  0.0068 -0.8761
 1176PF6-    P114898   3.559   1.617   4.744  0.4888  0.0116  0.1023
 1176PF6-    F214899   3.478   1.731   4.662  0.3296 -0.2171 -0.9428
 1176PF6-    F314900   3.629   1.492   4.820  0.3311 -0.4757  0.2183
 1176PF6-    F414901   3.616   1.726   4.847 -0.0741 -0.3438  0.2210
 1176PF6-    F514902   3.487   1.517   4.644  0.4223  0.4004  0.2066
 1176PF6-    F614903   3.686   1.635   4.644  0.2938  0.7885  0.3248
 1176PF6-    F714904   3.435   1.602   4.846  0.4598  0.2382 -0.3011
 1177PF6-    P114905   1.983   1.370   4.201 -0.1730  0.3191 -0.0999
 1177PF6-    F214906   1.997   1.505   4.113  0.1006 -0.8385  0.1375
 1177PF6-    F314907   1.976   1.230   4.281  0.2632 -0.1572  0.3353
 1177PF6-    F414908   1.829   1.390   4.220  0.2026 -0.1171 -0.2007
 1177PF6-    F514909   2.136   1.347   4.184  0.6571  0.2011 -0.3325
 1177PF6-    F614910   2.018   1.452   4.335  0.6536 -0.1839 -0.0276
 1177PF6-    F714911   1.954   1.288   4.069 -0.1508 -0.2717  0.1263
 1178PF6-    P114912   4.114   4.943   5.019 -0.4530 -0.3019 -0.2536
 1178PF6-    F214913   4.009   4.991   5.123  0.2745 -0.7019 -0.1769
 1178PF6-    F314914   4.227   4.896   4.914 -0.6354  0.6335  0.3658
 1178PF6-    F414915   4.198   4.897   5.147 -0.2875  0.4321  0.1665
 1178PF6-    F514916   4.026   4.999   4.900 -0.1384  0.4678  0.1671
 1178PF6-    F614917   4.182   5.087   5.024 -0.4279 -0.0441 -0.0713
 1178PF6-    F714918   4.051   4.795   5.011 -0.3505  0.2066 -0.0829
 1179PF6-    P114919   5.438   1.230   1.281 -0.1556 -0.0307 -0.2108
 1179PF6-    F214920   5.397   1.133   1.162  0.1822  0.0726  0.2283
 1179PF6-    F314921   5.487   1.327   1.401  0.0217  0.4649  0.0980
 1179PF6-    F414922   5.423   1.107   1.376  0.0970  0.0022 -0.1773
 1179PF6-    F514923   5.452   1.361   1.179 -0.0691 -0.2026 -0.4302
 1179PF6-    F614924   5.281   1.264   1.312 -0.2893  0.4620  0.7165
 1179PF6-    F714925   5.592   1.193   1.247  0.6162  0.0428  0.5966
 1180PF6-    P114926   0.478   1.315   4.304 -0.2512  0.2049  0.2513
 1180PF6-    F214927   0.407   1.354   4.444 -0.0674  0.1425 -0.0780
 1180PF6-    F314928   0.547   1.272   4.164 -0.0882 -0.3421  0.0318
 1180PF6-    F414929   0.498   1.168   4.351 -0.5273  0.5055  0.7703
 1180PF6-    F514930   0.458   1.464   4.250  0.1275 -0.4135 -0.2247
 1180PF6-    F614931   0.617   1.350   4.367  0.6754  0.2231 -0.2732
 1180PF6-    F714932   0.337   1.268   4.251  0.3267 -0.0711 -0.0537
 1181PF6-    P114933   0.045   0.222   1.680 -0.3329  0.4409 -0.3767
 1181PF6-    F214934   0.019   0.129   1.552  0.3246 -0.5917  0.0769
 1181PF6-    F314935   0.068   0.312   1.807  0.2970 -0.3364  0.2078
 1181PF6-    F414936   0.146   0.109   1.741  0.1464 -0.5420  0.5105
 1181PF6-    F514937  -0.058   0.331   1.617 -0.3400 -0.5750  0.0594
 1181PF6-    F614938  -0.081   0.150   1.748 -0.5473  0.0752 -0.4038
 1181PF6-    F714939   0.171   0.292   1.610  0.7243  0.3898  0.5259
 1182PF6-    P114940   4.247   4.206   4.415  0.1273  0.0164 -0.1065
 1182PF6-    F214941   4.131   4.240   4.522  0.8209  0.0547  0.3306
 1182PF6-    F314942   4.364   4.179   4.312 -0.0011 -0.1379 -0.1254
 1182PF6-    F414943   4.149   4.116   4.317 -0.3322 -0.4463 -0.6118
 1182PF6-    F514944   4.346   4.295   4.507  0.3534  0.5093 -0.4717
 1182PF6-    F614945   4.287   4.074   4.500  0.9045 -0.4703  0.2292
 1182PF6-    F714946   4.211   4.340   4.339 -0.3877 -0.2838  0.4940
 1183PF6-    P114947   1.379   2.950   0.752 -0.2983  0.1845 -0.0614
 1183PF6-    F214948   1.461   3.056   0.834 -0.7840  0.7961 -0.3031
 1183PF6-    F314949   1.289   2.846   0.666 -0.0954  0.2875 -0.1925
 1183PF6-    F414950   1.492   2.834   0.778 -0.0010  0.1045  0.4706
 1183PF6-    F514951   1.269   3.058   0.720 -0.4608  0.1465 -0.3287
 1183PF6-    F614952   1.458   2.999   0.618  0.0628 -0.3007 -0.6905
 1183PF6-    F714953   1.293   2.913   0.885  0.3070 -0.2130  0.6949
 1184PF6-    P114954   5.222   5.378   5.096 -0.3903  0.0117 -0.1602
 1184PF6-    F214955   5.100   5.429   5.005  0.7282  0.4490  0.3482
 1184PF6-    F314956   5.350   5.331   5.185 -0.0465 -0.0801 -0.7325
 1184PF6-    F414957   5.320   5.416   4.977  0.5106 -0.9918 -0.0913
 1184PF6-    F514958   5.124   5.340   5.212 -0.2947 -0.1668  0.0460
 1184PF6-    F614959   5.211   5.228   5.040  0.0907 -0.0071  0.9414
 1184PF6-    F714960   5.238   5.527   5.158 -0.0817  0.4474  0.1758
 1185PF6-    P114961   3.157   2.736   3.770 -0.2426  0.2837  0.4715
 1185PF6-    F214962   3.190   2.847   3.660 -0.2077 -0.3323  0.5363
 1185PF6-    F314963   3.125   2.624   3.881  0.1045 -0.0227  0.2971
 1185PF6-    F414964   3.005   2.735   3.725 -0.2882 -0.7084  0.0342
 1185PF6-    F514965   3.308   2.735   3.814  0.1131  0.0642 -0.0735
 1185PF6-    F614966   3.125   2.853   3.877 -0.7285 -0.4137 -0.1059
 1185PF6-    F714967   3.188   2.620   3.664  0.1193  0.2752 -0.4075
 1186PF6-    P114968   4.590   4.603   0.071 -0.1228 -0.0176 -0.4938
 1186PF6-    F214969   4.649   4.747   0.100 -0.4192  0.0865 -0.9534
 1186PF6-    F314970   4.531   4.457   0.044 -0.1396 -0.2368 -0.4136
 1186PF6-    F414971   4.690   4.588  -0.053 -0.5557  0.1218 -0.0846
 1186PF6-    F514972   4.487   4.624   0.193 -0.1369 -0.0550  0.0865
 1186PF6-    F614973   4.487   4.671  -0.030  0.2267  0.2586 -0.4117
 1186PF6-    F714974   4.691   4.542   0.177  0.3767  0.2401 -0.4071
 1187PF6-    P114975   1.098   2.619   4.529 -0.0340 -0.6807 -0.1248
 1187PF6-    F214976   0.960   2.556   4.584 -0.1807  0.2388 -0.0870
 1187PF6-    F314977   1.236   2.676   4.474 -0.3795  0.1683 -0.6005
 1187PF6-    F414978   1.016   2.744   4.477  0.6513 -0.0177  0.3044
 1187PF6-    F514979   1.181   2.491   4.589  0.6419 -0.3674  0.1573
 1187PF6-    F614980   1.073   2.544   4.393  0.0538  0.3600 -0.1019
 1187PF6-    F714981   1.122   2.698   4.664  0.1909 -0.0662  0.0667
 1188PF6-    P114982   0.523   4.232   4.065 -0.4185  0.1249 -0.5632
 1188PF6-    F214983   0.639   4.309   4.142  0.4136  0.4629 -0.3638
 1188PF6-    F314984   0.413   4.156   3.988  0.5267 -0.3422  0.2780
 1188PF6-    F414985   0.452   4.201   4.204 -0.1637 -0.3972 -0.3181
 1188PF6-    F514986   0.594   4.274   3.925 -0.1776  0.0843  0.1531
 1188PF6-    F614987   0.609   4.096   4.074 -0.3203  0.5375 -0.2840
 1188PF6-    F714988   0.438   4.370   4.053  0.2440 -0.0021  0.5110
 1189PF6-    P114989   1.813   2.530   3.908 -0.1087  0.0369 -0.4907
 1189PF6-    F214990   1.749   2.540   4.052  0.0518  0.3533 -0.2547
 1189PF6-    F314991   1.879   2.527   3.768 -0.3852 -0.6162  0.2241
 1189PF6-    F414992   1.867   2.382   3.941  0.5288 -0.3549  0.0320
 1189PF6-    F514993   1.749   2.673   3.871 -0.5136 -0.1433  0.4286
 1189PF6-    F614994   1.941   2.608   3.965 -0.3079 -1.0253  0.3105
 1189PF6-    F714995   1.674   2.465   3.845 -0.2285 -0.3109 -0.6749
 1190PF6-    P114996   1.305   4.802   4.660 -0.4416 -0.0067  0.2604
 1190PF6-    F214997   1.256   4.851   4.805 -0.6995 -0.4202 -0.4208
 1190PF6-    F314998   1.361   4.743   4.521  0.2038 -0.0584  0.2271
 1190PF6-    F414999   1.442   4.876   4.683 -0.3102  0.2272 -0.2026
 1190PF6-    F515000   1.160   4.735   4.634 -0.0329 -0.4214 -0.5305
 1190PF6-    F615001   1.252   4.935   4.596  0.1955 -0.3837 -0.5029
 1190PF6-    F715002   1.367   4.671   4.726 -0.4089 -0.2496 -0.1341
 1191PF6-    P115003   3.529   0.775   0.977 -0.3300  0.2801  0.2090
 1191PF6-    F215004   3.384   0.842   0.994 -0.1012 -0.3309 -0.0189
 1191PF6-    F315005   3.670   0.702   0.955 -0.2309 -0.2616 -0.5779
 1191PF6-    F415006   3.602   0.918   0.980  0.2480 -0.7949  0.0220
 1191PF6-    F515007   3.460   0.633   0.981 -0.0996 -0.4574  0.5973
 1191PF6-    F615008   3.514   0.782   0.817 -0.5447 -0.1996 -0.4854
 1191PF6-    F715009   3.548   0.769   1.134 -0.2246 -0.4767  0.3357
 1192PF6-    P115010   2.201   1.177   5.189  0.0615 -0.2634  0.1332
 1192PF6-    F215011   2.321   1.201   5.291  0.0062  0.5066 -0.7588
 1192PF6-    F315012   2.080   1.143   5.090  0.9828 -0.5661  0.0573
 1192PF6-    F415013   2.187   1.332   5.151  0.2844 -0.8565 -0.6429
 1192PF6-    F515014   2.223   1.019   5.219 -0.1588 -0.2307  0.9102
 1192PF6-    F615015   2.098   1.183   5.311 -0.1256  0.0139 -0.0712
 1192PF6-    F715016   2.311   1.162   5.070  0.1088 -0.1630 -0.0025
 1193PF6-    P115017   0.825   5.015   5.199  0.2124 -0.0917  0.0677
 1193PF6-    F215018   0.917   5.151   5.207  0.6092 -0.2328 -0.2469
 1193PF6-    F315019   0.742   4.878   5.187  0.4108 -0.1936  0.6428
 1193PF6-    F415020   0.827   5.022   5.037  0.1583  0.4208 -0.2729
 1193PF6-    F515021   0.805   5.005   5.357  0.0656 -0.0168 -0.3016
 1193PF6-    F615022   0.686   5.100   5.198  0.2584  0.3304 -0.2202
 1193PF6-    F715023   0.957   4.929   5.211  0.3014 -0.2712 -0.0522
 1194PF6-    P115024   2.134   5.377   3.954  0.2394 -0.2317  0.2130
 1194PF6-    F215025   2.269   5.320   4.025  0.1901  0.4442  0.2857
 1194PF6-    F315026   2.000   5.436   3.889 -0.2288  0.6568  0.3039
 1194PF6-    F415027   2.118   5.486   4.071  0.6624  0.1192  0.6099
 1194PF6-    F515028   2.148   5.275   3.838  0.0657  0.0960 -0.0809
 1194PF6-    F615029   2.046   5.269   4.035 -0.5854  0.1258  0.3677
 1194PF6-    F715030   2.217   5.488   3.873 -0.0161  0.0502 -0.3744
 1195PF6-    P115031   4.656   2.296   4.164 -0.3190  0.1137 -0.4516
 1195PF6-    F215032   4.692   2.447   4.188 -0.1817 -0.3345 -0.3509
 1195PF6-    F315033   4.624   2.141   4.137  0.4776 -0.2490 -0.0449
 1195PF6-    F415034   4.717   2.250   4.309 -0.9305  0.3584 -0.1213
 1195PF6-    F515035   4.590   2.333   4.021  0.0813  0.2516 -0.2625
 1195PF6-    F615036   4.803   2.276   4.095 -0.1070 -0.0778 -0.0512
 1195PF6-    F715037   4.515   2.318   4.236  0.4495  0.2303  0.1270
 1196PF6-    P115038   2.913   2.126   0.593  0.3183  0.0870  0.5728
 1196PF6-    F215039   2.890   2.243   0.494  0.7869 -0.2986  0.1631
 1196PF6-    F315040   2.928   2.001   0.699  0.1269 -0.4176 -0.5092
 1196PF6-    F415041   2.806   2.194   0.690 -0.1512 -0.4948 -0.0495
 1196PF6-    F515042   3.020   2.058   0.490  0.4642 -0.1387 -0.9046
 1196PF6-    F615043   3.032   2.205   0.657 -0.0352  0.2597 -0.2795
 1196PF6-    F715044   2.802   2.043   0.516  0.1742  0.2145 -0.4840
 1197PF6-    P115045   3.142   4.768   3.768  0.2187 -0.2720  0.4213
 1197PF6-    F215046   3.047   4.692   3.659  0.0102 -0.7646  0.3666
 1197PF6-    F315047   3.231   4.857   3.871 -0.5162  0.3419  0.0827
 1197PF6-    F415048   3.199   4.635   3.822 -0.4435  0.3012 -0.0439
 1197PF6-    F515049   3.084   4.904   3.704  0.3629 -0.0943 -0.1639
 1197PF6-    F615050   3.026   4.767   3.872  0.1880  0.4074 -0.4660
 1197PF6-    F715051   3.260   4.778   3.663 -0.3289 -0.0264 -0.0669
 1198PF6-    P115052   0.166   3.330   4.168 -0.2847 -0.0777 -0.3841
 1198PF6-    F215053   0.093   3.357   4.031 -0.2671 -0.3302  0.0088
 1198PF6-    F315054   0.237   3.306   4.307  0.4872  0.3836 -0.1475
 1198PF6-    F415055   0.040   3.258   4.227  0.5256  0.0248 -0.0913
 1198PF6-    F515056   0.300   3.400   4.104 -0.2980  0.3343 -0.1364
 1198PF6-    F615057   0.112   3.472   4.219 -0.0852 -0.0092  0.2529
 1198PF6-    F715058   0.216   3.191   4.120  0.1628 -0.3840  0.1061
 1199PF6-    P115059   3.108   0.734   4.548 -0.2206 -0.3684  0.0265
 1199PF6-    F215060   3.017   0.804   4.659 -0.0818 -0.1860 -0.1410
 1199PF6-    F315061   3.202   0.676   4.437 -0.2065  0.0774 -0.7521
 1199PF6-    F415062   3.066   0.850   4.443 -0.2662  0.0308 -0.3846
 1199PF6-    F515063   3.155   0.624   4.651  0.2830  0.2700 -0.2277
 1199PF6-    F615064   2.989   0.647   4.500 -0.3707 -0.1197 -0.4258
 1199PF6-    F715065   3.233   0.830   4.590 -0.0059  0.0043 -0.3496
 1200PF6-    P115066   5.328   4.887   4.186 -0.4272  0.2937 -0.1894
 1200PF6-    F215067   5.165   4.874   4.196  0.2857 -0.1645 -0.1567
 1200PF6-    F315068   5.485   4.899   4.165 -0.5497 -0.4435 -0.2062
 1200PF6-    F415069   5.316   5.029   4.256  0.4334  0.0690 -0.4307
 1200PF6-    F515070   5.334   4.744   4.122  0.4033 -0.0319  0.0287
 1200PF6-    F615071   5.307   4.960   4.046 -0.3093 -0.5246 -0.7482
 1200PF6-    F715072   5.345   4.813   4.330 -0.2609 -0.5549 -0.0881
 1201PF6-    P115073   4.396   3.647   1.910 -0.1024  0.0777  0.0021
 1201PF6-    F215074   4.406   3.486   1.885  0.2262 -0.5217  0.2425
 1201PF6-    F315075   4.396   3.799   1.943  0.1783 -0.4999 -0.4406
 1201PF6-    F415076   4.264   3.646   1.824  0.6339 -0.3070  0.1015
 1201PF6-    F515077   4.529   3.632   1.997 -0.0892  0.1876  0.1587
 1201PF6-    F615078   4.486   3.679   1.786 -0.4841 -0.2110 -0.3732
 1201PF6-    F715079   4.306   3.631   2.043  0.4472  0.2629 -0.8732
 1202PF6-    P115080   0.295   5.215   0.499 -0.0031 -0.3392  0.2920
 1202PF6-    F215081   0.167   5.143   0.441 -0.2376 -0.1745 -0.1728
 1202PF6-    F315082   0.423   5.293   0.553 -0.1805  0.0753  0.2046
 1202PF6-    F415083   0.294   5.312   0.372 -0.0545 -0.0222  0.5220
 1202PF6-    F515084   0.302   5.107   0.619  0.1673  0.1592  0.2875
 1202PF6-    F615085   0.386   5.114   0.407  0.0206 -0.7774  0.1437
 1202PF6-    F715086   0.200   5.314   0.584  0.5201  0.4068  0.4030
 1203PF6-    P115087   1.763   4.172   4.889  0.0410 -0.2485 -0.0067
 1203PF6-    F215088   1.834   4.216   4.757  0.2692 -0.2814  0.2042
 1203PF6-    F315089   1.692   4.132   5.026 -0.5501  0.5002  0.2916
 1203PF6-    F415090   1.615   4.198   4.823  0.3178 -0.1069  0.1966
 1203PF6-    F515091   1.908   4.151   4.957 -0.5185 -0.6873  0.3263
 1203PF6-    F615092   1.766   4.325   4.932  0.5914  0.1086 -0.3704
 1203PF6-    F715093   1.756   4.019   4.838 -0.3804  0.0890  0.3099
 1204PF6-    P115094   4.418   3.375   2.846  0.1620 -0.0039 -0.0895
 1204PF6-    F215095   4.580   3.393   2.842 -0.1099 -0.2529  0.0728
 1204PF6-    F315096   4.258   3.356   2.846 -0.1334 -0.2243 -0.3375
 1204PF6-    F415097   4.431   3.279   2.716  0.1037  0.3216 -0.4934
 1204PF6-    F515098   4.412   3.473   2.980 -0.3312 -0.5467 -0.4319
 1204PF6-    F615099   4.402   3.499   2.751 -0.0078  0.3329 -0.3879
 1204PF6-    F715100   4.431   3.247   2.949  0.2823 -0.0823 -0.4289
 1205PF6-    P115101   5.200   2.192   2.184  0.2516 -0.1279  0.2993
 1205PF6-    F215102   5.317   2.278   2.253 -0.0285 -0.1172 -0.1564
 1205PF6-    F315103   5.086   2.110   2.119  0.1523  0.0560 -0.2409
 1205PF6-    F415104   5.278   2.191   2.045  0.1638 -0.1745 -0.5646
 1205PF6-    F515105   5.125   2.195   2.316  0.6769  0.3432  0.2015
 1205PF6-    F615106   5.126   2.331   2.144  0.1025  0.3448  0.5190
 1205PF6-    F715107   5.264   2.053   2.223  0.5031 -0.2095  0.2257
 1206PF6-    P115108   0.907   4.773   1.706 -0.3694 -0.0263 -0.0126
 1206PF6-    F215109   0.793   4.887   1.719 -0.2555 -0.2060  0.6181
 1206PF6-    F315110   1.028   4.664   1.708 -0.3076  0.3976  0.5793
 1206PF6-    F415111   1.014   4.893   1.688 -0.2621  0.0362  0.5258
 1206PF6-    F515112   0.801   4.655   1.714  0.1201 -0.4082 -0.3395
 1206PF6-    F615113   0.889   4.768   1.545 -0.6464 -0.0168 -0.3141
 1206PF6-    F715114   0.922   4.775   1.863 -0.0931 -0.0852 -0.2225
 1207PF6-    P115115   4.453   4.846   3.241  0.1745  0.1454 -0.0550
 1207PF6-    F215116   4.541   4.984   3.221 -0.6446  0.8941 -0.0072
 1207PF6-    F315117   4.365   4.716   3.268  0.2105  0.4245 -0.0299
 1207PF6-    F415118   4.439   4.818   3.078  0.4264  0.0446  0.3393
 1207PF6-    F515119   4.471   4.863   3.399  0.0581  0.3901 -0.0390
 1207PF6-    F615120   4.323   4.930   3.238 -0.0282 -0.2551 -0.7109
 1207PF6-    F715121   4.591   4.757   3.247 -0.3505 -0.5289 -0.3372
 1208PF6-    P115122   2.081   4.622   3.944  0.3360  0.0842 -0.6372
 1208PF6-    F215123   2.176   4.743   3.905 -0.4499 -0.1026 -0.4010
 1208PF6-    F315124   1.996   4.494   3.989  0.3354 -0.1092  0.2062
 1208PF6-    F415125   2.179   4.522   3.864  0.3397 -0.5721  0.4703
 1208PF6-    F515126   1.980   4.713   4.028  0.4457 -0.0326 -0.0624
 1208PF6-    F615127   1.989   4.641   3.813 -0.0529 -0.0126  0.0133
 1208PF6-    F715128   2.174   4.615   4.072 -0.1276 -0.2119  0.0627
 1209PF6-    P115129   4.798   1.028   0.579  0.0492  0.0678  0.4086
 1209PF6-    F215130   4.805   0.869   0.584  0.3932  0.2044 -0.3546
 1209PF6-    F315131   4.793   1.190   0.575 -0.4253  0.5046  0.2559
 1209PF6-    F415132   4.645   1.030   0.630  0.1122  0.7962  0.2590
 1209PF6-    F515133   4.946   1.037   0.522 -0.3672  0.1632 -0.5761
 1209PF6-    F615134   4.737   1.024   0.433  0.4427  0.3829 -0.0221
 1209PF6-    F715135   4.851   1.034   0.729 -0.2239  0.0296 -0.2555
 1210PF6-    P115136   2.798   0.639   0.284 -0.2806  0.1817 -0.1593
 1210PF6-    F215137   2.918   0.599   0.382 -0.1170 -0.1911  0.2304
 1210PF6-    F315138   2.677   0.691   0.183 -0.3959  0.4821  0.2508
 1210PF6-    F415139   2.793   0.490   0.227 -0.8715 -0.0100  0.1988
 1210PF6-    F515140   2.810   0.784   0.345  0.3439 -0.5161 -0.3766
 1210PF6-    F615141   2.899   0.676   0.162  0.4128  0.3963 -0.0304
 1210PF6-    F715142   2.704   0.589   0.398  0.0829  0.1388  0.0463
 1211PF6-    P115143   0.380   2.183   3.521  0.0831  0.5458  0.0208
 1211PF6-    F215144   0.384   2.282   3.396 -0.0906  0.4942 -0.1433
 1211PF6-    F315145   0.363   2.073   3.633 -0.0271 -0.7723  0.3452
 1211PF6-    F415146   0.436   2.070   3.422  0.1638 -0.1976 -0.2606
 1211PF6-    F515147   0.328   2.296   3.614 -0.6720 -0.1385 -0.1561
 1211PF6-    F615148   0.223   2.142   3.482  0.3820 -0.1969  0.6130
 1211PF6-    F715149   0.533   2.215   3.565  0.4584  0.2019  0.0143
 1212PF6-    P115150   3.208   3.287   3.730  0.0504 -0.1551 -0.1494
 1212PF6-    F215151   3.066   3.329   3.777  0.3478 -0.3107  0.2242
 1212PF6-    F315152   3.354   3.242   3.682  0.1722 -0.2195 -0.7370
 1212PF6-    F415153   3.216   3.176   3.848  0.0151 -0.1065  0.2563
 1212PF6-    F515154   3.200   3.388   3.611  0.0765 -0.0276 -0.1108
 1212PF6-    F615155   3.274   3.396   3.825 -0.2853 -0.1611 -0.1511
 1212PF6-    F715156   3.146   3.168   3.644  0.4504  0.3083 -0.6178
 1213Na+     N115157   0.885   0.727   4.705 -0.3315  0.2528  0.0486
 1214Na+     N115158   5.286   0.205   1.434 -0.4280  0.2371 -0.2374
 1215Na+     N115159   4.921   3.002   0.701  0.4355  0.4560 -0.0640
 1216Na+     N115160   4.052   5.312   4.919 -0.1358 -0.4014 -0.2930
 1217Na+     N115161   3.254   4.427   3.664  0.5622  0.5363  0.0256
 1218Na+     N115162   2.116   5.005   3.867 -0.0437 -0.0758 -0.1607
 1219Na+     N115163   3.300   3.045   3.502  0.0255 -0.6062  0.1298
 1220Na+     N115164   1.023   3.320   3.005  0.1144  0.2386 -0.1255
 1221Na+     N115165   0.372   3.927   4.109 -0.1304 -0.1667 -0.0521
 1222Na+     N115166   3.153   0.563   0.498  0.3013 -0.2179  0.5212
 1223Na+     N115167   4.334   2.123   4.161 -0.4819 -0.6105  0.4480
 1224Na+     N115168   3.344   0.938   1.247  0.6468 -0.4083  0.0992
 1225Na+     N115169   0.294   1.402   1.314  0.0163  0.2455 -0.0813
 1226Na+     N115170   0.597   4.282   3.686  0.2635 -0.2306 -0.0377
 1227Na+     N115171   3.138   3.043   4.025  0.2279  0.0869  0.0321
 1228Na+     N115172   0.237   2.491   3.476 -0.1040 -0.0842 -0.2283
 1229Na+     N115173   2.288   0.331   2.158  0.5598 -0.5160  0.0422
 1230Na+     N115174   1.000   5.065   1.867  0.4578 -0.1598  0.3296
 1231Na+     N115175   3.399   0.801   4.386 -0.1112  0.2816  0.3334
 1232Na+     N115176   3.496   4.950   1.182  0.1566  0.3353  0.1719
 1233Na+     N115177   2.015   1.114   3.856 -0.5318 -0.0098 -0.4858
 1234Na+     N115178   2.406   1.281   0.786  0.0028 -0.0560 -0.0912
 1235Na+     N115179   1.475   1.301   5.317 -0.1853  0.7265  0.1007
 1236Na+     N115180   1.958   1.861   0.439 -0.0153  0.0564 -0.1633
 1237Na+     N115181   3.086   5.078   3.535  0.0172 -0.3869 -0.1634
 1238Na+     N115182   1.837   2.752   3.601  0.0787 -0.1543 -0.1545
 1239Na+     N115183   1.304   3.309   1.302 -0.6233 -0.2984  0.1148
 1240Na+     N115184   0.337   2.045   3.210  0.2863  0.5227 -0.2009
 1241Na+     N115185   3.840   0.654   4.760 -0.1241  0.0739 -0.3889
 1242Na+     N115186   4.752   2.550   3.948 -0.3992  0.0924 -0.3550
 1243Na+     N115187   2.520   4.953   1.122 -0.0145 -0.1228  0.4988
 1244Na+     N115188   4.535   1.186   0.455  0.5686  0.2991  0.6853
 1245Na+     N115189   2.052   4.064   5.149 -0.2954  0.1991  0.4220
 1246Na+     N115190   5.274   1.326   1.003  0.6231  0.3468 -0.0302
 1247Na+     N115191   4.701   3.190   3.002  0.1981  0.1751  0.0497
 1248Na+     N115192   0.664   2.925   3.871  0.0308 -0.3413  0.5506
 1249Na+     N115193   0.199   0.532   3.126  0.1683 -0.3525 -0.3213
 1250Na+     N115194   1.476   2.714   5.491 -0.1765 -0.6859 -0.2575
 1251Na+     N115195   5.273   5.172   5.344 -0.0081  0.3911  0.1740
 1252Na+     N115196   0.238   5.097   0.177 -0.0351 -0.1715 -0.5816
 1253Na+     N115197   5.346   0.616   4.647 -0.4402 -0.1871  0.0806
 1254Na+     N115198   2.332   0.483   1.488 -0.2029  0.1668  0.3134
 1255Na+     N115199   3.789   1.289   4.847  0.1551 -0.1427 -0.6962
 1256Na+     N115200   5.484   3.842   0.938  0.1342  0.3114 -0.0358
 1257Na+     N115201   1.944   3.312   4.870  0.0044  0.2175 -0.6502
 1258Na+     N115202   1.001   4.766   3.911  0.2547  0.3306 -0.2106
 1259Na+     N115203   3.673   2.281   1.170  0.4017  0.3080  0.1962
 1260Na+     N115204   1.102   4.502   4.709 -0.1085  0.0805 -0.1358
 1261Na+     N115205   2.492   1.686   1.318  0.0626 -0.0064 -0.1707
 1262Na+     N115206   2.862   4.770   0.533  0.0883  0.5747 -0.3394
 1263Na+     N115207   3.000   1.917   0.906 -0.1259 -0.4065 -0.3352
 1264Na+     N115208   4.210   0.122   0.338  0.7713 -0.2109  0.3001
 1265Na+     N115209   1.049   2.975   0.786  0.1858  0.4284 -0.1007
 1266Na+     N115210   3.339   1.882   4.512 -0.3569 -0.4877  0.1610
 1267Na+     N115211   1.768   2.478   4.289 -0.1145 -0.1585 -0.3265
 1268Na+     N115212   4.794   3.747   1.089  0.4560 -0.1091 -0.1527
 1269Na+     N115213   0.631   5.040   1.602  0.2528 -0.3164  0.0534
 1270Na+     N115214   5.333   3.351   4.127 -0.3567  0.1801  0.1365
 1271Na+     N115215   1.903   5.495   4.158  0.0871 -0.0836  0.1023
 1272Na+     N115216   3.999   5.291   1.308  0.3093  0.1468  0.0398
 1273Na+     N115217   2.231   1.296   0.014 -0.2255  0.2218 -0.3615
 1274Na+     N115218   5.264   5.204   4.797  0.3093  0.3154  0.2912
 1275Na+     N115219   1.120   4.528   3.375 -0.3029  0.0086  0.1435
 1276Na+     N115220   2.748   4.586   3.016 -0.0066  0.2635  0.2550
 1277Na+     N115221   0.705   2.305   3.753 -0.4098 -0.0375  0.2640
 1278Na+     N115222   4.717   4.965   0.911  0.2986 -0.0913  0.3911
 1279Na+     N115223   5.086   5.093   4.153  0.1728 -0.2761 -0.0090
 1280Na+     N115224   1.856   4.575   4.198 -0.5163 -0.1802 -0.1505
 1281Na+     N115225   2.714   4.015   5.129  0.1846 -0.1751 -0.4348
 1282Na+     N115226   2.852   0.861   4.836 -0.5087  0.2335  0.7536
 1283Na+     N115227   2.966   4.416   1.836  0.0101  0.6372 -0.9620
 1284Na+     N115228   2.332   1.982   4.419  0.7557 -0.2196  0.0674
 1285Na+     N115229   4.473   3.972   2.116  0.2314  0.0396  0.1493
 1286Na+     N115230   2.322   5.049   5.283  0.2770 -0.3628 -0.1751
 1287Na+     N115231   0.136   1.381   4.324  0.4103  0.2332 -0.2330
 1288Na+     N115232   3.695   1.738   0.430  0.4804 -0.4082 -0.0622
 1289Na+     N115233   4.351   4.530   4.300 -0.0833 -0.0148 -0.0831
 1290Na+     N115234   3.842   5.139   0.401 -0.1853  0.1134  0.5034
 1291Na+     N115235   4.535   3.295   1.979  0.3086  0.3907  0.5052
 1292Na+     N115236   3.828   3.677   0.006 -0.1417 -0.1556  0.1183
 1293Na+     N115237   1.243   1.260   3.933 -0.0690  0.3147 -0.2815
 1294Na+     N115238   3.262   1.338   3.539  0.2336  0.4014  0.1948
 1295Na+     N115239   1.186   5.160   4.670 -0.1111 -0.2159  0.0815
 1296Na+     N115240   5.494   2.034   2.749  0.1471 -0.0482 -0.3139
 1297Na+     N115241   3.815   1.841   4.896  0.1514  0.3887 -0.0623
 1298Na+     N115242   3.196   4.760   2.643  0.0759  0.0552 -0.0768
 1299Na+     N115243   3.812   4.593   2.322  0.0773  0.3578 -0.2411
 1300Na+     N115244   1.110   3.476   2.568  0.3485 -0.8428 -0.4863
 1301Na+     N115245   0.053   4.644   4.221  0.1015  0.7375 -0.2193
 1302Na+     N115246   0.131   5.083   0.788  0.1735 -0.3579  0.0196
 1303Na+     N115247   0.581   1.984   0.993 -0.1210 -0.4862  0.0694
 1304Na+     N115248   3.353   4.116   1.408  0.3889  0.6562  0.1119
 1305Na+     N115249   0.868   0.562   1.577 -0.2763  0.2335 -0.7472
 1306Na+     N115250   5.028   2.568   2.094 -0.5106  0.1074  0.9799
 1307Na+     N115251   4.368   4.804   5.310  0.3496  0.0978  0.0202
 1308Na+     N115252   0.496   0.013   0.689  0.0412  0.1691 -0.5446
 1309Na+     N115253   4.650   5.117   1.784 -0.4421  0.0398 -0.1957
 1310Na+     N115254   4.819   4.678   3.265 -0.1858 -0.2767  0.1628
 1311Na+     N115255   0.611   4.884   4.981  0.3100  0.5438  0.0960
 1312Na+     N115256   2.565   4.839   4.570  0.0965 -0.2426  0.1177
   5.50057   5.50057   5.50057
