THF-PF6-Na          Amber RESP
15256
    1THF     O1    1   2.756   4.910   5.265  0.4436 -0.3793 -0.0025
    1THF     C2    2   2.855   4.947   5.355  1.5070  0.3870  0.6119
    1THF     C3    3   2.691   5.020   5.206 -0.7363  0.1193  0.0147
    1THF     H4    4   2.946   4.888   5.361  0.6502 -0.9073  1.3069
    1THF     H5    5   2.810   4.965   5.452  1.8449  1.1760  0.6292
    1THF     H6    6   2.640   4.996   5.113  0.9717 -0.7850 -0.7541
    1THF     H7    7   2.625   5.063   5.281 -2.4358 -0.5136 -1.0734
    1THF     C8    8   2.809   5.114   5.184  0.2491  0.3968 -0.3240
    1THF     C9    9   2.899   5.086   5.293 -0.2477  0.2141  0.1239
    1THF    H10   10   2.775   5.218   5.178 -1.9936 -0.1586  1.5238
    1THF    H11   11   2.858   5.092   5.089 -0.1620 -1.6494 -0.0917
    1THF    H12   12   3.002   5.076   5.258 -0.2020 -0.8258  0.5134
    1THF    H13   13   2.886   5.167   5.364 -2.4692  0.4797 -0.5178
    2THF     O1   14   0.289   1.998   1.715 -0.1049 -0.3528  0.1115
    2THF     C2   15   0.183   1.917   1.769  0.7646  0.0496  0.0499
    2THF     C3   16   0.290   2.129   1.775  0.4276 -0.4853 -0.1687
    2THF     H4   17   0.185   1.809   1.758  3.5778  0.1580 -1.4455
    2THF     H5   18   0.094   1.954   1.718 -0.9234 -1.3483  1.8506
    2THF     H6   19   0.393   2.158   1.794  0.3438 -0.7474  0.7047
    2THF     H7   20   0.235   2.190   1.703  0.1827  0.9860  1.2007
    2THF     C8   21   0.217   2.110   1.909  0.3824  0.8855 -0.5535
    2THF     C9   22   0.199   1.960   1.915 -0.7420 -0.5360  0.1225
    2THF    H10   23   0.128   2.173   1.903  1.0295  1.7180 -1.9267
    2THF    H11   24   0.276   2.144   1.994 -2.1402  1.9538  0.8693
    2THF    H12   25   0.270   1.889   1.957 -1.5030  0.2742  2.9884
    2THF    H13   26   0.107   1.941   1.970 -2.0512 -0.9234 -2.0564
    3THF     O1   27   4.149   0.873   4.073  0.3561  0.6145 -0.2220
    3THF     C2   28   4.152   1.001   4.016  0.3450 -0.7235  0.2688
    3THF     C3   29   4.222   0.881   4.203  0.2793  1.0247 -0.4153
    3THF     H4   30   4.070   1.006   3.944 -0.9994  0.1005  1.7826
    3THF     H5   31   4.240   1.024   3.957 -0.9147  2.5858 -0.5518
    3THF     H6   32   4.177   0.813   4.275 -0.3716  2.9048  1.0487
    3THF     H7   33   4.324   0.865   4.169  0.2206  2.2555 -1.2583
    3THF     C8   34   4.206   1.023   4.252 -0.2537  0.4089 -0.4376
    3THF     C9   35   4.127   1.086   4.139  0.6000 -0.3655  0.4339
    3THF    H10   36   4.303   1.071   4.259 -0.1019  0.3975 -2.0155
    3THF    H11   37   4.155   1.017   4.348  2.4400 -0.0281  1.0375
    3THF    H12   38   4.024   1.078   4.175  0.2995  0.6235 -0.2028
    3THF    H13   39   4.139   1.194   4.132 -0.3818 -0.3315 -1.4924
    4THF     O1   40   3.461   3.518   3.446 -0.4657 -0.4956  0.2977
    4THF     C2   41   3.340   3.509   3.526  0.3746 -0.3267 -0.5726
    4THF     C3   42   3.488   3.382   3.410 -0.7936  0.3709  0.0856
    4THF     H4   43   3.289   3.604   3.512  0.2686 -0.3371 -0.2555
    4THF     H5   44   3.367   3.481   3.628 -0.0388  0.3098 -0.2862
    4THF     H6   45   3.566   3.366   3.335 -0.9771  1.8940 -0.4588
    4THF     H7   46   3.528   3.345   3.505 -0.6244  1.4236  0.4340
    4THF     C8   47   3.354   3.318   3.382  0.2557  0.4319  0.6669
    4THF     C9   48   3.257   3.395   3.463  0.2775 -0.1114  0.0612
    4THF    H10   49   3.344   3.214   3.413 -1.9823  0.3271 -0.1806
    4THF    H11   50   3.330   3.325   3.276  1.9718 -1.8689  0.0354
    4THF    H12   51   3.164   3.423   3.413  0.7003  0.2906 -0.5027
    4THF    H13   52   3.225   3.326   3.542 -0.6258  0.9806  0.6833
    5THF     O1   53   4.130   1.487   3.836 -0.4273 -0.2206  0.3655
    5THF     C2   54   3.992   1.474   3.845 -0.0782 -0.1230  0.3880
    5THF     C3   55   4.190   1.476   3.965  0.4412  0.1864  0.1359
    5THF     H4   56   3.957   1.374   3.871  1.4675 -0.5143  1.0619
    5THF     H5   57   3.942   1.513   3.756 -0.1883  1.5375  1.1320
    5THF     H6   58   4.218   1.370   3.970  1.5247  0.3014 -1.9489
    5THF     H7   59   4.274   1.543   3.979  1.4951 -1.2075  0.7644
    5THF     C8   60   4.072   1.513   4.059  0.0233  0.0818  0.5492
    5THF     C9   61   3.956   1.545   3.965 -0.4632  0.5038  0.0562
    5THF    H10   62   4.089   1.592   4.131 -1.9550 -0.3243  1.5384
    5THF    H11   63   4.042   1.430   4.123 -3.1567  1.3836  0.9135
    5THF    H12   64   3.864   1.510   4.010 -0.0384 -1.3295 -0.4145
    5THF    H13   65   3.963   1.653   3.949  0.3528  0.3437 -0.7673
    6THF     O1   66   2.834   0.160   3.913  0.0404 -0.1739 -0.1432
    6THF     C2   67   2.889   0.279   3.963 -0.1529  0.0811 -0.2509
    6THF     C3   68   2.701   0.137   3.966 -0.1446  0.2385 -0.1036
    6THF     H4   69   2.926   0.350   3.888 -0.7349  0.7708  0.1015
    6THF     H5   70   2.969   0.248   4.031  0.2467  2.0685  0.2537
    6THF     H6   71   2.625   0.102   3.897 -0.1683  2.0062 -1.0211
    6THF     H7   72   2.698   0.077   4.057 -1.5966 -0.5650 -0.6631
    6THF     C8   73   2.656   0.282   3.997 -0.1286 -0.0506 -0.1210
    6THF     C9   74   2.781   0.347   4.048  0.4342 -0.1201 -1.3310
    6THF    H10   75   2.575   0.272   4.069 -1.2769  1.7514 -1.0868
    6THF    H11   76   2.627   0.331   3.904 -0.3965  3.8379  1.8034
    6THF    H12   77   2.777   0.456   4.042  2.6555  0.1500  0.6831
    6THF    H13   78   2.807   0.330   4.152  0.2763 -0.3746 -1.3320
    7THF     O1   79   0.308   3.229   3.933 -0.0853 -0.1852 -0.0158
    7THF     C2   80   0.320   3.290   4.058 -0.4834  0.3589  0.0014
    7THF     C3   81   0.346   3.326   3.834 -0.2551  0.0428 -0.8873
    7THF     H4   82   0.320   3.232   4.150  1.6487  1.2775  0.6394
    7THF     H5   83   0.232   3.350   4.077 -0.0511  0.3102  2.4313
    7THF     H6   84   0.396   3.274   3.753 -0.4281  0.1274 -1.0488
    7THF     H7   85   0.264   3.385   3.792  1.5601  3.6617  0.2198
    7THF     C8   86   0.433   3.427   3.903 -0.3726  0.6736 -0.1347
    7THF     C9   87   0.447   3.366   4.044  0.5528  0.2081  0.3463
    7THF    H10   88   0.376   3.519   3.910 -0.5941  0.5039  0.3851
    7THF    H11   89   0.533   3.449   3.865  0.1430  2.1940  1.8935
    7THF    H12   90   0.530   3.297   4.059  0.0660 -0.3564  0.4858
    7THF    H13   91   0.458   3.429   4.133 -0.5571 -2.5627  2.6038
    8THF     O1   92   4.165   4.366   2.439  0.5760  0.0639 -0.2246
    8THF     C2   93   4.156   4.287   2.555 -0.0739 -0.8820  0.0007
    8THF     C3   94   4.090   4.306   2.329 -0.5903  0.2940 -0.0068
    8THF     H4   95   4.096   4.337   2.631  0.8731 -2.0521  1.5948
    8THF     H5   96   4.250   4.267   2.605 -0.1674 -0.3648  0.3942
    8THF     H6   97   4.024   4.383   2.288  0.2522  0.5261 -0.9831
    8THF     H7   98   4.162   4.285   2.249 -1.7081 -0.3422 -0.8783
    8THF     C8   99   4.003   4.198   2.402 -0.1844 -0.0389 -0.0133
    8THF     C9  100   4.091   4.160   2.515  0.3404 -0.7241  0.0444
    8THF    H10  101   3.975   4.109   2.346 -2.4859  0.3627  0.4152
    8THF    H11  102   3.913   4.244   2.443  0.6488  1.2512  0.4497
    8THF    H12  103   4.036   4.118   2.599 -0.7157 -1.3149 -0.9190
    8THF    H13  104   4.171   4.089   2.493  0.6051 -0.6164  0.6343
    9THF     O1  105   3.885   4.290   4.274  0.1641 -0.0592  0.9531
    9THF     C2  106   3.837   4.150   4.266  0.2119 -0.5170 -0.2553
    9THF     C3  107   3.793   4.368   4.206  0.2103  0.0826  0.6456
    9THF     H4  108   3.766   4.128   4.345  0.8331 -0.7704  0.2424
    9THF     H5  109   3.919   4.080   4.284  0.7006  0.9814  4.9141
    9THF     H6  110   3.706   4.380   4.271 -0.3138  1.4163 -0.2587
    9THF     H7  111   3.828   4.469   4.185  3.1699 -0.9025  0.3010
    9THF     C8  112   3.753   4.288   4.080 -0.1501  0.1013  0.1601
    9THF     C9  113   3.785   4.143   4.120 -0.1404  0.3221  0.0386
    9THF    H10  114   3.824   4.317   4.002 -0.1784 -1.0470 -0.3113
    9THF    H11  115   3.649   4.314   4.063 -0.6504  0.2893  2.9553
    9THF    H12  116   3.696   4.080   4.109 -0.6942  0.8246  1.4123
    9THF    H13  117   3.862   4.095   4.060 -0.3364 -2.7175  1.9834
   10THF     O1  118   3.419   0.051   3.918 -0.5731  0.1735 -1.1312
   10THF     C2  119   3.429  -0.053   4.015 -0.0831 -0.3943  0.5233
   10THF     C3  120   3.319   0.012   3.820  0.4485  0.9064  0.3730
   10THF     H4  121   3.485  -0.036   4.107  0.5384 -2.6790  0.6287
   10THF     H5  122   3.466  -0.149   3.981  0.1300 -0.6493  1.4360
   10THF     H6  123   3.266   0.096   3.774  0.9749  0.0404 -1.9576
   10THF     H7  124   3.354  -0.042   3.732 -2.4099  2.2915 -1.8064
   10THF     C8  125   3.221  -0.076   3.903 -1.0267  0.0474  0.1571
   10THF     C9  126   3.278  -0.073   4.045 -0.2681 -0.2354 -0.2571
   10THF    H10  127   3.235  -0.181   3.877 -0.0641 -0.0673  1.1053
   10THF    H11  128   3.118  -0.041   3.892 -0.7593  0.4387 -1.4832
   10THF    H12  129   3.234   0.012   4.097 -2.1666 -0.2342 -1.7363
   10THF    H13  130   3.257  -0.161   4.106  0.6165 -0.5728 -0.4197
   11THF     O1  131   1.687   4.430   1.242 -0.5348 -0.1857  0.0201
   11THF     C2  132   1.714   4.296   1.282  0.2463 -0.2463 -0.0284
   11THF     C3  133   1.557   4.435   1.179  0.7510 -0.3480  0.0567
   11THF     H4  134   1.652   4.276   1.369 -1.6858 -1.6300 -1.6217
   11THF     H5  135   1.818   4.271   1.304  1.3980  2.7462 -1.5168
   11THF     H6  136   1.475   4.428   1.249  0.6612 -2.4906 -0.1996
   11THF     H7  137   1.547   4.517   1.108  0.4778 -0.0455  0.4414
   11THF     C8  138   1.553   4.299   1.105  0.0315  0.2188 -0.3985
   11THF     C9  139   1.661   4.215   1.171 -0.2251 -0.0168  0.9569
   11THF    H10  140   1.587   4.310   1.002  0.6332  0.4850 -0.1760
   11THF    H11  141   1.457   4.248   1.117  0.2942  0.0736  1.3644
   11THF    H12  142   1.635   4.112   1.196 -0.4173  0.0743  1.1323
   11THF    H13  143   1.748   4.197   1.107 -0.2694  1.0900  0.5660
   12THF     O1  144   3.140   2.001   1.258  0.1579  0.0750 -0.1579
   12THF     C2  145   3.226   2.109   1.224  0.6717 -0.3576 -0.0728
   12THF     C3  146   3.156   1.969   1.394 -0.1800 -0.3453 -0.0235
   12THF     H4  147   3.176   2.185   1.165  2.6477  2.0957  1.2331
   12THF     H5  148   3.318   2.068   1.182 -0.0725 -1.9870 -0.2192
   12THF     H6  149   3.062   1.985   1.447  1.1578  1.3899  1.9998
   12THF     H7  150   3.177   1.863   1.401  0.0598 -0.5251 -2.4149
   12THF     C8  151   3.257   2.073   1.449 -0.5886  0.1278 -0.4215
   12THF     C9  152   3.248   2.182   1.351  0.6964 -0.3136  0.1057
   12THF    H10  153   3.351   2.017   1.444 -2.0808 -2.4757 -0.5549
   12THF    H11  154   3.246   2.100   1.554  0.1049 -0.9030 -0.0706
   12THF    H12  155   3.164   2.243   1.384  0.2638 -0.6809 -0.2951
   12THF    H13  156   3.337   2.244   1.343  0.4010  0.1565  0.4066
   13THF     O1  157   5.354   0.074   4.727 -0.2179 -0.2001 -0.1178
   13THF     C2  158   5.316  -0.045   4.795 -0.6641  0.1212 -0.0105
   13THF     C3  159   5.286   0.074   4.601  0.6746 -0.3299  0.6881
   13THF     H4  160   5.253  -0.019   4.880 -0.6685 -2.5310  0.8940
   13THF     H5  161   5.405  -0.094   4.834 -0.9972 -1.4949 -1.1760
   13THF     H6  162   5.234   0.167   4.579  0.0846 -0.9282 -0.5599
   13THF     H7  163   5.361   0.058   4.523  1.2505 -0.4801  1.2550
   13THF     C8  164   5.188  -0.046   4.610  0.6404  0.5421  0.0813
   13THF     C9  165   5.262  -0.140   4.697 -0.3549  0.2639 -0.0478
   13THF    H10  166   5.161  -0.091   4.515 -1.4623  1.4272  0.2130
   13THF    H11  167   5.091  -0.014   4.648  1.1935  2.4408 -0.0296
   13THF    H12  168   5.205  -0.223   4.738  0.3835 -1.1226 -1.7212
   13THF    H13  169   5.355  -0.171   4.649 -0.9993 -0.5417 -0.8017
   14THF     O1  170   1.750   4.447   4.509 -0.3192  0.2561 -0.1296
   14THF     C2  171   1.893   4.470   4.516  0.4045 -0.5926  0.4521
   14THF     C3  172   1.703   4.495   4.386 -0.5353  0.2524 -0.7187
   14THF     H4  173   1.939   4.380   4.557  1.3060 -0.8481 -1.0646
   14THF     H5  174   1.913   4.546   4.592  0.5969 -0.3810  0.1917
   14THF     H6  175   1.611   4.447   4.353 -1.6188  1.9182 -0.2135
   14THF     H7  176   1.686   4.602   4.393 -0.2665  0.3650 -1.5916
   14THF     C8  177   1.816   4.473   4.289 -0.7870  0.5060  0.0620
   14THF     C9  178   1.935   4.499   4.378  0.4701 -0.4383  0.0510
   14THF    H10  179   1.821   4.536   4.200  0.4281 -0.0515 -0.2864
   14THF    H11  180   1.820   4.367   4.263  2.8706  0.9819 -2.1046
   14THF    H12  181   2.022   4.444   4.343  1.4190 -0.3890  2.1932
   14THF    H13  182   1.949   4.605   4.353 -1.1888 -0.4160 -0.9612
   15THF     O1  183   0.656   4.830   2.629 -0.7185  0.0741  1.1146
   15THF     C2  184   0.614   4.963   2.593 -0.4907  0.5198 -0.1730
   15THF     C3  185   0.785   4.808   2.569 -0.3014 -0.2308  0.4512
   15THF     H4  186   0.576   4.999   2.688 -0.3231  3.1101 -1.0122
   15THF     H5  187   0.537   4.964   2.516  0.3342 -0.9051 -1.0674
   15THF     H6  188   0.838   4.737   2.633  0.4417  1.0029  1.2719
   15THF     H7  189   0.778   4.772   2.467  0.5284  0.6047  0.0753
   15THF     C8  190   0.855   4.942   2.573  0.3429  0.2310  0.2722
   15THF     C9  191   0.742   5.033   2.536  0.5373 -0.3107 -0.2273
   15THF    H10  192   0.936   4.954   2.501  0.8489  0.2386  0.8305
   15THF    H11  193   0.885   4.959   2.676 -0.2746 -3.1724  1.1324
   15THF    H12  194   0.753   5.134   2.575 -0.6461 -0.5801  0.9030
   15THF    H13  195   0.734   5.050   2.429 -1.9234 -0.2035 -0.0800
   16THF     O1  196   1.272   1.703   0.519 -0.3570  0.5379 -0.7898
   16THF     C2  197   1.281   1.684   0.660  0.1801 -0.2131  0.5693
   16THF     C3  198   1.391   1.639   0.472 -0.4785  0.2564 -0.5599
   16THF     H4  199   1.184   1.713   0.701 -0.0300 -0.1312  0.0291
   16THF     H5  200   1.356   1.748   0.707 -0.1797 -0.6509  1.7907
   16THF     H6  201   1.392   1.632   0.364  0.3901 -0.1458 -0.5320
   16THF     H7  202   1.466   1.711   0.506 -0.1737 -0.5988  0.6591
   16THF     C8  203   1.395   1.511   0.552 -0.3080 -0.0134  0.1563
   16THF     C9  204   1.301   1.537   0.665  0.3215  0.2403 -0.8157
   16THF    H10  205   1.496   1.494   0.590 -0.1737  0.7724  0.1618
   16THF    H11  206   1.354   1.432   0.490 -0.8565  0.0702  0.4091
   16THF    H12  207   1.201   1.509   0.634 -0.8550  3.1660 -0.0604
   16THF    H13  208   1.333   1.500   0.762 -0.7363  0.3614 -0.4141
   17THF     O1  209   2.338   5.499   0.528  0.1350  0.4316  0.7493
   17THF     C2  210   2.193   5.494   0.511 -0.1997 -0.0759  0.1594
   17THF     C3  211   2.376   5.415   0.413 -0.5470  0.1138  0.3921
   17THF     H4  212   2.156   5.579   0.568  0.3144 -0.4001  0.9904
   17THF     H5  213   2.145   5.404   0.549  0.5901 -1.0117 -1.0134
   17THF     H6  214   2.484   5.425   0.401 -0.4328 -0.3253  1.0055
   17THF     H7  215   2.353   5.309   0.421 -0.7003  0.0619 -0.6454
   17THF     C8  216   2.290   5.459   0.287  0.7319 -0.3781  0.3293
   17THF     C9  217   2.163   5.511   0.361  0.0537 -0.9413  0.3096
   17THF    H10  218   2.263   5.381   0.215 -1.2990  0.6184 -0.0774
   17THF    H11  219   2.342   5.535   0.229 -1.8027  0.8615 -0.4754
   17THF    H12  220   2.153   5.615   0.329 -1.2176 -1.0927  0.1650
   17THF    H13  221   2.069   5.458   0.344 -1.3744  1.3027  0.7423
   18THF     O1  222   5.336   3.186   2.830 -0.0310  0.2958  0.3880
   18THF     C2  223   5.262   3.226   2.711 -0.2971 -0.3358 -0.0159
   18THF     C3  224   5.360   3.047   2.805 -0.7693 -0.1546  0.1416
   18THF     H4  225   5.279   3.329   2.682  0.0535 -0.5524 -0.6162
   18THF     H5  226   5.155   3.218   2.723 -0.3720  0.6587  0.0560
   18THF     H6  227   5.438   3.004   2.869  0.0249  0.2696 -0.5248
   18THF     H7  228   5.278   2.975   2.798  0.5647 -1.7572  0.1796
   18THF     C8  229   5.423   3.051   2.666  0.3734  0.4034  0.4076
   18THF     C9  230   5.324   3.133   2.600  0.2782 -0.1904 -0.2545
   18THF    H10  231   5.410   2.951   2.624 -1.2920 -0.2642  2.3710
   18THF    H11  232   5.524   3.090   2.676  1.0714 -1.2118  0.0939
   18THF    H12  233   5.378   3.191   2.524  2.4300 -2.6643 -0.7374
   18THF    H13  234   5.251   3.073   2.547  0.8157 -0.4305 -0.7409
   19THF     O1  235   0.845   4.995   1.717  0.3451 -0.3847 -0.3187
   19THF     C2  236   0.717   5.048   1.771  0.8194 -0.2584  0.3521
   19THF     C3  237   0.850   5.057   1.586  1.2423 -0.9493  0.2189
   19THF     H4  238   0.695   5.043   1.878  1.1572 -1.0021  0.3899
   19THF     H5  239   0.641   5.005   1.705 -0.3156  1.7391  0.2774
   19THF     H6  240   0.951   5.050   1.545  2.2624 -1.8155  2.6747
   19THF     H7  241   0.791   5.001   1.512  1.7524 -0.0230 -0.9122
   19THF     C8  242   0.796   5.204   1.591  0.3140  0.5607 -0.2229
   19THF     C9  243   0.721   5.197   1.723 -0.2243  0.1592  0.2677
   19THF    H10  244   0.727   5.215   1.508  1.0162 -2.8672 -1.4378
   19THF    H11  245   0.876   5.278   1.590 -1.3766  2.4993  0.5108
   19THF    H12  246   0.789   5.253   1.788 -0.8707 -0.4592  1.5100
   19THF    H13  247   0.626   5.246   1.702  1.0545  2.2212 -1.0092
   20THF     O1  248   3.471   4.993   1.163 -0.5676  0.3777  0.3817
   20THF     C2  249   3.585   5.059   1.103  0.2276 -0.6369 -1.0267
   20THF     C3  250   3.527   4.897   1.247 -0.4449  0.1462 -0.3661
   20THF     H4  251   3.593   5.166   1.122  1.7399 -1.0878  1.3423
   20THF     H5  252   3.584   5.042   0.995 -0.7294 -0.1971 -1.0939
   20THF     H6  253   3.462   4.877   1.332  0.7744 -0.6925  0.4043
   20THF     H7  254   3.538   4.802   1.195 -0.2775  0.0450 -0.1501
   20THF     C8  255   3.664   4.945   1.296  0.3581 -0.1199 -0.4111
   20THF     C9  256   3.711   5.001   1.162  0.4442 -0.2058  0.7322
   20THF    H10  257   3.729   4.872   1.344 -3.1936 -2.8299  0.7758
   20THF    H11  258   3.654   5.035   1.357 -0.0818 -0.5343  0.1388
   20THF    H12  259   3.799   5.065   1.164  0.1171  0.2374  0.9898
   20THF    H13  260   3.741   4.914   1.103  0.4499  0.7013 -0.6442
   21THF     O1  261   3.475   1.785   0.730 -0.1353  0.0039 -0.3238
   21THF     C2  262   3.448   1.645   0.751 -0.8774  0.0084 -0.1328
   21THF     C3  263   3.424   1.858   0.834  0.1990 -0.2235  0.0146
   21THF     H4  264   3.543   1.591   0.749 -0.5108  0.6143  0.5163
   21THF     H5  265   3.385   1.605   0.671 -0.6989  0.6044 -0.5779
   21THF     H6  266   3.511   1.879   0.896  0.9836 -1.8893 -0.4736
   21THF     H7  267   3.396   1.949   0.780  1.1381 -0.3134 -0.6544
   21THF     C8  268   3.308   1.779   0.894 -0.2379  0.3378 -0.2545
   21THF     C9  269   3.364   1.640   0.876  0.0958 -0.2311  1.1300
   21THF    H10  270   3.217   1.784   0.834 -0.5992  0.4533  0.2983
   21THF    H11  271   3.294   1.813   0.997 -0.6491 -2.1424  0.5833
   21THF    H12  272   3.421   1.617   0.966  1.4814 -2.0555 -0.1458
   21THF    H13  273   3.289   1.561   0.870 -0.4789  0.2191  2.1332
   22THF     O1  274   4.405   3.769   1.325 -0.1002 -0.2870  0.1645
   22THF     C2  275   4.324   3.704   1.229  0.1367 -0.1944  0.3419
   22THF     C3  276   4.408   3.695   1.442 -0.4172  0.6444 -0.4469
   22THF     H4  277   4.381   3.626   1.180 -1.5296 -0.7608 -0.7845
   22THF     H5  278   4.304   3.780   1.153  1.0372 -1.6617 -1.4274
   22THF     H6  279   4.464   3.605   1.414 -2.3474 -1.3958  1.7959
   22THF     H7  280   4.448   3.747   1.529  1.2172  1.3250 -1.5492
   22THF     C8  281   4.262   3.654   1.448  0.7560 -0.3607 -0.4434
   22THF     C9  282   4.211   3.651   1.307 -0.4486 -0.2299 -0.3869
   22THF    H10  283   4.211   3.738   1.496  3.3828  1.7398 -1.0878
   22THF    H11  284   4.236   3.563   1.502 -2.1497  0.8486  0.4238
   22THF    H12  285   4.183   3.547   1.288 -0.5663 -0.6780  1.8596
   22THF    H13  286   4.122   3.712   1.293 -0.4797 -0.7329 -2.7727
   23THF     O1  287   1.744   3.523   3.277 -0.4374 -0.1064 -0.3457
   23THF     C2  288   1.694   3.618   3.179  0.7415 -0.5007 -0.4230
   23THF     C3  289   1.676   3.543   3.399  0.2561  0.9118  0.2860
   23THF     H4  290   1.703   3.574   3.080 -0.8906  0.4634 -1.0350
   23THF     H5  291   1.754   3.709   3.182  2.2499 -1.4874  0.7220
   23THF     H6  292   1.639   3.445   3.427 -2.5310  1.6334 -0.5557
   23THF     H7  293   1.737   3.590   3.477 -1.3256  1.6713  1.1155
   23THF     C8  294   1.555   3.625   3.372 -0.2664  0.1300  0.0418
   23THF     C9  295   1.544   3.628   3.221 -0.4436  0.1119  0.0864
   23THF    H10  296   1.558   3.724   3.417 -0.1840 -0.5869  1.6861
   23THF    H11  297   1.467   3.577   3.415  0.1321  0.0204  0.7593
   23THF    H12  298   1.495   3.533   3.199  0.4420 -0.3177 -0.0649
   23THF    H13  299   1.493   3.712   3.175 -2.6087 -0.9112  0.5016
   24THF     O1  300   0.785   1.350   2.220 -0.4745 -0.5112 -0.1335
   24THF     C2  301   0.759   1.460   2.138 -0.0934 -0.4798  0.4733
   24THF     C3  302   0.668   1.303   2.292  0.9424  0.7787  0.5922
   24THF     H4  303   0.706   1.437   2.046 -1.4813  0.4271  1.0071
   24THF     H5  304   0.848   1.515   2.109 -0.1368  1.7348  3.9191
   24THF     H6  305   0.610   1.231   2.235 -0.0680 -0.2775  2.8111
   24THF     H7  306   0.699   1.264   2.389  3.6889  1.1171 -0.0760
   24THF     C8  307   0.585   1.433   2.303 -0.0687 -0.3703 -0.4572
   24THF     C9  308   0.677   1.536   2.239  0.0892  0.7186 -0.3695
   24THF    H10  309   0.540   1.449   2.402 -1.1706 -0.1056 -0.9801
   24THF    H11  310   0.503   1.433   2.232  1.5240  1.0445 -2.3950
   24THF    H12  311   0.631   1.616   2.181 -1.9404 -0.8532 -1.0314
   24THF    H13  312   0.749   1.573   2.312  1.0379 -2.3287  0.3936
   25THF     O1  313   1.767   3.484   4.349 -0.0877  0.0041  0.2110
   25THF     C2  314   1.721   3.429   4.471 -0.3870 -0.9046 -0.1898
   25THF     C3  315   1.818   3.607   4.369 -0.0922 -0.0293 -1.3983
   25THF     H4  316   1.699   3.322   4.468 -1.4672 -0.7627  1.2736
   25THF     H5  317   1.627   3.476   4.499 -0.5261 -1.8149  0.9919
   25THF     H6  318   1.890   3.628   4.291  1.4369 -2.0587 -0.6386
   25THF     H7  319   1.744   3.687   4.375 -0.0415 -0.0639  0.1938
   25THF     C8  320   1.893   3.590   4.497  0.7237 -0.5700  0.4172
   25THF     C9  321   1.833   3.464   4.566 -0.0537  0.1981 -0.4090
   25THF    H10  322   1.876   3.673   4.566 -0.5175 -0.3974 -0.0612
   25THF    H11  323   2.001   3.578   4.486  1.2531  2.8827  0.8689
   25THF    H12  324   1.903   3.382   4.574  1.8449  1.9156  2.0774
   25THF    H13  325   1.811   3.494   4.669  1.6117 -1.7687  0.5792
   26THF     O1  326   0.801   5.292   3.364  0.3679  0.1011 -0.2228
   26THF     C2  327   0.773   5.437   3.387 -0.5251  0.0364  0.4189
   26THF     C3  328   0.829   5.245   3.501 -0.6449 -1.1590 -0.3330
   26THF     H4  329   0.669   5.448   3.416 -1.2093 -1.6423 -1.1460
   26THF     H5  330   0.786   5.494   3.295  1.1553  0.1625  0.6985
   26THF     H6  331   0.738   5.246   3.561  0.0031 -0.4893  0.6838
   26THF     H7  332   0.883   5.151   3.511  0.6347 -0.5109 -0.9720
   26THF     C8  333   0.920   5.351   3.561 -0.7862 -0.0724 -0.4269
   26THF     C9  334   0.874   5.478   3.492 -0.9219 -0.4513  0.0005
   26THF    H10  335   1.023   5.323   3.540 -0.0392  1.7842  0.5348
   26THF    H11  336   0.903   5.350   3.669 -0.4282  1.2306 -0.3381
   26THF    H12  337   0.837   5.556   3.558  0.5606  0.6590 -0.4244
   26THF    H13  338   0.956   5.527   3.440  0.6242 -1.3717  1.4597
   27THF     O1  339   4.156   0.198   1.828 -0.4338  0.1512 -0.1256
   27THF     C2  340   4.196   0.275   1.953 -0.2997  0.0700 -0.2530
   27THF     C3  341   4.195   0.266   1.711 -0.1473 -0.0934  0.4797
   27THF     H4  342   4.296   0.249   1.989 -1.2272 -0.9263  1.7439
   27THF     H5  343   4.113   0.270   2.024 -0.5688  0.8134 -0.5054
   27THF     H6  344   4.298   0.239   1.687  0.1810  1.5438 -0.0701
   27THF     H7  345   4.137   0.247   1.621  1.6359 -0.1731 -0.7023
   27THF     C8  346   4.164   0.406   1.757  0.2237 -0.0064 -0.1316
   27THF     C9  347   4.201   0.418   1.903 -0.4741 -0.4721  0.1530
   27THF    H10  348   4.061   0.434   1.731  0.1955  0.0006 -0.0100
   27THF    H11  349   4.220   0.480   1.700 -1.5451  1.4626 -0.0787
   27THF    H12  350   4.301   0.459   1.918 -0.9577  2.0699 -2.4808
   27THF    H13  351   4.125   0.482   1.949 -0.5567 -0.7080  0.3464
   28THF     O1  352   3.619   2.537   3.196 -0.1519 -0.1709 -0.2185
   28THF     C2  353   3.593   2.436   3.101 -0.0033  0.2750  0.2363
   28THF     C3  354   3.682   2.473   3.309 -0.5505  0.5051  0.5469
   28THF     H4  355   3.569   2.485   3.006 -0.1367 -2.8312 -1.4618
   28THF     H5  356   3.510   2.373   3.132  0.1667  0.9057  2.0546
   28THF     H6  357   3.724   2.549   3.375 -0.1655 -1.6016  2.8845
   28THF     H7  358   3.609   2.422   3.372 -0.4436 -1.1283 -0.5751
   28THF     C8  359   3.779   2.383   3.234  0.8709  0.3976  0.5015
   28THF     C9  360   3.727   2.368   3.088  0.6516  0.6040 -1.1134
   28THF    H10  361   3.793   2.286   3.283  1.2828  0.2169  0.0386
   28THF    H11  362   3.874   2.436   3.220  1.3708 -0.7863 -0.7996
   28THF    H12  363   3.792   2.417   3.015  3.6082  0.3742  1.1883
   28THF    H13  364   3.714   2.265   3.056 -3.8507  0.8355 -0.7040
   29THF     O1  365   1.640   1.677   3.732 -0.0314 -0.2033  0.1305
   29THF     C2  366   1.622   1.733   3.861  0.0805 -0.3869 -0.5840
   29THF     C3  367   1.764   1.728   3.693 -1.1502  0.3905 -0.2470
   29THF     H4  368   1.555   1.675   3.925  0.2850  2.7005  2.8097
   29THF     H5  369   1.566   1.826   3.853 -0.9736 -0.5009  3.4367
   29THF     H6  370   1.807   1.669   3.611 -1.9034  0.0597 -0.4134
   29THF     H7  371   1.758   1.826   3.646 -0.6030  0.0141 -1.1372
   29THF     C8  372   1.856   1.720   3.815 -0.3388  0.3026  0.1019
   29THF     C9  373   1.756   1.763   3.924 -0.4049  0.4060  0.0460
   29THF    H10  374   1.947   1.780   3.812  0.1823 -0.3136  1.9545
   29THF    H11  375   1.878   1.613   3.822 -0.4281  0.3573  1.7242
   29THF    H12  376   1.773   1.724   4.024 -0.6683 -0.5628 -0.2796
   29THF    H13  377   1.766   1.871   3.932  1.7071  0.2957 -0.5614
   30THF     O1  378   0.406   1.389   5.255  0.4487 -0.3501 -0.0405
   30THF     C2  379   0.376   1.511   5.188  0.3678  0.4368 -0.7593
   30THF     C3  380   0.534   1.342   5.211  0.3072  0.5416  0.0041
   30THF     H4  381   0.411   1.598   5.244  0.9836 -0.9298  1.0879
   30THF     H5  382   0.269   1.516   5.172  0.5757  1.7715 -1.9597
   30THF     H6  383   0.609   1.396   5.268 -0.7630  0.4988  1.5170
   30THF     H7  384   0.551   1.235   5.223  1.7638  0.8026  0.4939
   30THF     C8  385   0.537   1.378   5.061  0.4418 -0.2794  0.1517
   30THF     C9  386   0.453   1.500   5.054  0.7185 -0.0159  0.1905
   30THF    H10  387   0.479   1.307   5.002 -0.3706 -1.2030  1.9632
   30THF    H11  388   0.635   1.408   5.026 -0.1182  2.1240  0.4556
   30THF    H12  389   0.514   1.590   5.043  0.4611 -0.0870 -2.3807
   30THF    H13  390   0.392   1.499   4.964 -0.3546  0.2928  0.8930
   31THF     O1  391   1.714   0.077   3.403  0.0321  0.4800  0.0661
   31THF     C2  392   1.827   0.049   3.321  0.3352  0.0337  0.4127
   31THF     C3  393   1.745   0.020   3.530 -0.6608 -0.2659  0.1643
   31THF     H4  394   1.831   0.104   3.227  2.2521 -1.4537 -0.4453
   31THF     H5  395   1.833  -0.057   3.301  3.0008  0.1890  0.0203
   31THF     H6  396   1.673   0.062   3.601  0.6169 -1.6486  2.4085
   31THF     H7  397   1.724  -0.085   3.512 -0.9003  0.2631 -3.3505
   31THF     C8  398   1.891   0.059   3.554 -0.2534 -0.2558  0.5384
   31THF     C9  399   1.943   0.083   3.412  0.3075 -0.1320 -0.1146
   31THF    H10  400   1.948  -0.012   3.613 -0.4244 -1.8914 -1.1862
   31THF    H11  401   1.909   0.157   3.600  1.3243 -0.1687 -0.2237
   31THF    H12  402   1.976   0.187   3.402 -2.2236  0.9296  1.4209
   31THF    H13  403   2.032   0.026   3.388 -0.6261 -1.6727 -0.0430
   32THF     O1  404   1.752   4.782   2.721  0.2592  0.3192 -0.1591
   32THF     C2  405   1.791   4.822   2.593  0.1931  0.3727  0.8464
   32THF     C3  406   1.865   4.720   2.784  0.9408 -0.0630 -0.8764
   32THF     H4  407   1.810   4.930   2.598  0.3885  0.3470  0.6814
   32THF     H5  408   1.708   4.806   2.524  1.1203 -3.2185  0.3550
   32THF     H6  409   1.893   4.762   2.881 -2.1212 -0.4301  0.2658
   32THF     H7  410   1.844   4.616   2.805 -0.3975  0.2593 -0.5503
   32THF     C8  411   1.983   4.735   2.689  1.2660  0.0533  0.6162
   32THF     C9  412   1.910   4.747   2.553  0.3074 -0.1096 -0.4282
   32THF    H10  413   2.047   4.647   2.681 -0.6540 -1.2380 -3.3795
   32THF    H11  414   2.044   4.822   2.711  1.3516  0.0293  0.4768
   32THF    H12  415   1.971   4.795   2.477  2.7312 -0.6693  1.0454
   32THF    H13  416   1.873   4.656   2.506 -0.5667  0.5979 -1.1385
   33THF     O1  417   2.555   1.613   4.422 -0.0640  0.7090  0.4381
   33THF     C2  418   2.588   1.751   4.416  0.2845  0.9984 -0.3045
   33THF     C3  419   2.654   1.539   4.350  0.2337 -0.7984 -0.5335
   33THF     H4  420   2.663   1.787   4.486 -0.6091 -0.2930  1.3930
   33THF     H5  421   2.500   1.815   4.421 -0.5851 -0.2064  0.4023
   33THF     H6  422   2.713   1.485   4.424  0.7076  2.2927  1.5725
   33THF     H7  423   2.607   1.460   4.293  0.8390 -1.5447 -0.0237
   33THF     C8  424   2.728   1.642   4.255  0.6121 -0.5170 -0.7124
   33THF     C9  425   2.635   1.760   4.271  0.0997  0.1631 -0.1754
   33THF    H10  426   2.737   1.595   4.157  1.1355 -0.5200 -0.6655
   33THF    H11  427   2.828   1.664   4.292  0.6753  0.4004 -1.4264
   33THF    H12  428   2.692   1.852   4.256 -1.8477  1.7826  1.6374
   33THF    H13  429   2.553   1.749   4.201  0.9238  1.7273 -1.4563
   34THF     O1  430   3.486   4.536   2.080 -0.0364  0.0511 -0.7734
   34THF     C2  431   3.555   4.590   1.964  0.1483  0.2195 -0.8473
   34THF     C3  432   3.488   4.649   2.170 -0.5681  0.5210  0.7074
   34THF     H4  433   3.553   4.522   1.879 -1.6023 -1.7238  0.6377
   34THF     H5  434   3.661   4.613   1.974  0.3210  0.8630 -3.4288
   34THF     H6  435   3.442   4.627   2.266  0.7666  0.8885  1.4614
   34THF     H7  436   3.594   4.666   2.191 -0.6780 -0.0093  1.8093
   34THF     C8  437   3.443   4.765   2.083 -0.1635  0.2113 -0.7197
   34THF     C9  438   3.502   4.734   1.947  0.2022  0.1679 -0.5368
   34THF    H10  439   3.477   4.856   2.132 -0.5908  1.3020 -2.3513
   34THF    H11  440   3.334   4.767   2.087 -0.2188 -1.8048  2.6582
   34THF    H12  441   3.434   4.743   1.863  0.1916 -0.4346 -0.6003
   34THF    H13  442   3.585   4.799   1.919 -0.5416  1.1963 -0.3951
   35THF     O1  443   4.644   2.158   1.394 -0.4117 -0.3237  0.1082
   35THF     C2  444   4.755   2.085   1.362 -0.0142  0.4826 -0.3139
   35THF     C3  445   4.633   2.277   1.315 -0.0288  0.0711 -0.0815
   35THF     H4  446   4.729   2.003   1.296  1.3120 -1.0694  1.0049
   35THF     H5  447   4.803   2.036   1.447  0.9632  2.4562  0.3541
   35THF     H6  448   4.587   2.251   1.220  1.1731  1.7104 -1.1742
   35THF     H7  449   4.565   2.343   1.369 -2.3643 -1.3588 -1.1262
   35THF     C8  450   4.781   2.318   1.301 -0.1859 -0.2869  0.5332
   35THF     C9  451   4.854   2.190   1.302 -0.3061  0.6079 -0.4076
   35THF    H10  452   4.818   2.385   1.379 -0.0445 -0.1631  0.3605
   35THF    H11  453   4.800   2.360   1.203 -1.9591  1.0905  0.7153
   35THF    H12  454   4.881   2.160   1.201 -0.1075 -0.0983 -0.1556
   35THF    H13  455   4.953   2.186   1.348 -0.0194 -0.2411 -1.0618
   36THF     O1  456   4.457   2.733   2.676  0.1800 -0.2808 -0.1297
   36THF     C2  457   4.338   2.786   2.719  0.1955 -0.5682  0.1227
   36THF     C3  458   4.495   2.800   2.559  0.4461 -0.4118  0.1411
   36THF     H4  459   4.352   2.821   2.821 -0.6090  1.4865 -0.4331
   36THF     H5  460   4.262   2.707   2.722  1.1065 -1.4431  1.1284
   36THF     H6  461   4.566   2.879   2.586 -1.6507  2.1363 -1.3380
   36THF     H7  462   4.539   2.730   2.488 -2.4190  0.8980 -3.1963
   36THF     C8  463   4.367   2.861   2.505  0.5093 -0.4026 -0.2521
   36THF     C9  464   4.297   2.906   2.631  0.1037  0.0311 -0.2739
   36THF    H10  465   4.311   2.790   2.443  0.6637 -1.8328  1.1580
   36THF    H11  466   4.381   2.946   2.439 -0.9426 -0.0509 -0.1367
   36THF    H12  467   4.339   2.997   2.672 -0.3708  0.7978 -1.4358
   36THF    H13  468   4.189   2.908   2.617  0.3639 -1.3008 -3.3810
   37THF     O1  469   2.686   3.161   0.426  0.3223  0.3237 -0.2704
   37THF     C2  470   2.617   3.292   0.451 -0.3075  0.0119  0.3610
   37THF     C3  471   2.742   3.124   0.558  0.4307 -0.0954  0.1114
   37THF     H4  472   2.524   3.269   0.503  1.2130 -0.5826  3.0024
   37THF     H5  473   2.586   3.345   0.360  0.4904  1.1880  0.7550
   37THF     H6  474   2.670   3.092   0.632  2.4576 -0.3360  2.0637
   37THF     H7  475   2.801   3.033   0.549 -4.1745 -3.7636  2.5533
   37THF     C8  476   2.804   3.254   0.605  0.4926 -0.4308 -0.2368
   37THF     C9  477   2.710   3.363   0.548 -0.3534  0.2737 -0.1582
   37THF    H10  478   2.899   3.258   0.551  0.7988  1.8358  0.3652
   37THF    H11  479   2.841   3.265   0.707  1.3704  2.3809 -0.7640
   37THF    H12  480   2.657   3.399   0.637  2.1106 -1.0567  1.9817
   37THF    H13  481   2.760   3.454   0.516 -2.1753  1.9818  1.5261
   38THF     O1  482   3.044   1.622   2.215  0.1037 -0.0766 -0.2189
   38THF     C2  483   2.976   1.537   2.304 -0.3981 -0.1722 -0.3386
   38THF     C3  484   3.065   1.532   2.109  0.0266  0.3705  0.4510
   38THF     H4  485   2.886   1.486   2.269 -0.6160  0.7128 -1.0935
   38THF     H5  486   2.939   1.568   2.402 -1.0054 -1.6919 -0.0444
   38THF     H6  487   2.973   1.511   2.054 -0.7031  3.2191  0.4756
   38THF     H7  488   3.130   1.587   2.040  1.8908 -1.0419  0.9952
   38THF     C8  489   3.128   1.413   2.177  0.1520  0.4243  0.3703
   38THF     C9  490   3.070   1.425   2.321 -0.2032  0.1108  0.0271
   38THF    H10  491   3.236   1.426   2.189  0.3098 -0.8198  0.4390
   38THF    H11  492   3.114   1.318   2.124  0.0730  0.6255  0.0293
   38THF    H12  493   3.016   1.333   2.342  1.2649 -1.0740 -1.1837
   38THF    H13  494   3.146   1.447   2.397 -0.1390  2.2613 -0.6064
   39THF     O1  495   2.693   1.171   5.130 -0.4258  0.5997 -0.0054
   39THF     C2  496   2.703   1.273   5.227 -0.2124 -0.6757 -0.4761
   39THF     C3  497   2.819   1.164   5.065 -0.1030 -0.2634  0.0006
   39THF     H4  498   2.762   1.235   5.311  0.6301  0.4674 -0.5302
   39THF     H5  499   2.608   1.312   5.264 -0.9752 -2.0857 -0.8854
   39THF     H6  500   2.892   1.107   5.124  1.3336 -0.6028 -1.9857
   39THF     H7  501   2.812   1.117   4.967  0.8135  0.1443 -0.2718
   39THF     C8  502   2.857   1.308   5.047  0.4801  0.0241  0.2506
   39THF     C9  503   2.780   1.388   5.156  0.2095 -0.1558 -0.3574
   39THF    H10  504   2.826   1.342   4.948  3.8350  1.2723 -0.4994
   39THF    H11  505   2.963   1.331   5.045  0.4350  0.1870 -1.7184
   39THF    H12  506   2.836   1.447   5.229  0.2909 -1.2445  0.4912
   39THF    H13  507   2.715   1.458   5.105 -0.2196  0.3378  0.8313
   40THF     O1  508   0.898   1.586   5.386  0.1366  0.3305  0.0115
   40THF     C2  509   0.878   1.453   5.436 -0.7400 -0.2780  0.0031
   40THF     C3  510   1.007   1.581   5.289  0.4949 -0.2922 -0.2876
   40THF     H4  511   0.772   1.438   5.417 -0.4701 -2.3094 -0.1519
   40THF     H5  512   0.909   1.448   5.541  2.3568  3.4041 -0.4914
   40THF     H6  513   1.004   1.668   5.223  0.7701 -0.1440 -0.1085
   40THF     H7  514   1.096   1.589   5.352 -1.6552  1.8509  2.7706
   40THF     C8  515   0.995   1.438   5.231 -0.0403  0.2589  0.6053
   40THF     C9  516   0.967   1.359   5.348  0.6057 -0.4786 -0.0585
   40THF    H10  517   1.085   1.410   5.176  0.0973  1.7289  0.0166
   40THF    H11  518   0.914   1.440   5.158 -0.6608  0.0095  1.2826
   40THF    H12  519   0.904   1.274   5.322 -2.3896  1.7779 -0.7387
   40THF    H13  520   1.058   1.324   5.396  1.0497  0.0003 -0.5478
   41THF     O1  521   5.419   1.477   0.351  0.6727 -0.0657  0.8497
   41THF     C2  522   5.402   1.624   0.343  0.3718  0.0997 -0.0359
   41THF     C3  523   5.322   1.431   0.436  0.2126 -0.0177 -0.2938
   41THF     H4  524   5.315   1.659   0.287 -0.8842 -0.1654  1.6674
   41THF     H5  525   5.491   1.663   0.295 -0.2462  0.1226 -1.2151
   41THF     H6  526   5.225   1.434   0.387 -0.2861 -1.2083  0.5669
   41THF     H7  527   5.338   1.328   0.468  0.2714 -0.1486 -0.7370
   41THF     C8  528   5.343   1.522   0.557  0.0687 -0.7928 -0.0130
   41THF     C9  529   5.392   1.651   0.484 -0.0251  0.0605 -0.8836
   41THF    H10  530   5.415   1.474   0.623 -0.7162  0.9494  2.2547
   41THF    H11  531   5.256   1.540   0.621 -0.8368 -1.3238 -1.0764
   41THF    H12  532   5.347   1.748   0.503  0.4140  0.1854 -0.4618
   41THF    H13  533   5.493   1.659   0.524 -0.6681 -1.2847  1.1278
   42THF     O1  534   1.582   1.988   4.885  0.9160 -0.0347 -0.5626
   42THF     C2  535   1.659   2.059   4.789 -0.4606 -0.6305 -0.0008
   42THF     C3  536   1.641   2.008   5.010 -0.3113  0.4847 -0.1335
   42THF     H4  537   1.610   2.056   4.691 -1.6355 -0.3004  0.5523
   42THF     H5  538   1.758   2.014   4.793  0.2944  1.0567  1.5141
   42THF     H6  539   1.587   1.978   5.100 -0.2796  0.0946 -0.2443
   42THF     H7  540   1.729   1.947   5.029 -1.7603 -1.6464  0.0818
   42THF     C8  541   1.673   2.160   5.011 -0.4680 -0.3103 -0.2307
   42THF     C9  542   1.660   2.196   4.864  0.4310  0.6671 -0.3248
   42THF    H10  543   1.779   2.162   5.039 -0.0359  2.7528 -1.7000
   42THF    H11  544   1.605   2.219   5.073 -2.6155 -2.0311 -0.8169
   42THF    H12  545   1.572   2.260   4.856  0.7432  1.1499  0.1200
   42THF    H13  546   1.746   2.243   4.816  2.4250 -3.7401 -1.5784
   43THF     O1  547   1.293   0.546   4.471  0.0873  0.1551 -0.5237
   43THF     C2  548   1.385   0.576   4.575 -0.3197  0.1735  0.1691
   43THF     C3  549   1.324   0.415   4.418 -0.5784  0.0732 -0.3168
   43THF     H4  550   1.324   0.619   4.655 -2.3228  1.2159 -1.7833
   43THF     H5  551   1.457   0.651   4.543  0.2068 -1.0913 -1.8170
   43THF     H6  552   1.233   0.360   4.393 -0.8240 -0.5255  1.6566
   43THF     H7  553   1.384   0.429   4.329  1.5591 -0.9957  0.8729
   43THF     C8  554   1.389   0.345   4.534  0.4349  0.5083 -0.9199
   43THF     C9  555   1.457   0.450   4.612  0.1469  0.3772 -0.7054
   43THF    H10  556   1.441   0.253   4.508 -2.1972 -1.2300 -0.4290
   43THF    H11  557   1.308   0.311   4.598  0.2913  3.0580  0.3685
   43THF    H12  558   1.461   0.439   4.721 -2.2432  0.6191 -0.5423
   43THF    H13  559   1.562   0.456   4.583  0.1163 -0.8511 -1.0936
   44THF     O1  560   1.475   2.258   0.132 -1.2081 -0.5767 -0.0483
   44THF     C2  561   1.587   2.336   0.181 -0.2117  0.2029 -0.1286
   44THF     C3  562   1.460   2.287  -0.011  0.0022  0.6613  0.3685
   44THF     H4  563   1.613   2.311   0.284  1.0296 -2.7989 -1.0618
   44THF     H5  564   1.577   2.445   0.183  0.8487  0.3137  0.7664
   44THF     H6  565   1.403   2.212  -0.065 -1.0980  0.7913  1.3049
   44THF     H7  566   1.410   2.383  -0.025 -2.0084 -0.3002  0.6467
   44THF     C8  567   1.612   2.278  -0.054  1.3706 -0.7755  0.2977
   44THF     C9  568   1.691   2.298   0.077  0.0154 -0.1705 -0.0291
   44THF    H10  569   1.639   2.345  -0.136  1.7554 -1.9348 -0.5540
   44THF    H11  570   1.623   2.175  -0.087  0.2633 -0.7754 -0.0914
   44THF    H12  571   1.731   2.204   0.114  0.7490  0.4330  0.7423
   44THF    H13  572   1.767   2.376   0.067  0.4282 -0.6795 -1.0588
   45THF     O1  573   0.351   1.366   3.742  0.4098  0.3979  0.1577
   45THF     C2  574   0.371   1.471   3.648 -0.0439 -0.1076 -0.4814
   45THF     C3  575   0.245   1.406   3.828  0.1615  1.2261  0.3927
   45THF     H4  576   0.418   1.421   3.563 -0.8946  2.7186 -2.7878
   45THF     H5  577   0.433   1.550   3.689  1.8626 -1.9495  0.3137
   45THF     H6  578   0.219   1.316   3.884  2.1414  0.5106  0.2156
   45THF     H7  579   0.265   1.490   3.895 -0.2405  1.0607  0.7280
   45THF     C8  580   0.133   1.451   3.726 -0.5227 -1.1041 -0.1876
   45THF     C9  581   0.225   1.508   3.613  0.4926  0.3179  0.2583
   45THF    H10  582   0.060   1.509   3.782  0.1805  0.5813 -0.9500
   45THF    H11  583   0.076   1.366   3.689 -0.8485 -1.3687  0.8625
   45THF    H12  584   0.193   1.472   3.516 -1.8544  1.9817  0.3270
   45THF    H13  585   0.224   1.617   3.609 -2.5984  0.4185  1.3118
   46THF     O1  586   5.116   0.171   4.302  0.1328 -0.2789 -0.2569
   46THF     C2  587   4.989   0.143   4.371  0.3543  0.1654  0.8573
   46THF     C3  588   5.117   0.161   4.160  0.9805 -0.2644  0.3352
   46THF     H4  589   4.925   0.232   4.376 -2.3563 -1.5950 -0.0872
   46THF     H5  590   4.997   0.104   4.472 -0.6857 -1.1497  0.4595
   46THF     H6  591   5.145   0.259   4.120  2.1732 -0.9434 -0.5758
   46THF     H7  592   5.190   0.090   4.122  1.7431  0.4451  0.4563
   46THF     C8  593   4.972   0.119   4.131 -0.3675 -0.4498  0.2481
   46THF     C9  594   4.919   0.055   4.267 -0.6949  0.3828  0.2267
   46THF    H10  595   4.958   0.054   4.045  0.2669  0.6852 -0.7449
   46THF    H11  596   4.911   0.204   4.100 -0.8222 -1.0324 -0.4750
   46THF    H12  597   4.810   0.057   4.269 -0.8743 -2.1325 -2.1703
   46THF    H13  598   4.949  -0.046   4.295 -0.2345  0.5821  0.4657
   47THF     O1  599   0.268   3.594   0.413 -0.0934  0.0600  0.0993
   47THF     C2  600   0.380   3.657   0.352 -0.4310 -0.4460  0.4810
   47THF     C3  601   0.312   3.536   0.542  0.7013 -0.2807  0.2845
   47THF     H4  602   0.345   3.723   0.273  1.7182  0.2005  0.0045
   47THF     H5  603   0.458   3.594   0.308  0.3018 -0.5845  1.9150
   47THF     H6  604   0.227   3.536   0.610  0.1648 -1.0420 -0.3610
   47THF     H7  605   0.328   3.429   0.528 -2.2273 -0.5999 -1.6807
   47THF     C8  606   0.441   3.613   0.558 -0.1337 -0.0625  0.3483
   47THF     C9  607   0.441   3.730   0.465 -0.0129  0.2622 -0.0532
   47THF    H10  608   0.535   3.561   0.537  0.7012  0.2010  3.0538
   47THF    H11  609   0.453   3.636   0.664 -1.6338 -1.2904  0.8351
   47THF    H12  610   0.385   3.821   0.487 -0.2970  0.2276 -0.6057
   47THF    H13  611   0.540   3.766   0.438  0.5517 -2.1105 -1.4011
   48THF     O1  612   2.808   0.334   1.782  0.2709 -0.9873  0.0447
   48THF     C2  613   2.741   0.355   1.661  0.2844  0.0448 -0.0682
   48THF     C3  614   2.939   0.394   1.765  0.4272  0.9887  0.0275
   48THF     H4  615   2.698   0.455   1.664 -1.0124 -0.5135  0.6731
   48THF     H5  616   2.659   0.286   1.644  0.8721 -0.9659  0.9807
   48THF     H6  617   2.948   0.490   1.816 -0.7039  0.3674  1.4368
   48THF     H7  618   3.008   0.318   1.803 -2.1305 -1.6763 -0.3245
   48THF     C8  619   2.961   0.418   1.614  0.2366 -0.0365 -0.0493
   48THF     C9  620   2.846   0.343   1.547  0.9438 -0.0845  0.0697
   48THF    H10  621   3.056   0.382   1.574  1.4459 -0.6139  3.0456
   48THF    H11  622   2.951   0.525   1.597  2.7444  0.3492  0.4475
   48THF    H12  623   2.815   0.395   1.456  0.5340 -0.1081  0.1972
   48THF    H13  624   2.880   0.242   1.525 -1.2257 -0.7350 -0.4786
   49THF     O1  625   3.958   3.688   4.427 -0.2445  0.5839 -0.2020
   49THF     C2  626   3.956   3.696   4.285  0.6629 -0.0171  1.0771
   49THF     C3  627   3.840   3.625   4.473  0.5169 -0.6137  0.1273
   49THF     H4  628   4.053   3.666   4.246 -0.0050 -1.8288  0.7290
   49THF     H5  629   3.935   3.802   4.268 -0.1078 -0.1807  0.9917
   49THF     H6  630   3.860   3.524   4.510  1.3578  0.2596  2.1986
   49THF     H7  631   3.794   3.680   4.555 -2.4722  1.7032 -2.8444
   49THF     C8  632   3.747   3.621   4.350 -0.0423 -0.4583  0.0449
   49THF     C9  633   3.842   3.605   4.231  0.1328 -0.4451 -0.1551
   49THF    H10  634   3.690   3.713   4.339  0.9398  0.0152 -1.3275
   49THF    H11  635   3.674   3.541   4.365  1.5068 -1.8634  0.4573
   49THF    H12  636   3.864   3.500   4.209  1.2350  0.1671 -2.2210
   49THF    H13  637   3.806   3.654   4.141  1.7439  2.5858  0.7213
   50THF     O1  638   4.209   3.570   0.959  0.5215 -0.0897 -0.1220
   50THF     C2  639   4.122   3.660   0.898  0.6691 -0.1479 -0.3074
   50THF     C3  640   4.163   3.443   0.920  0.2156  0.8420 -0.5532
   50THF     H4  641   4.161   3.675   0.798  0.4036 -0.6640 -0.4931
   50THF     H5  642   4.130   3.761   0.939  0.6057 -0.8555  1.5687
   50THF     H6  643   4.209   3.419   0.825  0.5618 -0.4467 -0.0845
   50THF     H7  644   4.176   3.365   0.995 -2.6523  0.8717  0.1115
   50THF     C8  645   4.012   3.452   0.883 -0.4992 -0.0868 -0.2931
   50THF     C9  646   3.987   3.597   0.906  0.6557 -0.3483  0.0181
   50THF    H10  647   3.944   3.397   0.949 -3.3871  2.6325 -0.7745
   50THF    H11  648   3.990   3.419   0.782  0.8577  0.0847 -0.6596
   50THF    H12  649   3.909   3.635   0.840  0.0174  1.1151  1.5547
   50THF    H13  650   3.954   3.613   1.008  3.1938  1.8072  0.6108
   51THF     O1  651   2.315   2.221   1.531 -0.0101  0.4700  0.3197
   51THF     C2  652   2.357   2.339   1.604 -0.6576  1.1204  0.1746
   51THF     C3  653   2.324   2.102   1.616 -0.3250 -0.3662 -0.4916
   51THF     H4  654   2.302   2.427   1.571 -1.9674 -0.4623 -2.1280
   51THF     H5  655   2.462   2.353   1.579 -0.7419 -2.0663 -2.5718
   51THF     H6  656   2.227   2.058   1.638 -0.0920 -0.4678  0.3912
   51THF     H7  657   2.385   2.033   1.560 -0.6497 -0.5690 -0.5983
   51THF     C8  658   2.380   2.148   1.748 -0.0025 -0.2063 -0.2103
   51THF     C9  659   2.354   2.300   1.748 -0.0801 -0.5119 -0.8843
   51THF    H10  660   2.485   2.121   1.763 -0.2649 -1.3933 -0.4237
   51THF    H11  661   2.325   2.105   1.831 -0.2400  0.8726  0.1995
   51THF    H12  662   2.253   2.312   1.784 -0.0038 -2.1950 -0.0149
   51THF    H13  663   2.419   2.360   1.812 -1.0156 -3.3282  3.1022
   52THF     O1  664   0.728   0.079   4.629  0.3651  0.1615 -0.2168
   52THF     C2  665   0.772   0.025   4.505  0.1167  0.0422  0.4600
   52THF     C3  666   0.773   0.210   4.647 -0.4238 -0.1232 -0.2233
   52THF     H4  667   0.698   0.049   4.428 -0.8510 -0.1049  1.3195
   52THF     H5  668   0.783  -0.083   4.494  1.0799  0.2484 -0.9241
   52THF     H6  669   0.692   0.283   4.657  0.4176  1.0743 -1.7390
   52THF     H7  670   0.829   0.209   4.740  0.2030 -0.4054 -0.6036
   52THF     C8  671   0.861   0.244   4.534 -0.0483 -0.2438 -0.3949
   52THF     C9  672   0.899   0.106   4.479 -0.8702  0.2895 -0.5994
   52THF    H10  673   0.946   0.303   4.568 -1.0675  1.3481 -0.5520
   52THF    H11  674   0.812   0.314   4.466  0.2257  1.0692  0.7246
   52THF    H12  675   0.928   0.111   4.374  1.0200  1.3784 -0.0599
   52THF    H13  676   0.987   0.073   4.534  0.1228  0.6699 -1.9170
   53THF     O1  677   3.296   1.856   5.039  0.0168 -0.0956 -0.8529
   53THF     C2  678   3.388   1.844   5.155 -0.2634 -0.2309 -0.7391
   53THF     C3  679   3.176   1.786   5.055  0.6375 -0.6899 -0.3738
   53THF     H4  680   3.359   1.905   5.241 -0.5412  0.5912 -1.3999
   53THF     H5  681   3.487   1.873   5.121 -0.2684  0.2932 -0.3061
   53THF     H6  682   3.098   1.840   5.110  1.5088 -1.8366  2.1665
   53THF     H7  683   3.140   1.750   4.959  1.4435 -0.6387 -0.6940
   53THF     C8  684   3.225   1.661   5.133  0.4976  0.2644  0.7545
   53THF     C9  685   3.365   1.695   5.186 -0.4044 -0.0871  0.0537
   53THF    H10  686   3.246   1.585   5.058 -1.2584  1.2472 -0.8176
   53THF    H11  687   3.161   1.627   5.215 -0.5549  0.7145  0.1487
   53THF    H12  688   3.376   1.686   5.294 -0.0970 -0.2435  0.0080
   53THF    H13  689   3.441   1.640   5.131 -0.8251  0.0850 -0.7177
   54THF     O1  690   4.434   4.498   2.427  0.4179 -0.2020  0.1829
   54THF     C2  691   4.535   4.462   2.519 -0.5283 -0.5149 -0.1182
   54THF     C3  692   4.471   4.448   2.298  0.1087  0.0688 -0.3270
   54THF     H4  693   4.511   4.374   2.578  3.0469 -0.8730  1.0414
   54THF     H5  694   4.554   4.537   2.596  2.8200  0.1011 -1.3514
   54THF     H6  695   4.404   4.370   2.263  0.9255  0.3112 -2.6115
   54THF     H7  696   4.451   4.515   2.214  2.5669 -0.7513 -1.6550
   54THF     C8  697   4.617   4.401   2.306  0.2351  0.1179  0.6776
   54THF     C9  698   4.664   4.454   2.438  0.0059 -0.3124  0.1133
   54THF    H10  699   4.667   4.432   2.215  2.3366  0.6052  1.9333
   54THF    H11  700   4.616   4.293   2.318 -0.0626  0.2428  1.9206
   54THF    H12  701   4.750   4.406   2.485 -0.2499  0.7325  1.7026
   54THF    H13  702   4.680   4.560   2.422 -1.3180 -0.1755 -0.4043
   55THF     O1  703   4.267   4.804   5.264  0.2906 -0.1987 -0.5332
   55THF     C2  704   4.339   4.873   5.372  0.6286 -0.2642  0.2415
   55THF     C3  705   4.164   4.726   5.331  0.1346 -0.2098 -0.3102
   55THF     H4  706   4.271   4.952   5.404  0.1243  0.1759 -1.7762
   55THF     H5  707   4.433   4.913   5.334  0.3227  1.4123  1.1571
   55THF     H6  708   4.076   4.789   5.328 -0.5147 -1.0539  0.6185
   55THF     H7  709   4.167   4.638   5.267  0.4179 -0.4401  0.0168
   55THF     C8  710   4.223   4.687   5.466  0.4684  0.5973  0.0213
   55THF     C9  711   4.356   4.761   5.478 -0.3287 -0.9583 -0.2655
   55THF    H10  712   4.229   4.578   5.460 -0.1669  0.5636 -0.0612
   55THF    H11  713   4.155   4.713   5.547 -0.0413  0.4338 -0.3548
   55THF    H12  714   4.390   4.799   5.574 -0.4267 -1.7127  0.0739
   55THF    H13  715   4.433   4.690   5.449  0.7983  1.6223 -4.4700
   56THF     O1  716   5.104   1.364   3.443 -0.0563  0.5021 -0.4808
   56THF     C2  717   4.976   1.346   3.384 -0.2307  0.4179  0.0228
   56THF     C3  718   5.105   1.316   3.578  0.0563  0.0830  0.0898
   56THF     H4  719   4.979   1.340   3.276  3.8468 -2.4058  0.0353
   56THF     H5  720   4.913   1.419   3.434 -0.1121 -0.1223  0.9879
   56THF     H6  721   5.206   1.319   3.619  0.7904  1.2658 -1.6690
   56THF     H7  722   5.058   1.391   3.642 -1.2745 -0.1719 -0.5601
   56THF     C8  723   5.022   1.188   3.571 -0.3923 -0.0328  0.1389
   56THF     C9  724   4.946   1.204   3.438 -0.2350 -0.8448  0.8951
   56THF    H10  725   4.961   1.190   3.661  0.1449 -1.1874  0.5548
   56THF    H11  726   5.073   1.091   3.574 -2.5374 -1.2119  0.5254
   56THF    H12  727   4.981   1.133   3.363 -0.5937  0.5844 -0.6980
   56THF    H13  728   4.837   1.198   3.446 -0.4380  0.7585 -0.2288
   57THF     O1  729   2.505   1.367   0.515 -0.1586  0.8040  0.4155
   57THF     C2  730   2.473   1.440   0.632 -0.2575  0.8137  0.0951
   57THF     C3  731   2.379   1.332   0.461 -0.3358 -0.3510  0.0280
   57THF     H4  732   2.549   1.516   0.647 -0.0407  0.7369 -0.5996
   57THF     H5  733   2.467   1.369   0.715  2.0659 -0.8417 -1.0497
   57THF     H6  734   2.386   1.297   0.358  1.8584  0.0942 -0.0280
   57THF     H7  735   2.329   1.255   0.519 -0.8034  1.5203  2.2365
   57THF     C8  736   2.299   1.453   0.472  0.1532  0.3930 -0.5442
   57THF     C9  737   2.334   1.508   0.609 -0.0946  0.3345 -0.3110
   57THF    H10  738   2.196   1.418   0.469 -0.0517  0.9626 -0.3314
   57THF    H11  739   2.309   1.529   0.394  0.8598 -0.0450 -0.8912
   57THF    H12  740   2.342   1.617   0.618  0.8025  0.4431 -2.0071
   57THF    H13  741   2.254   1.471   0.673  0.9665 -0.7817  0.4042
   58THF     O1  742   3.105   2.901   4.932 -0.0921 -0.0299 -0.3141
   58THF     C2  743   2.980   2.927   5.002 -0.1794  0.7763 -0.0789
   58THF     C3  744   3.089   2.789   4.845  0.1494  0.1423  0.0449
   58THF     H4  745   2.938   3.014   4.951  0.2179  0.7953 -0.3783
   58THF     H5  746   3.002   2.962   5.103 -0.8550  1.6386 -0.2161
   58THF     H6  747   3.115   2.815   4.743  1.3329 -0.8018  0.0902
   58THF     H7  748   3.143   2.703   4.884 -1.0157 -1.1429 -1.0717
   58THF     C8  749   2.946   2.747   4.857 -0.0762  0.0651 -1.0131
   58THF     C9  750   2.901   2.792   4.994 -0.1959  0.1280  0.2073
   58THF    H10  751   2.926   2.641   4.845 -0.4509  0.0670 -0.4441
   58THF    H11  752   2.888   2.799   4.781 -3.0503 -0.9217  0.4247
   58THF    H12  753   2.793   2.803   4.995 -0.2860 -0.6966  1.7826
   58THF    H13  754   2.941   2.728   5.072  2.3982  0.3543 -0.8066
   59THF     O1  755   0.894   1.154   0.171  0.4587 -0.6802  0.7330
   59THF     C2  756   0.931   1.134   0.301  0.7441 -0.0851  0.5503
   59THF     C3  757   0.974   1.069   0.091 -0.1995  0.0686 -0.4343
   59THF     H4  758   0.890   1.035   0.324  0.1571  0.1201  0.3997
   59THF     H5  759   0.885   1.205   0.370  0.2379 -1.1659  1.3580
   59THF     H6  760   0.940   0.969   0.117 -2.1354  0.8603  0.2602
   59THF     H7  761   0.955   1.092  -0.014 -0.4786  1.3031 -0.1323
   59THF     C8  762   1.111   1.112   0.144  0.0829 -0.1918 -0.4336
   59THF     C9  763   1.087   1.138   0.289 -0.0252 -0.2031  0.1940
   59THF    H10  764   1.131   1.202   0.086 -2.2611  0.8324  0.2372
   59THF    H11  765   1.179   1.032   0.113  0.4180  0.2742 -0.9237
   59THF    H12  766   1.118   1.049   0.344 -0.9772 -1.5282 -1.3058
   59THF    H13  767   1.136   1.231   0.317 -1.7459  0.3841  1.4663
   60THF     O1  768   1.834   0.871   3.948  0.1174 -0.1344 -0.0530
   60THF     C2  769   1.842   0.769   4.046 -0.7475 -0.4327 -0.2984
   60THF     C3  770   1.947   0.860   3.862  0.2933 -0.5328 -0.7110
   60THF     H4  771   1.751   0.767   4.106 -0.2467 -0.8027  0.4607
   60THF     H5  772   1.920   0.790   4.119 -0.3114  1.4774 -1.2491
   60THF     H6  773   1.952   0.915   3.768 -1.6334  0.5149 -0.2671
   60THF     H7  774   2.039   0.885   3.915 -0.5942 -0.4978  0.8915
   60THF     C8  775   1.939   0.713   3.823 -0.3040  0.1782  0.2107
   60THF     C9  776   1.862   0.650   3.942  0.0502  0.2965 -0.2486
   60THF    H10  777   2.037   0.668   3.804  0.0278 -0.2425  2.5459
   60THF    H11  778   1.880   0.712   3.732 -0.0008  0.6660  0.0058
   60THF    H12  779   1.774   0.592   3.915  0.4156  0.4873 -1.9806
   60THF    H13  780   1.934   0.580   3.984  1.2041  1.7567  0.2855
   61THF     O1  781   0.190   5.121   3.808  0.1543  0.2287  0.3440
   61THF     C2  782   0.169   5.227   3.889 -0.1112 -1.0468 -0.5838
   61THF     C3  783   0.142   5.010   3.887 -0.5121 -0.0430 -0.0882
   61THF     H4  784   0.066   5.258   3.901  0.6185  1.7889 -1.0159
   61THF     H5  785   0.223   5.315   3.853 -1.9647  0.1049 -0.6706
   61THF     H6  786   0.034   5.011   3.899 -0.3850  0.0301  1.1881
   61THF     H7  787   0.175   4.918   3.838  0.5915 -0.4790  1.3864
   61THF     C8  788   0.207   5.026   4.026  0.3703  0.4127  0.0911
   61THF     C9  789   0.201   5.179   4.034 -0.2601 -0.7373 -0.4309
   61THF    H10  790   0.312   4.996   4.023  0.5195  0.9788 -1.9167
   61THF    H11  791   0.143   4.972   4.096 -0.9769 -0.6732 -1.8640
   61THF    H12  792   0.128   5.204   4.110  1.0823 -0.3958  0.7839
   61THF    H13  793   0.292   5.219   4.079 -0.5014  1.1535 -1.5531
   62THF     O1  794   5.317   3.164   4.254  0.8688 -0.1193  0.3998
   62THF     C2  795   5.216   3.262   4.221 -0.2153  0.3264  0.3300
   62THF     C3  796   5.418   3.155   4.156 -0.0608 -0.0728 -0.8469
   62THF     H4  797   5.248   3.359   4.259  1.8214 -0.1597 -0.0147
   62THF     H5  798   5.112   3.239   4.246 -0.7162 -0.5459 -2.2581
   62THF     H6  799   5.511   3.187   4.202  0.9428  0.5042 -3.1443
   62THF     H7  800   5.440   3.056   4.116  1.0697  0.5261 -1.7582
   62THF     C8  801   5.373   3.235   4.034  0.6578 -0.5225 -0.3373
   62THF     C9  802   5.228   3.263   4.063  1.1237  1.0092 -0.4448
   62THF    H10  803   5.387   3.177   3.942 -1.0687 -0.8790 -0.4066
   62THF    H11  804   5.426   3.328   4.015  0.5967 -0.4917 -0.3546
   62THF    H12  805   5.194   3.352   4.010  0.1572 -0.2635 -2.0670
   62THF    H13  806   5.169   3.183   4.018  0.7257  1.7937 -1.3402
   63THF     O1  807   1.503   3.658   2.461  0.1762 -0.0066  0.5766
   63THF     C2  808   1.436   3.634   2.342  0.0368 -0.5391 -0.3998
   63THF     C3  809   1.631   3.589   2.452 -0.0414  0.4703  0.2460
   63THF     H4  810   1.407   3.723   2.286  0.3682 -0.1417  0.0595
   63THF     H5  811   1.343   3.580   2.360 -0.2450  0.8300  2.7755
   63THF     H6  812   1.700   3.663   2.410 -0.5818 -0.9284 -3.5315
   63THF     H7  813   1.673   3.562   2.549 -1.6780  0.3054  0.9408
   63THF     C8  814   1.609   3.475   2.354 -0.0872 -0.3678  0.7546
   63THF     C9  815   1.528   3.545   2.247  0.9907 -0.5117 -0.2121
   63THF    H10  816   1.553   3.398   2.408  1.0532 -1.3536  0.5886
   63THF    H11  817   1.710   3.444   2.324  0.5733  0.6828  1.7957
   63THF    H12  818   1.587   3.602   2.175  0.8731  0.4247  0.4107
   63THF    H13  819   1.469   3.468   2.200  0.0137  0.5829 -0.8276
   64THF     O1  820   1.476   1.498   1.516  0.4381 -0.3360  0.3677
   64THF     C2  821   1.333   1.479   1.518 -0.2593 -0.3047  0.4496
   64THF     C3  822   1.508   1.571   1.637 -0.2611 -0.0789  0.2135
   64THF     H4  823   1.308   1.416   1.432  1.3661 -0.6203  0.1852
   64THF     H5  824   1.282   1.575   1.514 -2.6703 -1.5354 -0.6076
   64THF     H6  825   1.616   1.571   1.655 -0.2810 -0.8633  0.3684
   64THF     H7  826   1.469   1.671   1.621 -0.1767 -0.1375 -0.3605
   64THF     C8  827   1.430   1.487   1.741 -0.5074  0.3985  0.1478
   64THF     C9  828   1.319   1.419   1.660  0.0546  0.0712  0.0274
   64THF    H10  829   1.377   1.551   1.811 -3.4054  1.5250 -2.8196
   64THF    H11  830   1.494   1.405   1.773  1.3922  0.3743 -3.2113
   64THF    H12  831   1.322   1.311   1.649 -0.2718 -0.0307  0.8391
   64THF    H13  832   1.225   1.454   1.703  1.8046  3.0050  1.8439
   65THF     O1  833   5.252   5.389   1.639  0.2021  0.0197 -0.2864
   65THF     C2  834   5.151   5.372   1.539 -0.0924  0.3248  0.2159
   65THF     C3  835   5.180   5.407   1.759  0.3484  0.1617  0.2363
   65THF     H4  836   5.118   5.268   1.543 -0.3418  0.3632 -0.7445
   65THF     H5  837   5.191   5.401   1.442 -4.3514 -0.5596 -2.0643
   65THF     H6  838   5.157   5.309   1.801  3.1872 -0.9428 -0.5306
   65THF     H7  839   5.256   5.447   1.827  1.7226 -0.6181 -0.7684
   65THF     C8  840   5.060   5.497   1.720 -0.5465  0.0741 -0.1337
   65THF     C9  841   5.038   5.458   1.580 -0.0602  0.3559  0.0926
   65THF    H10  842   5.090   5.602   1.724 -0.6147  0.0725  0.5531
   65THF    H11  843   4.978   5.488   1.790  1.1723  2.4448  2.4212
   65THF    H12  844   4.939   5.417   1.561  0.3055 -0.1199 -0.9132
   65THF    H13  845   5.035   5.537   1.505 -1.3026  0.3345  0.1020
   66THF     O1  846   1.455   0.823   3.270  0.0867 -0.3535 -0.4257
   66THF     C2  847   1.369   0.784   3.155 -0.0674  0.7730  0.2657
   66THF     C3  848   1.579   0.872   3.221  0.7637 -0.1622 -0.0337
   66THF     H4  849   1.264   0.794   3.183 -0.9819 -2.8865 -1.2770
   66THF     H5  850   1.391   0.683   3.122  0.4997  1.2516 -0.8476
   66THF     H6  851   1.633   0.924   3.301 -1.5134  0.9811  0.8325
   66THF     H7  852   1.641   0.801   3.166  1.1978  1.7887 -2.1864
   66THF     C8  853   1.529   0.967   3.109  0.1939 -0.7836  0.4254
   66THF     C9  854   1.425   0.886   3.053  0.2946  0.6664 -0.2765
   66THF    H10  855   1.600   1.011   3.040  0.9517 -0.6094  1.3031
   66THF    H11  856   1.484   1.056   3.153  0.9987  0.6549 -1.5097
   66THF    H12  857   1.334   0.942   3.031 -2.1926 -2.8787  0.1542
   66THF    H13  858   1.459   0.822   2.972 -1.0622 -0.8619  0.2891
   67THF     O1  859   0.486   0.512   5.076 -0.1778  0.1367  0.3211
   67THF     C2  860   0.468   0.400   5.169 -0.4490  0.9887  0.6087
   67THF     C3  861   0.623   0.516   5.030 -0.3760 -0.1432 -0.3364
   67THF     H4  862   0.408   0.317   5.133  1.8748 -0.2615 -0.6075
   67THF     H5  863   0.419   0.426   5.263 -1.6634  1.2420 -0.0744
   67THF     H6  864   0.640   0.449   4.946  2.0421  1.1526 -0.9836
   67THF     H7  865   0.655   0.617   5.002 -0.8069 -0.0931 -0.6580
   67THF     C8  866   0.693   0.453   5.156 -0.5277 -0.5642  0.3841
   67THF     C9  867   0.611   0.340   5.186  0.3659  0.1226 -0.2269
   67THF    H10  868   0.716   0.528   5.232  0.3282 -1.9718  1.5482
   67THF    H11  869   0.789   0.417   5.121 -1.1348 -1.8801  0.0154
   67THF    H12  870   0.633   0.258   5.117 -1.1697 -0.1791 -0.3981
   67THF    H13  871   0.627   0.292   5.283 -2.0217  1.6434  1.0056
   68THF     O1  872   5.480   3.911   2.675  0.4070 -0.6308 -0.0852
   68THF     C2  873   5.412   3.849   2.560 -0.1348 -0.6295  0.9338
   68THF     C3  874   5.428   3.825   2.778 -0.3662 -0.3554 -0.0459
   68THF     H4  875   5.469   3.890   2.477 -0.4557  1.6106  1.7422
   68THF     H5  876   5.307   3.870   2.541  0.2167 -1.6348 -2.7024
   68THF     H6  877   5.509   3.814   2.850  1.5438  0.8987 -1.8897
   68THF     H7  878   5.344   3.879   2.822 -0.0096  1.5366 -1.5671
   68THF     C8  879   5.382   3.688   2.724 -0.5205 -0.3581  0.2370
   68THF     C9  880   5.420   3.700   2.583 -0.1150 -0.3258  0.7239
   68THF    H10  881   5.275   3.666   2.728 -0.1576 -2.1712  0.5501
   68THF    H11  882   5.444   3.613   2.773  0.0874 -0.1163 -0.1432
   68THF    H12  883   5.521   3.663   2.568  0.1334 -0.4721  2.5321
   68THF    H13  884   5.360   3.635   2.519  0.4528 -2.2670  2.0520
   69THF     O1  885   0.494   2.808   3.845  0.7978  0.6889  0.2388
   69THF     C2  886   0.610   2.727   3.835 -0.6089  0.3844  0.5100
   69THF     C3  887   0.536   2.921   3.919  0.7356 -0.0730 -0.1313
   69THF     H4  888   0.679   2.785   3.773 -1.8854  0.7055 -0.6706
   69THF     H5  889   0.593   2.628   3.793  1.7811  0.3280 -0.4487
   69THF     H6  890   0.591   2.997   3.865 -0.0639  2.2827  2.1630
   69THF     H7  891   0.458   2.980   3.967  0.1586  0.0003 -1.1471
   69THF     C8  892   0.614   2.867   4.030 -0.0344 -0.3471  0.0631
   69THF     C9  893   0.665   2.728   3.974 -0.0977 -0.3679 -0.2262
   69THF    H10  894   0.557   2.848   4.121  0.2950 -2.5552 -0.1333
   69THF    H11  895   0.701   2.926   4.060  0.0398 -0.8736  0.9108
   69THF    H12  896   0.774   2.722   3.971  0.0851  2.1666 -1.2397
   69THF    H13  897   0.638   2.645   4.039  1.3600 -0.9116 -0.2589
   70THF     O1  898   1.276   3.514   3.735 -0.4705  0.1635  0.0831
   70THF     C2  899   1.268   3.517   3.876 -0.4910 -0.0349  0.0141
   70THF     C3  900   1.334   3.632   3.693 -0.3285 -0.9818  0.1606
   70THF     H4  901   1.349   3.471   3.933  0.5605  0.5350 -0.9844
   70THF     H5  902   1.178   3.468   3.913 -1.2053  1.5270  0.4339
   70THF     H6  903   1.440   3.631   3.670 -0.5246 -1.3535 -0.7978
   70THF     H7  904   1.281   3.662   3.602 -2.3830 -1.5444  1.1137
   70THF     C8  905   1.313   3.742   3.800  0.1782  0.4304 -0.1205
   70THF     C9  906   1.258   3.664   3.921  0.7146 -0.1716 -0.8218
   70THF    H10  907   1.228   3.803   3.768 -2.3041 -2.7806 -0.1179
   70THF    H11  908   1.401   3.794   3.838  0.9652 -1.7696  1.1857
   70THF    H12  909   1.332   3.687   3.998 -0.3093  2.1347 -0.4548
   70THF    H13  910   1.160   3.695   3.956  0.8982  1.0385 -1.3011
   71THF     O1  911   0.392   1.094   1.085  0.7719  0.6311 -0.0068
   71THF     C2  912   0.540   1.063   1.098  0.2635  0.0596  0.0181
   71THF     C3  913   0.354   1.118   1.225  0.0455 -0.0930 -0.0079
   71THF     H4  914   0.614   1.142   1.084  0.6234 -0.2769  0.0238
   71THF     H5  915   0.561   0.982   1.028  1.5899 -0.9049  1.4779
   71THF     H6  916   0.320   1.222   1.229  0.0364 -0.0653 -0.6923
   71THF     H7  917   0.265   1.058   1.242 -1.5271  2.2389  0.4614
   71THF     C8  918   0.469   1.084   1.325  0.2692 -0.7291  0.0876
   71THF     C9  919   0.570   1.004   1.244  0.5964 -0.1446  0.6660
   71THF    H10  920   0.437   1.031   1.415 -1.8216  1.3357  0.6543
   71THF    H11  921   0.518   1.169   1.373  0.9492 -1.9301  1.6297
   71THF    H12  922   0.670   1.035   1.274  0.4207  1.2874 -0.1295
   71THF    H13  923   0.545   0.898   1.245  0.3385 -0.1302 -1.1453
   72THF     O1  924   4.888   3.128   2.626 -0.5971 -0.5036 -0.5028
   72THF     C2  925   4.842   3.126   2.502  0.7918 -0.1000  0.5393
   72THF     C3  926   4.841   3.011   2.693  0.1907  0.5390 -0.1479
   72THF     H4  927   4.892   3.196   2.435  0.0871 -1.3256 -1.3330
   72THF     H5  928   4.736   3.152   2.503  1.3774  2.6149  0.8645
   72THF     H6  929   4.900   2.995   2.784 -0.1571 -0.5449 -0.1026
   72THF     H7  930   4.733   3.005   2.708  0.5365 -1.9672  2.1069
   72THF     C8  931   4.875   2.901   2.590 -0.2127  0.9905  0.6284
   72THF     C9  932   4.860   2.980   2.459  0.0350  0.1413 -0.0073
   72THF    H10  933   4.830   2.802   2.597 -1.1187  1.3398  0.0160
   72THF    H11  934   4.982   2.888   2.600 -0.4104 -0.2831  1.3401
   72THF    H12  935   4.938   2.967   2.384 -0.1837  1.5396 -0.5051
   72THF    H13  936   4.767   2.946   2.412  1.2518 -2.2369 -0.8707
   73THF     O1  937   3.292   1.582   3.071  0.4851 -0.0682 -0.4293
   73THF     C2  938   3.270   1.568   3.215  1.0301  0.1654 -0.4262
   73THF     C3  939   3.431   1.625   3.059 -0.2632 -0.5448 -0.5996
   73THF     H4  940   3.317   1.475   3.249  2.5461  1.2455  0.5635
   73THF     H5  941   3.163   1.567   3.236  0.9356 -2.2401 -0.6829
   73THF     H6  942   3.497   1.541   3.079  0.5261 -0.0369 -1.0326
   73THF     H7  943   3.466   1.667   2.965  1.2699 -0.1135  0.1360
   73THF     C8  944   3.446   1.732   3.167  0.0275 -0.1348  0.4987
   73THF     C9  945   3.347   1.687   3.275  0.4564 -0.4088 -0.6447
   73THF    H10  946   3.414   1.829   3.129 -1.0855 -0.7284 -0.1398
   73THF    H11  947   3.548   1.738   3.203  0.3311  0.5458 -0.4292
   73THF    H12  948   3.396   1.655   3.367  1.3355 -2.9547 -1.9164
   73THF    H13  949   3.276   1.759   3.317  1.7462  0.7651 -0.3867
   74THF     O1  950   2.648   2.892   2.591 -0.5634 -0.1709 -0.5102
   74THF     C2  951   2.746   2.800   2.539 -0.4758  1.0303 -0.0820
   74THF     C3  952   2.557   2.822   2.676 -0.2585 -0.0426  0.5854
   74THF     H4  953   2.833   2.816   2.602 -1.6336  0.7761  1.6602
   74THF     H5  954   2.773   2.819   2.435 -0.8372 -0.1596 -0.4159
   74THF     H6  955   2.603   2.819   2.774  0.6635  0.0083  0.1586
   74THF     H7  956   2.454   2.858   2.689 -0.5305 -0.5093 -0.2303
   74THF     C8  957   2.557   2.684   2.615 -0.6499  0.1093  0.1187
   74THF     C9  958   2.695   2.662   2.560 -0.3247  0.7920  0.7404
   74THF    H10  959   2.483   2.684   2.535 -0.5044  0.6956 -0.0213
   74THF    H11  960   2.514   2.611   2.683  2.4876 -1.7127  0.2781
   74THF    H12  961   2.756   2.612   2.635  0.5273  1.1377  0.2940
   74THF    H13  962   2.703   2.602   2.469 -0.2487  0.4538  0.9706
   75THF     O1  963   1.331   2.350   1.265 -0.3659  0.6525  0.0736
   75THF     C2  964   1.438   2.258   1.256 -0.1167  0.1593 -0.1216
   75THF     C3  965   1.252   2.327   1.152 -0.0742  0.2566  0.2743
   75THF     H4  966   1.391   2.161   1.273  1.9198 -0.6964  0.8655
   75THF     H5  967   1.511   2.274   1.335 -1.5553  1.4289  1.0151
   75THF     H6  968   1.188   2.240   1.166  0.4269 -0.1400  0.1462
   75THF     H7  969   1.185   2.409   1.128  1.1045  1.0040 -0.5928
   75THF     C8  970   1.362   2.329   1.042 -0.2880  0.2923 -0.4410
   75THF     C9  971   1.487   2.269   1.111 -0.1010 -0.0009  0.2573
   75THF    H10  972   1.397   2.424   1.003 -1.5237 -0.3062 -3.3026
   75THF    H11  973   1.332   2.269   0.956 -1.3664  0.9998 -0.5843
   75THF    H12  974   1.520   2.176   1.066 -0.4024 -0.8959  1.8088
   75THF    H13  975   1.577   2.330   1.112 -0.4247  0.4743  0.9537
   76THF     O1  976   1.829   4.896   3.960  0.0026  0.5975  0.0326
   76THF     C2  977   1.861   4.802   4.064  0.3948 -0.1140 -0.4145
   76THF     C3  978   1.697   4.939   3.975 -0.5755  0.0079 -0.2023
   76THF     H4  979   1.948   4.843   4.115 -0.4051  1.8367 -0.5560
   76THF     H5  980   1.885   4.706   4.017 -0.9343 -0.5494 -0.2485
   76THF     H6  981   1.672   5.039   3.937 -0.4163  0.6191  1.2524
   76THF     H7  982   1.624   4.872   3.929  0.2971 -1.1224  0.0176
   76THF     C8  983   1.677   4.929   4.121 -0.2391 -0.0782 -0.4872
   76THF     C9  984   1.746   4.803   4.161 -0.2839  0.0389 -0.0457
   76THF    H10  985   1.570   4.923   4.141  0.0567 -1.4090  0.7759
   76THF    H11  986   1.712   5.019   4.171  0.4801 -0.2739 -0.6340
   76THF    H12  987   1.774   4.803   4.266  1.4820  0.8419 -0.4634
   76THF    H13  988   1.689   4.712   4.142 -1.6618  1.3591 -2.7729
   77THF     O1  989   0.724   1.462   4.015 -0.2889 -0.3750  0.0181
   77THF     C2  990   0.688   1.423   4.152 -0.2958 -0.6248 -0.5972
   77THF     C3  991   0.601   1.515   3.962 -0.0631 -0.0031  0.1805
   77THF     H4  992   0.773   1.433   4.220 -0.0812  1.9434 -1.1282
   77THF     H5  993   0.654   1.321   4.171 -1.6639 -0.4902 -2.1556
   77THF     H6  994   0.612   1.571   3.869  1.6913 -1.4688 -0.5652
   77THF     H7  995   0.526   1.436   3.951 -1.4217  1.3286 -0.4401
   77THF     C8  996   0.553   1.605   4.072 -0.5364 -0.0892  0.1382
   77THF     C9  997   0.574   1.522   4.193 -0.1399  0.9547  0.0850
   77THF    H10  998   0.450   1.626   4.041 -0.2093 -2.1719 -2.7337
   77THF    H11  999   0.621   1.690   4.077  0.6325 -0.9935  0.1104
   77THF    H12 1000   0.602   1.576   4.284  1.8497  0.9633 -0.4874
   77THF    H13 1001   0.489   1.462   4.225  0.6302 -0.3241 -0.1974
   78THF     O1 1002   3.997   4.594   4.320  0.0002 -0.1752 -0.3436
   78THF     C2 1003   3.918   4.570   4.437 -0.2689  0.4089 -0.0704
   78THF     C3 1004   4.024   4.734   4.330  0.6789  0.7345 -0.3668
   78THF     H4 1005   3.921   4.464   4.464 -0.9988  0.6393  1.0017
   78THF     H5 1006   3.814   4.595   4.414 -0.1615  0.8775 -0.0450
   78THF     H6 1007   4.125   4.754   4.295  1.0231 -2.2535 -1.3878
   78THF     H7 1008   3.935   4.784   4.292 -0.4501  2.0146  3.4508
   78THF     C8 1009   4.039   4.776   4.478  0.4625 -0.1451  0.6591
   78THF     C9 1010   3.978   4.653   4.548 -0.1936 -0.0964  0.3101
   78THF    H10 1011   3.990   4.869   4.504  0.0506  0.0658 -0.7780
   78THF    H11 1012   4.145   4.780   4.499  0.9160 -1.0487 -1.2482
   78THF    H12 1013   4.060   4.598   4.594  0.4389 -0.5813 -1.3091
   78THF    H13 1014   3.904   4.670   4.627  0.7001  0.8893  0.9658
   79THF     O1 1015   0.446   2.963   0.381 -0.2911  0.5326  0.1533
   79THF     C2 1016   0.433   3.098   0.350  0.0748 -0.5208 -0.4369
   79THF     C3 1017   0.438   2.954   0.525 -0.3595  0.1176  0.1018
   79THF     H4 1018   0.419   3.118   0.244  0.9549 -0.0484 -0.4756
   79THF     H5 1019   0.524   3.148   0.383  1.5832 -3.0428 -0.5667
   79THF     H6 1020   0.419   2.860   0.575 -1.8617 -0.0886 -0.7828
   79THF     H7 1021   0.528   2.991   0.574  0.7440 -0.5930 -1.2977
   79THF     C8 1022   0.328   3.052   0.564  0.3146 -0.2989 -0.8592
   79THF     C9 1023   0.308   3.128   0.435  0.0406 -0.4014  0.1653
   79THF    H10 1024   0.353   3.112   0.651 -1.0461 -0.5083 -0.3010
   79THF    H11 1025   0.238   2.995   0.586 -1.2194  1.5360 -2.0401
   79THF    H12 1026   0.224   3.080   0.385 -0.1448 -1.4886  1.4388
   79THF    H13 1027   0.286   3.232   0.456 -1.8776 -0.7339  0.0237
   80THF     O1 1028   3.780   3.422   3.794 -0.1354 -0.0752  0.1628
   80THF     C2 1029   3.716   3.547   3.807  0.7034 -0.0347  0.3910
   80THF     C3 1030   3.707   3.327   3.866  0.0560 -0.2574 -0.9663
   80THF     H4 1031   3.703   3.608   3.717 -0.5097  1.0338  1.2427
   80THF     H5 1032   3.772   3.615   3.870 -0.4006  0.7140  0.5966
   80THF     H6 1033   3.724   3.226   3.829  0.9340 -0.8035  0.7982
   80THF     H7 1034   3.741   3.333   3.969 -0.3420  1.3763 -0.8990
   80THF     C8 1035   3.564   3.370   3.845 -0.1776  0.0422 -0.4792
   80THF     C9 1036   3.578   3.517   3.863  0.2502  0.0513 -0.5088
   80THF    H10 1037   3.501   3.320   3.919 -0.2450  1.8059  0.7125
   80THF    H11 1038   3.525   3.352   3.745 -0.5490 -0.1337 -0.3035
   80THF    H12 1039   3.488   3.565   3.824 -0.3105  0.5110  1.2580
   80THF    H13 1040   3.590   3.555   3.965  0.1066  0.9252 -0.8089
   81THF     O1 1041   4.491   3.471   2.481  0.9888 -0.1111  0.3241
   81THF     C2 1042   4.450   3.593   2.421 -0.2635 -0.1432 -0.2320
   81THF     C3 1043   4.413   3.370   2.413  0.2114 -0.0100 -0.1501
   81THF     H4 1044   4.529   3.667   2.437 -1.2853  0.8464  0.3355
   81THF     H5 1045   4.351   3.624   2.455  0.3950  3.7721 -1.4383
   81THF     H6 1046   4.463   3.275   2.434  4.0043  2.2078  2.2806
   81THF     H7 1047   4.309   3.373   2.443 -0.2798  0.2843 -1.8127
   81THF     C8 1048   4.413   3.412   2.267 -0.4319 -0.1072 -0.4021
   81THF     C9 1049   4.433   3.559   2.271 -0.9369  0.2963 -0.5125
   81THF    H10 1050   4.333   3.382   2.200 -0.5122  1.4564 -1.0666
   81THF    H11 1051   4.499   3.368   2.217  0.4612  0.0309  0.9612
   81THF    H12 1052   4.524   3.583   2.216  0.6524  3.0923  2.9266
   81THF    H13 1053   4.363   3.625   2.219  0.4934  1.5697 -0.9068
   82THF     O1 1054   0.971   5.224   3.110  0.1707  0.8160 -0.6255
   82THF     C2 1055   1.026   5.355   3.091  0.4538 -0.2193 -0.3107
   82THF     C3 1056   0.997   5.159   2.982  0.7008 -0.5524 -0.0507
   82THF     H4 1057   1.046   5.406   3.185  2.1567 -1.0226 -0.1929
   82THF     H5 1058   0.963   5.413   3.024 -1.7111 -1.8229  0.2132
   82THF     H6 1059   0.963   5.056   2.994  1.1607 -0.5814  1.2614
   82THF     H7 1060   0.943   5.200   2.897 -0.0920 -0.4465  0.4902
   82THF     C8 1061   1.146   5.185   2.956  0.3154  0.4078 -0.9229
   82THF     C9 1062   1.166   5.317   3.035  1.0311 -0.4355  0.0034
   82THF    H10 1063   1.165   5.196   2.850  0.1233 -0.0070 -1.0024
   82THF    H11 1064   1.198   5.103   3.005 -2.5479  0.5055  2.7246
   82THF    H12 1065   1.235   5.309   3.118  0.9477 -1.6489 -0.0175
   82THF    H13 1066   1.205   5.395   2.969 -1.1112 -1.1037 -2.1818
   83THF     O1 1067   3.804   1.464   1.582 -0.5912 -0.2731  0.0017
   83THF     C2 1068   3.756   1.379   1.694  0.1632  0.0446  0.5498
   83THF     C3 1069   3.926   1.411   1.534  0.1608  0.2383  0.3770
   83THF     H4 1070   3.654   1.349   1.669  0.6811 -0.4576 -1.0706
   83THF     H5 1071   3.748   1.434   1.788  0.2524 -1.7515  1.6628
   83THF     H6 1072   3.954   1.421   1.429 -3.1313 -1.3193 -0.7786
   83THF     H7 1073   4.005   1.453   1.595  0.7425 -0.3429  0.0330
   83THF     C8 1074   3.927   1.256   1.565  0.0089  0.2286  0.5855
   83THF     C9 1075   3.841   1.247   1.685  0.3347 -0.0266  0.7417
   83THF    H10 1076   4.027   1.215   1.571 -0.7258 -1.7643  0.1024
   83THF    H11 1077   3.883   1.203   1.480 -1.6105  0.7903  1.0188
   83THF    H12 1078   3.787   1.153   1.680  0.7713 -0.2793  0.7355
   83THF    H13 1079   3.917   1.242   1.763  3.3158 -1.2664 -1.9665
   84THF     O1 1080   4.908   3.626   4.650 -0.8804 -0.0839 -0.6957
   84THF     C2 1081   4.802   3.717   4.641  0.6613  0.1658  0.2579
   84THF     C3 1082   4.846   3.498   4.650  0.3129 -0.5300 -0.6619
   84THF     H4 1083   4.765   3.724   4.539  0.4456 -0.8561  0.2566
   84THF     H5 1084   4.834   3.813   4.681  2.0517 -0.2184  0.1256
   84THF     H6 1085   4.804   3.460   4.558 -0.9408  0.8614 -0.6860
   84THF     H7 1086   4.914   3.418   4.680  1.3201  1.2180  2.1859
   84THF     C8 1087   4.740   3.514   4.759  0.3228  0.4894  0.8935
   84THF     C9 1088   4.686   3.653   4.729 -0.5483  0.2857  0.3033
   84THF    H10 1089   4.780   3.510   4.860  1.0760  0.1987  0.5985
   84THF    H11 1090   4.669   3.433   4.771 -0.1054  0.5827 -0.7788
   84THF    H12 1091   4.585   3.641   4.689  0.5776 -1.1540 -2.3566
   84THF    H13 1092   4.670   3.709   4.821 -2.4648 -1.2502  0.9931
   85THF     O1 1093   1.671   4.570   3.647 -0.4142 -0.1223  0.0862
   85THF     C2 1094   1.584   4.461   3.646 -0.1051  0.0519  0.7476
   85THF     C3 1095   1.609   4.647   3.744  0.0115 -0.1119 -0.4248
   85THF     H4 1096   1.599   4.392   3.729  1.1707 -2.8807 -1.7225
   85THF     H5 1097   1.588   4.399   3.556  0.9796  1.5609 -0.2998
   85THF     H6 1098   1.641   4.613   3.843 -1.8931  0.2853  0.3721
   85THF     H7 1099   1.650   4.748   3.731 -1.3974  0.4742 -0.5218
   85THF     C8 1100   1.457   4.653   3.728 -0.1201 -0.4767  0.1776
   85THF     C9 1101   1.439   4.519   3.660 -0.0569 -0.4355  0.1055
   85THF    H10 1102   1.434   4.736   3.661 -0.3199 -0.2143  0.5656
   85THF    H11 1103   1.403   4.663   3.822  0.9576  0.3839  0.7162
   85THF    H12 1104   1.373   4.449   3.712 -2.1002  0.4926 -1.1281
   85THF    H13 1105   1.391   4.537   3.564 -1.4280 -0.2934  0.7897
   86THF     O1 1106   2.337   4.785   1.559  0.0271  0.4490 -0.4495
   86THF     C2 1107   2.461   4.786   1.633  0.5171  0.1942  0.6073
   86THF     C3 1108   2.360   4.687   1.459  0.8128  0.0572 -0.5912
   86THF     H4 1109   2.470   4.698   1.697 -2.5848  0.4299  1.5445
   86THF     H5 1110   2.470   4.872   1.699 -2.0980  0.5429  0.5876
   86THF     H6 1111   2.344   4.594   1.513  2.7978 -0.1245 -0.2321
   86THF     H7 1112   2.297   4.699   1.372  1.3349  2.9597 -0.6489
   86THF     C8 1113   2.502   4.711   1.407  0.1233 -0.4183  0.0309
   86THF     C9 1114   2.565   4.778   1.525  0.7311 -0.1768  0.7435
   86THF    H10 1115   2.503   4.772   1.317  1.1111 -0.5321 -0.0486
   86THF    H11 1116   2.561   4.623   1.384 -0.8097 -0.8689 -0.6686
   86THF    H12 1117   2.649   4.728   1.572 -0.2575 -2.3260  0.3601
   86THF    H13 1118   2.584   4.881   1.495 -0.3181 -0.3499 -0.5866
   87THF     O1 1119   4.694   3.528   1.721 -0.2377 -0.2883 -0.6319
   87THF     C2 1120   4.817   3.547   1.655 -0.8745 -0.0545  1.0146
   87THF     C3 1121   4.644   3.651   1.775 -0.4816 -0.2018  0.3217
   87THF     H4 1122   4.845   3.479   1.575 -0.1398  1.1507  0.2264
   87THF     H5 1123   4.893   3.546   1.734 -0.4417  2.1484  0.6944
   87THF     H6 1124   4.535   3.645   1.771 -0.3947 -1.5853 -0.6064
   87THF     H7 1125   4.673   3.654   1.880 -2.5484 -2.0788  1.0482
   87THF     C8 1126   4.701   3.765   1.685 -0.0108  0.2655  0.2537
   87THF     C9 1127   4.794   3.684   1.593  0.5957  0.3999  0.3582
   87THF    H10 1128   4.752   3.843   1.740  0.7789  1.0038 -1.4542
   87THF    H11 1129   4.626   3.821   1.629 -2.3247 -1.7681  1.1436
   87THF    H12 1130   4.741   3.689   1.498 -2.6004  2.9334  2.0486
   87THF    H13 1131   4.893   3.728   1.583  0.3099  0.7262 -1.1379
   88THF     O1 1132   4.803   0.347   2.138  0.7506 -0.1839  0.0370
   88THF     C2 1133   4.806   0.284   2.011 -0.9486 -0.0581  0.9447
   88THF     C3 1134   4.878   0.276   2.227 -0.1744  0.5093 -0.1522
   88THF     H4 1135   4.798   0.355   1.929 -1.5087  0.9343  1.8448
   88THF     H5 1136   4.720   0.220   1.991  1.4342 -3.0180 -0.7516
   88THF     H6 1137   4.937   0.347   2.286  0.6103  1.2122 -1.7288
   88THF     H7 1138   4.810   0.213   2.284 -1.8147  0.9969 -1.5035
   88THF     C8 1139   4.974   0.185   2.151  0.0006  0.1486  0.5572
   88THF     C9 1140   4.944   0.204   2.008 -0.5924 -0.2714  0.4321
   88THF    H10 1141   4.946   0.086   2.187  2.3533 -0.6223  0.4608
   88THF    H11 1142   5.077   0.203   2.181 -0.4366 -0.3084  2.4596
   88THF    H12 1143   5.022   0.265   1.964 -1.4711 -0.4597 -1.4756
   88THF    H13 1144   4.927   0.113   1.951  1.4047 -1.9147  2.2504
   89THF     O1 1145   4.416   0.723   1.878  0.2021 -0.1769 -0.3228
   89THF     C2 1146   4.364   0.802   1.982 -1.3322  0.2551 -0.4655
   89THF     C3 1147   4.550   0.736   1.865  0.1903 -1.4953  0.0638
   89THF     H4 1148   4.385   0.759   2.080 -1.1924  2.1440  0.3909
   89THF     H5 1149   4.258   0.817   1.961 -1.1924  0.7541 -0.8460
   89THF     H6 1150   4.609   0.684   1.940  0.2345 -3.3089 -1.1636
   89THF     H7 1151   4.581   0.693   1.770 -4.1697 -0.6610 -2.0185
   89THF     C8 1152   4.559   0.888   1.871 -0.3741  0.7827 -0.5175
   89THF     C9 1153   4.444   0.934   1.962 -0.0224  0.1886  0.7185
   89THF    H10 1154   4.542   0.923   1.769 -0.1492  2.2023 -0.1019
   89THF    H11 1155   4.660   0.921   1.893 -0.2521  0.7298 -1.0068
   89THF    H12 1156   4.490   0.974   2.053 -1.2629 -0.5288  1.6985
   89THF    H13 1157   4.375   1.005   1.917  0.3246 -1.0612 -1.9499
   90THF     O1 1158   1.373   4.475   4.012  0.2058 -0.3812 -0.3108
   90THF     C2 1159   1.409   4.378   4.102  0.2914 -0.0456 -0.6180
   90THF     C3 1160   1.239   4.514   4.037  0.4141  0.6172 -0.0236
   90THF     H4 1161   1.516   4.379   4.118  0.0742 -2.9421  1.8566
   90THF     H5 1162   1.378   4.283   4.058 -0.7485  0.2672 -0.5873
   90THF     H6 1163   1.214   4.618   4.018  0.0744  0.4642 -0.4354
   90THF     H7 1164   1.182   4.451   3.969 -0.3111 -0.6180  1.6507
   90THF     C8 1165   1.201   4.470   4.177 -0.5718  0.2737 -0.6486
   90THF     C9 1166   1.338   4.416   4.233  0.1919  0.1746  0.2267
   90THF    H10 1167   1.137   4.383   4.170 -1.0178  0.3747  1.6686
   90THF    H11 1168   1.156   4.549   4.237 -0.9693  0.3692 -1.0658
   90THF    H12 1169   1.380   4.503   4.284 -3.1351  1.3674  1.2018
   90THF    H13 1170   1.314   4.328   4.293  0.1812 -0.0298 -0.0778
   91THF     O1 1171   4.093   3.579   2.359  0.2191  0.1480  0.2748
   91THF     C2 1172   4.008   3.678   2.421  0.1899  1.1904  0.1604
   91THF     C3 1173   4.050   3.567   2.224  0.4824 -0.4975  0.5227
   91THF     H4 1174   4.068   3.741   2.487  1.5590 -0.8824  0.9959
   91THF     H5 1175   3.930   3.632   2.482 -1.2936 -0.3927 -2.7384
   91THF     H6 1176   4.133   3.523   2.170  1.9611  0.8072  1.6111
   91THF     H7 1177   3.953   3.518   2.214 -0.2314  1.1529 -1.2979
   91THF     C8 1178   4.037   3.716   2.180  0.5106 -0.0960 -0.1697
   91THF     C9 1179   3.959   3.766   2.296  0.1752  0.0241  0.0605
   91THF    H10 1180   3.984   3.741   2.088 -0.6171 -1.6537  0.0189
   91THF    H11 1181   4.136   3.762   2.174  1.0060 -0.8559  1.6930
   91THF    H12 1182   3.983   3.872   2.308  1.4117 -0.4732  2.8480
   91THF    H13 1183   3.853   3.749   2.279  0.2406 -0.8028  0.4479
   92THF     O1 1184   1.800   5.267   3.015  0.1452  0.4347 -0.2604
   92THF     C2 1185   1.751   5.387   2.953 -0.2864  0.0934 -0.2673
   92THF     C3 1186   1.695   5.178   3.024 -0.2996  0.2139 -0.2366
   92THF     H4 1187   1.763   5.378   2.845 -0.4939 -0.4209 -0.2483
   92THF     H5 1188   1.802   5.479   2.981 -0.6918 -0.4989  2.7789
   92THF     H6 1189   1.725   5.088   2.970 -1.1104 -0.8566  1.0635
   92THF     H7 1190   1.688   5.152   3.129  1.2201  2.3864  0.4730
   92THF     C8 1191   1.564   5.247   2.980 -0.0076  0.6145 -0.1432
   92THF     C9 1192   1.605   5.391   2.988 -0.5454 -0.5293 -0.6792
   92THF    H10 1193   1.478   5.223   3.043 -0.0593 -3.3071 -1.4390
   92THF    H11 1194   1.546   5.219   2.875  0.9917 -1.2621  0.1464
   92THF    H12 1195   1.547   5.443   2.912  0.9122 -0.4448 -1.7827
   92THF    H13 1196   1.587   5.436   3.086 -2.8724  1.2939 -1.8243
   93THF     O1 1197   1.749   2.816   1.240 -0.4771 -0.3593 -0.2092
   93THF     C2 1198   1.678   2.719   1.171  0.1349  0.9508 -0.2771
   93THF     C3 1199   1.777   2.758   1.364  0.0516  0.2597 -0.2875
   93THF     H4 1200   1.725   2.709   1.073 -0.8998  0.1842 -0.7110
   93THF     H5 1201   1.572   2.738   1.156 -0.2202  0.3694  1.3035
   93THF     H6 1202   1.854   2.811   1.420  0.2081 -0.8300  0.5701
   93THF     H7 1203   1.685   2.759   1.423 -0.0373  0.4635 -0.4266
   93THF     C8 1204   1.824   2.623   1.323  0.0986  0.3381 -0.1514
   93THF     C9 1205   1.707   2.586   1.239 -0.1244 -0.6011  0.4084
   93THF    H10 1206   1.838   2.554   1.406 -1.8372  0.3825  0.2585
   93THF    H11 1207   1.923   2.626   1.277  1.3896  2.3506  2.5149
   93THF    H12 1208   1.724   2.502   1.172  0.6503 -1.4729  1.6642
   93THF    H13 1209   1.615   2.557   1.289 -1.2957 -1.8951 -2.3011
   94THF     O1 1210   0.995   1.447   1.439  0.3072  0.7357 -0.4213
   94THF     C2 1211   0.863   1.479   1.393 -0.3178 -0.0077 -0.1997
   94THF     C3 1212   1.022   1.319   1.381 -1.2700 -0.0331  0.4856
   94THF     H4 1213   0.883   1.514   1.292  2.0942  0.0808  0.2548
   94THF     H5 1214   0.797   1.553   1.437 -1.7917 -1.0463 -0.6055
   94THF     H6 1215   1.077   1.334   1.288 -0.3045  0.9399  1.1848
   94THF     H7 1216   1.096   1.270   1.445  3.2527  2.1957 -2.4910
   94THF     C8 1217   0.895   1.239   1.379  0.5568  0.2250 -0.5756
   94THF     C9 1218   0.785   1.347   1.373  0.6677  0.6696 -0.0895
   94THF    H10 1219   0.880   1.195   1.478  1.8248  0.8290 -0.0785
   94THF    H11 1220   0.876   1.164   1.303 -0.5438 -1.5687  1.3683
   94THF    H12 1221   0.742   1.333   1.274 -1.2393  1.2871  0.6139
   94THF    H13 1222   0.705   1.319   1.442  0.9683 -1.8223 -0.6507
   95THF     O1 1223   5.368   4.542   0.726 -0.2768  0.4593  0.1606
   95THF     C2 1224   5.312   4.488   0.847  0.2083  0.7345  0.4474
   95THF     C3 1225   5.274   4.530   0.625 -0.9265  0.7490 -0.4378
   95THF     H4 1226   5.259   4.560   0.909 -0.6949 -1.0856  1.8762
   95THF     H5 1227   5.367   4.439   0.927  1.2827 -0.7642 -1.1105
   95THF     H6 1228   5.186   4.593   0.638  0.0200  1.8404  1.0279
   95THF     H7 1229   5.317   4.551   0.527 -1.0916 -2.6553 -1.3551
   95THF     C8 1230   5.231   4.386   0.643  0.0502  0.2416 -0.5383
   95THF     C9 1231   5.222   4.371   0.789 -0.6382 -0.3780 -0.2080
   95THF    H10 1232   5.310   4.317   0.611  2.4885  1.9956  1.2839
   95THF    H11 1233   5.138   4.365   0.590 -1.2124  0.3924  1.5171
   95THF    H12 1234   5.118   4.387   0.816 -0.6589 -1.0210  0.0981
   95THF    H13 1235   5.251   4.274   0.829 -0.7283  0.1063  1.0808
   96THF     O1 1236   2.230   3.797   3.112 -0.1192 -0.4279  0.0060
   96THF     C2 1237   2.223   3.705   3.009  0.0773 -0.0436 -0.4627
   96THF     C3 1238   2.152   3.744   3.214  0.9427 -0.3649  0.0883
   96THF     H4 1239   2.277   3.614   3.033 -0.2575  0.0077  0.5173
   96THF     H5 1240   2.256   3.744   2.912  0.0474 -2.7762 -1.6710
   96THF     H6 1241   2.202   3.673   3.280 -0.3644 -1.6059 -0.1913
   96THF     H7 1242   2.121   3.828   3.275  0.1409 -0.1592 -0.5782
   96THF     C8 1243   2.029   3.692   3.139  0.2627  0.4277 -0.2359
   96THF     C9 1244   2.073   3.674   3.004  0.3007  0.2616  0.4546
   96THF    H10 1245   1.961   3.777   3.141  0.3043  0.4445  0.5976
   96THF    H11 1246   1.986   3.602   3.183 -1.8418  1.0064 -0.9623
   96THF    H12 1247   2.059   3.572   2.967  1.1906 -0.9626  3.2091
   96THF    H13 1248   2.020   3.746   2.942  1.9101  0.0256 -1.2734
   97THF     O1 1249   4.241   3.637   2.846  0.3892  0.4131 -0.1953
   97THF     C2 1250   4.261   3.776   2.828 -0.3871 -0.2760  0.4804
   97THF     C3 1251   4.361   3.574   2.790  0.2435 -0.2090 -0.3234
   97THF     H4 1252   4.199   3.841   2.889 -0.8022  1.0345 -1.2343
   97THF     H5 1253   4.224   3.796   2.727 -0.3632  0.6700  0.6438
   97THF     H6 1254   4.369   3.470   2.822 -1.6547 -0.0675  0.7585
   97THF     H7 1255   4.355   3.571   2.682 -0.8004  0.9697 -0.3255
   97THF     C8 1256   4.480   3.663   2.828 -0.0834  0.3218  0.0640
   97THF     C9 1257   4.408   3.796   2.851 -0.1404  0.2031  0.2444
   97THF    H10 1258   4.560   3.671   2.755  0.0377  1.3992  0.3039
   97THF    H11 1259   4.521   3.620   2.919 -1.4631 -1.9124 -0.2736
   97THF    H12 1260   4.410   3.837   2.952 -2.0667  1.0791 -0.0206
   97THF    H13 1261   4.447   3.879   2.793 -3.3172  1.5873 -0.1486
   98THF     O1 1262   0.404   1.903   0.453  0.0155 -0.1002 -0.1974
   98THF     C2 1263   0.458   1.773   0.454  0.6752 -0.1287  0.3855
   98THF     C3 1264   0.340   1.917   0.580  0.2154 -0.1109 -0.2786
   98THF     H4 1265   0.559   1.775   0.495  0.2151  2.8282  1.6187
   98THF     H5 1266   0.457   1.734   0.352  1.3411  1.9420 -0.4832
   98THF     H6 1267   0.423   1.939   0.648 -0.2303  1.4796 -0.1970
   98THF     H7 1268   0.282   2.009   0.590 -0.0918 -0.5098  2.8434
   98THF     C8 1269   0.283   1.776   0.632 -0.2751 -0.0720  0.3746
   98THF     C9 1270   0.374   1.686   0.545  0.1351 -0.1129 -0.1430
   98THF    H10 1271   0.183   1.777   0.589  0.3017  0.1278 -0.9891
   98THF    H11 1272   0.277   1.758   0.740 -0.9010  1.0971  0.5537
   98THF    H12 1273   0.440   1.626   0.609  0.4138 -0.4771 -0.7614
   98THF    H13 1274   0.313   1.610   0.496  1.9806 -2.7802  1.4352
   99THF     O1 1275   1.156   0.955   0.987 -0.0605 -0.7284 -0.4461
   99THF     C2 1276   1.231   0.857   1.055  0.0568 -0.1051  0.0944
   99THF     C3 1277   1.044   0.984   1.070 -0.5544 -0.8554  0.0166
   99THF     H4 1278   1.339   0.869   1.040 -0.1188  0.0879 -1.1729
   99THF     H5 1279   1.189   0.760   1.026  3.0645 -1.2521 -0.9245
   99THF     H6 1280   1.000   1.080   1.044  0.5595  0.0636  1.3697
   99THF     H7 1281   0.974   0.901   1.061  0.4456 -1.6343 -0.8279
   99THF     C8 1282   1.112   0.989   1.209 -0.1971 -0.2196  0.1090
   99THF     C9 1283   1.200   0.868   1.206  0.7372 -0.4693 -0.1588
   99THF    H10 1284   1.029   0.990   1.279  0.1397 -0.1293  0.5114
   99THF    H11 1285   1.179   1.073   1.224 -1.0447  0.7408 -1.2371
   99THF    H12 1286   1.288   0.880   1.270  1.0994 -3.1140 -0.0682
   99THF    H13 1287   1.159   0.774   1.242  1.0325 -0.9788 -1.1344
  100THF     O1 1288   4.938   1.817   3.947 -0.6421 -0.5427 -1.1052
  100THF     C2 1289   5.070   1.822   3.991 -0.3600  0.0040  0.4694
  100THF     C3 1290   4.921   1.701   3.863  0.1897  0.1093 -0.5519
  100THF     H4 1291   5.085   1.881   4.081 -0.6306 -1.2729  1.3838
  100THF     H5 1292   5.125   1.883   3.920 -0.0879 -2.6140 -1.7402
  100THF     H6 1293   4.814   1.681   3.860 -0.1080  1.5967 -0.9000
  100THF     H7 1294   4.957   1.716   3.762  0.0899 -0.8848 -0.7447
  100THF     C8 1295   5.006   1.591   3.927 -0.1682 -0.6375 -0.5003
  100THF     C9 1296   5.114   1.668   3.996 -0.1646  0.5591 -0.0053
  100THF    H10 1297   5.044   1.520   3.854  0.8473  0.1000 -0.7085
  100THF    H11 1298   4.938   1.525   3.981 -0.7741 -0.8756 -1.5194
  100THF    H12 1299   5.124   1.637   4.100  0.9826  0.1484 -0.2250
  100THF    H13 1300   5.203   1.657   3.935  0.4138 -1.8637  1.1835
  101THF     O1 1301   3.980   0.052   4.681  0.2113 -0.1448  0.0529
  101THF     C2 1302   3.863  -0.005   4.739  0.0718  0.1423  0.2806
  101THF     C3 1303   4.010  -0.023   4.565 -0.1999  0.3156 -0.3872
  101THF     H4 1304   3.782   0.033   4.677 -0.7851 -1.3138  0.4493
  101THF     H5 1305   3.840   0.030   4.839 -0.2552  1.1554 -0.1392
  101THF     H6 1306   3.987   0.023   4.468  1.1053 -0.9382 -1.3267
  101THF     H7 1307   4.117  -0.043   4.570 -0.2414 -0.4460 -1.8192
  101THF     C8 1308   3.936  -0.156   4.578  0.0751 -0.0214  0.1727
  101THF     C9 1309   3.876  -0.157   4.718 -0.4765 -0.3369  0.2564
  101THF    H10 1310   3.999  -0.241   4.553 -1.8274 -0.7198 -2.7298
  101THF    H11 1311   3.857  -0.157   4.503 -0.2365  1.0412  0.4607
  101THF    H12 1312   3.775  -0.196   4.732 -1.2105  0.5942 -1.9561
  101THF    H13 1313   3.938  -0.205   4.793  0.3708  0.9529  0.4054
  102THF     O1 1314   3.469   4.266   1.740 -0.0088 -0.2082 -0.4859
  102THF     C2 1315   3.417   4.308   1.612 -0.4540 -0.3501 -0.4738
  102THF     C3 1316   3.585   4.187   1.719  0.0664 -0.3149 -0.5472
  102THF     H4 1317   3.407   4.417   1.608 -2.1108 -0.4991 -1.8220
  102THF     H5 1318   3.312   4.278   1.605 -0.1438 -1.8788  0.7967
  102THF     H6 1319   3.661   4.201   1.796  0.0982 -0.1704 -0.6042
  102THF     H7 1320   3.562   4.081   1.712  1.8184 -0.7152 -0.7398
  102THF     C8 1321   3.638   4.236   1.582 -0.1149 -0.1981 -0.0933
  102THF     C9 1322   3.514   4.265   1.504 -0.1709  0.2762 -0.5439
  102THF    H10 1323   3.697   4.163   1.527 -1.0213 -1.0475  0.0311
  102THF    H11 1324   3.697   4.327   1.593  1.0335 -1.1958  2.9170
  102THF    H12 1325   3.530   4.337   1.425  2.0771  0.3758 -0.0699
  102THF    H13 1326   3.477   4.169   1.467 -1.0704 -0.4190  1.9588
  103THF     O1 1327   4.366   2.668   4.356  0.5368 -0.0565  0.1633
  103THF     C2 1328   4.232   2.717   4.374 -0.0099  0.6731 -0.6467
  103THF     C3 1329   4.387   2.659   4.211 -0.7208 -0.2845  0.4148
  103THF     H4 1330   4.235   2.823   4.351 -0.3298  1.0931  1.0717
  103THF     H5 1331   4.231   2.698   4.482 -1.8538  2.0097 -0.3836
  103THF     H6 1332   4.412   2.756   4.170 -2.9537 -0.9883 -2.9523
  103THF     H7 1333   4.458   2.578   4.193  0.2360  0.2739  1.5053
  103THF     C8 1334   4.244   2.632   4.158 -0.2086 -0.1977  0.3851
  103THF     C9 1335   4.154   2.626   4.281 -0.0687 -0.5137 -0.7450
  103THF    H10 1336   4.245   2.541   4.099  0.2350 -0.2132  0.4170
  103THF    H11 1337   4.220   2.719   4.097  0.6732 -0.4951 -0.4135
  103THF    H12 1338   4.053   2.667   4.274 -0.2554 -0.4862  1.3892
  103THF    H13 1339   4.134   2.525   4.315 -0.7092  0.0517  0.6420
  104THF     O1 1340   5.009   4.179   2.255  0.0114 -0.3179 -0.2388
  104THF     C2 1341   4.912   4.079   2.280  0.5023 -0.1082 -0.3532
  104THF     C3 1342   5.137   4.120   2.281  0.0110 -0.2116 -0.3128
  104THF     H4 1343   4.895   4.014   2.194  2.1288 -2.9326  1.2929
  104THF     H5 1344   4.821   4.137   2.296  0.2467 -1.1951  2.8527
  104THF     H6 1345   5.176   4.081   2.188 -1.0389 -2.0668 -0.0308
  104THF     H7 1346   5.207   4.197   2.312  0.7613  0.0080 -2.4480
  104THF     C8 1347   5.118   3.996   2.373  0.1016 -0.1634 -0.1514
  104THF     C9 1348   4.969   3.999   2.391 -0.4216 -0.3142  0.0513
  104THF    H10 1349   5.165   4.024   2.468  0.0018  1.1000 -0.4560
  104THF    H11 1350   5.166   3.909   2.328 -2.9042 -1.1310 -1.7820
  104THF    H12 1351   4.924   3.900   2.397 -2.7383  0.6828  0.1840
  104THF    H13 1352   4.945   4.029   2.493 -1.0725 -0.5978 -0.0153
  105THF     O1 1353   3.565   3.008   3.723 -0.3527  0.3012  0.0637
  105THF     C2 1354   3.667   3.037   3.628 -0.1986  0.0773  0.1367
  105THF     C3 1355   3.508   2.878   3.696  0.0299  0.8146  0.0937
  105THF     H4 1356   3.763   3.064   3.672 -1.0694  1.0551  1.5287
  105THF     H5 1357   3.639   3.127   3.574 -1.3208 -0.1070  0.3836
  105THF     H6 1358   3.475   2.826   3.786  0.9698 -1.1156 -0.6263
  105THF     H7 1359   3.417   2.882   3.637 -0.7252 -2.2439  0.8723
  105THF     C8 1360   3.600   2.796   3.612 -0.2845  0.3213 -0.0198
  105THF     C9 1361   3.667   2.915   3.536 -0.1085  0.2796 -0.3969
  105THF    H10 1362   3.558   2.717   3.549 -1.1437  0.6689  0.1044
  105THF    H11 1363   3.679   2.746   3.668 -1.0829 -0.0762  0.7775
  105THF    H12 1364   3.767   2.887   3.504  0.3959 -0.2889  1.5503
  105THF    H13 1365   3.607   2.941   3.448 -0.4899  0.2856 -0.1389
  106THF     O1 1366   0.402   0.373   4.312  0.0059  0.2786  0.1363
  106THF     C2 1367   0.508   0.461   4.339  0.4245 -0.0103  0.2390
  106THF     C3 1368   0.466   0.256   4.265 -0.0975 -0.0397 -0.4929
  106THF     H4 1369   0.553   0.442   4.436  0.0773 -0.2906  0.3475
  106THF     H5 1370   0.472   0.564   4.332  1.9081  0.5072  0.0510
  106THF     H6 1371   0.488   0.186   4.346  0.7515  1.1288  0.3102
  106THF     H7 1372   0.392   0.209   4.200 -0.1919  0.2317 -0.5831
  106THF     C8 1373   0.593   0.297   4.195  0.5209  0.4093  0.0828
  106THF     C9 1374   0.606   0.442   4.232 -0.0064 -0.0920  0.1152
  106THF    H10 1375   0.589   0.276   4.088  0.0967 -2.3939  0.5562
  106THF    H11 1376   0.681   0.239   4.225  0.9636 -0.2941 -2.3420
  106THF    H12 1377   0.710   0.472   4.245 -0.6198  1.9612  0.6517
  106THF    H13 1378   0.573   0.504   4.148 -0.3882  0.0144  0.3372
  107THF     O1 1379   3.143   1.983   0.345  0.3587 -0.6116  0.0219
  107THF     C2 1380   3.287   2.004   0.322  0.4026 -0.1960  0.5068
  107THF     C3 1381   3.128   1.880   0.441  0.7893  0.3431 -0.1539
  107THF     H4 1382   3.308   2.105   0.287 -2.5091  0.9640  1.7576
  107THF     H5 1383   3.318   1.936   0.242 -0.6555  1.5518 -1.5117
  107THF     H6 1384   3.042   1.879   0.508  1.3687  1.1127  0.6418
  107THF     H7 1385   3.140   1.778   0.406 -1.5572  0.3349 -1.0606
  107THF     C8 1386   3.242   1.898   0.532  0.0896 -0.3462  0.4067
  107THF     C9 1387   3.348   1.980   0.456 -0.3596 -0.7605  0.1304
  107THF    H10 1388   3.286   1.807   0.574  1.0781  0.6866  1.7110
  107THF    H11 1389   3.206   1.966   0.609 -1.4970  0.5232 -1.0357
  107THF    H12 1390   3.367   2.078   0.500  0.8908 -0.8209 -0.2543
  107THF    H13 1391   3.443   1.928   0.452  0.1260  0.1459 -0.5597
  108THF     O1 1392   4.365   0.847   2.844 -0.1694 -0.0926  0.3277
  108THF     C2 1393   4.454   0.752   2.790 -0.4151  0.7594 -0.4782
  108THF     C3 1394   4.389   0.845   2.984  0.3630 -0.3234 -0.2525
  108THF     H4 1395   4.557   0.787   2.793  0.4038 -1.5178  0.0871
  108THF     H5 1396   4.424   0.730   2.687 -0.5267  1.2759 -0.5604
  108THF     H6 1397   4.485   0.897   2.989  1.1682 -1.3502 -3.0181
  108THF     H7 1398   4.317   0.910   3.033  1.2493  1.3021 -1.0023
  108THF     C8 1399   4.382   0.696   3.014 -0.4950  0.1429 -0.0443
  108THF     C9 1400   4.445   0.633   2.891 -0.5260 -0.0392 -0.5936
  108THF    H10 1401   4.279   0.662   3.010 -1.0364  1.8038 -0.6716
  108THF    H11 1402   4.435   0.659   3.102 -1.4974 -1.1926  0.0304
  108THF    H12 1403   4.549   0.601   2.905 -0.2487  1.1093  0.1534
  108THF    H13 1404   4.377   0.555   2.860 -1.8817  0.1874  1.6008
  109THF     O1 1405   4.892   2.808   1.127 -0.1532  0.4445 -0.3235
  109THF     C2 1406   4.895   2.853   0.990 -0.2000 -0.1375  0.5099
  109THF     C3 1407   4.827   2.681   1.110 -0.3974  0.2757  0.1245
  109THF     H4 1408   4.986   2.913   0.988  0.5718 -1.1966  1.9507
  109THF     H5 1409   4.806   2.916   0.980  0.3945  0.9881  1.9123
  109THF     H6 1410   4.867   2.622   1.193  0.3708  2.1285  1.1309
  109THF     H7 1411   4.720   2.686   1.093 -0.1734  0.3496 -1.4105
  109THF     C8 1412   4.895   2.614   0.984 -0.2394 -0.6843 -0.2781
  109THF     C9 1413   4.911   2.736   0.893 -0.0529  0.3515 -0.1091
  109THF    H10 1414   4.834   2.534   0.943 -2.9611  1.9273 -1.7167
  109THF    H11 1415   4.998   2.592   1.012  1.2410  4.3952 -0.7616
  109THF    H12 1416   5.004   2.733   0.836  0.2603  0.2933  0.3965
  109THF    H13 1417   4.823   2.734   0.829 -2.5150  1.7685  2.9919
  110THF     O1 1418   2.793   2.603   5.389  1.0419  0.2010 -0.5165
  110THF     C2 1419   2.745   2.653   5.516 -0.1327 -0.4606  0.3495
  110THF     C3 1420   2.933   2.623   5.380  0.2332  0.2898  0.4155
  110THF     H4 1421   2.766   2.571   5.585  1.2459 -0.8867 -0.5435
  110THF     H5 1422   2.640   2.683   5.508  0.2645  1.1511  0.7636
  110THF     H6 1423   2.982   2.526   5.388  0.4718  0.5248  2.0877
  110THF     H7 1424   2.950   2.656   5.277 -1.0323 -0.1311  0.0573
  110THF     C8 1425   2.967   2.732   5.477 -0.6917 -0.1904 -0.0909
  110THF     C9 1426   2.833   2.773   5.529 -0.1093 -0.9491  0.2163
  110THF    H10 1427   3.027   2.806   5.424 -0.9834 -0.1222 -0.3227
  110THF    H11 1428   3.024   2.687   5.559  2.1621 -1.0826 -2.3997
  110THF    H12 1429   2.823   2.810   5.632  0.1123  0.3040 -0.1939
  110THF    H13 1430   2.803   2.850   5.458  2.8920  0.5740  0.4597
  111THF     O1 1431   1.063   0.154   3.090 -0.2619  0.3538 -0.1414
  111THF     C2 1432   0.953   0.232   3.046  0.3468  0.4323  0.0969
  111THF     C3 1433   1.191   0.214   3.066  0.2498  0.1553 -0.2631
  111THF     H4 1434   0.928   0.287   3.136  2.1126  0.1587  0.7942
  111THF     H5 1435   0.866   0.172   3.019  0.6761 -0.3667  0.7769
  111THF     H6 1436   1.239   0.233   3.162  2.7161 -0.0160 -1.3798
  111THF     H7 1437   1.263   0.154   3.010 -0.4273 -1.8830  0.9178
  111THF     C8 1438   1.149   0.348   3.003 -0.1869  0.0132 -0.3043
  111THF     C9 1439   1.013   0.325   2.943 -0.5728 -0.0153  0.7872
  111THF    H10 1440   1.224   0.382   2.933  2.0267  1.1633  2.4320
  111THF    H11 1441   1.152   0.425   3.080  2.0457 -0.0486 -0.2663
  111THF    H12 1442   0.958   0.419   2.940 -0.7324 -0.0520  2.2393
  111THF    H13 1443   1.016   0.278   2.844  1.4907  0.8438  0.3714
  112THF     O1 1444   4.298   4.497   4.911  0.2053 -0.2594  0.1216
  112THF     C2 1445   4.305   4.362   4.875  0.3273 -0.7336 -0.0060
  112THF     C3 1446   4.210   4.515   5.018  0.5517 -0.7919 -0.3389
  112THF     H4 1447   4.364   4.311   4.952  1.6583  1.5536  0.5803
  112THF     H5 1448   4.350   4.354   4.776 -0.5257  0.4460 -0.4966
  112THF     H6 1449   4.278   4.531   5.102  0.2929 -2.0679  0.1304
  112THF     H7 1450   4.153   4.604   4.991  0.5138  0.4773  3.3681
  112THF     C8 1451   4.118   4.400   5.006 -0.1285  0.2669 -0.0360
  112THF     C9 1452   4.154   4.328   4.879 -0.4061 -0.0365  0.5544
  112THF    H10 1453   4.013   4.423   5.019 -0.0667 -0.6515  2.7751
  112THF    H11 1454   4.141   4.329   5.085 -0.7587 -1.9946 -1.8037
  112THF    H12 1455   4.138   4.220   4.884 -1.0156  0.0072 -0.1817
  112THF    H13 1456   4.103   4.366   4.790  2.9010  0.4090 -1.3284
  113THF     O1 1457   2.151   2.384   5.136 -0.1260  0.3410 -0.2442
  113THF     C2 1458   2.008   2.358   5.140 -0.4936  0.0111  0.4051
  113THF     C3 1459   2.213   2.261   5.099  0.1917  0.0202 -0.0681
  113THF     H4 1460   1.971   2.349   5.038  1.5826  0.2119 -0.4215
  113THF     H5 1461   1.971   2.449   5.188  1.3999  1.0736 -0.0573
  113THF     H6 1462   2.209   2.251   4.990  0.0381 -0.4803 -0.0175
  113THF     H7 1463   2.316   2.256   5.133 -0.5873 -0.3627  2.4200
  113THF     C8 1464   2.134   2.158   5.177  0.8098  0.5202 -0.1094
  113THF     C9 1465   2.010   2.231   5.221  0.2961  0.3762  0.5137
  113THF    H10 1466   2.203   2.132   5.257 -0.0273 -2.0991 -0.1321
  113THF    H11 1467   2.108   2.068   5.120 -0.5007 -0.7794  2.3217
  113THF    H12 1468   1.917   2.177   5.201 -1.1390  2.5280  0.9215
  113THF    H13 1469   2.022   2.251   5.328  3.1885 -2.3377  0.8280
  114THF     O1 1470   2.706   5.170   2.440  0.1397 -0.1575  0.2473
  114THF     C2 1471   2.572   5.196   2.390 -0.5278  0.0411 -0.1537
  114THF     C3 1472   2.737   5.039   2.409  0.1875 -1.0870 -0.2798
  114THF     H4 1473   2.557   5.300   2.362 -0.8321  0.2423  0.7119
  114THF     H5 1474   2.503   5.170   2.471  0.5338 -1.8285  0.1964
  114THF     H6 1475   2.844   5.018   2.404  0.6374  1.1687 -1.8602
  114THF     H7 1476   2.687   4.969   2.476  2.9798 -0.8993  2.1771
  114THF     C8 1477   2.679   5.034   2.264  0.4956 -0.0832  0.3534
  114THF     C9 1478   2.545   5.098   2.283  0.0854  1.0574  0.5354
  114THF    H10 1479   2.685   4.933   2.226  0.1752 -0.0640  0.2476
  114THF    H11 1480   2.733   5.109   2.206  0.1876  2.0022  2.5633
  114THF    H12 1481   2.498   5.144   2.195  0.7129 -0.4142 -0.6181
  114THF    H13 1482   2.476   5.023   2.321 -0.1895 -0.0532 -1.9454
  115THF     O1 1483   2.141   4.193   3.531  0.2572 -0.2675  0.2085
  115THF     C2 1484   2.129   4.138   3.664 -0.3541 -0.1343 -0.1113
  115THF     C3 1485   2.224   4.111   3.444  0.5045  0.7874  0.0839
  115THF     H4 1486   2.035   4.165   3.712 -0.9479  0.9141 -1.7503
  115THF     H5 1487   2.207   4.182   3.726 -0.1204  0.0009 -0.4951
  115THF     H6 1488   2.152   4.076   3.370  0.2040  0.6022  0.4588
  115THF     H7 1489   2.308   4.166   3.402 -0.0352  0.3638 -1.6258
  115THF     C8 1490   2.264   3.990   3.534 -0.0817  0.1142 -0.1872
  115THF     C9 1491   2.157   3.992   3.643 -0.3096 -0.0027 -0.2479
  115THF    H10 1492   2.363   4.018   3.571  0.7385 -0.9618 -1.4467
  115THF    H11 1493   2.266   3.898   3.476  0.8401  0.5216 -0.8314
  115THF    H12 1494   2.069   3.946   3.598 -0.2428  0.8225 -1.2665
  115THF    H13 1495   2.192   3.944   3.734 -0.4384  1.7333  0.7561
  116THF     O1 1496   0.455   5.257   0.995  0.1572  0.1306  0.3643
  116THF     C2 1497   0.478   5.161   0.889 -0.2645 -0.4615  0.0830
  116THF     C3 1498   0.537   5.372   0.977  0.1716  0.3682 -0.0975
  116THF     H4 1499   0.397   5.153   0.817 -0.6557  0.6193  0.3760
  116THF     H5 1500   0.486   5.060   0.930  2.4981 -0.0935  0.7015
  116THF     H6 1501   0.490   5.432   0.899 -0.6271  0.2365  0.2709
  116THF     H7 1502   0.550   5.436   1.064 -1.0904  1.8755 -0.9653
  116THF     C8 1503   0.662   5.313   0.925  0.0813  0.5905  0.3561
  116THF     C9 1504   0.609   5.208   0.826 -0.0908 -0.0991  0.9263
  116THF    H10 1505   0.725   5.286   1.010 -1.3697 -0.6457  1.0912
  116THF    H11 1506   0.713   5.396   0.877  2.3758 -1.1528 -0.4185
  116THF    H12 1507   0.581   5.255   0.732 -0.8303 -2.5736 -0.1631
  116THF    H13 1508   0.681   5.127   0.812  0.9250  1.0590 -1.0825
  117THF     O1 1509   2.113   1.533   2.972 -0.1720 -0.4259 -0.0739
  117THF     C2 1510   2.136   1.574   2.840 -0.1318  0.3466  0.3850
  117THF     C3 1511   2.129   1.647   3.060 -1.0632  0.2890  0.4427
  117THF     H4 1512   2.063   1.523   2.777  1.2351 -3.2264  1.4356
  117THF     H5 1513   2.231   1.542   2.797 -0.3121 -2.1701  1.6607
  117THF     H6 1514   2.080   1.649   3.158 -0.1760  2.9113  0.9248
  117THF     H7 1515   2.237   1.652   3.073 -0.7526  1.7233 -2.1321
  117THF     C8 1516   2.067   1.751   2.965 -0.5588 -0.4626 -0.0464
  117THF     C9 1517   2.116   1.724   2.823 -0.3326 -0.1350 -0.2811
  117THF    H10 1518   2.078   1.856   2.992 -2.4271  0.1625 -1.4991
  117THF    H11 1519   1.959   1.743   2.977 -0.4272  0.0933  1.9522
  117THF    H12 1520   2.040   1.751   2.750 -0.2220 -0.9814 -0.7237
  117THF    H13 1521   2.202   1.786   2.797  0.8162 -1.1956  0.8188
  118THF     O1 1522   0.899   1.830   3.154 -0.6523 -0.4994 -0.9413
  118THF     C2 1523   0.808   1.940   3.159 -0.3893  0.2366  0.0734
  118THF     C3 1524   0.945   1.801   3.282  0.6586 -0.3652  0.0322
  118THF     H4 1525   0.717   1.883   3.172 -1.1833  1.5466  0.5094
  118THF     H5 1526   0.819   1.990   3.062  1.4733  1.7497  0.9777
  118THF     H6 1527   0.871   1.743   3.336 -0.4030  1.9525  1.1872
  118THF     H7 1528   1.042   1.750   3.282  0.4986 -0.8900 -3.0534
  118THF     C8 1529   0.954   1.941   3.355  0.5853 -0.0573  0.1969
  118THF     C9 1530   0.848   2.022   3.278 -0.4436 -0.1662 -0.0253
  118THF    H10 1531   1.051   1.987   3.332  1.1987 -0.2809  2.1897
  118THF    H11 1532   0.957   1.942   3.464  1.3577  0.9112  0.1820
  118THF    H12 1533   0.764   2.037   3.346  0.4555  0.1946  1.0381
  118THF    H13 1534   0.885   2.117   3.238  0.5141 -1.0335 -1.2792
  119THF     O1 1535   1.811   3.246   2.528 -0.0193 -0.2268 -0.4334
  119THF     C2 1536   1.915   3.333   2.562  0.9337  0.0710 -0.5338
  119THF     C3 1537   1.709   3.252   2.627 -0.4242 -0.5480 -0.5095
  119THF     H4 1538   1.881   3.432   2.533  1.5006 -0.1380 -1.9904
  119THF     H5 1539   2.006   3.305   2.509  0.5781 -0.1591 -1.0146
  119THF     H6 1540   1.640   3.331   2.597  1.3532  0.7865 -1.2490
  119THF     H7 1541   1.661   3.155   2.644 -0.4304 -0.2928  1.0576
  119THF     C8 1542   1.773   3.302   2.758  0.4277  0.1521  0.7153
  119THF     C9 1543   1.917   3.317   2.715 -0.1485  0.3612  0.2357
  119THF    H10 1544   1.762   3.234   2.843  2.2515 -0.1520  0.7391
  119THF    H11 1545   1.738   3.402   2.785  1.6963  0.2749  2.0337
  119THF    H12 1546   1.978   3.386   2.775  1.2447 -0.1011 -0.6097
  119THF    H13 1547   1.965   3.220   2.729  1.4741  0.9925 -0.7038
  120THF     O1 1548   1.879   3.184   3.741  0.0283 -0.2754 -0.1439
  120THF     C2 1549   1.933   3.051   3.737 -0.1225 -0.1023  0.4256
  120THF     C3 1550   1.754   3.188   3.680 -0.2926  0.4407  0.6900
  120THF     H4 1551   1.925   3.009   3.837  0.3712  2.2909  1.5378
  120THF     H5 1552   2.039   3.051   3.711  0.7864  0.9581  3.6907
  120THF     H6 1553   1.682   3.142   3.748 -0.5096  0.0374  0.1846
  120THF     H7 1554   1.712   3.283   3.646  0.5253  0.6056  0.1212
  120THF     C8 1555   1.764   3.091   3.565  0.1710  0.5424  0.3854
  120THF     C9 1556   1.856   2.985   3.625 -0.4179  0.0098  0.3153
  120THF    H10 1557   1.811   3.142   3.481 -1.5169 -0.6604 -1.3801
  120THF    H11 1558   1.664   3.055   3.542  0.9946 -0.2292 -2.3378
  120THF    H12 1559   1.798   2.902   3.665 -1.8295 -0.1080 -1.8529
  120THF    H13 1560   1.926   2.942   3.553  0.3326 -0.6245  1.3932
  121THF     O1 1561   0.108   3.824   1.599 -0.6919  0.2724  0.7927
  121THF     C2 1562   0.083   3.962   1.618 -0.1662  0.1919  0.3061
  121THF     C3 1563   0.237   3.796   1.656  0.5506 -0.3882 -0.4182
  121THF     H4 1564  -0.004   3.968   1.683 -1.5367  1.5363 -1.5438
  121THF     H5 1565   0.064   4.017   1.526 -0.1563 -0.9835 -0.4200
  121THF     H6 1566   0.227   3.699   1.705 -3.2006  0.8560  1.7030
  121THF     H7 1567   0.306   3.779   1.574 -0.5433 -3.3368 -0.8431
  121THF     C8 1568   0.277   3.919   1.747 -0.0292 -0.3330  0.0660
  121THF     C9 1569   0.213   4.027   1.675  0.5915  0.2012 -0.2450
  121THF    H10 1570   0.382   3.937   1.767  0.1919 -0.9155 -0.5279
  121THF    H11 1571   0.225   3.899   1.841  1.2852 -4.9608  0.0515
  121THF    H12 1572   0.191   4.107   1.745  0.6927 -0.3936  0.4778
  121THF    H13 1573   0.278   4.073   1.601 -0.1974  1.6846 -0.0468
  122THF     O1 1574   4.697   1.629   4.795  0.0262  0.6389 -0.6795
  122THF     C2 1575   4.580   1.558   4.820 -1.0284 -0.7835  0.3659
  122THF     C3 1576   4.801   1.525   4.798 -0.0276  0.1429 -0.5886
  122THF     H4 1577   4.546   1.512   4.727 -0.0400  2.9677 -2.0868
  122THF     H5 1578   4.510   1.635   4.850  0.5482  0.6924  0.4402
  122THF     H6 1579   4.799   1.460   4.711  2.2583 -2.4397  1.1161
  122THF     H7 1580   4.896   1.579   4.806  1.1817 -1.6546 -2.0409
  122THF     C8 1581   4.769   1.443   4.919  0.3602 -0.3635  0.1545
  122THF     C9 1582   4.611   1.463   4.941 -0.4895 -0.1785  0.6051
  122THF    H10 1583   4.822   1.493   4.999  2.0973  1.0498 -1.7585
  122THF    H11 1584   4.811   1.342   4.920 -0.4821 -0.7845 -1.8179
  122THF    H12 1585   4.551   1.372   4.934  1.6877 -2.0234  3.6711
  122THF    H13 1586   4.587   1.522   5.030  0.4206  1.0625  0.0671
  123THF     O1 1587   4.228   0.550   2.377 -0.4707  0.0248  0.0960
  123THF     C2 1588   4.213   0.417   2.325 -0.1073 -0.1800 -0.1875
  123THF     C3 1589   4.344   0.551   2.457 -0.0017 -0.1067 -0.5445
  123THF     H4 1590   4.132   0.426   2.254  0.6104  1.0391 -0.8893
  123THF     H5 1591   4.176   0.367   2.415  0.8517  0.7448  0.7569
  123THF     H6 1592   4.376   0.654   2.470  1.8093 -0.8631  1.6457
  123THF     H7 1593   4.337   0.506   2.556 -0.7829  0.1357 -0.4818
  123THF     C8 1594   4.437   0.462   2.373 -0.0630 -0.0295  0.2391
  123THF     C9 1595   4.350   0.375   2.281 -0.1212 -0.1451 -0.4272
  123THF    H10 1596   4.514   0.412   2.431 -0.4579 -0.0411  0.7596
  123THF    H11 1597   4.502   0.525   2.311  1.3247 -0.2175  1.4394
  123THF    H12 1598   4.359   0.396   2.175  1.4007  0.8386 -0.1333
  123THF    H13 1599   4.362   0.268   2.293 -3.3619 -0.3553  2.5912
  124THF     O1 1600   2.571   4.399   2.123  0.2423  0.1289 -0.0615
  124THF     C2 1601   2.704   4.353   2.142  0.3963  0.1670  0.1842
  124THF     C3 1602   2.566   4.452   1.995  0.3068  0.0253  0.0866
  124THF     H4 1603   2.691   4.248   2.116 -0.7697  0.6007 -1.0897
  124THF     H5 1604   2.740   4.368   2.244 -0.5454  0.4703  0.4815
  124THF     H6 1605   2.488   4.411   1.932  0.9979  0.6496 -1.2240
  124THF     H7 1606   2.545   4.558   2.012 -0.6461 -0.3136  1.1231
  124THF     C8 1607   2.698   4.439   1.924 -0.1353 -0.0038  0.1410
  124THF     C9 1608   2.787   4.433   2.040  0.5793  0.0729 -0.5977
  124THF    H10 1609   2.722   4.519   1.854  0.3204 -1.3850 -1.3420
  124THF    H11 1610   2.703   4.341   1.875  1.7187 -0.0653  0.3978
  124THF    H12 1611   2.885   4.386   2.031  1.9369  1.5315  3.9807
  124THF    H13 1612   2.804   4.534   2.076 -2.1029  0.3443  0.1156
  125THF     O1 1613   3.657   0.237   4.696 -0.1271 -0.3486 -0.3065
  125THF     C2 1614   3.658   0.267   4.835 -0.0481  0.2750 -0.1160
  125THF     C3 1615   3.610   0.355   4.629 -0.4015 -0.0641  0.0543
  125THF     H4 1616   3.730   0.349   4.834  0.1448  0.1004 -0.5694
  125THF     H5 1617   3.682   0.189   4.907  2.8883 -1.1790 -2.5157
  125THF     H6 1618   3.687   0.430   4.611  0.8108 -1.4012 -0.5820
  125THF     H7 1619   3.567   0.331   4.532 -1.0463  0.7594  0.1300
  125THF     C8 1620   3.496   0.396   4.724  0.9241  0.2654 -0.1519
  125THF     C9 1621   3.522   0.318   4.853 -0.2044 -0.1346 -0.6853
  125THF    H10 1622   3.395   0.382   4.688  0.8943  0.5302 -0.1787
  125THF    H11 1623   3.496   0.504   4.744 -1.6469  0.0752  1.2367
  125THF    H12 1624   3.515   0.378   4.944 -1.7334 -0.7255 -0.3733
  125THF    H13 1625   3.455   0.232   4.848  2.5254 -2.4783  0.5005
  126THF     O1 1626   4.357   5.392   1.569 -0.4213  0.3703 -0.1836
  126THF     C2 1627   4.262   5.419   1.666  0.2426 -0.0128 -0.2562
  126THF     C3 1628   4.416   5.266   1.613  0.2625  0.2649  1.0734
  126THF     H4 1629   4.201   5.502   1.630  0.1303 -0.6388 -1.5464
  126THF     H5 1630   4.306   5.447   1.762 -0.0947 -2.0822  0.5570
  126THF     H6 1631   4.451   5.217   1.522 -2.1221  0.9219 -0.2957
  126THF     H7 1632   4.497   5.282   1.683  1.5480 -0.6885 -0.1345
  126THF     C8 1633   4.297   5.186   1.668  0.2167  0.7254 -0.1301
  126THF     C9 1634   4.188   5.287   1.684 -0.2157 -0.1149 -0.9650
  126THF    H10 1635   4.318   5.139   1.764  1.9117 -0.5705 -1.0943
  126THF    H11 1636   4.277   5.104   1.599  0.8352  1.0320 -0.6848
  126THF    H12 1637   4.119   5.281   1.600 -1.1888  0.6931 -0.2660
  126THF    H13 1638   4.124   5.280   1.772  0.8626  0.3328 -0.1255
  127THF     O1 1639   0.432   4.314   2.044 -0.2814  0.5358  0.0278
  127THF     C2 1640   0.363   4.193   2.072 -0.3302 -0.4551 -0.1783
  127THF     C3 1641   0.572   4.285   2.028  0.3163  0.6007 -1.1708
  127THF     H4 1642   0.300   4.162   1.989 -1.1253  0.3520  0.1095
  127THF     H5 1643   0.297   4.215   2.156  0.8895 -0.1507  0.7372
  127THF     H6 1644   0.583   4.251   1.925  0.2498 -0.1258 -0.9405
  127THF     H7 1645   0.632   4.376   2.031  1.4397 -0.0763 -2.1963
  127THF     C8 1646   0.604   4.166   2.119 -0.0553 -0.4246 -0.1843
  127THF     C9 1647   0.470   4.090   2.104 -0.0493 -0.0563  0.4258
  127THF    H10 1648   0.617   4.208   2.219 -0.2763  0.4684 -0.5163
  127THF    H11 1649   0.684   4.102   2.082  0.5826  0.0136  0.4298
  127THF    H12 1650   0.470   4.026   2.016 -1.4499  0.2022  0.2195
  127THF    H13 1651   0.444   4.035   2.195  1.9556  0.6717  1.5115
  128THF     O1 1652   4.088   0.071   5.052 -0.5065  0.3634  0.2567
  128THF     C2 1653   4.166   0.143   5.149  0.1123 -0.3793 -0.0572
  128THF     C3 1654   4.049  -0.054   5.106  0.0726  0.1783  0.7540
  128THF     H4 1655   4.104   0.204   5.214 -2.6758 -2.7560 -0.3049
  128THF     H5 1656   4.240   0.215   5.112 -0.1367  0.0075  0.1918
  128THF     H6 1657   3.940  -0.052   5.102  0.0600 -1.0721 -0.1426
  128THF     H7 1658   4.079  -0.137   5.042 -2.1938 -1.4378  1.6225
  128THF     C8 1659   4.112  -0.073   5.244 -0.1964  0.1957  0.1207
  128THF     C9 1660   4.224   0.029   5.234 -0.1049 -0.4501  0.2271
  128THF    H10 1661   4.157  -0.168   5.271 -1.1019  0.0370  1.1224
  128THF    H11 1662   4.034  -0.071   5.319 -1.4333 -0.6330 -1.0923
  128THF    H12 1663   4.259   0.068   5.329 -0.8312  2.3848 -0.5823
  128THF    H13 1664   4.315  -0.009   5.186  0.5483  1.8678 -0.5035
  129THF     O1 1665   1.828   0.022   0.366 -0.3187 -0.1498  0.2021
  129THF     C2 1666   1.787  -0.067   0.468  0.0203  0.4572 -0.0388
  129THF     C3 1667   1.759  -0.001   0.247  0.3050 -0.5450 -0.3466
  129THF     H4 1668   1.712  -0.020   0.532 -0.9048 -0.9690 -0.0211
  129THF     H5 1669   1.870  -0.089   0.534  0.4984 -0.1526 -0.8302
  129THF     H6 1670   1.666   0.056   0.247 -0.5808 -1.8847 -2.3184
  129THF     H7 1671   1.808   0.034   0.156 -1.9998  1.8941 -0.8057
  129THF     C8 1672   1.726  -0.151   0.248  0.2680 -0.2886  0.1705
  129THF     C9 1673   1.747  -0.196   0.389 -0.9561 -0.2164 -0.1347
  129THF    H10 1674   1.796  -0.205   0.184  0.1509  0.3948 -0.5463
  129THF    H11 1675   1.629  -0.180   0.208  0.6737 -0.8811 -0.4110
  129THF    H12 1676   1.660  -0.240   0.437 -0.7586  1.6440  2.1198
  129THF    H13 1677   1.828  -0.266   0.408 -1.7780 -0.9441  0.7785
  130THF     O1 1678   2.631   4.204   1.024 -0.4041  0.3129  0.2063
  130THF     C2 1679   2.498   4.219   1.085 -0.3000  0.2962  0.3371
  130THF     C3 1680   2.697   4.336   1.040  0.0036 -0.6042  0.5409
  130THF     H4 1681   2.511   4.221   1.193  2.3547  1.0634  0.0578
  130THF     H5 1682   2.425   4.144   1.052 -1.3734  1.3397  0.2488
  130THF     H6 1683   2.748   4.322   1.135  1.0076 -1.5232 -0.1020
  130THF     H7 1684   2.768   4.345   0.957  2.0199 -0.5027  2.1844
  130THF     C8 1685   2.582   4.441   1.036  0.5068 -0.2843  0.0030
  130THF     C9 1686   2.452   4.363   1.056 -0.3982  0.1336  0.5386
  130THF    H10 1687   2.588   4.469   0.931  0.0008  0.3723  0.1359
  130THF    H11 1688   2.589   4.529   1.100 -0.5701  0.1411 -0.4256
  130THF    H12 1689   2.386   4.400   1.134 -1.6636  0.0055 -0.4279
  130THF    H13 1690   2.398   4.372   0.961 -2.0952  0.1257  1.4549
  131THF     O1 1691   4.330   1.110   2.313  0.3594 -0.7028 -0.7256
  131THF     C2 1692   4.371   1.022   2.416 -0.1643 -0.2659  0.3610
  131THF     C3 1693   4.411   1.231   2.319  0.4873 -0.1798  0.0890
  131THF     H4 1694   4.334   0.922   2.394 -0.1807 -0.1489 -0.1507
  131THF     H5 1695   4.335   1.051   2.515  2.2840  0.8128  0.9981
  131THF     H6 1696   4.424   1.272   2.218 -1.2999 -1.4603 -0.7297
  131THF     H7 1697   4.360   1.311   2.373  0.2483 -0.2385 -0.0476
  131THF     C8 1698   4.537   1.189   2.383 -0.5667  0.3857 -0.5417
  131THF     C9 1699   4.522   1.036   2.405 -0.0943 -0.1773 -0.3290
  131THF    H10 1700   4.563   1.227   2.481  0.5759 -0.5675 -0.4517
  131THF    H11 1701   4.618   1.212   2.314 -0.1380 -1.6173 -0.7691
  131THF    H12 1702   4.557   0.984   2.317 -2.4092  0.2903 -1.6151
  131THF    H13 1703   4.569   1.004   2.498 -0.8172  2.0730  0.8839
  132THF     O1 1704   3.824   0.804   4.587 -0.1426 -0.9830 -0.8451
  132THF     C2 1705   3.902   0.922   4.561  0.5015  0.1880  1.0189
  132THF     C3 1706   3.766   0.824   4.714  0.1077  0.0431 -0.1382
  132THF     H4 1707   3.839   1.008   4.534  1.7921  0.4794 -1.4069
  132THF     H5 1708   3.967   0.900   4.476 -0.8173 -0.2586  0.1011
  132THF     H6 1709   3.684   0.892   4.692  1.3356  1.5413 -0.2269
  132THF     H7 1710   3.742   0.727   4.759  0.6540  0.7194  1.6988
  132THF     C8 1711   3.882   0.897   4.793  0.1732 -0.6379 -0.5133
  132THF     C9 1712   3.981   0.945   4.695 -0.1461  0.4876  0.2309
  132THF    H10 1713   3.927   0.835   4.870  0.0762 -1.8055 -1.3819
  132THF    H11 1714   3.830   0.986   4.830 -1.2039 -1.1139 -1.2069
  132THF    H12 1715   4.009   1.049   4.714  1.1502 -0.0031  1.1429
  132THF    H13 1716   4.071   0.885   4.708  0.4488  1.8182  2.9910
  133THF     O1 1717   3.909   4.604   1.246  0.0201 -0.4728 -0.0298
  133THF     C2 1718   3.784   4.556   1.290 -0.1458  0.0644  0.0647
  133THF     C3 1719   4.004   4.516   1.302 -0.0680 -0.1591  0.4701
  133THF     H4 1720   3.701   4.613   1.248  1.5503  1.7855 -1.1531
  133THF     H5 1721   3.770   4.554   1.398  2.9063 -0.3250  0.5423
  133THF     H6 1722   4.098   4.512   1.247  0.7059 -0.2246  1.7451
  133THF     H7 1723   4.026   4.555   1.402 -0.9289  0.2901  0.4947
  133THF     C8 1724   3.923   4.387   1.292  0.1329  0.2953  0.2845
  133THF     C9 1725   3.780   4.409   1.247  0.1252 -0.0630 -0.6556
  133THF    H10 1726   3.920   4.345   1.393  2.9138 -0.0449  0.3060
  133THF    H11 1727   3.970   4.307   1.236 -1.5377 -0.9519  0.5723
  133THF    H12 1728   3.758   4.397   1.140 -2.6133 -0.3555 -0.1360
  133THF    H13 1729   3.703   4.356   1.303 -0.1215  1.3937  0.4209
  134THF     O1 1730   5.219   3.814   1.470 -0.2526 -0.3009 -0.3400
  134THF     C2 1731   5.193   3.957   1.463  0.1745  0.4141  0.1248
  134THF     C3 1732   5.299   3.778   1.367  0.1381 -0.1503 -0.1587
  134THF     H4 1733   5.275   4.016   1.504  0.5997 -1.0016  1.3973
  134THF     H5 1734   5.106   3.990   1.521 -0.2736 -0.8034  0.1857
  134THF     H6 1735   5.405   3.795   1.390 -0.4842  0.8885  2.2224
  134THF     H7 1736   5.311   3.674   1.336  3.5872  0.6320 -2.0846
  134THF     C8 1737   5.248   3.857   1.254  0.0596  0.0187  0.5993
  134THF     C9 1738   5.175   3.974   1.308  0.4837  0.5045  0.6356
  134THF    H10 1739   5.207   3.803   1.168 -1.1555  0.2873  0.9920
  134THF    H11 1740   5.344   3.898   1.222  0.2427 -0.5149  0.4485
  134THF    H12 1741   5.213   4.066   1.265  2.6676 -1.3005 -1.6021
  134THF    H13 1742   5.070   3.971   1.281 -0.1433 -2.2174  2.8739
  135THF     O1 1743   5.475   3.463   3.127  0.3187 -0.1246  0.3909
  135THF     C2 1744   5.510   3.594   3.082 -0.7499  0.3007  1.0115
  135THF     C3 1745   5.377   3.481   3.236 -0.5758 -0.6508 -0.5038
  135THF     H4 1746   5.540   3.603   2.978 -3.0825  0.1641  0.2846
  135THF     H5 1747   5.590   3.626   3.149  0.7325 -2.1571  0.5105
  135THF     H6 1748   5.327   3.389   3.267  1.3108 -2.2996 -2.0698
  135THF     H7 1749   5.423   3.512   3.329 -1.0118  1.6383 -0.9794
  135THF     C8 1750   5.288   3.594   3.182 -0.3609  0.2374  0.0849
  135THF     C9 1751   5.381   3.681   3.101 -0.6343 -0.1175  0.7327
  135THF    H10 1752   5.232   3.642   3.262  1.3414  1.2115  0.7431
  135THF    H11 1753   5.211   3.552   3.118  1.3974  0.8997 -2.6355
  135THF    H12 1754   5.322   3.712   3.014  0.7865  2.4186  0.5854
  135THF    H13 1755   5.403   3.776   3.149  1.2850  0.0168 -0.3441
  136THF     O1 1756   1.856   0.312   0.984  0.4134  1.0506  0.0445
  136THF     C2 1757   1.753   0.377   1.057  0.2382  0.3074  0.4160
  136THF     C3 1758   1.825   0.316   0.854  0.1131 -0.7705  1.2411
  136THF     H4 1759   1.761   0.485   1.056 -0.1717  0.4256  2.7553
  136THF     H5 1760   1.757   0.337   1.159  2.9493 -1.3685 -0.2333
  136THF     H6 1761   1.846   0.410   0.802 -0.5340 -1.1623  0.2387
  136THF     H7 1762   1.874   0.242   0.790  0.9300 -0.4844  1.5229
  136THF     C8 1763   1.678   0.287   0.850 -0.4884  0.1571  0.2442
  136THF     C9 1764   1.622   0.348   0.981 -0.1846 -0.1144 -0.2018
  136THF    H10 1765   1.652   0.181   0.848 -0.1629  0.0219  1.7575
  136THF    H11 1766   1.629   0.339   0.767  0.4440 -1.9451 -1.7099
  136THF    H12 1767   1.575   0.444   0.958 -2.0545 -1.1053 -0.7192
  136THF    H13 1768   1.554   0.285   1.038  0.4103  0.6052  1.3662
  137THF     O1 1769   4.034   5.116   0.240 -0.2723 -0.0434  0.2845
  137THF     C2 1770   4.069   5.255   0.255 -0.1455  0.1970  0.8955
  137THF     C3 1771   4.136   5.057   0.158  0.2988  0.5706 -0.3444
  137THF     H4 1772   4.155   5.263   0.321  0.9687 -0.8736 -0.3645
  137THF     H5 1773   3.994   5.313   0.308 -1.6152 -2.0152  1.3852
  137THF     H6 1774   4.232   5.034   0.206  0.4440 -0.6386 -1.1556
  137THF     H7 1775   4.113   4.962   0.110  1.8843 -1.2274  2.1610
  137THF     C8 1776   4.147   5.166   0.047  0.4511  0.3996 -0.4744
  137THF     C9 1777   4.102   5.296   0.105  0.2875 -0.6033 -0.1992
  137THF    H10 1778   4.077   5.139  -0.032 -0.4658  2.1886 -0.3295
  137THF    H11 1779   4.252   5.158   0.017 -0.2096 -1.6652 -2.5587
  137THF    H12 1780   4.182   5.370   0.103 -0.7187  0.5295  0.4523
  137THF    H13 1781   4.010   5.338   0.065 -0.0289 -2.6358 -1.7761
  138THF     O1 1782   0.665   1.884   4.988  0.2699  0.2536  0.3341
  138THF     C2 1783   0.743   1.787   5.061  0.9326 -0.7822 -0.8980
  138THF     C3 1784   0.744   1.931   4.886 -1.0082 -0.5309 -0.2260
  138THF     H4 1785   0.685   1.713   5.116  0.1024  0.7044  0.2977
  138THF     H5 1786   0.806   1.834   5.136 -1.4492  0.3061  0.5252
  138THF     H6 1787   0.684   1.948   4.796 -1.0016  0.0093 -0.1278
  138THF     H7 1788   0.793   2.023   4.915 -1.5474 -0.9875  2.3436
  138THF     C8 1789   0.849   1.818   4.849 -0.0679 -0.6391 -0.2133
  138THF     C9 1790   0.803   1.713   4.943  0.4357  0.7529 -0.0815
  138THF    H10 1791   0.950   1.852   4.869 -0.7314 -0.3227  3.1289
  138THF    H11 1792   0.839   1.792   4.743  0.3449 -2.2861  0.1295
  138THF    H12 1793   0.731   1.658   4.882 -0.6175  1.9683  0.0335
  138THF    H13 1794   0.880   1.642   4.972  0.6096  1.3824  1.0264
  139THF     O1 1795   5.335   4.319   1.258  0.6689  0.3280  0.3450
  139THF     C2 1796   5.337   4.339   1.401  0.1055 -0.0959  0.8020
  139THF     C3 1797   5.204   4.368   1.216  0.0102 -0.0638 -0.0422
  139THF     H4 1798   5.435   4.339   1.448  0.8732  1.3377 -0.6988
  139THF     H5 1799   5.270   4.272   1.455 -0.1023  1.7576  3.0510
  139THF     H6 1800   5.190   4.383   1.109  1.7528 -1.8145 -0.5761
  139THF     H7 1801   5.146   4.279   1.241 -0.2615  0.1584  0.1136
  139THF     C8 1802   5.169   4.483   1.313 -0.5047 -0.1277  0.1995
  139THF     C9 1803   5.284   4.477   1.415 -0.3347 -0.0195  0.6439
  139THF    H10 1804   5.071   4.476   1.360  0.8943 -0.3842  3.2918
  139THF    H11 1805   5.173   4.574   1.252  0.3769 -1.2456 -1.4649
  139THF    H12 1806   5.358   4.557   1.401 -0.7923  0.0824 -1.6552
  139THF    H13 1807   5.237   4.489   1.512 -0.5281 -0.5984  0.6261
  140THF     O1 1808   4.056   4.466   0.800 -0.1715 -0.4205  0.1261
  140THF     C2 1809   3.943   4.519   0.878 -0.4725  0.0729  0.5655
  140THF     C3 1810   4.151   4.564   0.808 -0.1593 -0.5541  0.6255
  140THF     H4 1811   3.968   4.518   0.984  1.4172  0.2858  0.1670
  140THF     H5 1812   3.858   4.451   0.869  1.6278 -2.9752  2.0191
  140THF     H6 1813   4.222   4.551   0.890 -0.5181  2.7324  1.6217
  140THF     H7 1814   4.216   4.550   0.722 -0.3098 -1.6998  0.6866
  140THF     C8 1815   4.080   4.696   0.824  0.6408 -0.4110 -0.2782
  140THF     C9 1816   3.929   4.665   0.839 -0.3859  0.4750  0.3978
  140THF    H10 1817   4.088   4.752   0.731 -0.4410  0.2737  0.0231
  140THF    H11 1818   4.122   4.755   0.906 -1.4184  0.9611 -0.1404
  140THF    H12 1819   3.888   4.709   0.930 -2.2435 -0.9553  0.3152
  140THF    H13 1820   3.869   4.693   0.753  0.6064  0.6024 -0.2564
  141THF     O1 1821   4.599   0.382   4.832 -0.0647 -0.4674 -0.3709
  141THF     C2 1822   4.470   0.354   4.878  0.6230 -0.1467  0.3420
  141THF     C3 1823   4.635   0.512   4.877 -0.0416  0.5153 -0.3560
  141THF     H4 1824   4.464   0.282   4.960  0.2354  0.9213  1.2653
  141THF     H5 1825   4.417   0.319   4.789 -1.4574 -1.2935  1.9021
  141THF     H6 1826   4.730   0.508   4.931 -0.9074 -1.2971  1.1524
  141THF     H7 1827   4.642   0.585   4.796  1.4994 -1.3492 -2.0387
  141THF     C8 1828   4.536   0.555   4.984 -0.5728 -0.3203  0.1488
  141THF     C9 1829   4.417   0.490   4.917 -0.2792 -0.0551 -0.4881
  141THF    H10 1830   4.525   0.663   4.995  0.5936  0.0251 -1.5644
  141THF    H11 1831   4.542   0.509   5.082 -1.9430 -0.0974  0.3549
  141THF    H12 1832   4.329   0.486   4.980  0.3910 -0.7506  0.4239
  141THF    H13 1833   4.388   0.537   4.823 -1.7203 -0.1145 -0.0890
  142THF     O1 1834   2.701   1.316   3.880 -0.1877  0.2599  0.3979
  142THF     C2 1835   2.639   1.273   4.001 -0.0917 -0.2603 -0.0821
  142THF     C3 1836   2.629   1.258   3.768 -0.6657 -0.4089 -0.1570
  142THF     H4 1837   2.650   1.354   4.073  1.4400  0.2957 -0.8985
  142THF     H5 1838   2.683   1.185   4.048 -0.0204 -0.5193 -0.6251
  142THF     H6 1839   2.653   1.305   3.672  1.8260  0.0175  0.5851
  142THF     H7 1840   2.669   1.158   3.752  0.1105 -0.2901  0.8882
  142THF     C8 1841   2.488   1.238   3.823  0.3235  0.3389  0.8813
  142THF     C9 1842   2.495   1.235   3.971  0.4180 -0.5199  0.5755
  142THF    H10 1843   2.425   1.157   3.787 -0.5303 -0.1167  3.2422
  142THF    H11 1844   2.436   1.329   3.795  2.7449  0.9991 -1.9764
  142THF    H12 1845   2.439   1.314   4.022 -2.3145 -1.3002 -1.0381
  142THF    H13 1846   2.471   1.138   4.013  0.7379 -0.5474  0.6957
  143THF     O1 1847   0.045   0.777   1.682 -0.1840  0.3941 -0.5281
  143THF     C2 1848  -0.049   0.663   1.659 -0.4141 -0.0982 -0.6092
  143THF     C3 1849  -0.042   0.883   1.730 -0.7167  0.3953  0.0304
  143THF     H4 1850   0.005   0.570   1.642  1.2774  0.4790  1.2463
  143THF     H5 1851  -0.111   0.679   1.571 -0.6756 -0.2231 -0.4465
  143THF     H6 1852   0.011   0.957   1.789 -0.1181 -0.7377  0.9527
  143THF     H7 1853  -0.081   0.938   1.645  1.6379  1.7973 -0.2225
  143THF     C8 1854  -0.137   0.812   1.825  0.3685 -0.2086  0.3317
  143THF     C9 1855  -0.129   0.666   1.787  0.3747 -0.2950 -0.1635
  143THF    H10 1856  -0.236   0.845   1.792  1.3707  1.1017 -1.5650
  143THF    H11 1857  -0.113   0.836   1.928  0.5687 -0.9607  0.4694
  143THF    H12 1858  -0.081   0.609   1.867  1.6000 -0.8820 -1.2846
  143THF    H13 1859  -0.216   0.601   1.779  0.1888 -0.5905  2.9708
  144THF     O1 1860   1.740   2.851   0.834 -0.2445  0.5351  0.3783
  144THF     C2 1861   1.876   2.891   0.832  0.3628 -0.3523  0.1928
  144THF     C3 1862   1.658   2.944   0.755 -0.2076  0.4297 -0.4473
  144THF     H4 1863   1.929   2.809   0.785  3.1581  1.2206  0.3539
  144THF     H5 1864   1.918   2.909   0.931  0.2550 -1.4271  0.4468
  144THF     H6 1865   1.572   2.893   0.713 -1.6826  1.9158  0.6644
  144THF     H7 1866   1.633   3.019   0.830  2.4226  0.0088  0.9762
  144THF     C8 1867   1.763   3.007   0.660  0.4982 -0.9671  0.1037
  144THF     C9 1868   1.886   3.017   0.754  0.6991 -0.0976 -0.0088
  144THF    H10 1869   1.727   3.105   0.628  0.3299 -1.0408  0.0657
  144THF    H11 1870   1.787   2.953   0.569 -0.7716 -0.2413 -0.6996
  144THF    H12 1871   1.980   3.041   0.704  0.7275  0.7371  0.4343
  144THF    H13 1872   1.876   3.109   0.811 -1.2642  0.4066 -1.0738
  145THF     O1 1873   0.985   3.991   1.626  0.0061  0.4224 -0.4810
  145THF     C2 1874   0.928   3.862   1.654  0.1899 -0.5251  0.8107
  145THF     C3 1875   0.898   4.102   1.671 -0.0345 -0.1952  0.5934
  145THF     H4 1876   0.997   3.786   1.692  0.0106 -1.7110 -1.1039
  145THF     H5 1877   0.883   3.813   1.568 -1.0309 -0.7362  1.5400
  145THF     H6 1878   0.946   4.155   1.753 -0.7041 -2.2824  2.4426
  145THF     H7 1879   0.889   4.181   1.597  1.6252 -1.0245 -0.5429
  145THF     C8 1880   0.777   4.028   1.713  0.5612 -0.3621  0.5720
  145THF     C9 1881   0.829   3.895   1.761  0.6074 -0.5066 -0.8321
  145THF    H10 1882   0.703   4.002   1.637  0.0763 -1.0946  1.2797
  145THF    H11 1883   0.736   4.086   1.795 -1.2860 -1.9029  0.8073
  145THF    H12 1884   0.873   3.895   1.861 -1.0924  1.0329 -0.0197
  145THF    H13 1885   0.752   3.819   1.772  0.4553 -0.1215  1.1812
  146THF     O1 1886   2.138   4.316   2.289  0.3734  0.1136  0.2201
  146THF     C2 1887   2.057   4.360   2.187 -0.1107  0.2897 -0.6561
  146THF     C3 1888   2.058   4.333   2.409 -0.2988  0.4180 -0.1912
  146THF     H4 1889   2.098   4.324   2.093 -0.6594  0.7243 -1.0688
  146THF     H5 1890   2.051   4.469   2.185 -1.8151  0.2515 -0.0197
  146THF     H6 1891   2.093   4.262   2.484 -0.8971 -0.3349 -0.6087
  146THF     H7 1892   2.068   4.438   2.437  0.4466 -0.2228  2.1423
  146THF     C8 1893   1.914   4.295   2.372 -0.8586 -0.9121  0.7358
  146THF     C9 1894   1.916   4.301   2.222 -0.3817 -0.0552  0.3584
  146THF    H10 1895   1.851   4.369   2.420  0.3717 -0.2154  1.3064
  146THF    H11 1896   1.891   4.192   2.400  0.8834 -1.3711  0.5737
  146THF    H12 1897   1.911   4.197   2.188 -0.5700  0.0792 -0.0369
  146THF    H13 1898   1.835   4.356   2.174 -0.1386 -0.9156 -1.1154
  147THF     O1 1899   1.937   5.118   4.417  0.4525  0.0049  0.0372
  147THF     C2 1900   1.858   5.019   4.482  0.1545  0.6629  0.4230
  147THF     C3 1901   2.010   5.052   4.322 -0.4903 -0.1757  0.1278
  147THF     H4 1902   1.778   4.974   4.423 -1.9590  0.8065  3.0136
  147THF     H5 1903   1.806   5.049   4.573 -0.2540 -0.8774  0.7311
  147THF     H6 1904   1.942   5.034   4.238 -0.3142 -0.0191 -0.0489
  147THF     H7 1905   2.093   5.116   4.292  1.1433 -1.8551  0.8414
  147THF     C8 1906   2.053   4.923   4.390  0.2414 -0.9304  0.4587
  147THF     C9 1907   1.956   4.903   4.499  0.7042  0.0383  0.4302
  147THF    H10 1908   2.153   4.937   4.430 -0.0776 -1.6984  1.5606
  147THF    H11 1909   2.052   4.834   4.327 -0.6585 -0.5178 -0.1413
  147THF    H12 1910   1.911   4.804   4.496  0.2346  0.1364  2.6755
  147THF    H13 1911   2.013   4.922   4.590  1.5239  0.1718 -0.1007
  148THF     O1 1912   3.556   3.328   1.549  0.1285 -0.2410 -0.0788
  148THF     C2 1913   3.414   3.326   1.547 -0.3474  0.3248  0.2413
  148THF     C3 1914   3.607   3.191   1.568  0.0423 -0.3839 -0.0751
  148THF     H4 1915   3.359   3.406   1.498 -2.6824 -1.6764 -0.5887
  148THF     H5 1916   3.389   3.338   1.653  1.1422  1.0321  0.5421
  148THF     H6 1917   3.708   3.173   1.532 -0.2628 -0.6798 -0.8074
  148THF     H7 1918   3.599   3.158   1.672  0.6199  0.5209  0.2646
  148THF     C8 1919   3.512   3.110   1.479  0.7112 -0.5057 -0.2052
  148THF     C9 1920   3.377   3.185   1.493  0.6598 -0.5935  0.3140
  148THF    H10 1921   3.516   3.003   1.496 -2.1235 -0.6455  0.2214
  148THF    H11 1922   3.535   3.122   1.374  2.3759 -0.4860  0.1354
  148THF    H12 1923   3.316   3.187   1.402 -1.5186 -0.8975  1.7101
  148THF    H13 1924   3.302   3.143   1.559 -0.2682 -0.1868 -0.4634
  149THF     O1 1925   2.898   4.334   5.147 -0.6818 -0.5045  0.6068
  149THF     C2 1926   2.880   4.375   5.280  0.6782 -0.2495  0.4125
  149THF     C3 1927   2.812   4.220   5.128  0.0330  0.5646  0.0984
  149THF     H4 1928   2.905   4.478   5.305 -1.4656  0.2855  0.5130
  149THF     H5 1929   2.926   4.311   5.355  0.4057 -1.6993 -0.6242
  149THF     H6 1930   2.788   4.210   5.022 -2.5464 -0.3110  0.6727
  149THF     H7 1931   2.843   4.125   5.170 -0.0426  0.6828  0.4301
  149THF     C8 1932   2.680   4.269   5.196  0.4083 -0.5040 -0.5860
  149THF     C9 1933   2.726   4.366   5.303 -0.0188  0.1885 -0.1188
  149THF    H10 1934   2.627   4.187   5.242 -0.3436 -0.7466 -1.8431
  149THF    H11 1935   2.614   4.325   5.130  0.9841  0.0994 -0.6675
  149THF    H12 1936   2.697   4.471   5.298  1.2711  0.5649 -0.1680
  149THF    H13 1937   2.692   4.320   5.396 -0.3006 -1.4260 -0.9763
  150THF     O1 1938   0.108   4.797   0.733 -0.7065  0.1658 -0.0047
  150THF     C2 1939   0.234   4.831   0.665 -0.3587 -0.2614 -0.0751
  150THF     C3 1940   0.003   4.838   0.649 -0.2828 -0.5991 -0.4169
  150THF     H4 1941   0.300   4.746   0.655  1.5182  1.0786  0.4189
  150THF     H5 1942   0.295   4.899   0.725 -0.1307 -0.5058 -0.0279
  150THF     H6 1943  -0.019   4.767   0.569 -0.3478 -1.0731  0.0142
  150THF     H7 1944  -0.091   4.867   0.695  0.1459  1.0518 -0.5275
  150THF     C8 1945   0.064   4.953   0.567  0.3608 -0.1267  0.3714
  150THF     C9 1946   0.199   4.898   0.537  0.6213  0.0272 -0.4568
  150THF    H10 1947   0.084   5.043   0.626  1.0369  1.0140 -1.5124
  150THF    H11 1948   0.010   4.979   0.476 -0.4900 -0.4836  0.7602
  150THF    H12 1949   0.195   4.816   0.465 -0.8495 -0.5632  0.2592
  150THF    H13 1950   0.267   4.975   0.500 -0.0550  0.1926 -1.4142
  151THF     O1 1951   5.154   2.159   1.046 -0.1274 -0.0535 -0.0084
  151THF     C2 1952   5.215   2.104   1.165 -0.2940 -0.0467  0.2282
  151THF     C3 1953   5.102   2.057   0.958 -0.2525 -1.0087  0.0864
  151THF     H4 1954   5.209   2.178   1.244 -1.8939  1.9092 -1.6128
  151THF     H5 1955   5.319   2.088   1.136 -0.4377 -0.4731 -0.0674
  151THF     H6 1956   5.022   2.107   0.903 -1.4549 -1.2682  1.5313
  151THF     H7 1957   5.171   2.010   0.888  1.7407 -0.1303  1.3776
  151THF     C8 1958   5.055   1.947   1.055  1.0267 -0.0156  0.0222
  151THF     C9 1959   5.150   1.970   1.180  0.2581  0.4850  0.3870
  151THF    H10 1960   5.072   1.853   1.001  3.7418 -0.2021  1.0734
  151THF    H11 1961   4.951   1.969   1.080  0.4424 -0.0933 -2.1164
  151THF    H12 1962   5.077   1.984   1.260 -0.6081  2.2485 -0.6454
  151THF    H13 1963   5.219   1.888   1.195  1.7652  1.7903  0.8413
  152THF     O1 1964   1.590   5.375   4.298  0.1648  0.1611 -0.2238
  152THF     C2 1965   1.641   5.472   4.388  0.0753 -0.2228  0.5819
  152THF     C3 1966   1.569   5.251   4.356 -0.0784 -0.0388 -0.8241
  152THF     H4 1967   1.600   5.571   4.371 -1.7260 -0.9732  0.3436
  152THF     H5 1968   1.747   5.479   4.364 -0.0102  0.1175  0.2945
  152THF     H6 1969   1.488   5.190   4.315 -1.1652 -0.2350  1.4807
  152THF     H7 1970   1.658   5.188   4.353  0.6724  1.0077 -0.9923
  152THF     C8 1971   1.533   5.292   4.503 -0.0850  0.6200  0.1220
  152THF     C9 1972   1.606   5.416   4.531 -0.2879  0.0407  0.3542
  152THF    H10 1973   1.563   5.209   4.567 -0.3297  0.8231  0.4982
  152THF    H11 1974   1.428   5.315   4.519 -0.9231 -2.8533  0.4448
  152THF    H12 1975   1.564   5.494   4.594 -1.5435  0.9227 -1.4816
  152THF    H13 1976   1.702   5.391   4.576 -1.3959 -2.5814  1.4718
  153THF     O1 1977   4.495   2.852   0.550 -0.1651 -0.3790 -0.5351
  153THF     C2 1978   4.539   2.987   0.511  0.5484  0.5287 -0.5692
  153THF     C3 1979   4.595   2.764   0.535 -0.2163  0.0464  0.5466
  153THF     H4 1980   4.509   3.062   0.585  0.2827  0.6944 -0.8466
  153THF     H5 1981   4.512   3.013   0.409 -2.2280  0.0050 -0.0426
  153THF     H6 1982   4.574   2.676   0.596 -0.4936 -1.5332 -1.6864
  153THF     H7 1983   4.605   2.735   0.430  0.7338 -1.4268  1.0036
  153THF     C8 1984   4.718   2.849   0.575 -0.0281 -1.3340  0.6655
  153THF     C9 1985   4.690   2.983   0.517  0.6250  0.7382 -0.0002
  153THF    H10 1986   4.815   2.823   0.531 -0.4433  0.1336 -1.2681
  153THF    H11 1987   4.721   2.861   0.683 -1.3926 -1.0091  0.6857
  153THF    H12 1988   4.728   3.062   0.580  0.2374  1.1588 -0.2798
  153THF    H13 1989   4.738   2.995   0.420  1.2887 -2.3336 -0.1702
  154THF     O1 1990   1.536   2.562   1.733 -0.3911 -0.4685  0.0080
  154THF     C2 1991   1.638   2.544   1.640  0.0846 -0.4434 -0.2866
  154THF     C3 1992   1.427   2.480   1.698 -0.3464  0.0438  0.0695
  154THF     H4 1993   1.733   2.573   1.683 -0.5631 -0.5408  1.2895
  154THF     H5 1994   1.620   2.600   1.548 -0.1253  0.1753  0.1324
  154THF     H6 1995   1.353   2.470   1.778 -1.0820  4.5037  0.2302
  154THF     H7 1996   1.370   2.519   1.614 -0.2165 -4.0058 -2.1376
  154THF     C8 1997   1.494   2.354   1.662  0.5003 -0.5947 -0.0746
  154THF     C9 1998   1.633   2.392   1.614  0.1952 -0.7337 -0.3203
  154THF    H10 1999   1.431   2.293   1.596  0.5350  1.2923 -1.9699
  154THF    H11 2000   1.516   2.303   1.756  0.9216  0.7755  0.5990
  154THF    H12 2001   1.700   2.338   1.680  0.3955  0.2836  0.3391
  154THF    H13 2002   1.647   2.366   1.509  1.8288 -1.0694 -0.0394
  155THF     O1 2003   3.028   3.551   3.601  0.3871 -0.0706  0.5388
  155THF     C2 2004   2.973   3.669   3.660  0.4394  0.8214 -0.1324
  155THF     C3 2005   2.976   3.441   3.678  0.2685 -0.1474 -0.2959
  155THF     H4 2006   2.865   3.668   3.643  0.6471  0.5706 -1.5536
  155THF     H5 2007   3.019   3.756   3.615  1.0223 -0.0874 -1.3518
  155THF     H6 2008   2.870   3.436   3.654  0.0443  0.1255  0.5937
  155THF     H7 2009   3.032   3.354   3.643 -0.4186 -0.2905 -1.0727
  155THF     C8 2010   3.012   3.488   3.816  0.2765 -0.4784 -0.2773
  155THF     C9 2011   3.011   3.635   3.808  0.0792 -0.2763 -0.0092
  155THF    H10 2012   3.103   3.444   3.859 -1.2522 -1.1404  2.5004
  155THF    H11 2013   2.926   3.452   3.872 -0.0753 -0.2365 -0.6546
  155THF    H12 2014   2.952   3.691   3.881  2.4003  1.7410  0.4558
  155THF    H13 2015   3.113   3.670   3.824  0.6803 -1.7691 -0.4491
  156THF     O1 2016   5.073   1.212   1.897 -0.0458 -0.2602 -0.5464
  156THF     C2 2017   5.016   1.119   1.811 -0.6646  0.3118 -0.1007
  156THF     C3 2018   5.015   1.340   1.863 -0.4886 -0.6073  0.1491
  156THF     H4 2019   5.032   1.011   1.814  0.4044  0.4483 -0.5409
  156THF     H5 2020   5.047   1.150   1.711  0.1474 -0.1096  0.0063
  156THF     H6 2021   5.030   1.413   1.942  1.7104  0.1062 -0.8448
  156THF     H7 2022   5.070   1.383   1.779  0.9516  1.8903  2.1971
  156THF     C8 2023   4.868   1.310   1.837  0.0028  0.3137 -0.2936
  156THF     C9 2024   4.868   1.161   1.821  0.3495 -0.3412  0.7276
  156THF    H10 2025   4.821   1.370   1.759  0.6017  0.7579 -0.3252
  156THF    H11 2026   4.813   1.331   1.929  1.1770 -1.9467  1.0187
  156THF    H12 2027   4.808   1.125   1.904 -3.5312  1.7683 -0.9121
  156THF    H13 2028   4.814   1.133   1.730 -0.1355  1.0252  0.5758
  157THF     O1 2029   4.140   4.737   3.366 -0.3175 -0.7194  0.3515
  157THF     C2 2030   4.151   4.691   3.233 -0.5312  0.3403  0.2236
  157THF     C3 2031   4.029   4.828   3.373  0.5210 -0.1962  1.0197
  157THF     H4 2032   4.222   4.608   3.228  1.5842  2.1077 -1.0348
  157THF     H5 2033   4.183   4.768   3.163 -0.5719 -0.9684 -1.2984
  157THF     H6 2034   3.986   4.829   3.474  0.2923  0.0105  0.9212
  157THF     H7 2035   4.052   4.930   3.343 -2.7061 -0.1259 -1.7622
  157THF     C8 2036   3.923   4.765   3.270  0.2449 -0.1603 -0.5688
  157THF     C9 2037   4.008   4.652   3.205 -0.1097 -0.3341 -0.5660
  157THF    H10 2038   3.878   4.844   3.211 -1.1736  0.5280  1.3211
  157THF    H11 2039   3.845   4.722   3.333  0.5439  1.0575  0.6936
  157THF    H12 2040   3.992   4.553   3.246 -2.7339  0.1134 -0.3386
  157THF    H13 2041   3.992   4.646   3.098  1.4385  1.3945 -0.9588
  158THF     O1 2042   3.216   5.146   1.554  0.3864  0.1586 -0.0752
  158THF     C2 2043   3.345   5.122   1.502 -0.0455 -0.4165 -0.2446
  158THF     C3 2044   3.217   5.126   1.695 -1.0106 -0.0017  0.0636
  158THF     H4 2045   3.400   5.216   1.509 -0.7568  0.1771 -1.9755
  158THF     H5 2046   3.334   5.103   1.395 -2.9517  1.6241 -0.4287
  158THF     H6 2047   3.263   5.217   1.734  0.4173  0.1747 -1.8745
  158THF     H7 2048   3.116   5.100   1.728 -0.8438 -1.6488 -0.6115
  158THF     C8 2049   3.332   5.025   1.722 -0.2524 -0.0370  1.0319
  158THF     C9 2050   3.400   5.016   1.589 -0.4896  0.0001  0.2354
  158THF    H10 2051   3.307   4.924   1.755 -0.9648  0.1339  1.0362
  158THF    H11 2052   3.387   5.068   1.806 -1.1993  0.4630  1.4166
  158THF    H12 2053   3.509   5.019   1.578 -0.4211  0.8226  1.0057
  158THF    H13 2054   3.370   4.926   1.536 -2.4617  0.9758 -0.3841
  159THF     O1 2055   0.779   2.545   5.227 -0.3071 -0.0554 -0.3077
  159THF     C2 2056   0.645   2.548   5.178  0.0541 -0.8309  0.4040
  159THF     C3 2057   0.787   2.436   5.326 -0.4663 -0.1219 -0.6981
  159THF     H4 2058   0.627   2.599   5.083  3.7938 -2.7386 -1.5492
  159THF     H5 2059   0.566   2.571   5.249 -0.4408 -0.4634 -0.2480
  159THF     H6 2060   0.891   2.408   5.340 -0.7819 -1.9182 -1.6996
  159THF     H7 2061   0.741   2.464   5.421 -0.4871 -2.4345  0.0318
  159THF     C8 2062   0.709   2.327   5.259 -0.3121 -0.1210  1.2176
  159THF     C9 2063   0.626   2.395   5.154  0.1274  0.3670 -0.5460
  159THF    H10 2064   0.640   2.279   5.329 -1.9580  1.8827  1.0962
  159THF    H11 2065   0.785   2.265   5.212 -1.6270 -0.3637 -0.7113
  159THF    H12 2066   0.650   2.362   5.054  1.0004  1.3123 -0.6657
  159THF    H13 2067   0.526   2.354   5.170 -0.3691  1.4961 -0.6472
  160THF     O1 2068   3.855   5.258   2.524  0.8708 -0.1494  0.4433
  160THF     C2 2069   3.909   5.391   2.545  0.1781  0.0586  0.1526
  160THF     C3 2070   3.764   5.222   2.631  0.0805  0.0045 -0.1908
  160THF     H4 2071   3.847   5.462   2.491  0.1287 -0.0845  0.0210
  160THF     H5 2072   4.009   5.387   2.501 -0.1652 -1.3260 -0.5533
  160THF     H6 2073   3.663   5.259   2.614 -0.8733 -1.5834  1.6194
  160THF     H7 2074   3.763   5.114   2.640 -0.3290  0.0707  0.6777
  160THF     C8 2075   3.831   5.285   2.748  0.1610 -0.7230 -0.0810
  160THF     C9 2076   3.898   5.412   2.696 -0.2610  0.5718 -0.0045
  160THF    H10 2077   3.897   5.208   2.788 -0.1763  0.6919  3.5880
  160THF    H11 2078   3.760   5.296   2.829  0.1213 -1.6353  0.0212
  160THF    H12 2079   3.824   5.491   2.707  0.4396  1.0945  1.0454
  160THF    H13 2080   3.991   5.445   2.742  1.1849 -0.0555 -2.3062
  161THF     O1 2081   3.113   2.429   4.575 -0.6969 -0.6233  0.5430
  161THF     C2 2082   3.004   2.483   4.505  0.0552  0.3583  0.0553
  161THF     C3 2083   3.188   2.539   4.630 -0.3927  0.5763 -0.1492
  161THF     H4 2084   2.917   2.489   4.569 -1.4969 -0.4532 -1.8599
  161THF     H5 2085   2.984   2.414   4.422 -0.1287 -0.5930  0.8765
  161THF     H6 2086   3.134   2.575   4.718  1.2636 -1.5282  1.8358
  161THF     H7 2087   3.282   2.493   4.661 -1.1797 -1.9596 -1.2748
  161THF     C8 2088   3.186   2.644   4.520  0.4067 -0.5310  0.0245
  161THF     C9 2089   3.053   2.623   4.459 -0.1551  0.0508 -0.7578
  161THF    H10 2090   3.272   2.618   4.459  0.3563 -1.5702  0.3726
  161THF    H11 2091   3.197   2.743   4.563  2.5838  0.8382 -3.2532
  161THF    H12 2092   2.977   2.697   4.484 -1.6958 -1.5438 -0.5014
  161THF    H13 2093   3.066   2.623   4.350  2.6147 -0.3094 -0.5063
  162THF     O1 2094   0.619   0.137   1.588 -0.1688  0.1319  0.3238
  162THF     C2 2095   0.578   0.035   1.497 -1.0987  0.4532  0.5453
  162THF     C3 2096   0.599   0.266   1.521  0.1018 -0.2516  0.1842
  162THF     H4 2097   0.521  -0.039   1.553  1.3080 -1.5410  0.5329
  162THF     H5 2098   0.667  -0.022   1.471 -0.6614  0.3833  2.1446
  162THF     H6 2099   0.572   0.337   1.599  1.0482  0.0271  0.2712
  162THF     H7 2100   0.688   0.283   1.460 -0.9353  0.7473 -1.0803
  162THF     C8 2101   0.491   0.245   1.425  0.3472  0.5993 -0.0255
  162THF     C9 2102   0.516   0.103   1.376  0.2460 -0.2736 -0.2105
  162THF    H10 2103   0.492   0.319   1.345  2.2454  0.2452 -0.3689
  162THF    H11 2104   0.395   0.244   1.478  0.2012  2.8042 -0.1350
  162THF    H12 2105   0.424   0.056   1.341  1.3795 -2.9709  0.1861
  162THF    H13 2106   0.588   0.110   1.295 -0.2092 -0.3992 -0.6320
  163THF     O1 2107   2.774   4.094   1.530 -0.2354 -0.3268 -0.0958
  163THF     C2 2108   2.695   4.151   1.418 -0.0800  0.6655  0.4967
  163THF     C3 2109   2.750   4.179   1.634  0.9885  0.7326 -0.1920
  163THF     H4 2110   2.670   4.084   1.336  0.7293 -0.5580  1.2281
  163THF     H5 2111   2.759   4.231   1.381  0.2222 -0.2913 -1.1181
  163THF     H6 2112   2.793   4.139   1.726  1.3961  1.5075 -0.0370
  163THF     H7 2113   2.791   4.280   1.626  1.8295  0.4613  0.5087
  163THF     C8 2114   2.603   4.204   1.628  0.1617  0.3480 -0.0042
  163THF     C9 2115   2.575   4.220   1.476  0.2373  0.0250  0.6118
  163THF    H10 2116   2.567   4.287   1.689  0.7806  0.6923 -0.1002
  163THF    H11 2117   2.547   4.119   1.668  2.3130 -0.8966  0.5045
  163THF    H12 2118   2.479   4.187   1.437  0.0465  1.5717 -0.3267
  163THF    H13 2119   2.575   4.323   1.440  3.1570  0.4880  1.7380
  164THF     O1 2120   1.776   3.452   1.056 -0.2703  0.1113  0.0195
  164THF     C2 2121   1.724   3.322   1.076 -0.2302 -0.0811  0.0472
  164THF     C3 2122   1.673   3.554   1.053  0.5141 -0.3563 -0.2129
  164THF     H4 2123   1.803   3.252   1.102 -0.5634 -0.0955  1.0493
  164THF     H5 2124   1.670   3.292   0.986  3.5891  0.2176 -2.6445
  164THF     H6 2125   1.727   3.642   1.087  0.8309 -1.0719  1.2101
  164THF     H7 2126   1.621   3.553   0.956 -1.6843 -2.0508  0.8828
  164THF     C8 2127   1.574   3.492   1.154  0.4349  0.1327 -0.6018
  164THF     C9 2128   1.632   3.352   1.190 -0.2846 -0.2403 -0.7186
  164THF    H10 2129   1.474   3.490   1.112 -1.0795 -1.6870  2.6805
  164THF    H11 2130   1.579   3.561   1.238 -1.0310 -0.2450 -0.1777
  164THF    H12 2131   1.698   3.365   1.276  0.0954  0.3593 -1.0966
  164THF    H13 2132   1.560   3.276   1.220  1.0681 -1.6237 -0.8182
  165THF     O1 2133   0.728   2.888   4.980  0.0766  0.2256  0.5174
  165THF     C2 2134   0.742   3.012   4.918  0.6328 -0.5298  0.5212
  165THF     C3 2135   0.858   2.833   5.000  0.0398  0.3044  0.4316
  165THF     H4 2136   0.768   3.079   5.000 -1.2344 -0.4699  1.1026
  165THF     H5 2137   0.650   3.051   4.876  1.5546 -0.2570 -1.3613
  165THF     H6 2138   0.900   2.879   5.090  1.2309 -0.9052  0.5255
  165THF     H7 2139   0.847   2.725   5.010  0.7344  0.1119 -0.7765
  165THF     C8 2140   0.934   2.870   4.875  0.0993  0.0702  0.0979
  165THF     C9 2141   0.852   2.982   4.809  0.2859  0.1286  0.2508
  165THF    H10 2142   0.937   2.781   4.813  0.8376 -1.1959  1.8755
  165THF    H11 2143   1.040   2.890   4.886  0.5072 -1.0891 -1.3881
  165THF    H12 2144   0.903   3.073   4.775 -2.6630  1.7552 -0.1700
  165THF    H13 2145   0.813   2.928   4.722  1.1752 -2.5442  1.4274
  166THF     O1 2146   4.733   0.929   0.578  0.0620 -0.2015  0.2213
  166THF     C2 2147   4.676   0.805   0.557 -0.3644  0.8274 -0.1439
  166THF     C3 2148   4.621   1.018   0.543  0.2086 -0.1137  0.8020
  166THF     H4 2149   4.730   0.727   0.611 -1.6640  1.0822  1.6328
  166THF     H5 2150   4.665   0.788   0.450 -0.8860 -0.0753  0.0496
  166THF     H6 2151   4.648   1.121   0.568  1.3331 -1.1246  4.2942
  166THF     H7 2152   4.604   1.018   0.435  0.3765  1.9318  0.7240
  166THF     C8 2153   4.503   0.955   0.613 -0.1447  0.1536 -0.6351
  166THF     C9 2154   4.542   0.806   0.621 -0.3321  0.0525  0.2297
  166THF    H10 2155   4.408   0.964   0.559 -0.1330  0.0663 -0.6709
  166THF    H11 2156   4.497   1.001   0.711  1.1953 -0.8704 -0.0366
  166THF    H12 2157   4.550   0.773   0.725  0.5477 -1.0567 -0.1669
  166THF    H13 2158   4.470   0.749   0.563  0.7332 -0.3425 -0.7398
  167THF     O1 2159   2.998   0.676   0.609  0.6997 -0.4158  0.3186
  167THF     C2 2160   2.938   0.710   0.727  1.2136  0.0033 -0.6510
  167THF     C3 2161   3.129   0.725   0.617 -0.4921  0.2160 -0.4709
  167THF     H4 2162   2.853   0.652   0.763  0.7973  0.7409 -0.4503
  167THF     H5 2163   2.909   0.814   0.714  2.1714  0.6608  1.9679
  167THF     H6 2164   3.195   0.661   0.557 -0.0532 -1.0417  1.2758
  167THF     H7 2165   3.136   0.821   0.566 -0.0331 -0.2631 -1.3490
  167THF     C8 2166   3.173   0.723   0.761  0.5203 -0.4285 -0.0953
  167THF     C9 2167   3.047   0.694   0.839  0.3074  0.2910  0.5622
  167THF    H10 2168   3.199   0.828   0.776 -1.0919  0.2395 -1.5772
  167THF    H11 2169   3.254   0.653   0.782 -1.4169 -3.4869 -1.9548
  167THF    H12 2170   3.046   0.594   0.883  0.7177 -0.4055 -0.9305
  167THF    H13 2171   3.031   0.761   0.924 -1.5945  2.3819 -1.3302
  168THF     O1 2172   1.111   1.938   2.898 -0.7145 -0.7795 -0.0096
  168THF     C2 2173   1.154   2.046   2.979  0.7249  0.1386 -0.1282
  168THF     C3 2174   1.101   1.985   2.758 -0.5330  0.0020 -0.4659
  168THF     H4 2175   1.251   2.016   3.019  0.2345  1.0939  1.9011
  168THF     H5 2176   1.088   2.064   3.064  0.3000  0.8396 -0.5901
  168THF     H6 2177   1.137   1.915   2.682 -1.1765 -0.0285 -0.7533
  168THF     H7 2178   0.996   2.015   2.745 -1.3036 -2.0742  0.5416
  168THF     C8 2179   1.196   2.110   2.745  0.4297  0.0529 -0.1660
  168THF     C9 2180   1.174   2.174   2.883 -0.0726 -0.1310  0.1961
  168THF    H10 2181   1.161   2.177   2.666 -2.6029 -0.0088  0.9828
  168THF    H11 2182   1.297   2.076   2.726  0.2963 -0.2198 -0.3970
  168THF    H12 2183   1.240   2.250   2.925  2.2545 -1.5499 -0.6983
  168THF    H13 2184   1.076   2.221   2.874 -1.2242 -2.2312  1.1023
  169THF     O1 2185   3.123   1.031   2.994 -0.2448 -1.0014 -0.0584
  169THF     C2 2186   3.191   0.929   2.917 -0.0685  0.6193 -0.0998
  169THF     C3 2187   3.215   1.082   3.094  0.0141  0.6842  0.1026
  169THF     H4 2188   3.155   0.920   2.815 -0.1461  0.1521 -0.0345
  169THF     H5 2189   3.172   0.831   2.961 -1.3200 -0.2654 -2.4293
  169THF     H6 2190   3.174   1.177   3.128 -4.1824 -0.3588 -1.4979
  169THF     H7 2191   3.214   1.022   3.184  0.7812  1.6083  0.7558
  169THF     C8 2192   3.342   1.098   3.021 -0.6118  0.4054 -0.1385
  169THF     C9 2193   3.341   0.971   2.937 -0.1643  0.2021  0.4896
  169THF    H10 2194   3.427   1.113   3.087  1.6038  2.0456 -3.1498
  169THF    H11 2195   3.347   1.174   2.944  2.2619  0.3817 -0.0816
  169THF    H12 2196   3.387   0.999   2.843 -0.4486  1.2933  0.6612
  169THF    H13 2197   3.409   0.894   2.973 -0.2259 -0.9349 -1.6671
  170THF     O1 2198   2.882   2.423   1.737  0.0467  0.1021 -0.1076
  170THF     C2 2199   2.769   2.342   1.745  0.3257  0.1325  0.3066
  170THF     C3 2200   2.992   2.348   1.684  0.3933 -0.0206 -0.4406
  170THF     H4 2201   2.713   2.342   1.651  1.4834  2.5825 -0.4821
  170THF     H5 2202   2.700   2.383   1.819  0.9040 -1.1944  1.6301
  170THF     H6 2203   2.992   2.339   1.575  0.2837 -1.6371 -0.3313
  170THF     H7 2204   3.079   2.390   1.735  0.9465 -0.9036 -0.6228
  170THF     C8 2205   2.971   2.208   1.747  0.3192 -0.2586 -0.4795
  170THF     C9 2206   2.828   2.207   1.795  0.6104  0.1736 -0.2681
  170THF    H10 2207   3.037   2.205   1.834  0.7242  1.2882 -0.7046
  170THF    H11 2208   2.987   2.128   1.675  0.1021  0.3319 -1.2036
  170THF    H12 2209   2.779   2.116   1.760  0.5034 -1.4509  3.6366
  170THF    H13 2210   2.833   2.193   1.903  1.3369 -0.6445 -0.3924
  171THF     O1 2211   2.238   5.049   5.049 -0.4026  0.1831 -0.2494
  171THF     C2 2212   2.110   5.015   5.110 -0.0548 -0.8134  0.0346
  171THF     C3 2213   2.263   4.958   4.944  0.9461 -0.2616  0.1805
  171THF     H4 2214   2.066   5.100   5.162 -2.1610 -1.1015 -1.1718
  171THF     H5 2215   2.115   4.938   5.188  1.0251  1.7335  2.6536
  171THF     H6 2216   2.342   4.992   4.877  0.7071 -2.9972 -1.6576
  171THF     H7 2217   2.288   4.861   4.987  0.3100  0.3570  2.0460
  171THF     C8 2218   2.124   4.931   4.881 -0.7173  0.0286  0.2583
  171THF     C9 2219   2.022   4.968   4.991 -0.2868  0.6626 -0.1678
  171THF    H10 2220   2.121   4.826   4.852  2.9152 -0.4482  1.1270
  171THF    H11 2221   2.111   4.990   4.791 -1.8348 -3.1744 -1.8620
  171THF    H12 2222   1.963   5.053   4.957 -1.3409 -0.8153 -2.2997
  171THF    H13 2223   1.951   4.886   5.007 -1.1342  1.3327 -0.4246
  172THF     O1 2224   3.831   2.150   5.035  0.1708 -0.0675  0.2046
  172THF     C2 2225   3.891   2.052   5.124  0.0077  0.1224  0.3847
  172THF     C3 2226   3.903   2.269   5.072 -0.5362 -0.0868 -0.2397
  172THF     H4 2227   3.869   1.953   5.086  0.4543  0.4211 -0.6817
  172THF     H5 2228   3.844   2.066   5.221 -1.4067  3.8047 -0.6477
  172THF     H6 2229   3.901   2.350   4.999 -0.6289  0.6884  0.6129
  172THF     H7 2230   3.885   2.301   5.174  0.4155  0.4659 -0.2286
  172THF     C8 2231   4.049   2.222   5.082 -0.0344  0.2902 -0.5234
  172THF     C9 2232   4.045   2.078   5.129 -0.5033  0.6977  0.0551
  172THF    H10 2233   4.113   2.281   5.147 -0.9137 -0.5618  1.1734
  172THF    H11 2234   4.091   2.241   4.983  0.4756  0.8082 -0.2122
  172THF    H12 2235   4.089   2.017   5.050  0.2991  3.9106 -2.1581
  172THF    H13 2236   4.084   2.067   5.230 -1.7005  0.9571  0.5678
  173THF     O1 2237   2.997   5.309   1.159  0.2004  0.4442 -0.1079
  173THF     C2 2238   3.057   5.317   1.028  0.3574 -0.2567  0.0541
  173THF     C3 2239   3.088   5.248   1.244 -0.4985  0.3948  1.2679
  173THF     H4 2240   3.122   5.404   1.028  2.3378 -1.6561  0.9791
  173THF     H5 2241   2.985   5.328   0.947 -0.2415  2.0530  0.8331
  173THF     H6 2242   3.146   5.336   1.272 -0.6662  1.2469 -0.8596
  173THF     H7 2243   3.037   5.209   1.332 -1.0368  1.1521  1.3014
  173THF     C8 2244   3.166   5.142   1.155  0.0707  0.3636  0.6339
  173THF     C9 2245   3.123   5.179   1.010  0.3439 -0.7891  0.1627
  173THF    H10 2246   3.154   5.040   1.191  0.0929  0.0382 -0.2403
  173THF    H11 2247   3.272   5.165   1.163  0.2035  0.6029 -1.2416
  173THF    H12 2248   3.204   5.181   0.937 -1.4143 -0.5842 -1.8917
  173THF    H13 2249   3.056   5.098   0.979 -0.9397 -0.0529  0.9308
  174THF     O1 2250   2.560   1.777   3.692 -0.0884 -0.3242 -0.0346
  174THF     C2 2251   2.554   1.639   3.676 -0.0251  0.3558  0.7045
  174THF     C3 2252   2.447   1.834   3.623 -0.4814 -0.0250  0.3690
  174THF     H4 2253   2.620   1.585   3.745  0.6069 -0.2355 -0.3403
  174THF     H5 2254   2.599   1.618   3.579  0.7698  2.0192  0.6874
  174THF     H6 2255   2.403   1.925   3.663  1.2746  0.1950  1.9302
  174THF     H7 2256   2.483   1.852   3.522 -0.5918  1.3412  0.5601
  174THF     C8 2257   2.345   1.712   3.609 -0.4210 -0.5495  0.5482
  174THF     C9 2258   2.408   1.601   3.689  0.1089 -0.7818  0.2388
  174THF    H10 2259   2.341   1.686   3.503  1.3218  2.8029 -0.5093
  174THF    H11 2260   2.250   1.752   3.646 -0.7732 -0.4802 -0.3858
  174THF    H12 2261   2.382   1.619   3.793  1.4197 -0.7574  0.5786
  174THF    H13 2262   2.388   1.497   3.663  0.1572 -0.4446 -1.2466
  175THF     O1 2263   2.225   0.247   4.951  0.5032  0.1130  0.2217
  175THF     C2 2264   2.363   0.284   4.963  0.3251 -0.3728 -0.4523
  175THF     C3 2265   2.204   0.142   4.855 -0.0840 -0.6877 -0.0111
  175THF     H4 2266   2.379   0.321   5.064  1.5527  0.7350 -1.0217
  175THF     H5 2267   2.394   0.358   4.889  1.4141 -0.3980 -0.0324
  175THF     H6 2268   2.139   0.066   4.897 -1.3246  0.0239 -0.5808
  175THF     H7 2269   2.167   0.187   4.763  0.3142 -1.3952 -0.5267
  175THF     C8 2270   2.347   0.093   4.829  0.1626 -0.3300 -0.3784
  175THF     C9 2271   2.428   0.149   4.944  0.6167  0.7514  0.2096
  175THF    H10 2272   2.393   0.128   4.736  1.4534  0.7395  0.6232
  175THF    H11 2273   2.349  -0.015   4.824  0.6998 -0.3261 -0.2282
  175THF    H12 2274   2.426   0.094   5.038 -0.7473  0.8648  0.2640
  175THF    H13 2275   2.532   0.159   4.912  0.0927 -0.4017 -2.0405
  176THF     O1 2276   1.293   5.347   1.527  0.2004  0.1688  0.5868
  176THF     C2 2277   1.204   5.239   1.507  0.5181  0.3512 -1.0850
  176THF     C3 2278   1.361   5.368   1.407  0.9504  0.5837  0.0225
  176THF     H4 2279   1.124   5.247   1.580  0.8330 -1.0534 -0.5584
  176THF     H5 2280   1.250   5.141   1.512  1.0073  0.5807 -1.0235
  176THF     H6 2281   1.406   5.467   1.398 -1.7426  1.7772 -1.4838
  176THF     H7 2282   1.441   5.293   1.408  2.0318  1.7092 -0.1658
  176THF     C8 2283   1.242   5.354   1.303 -0.2593 -1.1590 -0.3382
  176THF     C9 2284   1.141   5.259   1.364  0.4350  0.1933  0.1621
  176THF    H10 2285   1.274   5.325   1.203  0.3387  1.1113 -0.8468
  176THF    H11 2286   1.204   5.456   1.303  1.4304 -0.4665  1.2818
  176THF    H12 2287   1.046   5.313   1.370 -0.7054 -1.7550  0.5181
  176THF    H13 2288   1.138   5.165   1.310 -0.1420 -0.7763  1.8132
  177THF     O1 2289   4.868   1.493   5.297 -0.3115  0.0756  0.4533
  177THF     C2 2290   4.755   1.503   5.380 -0.2918 -0.5225  0.0843
  177THF     C3 2291   4.885   1.622   5.227  0.0753  0.3090  0.3482
  177THF     H4 2292   4.776   1.439   5.466 -2.3284 -0.2285  0.8466
  177THF     H5 2293   4.666   1.457   5.336 -0.0671 -1.1823  0.3065
  177THF     H6 2294   4.982   1.619   5.178  0.2252 -2.0478  0.6515
  177THF     H7 2295   4.806   1.628   5.152  0.4963  0.1903 -0.1093
  177THF     C8 2296   4.856   1.715   5.352 -0.4014 -0.1059 -0.2038
  177THF     C9 2297   4.739   1.651   5.409 -0.5834  0.4615 -0.2568
  177THF    H10 2298   4.832   1.819   5.333  0.7538  0.2653  0.2563
  177THF    H11 2299   4.938   1.705   5.424 -0.6948  0.5033  0.2187
  177THF    H12 2300   4.722   1.674   5.514 -0.5359  2.3371 -0.6313
  177THF    H13 2301   4.644   1.675   5.362 -0.9379 -1.9318 -0.9204
  178THF     O1 2302   3.435   2.137   4.829  0.7817 -0.1767  1.0628
  178THF     C2 2303   3.493   2.159   4.952  0.5295 -0.0964 -0.5379
  178THF     C3 2304   3.413   2.263   4.760 -0.5843 -0.0333 -0.5047
  178THF     H4 2305   3.597   2.127   4.961  0.3586 -0.2210  1.1786
  178THF     H5 2306   3.444   2.108   5.035  0.4862  0.1128 -0.4358
  178THF     H6 2307   3.435   2.255   4.654  0.5635  1.8335 -0.4587
  178THF     H7 2308   3.308   2.286   4.772  0.2183  4.4420 -0.2489
  178THF     C8 2309   3.494   2.357   4.845  0.1057  0.2444 -0.2837
  178THF     C9 2310   3.488   2.307   4.984  0.1799 -0.3262  0.1774
  178THF    H10 2311   3.456   2.459   4.839  0.9958  0.6096  0.1418
  178THF    H11 2312   3.596   2.352   4.807  1.0725  2.2451  1.8270
  178THF    H12 2313   3.573   2.328   5.049  0.0870  0.3093  0.0937
  178THF    H13 2314   3.395   2.329   5.037  0.9251 -1.0626  1.8691
  179THF     O1 2315   0.729   0.119   0.703  0.4213 -0.0063  0.1471
  179THF     C2 2316   0.640   0.070   0.599  0.2395 -0.1390 -0.2161
  179THF     C3 2317   0.742   0.262   0.678  0.2610 -0.1420  0.0288
  179THF     H4 2318   0.587  -0.024   0.613 -0.6447  0.2915 -0.5862
  179THF     H5 2319   0.706   0.067   0.513  1.5408 -2.7029  0.7670
  179THF     H6 2320   0.771   0.323   0.764 -2.2457  2.0221 -0.5291
  179THF     H7 2321   0.806   0.286   0.594  0.5932  3.8915  1.2159
  179THF     C8 2322   0.603   0.304   0.632  0.3262  0.0527 -0.2303
  179THF     C9 2323   0.541   0.179   0.575 -0.0622 -0.2332  0.4534
  179THF    H10 2324   0.598   0.386   0.560 -0.3867  0.3822  0.1780
  179THF    H11 2325   0.527   0.324   0.707 -1.8580 -1.0915 -2.0167
  179THF    H12 2326   0.442   0.162   0.618 -0.4262  1.0867  0.1806
  179THF    H13 2327   0.522   0.189   0.468  1.3179 -0.6560  0.1513
  180THF     O1 2328   1.875   1.740   5.132 -0.4144 -0.0592 -0.0995
  180THF     C2 2329   1.883   1.602   5.130 -0.5311  0.5857  0.3558
  180THF     C3 2330   1.996   1.809   5.084 -0.1544  0.2154  0.2911
  180THF     H4 2331   1.781   1.571   5.108 -0.5634  1.8304 -1.5056
  180THF     H5 2332   1.921   1.552   5.219 -1.3386 -1.5640 -0.4233
  180THF     H6 2333   1.981   1.906   5.037 -0.7024  1.3852  2.7418
  180THF     H7 2334   2.064   1.816   5.168 -1.4627  1.4487  1.2770
  180THF     C8 2335   2.048   1.709   4.981  0.0831  1.1488  0.3678
  180THF     C9 2336   1.986   1.570   5.017  0.5488  0.0094  0.3968
  180THF    H10 2337   2.156   1.696   4.990 -0.0252  0.6299  1.0038
  180THF    H11 2338   2.036   1.730   4.875 -0.8162  1.0186  0.4354
  180THF    H12 2339   1.939   1.500   4.949 -1.2090 -0.3349  1.8767
  180THF    H13 2340   2.064   1.504   5.054 -1.0082 -1.3900  1.3207
  181THF     O1 2341   2.193   3.471   1.184  0.1335 -0.4162 -0.6389
  181THF     C2 2342   2.257   3.410   1.292  0.3580 -0.0530 -0.4781
  181THF     C3 2343   2.058   3.424   1.191  0.6580 -1.1633  0.2092
  181THF     H4 2344   2.270   3.474   1.380  1.7297 -1.3168  0.2787
  181THF     H5 2345   2.357   3.380   1.261  0.9912  1.0967  0.3830
  181THF     H6 2346   2.010   3.505   1.245  0.3308 -1.1960 -0.0343
  181THF     H7 2347   2.012   3.425   1.092 -0.6396 -1.5749  0.7874
  181THF     C8 2348   2.039   3.304   1.274  0.0140  0.6592 -0.4346
  181THF     C9 2349   2.174   3.285   1.337  0.0510  0.3644  0.3609
  181THF    H10 2350   2.011   3.213   1.222  2.1555 -0.3542  0.0700
  181THF    H11 2351   1.965   3.329   1.350 -0.5018  0.3834 -0.8417
  181THF    H12 2352   2.168   3.279   1.446  0.1489 -0.3028  0.3341
  181THF    H13 2353   2.221   3.189   1.316  1.2914  0.8584  0.7370
  182THF     O1 2354   3.784   3.855   3.748  0.4292  0.4178 -0.7996
  182THF     C2 2355   3.831   3.969   3.816  0.2779 -0.8001  0.0775
  182THF     C3 2356   3.869   3.840   3.640  0.1034 -0.3858 -0.0679
  182THF     H4 2357   3.896   3.931   3.895  0.3569 -1.4788 -0.3047
  182THF     H5 2358   3.743   4.015   3.861 -0.6523 -0.8850 -1.5603
  182THF     H6 2359   3.959   3.792   3.680 -1.2837 -0.6412  2.9264
  182THF     H7 2360   3.827   3.775   3.563  0.2241  0.4295 -0.8402
  182THF     C8 2361   3.890   3.986   3.587 -0.6073  0.0411 -0.4426
  182THF     C9 2362   3.906   4.057   3.715  0.4108  0.7326 -0.5268
  182THF    H10 2363   3.798   4.011   3.534 -0.6279 -1.4013 -1.1319
  182THF    H11 2364   3.971   3.994   3.515  0.6380  0.7230  0.9941
  182THF    H12 2365   4.010   4.065   3.745 -0.0184 -0.8275  1.6069
  182THF    H13 2366   3.860   4.156   3.706 -2.8866 -0.8185 -2.9324
  183THF     O1 2367   3.418   2.648   1.631 -0.5210 -0.4292  0.3567
  183THF     C2 2368   3.400   2.619   1.496  0.5776 -0.1906  0.8134
  183THF     C3 2369   3.292   2.656   1.698 -0.3446  0.7930 -0.2246
  183THF     H4 2370   3.396   2.511   1.487 -2.4585 -0.1117 -0.1408
  183THF     H5 2371   3.477   2.655   1.429  1.7956 -0.6361  1.9399
  183THF     H6 2372   3.248   2.563   1.733  0.6177 -0.2834 -1.7490
  183THF     H7 2373   3.300   2.727   1.780  1.3799  0.9877 -0.5305
  183THF     C8 2374   3.207   2.727   1.599  0.6213  0.0686 -0.1677
  183THF     C9 2375   3.265   2.686   1.464  0.3523 -0.0473 -0.4518
  183THF    H10 2376   3.228   2.833   1.612  0.0762  0.0542  0.9539
  183THF    H11 2377   3.101   2.702   1.612  0.5361 -0.0564 -1.0583
  183THF    H12 2378   3.207   2.613   1.407  1.0441 -0.8327 -0.1817
  183THF    H13 2379   3.284   2.775   1.405  0.2797  0.1780 -0.1357
  184THF     O1 2380   0.770   0.820   4.151  0.4889 -0.7547  1.1276
  184THF     C2 2381   0.875   0.912   4.149  0.6352 -0.1830 -0.2692
  184THF     C3 2382   0.772   0.771   4.284  0.9187 -0.3079  0.1252
  184THF     H4 2383   0.863   0.982   4.066  1.1236 -1.8252 -1.7806
  184THF     H5 2384   0.968   0.856   4.136  0.4751 -0.0720 -2.1456
  184THF     H6 2385   0.671   0.730   4.289  0.3926  0.7457 -1.2849
  184THF     H7 2386   0.839   0.687   4.303  1.3781  0.2012  0.7695
  184THF     C8 2387   0.802   0.891   4.372 -0.4455  0.5042 -0.4818
  184THF     C9 2388   0.869   0.994   4.281  0.2797 -0.0977  0.7353
  184THF    H10 2389   0.860   0.832   4.443 -3.6343 -0.5977  1.4059
  184THF    H11 2390   0.719   0.934   4.428 -0.2735 -1.7503  1.6523
  184THF    H12 2391   0.806   1.080   4.259  1.7122  0.4241 -1.8196
  184THF    H13 2392   0.968   1.029   4.311  1.5595  0.3059 -3.3084
  185THF     O1 2393   4.309   3.473   4.667  0.3483  0.5689 -0.3872
  185THF     C2 2394   4.227   3.568   4.598  0.2764 -0.0791  0.6332
  185THF     C3 2395   4.378   3.401   4.571 -0.4581  0.5266  0.2214
  185THF     H4 2396   4.218   3.662   4.653 -0.8599  0.3059 -0.1895
  185THF     H5 2397   4.130   3.524   4.576  0.7138 -0.7924  0.0629
  185THF     H6 2398   4.472   3.363   4.612  0.1317  0.8225 -0.8185
  185THF     H7 2399   4.315   3.317   4.542  0.5769  0.6605 -2.8266
  185THF     C8 2400   4.386   3.476   4.441 -0.5752  0.3001  1.1159
  185THF     C9 2401   4.299   3.601   4.463 -0.5206  0.3042  0.1777
  185THF    H10 2402   4.336   3.423   4.360  0.3080  1.9984 -0.6189
  185THF    H11 2403   4.490   3.498   4.418 -0.6910 -0.3565 -0.1726
  185THF    H12 2404   4.365   3.684   4.485 -0.7405  0.3029  0.9021
  185THF    H13 2405   4.245   3.624   4.371  1.0747  0.9590 -0.6208
  186THF     O1 2406   4.548   1.002   4.257 -0.7052 -0.7125 -0.1155
  186THF     C2 2407   4.578   0.937   4.137 -0.4612  0.0465 -0.5718
  186THF     C3 2408   4.668   0.992   4.329 -0.1489  0.0294 -0.9330
  186THF     H4 2409   4.500   0.933   4.061 -0.2072 -0.1508 -0.8262
  186THF     H5 2410   4.589   0.831   4.161  0.2289  0.3033  0.3320
  186THF     H6 2411   4.666   1.069   4.406  0.7850  0.6186 -1.4859
  186THF     H7 2412   4.690   0.893   4.369 -1.6708  0.7063  1.8185
  186THF     C8 2413   4.762   1.046   4.235 -0.0584  0.3876 -0.0913
  186THF     C9 2414   4.717   1.004   4.105  0.2201  0.3720  0.4449
  186THF    H10 2415   4.858   1.002   4.261  0.1102 -0.6283 -2.2257
  186THF    H11 2416   4.770   1.155   4.236  0.7190  0.3940 -1.8283
  186THF    H12 2417   4.709   1.087   4.035  0.8741  1.8634  2.0653
  186THF    H13 2418   4.779   0.933   4.051 -2.5966 -0.1248 -2.4477
  187THF     O1 2419   5.471   5.289   0.888  0.3234  0.1910 -0.6804
  187THF     C2 2420   5.423   5.381   0.785  0.8465 -0.2169  0.1023
  187THF     C3 2421   5.606   5.253   0.862 -0.1625 -0.0105 -0.7297
  187THF     H4 2422   5.447   5.483   0.816  0.7009 -0.6527  1.7418
  187THF     H5 2423   5.316   5.389   0.768  0.8499 -0.2882  0.0482
  187THF     H6 2424   5.667   5.280   0.948 -1.7243 -1.0681  0.7776
  187THF     H7 2425   5.610   5.144   0.869 -2.1515 -0.0794  0.0207
  187THF     C8 2426   5.645   5.307   0.729  0.5781  0.6569 -1.1023
  187THF     C9 2427   5.511   5.354   0.670 -0.6451 -0.4099  0.3361
  187THF    H10 2428   5.704   5.248   0.659  0.4374  0.3191 -0.9365
  187THF    H11 2429   5.719   5.387   0.732  3.1406 -1.5271 -2.0623
  187THF    H12 2430   5.499   5.442   0.606 -2.8569 -2.3042 -2.0380
  187THF    H13 2431   5.460   5.268   0.626  0.2014 -0.5176 -0.4522
  188THF     O1 2432   0.358   0.733   0.294  0.0625 -0.0646 -0.5304
  188THF     C2 2433   0.491   0.774   0.332  0.5836 -0.7691 -0.0217
  188THF     C3 2434   0.359   0.598   0.247 -0.6804 -0.6465  1.0672
  188THF     H4 2435   0.498   0.835   0.422  2.1747  0.9133 -1.2032
  188THF     H5 2436   0.540   0.829   0.251  0.8001 -2.4060 -1.0585
  188THF     H6 2437   0.323   0.527   0.320  0.2160  0.5721  2.7634
  188THF     H7 2438   0.306   0.599   0.152  1.4546  1.7320 -0.2371
  188THF     C8 2439   0.509   0.572   0.223  0.5981  0.4839  0.1460
  188THF     C9 2440   0.571   0.639   0.336 -0.4726  0.7285  0.6538
  188THF    H10 2441   0.550   0.597   0.125 -2.5867  2.5341 -0.8012
  188THF    H11 2442   0.522   0.464   0.217 -2.4788  0.1036 -1.2441
  188THF    H12 2443   0.552   0.599   0.436 -0.3838  0.1740  0.4521
  188THF    H13 2444   0.679   0.646   0.322 -0.7453  0.9044 -1.7085
  189THF     O1 2445   3.589   0.897   0.628  0.2384  0.2730  0.5118
  189THF     C2 2446   3.664   0.797   0.685  0.6425  0.8137 -0.6817
  189THF     C3 2447   3.489   0.826   0.553 -0.0689  0.0409  0.2572
  189THF     H4 2448   3.610   0.768   0.775  1.6064  2.4502  0.4705
  189THF     H5 2449   3.763   0.831   0.715  1.9553 -3.2669  0.3043
  189THF     H6 2450   3.411   0.789   0.621 -0.5494 -0.1724 -0.3940
  189THF     H7 2451   3.449   0.897   0.481 -0.9571 -0.0522  0.6357
  189THF     C8 2452   3.557   0.708   0.487 -0.0571 -0.9815 -0.0233
  189THF     C9 2453   3.665   0.675   0.588 -0.1239 -0.3262 -0.4956
  189THF    H10 2454   3.606   0.737   0.394 -1.5852 -0.1512 -0.5921
  189THF    H11 2455   3.494   0.623   0.461  0.0256 -1.7227  2.0331
  189THF    H12 2456   3.632   0.592   0.651 -1.5809  1.2931  0.9782
  189THF    H13 2457   3.760   0.649   0.542 -1.0336 -2.3501 -1.3554
  190THF     O1 2458   0.470   4.326   3.154  0.2474  0.1592  0.2265
  190THF     C2 2459   0.392   4.440   3.182  0.4265  0.1409 -0.2964
  190THF     C3 2460   0.512   4.261   3.278 -0.2784 -0.1742  0.3566
  190THF     H4 2461   0.286   4.426   3.205  1.0615 -2.2576  1.5982
  190THF     H5 2462   0.394   4.503   3.093  2.5733  0.9926  0.2931
  190THF     H6 2463   0.434   4.202   3.326  1.1801 -1.2812  1.4592
  190THF     H7 2464   0.591   4.188   3.262 -1.8532 -1.5587 -1.6619
  190THF     C8 2465   0.553   4.387   3.355 -0.6960  1.1095  0.1400
  190THF     C9 2466   0.463   4.495   3.307  0.0612  0.3553  0.4544
  190THF    H10 2467   0.656   4.414   3.332 -0.5237  1.4382  1.2352
  190THF    H11 2468   0.552   4.353   3.458  0.1397 -1.4699 -0.6419
  190THF    H12 2469   0.392   4.513   3.387  1.3867 -1.8199  2.2451
  190THF    H13 2470   0.522   4.585   3.289  1.6019 -0.1178  2.7130
  191THF     O1 2471   3.499   0.383   0.431 -0.1239 -0.8151  0.0299
  191THF     C2 2472   3.506   0.346   0.292 -0.1563  0.3775 -0.5569
  191THF     C3 2473   3.517   0.254   0.501 -0.3474 -0.1066 -0.0756
  191THF     H4 2474   3.610   0.334   0.260 -0.1625 -2.0518  0.1691
  191THF     H5 2475   3.473   0.433   0.236 -0.3951  0.2225 -0.6561
  191THF     H6 2476   3.623   0.234   0.487 -0.3617 -0.9158  0.8525
  191THF     H7 2477   3.500   0.257   0.609  2.0187 -0.7534  0.3765
  191THF     C8 2478   3.429   0.144   0.425 -0.4994 -0.1758 -0.2352
  191THF     C9 2479   3.426   0.213   0.281  0.4094 -0.2270  0.7917
  191THF    H10 2480   3.332   0.128   0.472  0.4073 -0.8461  1.4889
  191THF    H11 2481   3.494   0.057   0.421  1.0081  0.8744  0.3493
  191THF    H12 2482   3.466   0.142   0.208 -1.6984 -1.1004  0.4195
  191THF    H13 2483   3.322   0.235   0.258  0.4725 -0.3781  0.3556
  192THF     O1 2484   1.092   0.321   3.565 -0.2438  0.0686 -0.1247
  192THF     C2 2485   1.141   0.265   3.441 -0.3574  0.2289 -0.1435
  192THF     C3 2486   1.194   0.307   3.665 -0.6468  0.2150 -0.4714
  192THF     H4 2487   1.115   0.328   3.356  0.6524  0.2586 -0.4373
  192THF     H5 2488   1.098   0.168   3.414  0.6574 -0.9730  2.3020
  192THF     H6 2489   1.204   0.403   3.716 -0.1934  0.0038 -0.1654
  192THF     H7 2490   1.143   0.239   3.733 -0.1591 -0.2743 -0.5870
  192THF     C8 2491   1.318   0.240   3.600 -0.0977 -0.4822 -0.1404
  192THF     C9 2492   1.291   0.257   3.453 -0.5354  0.0666  0.1128
  192THF    H10 2493   1.315   0.136   3.633  0.9003 -0.1670  1.0306
  192THF    H11 2494   1.412   0.290   3.627  0.0600  0.5690 -2.4147
  192THF    H12 2495   1.334   0.352   3.421  0.7863 -0.7093 -0.4952
  192THF    H13 2496   1.330   0.181   3.385 -0.9095 -0.5217  0.5490
  193THF     O1 2497   2.481   1.272   4.722  0.2538 -0.6325  0.0106
  193THF     C2 2498   2.559   1.308   4.833  0.3810  0.4767  1.2336
  193THF     C3 2499   2.476   1.392   4.649 -0.4940  0.1237 -0.1894
  193THF     H4 2500   2.664   1.306   4.804 -0.2753 -1.9630 -1.5079
  193THF     H5 2501   2.548   1.245   4.921  1.3179  1.2987  1.9538
  193THF     H6 2502   2.578   1.399   4.611  0.1277 -2.3447  0.8354
  193THF     H7 2503   2.394   1.382   4.577  0.3394 -1.9332 -0.9395
  193THF     C8 2504   2.447   1.505   4.749  0.0443 -0.4336  0.2771
  193THF     C9 2505   2.510   1.445   4.874 -0.6805 -0.1707  0.7436
  193THF    H10 2506   2.340   1.518   4.738  0.3328  2.2137 -0.1822
  193THF    H11 2507   2.497   1.598   4.724 -0.8016 -0.6331 -2.5014
  193THF    H12 2508   2.599   1.501   4.903  1.2061 -3.0146  0.8364
  193THF    H13 2509   2.442   1.446   4.959 -0.6171  0.0376  0.7939
  194THF     O1 2510   1.704   0.559   1.527  0.1969  0.0152 -0.7827
  194THF     C2 2511   1.763   0.657   1.623  0.4332 -0.3042  0.3845
  194THF     C3 2512   1.819   0.493   1.467 -0.0209  0.4268  0.1518
  194THF     H4 2513   1.680   0.686   1.687 -1.7652  0.0151 -2.4283
  194THF     H5 2514   1.793   0.743   1.564 -0.8591 -2.0353 -3.0217
  194THF     H6 2515   1.787   0.393   1.438  0.6390  0.0781  0.5857
  194THF     H7 2516   1.846   0.550   1.378  2.2261 -0.0213  0.4948
  194THF     C8 2517   1.918   0.486   1.588 -0.4376 -0.4479  0.1853
  194THF     C9 2518   1.869   0.584   1.698  0.3560  0.3005 -0.3569
  194THF    H10 2519   2.018   0.518   1.557 -0.0734 -2.6587 -1.1691
  194THF    H11 2520   1.922   0.383   1.623  0.2079 -1.0611 -1.6024
  194THF    H12 2521   1.827   0.528   1.782  0.7893  0.3203 -0.1251
  194THF    H13 2522   1.952   0.641   1.738  1.4724 -1.2229 -0.4410
  195THF     O1 2523   0.537   2.189   0.941 -0.2233  0.4907 -0.0134
  195THF     C2 2524   0.578   2.198   1.073  0.1238  0.2618 -0.6176
  195THF     C3 2525   0.495   2.052   0.911 -0.1138 -0.0672 -0.3377
  195THF     H4 2526   0.557   2.293   1.123 -1.3586 -0.9459  1.2006
  195THF     H5 2527   0.684   2.172   1.079  0.9135  3.3591  1.0403
  195THF     H6 2528   0.390   2.068   0.885 -0.5200  1.7933  2.0190
  195THF     H7 2529   0.552   2.001   0.833 -2.5193 -0.4423 -1.9610
  195THF     C8 2530   0.512   1.977   1.045  0.1083 -0.2741 -0.3935
  195THF     C9 2531   0.500   2.087   1.152  0.5639  0.0173 -0.2655
  195THF    H10 2532   0.612   1.936   1.061  0.3869  0.5638  0.0876
  195THF    H11 2533   0.435   1.901   1.055  1.0791 -1.2052  0.3019
  195THF    H12 2534   0.395   2.110   1.174  0.8288  0.2054  0.8599
  195THF    H13 2535   0.545   2.075   1.251 -1.0977  1.0608  0.6646
  196THF     O1 2536   4.622   4.086   2.833  0.3189 -0.0221  0.0359
  196THF     C2 2537   4.672   4.107   2.964  0.3696  0.0176  0.3942
  196THF     C3 2538   4.693   4.174   2.746 -0.1477  0.2741  0.3409
  196THF     H4 2539   4.761   4.047   2.979 -0.1489 -0.7166  0.6128
  196THF     H5 2540   4.589   4.067   3.023  1.7310 -1.4447  1.3819
  196THF     H6 2541   4.794   4.138   2.728 -0.5665 -0.9869  0.4061
  196THF     H7 2542   4.644   4.188   2.650 -0.2614 -1.9821 -0.0012
  196THF     C8 2543   4.687   4.299   2.822  0.9414  0.1048 -0.0082
  196THF     C9 2544   4.703   4.258   2.961 -1.0301 -0.0838 -0.1177
  196THF    H10 2545   4.590   4.344   2.804  0.8609 -0.7855 -2.0015
  196THF    H11 2546   4.759   4.372   2.783  0.6844  0.9298  1.0286
  196THF    H12 2547   4.809   4.278   2.974 -0.7063 -0.8143 -1.4561
  196THF    H13 2548   4.641   4.314   3.032 -1.7853 -1.9176  0.7174
  197THF     O1 2549   5.169   2.451   0.029 -0.0387 -0.0039  0.3084
  197THF     C2 2550   5.177   2.559  -0.057  0.3166 -0.4686  0.5101
  197THF     C3 2551   5.303   2.418   0.078  0.2879 -0.2590  0.0054
  197THF     H4 2552   5.188   2.651   0.001 -2.3893 -0.0432  0.4927
  197THF     H5 2553   5.098   2.570  -0.131  0.4207 -1.7842  0.1919
  197THF     H6 2554   5.322   2.442   0.183  0.3109  0.7672 -0.2195
  197THF     H7 2555   5.305   2.310   0.064  0.9168 -0.2174 -0.2534
  197THF     C8 2556   5.400   2.490  -0.017  0.1286  0.0618 -0.2824
  197THF     C9 2557   5.305   2.533  -0.129  0.2287 -0.1696  0.0985
  197THF    H10 2558   5.487   2.429  -0.042  1.3745  0.1744  3.1504
  197THF    H11 2559   5.447   2.580   0.025  3.3205 -1.8863  0.7225
  197THF    H12 2560   5.344   2.620  -0.182  0.0284 -1.2917 -2.0030
  197THF    H13 2561   5.281   2.442  -0.185 -1.5896  0.8246 -0.8253
  198THF     O1 2562   2.956   0.245   4.871 -0.2096 -0.3753 -0.2512
  198THF     C2 2563   3.074   0.294   4.817  0.8505 -0.2212  0.0409
  198THF     C3 2564   2.954   0.105   4.836 -0.3050 -0.2711  0.6272
  198THF     H4 2565   3.101   0.386   4.869 -0.6949 -0.0610  0.6182
  198THF     H5 2566   3.055   0.314   4.712  1.0703  0.1653  0.0732
  198THF     H6 2567   2.876   0.053   4.891  0.2088 -1.2058  0.4841
  198THF     H7 2568   2.921   0.099   4.733  0.9472 -0.5827  0.2290
  198THF     C8 2569   3.097   0.054   4.863  0.5512  0.0399  0.1441
  198THF     C9 2570   3.177   0.185   4.851 -0.0408  0.1828  0.7487
  198THF    H10 2571   3.122  -0.020   4.786 -1.1909  0.4519 -0.8931
  198THF    H11 2572   3.091   0.013   4.964 -1.4173 -0.3169 -0.0771
  198THF    H12 2573   3.218   0.202   4.950 -0.5500  2.5114  0.6136
  198THF    H13 2574   3.253   0.181   4.773 -0.8723 -0.6534 -0.0491
  199THF     O1 2575   4.791   1.971   4.276  0.2496  0.1295 -0.5546
  199THF     C2 2576   4.910   2.035   4.295  0.2232 -0.0883 -0.1683
  199THF     C3 2577   4.810   1.834   4.277  1.1100  0.3048 -0.3815
  199THF     H4 2578   4.898   2.142   4.311  0.3970  0.4697 -3.1719
  199THF     H5 2579   4.973   2.037   4.205  1.5334 -0.0362  0.7253
  199THF     H6 2580   4.731   1.775   4.322  1.3822 -0.2452 -0.6219
  199THF     H7 2581   4.829   1.801   4.175 -0.4130  0.0347 -0.5925
  199THF     C8 2582   4.936   1.815   4.363 -0.6203 -0.3111  0.1295
  199THF     C9 2583   4.999   1.952   4.385  0.9817 -0.0398  0.0407
  199THF    H10 2584   4.997   1.753   4.298  0.4211  0.4179  0.3758
  199THF    H11 2585   4.928   1.765   4.459 -0.8003  0.9170  0.7836
  199THF    H12 2586   4.990   1.995   4.485 -0.9465  0.1906 -0.1932
  199THF    H13 2587   5.101   1.957   4.348  0.6474 -1.9349 -1.2807
  200THF     O1 2588   2.423   1.504   5.332  0.5023  0.4004  0.4862
  200THF     C2 2589   2.523   1.571   5.404  0.2228 -0.5152  0.1055
  200THF     C3 2590   2.344   1.602   5.263  0.3718  0.6191  0.0005
  200THF     H4 2591   2.608   1.506   5.422 -1.3255 -2.0025  2.6299
  200THF     H5 2592   2.478   1.605   5.497 -3.2797 -1.5206 -1.0342
  200THF     H6 2593   2.305   1.559   5.171 -1.1463  1.0794  0.3996
  200THF     H7 2594   2.257   1.638   5.318  0.0713 -1.4943  1.0486
  200THF     C8 2595   2.436   1.718   5.235  0.5684  0.0245 -0.2206
  200THF     C9 2596   2.566   1.690   5.309 -0.0826 -0.5061  0.3849
  200THF    H10 2597   2.382   1.811   5.253 -0.9117 -0.8805  0.1884
  200THF    H11 2598   2.452   1.738   5.129  1.8906  0.6222  0.0738
  200THF    H12 2599   2.651   1.657   5.249  0.3734  1.7233 -0.3006
  200THF    H13 2600   2.588   1.768   5.381 -0.2164 -1.1250  1.1011
  201THF     O1 2601   2.268   0.070   1.796 -0.9484  0.0212 -0.0611
  201THF     C2 2602   2.188   0.006   1.698 -0.3508  0.3667  0.8019
  201THF     C3 2603   2.181   0.092   1.909 -0.3064 -0.4054  0.1737
  201THF     H4 2604   2.199  -0.100   1.716  1.2875  0.4942  0.6671
  201THF     H5 2605   2.236   0.039   1.606 -0.6276  0.1001  0.5582
  201THF     H6 2606   2.164  -0.003   1.960 -0.9579 -0.6654 -0.5104
  201THF     H7 2607   2.230   0.141   1.994  1.7326  2.0985 -2.2509
  201THF     C8 2608   2.062   0.161   1.838  0.1274 -0.4850  0.1391
  201THF     C9 2609   2.048   0.077   1.719 -0.2905 -0.3298  0.1801
  201THF    H10 2610   2.102   0.259   1.811 -0.2489 -0.7183 -1.3208
  201THF    H11 2611   1.970   0.171   1.896  0.3970 -0.4560  0.5741
  201THF    H12 2612   1.976  -0.003   1.729  1.4272 -1.8828  0.7880
  201THF    H13 2613   2.028   0.136   1.630  2.6000 -0.6393 -0.8005
  202THF     O1 2614   2.272   2.739   0.111 -0.3007 -0.0226 -0.0636
  202THF     C2 2615   2.232   2.602   0.133 -0.5482  0.1791  0.4164
  202THF     C3 2616   2.197   2.792   0.005 -0.0364 -0.2349  0.6694
  202THF     H4 2617   2.224   2.588   0.240 -2.4465 -0.3989  0.2424
  202THF     H5 2618   2.306   2.528   0.102 -0.6332  0.2528  0.0279
  202THF     H6 2619   2.199   2.900  -0.007  1.4011 -0.3349 -0.2774
  202THF     H7 2620   2.234   2.752  -0.090  2.7219  1.2601  1.0124
  202THF     C8 2621   2.065   2.730   0.030 -0.3029  0.0562  0.1018
  202THF     C9 2622   2.094   2.590   0.073 -0.0040 -0.5770 -0.2538
  202THF    H10 2623   2.003   2.726  -0.059 -1.0339 -1.5132  0.6595
  202THF    H11 2624   2.019   2.788   0.111  0.7836  0.5717  0.3740
  202THF    H12 2625   2.022   2.544   0.141  3.0652 -1.5945  2.5889
  202THF    H13 2626   2.096   2.520  -0.010 -1.3908  0.4002 -1.1475
  203THF     O1 2627   2.644   5.326   0.909  0.1877 -0.6740  0.0876
  203THF     C2 2628   2.702   5.343   0.780 -0.6263  0.0330  0.2997
  203THF     C3 2629   2.519   5.254   0.900 -0.3098 -0.0128 -0.0885
  203THF     H4 2630   2.785   5.273   0.770 -0.5978  0.2113 -0.8012
  203THF     H5 2631   2.731   5.448   0.779 -0.3246 -0.0145  1.6363
  203THF     H6 2632   2.517   5.145   0.906 -2.9217 -0.0258 -0.2359
  203THF     H7 2633   2.458   5.287   0.984  1.4692  0.4735  1.0783
  203THF     C8 2634   2.459   5.287   0.771 -0.4335 -0.2059  1.0677
  203THF     C9 2635   2.585   5.295   0.687 -0.3233  0.1636  0.4782
  203THF    H10 2636   2.414   5.387   0.768 -0.5909 -0.2868  0.0309
  203THF    H11 2637   2.384   5.216   0.737  0.2987  0.6496 -2.9445
  203THF    H12 2638   2.616   5.203   0.637  2.4983  1.3889 -0.2270
  203THF    H13 2639   2.573   5.364   0.604 -0.5331  1.4072  1.5094
  204THF     O1 2640   1.109   2.153   0.851  0.4230  0.0411  0.0229
  204THF     C2 2641   1.068   2.055   0.943  0.0452 -0.3720  0.0292
  204THF     C3 2642   1.012   2.150   0.745  0.3297  0.5444  0.4201
  204THF     H4 2643   1.105   2.067   1.045 -0.1566  0.2583  0.0293
  204THF     H5 2644   1.090   1.955   0.906 -1.1274 -0.0911 -1.5674
  204THF     H6 2645   1.000   2.249   0.700 -1.3423  0.4526  0.6194
  204THF     H7 2646   1.053   2.072   0.680  0.6707  0.4641  0.7264
  204THF     C8 2647   0.880   2.110   0.810 -0.2769  0.3611  0.7105
  204THF     C9 2648   0.920   2.061   0.948 -0.0815 -0.2819  0.4403
  204THF    H10 2649   0.824   2.032   0.757  0.5580 -0.7013  1.3568
  204THF    H11 2650   0.816   2.198   0.815 -0.5683  0.0841  2.1462
  204THF    H12 2651   0.883   2.144   1.008 -0.5084  0.1095 -0.3506
  204THF    H13 2652   0.864   1.970   0.969 -3.3672  1.4355 -0.1828
  205THF     O1 2653   2.245   4.515   2.004 -0.0525 -0.7197 -0.5380
  205THF     C2 2654   2.182   4.642   2.015  0.5006 -0.7933 -0.3027
  205THF     C3 2655   2.219   4.470   1.871  0.3120 -0.1846  0.7507
  205THF     H4 2656   2.254   4.719   1.986  0.9151 -1.5815 -1.4405
  205THF     H5 2657   2.153   4.663   2.118 -2.9542  0.1902 -1.3444
  205THF     H6 2658   2.315   4.478   1.820  1.6208 -0.3204  3.0761
  205THF     H7 2659   2.190   4.365   1.859 -1.4740  0.3675 -0.0990
  205THF     C8 2660   2.114   4.558   1.805  0.4033 -0.1903 -0.2951
  205THF     C9 2661   2.059   4.630   1.925 -0.2444 -0.0382 -0.3299
  205THF    H10 2662   2.040   4.506   1.744  0.1563 -0.5240  0.2798
  205THF    H11 2663   2.169   4.630   1.744  1.7760 -0.7698  0.2252
  205THF    H12 2664   2.004   4.720   1.901  0.2079  0.3117 -0.0701
  205THF    H13 2665   1.983   4.572   1.979 -0.5659  2.2407  1.8640
  206THF     O1 2666   0.065   4.487   5.115  0.0677  0.0054  0.1651
  206THF     C2 2667   0.109   4.535   5.246  0.3669 -0.2772  0.7109
  206THF     C3 2668   0.107   4.347   5.114 -0.5445 -0.7161 -0.5273
  206THF     H4 2669   0.028   4.597   5.284 -1.2721 -2.4482  0.9930
  206THF     H5 2670   0.194   4.600   5.227  1.1957 -1.7586 -0.9588
  206THF     H6 2671   0.046   4.288   5.046 -1.7330 -0.9820  0.7210
  206THF     H7 2672   0.213   4.347   5.087 -0.2771 -3.9824  0.1699
  206THF     C8 2673   0.101   4.295   5.259  0.7620 -0.2733  0.2968
  206THF     C9 2674   0.141   4.422   5.345 -0.1100  0.6021  0.6302
  206THF    H10 2675   0.163   4.208   5.277  2.5925  0.6501 -1.2192
  206THF    H11 2676  -0.004   4.275   5.281  0.1039  0.0081 -2.2106
  206THF    H12 2677   0.084   4.428   5.437  0.2193 -1.9804  1.0667
  206THF    H13 2678   0.248   4.418   5.369  0.0317  0.2202 -0.0345
  207THF     O1 2679   4.118   3.512   0.030 -0.4391 -0.2886 -0.7881
  207THF     C2 2680   3.987   3.537   0.083  0.5950 -0.4260 -0.1136
  207THF     C3 2681   4.130   3.620  -0.061  0.1059  0.1220 -0.4228
  207THF     H4 2682   3.976   3.613   0.160 -1.9824 -1.2818  0.4609
  207THF     H5 2683   3.951   3.448   0.134 -1.3642  0.5333  0.2824
  207THF     H6 2684   4.143   3.712  -0.004  0.2918  0.0510 -0.3491
  207THF     H7 2685   4.217   3.619  -0.127  1.2179 -1.4246  0.9749
  207THF     C8 2686   3.999   3.608  -0.143 -0.4648 -0.0015 -0.3597
  207THF     C9 2687   3.900   3.565  -0.035 -0.4586 -0.6601  0.3042
  207THF    H10 2688   4.009   3.535  -0.223 -0.6390  1.1591 -1.4641
  207THF    H11 2689   3.977   3.703  -0.191 -1.1318  2.1654  3.7644
  207THF    H12 2690   3.825   3.643  -0.026 -1.0719 -1.2660  0.5709
  207THF    H13 2691   3.841   3.481  -0.073  0.3362 -1.1216  0.0571
  208THF     O1 2692   1.780   2.323   0.714 -0.2890  0.1335  0.1901
  208THF     C2 2693   1.825   2.193   0.718  0.0316 -0.1493 -0.8877
  208THF     C3 2694   1.781   2.378   0.844 -0.2751  0.2767  0.9661
  208THF     H4 2695   1.842   2.151   0.619 -0.6358 -0.9134 -0.6905
  208THF     H5 2696   1.746   2.133   0.764  0.4086 -0.2133 -0.3143
  208THF     H6 2697   1.798   2.486   0.851 -1.6049  0.6252 -0.5069
  208THF     H7 2698   1.685   2.367   0.893  0.4900 -0.5702  2.3219
  208THF     C8 2699   1.895   2.300   0.908 -0.1550  0.0224  0.2567
  208THF     C9 2700   1.949   2.203   0.805  0.2265 -0.3974 -0.3350
  208THF    H10 2701   1.866   2.241   0.995  2.2860  0.3743  1.3907
  208THF    H11 2702   1.963   2.380   0.937  0.4650  0.9626 -3.2806
  208THF    H12 2703   2.039   2.235   0.753 -0.3461 -0.7890 -1.6100
  208THF    H13 2704   1.968   2.102   0.839  1.5275  0.8020  2.9527
  209THF     O1 2705   1.023   3.064   0.816 -0.0296 -0.3751  0.5123
  209THF     C2 2706   0.995   3.043   0.682 -0.0627  0.2601  0.4900
  209THF     C3 2707   0.900   3.109   0.872  0.2488  0.6010 -0.0768
  209THF     H4 2708   1.077   2.987   0.638 -2.0664 -2.0506 -0.5407
  209THF     H5 2709   0.963   3.136   0.634 -0.2498  0.0704  0.2417
  209THF     H6 2710   0.897   3.102   0.981  0.1321 -2.1250 -0.1766
  209THF     H7 2711   0.865   3.209   0.848 -1.2962  0.3969  1.1462
  209THF     C8 2712   0.807   2.996   0.824  0.7781 -0.1713 -1.1189
  209THF     C9 2713   0.868   2.961   0.688  0.2141  0.7357 -0.3174
  209THF    H10 2714   0.706   3.036   0.815  2.3092  5.1001  1.0296
  209THF    H11 2715   0.804   2.914   0.896  0.2546  1.6508  1.0464
  209THF    H12 2716   0.890   2.854   0.684 -0.0741  0.6453  0.3060
  209THF    H13 2717   0.805   2.981   0.602  2.3642  2.4111 -1.6321
  210THF     O1 2718   5.252   4.503   3.582  0.5354  0.4392 -0.2931
  210THF     C2 2719   5.244   4.633   3.541 -0.0600 -0.1652  0.5591
  210THF     C3 2720   5.164   4.492   3.696 -0.2043  0.2727 -0.3586
  210THF     H4 2721   5.289   4.666   3.447  0.5253  0.1145  0.9317
  210THF     H5 2722   5.289   4.693   3.620  0.6212 -2.0810  1.6742
  210THF     H6 2723   5.129   4.391   3.715  1.0271 -0.1642 -0.2961
  210THF     H7 2724   5.218   4.525   3.785  0.5365 -1.5938 -0.0701
  210THF     C8 2725   5.049   4.588   3.654 -0.0032  0.5147 -0.6852
  210THF     C9 2726   5.094   4.662   3.527 -1.3203  1.4755 -0.6386
  210THF    H10 2727   5.031   4.663   3.730 -2.2606  1.4418 -2.0190
  210THF    H11 2728   4.955   4.533   3.647  1.2977 -1.7437 -1.3242
  210THF    H12 2729   5.047   4.626   3.436  0.7363  0.6844 -1.4282
  210THF    H13 2730   5.073   4.769   3.517 -0.7329  1.4504 -2.5647
  211THF     O1 2731   4.889   4.272   4.065 -0.3414 -0.1345  0.5511
  211THF     C2 2732   4.943   4.362   3.975  0.4003  0.0008 -0.3967
  211THF     C3 2733   4.751   4.266   4.039  0.1309  0.3617 -0.1776
  211THF     H4 2734   5.047   4.335   3.955  0.1368 -1.0249 -0.4065
  211THF     H5 2735   4.938   4.458   4.026  0.5983 -0.8330  1.2650
  211THF     H6 2736   4.698   4.187   4.093 -0.3580  2.1499  2.1297
  211THF     H7 2737   4.702   4.355   4.076 -1.8727 -0.1066 -1.5735
  211THF     C8 2738   4.743   4.264   3.887  0.1643 -0.8757  0.6369
  211THF     C9 2739   4.854   4.353   3.852  0.0577  0.3005  0.1990
  211THF    H10 2740   4.651   4.314   3.858  1.3921  1.2030  0.1133
  211THF    H11 2741   4.763   4.167   3.842  3.4330 -0.2860  0.5724
  211THF    H12 2742   4.919   4.333   3.768 -1.3462  1.7578 -1.3079
  211THF    H13 2743   4.822   4.454   3.824 -0.8698  0.0920  0.4749
  212THF     O1 2744   1.839   3.951   4.766 -0.4460  0.4599 -0.6728
  212THF     C2 2745   1.726   3.884   4.820 -0.0696  0.1547 -0.6497
  212THF     C3 2746   1.786   4.026   4.662  0.2659  0.4023 -0.0935
  212THF     H4 2747   1.670   3.949   4.888 -0.3456  1.3297 -1.9436
  212THF     H5 2748   1.758   3.798   4.878 -0.6213  0.0241 -0.5368
  212THF     H6 2749   1.734   4.117   4.693 -0.1801 -0.4422  1.7420
  212THF     H7 2750   1.846   4.049   4.574 -0.7334 -0.2443 -0.9785
  212THF     C8 2751   1.680   3.943   4.589 -0.6074  0.0319 -0.0559
  212THF     C9 2752   1.636   3.850   4.701  0.1899  0.2738  0.1681
  212THF    H10 2753   1.721   3.890   4.502 -1.1461  3.7294 -2.8011
  212THF    H11 2754   1.594   4.004   4.560  0.1992  1.3825  0.3317
  212THF    H12 2755   1.529   3.844   4.720  0.3705 -0.6558  1.0022
  212THF    H13 2756   1.653   3.744   4.679  0.0476  0.2872 -0.0074
  213THF     O1 2757   1.286   3.993   5.108  0.2160  0.2965  0.4908
  213THF     C2 2758   1.418   4.039   5.088  0.1050 -0.2123  0.0375
  213THF     C3 2759   1.294   3.872   5.182  0.9216  0.8963  0.4107
  213THF     H4 2760   1.429   4.144   5.060 -1.3176 -0.0563 -0.0004
  213THF     H5 2761   1.457   3.979   5.006  0.6181  0.4948 -0.2465
  213THF     H6 2762   1.198   3.842   5.223  1.0205  0.9784  0.7067
  213THF     H7 2763   1.324   3.789   5.118 -3.1866 -1.0412  0.6789
  213THF     C8 2764   1.394   3.898   5.286  0.4498  0.3747 -0.1514
  213THF     C9 2765   1.491   4.002   5.220  0.6802 -0.3569 -0.0562
  213THF    H10 2766   1.438   3.801   5.308 -0.1990 -0.3409 -1.8415
  213THF    H11 2767   1.356   3.935   5.382  1.2884  0.2580  0.2376
  213THF    H12 2768   1.495   4.093   5.280  0.5515  0.0235 -0.6184
  213THF    H13 2769   1.589   3.970   5.187  0.3933 -0.4468 -0.8537
  214THF     O1 2770   1.616   1.753   4.679 -0.4734  0.2177 -0.0055
  214THF     C2 2771   1.662   1.694   4.560 -0.5571 -0.4934  0.3149
  214THF     C3 2772   1.688   1.695   4.792  0.0517 -0.1173  0.2576
  214THF     H4 2773   1.751   1.738   4.515 -1.5503  1.9585  0.6135
  214THF     H5 2774   1.580   1.709   4.489 -0.0473  0.1872 -0.1503
  214THF     H6 2775   1.778   1.756   4.803 -0.8895  1.3402  0.1883
  214THF     H7 2776   1.639   1.701   4.889  0.4890 -1.2954  0.5680
  214THF     C8 2777   1.733   1.566   4.748 -0.5518 -0.4084 -0.5648
  214THF     C9 2778   1.684   1.551   4.606 -0.5723  0.2900  0.7104
  214THF    H10 2779   1.710   1.485   4.818  1.5597 -0.4217  0.1852
  214THF    H11 2780   1.841   1.567   4.741 -0.5938 -0.0665 -1.2800
  214THF    H12 2781   1.758   1.499   4.545 -0.5422  0.2088  0.8162
  214THF    H13 2782   1.595   1.488   4.598 -0.9656  0.9727 -5.5858
  215THF     O1 2783   4.409   3.129   4.706 -0.3940 -0.2286 -0.1943
  215THF     C2 2784   4.313   3.145   4.811  0.3490  0.4575 -0.7241
  215THF     C3 2785   4.401   2.999   4.647  0.2052 -0.0569 -0.6038
  215THF     H4 2786   4.277   3.247   4.823 -3.6417 -0.8691  0.2741
  215THF     H5 2787   4.350   3.109   4.907  0.2831 -0.3682 -0.9940
  215THF     H6 2788   4.429   3.000   4.541  1.1922 -1.4727 -0.3791
  215THF     H7 2789   4.462   2.924   4.697  1.9581  0.5159 -1.7886
  215THF     C8 2790   4.259   2.959   4.682  0.2159 -0.1555 -0.0601
  215THF     C9 2791   4.204   3.060   4.764  0.2634  0.5800  0.2022
  215THF    H10 2792   4.262   2.864   4.736  1.1997  1.6125  3.3160
  215THF    H11 2793   4.195   2.952   4.595 -0.7391  0.8099  0.5496
  215THF    H12 2794   4.130   3.122   4.713 -0.1094  0.3044  0.4005
  215THF    H13 2795   4.166   3.006   4.851  1.2188 -2.8382 -1.2915
  216THF     O1 2796   1.201   0.923   5.368  0.1836 -0.1230  0.3320
  216THF     C2 2797   1.087   0.909   5.279 -0.1975  0.1027 -0.1478
  216THF     C3 2798   1.320   0.953   5.297 -0.1680  0.5190 -0.0326
  216THF     H4 2799   0.999   0.958   5.320 -1.7714 -0.2254 -2.8647
  216THF     H5 2800   1.053   0.806   5.264  0.8464 -0.1864 -0.6199
  216THF     H6 2801   1.403   0.986   5.360  1.1267 -2.7615  0.1782
  216THF     H7 2802   1.371   0.860   5.272  1.3884 -0.0365  4.2445
  216THF     C8 2803   1.282   1.034   5.180  0.1442 -0.2042 -0.0455
  216THF     C9 2804   1.135   0.967   5.142  0.0573 -0.0633  0.0625
  216THF    H10 2805   1.351   1.027   5.096 -1.1650 -1.2844 -1.0900
  216THF    H11 2806   1.273   1.138   5.211 -0.5099 -0.3421  0.2544
  216THF    H12 2807   1.075   1.049   5.104  0.4501  0.0203 -0.3892
  216THF    H13 2808   1.154   0.884   5.073 -0.2963 -1.7145  1.8510
  217THF     O1 2809   5.455   3.503   4.541 -0.6816 -0.6096 -0.2008
  217THF     C2 2810   5.549   3.542   4.443 -0.3264 -0.1584 -0.9158
  217THF     C3 2811   5.499   3.381   4.600  0.0513  0.4032 -0.1822
  217THF     H4 2812   5.541   3.648   4.420 -0.8068  0.3919  1.4957
  217THF     H5 2813   5.542   3.483   4.351 -0.2152 -1.5499 -0.0619
  217THF     H6 2814   5.484   3.373   4.707  3.0026 -0.4837  0.2510
  217THF     H7 2815   5.456   3.294   4.549 -0.2049  0.0697  0.5929
  217THF     C8 2816   5.654   3.380   4.574  0.2201  0.2563 -0.3068
  217THF     C9 2817   5.676   3.521   4.513 -0.5225  0.5747  0.0048
  217THF    H10 2818   5.681   3.311   4.495  0.0214 -0.2773  0.0876
  217THF    H11 2819   5.730   3.346   4.644  0.6280  1.0166 -0.3611
  217THF    H12 2820   5.686   3.595   4.593 -1.9751  1.2042 -0.3511
  217THF    H13 2821   5.766   3.526   4.453 -1.6903 -0.0821 -1.8840
  218THF     O1 2822   3.897   0.095   0.089  0.0424 -0.1457  0.3172
  218THF     C2 2823   3.840   0.162  -0.024  0.4985  0.9571  0.4020
  218THF     C3 2824   3.788   0.060   0.174  0.3137  0.1924 -0.0264
  218THF     H4 2825   3.917   0.189  -0.096  3.1687 -1.6540  2.0144
  218THF     H5 2826   3.805   0.259   0.010  0.4207  1.5083 -1.2125
  218THF     H6 2827   3.822   0.004   0.260 -3.1296 -0.2527  1.2196
  218THF     H7 2828   3.745   0.154   0.209  0.5560  0.8125 -1.3340
  218THF     C8 2829   3.696  -0.009   0.072 -0.0496  0.6833  0.6238
  218THF     C9 2830   3.736   0.056  -0.062  0.2055  0.5968  0.2729
  218THF    H10 2831   3.591  -0.001   0.100  0.1825 -1.2443  2.2391
  218THF    H11 2832   3.720  -0.115   0.071 -2.1844  0.1661  0.7268
  218THF    H12 2833   3.782  -0.014  -0.132 -0.5744 -1.3909  1.6871
  218THF    H13 2834   3.664   0.110  -0.125  0.6097  1.2016  0.3216
  219THF     O1 2835   5.048   5.137   1.043 -0.2261  1.0174  0.3780
  219THF     C2 2836   5.104   5.176   1.163 -0.1391 -0.1409 -0.0088
  219THF     C3 2837   5.171   5.109   0.967 -0.1059  0.2178 -0.0023
  219THF     H4 2838   5.028   5.165   1.240 -0.6262  0.2578 -0.4225
  219THF     H5 2839   5.158   5.271   1.159 -0.6220  0.1469  0.2278
  219THF     H6 2840   5.162   5.068   0.866  0.7684 -1.0484  0.4098
  219THF     H7 2841   5.242   5.192   0.963  0.6726 -0.4700 -0.7506
  219THF     C8 2842   5.225   5.001   1.059  0.0241  0.1599 -0.2548
  219THF     C9 2843   5.199   5.057   1.193  0.0378 -1.0525 -0.2936
  219THF    H10 2844   5.327   4.963   1.047 -0.1564 -0.2756 -0.4469
  219THF    H11 2845   5.168   4.909   1.046  0.8159 -0.4306  0.3729
  219THF    H12 2846   5.136   4.991   1.252  0.5838 -2.2493 -1.0151
  219THF    H13 2847   5.289   5.088   1.247 -1.2712  3.0595 -0.1343
  220THF     O1 2848   5.111   2.252   1.727  0.2181  0.5200 -0.3626
  220THF     C2 2849   5.160   2.155   1.632 -0.3731 -0.2983 -0.4034
  220THF     C3 2850   5.193   2.369   1.713  0.3019 -0.1270  0.1472
  220THF     H4 2851   5.119   2.186   1.535 -1.0440  1.3477  0.3684
  220THF     H5 2852   5.128   2.054   1.659 -0.8546  0.4388  2.0226
  220THF     H6 2853   5.150   2.428   1.633  0.3162  0.2661  0.4256
  220THF     H7 2854   5.194   2.424   1.807 -1.6308 -0.7238  0.5693
  220THF     C8 2855   5.332   2.313   1.685  0.2169  1.1354  0.6117
  220THF     C9 2856   5.310   2.172   1.642  0.0246 -0.2215 -0.6633
  220THF    H10 2857   5.379   2.303   1.782  0.4327 -0.5366  0.3751
  220THF    H11 2858   5.396   2.372   1.619 -0.6280  0.8164 -0.5285
  220THF    H12 2859   5.365   2.157   1.549 -0.8796 -0.1581 -1.2199
  220THF    H13 2860   5.348   2.104   1.718  3.4460  0.8885 -1.1804
  221THF     O1 2861   2.154   3.104   4.846 -0.0794 -0.2552  0.0951
  221THF     C2 2862   2.172   3.131   4.705  0.6482  0.5821 -0.6940
  221THF     C3 2863   2.055   3.197   4.899  0.3446  0.0125 -0.1926
  221THF     H4 2864   2.087   3.094   4.648  0.8238 -1.1330  0.0722
  221THF     H5 2865   2.272   3.103   4.670  1.6882  3.0609  0.0676
  221THF     H6 2866   1.954   3.159   4.882 -0.1789 -0.3076  2.9057
  221THF     H7 2867   2.072   3.221   5.004 -0.9824 -1.0613  0.2963
  221THF     C8 2868   2.080   3.324   4.820  0.5505 -0.2499 -0.3203
  221THF     C9 2869   2.174   3.280   4.715  0.2078 -0.0356  0.4413
  221THF    H10 2870   2.151   3.375   4.885 -0.6363  0.5642  0.3838
  221THF    H11 2871   1.995   3.388   4.792 -0.4035 -1.2289  0.2948
  221THF    H12 2872   2.127   3.311   4.621 -0.1625 -1.8601 -0.0341
  221THF    H13 2873   2.272   3.324   4.730  0.4789 -0.6913  0.6072
  222THF     O1 2874   3.357   4.039   3.628 -0.2812 -0.4560 -0.4192
  222THF     C2 2875   3.309   3.907   3.641  0.0747 -0.1219  0.2753
  222THF     C3 2876   3.403   4.087   3.753 -0.0338 -0.0984  0.0870
  222THF     H4 2877   3.318   3.847   3.550 -0.1826 -2.3321  1.6286
  222THF     H5 2878   3.200   3.908   3.647  0.1032  1.0787  0.7918
  222THF     H6 2879   3.484   4.158   3.733 -0.0841 -0.5359 -1.8684
  222THF     H7 2880   3.321   4.149   3.788  0.2105  0.5692 -0.4907
  222THF     C8 2881   3.431   3.971   3.848  0.0905 -0.0039  0.1249
  222THF     C9 2882   3.386   3.858   3.766  0.5003 -0.2090  0.3210
  222THF    H10 2883   3.376   3.979   3.942 -2.2243 -0.4635 -1.1117
  222THF    H11 2884   3.537   3.963   3.874 -0.2367 -0.2878  1.4340
  222THF    H12 2885   3.477   3.806   3.737  1.1202  1.0815 -0.1345
  222THF    H13 2886   3.332   3.782   3.823  0.0989 -0.8714 -0.8873
  223THF     O1 2887   0.243   0.746   4.224 -0.7537 -0.2374  0.6934
  223THF     C2 2888   0.186   0.776   4.352  0.1100 -0.4042 -0.0705
  223THF     C3 2889   0.338   0.847   4.178  0.2528  0.4728 -0.2069
  223THF     H4 2890   0.221   0.701   4.424  0.4973 -0.3561 -0.2065
  223THF     H5 2891   0.077   0.770   4.342  0.1212 -1.7967  0.3934
  223THF     H6 2892   0.434   0.831   4.226 -0.0785 -2.4267 -0.2831
  223THF     H7 2893   0.347   0.856   4.070  0.2365 -0.8872 -0.3378
  223THF     C8 2894   0.279   0.974   4.244 -0.2018 -0.7577  0.2536
  223THF     C9 2895   0.235   0.923   4.383 -0.2134  0.2171  0.2165
  223THF    H10 2896   0.195   1.001   4.180 -0.1985 -0.7051  0.2717
  223THF    H11 2897   0.354   1.053   4.255  1.4024 -2.1639 -0.1808
  223THF    H12 2898   0.312   0.927   4.460 -0.8261  0.7674  0.8031
  223THF    H13 2899   0.143   0.974   4.409 -1.5101 -1.9519  0.1109
  224THF     O1 2900   2.309   4.450   3.920 -0.0630 -0.5013 -0.1620
  224THF     C2 2901   2.186   4.472   3.857 -0.6621  0.0245 -0.3469
  224THF     C3 2902   2.297   4.340   4.013  0.0331  0.1563  0.7442
  224THF     H4 2903   2.190   4.405   3.772 -0.9228 -1.7475  0.9750
  224THF     H5 2904   2.173   4.575   3.825  0.6433  0.5069  0.5929
  224THF     H6 2905   2.363   4.255   3.992  0.5543  0.8530 -0.5195
  224THF     H7 2906   2.322   4.387   4.108 -0.4052  1.5595  0.1770
  224THF     C8 2907   2.149   4.310   4.032 -0.2909  0.0778  0.3867
  224THF     C9 2908   2.080   4.421   3.958 -0.6518 -0.6753  0.3966
  224THF    H10 2909   2.117   4.321   4.136  0.5207  2.8318  0.4442
  224THF    H11 2910   2.138   4.214   3.982  1.2121 -0.1699  0.5044
  224THF    H12 2911   1.988   4.383   3.913  0.6441 -2.1043 -1.1847
  224THF    H13 2912   2.058   4.490   4.039 -1.5093 -1.8772  1.2262
  225THF     O1 2913   4.535   3.924   2.540 -0.0562 -0.1258 -0.0348
  225THF     C2 2914   4.407   3.967   2.510 -0.4914  0.8754  0.5815
  225THF     C3 2915   4.632   3.975   2.450 -0.1937 -0.2951 -0.0082
  225THF     H4 2916   4.401   4.068   2.548  0.7362  0.9685  0.5549
  225THF     H5 2917   4.326   3.908   2.554 -1.5349 -0.6991 -3.0432
  225THF     H6 2918   4.662   4.077   2.472 -0.3588 -0.2318 -0.0713
  225THF     H7 2919   4.714   3.905   2.464 -1.5715 -1.8406  0.7129
  225THF     C8 2920   4.559   3.968   2.320  0.5462  0.6340 -0.1732
  225THF     C9 2921   4.411   3.961   2.358  0.2101 -0.7383 -0.0857
  225THF    H10 2922   4.602   3.880   2.271 -1.5793 -1.8373  2.1156
  225THF    H11 2923   4.589   4.044   2.248  0.4031  1.0027  0.1567
  225THF    H12 2924   4.362   4.051   2.321 -0.1984 -0.4459  1.1090
  225THF    H13 2925   4.356   3.877   2.315 -0.9858 -0.8415  1.5382
  226THF     O1 2926   4.143   0.449   1.149 -0.0589  0.0345 -0.5157
  226THF     C2 2927   4.062   0.447   1.268  0.8461 -0.0366  0.2213
  226THF     C3 2928   4.265   0.385   1.176 -0.2610  0.1194 -0.6511
  226THF     H4 2929   3.964   0.399   1.258  1.0453 -0.3478 -0.3380
  226THF     H5 2930   4.051   0.548   1.305  0.1022  0.1894 -0.5783
  226THF     H6 2931   4.311   0.343   1.087  2.1630 -0.6269  0.8685
  226THF     H7 2932   4.343   0.453   1.210 -1.3640  0.8665  0.4953
  226THF     C8 2933   4.234   0.275   1.283 -0.1245  0.0820 -0.0450
  226THF     C9 2934   4.141   0.355   1.374 -0.7538  0.0810  0.1719
  226THF    H10 2935   4.317   0.236   1.341  0.1462  2.9832  1.7404
  226THF    H11 2936   4.179   0.196   1.231 -0.5778 -2.0870  3.4413
  226THF    H12 2937   4.074   0.283   1.420 -1.3454 -1.7738 -3.2143
  226THF    H13 2938   4.206   0.411   1.442 -0.9853  1.1452 -0.4500
  227THF     O1 2939   3.320   4.858   0.707  0.2179 -0.2433 -0.0965
  227THF     C2 2940   3.386   4.735   0.668  0.0834 -0.0751 -0.5048
  227THF     C3 2941   3.346   4.871   0.852 -0.2197  0.4648  0.1813
  227THF     H4 2942   3.444   4.753   0.578  2.1138 -1.1489  0.5090
  227THF     H5 2943   3.310   4.658   0.659 -1.0316  0.8753  0.4311
  227THF     H6 2944   3.348   4.971   0.894  0.4649 -0.2322  1.9020
  227THF     H7 2945   3.279   4.808   0.910 -0.0288  0.3766  0.3088
  227THF     C8 2946   3.489   4.820   0.873  0.3059 -0.3143  0.1777
  227THF     C9 2947   3.499   4.701   0.776 -0.4317 -0.2169  1.0681
  227THF    H10 2948   3.506   4.794   0.978  2.0831 -1.1009 -0.2841
  227THF    H11 2949   3.561   4.896   0.845 -0.9967  0.8641 -0.1156
  227THF    H12 2950   3.595   4.688   0.728 -1.5496  0.0704 -1.4116
  227THF    H13 2951   3.465   4.614   0.832 -1.0542  0.7908  2.3341
  228THF     O1 2952   2.605   2.412   3.508 -0.7190 -0.0690 -0.2877
  228THF     C2 2953   2.558   2.365   3.630  0.0283 -0.2663  0.1174
  228THF     C3 2954   2.685   2.530   3.528  0.1555  0.8409  0.5260
  228THF     H4 2955   2.564   2.256   3.629  0.1277 -0.2636  0.3315
  228THF     H5 2956   2.452   2.386   3.641  0.0988  0.4377 -0.4439
  228THF     H6 2957   2.760   2.531   3.449 -0.0773  1.9083  0.3047
  228THF     H7 2958   2.628   2.622   3.532  0.7528  1.3044 -1.0351
  228THF     C8 2959   2.746   2.503   3.668 -0.4247  0.2135  1.0476
  228THF     C9 2960   2.637   2.434   3.743 -0.3579 -0.3679  0.2660
  228THF    H10 2961   2.771   2.593   3.726  2.5614 -0.8196  1.5674
  228THF    H11 2962   2.838   2.444   3.670  0.2204  1.0908 -0.3456
  228THF    H12 2963   2.677   2.357   3.809 -2.0075 -1.4282  0.0675
  228THF    H13 2964   2.567   2.502   3.792  0.5075 -0.3537  1.5382
  229THF     O1 2965   0.304   4.577   0.960 -0.3958  0.3293  0.2342
  229THF     C2 2966   0.429   4.568   0.889 -0.2770 -0.0233 -0.0729
  229THF     C3 2967   0.352   4.558   1.095 -0.2512 -0.1217 -0.1093
  229THF     H4 2968   0.413   4.587   0.782 -0.0644 -0.3097 -0.1571
  229THF     H5 2969   0.483   4.474   0.901 -1.1683 -0.8802 -2.2646
  229THF     H6 2970   0.276   4.581   1.170  2.5170  0.5335  2.6907
  229THF     H7 2971   0.387   4.456   1.112 -0.7232  0.2458  4.0084
  229THF     C8 2972   0.468   4.651   1.101  0.2442 -0.7993 -0.1683
  229THF     C9 2973   0.509   4.680   0.957 -0.0908  0.1310  0.9698
  229THF    H10 2974   0.550   4.618   1.164  1.1096  1.5959  0.0682
  229THF    H11 2975   0.431   4.742   1.148 -0.6108 -0.0884 -2.0803
  229THF    H12 2976   0.472   4.779   0.930 -0.9102 -0.7163 -1.1740
  229THF    H13 2977   0.617   4.664   0.949 -0.1668  0.0481  0.0042
  230THF     O1 2978   0.593   1.594   3.254 -0.1784 -0.1399  0.3681
  230THF     C2 2979   0.550   1.686   3.353  0.4642  0.7735  0.8185
  230THF     C3 2980   0.504   1.489   3.257  0.4336  0.3009  0.6649
  230THF     H4 2981   0.609   1.776   3.338  0.6819  1.0785  3.1341
  230THF     H5 2982   0.572   1.653   3.455 -0.1992  0.9837  1.0354
  230THF     H6 2983   0.523   1.435   3.164 -0.9622 -0.4420  0.7711
  230THF     H7 2984   0.524   1.420   3.339  2.1891  0.8353  0.7181
  230THF     C8 2985   0.369   1.557   3.254  0.1249  0.0571 -0.2673
  230THF     C9 2986   0.400   1.687   3.324  0.0946 -0.2844  0.3855
  230THF    H10 2987   0.305   1.491   3.313  2.1726  0.3938  2.5486
  230THF    H11 2988   0.332   1.569   3.152 -3.5520 -0.1571  0.8919
  230THF    H12 2989   0.387   1.772   3.257  1.9679 -0.6069 -0.4288
  230THF    H13 2990   0.344   1.702   3.416  0.2883 -0.6404  0.5613
  231THF     O1 2991   4.193   4.260   1.456  0.1689 -0.1344 -0.0726
  231THF     C2 2992   4.322   4.325   1.473 -0.7216 -0.5344  0.0566
  231THF     C3 2993   4.218   4.148   1.371 -0.2736 -0.2777  0.3511
  231THF     H4 2994   4.311   4.392   1.558  0.9003  0.3978 -0.4364
  231THF     H5 2995   4.356   4.377   1.383  0.2100  0.5209  0.9940
  231THF     H6 2996   4.153   4.067   1.405  0.5303  0.4597  4.0973
  231THF     H7 2997   4.191   4.166   1.267  1.2034 -2.7504 -0.5306
  231THF     C8 2998   4.371   4.119   1.392 -0.1784  0.4886  0.0638
  231THF     C9 2999   4.416   4.212   1.506 -0.6532  0.2147 -1.0415
  231THF    H10 3000   4.420   4.143   1.297 -1.0922  0.6335 -0.3772
  231THF    H11 3001   4.394   4.016   1.419  2.0515  1.0066  0.3490
  231THF    H12 3002   4.388   4.171   1.603 -0.2764 -1.6828 -1.6742
  231THF    H13 3003   4.525   4.222   1.506 -0.6426  0.1691 -0.2092
  232THF     O1 3004   2.654   1.591   2.667 -0.1838 -0.5235  0.6413
  232THF     C2 3005   2.680   1.668   2.555 -0.7757  0.4275 -0.3046
  232THF     C3 3006   2.513   1.607   2.700  0.0719 -0.2036  0.2270
  232THF     H4 3007   2.638   1.624   2.464  1.2465 -1.3693 -0.4413
  232THF     H5 3008   2.787   1.681   2.537 -0.1550  0.6885  2.9961
  232THF     H6 3009   2.451   1.547   2.634  0.6173 -1.4304  0.8046
  232THF     H7 3010   2.492   1.585   2.804 -1.9122 -0.4966 -0.1927
  232THF     C8 3011   2.492   1.760   2.670 -0.5369  0.2899  0.4725
  232THF     C9 3012   2.607   1.799   2.586 -0.2430  0.7528  0.1975
  232THF    H10 3013   2.496   1.811   2.766 -0.1405 -0.0301  0.6269
  232THF    H11 3014   2.400   1.783   2.617 -1.4511 -1.7645  1.0609
  232THF    H12 3015   2.599   1.853   2.492  0.9425  0.7513  0.0714
  232THF    H13 3016   2.682   1.861   2.636  0.3441 -0.1176  0.4328
  233THF     O1 3017   0.858   2.735   4.311  0.0814  0.0153 -0.4998
  233THF     C2 3018   0.932   2.849   4.263  0.2319 -0.2783 -0.0339
  233THF     C3 3019   0.938   2.670   4.405 -0.1376 -0.8073  0.1625
  233THF     H4 3020   0.867   2.921   4.214  1.1711 -0.0867 -1.0398
  233THF     H5 3021   1.008   2.817   4.192  1.2746  1.0825  0.4322
  233THF     H6 3022   0.877   2.619   4.479 -0.9077  0.9970  0.8192
  233THF     H7 3023   0.998   2.594   4.354 -2.6596 -0.9140 -2.9785
  233THF     C8 3024   1.027   2.784   4.468  0.2109 -0.3154 -0.1647
  233THF     C9 3025   0.990   2.907   4.386  0.5886  0.8408 -0.2297
  233THF    H10 3026   1.131   2.760   4.443  0.2683  0.8661 -1.1659
  233THF    H11 3027   1.012   2.804   4.574  1.5544 -0.5024  0.0835
  233THF    H12 3028   0.927   2.972   4.447  1.1049  1.3254 -0.2024
  233THF    H13 3029   1.081   2.964   4.365 -1.0034  3.9415  0.6345
  234THF     O1 3030   5.289   2.073   4.135 -0.0187 -0.0621 -0.2223
  234THF     C2 3031   5.266   2.121   4.001 -0.3371  1.1995  0.0500
  234THF     C3 3032   5.259   2.182   4.228  0.8675 -0.0293 -0.1530
  234THF     H4 3033   5.161   2.139   3.975  0.0840  2.7582 -0.6884
  234THF     H5 3034   5.299   2.045   3.931 -2.8207 -1.5748  1.6263
  234THF     H6 3035   5.152   2.189   4.249  0.5957  3.4233 -1.8984
  234THF     H7 3036   5.303   2.169   4.327 -0.7720  0.6210  0.6993
  234THF     C8 3037   5.320   2.299   4.155  0.3320  0.2647 -0.5496
  234THF     C9 3038   5.328   2.260   4.012 -0.0924 -0.2078 -0.3819
  234THF    H10 3039   5.420   2.315   4.195  0.2549 -1.1448  0.2783
  234THF    H11 3040   5.256   2.386   4.170 -0.0593 -0.1098 -0.0250
  234THF    H12 3041   5.277   2.328   3.944 -0.0210  0.5485  0.3074
  234THF    H13 3042   5.435   2.260   3.989  0.0448  0.0075  0.2395
  235THF     O1 3043   0.953   3.965   4.404  0.1411  0.1591 -0.0132
  235THF     C2 3044   1.026   4.077   4.361  0.6158  0.1554 -0.0945
  235THF     C3 3045   0.886   3.990   4.532 -0.3470  0.5607 -0.4998
  235THF     H4 3046   0.969   4.149   4.302  0.2545 -0.2756 -0.2724
  235THF     H5 3047   1.105   4.040   4.297 -0.3386  0.9197 -1.7706
  235THF     H6 3048   0.780   4.007   4.514 -0.6133 -1.8202 -1.6275
  235THF     H7 3049   0.911   3.919   4.611 -0.6501  1.2794  0.2513
  235THF     C8 3050   0.947   4.123   4.572  0.2085 -0.5682  0.9395
  235THF     C9 3051   1.072   4.137   4.490  0.3462 -0.1005  0.9287
  235THF    H10 3052   0.965   4.129   4.679  1.6169 -2.7380  0.8800
  235THF    H11 3053   0.869   4.185   4.528 -1.3252 -2.5892  0.6617
  235THF    H12 3054   1.114   4.237   4.492  2.5651 -0.9441 -0.1547
  235THF    H13 3055   1.156   4.084   4.536  1.6489  0.1799 -1.0030
  236THF     O1 3056   0.636   5.019   3.398  0.2509 -0.2485 -0.7457
  236THF     C2 3057   0.512   5.067   3.462 -0.3189 -0.0621  0.5083
  236THF     C3 3058   0.670   4.897   3.452 -0.2897 -0.0489 -0.0845
  236THF     H4 3059   0.451   5.120   3.389 -0.6939  0.8581  1.4593
  236THF     H5 3060   0.530   5.142   3.539  1.9468  0.6639 -0.6497
  236THF     H6 3061   0.714   4.823   3.385 -0.5460 -0.4701  0.2032
  236THF     H7 3062   0.720   4.906   3.549 -0.1785  3.2734 -0.3369
  236THF     C8 3063   0.543   4.831   3.482  0.2655 -0.2512  0.4950
  236THF     C9 3064   0.454   4.940   3.531 -0.0530 -0.4761 -0.2152
  236THF    H10 3065   0.557   4.745   3.549 -1.2165 -0.7877  0.1504
  236THF    H11 3066   0.510   4.788   3.388 -0.9812 -0.3840  0.9726
  236THF    H12 3067   0.348   4.918   3.516 -0.4691 -0.9142  2.6634
  236THF    H13 3068   0.471   4.951   3.638 -0.4461  1.9920 -0.3701
  237THF     O1 3069   4.494   3.789   0.558 -0.0491  0.0813  0.2033
  237THF     C2 3070   4.619   3.734   0.544 -0.3262  0.2990 -0.6577
  237THF     C3 3071   4.469   3.802   0.704  0.3108 -0.1706  0.4518
  237THF     H4 3072   4.687   3.818   0.560 -0.2948  0.2500 -0.5268
  237THF     H5 3073   4.653   3.690   0.450 -0.5106 -3.2534  0.7889
  237THF     H6 3074   4.511   3.893   0.747 -1.5312  1.3877 -0.8490
  237THF     H7 3075   4.361   3.803   0.718  0.2194 -1.3223 -0.0176
  237THF     C8 3076   4.521   3.666   0.754 -0.0768  0.1003 -0.5050
  237THF     C9 3077   4.635   3.633   0.663 -0.3383 -0.1298  0.0365
  237THF    H10 3078   4.455   3.581   0.740  0.2004 -0.1644 -0.2196
  237THF    H11 3079   4.554   3.667   0.858 -0.6327 -1.5354 -0.2958
  237THF    H12 3080   4.725   3.659   0.717 -0.4560 -1.1126  0.7225
  237THF    H13 3081   4.634   3.531   0.625  0.4141  0.0943 -0.6202
  238THF     O1 3082   5.154   2.637   4.206 -0.4526 -0.5898  0.0851
  238THF     C2 3083   5.270   2.654   4.127  0.1118  0.0982  0.1565
  238THF     C3 3084   5.113   2.763   4.255 -0.0526  0.0556  0.3465
  238THF     H4 3085   5.249   2.605   4.033 -2.6800  0.2614  0.6027
  238THF     H5 3086   5.365   2.614   4.161  1.0624  1.3600 -0.9351
  238THF     H6 3087   5.031   2.799   4.193  0.4693 -1.2831 -1.2086
  238THF     H7 3088   5.084   2.760   4.360  1.7076  0.9526  0.9125
  238THF     C8 3089   5.229   2.854   4.231 -0.9345 -0.0120 -0.3429
  238THF     C9 3090   5.300   2.801   4.109  0.3104 -0.3738  0.0934
  238THF    H10 3091   5.299   2.849   4.315 -1.8010 -0.7871  0.3471
  238THF    H11 3092   5.199   2.957   4.211 -1.8912  0.4121  2.8043
  238THF    H12 3093   5.249   2.842   4.022 -1.8647  0.9621  1.8861
  238THF    H13 3094   5.405   2.833   4.108  0.6086 -1.3085  0.4143
  239THF     O1 3095   2.084   1.497   4.226 -0.4069 -0.7232 -0.2150
  239THF     C2 3096   2.209   1.536   4.280  0.0343 -0.3216  0.3034
  239THF     C3 3097   2.019   1.613   4.195  0.1912 -0.3007 -0.0367
  239THF     H4 3098   2.271   1.541   4.190  0.9459  1.5514  0.9769
  239THF     H5 3099   2.236   1.458   4.350  1.9626 -0.9227 -1.0287
  239THF     H6 3100   2.061   1.658   4.105 -2.2307  2.4204  0.0280
  239THF     H7 3101   1.914   1.602   4.168  0.2820 -0.0947 -0.4827
  239THF     C8 3102   2.034   1.694   4.324 -0.4479 -0.3592  0.1694
  239THF     C9 3103   2.186   1.672   4.349 -0.5975  0.2657 -0.1270
  239THF    H10 3104   1.969   1.657   4.403 -2.7787  1.7407 -0.6146
  239THF    H11 3105   2.020   1.802   4.313 -0.8390 -0.2838  1.2457
  239THF    H12 3106   2.252   1.752   4.313  0.2334 -0.1510  0.4257
  239THF    H13 3107   2.211   1.660   4.455  1.4398  2.1461 -0.3128
  240THF     O1 3108   3.872   3.542   2.933  0.4566 -0.0872  0.5761
  240THF     C2 3109   3.751   3.475   2.984  0.2343  0.1806 -0.2144
  240THF     C3 3110   3.834   3.662   2.877  0.4244  0.2176  0.1175
  240THF     H4 3111   3.726   3.493   3.089 -2.7075 -4.4713  0.1455
  240THF     H5 3112   3.756   3.367   2.977  0.3253  0.1443  0.3316
  240THF     H6 3113   3.831   3.741   2.952 -1.6475 -1.1117  1.5252
  240THF     H7 3114   3.899   3.686   2.793 -1.8351  0.6562 -1.5986
  240THF     C8 3115   3.684   3.649   2.846  0.2435  0.2388  0.4062
  240THF     C9 3116   3.634   3.526   2.910 -0.4536  0.2635 -0.1966
  240THF    H10 3117   3.672   3.650   2.737  0.0798  1.2533  0.4306
  240THF    H11 3118   3.626   3.729   2.892 -0.0770 -0.4030  1.1400
  240THF    H12 3119   3.559   3.547   2.987  0.2014  0.3259  0.4402
  240THF    H13 3120   3.591   3.453   2.842 -0.7998 -2.6153  2.8202
  241THF     O1 3121   4.817   3.060   1.809 -0.0971 -0.0149 -0.4393
  241THF     C2 3122   4.930   3.139   1.779  0.8416 -0.6026  0.3991
  241THF     C3 3123   4.760   3.106   1.927 -1.0364 -0.0675 -0.1437
  241THF     H4 3124   4.927   3.178   1.677  2.0749  1.8294  1.1968
  241THF     H5 3125   5.023   3.084   1.792  1.3877 -0.4471 -2.3164
  241THF     H6 3126   4.656   3.074   1.937 -0.6048 -1.5333 -0.0698
  241THF     H7 3127   4.813   3.061   2.011 -2.8922 -1.0059  0.5961
  241THF     C8 3128   4.786   3.260   1.928 -0.9997 -0.0911 -0.5100
  241THF     C9 3129   4.927   3.260   1.869 -0.1836 -0.7578 -0.1180
  241THF    H10 3130   4.777   3.309   2.025 -0.8956 -1.5360  0.2694
  241THF    H11 3131   4.719   3.304   1.855  0.0323  0.5845 -1.0735
  241THF    H12 3132   4.932   3.360   1.825  0.1982  0.1831  1.9227
  241THF    H13 3133   4.997   3.248   1.952  0.2539  0.4010 -0.3018
  242THF     O1 3134   0.968   4.694   2.283 -0.0180  0.7161  0.0311
  242THF     C2 3135   0.911   4.658   2.160 -0.3214 -0.5570 -0.1883
  242THF     C3 3136   1.083   4.771   2.264 -0.0054  0.8045 -0.5709
  242THF     H4 3137   0.831   4.727   2.135 -1.2549 -1.0865  1.2040
  242THF     H5 3138   0.867   4.558   2.162 -1.3674 -0.1661 -1.8618
  242THF     H6 3139   1.063   4.872   2.299 -1.5425  0.1552  0.5714
  242THF     H7 3140   1.165   4.734   2.326 -0.3195  1.4313  0.2358
  242THF     C8 3141   1.111   4.780   2.114 -0.0163  0.0747 -0.6550
  242THF     C9 3142   1.025   4.677   2.051  0.5852 -0.1504 -0.0978
  242THF    H10 3143   1.217   4.770   2.092 -0.1244 -0.7991 -0.8173
  242THF    H11 3144   1.078   4.879   2.082  0.8714  1.7651  3.0401
  242THF    H12 3145   0.989   4.711   1.954  1.8952  0.9564 -0.2332
  242THF    H13 3146   1.069   4.578   2.038 -0.8358 -1.0539  1.5853
  243THF     O1 3147   1.479   4.346   0.487 -0.1221 -0.4312  0.0853
  243THF     C2 3148   1.578   4.326   0.589  0.0843 -0.3984 -0.8240
  243THF     C3 3149   1.361   4.325   0.561  0.4152  0.3671  0.1032
  243THF     H4 3150   1.682   4.347   0.566  0.2194 -0.8117 -0.5886
  243THF     H5 3151   1.568   4.222   0.620 -1.6843  0.1882  0.8069
  243THF     H6 3152   1.277   4.364   0.505  0.8542  1.4831  0.2046
  243THF     H7 3153   1.353   4.217   0.576 -0.1864 -0.3087 -3.9790
  243THF     C8 3154   1.380   4.411   0.682 -0.3844  0.2128 -0.1371
  243THF     C9 3155   1.534   4.414   0.707  0.7002 -0.4277 -0.5618
  243THF    H10 3156   1.316   4.365   0.758 -0.3080 -2.4240 -1.5345
  243THF    H11 3157   1.337   4.509   0.663 -0.0481  0.9694  2.5725
  243THF    H12 3158   1.570   4.516   0.698  0.9883 -0.2973  1.6434
  243THF    H13 3159   1.567   4.377   0.803  0.7000 -0.2797 -0.5049
  244THF     O1 3160   1.724   1.828   3.302  0.4366 -0.7814 -0.6506
  244THF     C2 3161   1.735   1.962   3.352 -0.1278  0.2005 -0.0512
  244THF     C3 3162   1.844   1.766   3.283  0.5715 -0.2015 -0.0251
  244THF     H4 3163   1.692   1.972   3.451  0.1999 -1.9193  0.3380
  244THF     H5 3164   1.689   2.030   3.280 -0.3255 -2.4945 -2.6385
  244THF     H6 3165   1.875   1.704   3.366  1.1898  1.7036  1.2348
  244THF     H7 3166   1.839   1.710   3.190  1.8391  0.0572 -0.2614
  244THF     C8 3167   1.950   1.878   3.262  0.2653 -0.2203 -0.5715
  244THF     C9 3168   1.884   1.981   3.355  0.0042  0.1311  0.2921
  244THF    H10 3169   1.950   1.917   3.160 -2.3714 -0.2518 -0.6581
  244THF    H11 3170   2.052   1.851   3.288  1.3897  3.4351 -0.7542
  244THF    H12 3171   1.930   1.966   3.453  0.9576 -2.3800 -0.4658
  244THF    H13 3172   1.910   2.086   3.339  2.0533 -0.3899 -0.1065
  245THF     O1 3173   1.660   1.909   2.615 -0.4008 -0.4043 -0.5502
  245THF     C2 3174   1.704   1.774   2.602  0.4752  0.5999  0.4107
  245THF     C3 3175   1.522   1.920   2.576 -0.0068 -0.3901  0.3451
  245THF     H4 3176   1.768   1.742   2.684 -0.1450  1.0986  1.1055
  245THF     H5 3177   1.756   1.766   2.507 -1.8791 -2.0785 -0.7958
  245THF     H6 3178   1.454   1.955   2.653  1.3281  1.0360  0.9136
  245THF     H7 3179   1.513   1.983   2.487  2.8451 -1.3628 -0.7532
  245THF     C8 3180   1.479   1.776   2.528  0.3105 -0.4968 -0.5761
  245THF     C9 3181   1.573   1.685   2.599 -0.2436  0.1463 -0.4472
  245THF    H10 3182   1.508   1.773   2.423  0.3532  2.9577 -0.7844
  245THF    H11 3183   1.373   1.754   2.537  0.4366 -1.5938 -1.5317
  245THF    H12 3184   1.544   1.662   2.701  0.3718  3.1431  0.5183
  245THF    H13 3185   1.592   1.592   2.546  0.6699  0.2625 -0.3473
  246THF     O1 3186   1.548   3.101   3.971  0.7263  0.2696  0.0493
  246THF     C2 3187   1.537   3.239   3.941 -0.0601  0.1194 -0.1608
  246THF     C3 3188   1.640   3.075   4.076  0.3371 -0.4226  0.0014
  246THF     H4 3189   1.436   3.265   3.975 -0.9174 -2.1799 -0.7564
  246THF     H5 3190   1.542   3.258   3.834  1.1473  0.7095 -0.0151
  246THF     H6 3191   1.577   3.083   4.164 -0.2936  2.6819 -0.6189
  246THF     H7 3192   1.687   2.977   4.064  0.5364 -0.1899 -1.2874
  246THF     C8 3193   1.740   3.189   4.057  0.8607  0.5304 -0.3968
  246THF     C9 3194   1.658   3.304   4.015  0.1008 -0.4931 -0.4787
  246THF    H10 3195   1.821   3.167   3.988  0.6538 -0.8322 -0.2446
  246THF    H11 3196   1.791   3.218   4.148 -1.0756  1.0791  0.5566
  246THF    H12 3197   1.621   3.358   4.102 -2.9395 -0.1874 -1.8346
  246THF    H13 3198   1.719   3.376   3.960  0.9580 -0.8381 -0.0049
  247THF     O1 3199   0.363   3.987   5.197  0.1804  0.3866  0.3084
  247THF     C2 3200   0.447   4.105   5.180  1.0415 -0.3968 -0.5956
  247THF     C3 3201   0.423   3.869   5.156 -0.5845 -0.1750  0.0010
  247THF     H4 3202   0.414   4.189   5.241  3.0461  0.8176 -1.0860
  247THF     H5 3203   0.447   4.141   5.077  2.2385 -0.6591 -0.7001
  247THF     H6 3204   0.369   3.786   5.201  2.0122 -0.3898  3.1167
  247THF     H7 3205   0.424   3.850   5.049 -0.2776 -1.8482  0.2740
  247THF     C8 3206   0.556   3.890   5.228 -0.0218 -0.2353 -0.1337
  247THF     C9 3207   0.577   4.046   5.225 -0.3065  0.0957  0.1481
  247THF    H10 3208   0.634   3.824   5.191  1.2938  1.1005  0.1303
  247THF    H11 3209   0.549   3.869   5.335  1.3671 -1.7073 -0.2914
  247THF    H12 3210   0.604   4.079   5.325 -1.7723 -0.8820  0.8912
  247THF    H13 3211   0.662   4.068   5.160  1.0919 -2.7956  0.8288
  248THF     O1 3212   3.314   3.957   4.444 -0.2804  0.3667  0.7502
  248THF     C2 3213   3.440   3.915   4.484 -0.4448 -0.3120  0.5150
  248THF     C3 3214   3.332   4.061   4.349 -0.4384  0.0478  0.0176
  248THF     H4 3215   3.451   3.817   4.531  2.7275 -0.4279 -0.2113
  248THF     H5 3216   3.472   3.998   4.548 -0.7489 -0.4344  0.8269
  248THF     H6 3217   3.253   4.051   4.275  1.4815 -0.8458 -2.0468
  248THF     H7 3218   3.320   4.155   4.403 -0.1701  0.3314 -0.4112
  248THF     C8 3219   3.470   4.054   4.291 -0.0344 -0.3250 -0.3013
  248THF     C9 3220   3.523   3.938   4.362 -0.3681 -0.0859 -0.7405
  248THF    H10 3221   3.521   4.147   4.314  0.2730 -0.0484 -1.9805
  248THF    H11 3222   3.478   4.039   4.183  2.2281 -3.0768  0.1334
  248THF    H12 3223   3.514   3.859   4.287  2.1550  0.0197 -1.2262
  248THF    H13 3224   3.630   3.933   4.381 -0.7077 -0.7365  1.2453
  249THF     O1 3225   2.574   4.261   4.272 -0.0232 -0.1111  0.4742
  249THF     C2 3226   2.547   4.130   4.240  0.1483 -0.1160  1.2677
  249THF     C3 3227   2.516   4.281   4.398  0.2519  0.4074 -0.0138
  249THF     H4 3228   2.611   4.104   4.156 -1.4130 -0.8414  0.2655
  249THF     H5 3229   2.447   4.109   4.204  0.4123 -2.2366  1.6437
  249THF     H6 3230   2.538   4.376   4.448  3.2552  0.9522 -2.0840
  249THF     H7 3231   2.409   4.263   4.397 -0.0218  1.9631 -0.1835
  249THF     C8 3232   2.584   4.167   4.470  0.2167  0.2407  0.0266
  249THF     C9 3233   2.585   4.049   4.364  0.1031 -0.5364  0.3897
  249THF    H10 3234   2.537   4.144   4.565 -0.7355  1.1134 -0.2130
  249THF    H11 3235   2.685   4.183   4.510  0.7803 -1.7158 -0.5220
  249THF    H12 3236   2.679   3.998   4.344  0.9757  1.0520  0.2943
  249THF    H13 3237   2.506   3.975   4.373 -0.7398  0.3822  0.7991
  250THF     O1 3238   4.068   0.955   3.496 -0.4298 -0.2046  0.5344
  250THF     C2 3239   4.045   0.912   3.360 -0.4061 -0.0154 -0.0211
  250THF     C3 3240   4.209   0.954   3.513  0.4427 -0.4143  0.3406
  250THF     H4 3241   3.946   0.947   3.331 -0.5168  0.2081  0.6021
  250THF     H5 3242   4.042   0.803   3.356 -0.4334 -0.1055  1.7263
  250THF     H6 3243   4.233   1.009   3.604  0.8667  0.6701 -0.4112
  250THF     H7 3244   4.241   0.850   3.511 -0.2565 -0.6326  0.2274
  250THF     C8 3245   4.250   1.035   3.389 -0.3464 -0.5733  0.6348
  250THF     C9 3246   4.169   0.965   3.288 -0.1878  0.3651 -0.0474
  250THF    H10 3247   4.357   1.024   3.371 -0.5065 -1.4862  0.1683
  250THF    H11 3248   4.224   1.141   3.389  0.1618 -0.4460  0.7436
  250THF    H12 3249   4.137   1.033   3.210  0.0768 -0.7346 -1.1367
  250THF    H13 3250   4.222   0.879   3.247 -0.5134  0.4443 -0.6444
  251THF     O1 3251   2.806   5.098   2.980  0.0948 -0.2234 -0.0773
  251THF     C2 3252   2.682   5.079   2.912 -0.2475  0.6745  0.2480
  251THF     C3 3253   2.900   5.096   2.873  0.4336  0.3429  0.1417
  251THF     H4 3254   2.600   5.123   2.969 -1.6398 -1.6218  0.1226
  251THF     H5 3255   2.659   4.974   2.901  0.9375  0.1442  2.2473
  251THF     H6 3256   2.993   5.139   2.911  0.2000  2.4428 -1.4687
  251THF     H7 3257   2.910   4.999   2.825  0.0092 -0.1775  1.0725
  251THF     C8 3258   2.842   5.190   2.764  0.5361  1.2056 -0.7090
  251THF     C9 3259   2.694   5.138   2.777  0.4700 -0.2453  0.7022
  251THF    H10 3260   2.897   5.171   2.672  0.4424  1.3126 -0.7879
  251THF    H11 3261   2.855   5.295   2.789  2.4482  0.9587 -0.5522
  251THF    H12 3262   2.617   5.214   2.763 -0.0548 -1.0631 -1.2200
  251THF    H13 3263   2.656   5.067   2.703 -2.5443  1.3547  0.5744
  252THF     O1 3264   3.887   2.131   0.354  0.3089  0.0491 -0.1547
  252THF     C2 3265   3.772   2.126   0.428  0.0895  0.4528  0.7323
  252THF     C3 3266   3.984   2.199   0.429 -0.4476 -0.3177  0.0751
  252THF     H4 3267   3.757   2.039   0.492 -0.9037  0.1777  0.1453
  252THF     H5 3268   3.688   2.135   0.359  0.5784  1.4540  0.2456
  252THF     H6 3269   4.044   2.154   0.508  0.6714 -1.1754 -1.2244
  252THF     H7 3270   4.059   2.242   0.362  1.2066  0.5236  2.3361
  252THF     C8 3271   3.898   2.314   0.485 -0.0445  0.1548  0.3036
  252THF     C9 3272   3.771   2.246   0.527 -0.6481  0.7542 -0.0794
  252THF    H10 3273   3.880   2.377   0.398 -0.7681 -1.4085 -0.7361
  252THF    H11 3274   3.940   2.374   0.566  0.1942  1.7330 -0.9446
  252THF    H12 3275   3.774   2.207   0.629  1.8907  0.0850 -0.3326
  252THF    H13 3276   3.691   2.318   0.510  0.7962  2.8391  1.5284
  253THF     O1 3277   1.859   1.449   3.093  0.1174 -0.4760  0.3925
  253THF     C2 3278   1.799   1.382   3.204 -0.1610 -0.1868  0.4284
  253THF     C3 3279   1.751   1.494   3.007  0.3547  0.3907  0.0031
  253THF     H4 3280   1.748   1.457   3.264 -1.4668 -0.5309 -0.2245
  253THF     H5 3281   1.873   1.327   3.262 -1.8387 -2.2544  0.6867
  253THF     H6 3282   1.703   1.581   3.052 -1.0792  1.1054 -2.6927
  253THF     H7 3283   1.788   1.518   2.908  3.0668 -1.9839  0.2980
  253THF     C8 3284   1.664   1.370   3.014  0.7596  0.1455 -0.5436
  253THF     C9 3285   1.703   1.295   3.132 -0.2763  0.2534  0.2624
  253THF    H10 3286   1.675   1.311   2.923 -2.2450 -1.9111  0.2551
  253THF    H11 3287   1.557   1.395   3.011  1.0129  1.2677 -0.7867
  253THF    H12 3288   1.612   1.284   3.190 -0.3432 -1.5992 -0.1532
  253THF    H13 3289   1.741   1.200   3.097  0.2415  1.0366 -1.4001
  254THF     O1 3290   0.219   1.962   3.691 -0.3325  0.4779  0.4193
  254THF     C2 3291   0.350   1.929   3.730 -0.1678 -0.3748  0.0264
  254THF     C3 3292   0.144   1.970   3.810  0.1350 -0.1709  0.1719
  254THF     H4 3293   0.392   2.024   3.765  0.5167  0.9032 -3.7512
  254THF     H5 3294   0.416   1.897   3.649  1.0597 -0.0179  0.8594
  254THF     H6 3295   0.149   2.062   3.868  0.4224 -0.7236  1.0368
  254THF     H7 3296   0.040   1.955   3.779  0.8066 -2.2650 -1.3390
  254THF     C8 3297   0.189   1.853   3.894 -0.0366  0.6858  0.5116
  254THF     C9 3298   0.333   1.835   3.841 -0.5425  0.3262 -0.4178
  254THF    H10 3299   0.138   1.758   3.873  1.2538  0.1193 -0.1514
  254THF    H11 3300   0.166   1.880   3.997 -1.9834 -1.8891  0.8764
  254THF    H12 3301   0.406   1.851   3.921  0.3535 -1.7880 -0.7510
  254THF    H13 3302   0.348   1.734   3.804 -0.0299  0.3284 -0.2334
  255THF     O1 3303   0.267   3.806   1.138  0.1100  0.0111 -0.0431
  255THF     C2 3304   0.281   3.740   1.018 -0.2783  0.0267  0.0023
  255THF     C3 3305   0.142   3.755   1.202 -0.3204  0.0123 -0.9857
  255THF     H4 3306   0.333   3.645   1.030  1.8465  0.7636 -2.5986
  255THF     H5 3307   0.337   3.802   0.948  1.1371 -1.2532 -0.0483
  255THF     H6 3308   0.156   3.659   1.251 -0.7773  0.3210 -0.2323
  255THF     H7 3309   0.099   3.827   1.271  0.6336 -1.0402  0.7940
  255THF     C8 3310   0.052   3.745   1.077 -0.0227  0.2890 -1.0017
  255THF     C9 3311   0.144   3.727   0.959  0.7536 -0.1763 -0.0953
  255THF    H10 3312  -0.018   3.827   1.062 -0.6983 -0.0272  0.2792
  255THF    H11 3313  -0.008   3.654   1.081  1.7472 -1.0236 -2.3556
  255THF    H12 3314   0.139   3.635   0.902  1.1024  0.0672 -0.5259
  255THF    H13 3315   0.111   3.809   0.895  1.7106  1.3120  1.2130
  256THF     O1 3316   1.528   2.647   4.478  0.3479 -0.2254 -0.1097
  256THF     C2 3317   1.616   2.596   4.372 -0.0645 -0.8179 -0.5307
  256THF     C3 3318   1.408   2.686   4.425  0.4478 -0.2531 -0.5309
  256THF     H4 3319   1.690   2.529   4.417 -0.7589 -1.5316 -0.4196
  256THF     H5 3320   1.662   2.685   4.329 -1.0267  0.1786  0.4546
  256THF     H6 3321   1.333   2.661   4.500  0.3915  0.0858 -0.4712
  256THF     H7 3322   1.399   2.794   4.412 -0.3204 -0.1536  0.6401
  256THF     C8 3323   1.401   2.613   4.288 -0.3042  0.3673  0.0600
  256THF     C9 3324   1.520   2.524   4.277 -0.1437  0.1641  0.4307
  256THF    H10 3325   1.395   2.683   4.204 -2.3205 -0.2652 -0.3767
  256THF    H11 3326   1.313   2.550   4.276 -0.9407  0.9501  1.4664
  256THF    H12 3327   1.500   2.421   4.306  1.9428 -0.5892 -0.6138
  256THF    H13 3328   1.552   2.532   4.173  1.0286  0.7836  0.8291
  257THF     O1 3329   3.087   5.473   1.895  0.5647  0.1905 -0.2963
  257THF     C2 3330   2.954   5.496   1.842  0.0464  0.2718  0.2548
  257THF     C3 3331   3.186   5.526   1.813 -0.0133 -0.1493 -0.0303
  257THF     H4 3332   2.908   5.595   1.844  1.5465  1.0025  0.3807
  257THF     H5 3333   2.889   5.430   1.898 -0.2910  0.1468 -0.2852
  257THF     H6 3334   3.203   5.630   1.841 -1.8030  0.1199  0.1452
  257THF     H7 3335   3.276   5.467   1.828 -0.3779 -0.5664  0.5570
  257THF     C8 3336   3.134   5.502   1.671  0.5315 -0.4879 -0.2189
  257THF     C9 3337   2.991   5.455   1.693 -0.5706 -0.0663  0.0928
  257THF    H10 3338   3.196   5.423   1.628 -0.3896 -0.7109 -1.1843
  257THF    H11 3339   3.151   5.589   1.607  1.0945 -0.3147  0.1554
  257THF    H12 3340   2.925   5.485   1.612  1.5851 -0.9095 -2.1185
  257THF    H13 3341   2.986   5.351   1.661 -0.9641  0.4963 -1.8368
  258THF     O1 3342   0.750   0.421   1.900  0.1553  0.2878 -0.1042
  258THF     C2 3343   0.770   0.532   1.813 -0.3196 -0.6510 -0.0556
  258THF     C3 3344   0.725   0.461   2.035  0.2398  0.2019  0.5932
  258THF     H4 3345   0.689   0.555   1.744  0.0875  1.9311  0.2252
  258THF     H5 3346   0.858   0.507   1.754  0.4917 -1.2498  1.3855
  258THF     H6 3347   0.640   0.404   2.073 -0.6959 -1.7794 -3.8381
  258THF     H7 3348   0.811   0.448   2.101  1.3300 -0.3486 -0.8853
  258THF     C8 3349   0.692   0.612   2.016  0.4291 -0.0867  0.4294
  258THF     C9 3350   0.785   0.655   1.901  0.3952  0.0797 -0.2695
  258THF    H10 3351   0.716   0.665   2.108  1.9072 -0.2102  0.1413
  258THF    H11 3352   0.589   0.620   1.983  0.7124  1.6944 -0.1177
  258THF    H12 3353   0.741   0.738   1.845 -1.6606  0.7769  2.1952
  258THF    H13 3354   0.891   0.660   1.925  0.1369  0.5481  0.8181
  259THF     O1 3355   2.590   0.910   1.626 -0.0484 -0.3493  0.1520
  259THF     C2 3356   2.704   0.856   1.695 -0.2317  0.2512 -0.5892
  259THF     C3 3357   2.576   0.845   1.500  0.5509 -0.3414  0.1832
  259THF     H4 3358   2.680   0.763   1.746 -1.0536  1.8957  2.2381
  259THF     H5 3359   2.743   0.918   1.775 -1.5076 -2.1521  2.0930
  259THF     H6 3360   2.513   0.757   1.511  1.2723 -0.7290  1.3552
  259THF     H7 3361   2.534   0.906   1.419  1.5671  1.2076  0.7667
  259THF     C8 3362   2.719   0.793   1.462 -0.3279  0.3443  0.2163
  259THF     C9 3363   2.801   0.823   1.583  0.1266  0.4952 -0.7593
  259THF    H10 3364   2.758   0.839   1.371 -0.5757  0.7994  0.3378
  259THF    H11 3365   2.713   0.685   1.447  0.9415  0.2802  0.0452
  259THF    H12 3366   2.862   0.739   1.617  1.3450  1.8303  0.4417
  259THF    H13 3367   2.869   0.906   1.566  1.6106 -0.7107 -0.9573
  260THF     O1 3368   3.821   2.534   0.160  0.1268 -0.1751  0.2627
  260THF     C2 3369   3.946   2.524   0.085  0.8275 -0.0195 -0.1323
  260THF     C3 3370   3.734   2.427   0.129 -0.4022 -0.1793 -0.4166
  260THF     H4 3371   4.016   2.459   0.137 -0.4686 -2.3012 -1.0873
  260THF     H5 3372   3.984   2.626   0.076 -0.2470  0.4219  0.1446
  260THF     H6 3373   3.740   2.350   0.206 -1.2075  0.8001  0.6642
  260THF     H7 3374   3.631   2.462   0.133 -0.8343 -1.3822 -0.4777
  260THF     C8 3375   3.775   2.366  -0.003 -0.5004  0.2691  0.0415
  260THF     C9 3376   3.884   2.466  -0.041  0.3382 -0.3119  0.0030
  260THF    H10 3377   3.705   2.362  -0.086  2.2627 -0.0958 -2.4385
  260THF    H11 3378   3.819   2.267   0.009  0.8581  0.7059 -1.0346
  260THF    H12 3379   3.952   2.437  -0.121  0.7261  0.5810 -0.0028
  260THF    H13 3380   3.833   2.542  -0.099  0.2600 -1.6448 -1.7320
  261THF     O1 3381   2.445   3.087   4.911  0.5743 -0.2995 -0.0282
  261THF     C2 3382   2.534   3.167   4.841 -0.0375 -0.1760 -0.3297
  261THF     C3 3383   2.417   3.139   5.041  0.0142 -0.1499  0.7476
  261THF     H4 3384   2.507   3.184   4.736 -3.0346  0.3569  0.4441
  261THF     H5 3385   2.635   3.127   4.846  0.6256  1.3708 -0.5278
  261THF     H6 3386   2.315   3.177   5.032 -1.3687 -3.7572 -0.7065
  261THF     H7 3387   2.418   3.073   5.128 -0.1967  0.3413  1.1311
  261THF     C8 3388   2.519   3.243   5.064 -0.1522  0.3228 -0.3309
  261THF     C9 3389   2.528   3.294   4.924  0.2262  0.3745  0.6000
  261THF    H10 3390   2.615   3.203   5.096  0.3466  0.0350 -2.0885
  261THF    H11 3391   2.494   3.332   5.122 -0.6363  0.2444 -0.4122
  261THF    H12 3392   2.444   3.362   4.910 -0.6238 -0.6026  0.8126
  261THF    H13 3393   2.614   3.361   4.919  1.1168 -0.8310 -0.9929
  262THF     O1 3394   2.810   1.244   0.887 -0.4263  0.1047  0.0269
  262THF     C2 3395   2.738   1.140   0.955  0.2019  0.7373  0.4607
  262THF     C3 3396   2.778   1.237   0.749 -0.0141  0.7200 -0.1691
  262THF     H4 3397   2.635   1.174   0.955  0.5235  1.8325 -1.3883
  262THF     H5 3398   2.773   1.112   1.055  2.7979  1.6954 -0.0900
  262THF     H6 3399   2.694   1.306   0.733  0.5376  0.8952 -2.7266
  262THF     H7 3400   2.858   1.266   0.681  0.7117 -2.3022 -0.7353
  262THF     C8 3401   2.743   1.094   0.716 -0.2031  0.2491 -0.0732
  262THF     C9 3402   2.745   1.025   0.851 -0.0222  0.2584  0.0453
  262THF    H10 3403   2.823   1.058   0.651  0.6683  0.8080  0.6785
  262THF    H11 3404   2.650   1.081   0.660 -0.1793  1.9613 -0.5713
  262THF    H12 3405   2.655   0.963   0.850 -0.7429  1.2796 -0.4626
  262THF    H13 3406   2.832   0.964   0.871 -0.1303 -0.5689 -1.8162
  263THF     O1 3407   0.740   0.731   1.000 -0.1645 -0.0250 -0.3323
  263THF     C2 3408   0.755   0.708   0.859  0.3279  0.3263 -0.1548
  263THF     C3 3409   0.799   0.618   1.065 -0.2180  0.2326 -0.2276
  263THF     H4 3410   0.745   0.802   0.805 -0.0708 -0.3702 -1.3208
  263THF     H5 3411   0.678   0.645   0.816  0.9563 -0.7087  0.2002
  263THF     H6 3412   0.825   0.644   1.167  0.6682  0.9268 -0.6199
  263THF     H7 3413   0.722   0.541   1.065 -0.9313  0.7747 -3.8887
  263THF     C8 3414   0.919   0.577   0.982 -0.1094  0.6117  0.0853
  263THF     C9 3415   0.895   0.649   0.846  0.2785  0.5387 -0.3094
  263THF    H10 3416   0.928   0.469   0.979  1.0153  0.4410  3.7390
  263THF    H11 3417   1.015   0.612   1.021  0.1506  0.5899 -0.5323
  263THF    H12 3418   0.971   0.727   0.842  1.2664 -0.3886 -0.3291
  263THF    H13 3419   0.915   0.572   0.772  0.0599 -0.4538  0.6251
  264THF     O1 3420   2.621   1.152   1.824 -0.3328  0.0267 -0.3544
  264THF     C2 3421   2.539   1.089   1.925  0.4925  0.2894 -0.5040
  264THF     C3 3422   2.736   1.202   1.888  0.1654  0.0862  0.3898
  264THF     H4 3423   2.507   0.990   1.894  0.8797  0.5472 -1.7935
  264THF     H5 3424   2.449   1.150   1.935  0.0510 -0.6452  2.0310
  264THF     H6 3425   2.810   1.126   1.861 -0.0498  0.5278 -1.5474
  264THF     H7 3426   2.773   1.296   1.847  1.8431 -2.1701 -3.7806
  264THF     C8 3427   2.712   1.200   2.040  0.4355 -0.5230 -0.0902
  264THF     C9 3428   2.606   1.094   2.057  0.1941 -0.2871 -0.2560
  264THF    H10 3429   2.656   1.286   2.077 -2.3424 -1.9651 -0.6812
  264THF    H11 3430   2.805   1.185   2.095  1.3306  1.9774 -0.7944
  264THF    H12 3431   2.655   0.999   2.079 -1.6627 -0.9877  1.0970
  264THF    H13 3432   2.548   1.108   2.148  0.8094  1.2779 -0.0610
  265THF     O1 3433   3.949   2.019   2.925  0.1275  0.3228 -0.1858
  265THF     C2 3434   4.019   2.145   2.955 -0.2296 -0.2803 -0.1109
  265THF     C3 3435   3.876   1.980   3.042  0.5428 -0.6572  0.2718
  265THF     H4 3436   3.949   2.225   2.932  0.1133 -0.3383 -1.4498
  265THF     H5 3437   4.107   2.145   2.890  0.9171 -1.1955  1.3810
  265THF     H6 3438   3.804   2.060   3.062  1.5110 -0.1158  1.8133
  265THF     H7 3439   3.821   1.886   3.051  0.5522 -0.8638 -1.4577
  265THF     C8 3440   3.983   1.999   3.148  0.4892  0.9539 -0.5584
  265THF     C9 3441   4.043   2.134   3.100 -0.6258 -0.4793 -0.6160
  265THF    H10 3442   4.055   1.918   3.141 -0.4093  0.0123  0.6166
  265THF    H11 3443   3.957   2.008   3.254  0.8391  1.2721 -0.4969
  265THF    H12 3444   4.005   2.211   3.166  2.5162 -0.7980  1.7722
  265THF    H13 3445   4.150   2.150   3.113 -0.8804  1.4903 -0.6839
  266THF     O1 3446   2.666   3.527   4.575  0.6736 -0.3733  0.4084
  266THF     C2 3447   2.568   3.493   4.471  0.0961  0.3994  0.6232
  266THF     C3 3448   2.763   3.591   4.493  0.0122 -0.0073 -0.5125
  266THF     H4 3449   2.471   3.481   4.521  0.4996 -0.7309  1.1634
  266THF     H5 3450   2.589   3.399   4.421 -0.7852  0.7512 -0.4299
  266THF     H6 3451   2.835   3.637   4.559 -0.0051 -0.7746  0.0514
  266THF     H7 3452   2.826   3.530   4.428  1.2049 -1.9768  2.2995
  266THF     C8 3453   2.678   3.702   4.427 -0.5130  0.0420 -0.4954
  266THF     C9 3454   2.570   3.611   4.375 -0.3334 -0.1264  0.4779
  266THF    H10 3455   2.728   3.755   4.347  0.1292 -2.4358 -1.8459
  266THF    H11 3456   2.643   3.774   4.501  0.5703  1.1719 -1.0646
  266THF    H12 3457   2.489   3.681   4.398  0.1413  0.0756  1.6028
  266THF    H13 3458   2.559   3.586   4.269 -3.1445  1.5453  0.2726
  267THF     O1 3459   5.374   4.108   0.252 -0.2180 -0.2515  0.5876
  267THF     C2 3460   5.479   4.208   0.270 -0.1064 -0.5048  0.1750
  267THF     C3 3461   5.261   4.188   0.215 -0.2325 -0.4554  0.6160
  267THF     H4 3462   5.580   4.167   0.264  0.7588  1.7028 -1.8084
  267THF     H5 3463   5.470   4.258   0.367  1.7709  2.3661 -0.9861
  267THF     H6 3464   5.193   4.117   0.169  0.5648  0.5755 -2.3802
  267THF     H7 3465   5.199   4.222   0.298 -0.0716  0.9345  0.1916
  267THF     C8 3466   5.309   4.295   0.118  0.1683  0.7168 -0.5911
  267THF     C9 3467   5.449   4.297   0.154  0.9580 -0.0760  0.4313
  267THF    H10 3468   5.263   4.391   0.140 -4.1557 -1.1425 -0.4275
  267THF    H11 3469   5.295   4.271   0.012  0.0636 -3.7937  0.2415
  267THF    H12 3470   5.513   4.259   0.074  1.3381  0.5112  0.4409
  267THF    H13 3471   5.480   4.399   0.181  0.0689  0.6835 -1.2877
  268THF     O1 3472   0.507   2.841   5.250 -0.1669 -0.5561 -0.2388
  268THF     C2 3473   0.400   2.845   5.343  0.3276  0.1233  0.6420
  268THF     C3 3474   0.627   2.894   5.308 -0.5818 -0.6344 -0.2114
  268THF     H4 3475   0.385   2.739   5.361 -0.4109  0.1075 -0.0093
  268THF     H5 3476   0.306   2.893   5.316  1.0246  1.9965  1.3762
  268THF     H6 3477   0.689   2.816   5.351  0.3477  0.7851  1.1220
  268THF     H7 3478   0.682   2.950   5.233 -1.8786  2.2590  0.8724
  268THF     C8 3479   0.569   2.990   5.416  0.2187 -0.1350 -0.0943
  268THF     C9 3480   0.452   2.913   5.473  0.5236 -0.7106 -0.0344
  268THF    H10 3481   0.547   3.082   5.362  2.6683  0.7476  0.2732
  268THF    H11 3482   0.650   3.014   5.486  1.1145  2.4443 -1.8308
  268THF    H12 3483   0.472   2.846   5.556  1.7922  0.5701  0.7408
  268THF    H13 3484   0.386   2.977   5.532 -1.8322 -3.9502  1.0934
  269THF     O1 3485   0.116   0.533   3.981  0.3557 -0.1020  0.0055
  269THF     C2 3486  -0.002   0.592   4.043  0.1582  0.2247 -0.2976
  269THF     C3 3487   0.066   0.475   3.860 -0.7130  0.0028  0.0082
  269THF     H4 3488   0.030   0.695   4.058  0.4589  0.4820 -2.3357
  269THF     H5 3489  -0.019   0.554   4.143 -0.0360  0.9495 -0.0492
  269THF     H6 3490   0.104   0.540   3.782 -1.5393  0.8907  0.3293
  269THF     H7 3491   0.093   0.370   3.848 -0.2654 -0.4433  3.6061
  269THF     C8 3492  -0.088   0.478   3.854  0.6696 -0.2704 -0.3435
  269THF     C9 3493  -0.125   0.574   3.963  0.7705  0.1433  0.0664
  269THF    H10 3494  -0.124   0.380   3.886 -1.3555  1.2146  2.4156
  269THF    H11 3495  -0.136   0.503   3.760 -0.9254  0.0883  0.5278
  269THF    H12 3496  -0.177   0.663   3.926  0.0084  0.8400  2.6439
  269THF    H13 3497  -0.206   0.528   4.019  1.4495  1.7579  2.5332
  270THF     O1 3498   5.459   1.917   0.980  0.0724 -0.9578  0.0168
  270THF     C2 3499   5.452   1.865   0.847  0.8981 -0.9822  0.6343
  270THF     C3 3500   5.572   2.003   0.976  0.6270 -0.9783 -0.0592
  270THF     H4 3501   5.356   1.814   0.838  0.4956 -0.2795  0.8258
  270THF     H5 3502   5.533   1.796   0.823  1.5955 -0.1203  0.4502
  270THF     H6 3503   5.578   2.071   1.061 -1.6204 -1.2218  0.3590
  270THF     H7 3504   5.658   1.936   0.982  0.8676 -0.8565 -1.6597
  270THF     C8 3505   5.562   2.080   0.844 -0.4402 -0.5808  0.4442
  270THF     C9 3506   5.478   1.990   0.758  0.0918 -0.6723  0.1419
  270THF    H10 3507   5.664   2.092   0.805  0.0613  1.9186  2.2715
  270THF    H11 3508   5.518   2.180   0.847 -1.2316 -0.9036 -0.3429
  270THF    H12 3509   5.382   2.029   0.724 -0.2062 -2.2247 -0.9003
  270THF    H13 3510   5.535   1.965   0.668 -1.1553 -1.0013 -0.5790
  271THF     O1 3511   2.075   2.881   5.019 -0.0495  0.2355  0.0040
  271THF     C2 3512   1.959   2.812   5.000  0.5308 -0.2420  0.2482
  271THF     C3 3513   2.076   2.947   5.149 -0.3783  0.0081 -0.1562
  271THF     H4 3514   1.990   2.713   4.965 -1.5433 -0.9551  0.3268
  271THF     H5 3515   1.894   2.856   4.924 -0.2952 -1.4821  0.2123
  271THF     H6 3516   2.144   2.901   5.221 -0.8813 -0.1083  0.2506
  271THF     H7 3517   2.101   3.053   5.141  1.1463 -0.2174  1.0629
  271THF     C8 3518   1.935   2.953   5.192 -0.3484  0.1154  0.2413
  271THF     C9 3519   1.886   2.818   5.135  0.0374 -0.4523  0.4378
  271THF    H10 3520   1.889   3.046   5.160  0.4185  0.6144  0.5513
  271THF    H11 3521   1.936   2.961   5.301 -1.6483 -1.1447  0.3757
  271THF    H12 3522   1.921   2.738   5.201 -0.4551 -0.6416  0.4727
  271THF    H13 3523   1.778   2.812   5.121  0.1142  0.9418 -1.0434
  272THF     O1 3524   2.659   3.421   3.521 -0.2209  0.0590  0.4030
  272THF     C2 3525   2.547   3.402   3.590  0.6139  0.0732  0.2379
  272THF     C3 3526   2.656   3.337   3.406  0.0531 -1.0010 -0.0447
  272THF     H4 3527   2.532   3.484   3.660 -1.8003  1.4212 -1.7087
  272THF     H5 3528   2.565   3.318   3.658  0.1584 -0.9161 -0.8266
  272THF     H6 3529   2.720   3.367   3.323  1.1179  2.3772  1.8004
  272THF     H7 3530   2.703   3.241   3.430  1.8702 -0.1396  0.0557
  272THF     C8 3531   2.512   3.321   3.379  0.4411 -0.5455  0.2707
  272THF     C9 3532   2.437   3.399   3.485  0.2779  0.1522 -0.8226
  272THF    H10 3533   2.493   3.214   3.377  3.0961 -1.0923 -1.2777
  272THF    H11 3534   2.495   3.358   3.278 -1.0185 -0.6907  0.4382
  272THF    H12 3535   2.417   3.498   3.444  0.7581  0.5523 -0.1125
  272THF    H13 3536   2.337   3.366   3.514 -0.3104  2.5721  0.1720
  273THF     O1 3537   4.893   4.152   1.513 -0.2088 -0.4001  0.0562
  273THF     C2 3538   4.809   4.048   1.471 -0.0730 -0.6491 -0.0196
  273THF     C3 3539   4.846   4.279   1.475  0.5671 -0.7292  0.0285
  273THF     H4 3540   4.727   4.046   1.543  1.2018 -1.0643  1.4761
  273THF     H5 3541   4.864   3.954   1.474 -0.6193 -0.9448  1.2351
  273THF     H6 3542   4.773   4.311   1.550  1.4451 -0.3848  0.7563
  273THF     H7 3543   4.923   4.354   1.460 -2.0361  1.7938 -1.9235
  273THF     C8 3544   4.784   4.253   1.341 -0.8950  0.0970 -0.4461
  273THF     C9 3545   4.770   4.100   1.335  0.4128  0.1094  0.3584
  273THF    H10 3546   4.847   4.294   1.262  0.8691 -0.1291  0.8144
  273THF    H11 3547   4.686   4.301   1.337 -0.7963  0.2086 -2.0353
  273THF    H12 3548   4.667   4.070   1.314  0.4970 -0.2696  0.4766
  273THF    H13 3549   4.838   4.060   1.260 -0.4195 -3.4708  1.3349
  274THF     O1 3550   0.291   4.632   4.852  0.4286  0.6512  0.0641
  274THF     C2 3551   0.357   4.727   4.940 -0.1357 -0.0319  0.8076
  274THF     C3 3552   0.313   4.658   4.722 -0.3789  0.1404  0.2460
  274THF     H4 3553   0.461   4.698   4.958 -0.8475 -4.8096 -1.0682
  274THF     H5 3554   0.304   4.745   5.033 -2.1168 -1.0029 -0.0696
  274THF     H6 3555   0.409   4.616   4.693  0.7483  0.7947  2.7859
  274THF     H7 3556   0.251   4.607   4.647  1.3181  0.4926 -1.4821
  274THF     C8 3557   0.327   4.811   4.707 -0.8347 -0.1344 -0.6096
  274THF     C9 3558   0.369   4.852   4.851 -0.8093  0.9614  0.3839
  274THF    H10 3559   0.243   4.866   4.667 -0.3364  1.5562  0.5685
  274THF    H11 3560   0.407   4.832   4.637 -0.0257 -1.1176 -0.0108
  274THF    H12 3561   0.474   4.880   4.839 -0.6453  0.0285 -0.4308
  274THF    H13 3562   0.312   4.937   4.889 -1.9270 -0.4118  1.9301
  275THF     O1 3563   0.980   1.267   1.983 -0.6003  0.2443  0.1180
  275THF     C2 3564   0.877   1.204   1.909  0.2954 -0.1401  0.0687
  275THF     C3 3565   1.052   1.331   1.879 -0.2591 -0.0169  0.2282
  275THF     H4 3566   0.802   1.167   1.979 -0.6372 -0.8061 -1.2386
  275THF     H5 3567   0.910   1.109   1.867 -1.3494 -0.7009 -0.0590
  275THF     H6 3568   1.129   1.398   1.919  0.2372 -0.9329  0.8444
  275THF     H7 3569   1.096   1.260   1.809  2.1747  0.5841  1.0363
  275THF     C8 3570   0.939   1.407   1.806 -0.9957  0.0736  0.1389
  275THF     C9 3571   0.832   1.301   1.801 -0.6200  0.0513 -0.5508
  275THF    H10 3572   0.946   1.442   1.703 -0.4155 -1.7577 -0.4723
  275THF    H11 3573   0.894   1.491   1.859 -0.9774  0.4134 -0.3740
  275THF    H12 3574   0.732   1.340   1.818  0.3468  3.0048 -1.1884
  275THF    H13 3575   0.837   1.254   1.703  1.0116 -1.4664  0.1884
  276THF     O1 3576   4.397   1.204   1.325  0.0764  0.4094  0.8731
  276THF     C2 3577   4.381   1.342   1.340 -0.3836 -0.2372 -0.1914
  276THF     C3 3578   4.300   1.164   1.219 -0.9175 -0.9322  0.2965
  276THF     H4 3579   4.467   1.401   1.373  0.2584 -0.5074 -1.3249
  276THF     H5 3580   4.300   1.363   1.410 -0.7513 -0.1677 -0.6336
  276THF     H6 3581   4.348   1.105   1.141 -1.4089  1.2833 -1.7558
  276THF     H7 3582   4.226   1.099   1.266 -0.5985 -1.1218  0.5481
  276THF     C8 3583   4.239   1.290   1.147 -0.1462 -0.3228 -0.2046
  276THF     C9 3584   4.330   1.398   1.204  0.2614  0.2381 -0.9015
  276THF    H10 3585   4.135   1.301   1.177 -0.0578  0.0253 -0.0194
  276THF    H11 3586   4.253   1.289   1.039 -1.3849 -1.2538 -0.3789
  276THF    H12 3587   4.411   1.419   1.134  1.7639  3.4701  1.5444
  276THF    H13 3588   4.287   1.498   1.205  2.7727  1.4348 -2.2169
  277THF     O1 3589   5.080   4.011   0.824  0.2754  0.2259 -0.2977
  277THF     C2 3590   4.972   4.037   0.735 -0.1848 -0.2601  0.2889
  277THF     C3 3591   5.039   4.050   0.958  1.1164 -0.9275  0.1369
  277THF     H4 3592   4.974   3.976   0.645  1.0197 -0.5225  0.4789
  277THF     H5 3593   4.985   4.142   0.706 -1.6273  0.4880  2.1816
  277THF     H6 3594   5.088   4.000   1.042  1.0338 -1.3032 -0.0370
  277THF     H7 3595   5.028   4.155   0.986 -1.7306 -0.7731 -1.2380
  277THF     C8 3596   4.890   3.999   0.960 -0.5453  0.5355 -0.5415
  277THF     C9 3597   4.844   4.013   0.817 -0.5682  0.1745 -0.4984
  277THF    H10 3598   4.822   4.047   1.030 -0.1994 -1.7201  1.4535
  277THF    H11 3599   4.895   3.892   0.978  0.6459  0.5100 -0.9110
  277THF    H12 3600   4.789   3.925   0.783 -2.0856  0.6467  0.6708
  277THF    H13 3601   4.767   4.089   0.806 -0.6726 -0.1149 -2.0633
  278THF     O1 3602   5.293   1.824   2.318  0.4661  0.3423  0.3158
  278THF     C2 3603   5.361   1.891   2.425 -1.0651 -0.1297  0.4852
  278THF     C3 3604   5.339   1.697   2.304 -0.3976 -0.0324 -0.2371
  278THF     H4 3605   5.298   1.969   2.467 -1.7389 -2.3455  3.9785
  278THF     H5 3606   5.456   1.935   2.393 -1.8039  0.4611 -1.0024
  278THF     H6 3607   5.259   1.629   2.274 -0.7694  0.6989 -0.9449
  278THF     H7 3608   5.423   1.695   2.235 -0.7755  1.0848 -0.7420
  278THF     C8 3609   5.394   1.656   2.442 -0.1496 -0.2019  0.0502
  278THF     C9 3610   5.396   1.785   2.525 -0.2490 -0.0953 -1.1246
  278THF    H10 3611   5.486   1.598   2.432  0.0949  0.3962 -1.3738
  278THF    H11 3612   5.328   1.587   2.495  0.7130 -1.8207 -0.9234
  278THF    H12 3613   5.310   1.781   2.592  0.2775 -1.8482 -0.5102
  278THF    H13 3614   5.486   1.800   2.584 -0.5443 -1.2566 -0.3472
  279THF     O1 3615   2.244   4.728   2.867 -0.2691 -0.5617 -0.1574
  279THF     C2 3616   2.308   4.647   2.958  0.4443 -0.1278 -0.1668
  279THF     C3 3617   2.259   4.865   2.898  0.0552  0.0680 -0.4683
  279THF     H4 3618   2.350   4.564   2.901  1.3367 -0.0009  0.2774
  279THF     H5 3619   2.243   4.608   3.035  1.2615 -2.2677 -0.5034
  279THF     H6 3620   2.305   4.917   2.814  1.2217 -0.4989 -0.2069
  279THF     H7 3621   2.159   4.906   2.912  0.4610  0.4076  1.9866
  279THF     C8 3622   2.352   4.866   3.019 -0.3513  0.1629  0.2493
  279THF     C9 3623   2.420   4.729   3.011 -0.5884 -0.3691 -0.2982
  279THF    H10 3624   2.289   4.884   3.106 -1.6659  1.0806 -0.8504
  279THF    H11 3625   2.419   4.952   3.028 -1.3924  0.7804  3.1916
  279THF    H12 3626   2.496   4.735   2.934 -2.0094  0.3152 -1.7127
  279THF    H13 3627   2.453   4.696   3.110 -3.7803  0.2270  1.1323
  280THF     O1 3628   4.837   0.370   5.385  0.2370  0.3142  0.3845
  280THF     C2 3629   4.800   0.392   5.518  0.2394 -0.3265 -0.5769
  280THF     C3 3630   4.723   0.316   5.313  0.1764 -0.2131  0.1282
  280THF     H4 3631   4.812   0.499   5.535 -1.4612 -0.2319  0.3490
  280THF     H5 3632   4.864   0.331   5.581  0.5869 -2.5545 -2.9202
  280THF     H6 3633   4.722   0.341   5.207  0.2600 -0.7827 -0.0130
  280THF     H7 3634   4.744   0.210   5.300  3.9921  0.7138 -3.0631
  280THF     C8 3635   4.608   0.360   5.391 -0.2079 -0.3731 -0.9430
  280THF     C9 3636   4.653   0.356   5.531 -0.5711 -0.1033 -0.3097
  280THF    H10 3637   4.515   0.304   5.376  0.0768 -0.8756 -0.8669
  280THF    H11 3638   4.591   0.466   5.374  1.7503  0.4286  1.5483
  280THF    H12 3639   4.599   0.429   5.591  0.1291  0.7779 -0.7288
  280THF    H13 3640   4.642   0.259   5.580 -1.8159  0.8557  1.4266
  281THF     O1 3641   2.417   2.548   3.118 -0.6069 -0.6000 -0.0652
  281THF     C2 3642   2.465   2.644   3.025 -0.7213 -0.1135  0.7241
  281THF     C3 3643   2.286   2.583   3.156  0.3120 -0.2506 -0.0942
  281THF     H4 3644   2.543   2.594   2.967 -0.0600  0.9073  0.7136
  281THF     H5 3645   2.505   2.725   3.087 -0.3997 -0.0335  0.4144
  281THF     H6 3646   2.239   2.492   3.194 -0.5971  0.2805  0.0819
  281THF     H7 3647   2.292   2.657   3.236  1.6568  0.1932 -0.5835
  281THF     C8 3648   2.219   2.638   3.031  0.0645  0.1773 -0.0927
  281THF     C9 3649   2.343   2.672   2.940  0.8786 -0.2027  0.0651
  281THF    H10 3650   2.156   2.726   3.042  0.0498  0.4782 -2.2721
  281THF    H11 3651   2.165   2.562   2.974  1.4810 -1.4395  0.6290
  281THF    H12 3652   2.343   2.607   2.853  1.1584  0.2002 -0.2365
  281THF    H13 3653   2.346   2.774   2.903  0.8821  0.6831  2.3572
  282THF     O1 3654   5.255   2.805   4.948  0.5722 -0.5999 -0.1252
  282THF     C2 3655   5.245   2.699   4.855  0.9722  0.3548  0.4340
  282THF     C3 3656   5.124   2.835   4.986 -0.2323  0.5001 -0.6373
  282THF     H4 3657   5.344   2.661   4.827  1.6765  0.3950  2.6568
  282THF     H5 3658   5.197   2.733   4.764  0.4995 -0.7499  0.2553
  282THF     H6 3659   5.122   2.897   5.076  1.1697  0.1995 -0.3753
  282THF     H7 3660   5.081   2.892   4.904  1.2196  2.1688 -0.2881
  282THF     C8 3661   5.061   2.695   5.012  0.0388  0.0724 -0.1411
  282THF     C9 3662   5.150   2.599   4.932 -0.6421 -0.8052  0.3791
  282THF    H10 3663   4.954   2.695   4.992  0.3109 -1.9057 -1.9890
  282THF    H11 3664   5.065   2.672   5.118 -3.1069 -1.1687 -0.1893
  282THF    H12 3665   5.208   2.545   5.006  1.6095  0.9184 -0.0106
  282THF    H13 3666   5.103   2.545   4.849 -0.3303  0.8058 -0.9056
  283THF     O1 3667   1.373   5.083   2.347  0.0589  0.1308 -0.3356
  283THF     C2 3668   1.323   5.073   2.480  0.1578  0.2703  0.1480
  283THF     C3 3669   1.473   5.185   2.346 -0.4383 -0.1803 -0.1276
  283THF     H4 3670   1.293   4.969   2.494 -0.1308  0.2618 -0.5210
  283THF     H5 3671   1.240   5.142   2.492 -0.1158 -0.1412  0.7013
  283THF     H6 3672   1.552   5.157   2.276 -0.0354 -1.3534  0.7658
  283THF     H7 3673   1.431   5.281   2.316 -0.6122 -0.5428 -1.0781
  283THF     C8 3674   1.514   5.215   2.495 -0.8572  0.0880 -0.5728
  283THF     C9 3675   1.440   5.105   2.571  0.9030 -0.4312 -0.2397
  283THF    H10 3676   1.483   5.313   2.532 -0.7512  0.6288 -1.8849
  283THF    H11 3677   1.622   5.209   2.502 -0.8400 -1.1394 -1.4683
  283THF    H12 3678   1.504   5.017   2.580  0.8674 -0.2840  1.8308
  283THF    H13 3679   1.405   5.129   2.671 -0.2806 -0.5462 -0.6119
  284THF     O1 3680   0.452   3.513   0.096 -0.7507  0.0299  0.4344
  284THF     C2 3681   0.472   3.583  -0.031  0.0915  0.1947  0.0648
  284THF     C3 3682   0.445   3.373   0.066  0.3330  0.1292  0.0166
  284THF     H4 3683   0.573   3.579  -0.073  0.7300 -1.9162  1.6768
  284THF     H5 3684   0.445   3.688  -0.019  1.7381  0.3793  2.9666
  284THF     H6 3685   0.548   3.340   0.049 -0.8496 -3.4114 -1.2370
  284THF     H7 3686   0.396   3.315   0.145 -0.0357  1.6123  0.9208
  284THF     C8 3687   0.354   3.369  -0.058  0.1721  0.1838  0.7327
  284THF     C9 3688   0.377   3.503  -0.128  0.2535  0.5369 -0.1454
  284THF    H10 3689   0.251   3.377  -0.024 -0.1492 -0.5828 -0.0132
  284THF    H11 3690   0.360   3.274  -0.111 -0.2267  0.8304 -0.5040
  284THF    H12 3691   0.414   3.485  -0.229  0.3277  0.0064 -0.0242
  284THF    H13 3692   0.282   3.555  -0.135 -0.0011  0.3202  1.3445
  285THF     O1 3693   4.615   4.406   5.109  0.1333 -0.3541 -0.1508
  285THF     C2 3694   4.579   4.293   5.184  0.1411  0.1526 -0.2046
  285THF     C3 3695   4.582   4.512   5.195 -0.6008 -0.0147  0.1468
  285THF     H4 3696   4.597   4.201   5.127 -2.4771 -0.4769 -0.1089
  285THF     H5 3697   4.474   4.303   5.210  0.0320 -0.1235 -0.5259
  285THF     H6 3698   4.621   4.610   5.166 -0.4952  0.1919  0.9633
  285THF     H7 3699   4.476   4.534   5.201 -0.5470 -0.2172  3.3686
  285THF     C8 3700   4.635   4.465   5.333 -0.5445 -0.3110 -0.2853
  285THF     C9 3701   4.659   4.319   5.314  0.3491 -0.1060 -0.1503
  285THF    H10 3702   4.568   4.478   5.417  0.2648  0.1961  0.2955
  285THF    H11 3703   4.732   4.514   5.347 -0.2449 -0.4617 -1.6599
  285THF    H12 3704   4.762   4.284   5.305  0.9236 -0.0264  4.0165
  285THF    H13 3705   4.622   4.270   5.404  0.9206 -0.6460 -0.2040
  286THF     O1 3706   2.588   4.553   3.584 -0.3322 -0.0744  0.6386
  286THF     C2 3707   2.450   4.525   3.581  0.5287 -0.2752  0.1355
  286THF     C3 3708   2.647   4.463   3.678 -0.0395 -0.3200 -0.6846
  286THF     H4 3709   2.411   4.538   3.480  0.9287 -0.6215 -0.0670
  286THF     H5 3710   2.387   4.580   3.651  1.3172 -0.3435  0.9098
  286THF     H6 3711   2.755   4.468   3.663  0.6093 -0.6818  3.0719
  286THF     H7 3712   2.612   4.494   3.776  0.1696 -2.8549  0.2598
  286THF     C8 3713   2.583   4.330   3.656 -0.1730  0.1178 -0.3578
  286THF     C9 3714   2.451   4.373   3.594 -0.2261  0.2069  0.1428
  286THF    H10 3715   2.553   4.268   3.740  1.6451 -0.0970  0.1641
  286THF    H11 3716   2.647   4.273   3.588  0.1708 -0.6040  0.5585
  286THF    H12 3717   2.439   4.324   3.497  0.6832 -0.0046  0.1318
  286THF    H13 3718   2.362   4.337   3.646 -0.0700 -0.7803 -0.2401
  287THF     O1 3719   0.006   1.614   1.282 -0.0088  0.9647  0.3947
  287THF     C2 3720  -0.057   1.659   1.403  0.6717  0.0908 -0.5900
  287THF     C3 3721   0.098   1.709   1.230  0.2498 -0.0501 -0.1804
  287THF     H4 3722   0.008   1.628   1.485  0.5647  0.7518 -0.2490
  287THF     H5 3723  -0.157   1.620   1.421 -0.6646  2.7612 -1.6858
  287THF     H6 3724   0.190   1.695   1.286 -0.0300  0.3975  0.4050
  287THF     H7 3725   0.111   1.701   1.122 -2.9493  3.3652 -1.0488
  287THF     C8 3726   0.028   1.839   1.262  0.6676 -0.5548  0.0856
  287THF     C9 3727  -0.051   1.818   1.389  0.5981  0.0939  0.3458
  287THF    H10 3728  -0.051   1.865   1.191  1.6273  1.2497 -0.3772
  287THF    H11 3729   0.087   1.930   1.274 -2.1362  1.4937 -0.6945
  287THF    H12 3730   0.006   1.860   1.473  1.2367 -0.0361 -0.0177
  287THF    H13 3731  -0.152   1.859   1.388  0.0747 -1.1233 -2.1001
  288THF     O1 3732   0.877   1.409   3.733 -0.4545  0.0405 -0.3045
  288THF     C2 3733   0.836   1.449   3.606 -0.1953 -0.3402  0.5431
  288THF     C3 3734   0.856   1.275   3.744 -0.0219  0.8349  0.4855
  288THF     H4 3735   0.926   1.460   3.546  0.1983 -0.6883  1.0645
  288THF     H5 3736   0.774   1.538   3.614  0.1523  0.1734 -1.6763
  288THF     H6 3737   0.945   1.216   3.766 -1.7766 -1.3323  2.2678
  288THF     H7 3738   0.784   1.267   3.826  0.6607  2.2174  1.2534
  288THF     C8 3739   0.795   1.224   3.610  0.0155 -0.1539 -0.3372
  288THF     C9 3740   0.740   1.346   3.544 -0.3733 -0.3111 -0.1634
  288THF    H10 3741   0.723   1.142   3.615  0.6911 -0.9703 -2.6193
  288THF    H11 3742   0.871   1.186   3.541  0.0255  1.8083 -1.4788
  288THF    H12 3743   0.755   1.338   3.436  0.0909 -0.6566 -0.0764
  288THF    H13 3744   0.636   1.360   3.570  0.2559  1.5815  1.5426
  289THF     O1 3745   4.667   2.108   2.458 -0.2297  0.3553 -0.0451
  289THF     C2 3746   4.526   2.090   2.451  0.4361  0.7306  0.3403
  289THF     C3 3747   4.714   2.151   2.332  0.7300 -0.8032 -0.0650
  289THF     H4 3748   4.486   2.082   2.552  1.1683  0.3606  0.6134
  289THF     H5 3749   4.517   1.998   2.394  2.2713  0.0463  1.0580
  289THF     H6 3750   4.797   2.220   2.349 -0.7876  1.1445 -0.1844
  289THF     H7 3751   4.740   2.072   2.261  0.2060 -0.2769 -0.8636
  289THF     C8 3752   4.587   2.222   2.272  0.3998  0.3631 -0.6477
  289THF     C9 3753   4.477   2.209   2.380  0.3490  0.0314 -0.5344
  289THF    H10 3754   4.558   2.193   2.171 -0.9400 -0.4781 -0.0442
  289THF    H11 3755   4.606   2.328   2.261 -3.8817  1.3173 -0.4632
  289THF    H12 3756   4.490   2.280   2.461  0.2095 -1.5958  0.9901
  289THF    H13 3757   4.370   2.199   2.364  0.1535  0.4847  0.4899
  290THF     O1 3758   0.855   1.249   4.981 -0.4578 -0.0553 -0.4859
  290THF     C2 3759   0.943   1.301   4.883  0.5024  0.2214  0.4042
  290THF     C3 3760   0.797   1.127   4.935  0.1168  0.3719  0.2332
  290THF     H4 3761   1.043   1.266   4.906 -0.3176 -0.9398  2.6162
  290THF     H5 3762   0.938   1.409   4.897  1.3109  0.1514  1.3437
  290THF     H6 3763   0.804   1.037   4.996 -0.7184 -0.8211 -1.3503
  290THF     H7 3764   0.690   1.148   4.941  0.0907 -0.2129  2.6626
  290THF     C8 3765   0.855   1.097   4.795  0.6040 -0.8031 -0.5176
  290THF     C9 3766   0.915   1.234   4.755  0.3808  0.0775  0.3454
  290THF    H10 3767   0.776   1.063   4.728 -2.1392  4.5106 -0.5060
  290THF    H11 3768   0.943   1.036   4.814  0.8365 -0.0760  0.9338
  290THF    H12 3769   1.008   1.233   4.699  0.0562 -0.0475 -0.2013
  290THF    H13 3770   0.838   1.287   4.699 -0.3485 -1.8207 -0.5376
  291THF     O1 3771   0.581   3.316   2.526 -0.1479  0.5466 -0.9922
  291THF     C2 3772   0.525   3.198   2.478  0.2348  0.2807  0.2938
  291THF     C3 3773   0.603   3.403   2.415  0.1651  0.1961  0.1661
  291THF     H4 3774   0.458   3.162   2.556 -0.6744  0.7935 -0.2315
  291THF     H5 3775   0.601   3.125   2.448  0.7443  0.5385  0.9273
  291THF     H6 3776   0.613   3.506   2.451 -2.4440  0.6526 -0.2021
  291THF     H7 3777   0.697   3.377   2.367  0.2084 -0.3818  0.5462
  291THF     C8 3778   0.485   3.372   2.316 -0.5673 -0.1406 -0.1274
  291THF     C9 3779   0.427   3.236   2.361 -0.0193 -0.4305  0.0603
  291THF    H10 3780   0.516   3.379   2.211 -2.2186  0.8179 -0.5922
  291THF    H11 3781   0.412   3.453   2.322 -1.8015 -1.2280 -0.0978
  291THF    H12 3782   0.327   3.256   2.400  0.1339 -1.2483  0.9264
  291THF    H13 3783   0.423   3.177   2.269 -0.8340 -1.5820  0.7997
  292THF     O1 3784   0.041   0.749   3.446 -0.0551 -0.4471  0.1198
  292THF     C2 3785  -0.107   0.738   3.440 -0.9732 -0.0847 -0.4493
  292THF     C3 3786   0.093   0.634   3.380 -0.3095 -0.3191  0.7635
  292THF     H4 3787  -0.155   0.833   3.460 -2.7653 -1.0709  0.1050
  292THF     H5 3788  -0.142   0.663   3.511  3.2295 -1.7572  0.2168
  292THF     H6 3789   0.197   0.651   3.350 -0.1233  1.4466  2.2006
  292THF     H7 3790   0.101   0.547   3.446  0.4257 -1.0194 -0.2285
  292THF     C8 3791  -0.005   0.604   3.269 -0.2156  0.1768  0.1483
  292THF     C9 3792  -0.124   0.695   3.296  0.1974 -0.9377  0.3510
  292THF    H10 3793  -0.035   0.500   3.257 -0.1719  0.1636  0.1540
  292THF    H11 3794   0.037   0.620   3.169  1.6839 -0.6961  0.7596
  292THF    H12 3795  -0.119   0.786   3.237  0.1957 -0.8367  0.5049
  292THF    H13 3796  -0.225   0.660   3.273  0.0017  1.0705 -2.1670
  293THF     O1 3797   1.004   1.489   3.067 -0.2905 -0.0168 -0.2181
  293THF     C2 3798   0.880   1.444   3.132 -0.0808  0.5213  0.1601
  293THF     C3 3799   1.073   1.378   3.007 -0.0100  0.2856  0.2451
  293THF     H4 3800   0.794   1.463   3.068 -1.1531  0.8384  1.6405
  293THF     H5 3801   0.872   1.510   3.218 -1.9168  0.6054 -0.0308
  293THF     H6 3802   1.073   1.392   2.899 -2.6317 -1.7449 -0.1297
  293THF     H7 3803   1.177   1.375   3.039  0.5003 -3.8135 -1.1612
  293THF     C8 3804   1.003   1.249   3.058  0.0711 -0.8823 -0.3714
  293THF     C9 3805   0.896   1.297   3.162  1.1839 -0.2670  0.0924
  293THF    H10 3806   1.073   1.173   3.094  1.3509 -0.0812 -1.1160
  293THF    H11 3807   0.942   1.214   2.974 -2.1929  2.2830 -0.2434
  293THF    H12 3808   0.801   1.243   3.157  0.6961  0.6046 -0.6210
  293THF    H13 3809   0.939   1.290   3.261  0.8685  1.1143  0.3542
  294THF     O1 3810   0.861   0.829   3.573  0.1680 -0.0099 -0.2093
  294THF     C2 3811   0.945   0.836   3.456 -0.2909  0.4081 -0.0117
  294THF     C3 3812   0.904   0.737   3.672 -0.1357 -0.4414  0.9180
  294THF     H4 3813   0.984   0.932   3.423 -1.7459  0.2960 -2.2788
  294THF     H5 3814   0.873   0.805   3.380 -0.7398  1.2965  0.0373
  294THF     H6 3815   0.957   0.792   3.749  0.5750  0.3582 -0.1109
  294THF     H7 3816   0.820   0.692   3.725 -0.3391  1.6157  2.4187
  294THF     C8 3817   0.999   0.639   3.595 -1.1552  0.2053  0.0800
  294THF     C9 3818   1.055   0.730   3.486  0.0006 -0.0786  0.0442
  294THF    H10 3819   0.959   0.548   3.551 -0.0274 -0.0927 -0.3853
  294THF    H11 3820   1.082   0.627   3.664  0.2958 -1.4646 -1.8220
  294THF    H12 3821   1.150   0.773   3.519  1.3286 -3.0108  0.3788
  294THF    H13 3822   1.078   0.673   3.396 -2.2278 -0.6946 -0.1823
  295THF     O1 3823   5.037   4.031   1.931 -0.4953  0.2566  0.2501
  295THF     C2 3824   5.030   4.018   1.795  0.5251 -0.6836 -0.3877
  295THF     C3 3825   5.023   3.904   1.980  0.6269  0.5093 -0.6524
  295THF     H4 3826   5.069   4.112   1.756 -0.0916  0.4045  1.4704
  295THF     H5 3827   4.925   4.007   1.766 -0.5642  2.7117  1.7471
  295THF     H6 3828   5.067   3.890   2.079  0.1278 -0.3843 -0.5518
  295THF     H7 3829   4.916   3.885   1.974  0.9946 -2.1451 -0.1823
  295THF     C8 3830   5.098   3.812   1.881  1.1880 -0.0463 -0.4111
  295THF     C9 3831   5.121   3.903   1.764 -0.2177  0.2612 -0.0564
  295THF    H10 3832   5.031   3.733   1.848  0.3542  0.5667 -0.2080
  295THF    H11 3833   5.192   3.778   1.924  1.5885  1.1996 -0.2689
  295THF    H12 3834   5.222   3.945   1.759 -0.3398  0.7596  1.3538
  295THF    H13 3835   5.099   3.852   1.670  0.9791  0.2692 -0.3605
  296THF     O1 3836   4.193   3.175   4.185 -0.5697 -0.4839 -0.2091
  296THF     C2 3837   4.147   3.053   4.232 -0.2741  0.5688 -0.2007
  296THF     C3 3838   4.105   3.275   4.228 -0.5242 -0.8527  0.5763
  296THF     H4 3839   4.161   3.040   4.339  0.9902  1.8456 -0.1713
  296THF     H5 3840   4.199   2.979   4.172  0.2269  0.1576  0.7144
  296THF     H6 3841   4.141   3.292   4.330  2.0018 -1.0570 -0.2050
  296THF     H7 3842   4.124   3.369   4.177  0.4963 -0.6340  1.3435
  296THF     C8 3843   3.969   3.220   4.218 -0.3681  0.3296 -0.0291
  296THF     C9 3844   4.000   3.073   4.208  0.7870 -0.3687  0.1582
  296THF    H10 3845   3.912   3.246   4.129  1.9220 -0.4688 -1.8528
  296THF    H11 3846   3.905   3.248   4.301  0.5375 -1.3940  1.3171
  296THF    H12 3847   3.937   3.005   4.266 -3.5137  0.7452 -2.7618
  296THF    H13 3848   3.981   3.041   4.106  1.5842  2.1266 -0.8253
  297THF     O1 3849   0.386   1.009   3.294  0.1529 -0.1707 -0.1533
  297THF     C2 3850   0.415   0.901   3.384  0.0347 -0.7272  0.7335
  297THF     C3 3851   0.509   1.048   3.232 -0.6332 -0.9688  0.4973
  297THF     H4 3852   0.441   0.817   3.320 -1.3388 -0.3527 -0.3601
  297THF     H5 3853   0.336   0.891   3.457 -0.6599 -0.6901  0.0041
  297THF     H6 3854   0.521   0.982   3.146 -0.7711  0.4185 -0.6331
  297THF     H7 3855   0.501   1.148   3.188  0.7935 -1.5667 -1.2528
  297THF     C8 3856   0.621   1.031   3.343  0.1952  0.3363 -0.2511
  297THF     C9 3857   0.535   0.965   3.452 -0.2960 -0.6166 -0.1186
  297THF    H10 3858   0.652   1.130   3.376 -0.1051  0.2740  0.2429
  297THF    H11 3859   0.706   0.988   3.292  2.3579  2.3975  1.3772
  297THF    H12 3860   0.581   0.894   3.519 -1.7699 -0.8903  0.6515
  297THF    H13 3861   0.505   1.055   3.506  1.4829  0.1051 -0.2827
  298THF     O1 3862   3.877   5.173   4.327  0.0220 -0.0633 -0.0169
  298THF     C2 3863   3.971   5.168   4.218 -0.0891  0.6935 -0.0977
  298THF     C3 3864   3.751   5.198   4.281  0.3306  0.4532  0.8401
  298THF     H4 3865   3.980   5.064   4.188  1.0345  0.7617 -0.0570
  298THF     H5 3866   4.061   5.222   4.248  0.1972  2.1025 -3.1209
  298THF     H6 3867   3.681   5.117   4.304  0.5534 -0.1647 -0.5333
  298THF     H7 3868   3.711   5.287   4.330 -1.0733 -0.6960  1.8872
  298THF     C8 3869   3.754   5.209   4.131  0.4660  0.1351 -0.6936
  298THF     C9 3870   3.900   5.242   4.108  0.3568 -0.1380  0.3569
  298THF    H10 3871   3.680   5.284   4.101 -0.3124 -1.3577 -2.6924
  298THF    H11 3872   3.737   5.120   4.071 -1.0347  0.0813 -0.2176
  298THF    H12 3873   3.931   5.240   4.003 -1.1726 -0.0548 -0.1208
  298THF    H13 3874   3.915   5.348   4.125  4.4287 -0.3493 -0.8307
  299THF     O1 3875   0.600   2.229   4.565 -0.1944 -0.9944  0.2919
  299THF     C2 3876   0.505   2.310   4.496  0.3681  0.5532  0.2852
  299THF     C3 3877   0.562   2.206   4.700  0.8755  0.2076  0.2326
  299THF     H4 3878   0.518   2.308   4.388  1.0831 -2.2774  0.3528
  299THF     H5 3879   0.519   2.412   4.531 -1.9377  0.5243  1.5114
  299THF     H6 3880   0.564   2.097   4.703  0.8338  0.0713 -2.1650
  299THF     H7 3881   0.625   2.253   4.775  1.1360 -0.7860  0.6560
  299THF     C8 3882   0.418   2.251   4.703 -0.4337 -0.1146 -0.7006
  299THF     C9 3883   0.376   2.261   4.557  0.0387 -0.1735 -0.0225
  299THF    H10 3884   0.399   2.350   4.745 -0.3083 -0.0077 -0.8944
  299THF    H11 3885   0.355   2.177   4.751 -1.3501  0.3947 -1.0958
  299THF    H12 3886   0.344   2.165   4.516  0.1733  0.1660 -0.9494
  299THF    H13 3887   0.291   2.330   4.558  2.3311  2.8652  2.0647
  300THF     O1 3888   2.347   3.364   0.913 -0.3519  0.1273  0.3626
  300THF     C2 3889   2.455   3.310   0.828 -0.2888  0.5289  0.5596
  300THF     C3 3890   2.285   3.248   0.967 -0.7881 -0.8416 -0.2196
  300THF     H4 3891   2.541   3.289   0.891  0.0400  1.4840  0.4328
  300THF     H5 3892   2.487   3.383   0.754 -1.4116 -0.9919 -1.5353
  300THF     H6 3893   2.346   3.217   1.052 -0.0171  1.1735  0.0084
  300THF     H7 3894   2.195   3.283   1.018 -0.8360 -0.6542 -0.4316
  300THF     C8 3895   2.280   3.143   0.858  0.4747 -0.4015 -0.0133
  300THF     C9 3896   2.396   3.175   0.770  0.1101 -0.0582  0.2267
  300THF    H10 3897   2.193   3.162   0.795  0.6458 -1.9767 -0.7574
  300THF    H11 3898   2.273   3.043   0.900  0.5253 -0.2251  0.4213
  300THF    H12 3899   2.472   3.097   0.774  1.1430  0.8767 -0.4624
  300THF    H13 3900   2.378   3.177   0.662 -1.6035 -0.1677  0.4852
  301THF     O1 3901   0.036   1.461   2.925 -0.0532 -0.0727  0.1611
  301THF     C2 3902   0.077   1.593   2.886  0.0859  0.2636 -0.0915
  301THF     C3 3903   0.064   1.451   3.064  0.1318 -0.1343  0.0090
  301THF     H4 3904   0.018   1.601   2.794 -1.3686 -2.1242  0.5149
  301THF     H5 3905   0.183   1.576   2.867  0.1158 -0.0249  0.3052
  301THF     H6 3906   0.012   1.367   3.109 -2.8889  0.5717 -1.8987
  301THF     H7 3907   0.172   1.444   3.082  0.3971  0.8628 -1.0288
  301THF     C8 3908   0.006   1.577   3.115  0.1449  0.1682 -0.3058
  301THF     C9 3909   0.044   1.680   3.007  0.5404 -0.8660 -0.4415
  301THF    H10 3910   0.053   1.604   3.210 -2.9874  0.2276  1.3370
  301THF    H11 3911  -0.099   1.565   3.140  0.5954 -0.9559  1.2216
  301THF    H12 3912  -0.029   1.758   2.985 -0.0295 -1.4361 -0.5976
  301THF    H13 3913   0.131   1.734   3.043 -0.2927  1.2711 -1.4511
  302THF     O1 3914   3.090   3.049   4.640  0.2574 -0.3290  0.1136
  302THF     C2 3915   2.949   3.066   4.639  0.0435 -0.3945 -0.0600
  302THF     C3 3916   3.153   3.070   4.517  0.1627  0.2808 -0.1284
  302THF     H4 3917   2.906   3.123   4.722  1.7091 -2.0877  2.0689
  302THF     H5 3918   2.898   2.970   4.648 -0.5992 -0.1319 -0.8190
  302THF     H6 3919   3.217   3.158   4.510  0.1096  0.4176  0.9505
  302THF     H7 3920   3.209   2.980   4.492 -0.9005 -0.1802 -0.9068
  302THF     C8 3921   3.030   3.071   4.427 -0.0934 -0.5271 -0.2986
  302THF     C9 3922   2.924   3.133   4.512  0.5445  0.1221 -0.4421
  302THF    H10 3923   2.995   2.970   4.407 -1.7442 -0.1715  0.6175
  302THF    H11 3924   3.041   3.124   4.332 -0.7723  0.0320 -0.0755
  302THF    H12 3925   2.946   3.239   4.513  1.4229 -0.0460  1.1049
  302THF    H13 3926   2.825   3.107   4.475  0.6128 -1.5705  0.4648
  303THF     O1 3927   4.205   0.491   0.179 -0.3847  0.3154 -0.5179
  303THF     C2 3928   4.185   0.404   0.294  0.2486  0.3969  0.2326
  303THF     C3 3929   4.246   0.420   0.063 -0.6967  0.2956  0.0368
  303THF     H4 3930   4.084   0.364   0.296  0.6199 -0.6559 -0.4487
  303THF     H5 3931   4.200   0.452   0.390 -0.1579  0.4616  0.2639
  303THF     H6 3932   4.173   0.422  -0.019  2.0544 -0.9874 -2.6302
  303THF     H7 3933   4.337   0.459   0.018  0.3919  0.3887  2.2044
  303THF     C8 3934   4.272   0.279   0.114 -0.6165 -0.2618 -0.5972
  303THF     C9 3935   4.276   0.283   0.267 -0.1715  0.6278  0.6267
  303THF    H10 3936   4.356   0.232   0.062 -2.2312 -1.4335 -2.2996
  303THF    H11 3937   4.180   0.229   0.085 -0.7471  0.6252 -1.7969
  303THF    H12 3938   4.249   0.197   0.327  0.9883  0.9787  1.7096
  303THF    H13 3939   4.373   0.318   0.304 -0.8772 -0.9328  4.3133
  304THF     O1 3940   1.721   1.139   3.715 -0.6333  0.0009  0.0716
  304THF     C2 3941   1.660   1.267   3.704  0.1599  0.4309  0.4496
  304THF     C3 3942   1.778   1.110   3.584  0.3587 -0.1351  0.1820
  304THF     H4 3943   1.729   1.338   3.750 -0.0725  0.7357  0.3348
  304THF     H5 3944   1.567   1.254   3.760  0.4171  0.5487  0.9163
  304THF     H6 3945   1.876   1.157   3.575  1.1627 -1.7170  0.2866
  304THF     H7 3946   1.787   1.004   3.563 -1.9697 -0.1828 -0.8046
  304THF     C8 3947   1.676   1.175   3.491  0.4077 -0.5152 -0.8546
  304THF     C9 3948   1.630   1.304   3.561  0.0416  0.5966  0.1923
  304THF    H10 3949   1.584   1.117   3.483 -1.7238  2.2507  1.3007
  304THF    H11 3950   1.719   1.197   3.393  0.1315 -0.9769 -1.0848
  304THF    H12 3951   1.681   1.396   3.535 -0.1986  0.8131  0.4851
  304THF    H13 3952   1.525   1.322   3.538  0.0087  0.6783  0.4005
  305THF     O1 3953   5.109   3.856   4.259  0.0931 -0.5808 -0.0239
  305THF     C2 3954   5.239   3.832   4.202  0.0202  0.0253 -0.0949
  305THF     C3 3955   5.028   3.741   4.251 -0.0724  0.3470  0.0590
  305THF     H4 3956   5.320   3.860   4.270  2.1835  0.1848 -2.5865
  305THF     H5 3957   5.251   3.903   4.121 -1.9187 -0.6458 -1.0203
  305THF     H6 3958   4.959   3.726   4.335 -0.6002 -2.3385 -0.7491
  305THF     H7 3959   4.969   3.760   4.161  1.5435  2.1445 -0.6888
  305THF     C8 3960   5.127   3.625   4.240 -0.6365 -0.2996 -0.5390
  305THF     C9 3961   5.233   3.689   4.156 -0.1377 -0.0397  0.2297
  305THF    H10 3962   5.080   3.544   4.186 -2.3470  1.2347 -1.4780
  305THF    H11 3963   5.174   3.604   4.336  0.2445  3.4911  0.0432
  305THF    H12 3964   5.331   3.640   4.156  0.4080  0.9736  2.3910
  305THF    H13 3965   5.201   3.689   4.052 -0.3183  0.1785  0.2848
  306THF     O1 3966   4.449   0.318   3.247  0.7999  0.0768  0.2192
  306THF     C2 3967   4.492   0.429   3.330 -0.0743 -0.1191  0.4499
  306THF     C3 3968   4.457   0.200   3.326  0.0104 -0.2593  0.0662
  306THF     H4 3969   4.455   0.527   3.299  1.6458  0.1368 -0.9608
  306THF     H5 3970   4.601   0.432   3.332 -0.0244 -1.5302  0.7238
  306THF     H6 3971   4.397   0.127   3.272  0.9725  0.2754 -1.8012
  306THF     H7 3972   4.561   0.167   3.336  0.3621  0.8670  0.1678
  306THF     C8 3973   4.407   0.245   3.459  0.4184  0.1404  0.0954
  306THF     C9 3974   4.444   0.395   3.468 -0.3930  0.4461  0.0932
  306THF    H10 3975   4.448   0.188   3.542 -0.5391  0.7182  0.9905
  306THF    H11 3976   4.299   0.229   3.461  0.2816  1.0415  0.0621
  306THF    H12 3977   4.358   0.451   3.506  0.5062 -0.2063  3.4757
  306THF    H13 3978   4.520   0.424   3.541 -1.0585  1.2295  0.4938
  307THF     O1 3979   2.191   0.850   2.336  0.1659 -0.5291  0.2491
  307THF     C2 3980   2.187   0.989   2.363 -0.5628 -0.6942 -0.5133
  307THF     C3 3981   2.186   0.831   2.192 -0.4175  0.1956  0.4317
  307THF     H4 3982   2.277   1.035   2.402 -1.1178  0.2293 -0.2807
  307THF     H5 3983   2.113   1.010   2.441 -0.9251  0.0618 -1.0473
  307THF     H6 3984   2.273   0.778   2.154 -0.4568 -0.3259  1.0571
  307THF     H7 3985   2.091   0.792   2.154  1.2340 -2.5669 -1.2328
  307THF     C8 3986   2.185   0.974   2.130 -0.3871  0.2531 -0.1939
  307THF     C9 3987   2.121   1.061   2.241  0.1705  0.5329  0.2539
  307THF    H10 3988   2.124   0.967   2.039 -2.0519  2.3156  0.6799
  307THF    H11 3989   2.288   1.008   2.118 -0.6366  0.7469 -1.0677
  307THF    H12 3990   2.127   1.170   2.248 -0.7361  0.5650  0.6885
  307THF    H13 3991   2.015   1.035   2.249  0.1323  0.3786 -0.6450
  308THF     O1 3992   3.413   1.800   4.730  0.0205 -0.4711 -0.0663
  308THF     C2 3993   3.401   1.660   4.735 -0.5139  0.1307 -0.1772
  308THF     C3 3994   3.550   1.838   4.746 -0.4544 -0.9926 -0.0378
  308THF     H4 3995   3.317   1.612   4.684 -0.2929 -0.1833 -0.2586
  308THF     H5 3996   3.393   1.626   4.838  2.7793  0.1624  0.2159
  308THF     H6 3997   3.576   1.929   4.693 -0.3540 -0.5942  0.6827
  308THF     H7 3998   3.576   1.834   4.852  0.4882  0.8252 -0.1672
  308THF     C8 3999   3.624   1.735   4.666 -0.2344  0.4247 -0.1283
  308THF     C9 4000   3.535   1.618   4.663  0.5398  0.3697 -0.8211
  308THF    H10 4001   3.721   1.713   4.710  0.5687  2.3605 -0.8549
  308THF    H11 4002   3.628   1.768   4.562 -2.1430 -0.8483 -0.6599
  308THF    H12 4003   3.516   1.586   4.560  0.3575  2.0822 -1.3545
  308THF    H13 4004   3.572   1.523   4.701  1.3396  1.7164  1.9832
  309THF     O1 4005   2.416   0.330   1.427  0.0024  0.0530 -0.0717
  309THF     C2 4006   2.421   0.463   1.383  0.2235  0.6254 -0.3353
  309THF     C3 4007   2.333   0.254   1.340  0.9952 -0.5386  0.3666
  309THF     H4 4008   2.482   0.456   1.293  2.0437 -0.0893  0.8950
  309THF     H5 4009   2.469   0.538   1.446  1.9675  1.3931 -2.4234
  309THF     H6 4010   2.377   0.228   1.243  0.2605 -0.0628 -0.1052
  309THF     H7 4011   2.293   0.168   1.394 -2.0566 -0.2336 -1.1908
  309THF     C8 4012   2.224   0.353   1.290 -0.2464 -0.0675  0.4101
  309THF     C9 4013   2.276   0.486   1.352  0.7361  0.4241  0.3219
  309THF    H10 4014   2.120   0.331   1.315 -0.1271 -0.4090  0.6087
  309THF    H11 4015   2.220   0.372   1.183 -1.8056 -1.3727  0.2097
  309THF    H12 4016   2.264   0.571   1.285 -0.3446  0.5812  0.6954
  309THF    H13 4017   2.224   0.504   1.446 -0.9418  2.6619 -0.9588
  310THF     O1 4018   1.472   0.357   1.253  0.5456 -0.3441 -0.1190
  310THF     C2 4019   1.443   0.487   1.304 -0.4791 -0.5651  0.0569
  310THF     C3 4020   1.345   0.287   1.244 -0.0397  0.2760  0.1677
  310THF     H4 4021   1.523   0.557   1.281  0.3392 -1.2928  0.5853
  310THF     H5 4022   1.442   0.486   1.413  3.1046  0.4075  0.2221
  310THF     H6 4023   1.350   0.201   1.178 -1.2544  0.6093 -0.3780
  310THF     H7 4024   1.329   0.262   1.349  2.5767 -0.9143  0.3525
  310THF     C8 4025   1.249   0.391   1.182 -0.2988 -0.5623  0.6686
  310THF     C9 4026   1.308   0.526   1.238  0.1925  0.1581  0.4626
  310THF    H10 4027   1.144   0.381   1.211 -0.4933 -0.1953  0.1238
  310THF    H11 4028   1.258   0.397   1.073  0.7757 -0.3179  0.7650
  310THF    H12 4029   1.340   0.586   1.153  1.3337  1.1630  1.5795
  310THF    H13 4030   1.237   0.581   1.299 -1.8284 -1.1092 -0.5812
  311THF     O1 4031   2.622   4.792   4.539  0.2287 -0.4673  0.4083
  311THF     C2 4032   2.512   4.820   4.627  0.3896  0.0555 -0.7423
  311THF     C3 4033   2.584   4.694   4.445 -0.2601  0.3462  0.4192
  311THF     H4 4034   2.485   4.924   4.609  2.3013  0.6056 -0.5626
  311THF     H5 4035   2.544   4.806   4.730 -1.5535  0.2925 -0.0508
  311THF     H6 4036   2.621   4.715   4.344 -1.7345 -0.5990 -0.3475
  311THF     H7 4037   2.627   4.602   4.485  2.8029  2.2596  1.8985
  311THF     C8 4038   2.431   4.673   4.452 -0.0259 -0.0798 -0.4956
  311THF     C9 4039   2.400   4.731   4.589 -0.0726 -0.0585 -0.2983
  311THF    H10 4040   2.406   4.569   4.433  1.7286 -0.6690  0.2205
  311THF    H11 4041   2.383   4.730   4.372 -1.3963 -0.4938 -0.0008
  311THF    H12 4042   2.305   4.783   4.603 -0.9821 -2.2167  2.7825
  311THF    H13 4043   2.400   4.638   4.646  0.1994  0.5073  0.6428
  312THF     O1 4044   4.547   2.443   4.943  0.7099 -0.0355 -0.4592
  312THF     C2 4045   4.424   2.483   5.010  0.2023 -0.3720 -0.1586
  312THF     C3 4046   4.552   2.508   4.819  0.4139  0.4116 -0.5933
  312THF     H4 4047   4.429   2.454   5.115 -1.5796 -0.3224 -0.0380
  312THF     H5 4048   4.331   2.441   4.973  0.2297 -0.2659 -0.3508
  312THF     H6 4049   4.660   2.520   4.818  0.4050  1.4554  2.0209
  312THF     H7 4050   4.509   2.438   4.748 -2.2503  1.4029 -0.0831
  312THF     C8 4051   4.461   2.631   4.828  0.4798  0.1013 -0.6967
  312THF     C9 4052   4.417   2.632   4.969 -0.0129  0.0790  0.0398
  312THF    H10 4053   4.383   2.630   4.752 -0.4736  1.3566  0.2044
  312THF    H11 4054   4.514   2.725   4.814 -0.0353  0.4562 -0.2904
  312THF    H12 4055   4.496   2.682   5.027  0.1578  0.4042 -0.4684
  312THF    H13 4056   4.317   2.669   4.991 -0.4345 -1.5123  0.9715
  313THF     O1 4057   3.112   3.138   0.625 -0.3892 -0.6206  0.0881
  313THF     C2 4058   3.150   3.262   0.683  0.1514  0.7526 -0.0316
  313THF     C3 4059   3.213   3.039   0.648 -0.2865  0.3278 -0.1260
  313THF     H4 4060   3.073   3.314   0.739 -0.3220  0.7629 -0.6836
  313THF     H5 4061   3.186   3.331   0.606  2.6071 -1.1071 -0.6846
  313THF     H6 4062   3.179   2.974   0.728  0.0408 -1.4149 -1.3182
  313THF     H7 4063   3.228   2.972   0.562 -0.1406 -1.8067  1.4726
  313THF     C8 4064   3.336   3.111   0.696 -0.3140  0.2996  0.0664
  313THF     C9 4065   3.274   3.232   0.764 -0.4787 -1.2142 -0.2317
  313THF    H10 4066   3.395   3.148   0.613 -1.7839  0.4941 -0.9387
  313THF    H11 4067   3.393   3.047   0.763 -0.2852 -1.4913 -1.6060
  313THF    H12 4068   3.239   3.215   0.866 -0.7686  1.0783  0.0915
  313THF    H13 4069   3.346   3.314   0.763 -0.9503 -0.7647  1.0833
  314THF     O1 4070   4.926   1.096   1.222  0.3198 -0.7766 -0.7242
  314THF     C2 4071   4.814   1.130   1.304 -0.5538  1.0618  0.5189
  314THF     C3 4072   5.040   1.175   1.262 -1.0351  0.4316  0.0028
  314THF     H4 4073   4.746   1.045   1.298 -0.2695  0.8759 -0.1041
  314THF     H5 4074   4.757   1.217   1.270 -2.0031  0.8109  2.1162
  314THF     H6 4075   5.131   1.120   1.238 -1.6355  0.3856 -2.5358
  314THF     H7 4076   5.059   1.265   1.203  1.9576  0.0434  0.2057
  314THF     C8 4077   5.014   1.212   1.403 -0.0530  0.4670 -0.3088
  314THF     C9 4078   4.878   1.152   1.442 -0.2627  0.2101  0.7928
  314THF    H10 4079   5.011   1.321   1.407 -0.7910  0.4384  0.1034
  314THF    H11 4080   5.090   1.181   1.473 -0.0301 -0.8780 -0.9093
  314THF    H12 4081   4.893   1.052   1.483  1.0083 -0.7056 -1.6768
  314THF    H13 4082   4.825   1.202   1.523  1.1550  2.2532  0.5042
  315THF     O1 4083   1.828   5.213   5.123 -0.0463 -0.1600 -0.0585
  315THF     C2 4084   1.702   5.187   5.061 -0.2158  0.2640 -0.7420
  315THF     C3 4085   1.892   5.325   5.047  0.7221 -0.3179  0.6163
  315THF     H4 4086   1.624   5.194   5.136  1.0093  0.4969  0.5494
  315THF     H5 4087   1.701   5.082   5.031  0.7797  0.5666 -1.9409
  315THF     H6 4088   1.866   5.419   5.095  0.6951 -0.9652  1.9173
  315THF     H7 4089   2.000   5.322   5.038  0.5443 -1.5860 -1.7845
  315THF     C8 4090   1.822   5.314   4.908  0.7399 -0.0297 -0.3252
  315THF     C9 4091   1.678   5.286   4.948 -0.3307 -0.5150  0.2536
  315THF    H10 4092   1.864   5.229   4.854  1.4994  0.9049 -1.2647
  315THF    H11 4093   1.837   5.406   4.851  0.4334 -0.6051 -1.3569
  315THF    H12 4094   1.646   5.385   4.979 -0.0428 -0.1314 -0.6236
  315THF    H13 4095   1.616   5.252   4.865 -0.3322 -0.5599  0.2731
  316THF     O1 4096   2.132   3.951   0.140 -0.0179 -0.2040 -0.6418
  316THF     C2 4097   2.196   3.927   0.017 -0.5526 -0.0941  0.1867
  316THF     C3 4098   2.179   4.075   0.192 -0.1724 -0.3724 -0.7877
  316THF     H4 4099   2.133   3.860  -0.042 -1.3584 -0.0658  0.9781
  316THF     H5 4100   2.288   3.874   0.043 -0.8114 -0.2912  0.7213
  316THF     H6 4101   2.098   4.120   0.250 -0.0668 -1.9875  0.6761
  316THF     H7 4102   2.257   4.057   0.266 -0.3165  2.6681  0.2339
  316THF     C8 4103   2.247   4.154   0.085  0.4292  0.0771 -0.9595
  316THF     C9 4104   2.217   4.068  -0.033 -0.2537  0.1157  0.9821
  316THF    H10 4105   2.355   4.166   0.094  0.5328 -0.9381 -0.7512
  316THF    H11 4106   2.216   4.258   0.086 -1.0128 -0.3209  1.2821
  316THF    H12 4107   2.125   4.108  -0.075 -0.6793 -1.6268  0.1182
  316THF    H13 4108   2.293   4.079  -0.111 -0.2316 -3.9855  0.1614
  317THF     O1 4109   0.572   1.104   0.775  0.1986 -0.2039 -0.2998
  317THF     C2 4110   0.670   1.200   0.803 -0.4352  0.3048 -0.4534
  317THF     C3 4111   0.602   1.039   0.653 -0.3627  0.4493 -0.5073
  317THF     H4 4112   0.755   1.143   0.841  0.8910  2.1872 -0.4693
  317THF     H5 4113   0.659   1.280   0.876  1.6656 -0.5530  0.9026
  317THF     H6 4114   0.669   0.957   0.680  1.0337  2.1581  1.5925
  317THF     H7 4115   0.512   1.004   0.603 -1.8260  1.7447  1.1047
  317THF     C8 4116   0.685   1.135   0.570 -0.4664 -0.1569  0.1350
  317THF     C9 4117   0.709   1.250   0.662  0.5435 -0.0737 -0.0184
  317THF    H10 4118   0.626   1.168   0.484 -0.8323  1.7170  1.0569
  317THF    H11 4119   0.778   1.092   0.533  0.8816  4.1349 -2.1872
  317THF    H12 4120   0.805   1.301   0.650  0.5059 -0.3518 -1.8517
  317THF    H13 4121   0.634   1.321   0.627  0.7612  0.4698  0.6079
  318THF     O1 4122   2.825   5.077   4.215  0.1244 -0.1192  0.1169
  318THF     C2 4123   2.756   4.956   4.232  0.0296 -0.3715  0.4028
  318THF     C3 4124   2.957   5.044   4.179 -0.0045 -0.4252 -0.4120
  318THF     H4 4125   2.649   4.975   4.233  0.3661  1.9981 -1.2669
  318THF     H5 4126   2.784   4.909   4.327  1.6684  0.7238  0.5025
  318THF     H6 4127   2.992   5.123   4.113  0.2165 -0.8492 -0.8094
  318THF     H7 4128   3.009   5.052   4.274 -0.2247  0.3539 -0.3530
  318THF     C8 4129   2.954   4.897   4.136 -0.1779  0.1102  0.4098
  318THF     C9 4130   2.809   4.869   4.112  0.3834 -0.2274 -0.1513
  318THF    H10 4131   3.000   4.832   4.211  1.3121 -0.8645 -1.2563
  318THF    H11 4132   3.020   4.885   4.050 -0.6941 -2.9129  0.3009
  318THF    H12 4133   2.774   4.900   4.013  1.2657 -2.4239 -1.2059
  318THF    H13 4134   2.794   4.762   4.119  1.7825 -0.3700  1.1817
  319THF     O1 4135   5.095   3.696   2.224 -0.0244 -0.7481  0.5894
  319THF     C2 4136   4.959   3.663   2.232  0.0357 -0.2349  0.3977
  319THF     C3 4137   5.154   3.578   2.160  0.2842  0.1528  0.3681
  319THF     H4 4138   4.896   3.748   2.254  0.4469 -0.6792  3.7950
  319THF     H5 4139   4.951   3.594   2.315  2.7208  0.0315  0.9811
  319THF     H6 4140   5.252   3.596   2.117  0.6515 -0.0412  1.1178
  319THF     H7 4141   5.169   3.505   2.239  0.6045  0.7538  0.8709
  319THF     C8 4142   5.049   3.534   2.051 -0.2514  0.1695 -0.2082
  319THF     C9 4143   4.922   3.598   2.102 -0.2954  0.3583 -0.1420
  319THF    H10 4144   5.042   3.425   2.046  1.0187  0.0853 -0.5858
  319THF    H11 4145   5.076   3.578   1.955  0.4110 -0.6898 -0.4271
  319THF    H12 4146   4.881   3.663   2.024 -1.8070 -1.0259 -0.5601
  319THF    H13 4147   4.846   3.525   2.129 -0.4238  0.9432  1.1413
  320THF     O1 4148   2.408   4.845   4.119 -0.0466  0.0558  0.4322
  320THF     C2 4149   2.410   4.751   4.013 -0.4789  0.1135  0.2026
  320THF     C3 4150   2.283   4.917   4.095 -0.6836 -0.2598 -0.3849
  320THF     H4 4151   2.335   4.672   4.015 -0.4683  0.0418 -1.0916
  320THF     H5 4152   2.504   4.698   3.995  0.1362  0.3999  2.3036
  320THF     H6 4153   2.205   4.869   4.154 -1.2619 -1.8432 -2.3183
  320THF     H7 4154   2.285   5.024   4.116  0.3338 -0.3312 -0.0623
  320THF     C8 4155   2.263   4.909   3.944  1.1492  0.2081 -0.2237
  320THF     C9 4156   2.389   4.841   3.893  0.5765  0.4204  0.3967
  320THF    H10 4157   2.246   5.000   3.887  2.0956 -0.9304 -2.4322
  320THF    H11 4158   2.180   4.841   3.921 -0.2459  1.3770  1.1047
  320THF    H12 4159   2.383   4.786   3.799  0.8987  1.5299 -0.2903
  320THF    H13 4160   2.472   4.911   3.885  0.8904  0.0099 -0.0032
  321THF     O1 4161   3.480   2.490   0.909  0.4014  0.4649  0.9207
  321THF     C2 4162   3.360   2.447   0.978 -0.5193  0.7390 -0.4791
  321THF     C3 4163   3.516   2.386   0.824 -0.8366 -0.0949 -0.1808
  321THF     H4 4164   3.272   2.458   0.914  0.6403 -0.2102 -2.3401
  321THF     H5 4165   3.361   2.496   1.075  0.4079  0.6392 -0.4283
  321THF     H6 4166   3.445   2.371   0.743 -2.6505  1.3425  1.0552
  321THF     H7 4167   3.621   2.388   0.794  0.2271 -0.4930  3.1283
  321THF     C8 4168   3.512   2.268   0.911  0.8015 -0.0018 -0.2682
  321THF     C9 4169   3.387   2.300   0.995  0.3971  0.6237 -0.2007
  321THF    H10 4170   3.593   2.260   0.984 -0.1972 -0.0495  0.8647
  321THF    H11 4171   3.515   2.171   0.862 -0.8172 -1.5213  2.4439
  321THF    H12 4172   3.311   2.229   0.963  1.6021 -1.0324  0.4119
  321THF    H13 4173   3.401   2.275   1.101  0.7228 -1.0593 -0.5997
  322THF     O1 4174   5.108   2.561   1.406 -0.5750 -0.3577  0.4952
  322THF     C2 4175   5.140   2.480   1.291  0.0880 -0.3346 -0.0270
  322THF     C3 4176   5.175   2.690   1.400 -0.2047 -0.6402  0.3938
  322THF     H4 4177   5.041   2.456   1.253  0.2815  0.9016 -1.4393
  322THF     H5 4178   5.194   2.394   1.330  1.6907 -0.3534 -2.0866
  322THF     H6 4179   5.118   2.778   1.430  2.0198  1.7455 -1.8159
  322THF     H7 4180   5.255   2.683   1.474 -0.4315  0.4551  0.7612
  322THF     C8 4181   5.227   2.700   1.260  0.5197 -0.3603 -0.2587
  322THF     C9 4182   5.233   2.557   1.202  0.0570  1.3488 -0.0214
  322THF    H10 4183   5.315   2.764   1.252 -1.5022  2.7121  0.2261
  322THF    H11 4184   5.155   2.754   1.198  1.7349  0.5756 -0.9015
  322THF    H12 4185   5.195   2.544   1.101 -3.9360 -1.7631  1.5764
  322THF    H13 4186   5.332   2.511   1.205 -0.8058 -0.8711 -2.4033
  323THF     O1 4187   2.861   2.608   2.135 -0.2151  0.5968 -0.2701
  323THF     C2 4188   2.980   2.605   2.220  0.2304  0.6537 -0.2857
  323THF     C3 4189   2.884   2.540   2.014 -0.4670  0.4002 -0.1819
  323THF     H4 4190   3.008   2.513   2.272  0.0330  2.5792  3.5635
  323THF     H5 4191   2.990   2.675   2.303 -3.0277  1.1443 -0.1775
  323THF     H6 4192   2.901   2.433   2.031  2.5381  0.9177  0.5092
  323THF     H7 4193   2.803   2.561   1.944 -0.8108  0.8343  0.3373
  323THF     C8 4194   3.020   2.604   1.976 -0.0653  0.5701 -0.7638
  323THF     C9 4195   3.089   2.626   2.112 -0.2451  0.2654 -0.1137
  323THF    H10 4196   2.986   2.699   1.934 -1.5995  1.3035  1.8600
  323THF    H11 4197   3.069   2.544   1.900 -2.6568 -2.7201 -0.0990
  323THF    H12 4198   3.183   2.571   2.118 -0.4253 -0.0794 -0.3915
  323THF    H13 4199   3.111   2.732   2.118 -0.7466  0.2835  2.5630
  324THF     O1 4200   5.154   5.125   5.322 -0.5982  0.8706 -0.2641
  324THF     C2 4201   5.181   5.191   5.202 -0.1152  0.1919 -0.1434
  324THF     C3 4202   5.098   5.216   5.409  0.1231  0.2792  0.1271
  324THF     H4 4203   5.177   5.108   5.131  0.6943  0.7211 -0.8344
  324THF     H5 4204   5.278   5.241   5.207 -0.2470  0.5290 -0.8452
  324THF     H6 4205   5.046   5.174   5.495  1.8062 -0.7532  0.6846
  324THF     H7 4206   5.176   5.289   5.433  0.4709  0.5996 -1.8235
  324THF     C8 4207   4.993   5.286   5.320 -0.6525 -0.0564  0.0804
  324THF     C9 4208   5.067   5.294   5.186  0.1891  0.3306  0.0113
  324THF    H10 4209   4.960   5.385   5.351 -0.4105 -0.2367  0.9440
  324THF    H11 4210   4.909   5.219   5.305 -0.4665 -0.4622  0.7807
  324THF    H12 4211   4.998   5.280   5.103  0.3059  0.3848 -0.0938
  324THF    H13 4212   5.108   5.391   5.159 -0.4960  0.2114 -1.5504
  325THF     O1 4213   4.022   1.675   2.512 -0.2935 -0.7877  0.0759
  325THF     C2 4214   4.085   1.735   2.631 -0.0423 -0.1508 -0.2635
  325THF     C3 4215   3.935   1.777   2.467  0.4165  0.7186  0.2218
  325THF     H4 4216   4.167   1.671   2.664  0.8455  1.9991  1.9779
  325THF     H5 4217   4.011   1.735   2.710  1.7904 -0.9744  1.5475
  325THF     H6 4218   3.912   1.773   2.361  1.8242  0.2918 -0.0840
  325THF     H7 4219   3.849   1.780   2.534  0.0838  1.0656 -0.2138
  325THF     C8 4220   4.011   1.909   2.485 -0.0711 -0.6085  0.9606
  325THF     C9 4221   4.112   1.883   2.593 -0.3706 -1.0559  0.1290
  325THF    H10 4222   3.946   1.995   2.497  1.5517  0.8059  0.0662
  325THF    H11 4223   4.065   1.918   2.390 -3.6154  0.8411 -1.1102
  325THF    H12 4224   4.217   1.892   2.564 -0.4317 -0.3902  0.0941
  325THF    H13 4225   4.098   1.957   2.672  0.6710 -1.6766  0.9257
  326THF     O1 4226   2.738   3.263   2.860 -0.1360 -0.7938  0.2318
  326THF     C2 4227   2.704   3.302   2.993 -0.0713 -0.6421  0.6820
  326THF     C3 4228   2.835   3.371   2.821  0.5214  0.2827 -0.0920
  326THF     H4 4229   2.640   3.225   3.038 -0.3183  0.1743  1.7715
  326THF     H5 4230   2.635   3.387   3.001  0.9117  0.1296  1.1241
  326THF     H6 4231   2.896   3.339   2.736  1.9062  0.2773  0.8697
  326THF     H7 4232   2.779   3.460   2.792 -0.1074  0.1512  0.6937
  326THF     C8 4233   2.917   3.394   2.953 -0.2309 -0.3419 -0.1857
  326THF     C9 4234   2.832   3.338   3.067 -0.5317  0.5554  0.4609
  326THF    H10 4235   2.940   3.498   2.978  0.0485 -0.8144  1.6562
  326THF    H11 4236   3.008   3.336   2.963 -0.3474 -0.4626  0.2010
  326THF    H12 4237   2.885   3.257   3.117  0.6406  2.2303  2.1079
  326THF    H13 4238   2.809   3.415   3.141 -0.6575  1.0404 -0.0826
  327THF     O1 4239   0.900   4.936   0.926  0.5015 -0.3223  0.3435
  327THF     C2 4240   1.020   4.941   1.003 -0.2035  0.3439 -0.2094
  327THF     C3 4241   0.796   4.916   1.022 -0.1392  0.6079  0.5704
  327THF     H4 4242   1.096   4.998   0.949  0.6312  1.3770  1.9420
  327THF     H5 4243   1.073   4.849   1.026 -0.6626  0.0285 -0.3949
  327THF     H6 4244   0.700   4.946   0.980  0.2489 -1.0819 -1.6820
  327THF     H7 4245   0.784   4.811   1.050  0.2135  0.1557 -0.9156
  327THF     C8 4246   0.832   5.001   1.140  0.3740  0.6456  0.6055
  327THF     C9 4247   0.979   5.022   1.120  0.3947  0.0899  0.1440
  327THF    H10 4248   0.807   4.951   1.234 -0.8772  0.7677  0.3621
  327THF    H11 4249   0.767   5.088   1.146 -1.5428 -0.7734  1.9756
  327THF    H12 4250   0.997   5.129   1.111 -0.2041  0.1197 -0.7978
  327THF    H13 4251   1.026   4.984   1.210  1.5563  1.0189 -0.0453
  328THF     O1 4252   1.471   3.990   2.428  0.2161 -0.1436  0.3990
  328THF     C2 4253   1.602   3.999   2.376 -0.2560 -0.1469 -0.0577
  328THF     C3 4254   1.372   3.997   2.321  0.0332 -0.1219 -0.4873
  328THF     H4 4255   1.654   3.904   2.365 -0.0919 -0.0231 -0.3501
  328THF     H5 4256   1.663   4.063   2.440 -3.0120  1.5047  1.1230
  328THF     H6 4257   1.300   3.916   2.308 -0.7912  0.3997  0.6572
  328THF     H7 4258   1.321   4.091   2.340 -0.3420 -0.3183 -0.5166
  328THF     C8 4259   1.455   4.009   2.188  0.2156  0.2649  0.0081
  328THF     C9 4260   1.578   4.072   2.247 -0.5990 -0.6480  0.3173
  328THF    H10 4261   1.396   4.060   2.113 -1.5612 -0.7081  0.6820
  328THF    H11 4262   1.467   3.909   2.145 -3.0341 -0.7419  1.0980
  328THF    H12 4263   1.673   4.061   2.195 -0.7635 -1.3108  0.1505
  328THF    H13 4264   1.564   4.179   2.265  3.9425  0.3744 -0.8472
  329THF     O1 4265   4.038   2.471   0.813 -0.4487 -0.2513  0.7470
  329THF     C2 4266   4.116   2.355   0.826 -0.3264  0.3496 -0.2307
  329THF     C3 4267   3.976   2.489   0.941  0.2002 -0.5581 -0.1956
  329THF     H4 4268   4.199   2.374   0.894 -0.8452  0.3312  0.4187
  329THF     H5 4269   4.154   2.313   0.733  1.1981 -2.0690  1.3810
  329THF     H6 4270   4.051   2.526   1.011 -0.2725  0.8010 -0.3947
  329THF     H7 4271   3.889   2.554   0.932 -0.6704 -1.6242  0.3236
  329THF     C8 4272   3.926   2.351   0.981  0.7866  0.2490 -0.3322
  329THF     C9 4273   4.020   2.259   0.897 -0.7127  0.0570  0.0365
  329THF    H10 4274   3.824   2.350   0.945  0.2062 -1.4250  1.1906
  329THF    H11 4275   3.930   2.340   1.089 -2.9618  0.9631 -0.0161
  329THF    H12 4276   4.080   2.188   0.955  1.3017  1.4571 -0.2399
  329THF    H13 4277   3.954   2.210   0.825 -1.3984  1.9610 -0.6956
  330THF     O1 4278   2.422   3.503   0.195 -0.6297 -0.0111  0.0369
  330THF     C2 4279   2.360   3.436   0.300 -0.3620 -0.4860 -0.4009
  330THF     C3 4280   2.388   3.643   0.196 -0.5032 -0.5799 -0.3175
  330THF     H4 4281   2.398   3.459   0.399 -3.3753  0.7297  0.5804
  330THF     H5 4282   2.361   3.331   0.269  0.5785 -0.0791 -1.8685
  330THF     H6 4283   2.455   3.692   0.267  0.2474 -0.8079 -0.8564
  330THF     H7 4284   2.395   3.687   0.096 -0.2711 -0.6310 -0.3247
  330THF     C8 4285   2.246   3.641   0.248  0.7828 -0.6639  0.0170
  330THF     C9 4286   2.226   3.495   0.290 -0.0561 -0.3067  0.2085
  330THF    H10 4287   2.176   3.677   0.173 -0.3297  0.4597  1.5352
  330THF    H11 4288   2.238   3.693   0.344  0.1505  0.4270 -0.6055
  330THF    H12 4289   2.182   3.486   0.390  0.8652 -1.3720  0.5312
  330THF    H13 4290   2.180   3.433   0.213  1.9860 -1.4494 -0.1571
  331THF     O1 4291   2.871   4.615   0.697 -0.5554 -0.0341  0.4788
  331THF     C2 4292   2.796   4.672   0.585  0.2325 -0.1967 -0.5602
  331THF     C3 4293   3.006   4.660   0.688  0.0988  0.4665 -0.2674
  331THF     H4 4294   2.722   4.737   0.631  1.9616  1.6463 -0.2415
  331THF     H5 4295   2.746   4.591   0.531 -4.0720  1.4396  0.6144
  331THF     H6 4296   3.051   4.668   0.787  1.7825  2.8678 -1.1319
  331THF     H7 4297   3.067   4.590   0.631  1.2530  0.8931  0.4103
  331THF     C8 4298   3.016   4.785   0.602 -0.5515  0.3348 -0.5104
  331THF     C9 4299   2.894   4.764   0.510 -0.3133  0.2142  0.2498
  331THF    H10 4300   3.117   4.805   0.567  0.4899 -1.9338  0.9185
  331THF    H11 4301   2.991   4.872   0.663 -1.6608  0.0580 -0.5389
  331THF    H12 4302   2.848   4.860   0.486 -0.8477  1.0117  3.8593
  331THF    H13 4303   2.930   4.719   0.417 -1.7188  0.8079 -0.6152
  332THF     O1 4304   1.352   1.986   4.610  0.0409  0.7954 -0.3665
  332THF     C2 4305   1.325   2.117   4.658  0.4146  0.0527 -0.4735
  332THF     C3 4306   1.335   1.981   4.473  0.7648 -0.8982  0.1119
  332THF     H4 4307   1.372   2.124   4.756  1.1118  1.0793 -0.8653
  332THF     H5 4308   1.219   2.146   4.662  0.7035  1.1271 -0.1006
  332THF     H6 4309   1.428   1.945   4.428  1.5264  1.2795 -0.1742
  332THF     H7 4310   1.257   1.916   4.434 -0.2661  0.7176 -0.5797
  332THF     C8 4311   1.328   2.130   4.428  0.4330  0.0543 -0.3359
  332THF     C9 4312   1.378   2.204   4.548 -0.6464 -0.3361 -0.0294
  332THF    H10 4313   1.224   2.159   4.413  0.6630  1.5744  0.8027
  332THF    H11 4314   1.382   2.145   4.334  1.6398 -0.6705  0.2212
  332THF    H12 4315   1.487   2.192   4.542 -0.5907  0.8055 -2.2420
  332THF    H13 4316   1.341   2.306   4.553  0.8520  0.4101 -2.5322
  333THF     O1 4317   4.498   0.259   1.551 -0.0506  0.5686 -0.3500
  333THF     C2 4318   4.573   0.368   1.505 -0.3411  0.3461 -0.0361
  333THF     C3 4319   4.566   0.192   1.660 -0.1621  0.3257  0.0806
  333THF     H4 4320   4.562   0.456   1.567 -1.6022  0.5370 -0.4981
  333THF     H5 4321   4.536   0.396   1.406 -0.8255  1.8013  0.5437
  333THF     H6 4322   4.545   0.251   1.750 -2.2828 -2.3450  1.4646
  333THF     H7 4323   4.533   0.090   1.676  1.8217 -0.2479  0.7759
  333THF     C8 4324   4.719   0.208   1.616  0.0829 -0.1220  0.3235
  333THF     C9 4325   4.719   0.321   1.513  0.6323 -0.1670  0.3265
  333THF    H10 4326   4.760   0.122   1.564  0.2516  0.3335 -0.3087
  333THF    H11 4327   4.789   0.253   1.687  0.3512 -0.6022  0.3648
  333THF    H12 4328   4.788   0.403   1.532 -0.7927  0.8057  1.4681
  333THF    H13 4329   4.753   0.270   1.422 -0.4574 -0.9241  0.3263
  334THF     O1 4330   1.063   1.705   0.355 -0.8868  0.0359  0.5820
  334THF     C2 4331   1.031   1.577   0.402 -0.0109  0.1447 -0.7034
  334THF     C3 4332   0.984   1.735   0.239 -0.1352 -0.1759 -0.5344
  334THF     H4 4333   1.024   1.567   0.511 -0.6966  0.8872 -0.6684
  334THF     H5 4334   1.100   1.503   0.361  1.3140  1.1286 -0.3330
  334THF     H6 4335   0.984   1.843   0.232 -0.3204 -0.1821 -0.6104
  334THF     H7 4336   1.028   1.702   0.145  1.2908  0.8017 -0.2530
  334THF     C8 4337   0.852   1.679   0.272  0.2199  0.0999  0.1734
  334THF     C9 4338   0.890   1.552   0.347 -0.3569 -0.2361 -0.7689
  334THF    H10 4339   0.787   1.667   0.185  0.7561  1.4105 -0.4337
  334THF    H11 4340   0.807   1.742   0.348  0.4590 -0.7068  1.0071
  334THF    H12 4341   0.819   1.524   0.425  0.2737 -1.2784 -0.5409
  334THF    H13 4342   0.888   1.466   0.280 -0.9142  0.7758 -2.0935
  335THF     O1 4343   4.166   1.854   2.038  0.0841  0.3339 -0.7391
  335THF     C2 4344   4.278   1.879   1.950  0.5996  0.2978  0.6113
  335THF     C3 4345   4.210   1.766   2.141 -0.1597 -0.1429 -0.3459
  335THF     H4 4346   4.263   1.973   1.898  0.2487 -0.3858 -0.5672
  335THF     H5 4347   4.274   1.799   1.876 -1.6854  0.4830  0.4463
  335THF     H6 4348   4.139   1.738   2.219 -0.8539  0.2701 -0.8213
  335THF     H7 4349   4.217   1.665   2.100 -2.4108 -0.8229  0.7769
  335THF     C8 4350   4.342   1.830   2.182  0.4343 -0.4309  0.6291
  335THF     C9 4351   4.401   1.870   2.049 -0.0357 -0.5878  0.2700
  335THF    H10 4352   4.407   1.778   2.253  1.1530 -1.6331 -0.8362
  335THF    H11 4353   4.313   1.927   2.223 -3.6574 -0.1960 -2.2302
  335THF    H12 4354   4.445   1.969   2.064 -0.5136 -0.3846  0.3349
  335THF    H13 4355   4.480   1.807   2.009 -0.9565  0.1842 -3.1592
  336THF     O1 4356   2.816   2.215   2.395  0.1629  0.3908  0.7712
  336THF     C2 4357   2.703   2.124   2.384 -0.3341 -0.0105  0.7860
  336THF     C3 4358   2.776   2.337   2.458 -0.1519 -0.1577 -0.0582
  336THF     H4 4359   2.718   2.016   2.376  0.1987 -0.1886  3.3191
  336THF     H5 4360   2.640   2.152   2.300  0.9661 -2.3243 -1.0861
  336THF     H6 4361   2.849   2.373   2.530  0.3595 -1.2111 -0.0380
  336THF     H7 4362   2.755   2.411   2.381  0.9826 -0.2153 -0.4397
  336THF     C8 4363   2.644   2.300   2.527 -0.4358  0.2646  0.1378
  336THF     C9 4364   2.625   2.147   2.508  0.5483  0.0259  0.1069
  336THF    H10 4365   2.553   2.347   2.489 -1.2029 -0.5314  0.9492
  336THF    H11 4366   2.646   2.310   2.635  1.5295 -2.1825  0.4003
  336THF    H12 4367   2.677   2.093   2.587  0.6540 -2.6169 -1.6421
  336THF    H13 4368   2.520   2.118   2.504  0.8229 -0.8725 -1.8934
  337THF     O1 4369   1.513   3.024   0.487 -0.0021  0.3226  0.0103
  337THF     C2 4370   1.493   3.058   0.342 -0.7212  0.1707 -0.2821
  337THF     C3 4371   1.376   2.983   0.524 -0.5161 -0.2784 -0.0695
  337THF     H4 4372   1.591   3.059   0.295 -1.2939 -1.9995 -1.6791
  337THF     H5 4373   1.457   3.161   0.342  0.9314  0.7679 -0.4013
  337THF     H6 4374   1.373   2.897   0.592 -1.8521 -1.5438 -1.6441
  337THF     H7 4375   1.331   3.069   0.574  0.4965  1.7972 -2.5391
  337THF     C8 4376   1.295   2.949   0.398  0.1136 -0.0257  0.4348
  337THF     C9 4377   1.396   2.963   0.280  0.4096 -0.0854 -0.2680
  337THF    H10 4378   1.207   3.013   0.391  0.1707 -0.1144 -1.5752
  337THF    H11 4379   1.253   2.850   0.381 -2.8041  1.2693 -0.4369
  337THF    H12 4380   1.456   2.876   0.254  0.3234  0.0476 -0.9353
  337THF    H13 4381   1.347   3.015   0.198 -1.9195  0.1631  1.1680
  338THF     O1 4382   0.882   1.716   0.928 -0.2249 -0.3955 -0.6950
  338THF     C2 4383   0.926   1.724   0.788  0.3665  0.0026  0.0075
  338THF     C3 4384   0.767   1.635   0.944  0.0147  0.0121  0.2900
  338THF     H4 4385   0.987   1.640   0.753  1.3845  1.4091 -1.7842
  338THF     H5 4386   0.965   1.820   0.754 -0.5873  0.2500 -0.4115
  338THF     H6 4387   0.788   1.530   0.964  0.5762 -0.1341 -0.9479
  338THF     H7 4388   0.701   1.662   1.027  0.9824 -0.2476  1.1676
  338THF     C8 4389   0.696   1.640   0.812 -0.0187  0.1028 -0.1793
  338THF     C9 4390   0.797   1.706   0.715 -0.0699 -0.0778  0.0004
  338THF    H10 4391   0.599   1.689   0.816 -1.3956 -2.3765 -0.9507
  338THF    H11 4392   0.667   1.542   0.773 -0.1224  0.2596 -0.5024
  338THF    H12 4393   0.814   1.646   0.625  1.4959 -1.2852  1.0544
  338THF    H13 4394   0.763   1.806   0.687  0.1228 -0.1031 -0.3301
  339THF     O1 4395   5.213   1.761   1.767 -0.1394 -0.4057  0.0591
  339THF     C2 4396   5.313   1.840   1.822 -0.6998 -0.0829 -0.1081
  339THF     C3 4397   5.163   1.697   1.879  0.2341  0.1338 -0.1788
  339THF     H4 4398   5.269   1.930   1.866  0.0493  0.2687 -0.0595
  339THF     H5 4399   5.385   1.888   1.756  0.3003 -1.3667  0.0180
  339THF     H6 4400   5.106   1.759   1.948 -2.1036 -3.2005  1.1349
  339THF     H7 4401   5.103   1.609   1.855 -1.6849  1.1899  0.5943
  339THF     C8 4402   5.285   1.653   1.948 -0.6870 -0.4183 -0.1498
  339THF     C9 4403   5.392   1.761   1.929 -0.2015 -0.5062 -0.0588
  339THF    H10 4404   5.311   1.556   1.904 -1.4012 -1.0528  0.8006
  339THF    H11 4405   5.274   1.629   2.054  2.9919  0.5416  0.5878
  339THF    H12 4406   5.410   1.826   2.014 -1.8224  2.5634 -1.8772
  339THF    H13 4407   5.480   1.719   1.880  1.8406  1.3459  1.8031
  340THF     O1 4408   3.361   5.435   4.636 -0.0685  0.7060  0.3385
  340THF     C2 4409   3.488   5.421   4.574  0.0208 -0.1066 -0.2845
  340THF     C3 4410   3.276   5.334   4.589 -0.6807  0.0087  0.1783
  340THF     H4 4411   3.555   5.357   4.632  0.8463  1.5924  0.6928
  340THF     H5 4412   3.538   5.517   4.564  0.2528 -0.1754  0.1957
  340THF     H6 4413   3.302   5.234   4.625  0.6108  0.0191 -0.6448
  340THF     H7 4414   3.173   5.361   4.610 -0.3523  0.6705  0.9904
  340THF     C8 4415   3.306   5.330   4.440 -0.0029  0.5471  0.3625
  340THF     C9 4416   3.459   5.346   4.439 -0.0486  0.0909 -0.0447
  340THF    H10 4417   3.243   5.397   4.382 -2.4573 -1.6522  0.3266
  340THF    H11 4418   3.278   5.233   4.400 -1.7733 -0.0147  2.7612
  340THF    H12 4419   3.506   5.248   4.445  0.7554  0.3510 -1.6879
  340THF    H13 4420   3.492   5.387   4.344  1.0167 -1.7302 -0.5057
  341THF     O1 4421   2.911   1.672   1.809 -0.4153  0.6474 -0.1577
  341THF     C2 4422   2.785   1.619   1.764 -0.4766  0.1872 -0.8006
  341THF     C3 4423   2.965   1.751   1.708  0.2247  0.1340 -0.2995
  341THF     H4 4424   2.715   1.621   1.848 -0.1385  0.8919 -0.5220
  341THF     H5 4425   2.801   1.514   1.740  0.2134 -0.3823  1.7820
  341THF     H6 4426   3.033   1.826   1.750 -1.6776  1.8438 -0.1165
  341THF     H7 4427   3.018   1.682   1.643 -1.6621 -1.1710 -0.5066
  341THF     C8 4428   2.849   1.814   1.632  0.1219 -0.0465 -0.0054
  341THF     C9 4429   2.741   1.703   1.648  0.3788 -0.2755 -0.3634
  341THF    H10 4430   2.872   1.836   1.528  0.6387 -0.4804  0.0172
  341THF    H11 4431   2.819   1.904   1.687  2.0301 -1.3253  3.4382
  341THF    H12 4432   2.638   1.741   1.646 -0.1168 -1.4538  1.0337
  341THF    H13 4433   2.742   1.630   1.567  0.4445 -1.0904  0.3533
  342THF     O1 4434   4.015   3.059   2.159 -0.1332 -0.2559 -0.0620
  342THF     C2 4435   4.017   3.204   2.132  0.1536 -0.5399 -0.0701
  342THF     C3 4436   3.890   3.029   2.228  0.4450 -0.3965 -0.4622
  342THF     H4 4437   4.059   3.231   2.035 -0.6988  0.5952 -0.1422
  342THF     H5 4438   4.076   3.259   2.204 -2.4696  2.5321 -0.0587
  342THF     H6 4439   3.858   2.927   2.209 -1.4775  0.3214 -1.2998
  342THF     H7 4440   3.894   3.052   2.335  0.2864 -2.3656  0.0018
  342THF     C8 4441   3.794   3.125   2.168  0.8473 -0.6242  0.1254
  342THF     C9 4442   3.872   3.249   2.165  0.0968  0.0484  0.7097
  342THF    H10 4443   3.696   3.121   2.216 -0.7179  3.1413 -2.2783
  342THF    H11 4444   3.773   3.094   2.065 -1.5527  2.6480 -0.5206
  342THF    H12 4445   3.838   3.314   2.084 -1.7676  0.0632  1.4512
  342THF    H13 4446   3.864   3.307   2.257  0.9135  1.0885  0.1380
  343THF     O1 4447   0.289   0.828   0.798  0.2057  0.3711  0.5833
  343THF     C2 4448   0.211   0.721   0.753 -0.4400 -0.2799  0.3317
  343THF     C3 4449   0.424   0.771   0.824  0.4954  0.4491 -0.2185
  343THF     H4 4450   0.127   0.737   0.686 -1.0609 -3.1540  0.3199
  343THF     H5 4451   0.174   0.663   0.837 -0.1150 -1.0018 -0.0158
  343THF     H6 4452   0.491   0.853   0.796  0.9742  1.8194  4.0994
  343THF     H7 4453   0.440   0.757   0.931 -0.4410  0.0373 -0.1214
  343THF     C8 4454   0.436   0.641   0.745  0.1630  0.2841  0.1697
  343THF     C9 4455   0.308   0.629   0.670  0.5009 -0.8633  0.0055
  343THF    H10 4456   0.453   0.557   0.812 -2.6457 -1.9327 -1.6521
  343THF    H11 4457   0.516   0.634   0.671 -1.4443  0.0059 -1.6291
  343THF    H12 4458   0.319   0.681   0.575  0.8276 -0.1535  0.4186
  343THF    H13 4459   0.292   0.524   0.648  0.7692 -1.3055  1.7374
  344THF     O1 4460   0.393   1.284   4.445 -0.0648  0.8981 -0.3951
  344THF     C2 4461   0.439   1.177   4.531 -0.1558  0.3041 -0.4985
  344THF     C3 4462   0.435   1.407   4.499  0.0259  0.0810 -0.0266
  344THF     H4 4463   0.498   1.111   4.467  0.9002  0.8142 -0.0643
  344THF     H5 4464   0.366   1.111   4.578  0.8918 -0.6286 -0.1286
  344THF     H6 4465   0.533   1.433   4.459  0.5278 -1.2827  0.2450
  344THF     H7 4466   0.367   1.491   4.487 -2.2461 -1.6197  0.3317
  344THF     C8 4467   0.464   1.379   4.647  0.7644 -0.1415  0.0076
  344THF     C9 4468   0.515   1.239   4.646 -1.1189  0.6975 -0.0267
  344THF    H10 4469   0.368   1.376   4.698  0.3744 -0.4081 -0.7350
  344THF    H11 4470   0.540   1.449   4.683 -0.6224  3.0080 -2.6163
  344THF    H12 4471   0.622   1.255   4.633 -0.8947 -0.5633  0.1279
  344THF    H13 4472   0.504   1.188   4.742 -3.3900  0.6320 -0.2723
  345THF     O1 4473   0.636   4.006   0.833  0.9299 -0.1512  0.5085
  345THF     C2 4474   0.510   3.956   0.796 -0.0973 -0.0611 -0.0983
  345THF     C3 4475   0.644   4.146   0.808 -0.0477  0.6139 -0.3394
  345THF     H4 4476   0.501   3.859   0.846 -1.7603  0.3034  0.3930
  345THF     H5 4477   0.501   3.942   0.689 -0.2378 -0.2749 -0.0614
  345THF     H6 4478   0.725   4.193   0.864  0.3613 -0.4870  0.0350
  345THF     H7 4479   0.649   4.178   0.704  2.1759  0.5578 -0.3087
  345THF     C8 4480   0.502   4.193   0.852 -0.8450 -0.3636 -0.2458
  345THF     C9 4481   0.418   4.061   0.865 -0.2173 -0.1640  0.3702
  345THF    H10 4482   0.471   4.270   0.782 -0.1281  0.9135  0.7835
  345THF    H11 4483   0.506   4.245   0.948 -0.7994 -0.8463  0.0211
  345THF    H12 4484   0.414   4.026   0.968  0.8348 -0.0710  0.4616
  345THF    H13 4485   0.316   4.063   0.826 -0.2585 -0.1510  0.4806
  346THF     O1 4486   1.014   4.333   0.511 -0.2523  0.1136 -0.5882
  346THF     C2 4487   1.035   4.193   0.499 -0.0416 -0.0449 -0.1838
  346THF     C3 4488   0.887   4.365   0.551  0.0033 -0.1519  0.0506
  346THF     H4 4489   1.070   4.144   0.590  0.7919 -0.3813 -0.6731
  346THF     H5 4490   1.111   4.184   0.422 -0.1389  1.1516 -0.4292
  346THF     H6 4491   0.862   4.337   0.653 -1.8072 -2.3217 -0.8924
  346THF     H7 4492   0.870   4.471   0.532 -0.1221 -0.0102  0.8981
  346THF     C8 4493   0.813   4.267   0.454  0.3001  0.0342 -0.4009
  346THF     C9 4494   0.900   4.141   0.465  0.5546  0.1289 -0.1116
  346THF    H10 4495   0.818   4.314   0.356  0.8121  0.9227  0.0463
  346THF    H11 4496   0.705   4.263   0.470  0.0256  2.1830 -1.3173
  346THF    H12 4497   0.864   4.069   0.539  0.6415 -2.1241 -2.1146
  346THF    H13 4498   0.897   4.086   0.371 -2.0177  2.6110 -1.6381
  347THF     O1 4499   2.253   3.741   2.498 -0.1393  0.3822 -0.6414
  347THF     C2 4500   2.285   3.858   2.434  0.8591 -0.4373  0.1196
  347THF     C3 4501   2.138   3.768   2.582  0.7913 -0.1644 -0.1749
  347THF     H4 4502   2.340   3.826   2.345 -1.6751 -1.9134 -1.0407
  347THF     H5 4503   2.353   3.917   2.496  1.4859 -0.2858 -0.6946
  347THF     H6 4504   2.068   3.685   2.590 -0.9036  1.1702 -0.7491
  347THF     H7 4505   2.162   3.785   2.687  2.1684 -0.7460 -0.3662
  347THF     C8 4506   2.059   3.885   2.522  0.3237 -0.2926  0.1483
  347THF     C9 4507   2.149   3.920   2.403 -0.2734 -0.3484 -0.3168
  347THF    H10 4508   2.042   3.964   2.596 -0.2090 -1.0240  0.8306
  347THF    H11 4509   1.962   3.843   2.493 -0.2505  2.0522 -1.5744
  347THF    H12 4510   2.106   3.889   2.308  0.3406 -2.6490  0.1024
  347THF    H13 4511   2.148   4.029   2.405  0.1915 -0.3014 -1.5716
  348THF     O1 4512   2.700   0.616   2.290 -0.0710 -0.0442  0.0267
  348THF     C2 4513   2.628   0.529   2.381  0.5184 -0.1471  0.3389
  348THF     C3 4514   2.653   0.604   2.157 -0.0422 -0.4354  0.2266
  348THF     H4 4515   2.636   0.565   2.483 -1.6775 -0.9391  0.8504
  348THF     H5 4516   2.666   0.428   2.366 -1.0552 -0.7494  0.2023
  348THF     H6 4517   2.655   0.698   2.102  0.0866 -0.8371 -0.4602
  348THF     H7 4518   2.717   0.536   2.101  2.3418  0.8956  1.1659
  348THF     C8 4519   2.521   0.550   2.176  0.0384  0.3606 -0.0810
  348THF     C9 4520   2.488   0.526   2.321 -0.0197  0.1127  0.2363
  348THF    H10 4521   2.520   0.450   2.131 -1.5664  0.5181 -0.4635
  348THF    H11 4522   2.437   0.604   2.133  0.1729  1.5155  1.0497
  348THF    H12 4523   2.444   0.615   2.366 -0.4239  0.0885 -0.1051
  348THF    H13 4524   2.444   0.433   2.357 -0.2050  1.0790  2.7260
  349THF     O1 4525   4.274   3.997   4.514 -0.0340  0.0496  0.0459
  349THF     C2 4526   4.358   4.014   4.623 -0.5975  0.1939  0.4062
  349THF     C3 4527   4.147   3.957   4.563 -0.2921  0.3243  0.6405
  349THF     H4 4528   4.340   4.116   4.655 -0.6401  0.3069  0.0227
  349THF     H5 4529   4.461   4.004   4.589 -1.1009  2.2426 -2.0145
  349THF     H6 4530   4.083   4.045   4.569  0.5623  0.8832  1.8938
  349THF     H7 4531   4.114   3.874   4.500  3.3235  0.0440 -1.1527
  349THF     C8 4532   4.166   3.923   4.713  0.3612  0.4249  0.3276
  349THF     C9 4533   4.314   3.914   4.727  0.1713  0.0253 -0.2639
  349THF    H10 4534   4.119   3.829   4.742  1.1113  0.7074  2.6756
  349THF    H11 4535   4.133   3.998   4.786 -1.4124 -1.9260  2.1155
  349THF    H12 4536   4.342   3.942   4.829  1.8689 -0.6235 -0.5200
  349THF    H13 4537   4.349   3.812   4.711 -2.1960 -1.1725  1.4610
  350THF     O1 4538   1.707   3.894   3.942  0.2176  0.5810  0.3372
  350THF     C2 4539   1.822   3.854   4.020 -0.3100 -0.3282 -0.0359
  350THF     C3 4540   1.702   4.033   3.909  0.1572  0.2375 -0.1535
  350THF     H4 4541   1.858   3.754   3.996 -1.1880 -0.5538 -0.4428
  350THF     H5 4542   1.791   3.873   4.123 -2.1002 -0.1680 -0.5656
  350THF     H6 4543   1.704   4.033   3.800  1.7854 -0.2716 -0.1422
  350THF     H7 4544   1.610   4.080   3.945  0.4710  0.4847  0.3400
  350THF     C8 4545   1.836   4.082   3.964  0.8933 -0.0999 -0.4776
  350THF     C9 4546   1.923   3.954   3.970 -0.6261 -0.3361 -0.3249
  350THF    H10 4547   1.829   4.111   4.069 -2.4244  0.4828 -0.7575
  350THF    H11 4548   1.880   4.165   3.908  1.3271  0.3656  0.5401
  350THF    H12 4549   1.950   3.942   3.865 -0.8000 -1.2467 -0.2740
  350THF    H13 4550   2.003   3.949   4.043 -1.3655  0.5094  0.5873
  351THF     O1 4551   5.275   1.781   3.443 -0.1890  0.0918  0.1192
  351THF     C2 4552   5.391   1.825   3.520  0.3820 -0.0579  0.3220
  351THF     C3 4553   5.251   1.642   3.467 -0.6752  0.3396 -0.2216
  351THF     H4 4554   5.376   1.920   3.571  1.0100  0.4258 -0.3877
  351THF     H5 4555   5.483   1.836   3.463 -0.1769 -0.8777 -0.7798
  351THF     H6 4556   5.146   1.639   3.496 -0.2590  0.2986  1.3630
  351THF     H7 4557   5.277   1.585   3.377  0.6900 -1.7264  1.3911
  351THF     C8 4558   5.360   1.609   3.569 -0.1499 -0.2263 -0.2716
  351THF     C9 4559   5.414   1.733   3.637  0.1568 -0.5053  0.0127
  351THF    H10 4560   5.441   1.557   3.517 -1.6668 -2.2854 -0.7190
  351THF    H11 4561   5.326   1.550   3.654  0.7100  1.6847  1.4973
  351THF    H12 4562   5.358   1.769   3.723 -0.6067 -0.0959 -0.6312
  351THF    H13 4563   5.518   1.726   3.667  0.4574 -1.5552 -1.1816
  352THF     O1 4564   3.114   5.334   5.479  0.1638  0.3962  0.0609
  352THF     C2 4565   3.096   5.313   5.618 -0.3661 -0.1504  0.5305
  352THF     C3 4566   3.247   5.315   5.446  0.0770 -0.9546 -0.0080
  352THF     H4 4567   3.057   5.212   5.631  0.0327 -0.2798  0.7343
  352THF     H5 4568   3.020   5.386   5.645  1.8175  2.5884 -0.2435
  352THF     H6 4569   3.267   5.208   5.435 -1.6065 -1.1857 -1.2888
  352THF     H7 4570   3.259   5.356   5.346 -1.0770  2.3484  1.0808
  352THF     C8 4571   3.328   5.366   5.562 -0.5539 -0.1530  0.3410
  352THF     C9 4572   3.232   5.344   5.681  0.8372 -0.1048 -0.4799
  352THF    H10 4573   3.343   5.474   5.549  1.5231 -0.6329 -2.2570
  352THF    H11 4574   3.424   5.317   5.576  0.3130  1.3176 -0.1729
  352THF    H12 4575   3.271   5.265   5.746  1.8336  1.6006  1.0776
  352THF    H13 4576   3.224   5.438   5.735 -0.2856 -0.0728 -0.6808
  353THF     O1 4577   4.152   0.038   3.787  0.0643 -0.1354 -0.2644
  353THF     C2 4578   4.086  -0.066   3.856  0.5851  0.4933 -0.2101
  353THF     C3 4579   4.052   0.116   3.721  0.0338  0.4500  0.2509
  353THF     H4 4580   4.066  -0.021   3.953  0.3767 -0.1086  0.0299
  353THF     H5 4581   4.163  -0.140   3.876  0.0994  0.6736  2.7767
  353THF     H6 4582   4.051   0.219   3.757  0.5580  0.1869  1.0640
  353THF     H7 4583   4.097   0.132   3.624 -2.2983  0.7285 -0.8477
  353THF     C8 4584   3.920   0.041   3.733 -0.3172 -0.4814  0.3395
  353THF     C9 4585   3.959  -0.098   3.776 -0.0738  0.7702 -0.1024
  353THF    H10 4586   3.860   0.047   3.642 -0.6837  0.7871  0.6546
  353THF    H11 4587   3.873   0.088   3.819  0.2950  0.9330 -0.0799
  353THF    H12 4588   3.879  -0.142   3.835  1.6204  0.8996  2.4468
  353THF    H13 4589   3.972  -0.160   3.688  0.8008  0.9784 -0.1301
  354THF     O1 4590   4.070   2.011   0.142  0.5299 -0.1105 -0.3694
  354THF     C2 4591   4.189   1.960   0.180 -0.6951 -0.6156  0.4543
  354THF     C3 4592   4.104   2.119   0.060  0.5658 -0.0295  0.6839
  354THF     H4 4593   4.179   1.861   0.225  0.0809 -0.9066 -0.0047
  354THF     H5 4594   4.229   2.034   0.249  0.9495 -0.3536 -0.7406
  354THF     H6 4595   4.015   2.144   0.002  0.1199 -0.8144  1.0234
  354THF     H7 4596   4.135   2.207   0.117  0.6885  0.4452 -0.1013
  354THF     C8 4597   4.229   2.075  -0.018  0.0612 -0.0333 -0.1025
  354THF     C9 4598   4.265   1.948   0.045  0.7117 -0.5426  0.3352
  354THF    H10 4599   4.305   2.152  -0.006 -0.6342  0.8965 -1.4111
  354THF    H11 4600   4.210   2.061  -0.124  2.4160  0.7811 -0.6888
  354THF    H12 4601   4.232   1.870  -0.023 -0.0094  1.4725 -1.7680
  354THF    H13 4602   4.370   1.925   0.065  0.3215 -0.7615  2.3454
  355THF     O1 4603   2.304   2.958   2.457  0.0996 -0.5659 -0.3733
  355THF     C2 4604   2.413   2.953   2.364  0.1196  0.3597  0.7297
  355THF     C3 4605   2.182   2.959   2.383 -0.0930 -0.0051  0.3845
  355THF     H4 4606   2.506   2.914   2.407 -0.0371 -0.7043  0.1369
  355THF     H5 4607   2.452   3.041   2.314  0.6988 -0.8007 -0.9600
  355THF     H6 4608   2.092   2.936   2.442 -1.2153  0.8100 -0.9444
  355THF     H7 4609   2.182   3.063   2.351 -0.3055  0.5878  2.1689
  355THF     C8 4610   2.210   2.857   2.266 -0.3725 -0.6151  0.7896
  355THF     C9 4611   2.364   2.847   2.262  0.0019  0.1478  0.1916
  355THF    H10 4612   2.178   2.905   2.174  0.7882  1.2186  1.3005
  355THF    H11 4613   2.152   2.766   2.282 -0.9466 -0.3612  0.2280
  355THF    H12 4614   2.398   2.745   2.283  0.4314  0.0152 -1.1057
  355THF    H13 4615   2.416   2.878   2.172  0.4244 -0.8059  0.0991
  356THF     O1 4616   0.093   0.374   0.317 -0.3611 -0.3354  0.4013
  356THF     C2 4617   0.067   0.430   0.436 -0.0137 -0.0574  0.1091
  356THF     C3 4618   0.171   0.255   0.330 -0.9650 -0.3177 -0.4053
  356THF     H4 4619  -0.026   0.488   0.429 -0.5072 -0.9164 -0.6959
  356THF     H5 4620   0.150   0.497   0.461 -0.1045  0.6282 -1.3346
  356THF     H6 4621   0.118   0.191   0.260 -2.2603  1.0564 -0.7254
  356THF     H7 4622   0.275   0.267   0.297 -0.4540  0.6522  1.3894
  356THF     C8 4623   0.154   0.209   0.477 -0.3078  0.5737  0.3176
  356THF     C9 4624   0.059   0.307   0.536  0.4672 -1.0820 -0.2537
  356THF    H10 4625   0.255   0.225   0.516 -0.2103 -0.1557  0.3822
  356THF    H11 4626   0.128   0.105   0.494  2.6795 -0.4354 -0.7275
  356THF    H12 4627  -0.044   0.275   0.522  0.3584 -0.5965 -0.6018
  356THF    H13 4628   0.086   0.337   0.638 -0.8648  0.5443 -0.3438
  357THF     O1 4629   3.771   3.357   0.597 -0.1482 -0.3943 -0.6465
  357THF     C2 4630   3.684   3.366   0.708  0.1507 -0.2015  0.1558
  357THF     C3 4631   3.765   3.223   0.548 -0.3687  0.4563 -0.2993
  357THF     H4 4632   3.586   3.382   0.663 -0.5374 -0.1286  1.5957
  357THF     H5 4633   3.708   3.453   0.770  2.3194 -0.2181 -0.5918
  357THF     H6 4634   3.702   3.209   0.460  0.7349 -2.0068 -0.7945
  357THF     H7 4635   3.866   3.190   0.525 -0.5361  0.4726 -1.1018
  357THF     C8 4636   3.708   3.146   0.662  0.3455  0.3696 -0.0272
  357THF     C9 4637   3.686   3.235   0.779  0.1392  0.9689 -0.5989
  357THF    H10 4638   3.777   3.063   0.678  0.4502  0.0334 -2.0156
  357THF    H11 4639   3.613   3.099   0.637  0.2919  0.9250 -0.9233
  357THF    H12 4640   3.604   3.204   0.843  0.2953 -3.4444 -2.2182
  357THF    H13 4641   3.779   3.248   0.834  0.0331  4.0776 -0.9822
  358THF     O1 4642   0.043   5.468   2.221 -0.5803 -0.3886 -0.1039
  358THF     C2 4643  -0.048   5.366   2.190 -0.2755 -0.6708  0.1281
  358THF     C3 4644   0.118   5.512   2.110  0.0835 -0.5583 -0.1039
  358THF     H4 4645  -0.140   5.417   2.163  0.1411  0.5339  0.8841
  358THF     H5 4646  -0.058   5.306   2.281  0.0339 -1.5291 -0.3974
  358THF     H6 4647   0.091   5.615   2.087  0.0553 -1.1195 -2.8973
  358THF     H7 4648   0.227   5.511   2.116  0.0228 -2.2360  1.6157
  358THF     C8 4649   0.079   5.421   1.999  0.6038  0.0604 -0.3432
  358THF     C9 4650   0.016   5.298   2.068  0.0037  0.1086  0.4285
  358THF    H10 4651   0.164   5.389   1.939  0.5822 -0.7255  0.0231
  358THF    H11 4652   0.010   5.462   1.926 -0.1308 -0.7722 -0.1381
  358THF    H12 4653  -0.056   5.244   2.007  0.7438 -1.1484  0.6294
  358THF    H13 4654   0.093   5.225   2.094 -0.3189  0.3161  2.0919
  359THF     O1 4655   1.418   0.297   2.442  0.4475 -0.5200 -0.5539
  359THF     C2 4656   1.395   0.239   2.575 -0.1841 -0.0045 -0.4618
  359THF     C3 4657   1.537   0.249   2.394  0.0344  1.1046 -0.0674
  359THF     H4 4658   1.298   0.262   2.619  0.8899  1.1065  1.4341
  359THF     H5 4659   1.467   0.283   2.644  1.9188 -1.7350 -1.4365
  359THF     H6 4660   1.524   0.224   2.289 -0.5317 -1.6752  0.5698
  359THF     H7 4661   1.631   0.298   2.417  0.1843 -0.0183  1.9611
  359THF     C8 4662   1.555   0.114   2.479  0.5090 -0.1823  0.3606
  359THF     C9 4663   1.431   0.093   2.567  0.4401 -0.7838  0.1854
  359THF    H10 4664   1.644   0.112   2.542 -0.1796 -2.3627  1.3702
  359THF    H11 4665   1.565   0.030   2.410  1.1486 -0.6312  0.9825
  359THF    H12 4666   1.356   0.033   2.515  0.8776 -0.5275 -0.7810
  359THF    H13 4667   1.454   0.045   2.662 -1.2542 -1.3829  0.3262
  360THF     O1 4668   0.477   1.943   2.785  0.0304  0.7059  0.3030
  360THF     C2 4669   0.594   1.863   2.768  0.2066  0.3975 -0.3939
  360THF     C3 4670   0.397   1.873   2.885 -0.0850  0.2545 -0.0165
  360THF     H4 4671   0.674   1.900   2.831  0.6088 -1.9851  0.6053
  360THF     H5 4672   0.624   1.867   2.663 -1.4606 -2.5934 -1.1119
  360THF     H6 4673   0.431   1.888   2.987 -0.3476  1.6484 -0.1144
  360THF     H7 4674   0.293   1.904   2.879 -0.6486 -1.2177  1.3421
  360THF     C8 4675   0.417   1.720   2.851  0.5589 -0.3018  0.4948
  360THF     C9 4676   0.567   1.718   2.810 -0.2134 -0.0779 -0.1786
  360THF    H10 4677   0.357   1.696   2.764 -1.1031  1.1377  1.1903
  360THF    H11 4678   0.391   1.647   2.927 -0.1780  0.5846  1.1033
  360THF    H12 4679   0.634   1.702   2.894 -0.2008 -1.4592 -0.4375
  360THF    H13 4680   0.582   1.642   2.734  2.0347  2.5442 -2.5667
  361THF     O1 4681   0.220   4.585   4.211 -0.3964 -0.5687  0.0998
  361THF     C2 4682   0.212   4.584   4.360  0.2414  0.5963  0.5046
  361THF     C3 4683   0.096   4.645   4.170  0.6396  0.4170  0.0748
  361THF     H4 4684   0.308   4.568   4.408  0.3596 -1.3935 -0.2725
  361THF     H5 4685   0.145   4.502   4.386 -0.9952  1.2755 -0.3680
  361THF     H6 4686   0.106   4.692   4.072 -0.6142  1.5495  0.4570
  361THF     H7 4687   0.027   4.560   4.166 -0.6501  1.0328  4.2180
  361THF     C8 4688   0.054   4.742   4.276  0.3483  0.7753 -0.0676
  361THF     C9 4689   0.149   4.719   4.385  0.0970  0.6671  0.0600
  361THF    H10 4690  -0.051   4.728   4.301  0.5221  2.0266  1.4966
  361THF    H11 4691   0.066   4.848   4.254  0.6138  0.6548 -0.5077
  361THF    H12 4692   0.227   4.796   4.390  1.2394 -0.4905  0.6186
  361THF    H13 4693   0.098   4.723   4.481  1.5047  0.1817  0.8507
  362THF     O1 4694   4.107   4.024   1.066 -0.0277  0.2389 -0.0142
  362THF     C2 4695   4.101   4.052   0.926 -0.0561 -0.3286 -0.5885
  362THF     C3 4696   3.964   3.993   1.100 -0.3593  0.5113  0.0168
  362THF     H4 4697   4.084   3.962   0.867  2.2628  0.5111 -2.7634
  362THF     H5 4698   4.195   4.098   0.893  0.3248 -0.5706  0.1458
  362THF     H6 4699   3.954   3.886   1.083  0.5041  0.6902 -1.8713
  362THF     H7 4700   3.944   4.012   1.205  0.5384  1.6465  0.0117
  362THF     C8 4701   3.871   4.070   0.994 -0.1203 -0.4304 -0.6769
  362THF     C9 4702   3.983   4.141   0.918 -0.0586 -0.4495 -0.3296
  362THF    H10 4703   3.803   4.140   1.043  1.0035 -0.2207  0.6402
  362THF    H11 4704   3.809   3.998   0.941 -0.8627 -0.9328  0.8202
  362THF    H12 4705   3.966   4.165   0.814  2.6693  0.3492 -0.6648
  362THF    H13 4706   4.004   4.238   0.961 -3.3303  0.4816 -0.5689
  363THF     O1 4707   2.583   2.615   0.346  0.0936 -0.7909 -0.1824
  363THF     C2 4708   2.490   2.704   0.399  0.5086  0.4078 -0.2504
  363THF     C3 4709   2.705   2.630   0.421 -0.3145 -0.4974 -0.1643
  363THF     H4 4710   2.426   2.651   0.469  0.0794  1.4852  0.2024
  363THF     H5 4711   2.423   2.737   0.319  0.3335 -0.5816 -0.5186
  363THF     H6 4712   2.698   2.559   0.503 -0.8350  0.7034  0.8749
  363THF     H7 4713   2.789   2.615   0.354  1.1250  2.3237  0.8187
  363THF     C8 4714   2.710   2.778   0.468 -0.7077  0.1140 -0.7617
  363THF     C9 4715   2.559   2.811   0.477  0.5080 -0.4106  0.7915
  363THF    H10 4716   2.752   2.831   0.382  0.5965  1.4156  0.6291
  363THF    H11 4717   2.769   2.794   0.558 -0.2435 -0.7641 -0.8969
  363THF    H12 4718   2.542   2.805   0.585  0.1496  0.1648  0.7703
  363THF    H13 4719   2.537   2.911   0.441 -1.1160 -0.9985  0.0326
  364THF     O1 4720   0.446   2.367   2.108  0.2807  0.1453 -0.0145
  364THF     C2 4721   0.499   2.486   2.171  0.1291  0.4238  0.5856
  364THF     C3 4722   0.475   2.265   2.195 -0.6158  0.3419 -0.5065
  364THF     H4 4723   0.464   2.578   2.126  1.8949 -0.2601 -2.4381
  364THF     H5 4724   0.608   2.484   2.165  0.1904 -2.4065  0.9426
  364THF     H6 4725   0.403   2.186   2.168 -1.2802  1.1544 -1.1877
  364THF     H7 4726   0.573   2.230   2.164  0.4634  3.1844 -0.5928
  364THF     C8 4727   0.462   2.325   2.341  0.8067  0.5491  0.6419
  364THF     C9 4728   0.456   2.471   2.321 -0.1230 -0.2525 -0.1587
  364THF    H10 4729   0.543   2.290   2.404  0.2385 -2.3953 -0.0925
  364THF    H11 4730   0.373   2.283   2.388  1.4130  0.2699  1.5591
  364THF    H12 4731   0.361   2.522   2.334 -0.6338 -1.3103  0.3589
  364THF    H13 4732   0.530   2.513   2.390  0.2649 -3.0249  1.2648
  365THF     O1 4733   2.163   3.110   0.483  0.0348 -0.0580 -0.0195
  365THF     C2 4734   2.241   2.995   0.477  0.4537 -0.2353  0.4143
  365THF     C3 4735   2.047   3.105   0.400 -0.0467 -0.3766 -0.2587
  365THF     H4 4736   2.199   2.924   0.548 -2.0021  1.3823  0.7067
  365THF     H5 4737   2.347   3.017   0.495  0.6457 -0.3013 -0.5723
  365THF     H6 4738   1.978   3.023   0.423 -0.7207  0.2299 -0.0847
  365THF     H7 4739   1.987   3.195   0.388  0.6037  0.3391  1.5235
  365THF     C8 4740   2.128   3.064   0.280  0.9689  0.1037 -0.0881
  365THF     C9 4741   2.216   2.953   0.336  0.5411 -0.5106 -0.7478
  365THF    H10 4742   2.174   3.153   0.235  0.0832 -0.3765 -2.0622
  365THF    H11 4743   2.063   3.032   0.199 -0.2565  0.5021  0.7097
  365THF    H12 4744   2.160   2.859   0.334 -0.5848  0.1474 -1.1029
  365THF    H13 4745   2.304   2.964   0.271  1.8749  0.7555  1.1793
  366THF     O1 4746   3.404   3.908   1.125 -0.5076 -0.3304  0.3446
  366THF     C2 4747   3.417   3.965   0.997  0.7363 -0.1688 -0.1577
  366THF     C3 4748   3.500   3.971   1.203 -0.9180 -0.6228  0.3086
  366THF     H4 4749   3.335   3.942   0.929  0.4309  0.0825  0.1260
  366THF     H5 4750   3.510   3.939   0.945  0.7396  1.6631 -1.1556
  366THF     H6 4751   3.468   3.970   1.307 -0.8093  1.8442  0.4127
  366THF     H7 4752   3.606   3.947   1.196 -0.7796 -0.0283  0.3504
  366THF     C8 4753   3.478   4.117   1.157  0.8102  0.5284 -0.7205
  366THF     C9 4754   3.427   4.114   1.012  0.4411  0.3448  0.7191
  366THF    H10 4755   3.577   4.164   1.157  1.1196 -0.1027 -1.3173
  366THF    H11 4756   3.409   4.163   1.228  1.1850 -0.1645  0.1082
  366THF    H12 4757   3.335   4.171   1.000  0.8433  1.3268  2.1304
  366THF    H13 4758   3.488   4.155   0.932 -1.5421 -1.8792 -2.1821
  367THF     O1 4759   3.679   1.582   4.232  0.4286 -0.5456  0.4017
  367THF     C2 4760   3.555   1.535   4.170  0.1386 -0.0249 -0.3812
  367THF     C3 4761   3.699   1.705   4.171  0.5973 -0.0626  0.4650
  367THF     H4 4762   3.513   1.467   4.244  0.3752 -0.4631 -0.6478
  367THF     H5 4763   3.591   1.480   4.083  1.8359  1.8405 -0.9492
  367THF     H6 4764   3.785   1.748   4.222  0.0777 -0.7294  1.9714
  367THF     H7 4765   3.726   1.699   4.066 -0.2946  2.6024  0.0290
  367THF     C8 4766   3.565   1.775   4.180 -0.4293  0.2424 -0.4231
  367THF     C9 4767   3.472   1.663   4.151  0.3272 -0.0501  0.5915
  367THF    H10 4768   3.553   1.858   4.111  0.3201  0.4983 -0.2455
  367THF    H11 4769   3.536   1.821   4.274  1.6161 -0.8732  0.8194
  367THF    H12 4770   3.396   1.680   4.227  1.2613  0.1729  1.5067
  367THF    H13 4771   3.419   1.665   4.057  1.3757  1.8002 -0.0078
  368THF     O1 4772   0.174   4.458   0.623  0.2260  0.1789  0.4230
  368THF     C2 4773   0.122   4.514   0.508  0.6639 -0.1696  0.2966
  368THF     C3 4774   0.285   4.370   0.595 -0.4082  0.2045 -0.0455
  368THF     H4 4775   0.082   4.615   0.519  0.3602  0.0930 -2.5185
  368THF     H5 4776   0.039   4.460   0.462 -1.0313  1.6217  1.1053
  368THF     H6 4777   0.377   4.422   0.624 -0.6795 -0.1610  1.6028
  368THF     H7 4778   0.283   4.271   0.640  1.0432  0.3216  0.3198
  368THF     C8 4779   0.296   4.361   0.443  0.4339  0.4665 -0.4262
  368THF     C9 4780   0.242   4.504   0.411  0.5723  0.3650 -0.0420
  368THF    H10 4781   0.243   4.275   0.403  1.8831 -0.6781  0.0215
  368THF    H11 4782   0.398   4.342   0.408 -0.0188 -0.2252 -1.3996
  368THF    H12 4783   0.314   4.585   0.427  0.2144  0.2883  2.3899
  368THF    H13 4784   0.209   4.503   0.307  1.7034 -3.7950 -0.5464
  369THF     O1 4785   0.395   5.120   4.434 -0.1339 -0.1215 -0.6570
  369THF     C2 4786   0.482   5.184   4.531  0.2189  0.4148 -0.0209
  369THF     C3 4787   0.285   5.208   4.401  0.3992  0.2685  0.5353
  369THF     H4 4788   0.555   5.239   4.471 -0.0663  0.8004 -0.0180
  369THF     H5 4789   0.525   5.110   4.598 -0.9444 -1.0225 -0.7918
  369THF     H6 4790   0.317   5.288   4.334 -0.2337  2.1116  2.3366
  369THF     H7 4791   0.203   5.146   4.364  1.2759 -0.3965 -0.3224
  369THF     C8 4792   0.261   5.272   4.542  0.9816  0.2877  0.3421
  369THF     C9 4793   0.395   5.286   4.608 -0.8217  0.4045  0.1213
  369THF    H10 4794   0.197   5.203   4.597 -1.7688  1.3099 -1.3187
  369THF    H11 4795   0.207   5.366   4.545 -1.0732 -0.8603  1.8033
  369THF    H12 4796   0.436   5.387   4.605 -0.6141  0.3444  0.8180
  369THF    H13 4797   0.375   5.255   4.711  1.2152  1.5644  0.9330
  370THF     O1 4798   2.647   3.726   2.362  0.0142  0.0263 -0.5486
  370THF     C2 4799   2.623   3.848   2.287  0.6131  0.3482  0.1058
  370THF     C3 4800   2.780   3.702   2.335 -0.0351  0.0338 -0.3799
  370THF     H4 4801   2.536   3.903   2.323  1.0751 -0.1911  2.1438
  370THF     H5 4802   2.608   3.830   2.180  0.0526  1.0392  0.0622
  370THF     H6 4803   2.824   3.620   2.392  1.9500  2.3759  1.7090
  370THF     H7 4804   2.795   3.673   2.231  1.1682  1.1694 -0.5443
  370THF     C8 4805   2.853   3.829   2.357  0.1258  0.7145 -0.2980
  370THF     C9 4806   2.747   3.931   2.304  0.6519 -0.3136 -0.6442
  370THF    H10 4807   2.952   3.834   2.312 -0.7946  0.5141 -2.4610
  370THF    H11 4808   2.866   3.841   2.465 -1.2805 -4.5011  0.7328
  370THF    H12 4809   2.727   4.018   2.366 -1.0478 -0.8479 -0.3680
  370THF    H13 4810   2.776   3.956   2.201 -1.8485  0.4783 -1.2255
  371THF     O1 4811   2.711   0.924   4.518  0.3796  0.0030 -0.2507
  371THF     C2 4812   2.589   0.998   4.529  0.3561 -0.5854  0.0022
  371THF     C3 4813   2.788   0.994   4.425 -0.5714  0.3203  1.1123
  371THF     H4 4814   2.587   1.035   4.632 -2.7899  0.7839 -0.4358
  371THF     H5 4815   2.509   0.927   4.510 -0.4287 -0.2478  1.8404
  371THF     H6 4816   2.846   1.068   4.481  0.9829  0.8645 -1.0934
  371THF     H7 4817   2.860   0.923   4.384 -1.3006 -1.2294  2.3947
  371THF     C8 4818   2.694   1.055   4.328  0.4766 -0.4350  0.3919
  371THF     C9 4819   2.591   1.107   4.428 -0.0278  0.3610  0.3806
  371THF    H10 4820   2.650   0.982   4.260 -1.0491  1.1345 -0.3855
  371THF    H11 4821   2.742   1.142   4.282 -1.5823  1.9527  2.5179
  371THF    H12 4822   2.614   1.199   4.482  0.8373  0.5547 -0.2872
  371THF    H13 4823   2.493   1.123   4.383 -0.0578  0.0943  0.3490
  372THF     O1 4824   0.059   1.316   3.356 -0.0023 -0.3275 -0.1865
  372THF     C2 4825  -0.059   1.258   3.414  0.1670  0.2020 -0.0331
  372THF     C3 4826   0.168   1.222   3.348 -0.0242  0.2926  0.5614
  372THF     H4 4827  -0.134   1.240   3.337 -2.2039 -0.1924  2.2531
  372THF     H5 4828  -0.102   1.337   3.476  0.1423  0.3487 -0.2363
  372THF     H6 4829   0.208   1.223   3.247  0.1263 -1.5709  0.5615
  372THF     H7 4830   0.247   1.264   3.410  0.6982  2.2950 -1.5567
  372THF     C8 4831   0.097   1.096   3.384  0.4125 -0.2520 -0.5254
  372THF     C9 4832   0.000   1.144   3.483  0.7710 -0.4373 -0.0161
  372THF    H10 4833   0.156   1.017   3.430 -1.3297 -1.4058 -0.1940
  372THF    H11 4834   0.048   1.046   3.300  1.1518 -1.8917 -0.0144
  372THF    H12 4835  -0.076   1.068   3.500  0.3175 -0.0176 -0.1483
  372THF    H13 4836   0.042   1.181   3.577  1.0586  1.4533 -0.8414
  373THF     O1 4837   1.642   3.075   3.068  0.5618  0.6526  0.4149
  373THF     C2 4838   1.535   3.011   2.999 -0.5061 -0.4581 -0.1140
  373THF     C3 4839   1.598   3.101   3.205  0.2036 -0.2280  0.2546
  373THF     H4 4840   1.578   2.961   2.912 -0.0275  1.9411 -1.3325
  373THF     H5 4841   1.465   3.092   2.978  1.4766  1.8825  1.7738
  373THF     H6 4842   1.660   3.128   3.290 -1.2251  1.3359  0.8674
  373THF     H7 4843   1.526   3.181   3.185 -0.9210 -1.1981  0.3511
  373THF     C8 4844   1.516   2.976   3.236 -0.6300  0.4288  0.7133
  373THF     C9 4845   1.481   2.910   3.098  0.2412  0.2303 -0.4550
  373THF    H10 4846   1.435   3.003   3.303  0.4757  3.4192  0.9849
  373THF    H11 4847   1.586   2.910   3.287  0.9585 -0.1227 -1.9807
  373THF    H12 4848   1.529   2.813   3.086 -1.4226 -0.7418  0.3432
  373THF    H13 4849   1.373   2.894   3.098 -0.0188  1.8043 -0.6574
  374THF     O1 4850   2.606   5.146   4.744 -0.3233  0.0637  0.0597
  374THF     C2 4851   2.552   5.230   4.844 -0.0496  0.2964  0.2306
  374THF     C3 4852   2.743   5.126   4.756 -0.2994  0.4775 -0.7808
  374THF     H4 4853   2.532   5.155   4.920 -1.8810 -1.2497 -1.6550
  374THF     H5 4854   2.457   5.282   4.831 -0.6840 -0.8549  0.0926
  374THF     H6 4855   2.768   5.049   4.829  1.0782  0.3463 -1.3515
  374THF     H7 4856   2.782   5.092   4.660 -0.5027 -0.6345 -0.4743
  374THF     C8 4857   2.792   5.265   4.800  0.0506  0.6073  0.3672
  374THF     C9 4858   2.663   5.326   4.874  0.3663  0.1301 -0.6108
  374THF    H10 4859   2.807   5.318   4.706 -1.0097 -1.1313 -0.8340
  374THF    H11 4860   2.888   5.270   4.851 -0.2010 -2.5211  1.3990
  374THF    H12 4861   2.685   5.326   4.981 -0.1129  0.0495 -0.5093
  374THF    H13 4862   2.631   5.427   4.848  1.1309  0.6472  0.3943
  375THF     O1 4863   4.634   2.769   1.490  0.5942  0.1995 -0.0561
  375THF     C2 4864   4.743   2.863   1.482 -0.7298  0.1491  0.1920
  375THF     C3 4865   4.622   2.734   1.623  0.1819 -0.5365 -0.9021
  375THF     H4 4866   4.711   2.958   1.523  1.6520  0.8704  0.5637
  375THF     H5 4867   4.783   2.868   1.380 -1.8818 -1.2682 -0.3662
  375THF     H6 4868   4.578   2.826   1.663 -0.0420 -0.2700 -1.7328
  375THF     H7 4869   4.560   2.649   1.650 -0.7672  0.8041  1.4994
  375THF     C8 4870   4.763   2.725   1.674  0.3710 -0.8671 -0.0425
  375THF     C9 4871   4.849   2.807   1.576 -0.2280 -0.6535  0.1552
  375THF    H10 4872   4.787   2.618   1.678  1.2212 -0.7243 -0.8491
  375THF    H11 4873   4.787   2.761   1.774 -0.3659 -0.4262 -0.0209
  375THF    H12 4874   4.916   2.886   1.609  0.0113 -0.7950  0.0121
  375THF    H13 4875   4.912   2.735   1.525 -0.5368 -0.9005  0.1181
  376THF     O1 4876   3.255   0.371   3.033  0.3170 -0.0630  0.2524
  376THF     C2 4877   3.124   0.343   2.983 -0.5150 -1.2063 -0.0573
  376THF     C3 4878   3.244   0.497   3.093 -0.2130 -0.0042  0.1895
  376THF     H4 4879   3.107   0.235   2.972 -3.0407 -0.8943  0.2686
  376THF     H5 4880   3.119   0.396   2.888 -0.6008 -1.3889 -0.1561
  376THF     H6 4881   3.330   0.520   3.156  0.1121 -0.1580 -0.1937
  376THF     H7 4882   3.243   0.585   3.029  1.3437 -0.4109 -0.4405
  376THF     C8 4883   3.118   0.475   3.178 -0.0820 -0.3352  0.4980
  376THF     C9 4884   3.026   0.400   3.085  0.2325  0.7459  0.1137
  376THF    H10 4885   3.082   0.570   3.218  0.4826 -0.9392  2.5720
  376THF    H11 4886   3.150   0.420   3.266  2.1585  0.0526 -0.0068
  376THF    H12 4887   2.977   0.321   3.141 -0.5312  1.7019  0.8350
  376THF    H13 4888   2.955   0.464   3.034 -0.6321  1.3138  1.9496
  377THF     O1 4889   2.396   2.578   0.734 -0.7319  0.1198  0.2344
  377THF     C2 4890   2.374   2.507   0.848 -0.7092  0.1593  0.1214
  377THF     C3 4891   2.309   2.691   0.725 -0.0060  0.2180 -0.0187
  377THF     H4 4892   2.418   2.568   0.926 -0.1241  0.6606 -0.5920
  377THF     H5 4893   2.419   2.409   0.834 -0.9680 -0.0539  0.7274
  377THF     H6 4894   2.346   2.773   0.786 -1.5003  0.8015  0.1319
  377THF     H7 4895   2.292   2.732   0.625 -1.1410  0.8626  0.4238
  377THF     C8 4896   2.183   2.640   0.781  0.0839 -0.2584 -0.6853
  377THF     C9 4897   2.223   2.514   0.856 -0.3983 -0.1409 -0.0165
  377THF    H10 4898   2.111   2.620   0.702  1.4632 -1.5105 -1.6712
  377THF    H11 4899   2.149   2.717   0.851  3.6843  0.5283  0.3823
  377THF    H12 4900   2.191   2.530   0.959 -1.1976  1.3962 -0.4729
  377THF    H13 4901   2.185   2.420   0.814  1.8126 -0.7723 -0.7235
  378THF     O1 4902   3.264   4.895   0.339  0.0683  0.5498 -0.1992
  378THF     C2 4903   3.217   4.960   0.225 -0.0222  0.3536  0.4775
  378THF     C3 4904   3.320   4.770   0.292 -0.5596  0.4239  0.0361
  378THF     H4 4905   3.300   5.014   0.180  1.2564 -1.3298  0.7087
  378THF     H5 4906   3.141   5.035   0.247 -0.5794 -0.2065  0.5031
  378THF     H6 4907   3.428   4.779   0.282 -0.7424  1.1911 -1.5114
  378THF     H7 4908   3.309   4.694   0.370  1.2791  0.8480  0.7568
  378THF     C8 4909   3.251   4.727   0.163  0.6808 -0.1323  0.4403
  378THF     C9 4910   3.162   4.849   0.134 -0.2319  0.1074 -0.4439
  378THF    H10 4911   3.189   4.638   0.179 -1.7950  1.0192 -1.9162
  378THF    H11 4912   3.310   4.707   0.073  1.4151  0.9784  0.6623
  378THF    H12 4913   3.150   4.875   0.029 -0.7247  1.2247 -0.1391
  378THF    H13 4914   3.065   4.823   0.176  0.0485 -0.4314 -0.1259
  379THF     O1 4915   3.133   3.002   1.350 -0.3122 -0.0913  0.0747
  379THF     C2 4916   3.132   2.930   1.226  0.4200  0.0741  0.4136
  379THF     C3 4917   3.069   3.126   1.323 -0.0315  0.1863 -0.3033
  379THF     H4 4918   3.047   2.862   1.238  0.3543 -0.0424 -0.6422
  379THF     H5 4919   3.224   2.872   1.217  0.0239 -0.6793  1.0724
  379THF     H6 4920   2.961   3.118   1.324  0.0207 -0.7214  1.0266
  379THF     H7 4921   3.092   3.217   1.379 -0.9946 -0.4730  1.2356
  379THF     C8 4922   3.102   3.167   1.184 -0.1412  0.7496 -0.2021
  379THF     C9 4923   3.121   3.031   1.109 -0.0595  0.6552  0.1064
  379THF    H10 4924   3.189   3.233   1.172  1.2500 -1.4352 -3.3721
  379THF    H11 4925   3.021   3.214   1.128 -0.2905  0.9144  0.1488
  379THF    H12 4926   3.037   3.009   1.043  0.1957 -0.4238  0.1189
  379THF    H13 4927   3.206   3.024   1.041  1.0599 -0.3467  1.5580
  380THF     O1 4928   3.179   5.263   2.303 -0.6679 -0.1023  0.2227
  380THF     C2 4929   3.073   5.168   2.286  0.9235 -0.0323  0.7363
  380THF     C3 4930   3.211   5.302   2.173 -0.3583 -1.1080  0.1355
  380THF     H4 4931   2.983   5.213   2.245  0.7619 -0.7833  0.2544
  380THF     H5 4932   3.037   5.121   2.377 -0.0732 -1.8790 -0.5344
  380THF     H6 4933   3.147   5.384   2.141  1.5736 -0.2969 -1.9675
  380THF     H7 4934   3.311   5.347   2.173 -0.9108  0.1883  1.0162
  380THF     C8 4935   3.193   5.182   2.074  0.8400  0.4881 -0.6180
  380THF     C9 4936   3.124   5.087   2.170 -0.0238  0.7148 -0.3560
  380THF    H10 4937   3.293   5.149   2.048  1.4210  1.4241  0.3616
  380THF    H11 4938   3.136   5.204   1.984 -1.3966 -0.4018  0.4960
  380THF    H12 4939   3.061   5.013   2.121  2.3539 -2.0408  0.5099
  380THF    H13 4940   3.206   5.031   2.214  0.4438  1.5859 -0.0945
  381THF     O1 4941   4.769   5.415   1.968  1.0965 -0.1480 -0.0401
  381THF     C2 4942   4.652   5.439   1.888 -0.8501  0.4417 -0.0331
  381THF     C3 4943   4.728   5.403   2.104  1.1687  0.0538 -0.0812
  381THF     H4 4944   4.645   5.392   1.790 -0.8190  1.3387 -0.4704
  381THF     H5 4945   4.641   5.543   1.859 -0.2212  0.0791 -1.6716
  381THF     H6 4946   4.749   5.302   2.139 -0.4985 -0.2851  0.0128
  381THF     H7 4947   4.771   5.472   2.176  2.5467  1.4762 -2.1749
  381THF     C8 4948   4.577   5.433   2.116 -0.1984  0.3806 -0.0522
  381THF     C9 4949   4.527   5.402   1.973  1.2101 -0.3383  0.0335
  381THF    H10 4950   4.565   5.540   2.131  0.2996  0.4323  0.0130
  381THF    H11 4951   4.534   5.371   2.194  0.1765  0.5268  0.2748
  381THF    H12 4952   4.509   5.294   1.968  0.3474 -0.1970 -0.0711
  381THF    H13 4953   4.440   5.467   1.961  0.5840 -1.3575 -1.1995
  382THF     O1 4954   3.424   2.945   2.063 -0.1660  0.4315  0.3831
  382THF     C2 4955   3.490   3.030   1.970 -0.2599 -0.8239 -0.3107
  382THF     C3 4956   3.291   2.993   2.069 -0.3575  0.3496 -0.9333
  382THF     H4 4957   3.582   2.985   1.933 -1.1580 -1.9956 -1.2332
  382THF     H5 4958   3.520   3.123   2.018 -0.4086  0.1641 -2.0525
  382THF     H6 4959   3.220   2.922   2.112 -0.3000  0.2657 -0.9762
  382THF     H7 4960   3.302   3.081   2.132  2.8281  0.7861 -1.9399
  382THF     C8 4961   3.254   3.037   1.927 -0.1891 -0.4989 -0.4618
  382THF     C9 4962   3.392   3.050   1.853  0.2787 -0.0248  0.1625
  382THF    H10 4963   3.187   3.122   1.915  0.8223  0.3402 -0.3521
  382THF    H11 4964   3.201   2.953   1.884 -0.4314 -0.5495 -0.0658
  382THF    H12 4965   3.413   2.969   1.783 -0.3887 -1.9652  2.0851
  382THF    H13 4966   3.410   3.146   1.806 -0.3192  1.0834  2.0657
  383THF     O1 4967   3.054   4.522   1.180 -0.0534 -0.5225 -0.1201
  383THF     C2 4968   3.058   4.539   1.325 -0.1105 -0.0508  0.5639
  383THF     C3 4969   3.170   4.462   1.141 -0.1061 -0.4520  0.0246
  383THF     H4 4970   3.044   4.444   1.376 -1.6928  0.6917  1.5968
  383THF     H5 4971   2.990   4.619   1.356 -0.1955 -0.1930  0.7483
  383THF     H6 4972   3.167   4.359   1.106  2.9038 -0.9133  0.8365
  383THF     H7 4973   3.195   4.513   1.049  0.2495 -0.1240  0.3011
  383THF     C8 4974   3.271   4.487   1.250 -0.4780  0.4430  0.1255
  383THF     C9 4975   3.198   4.593   1.337 -0.4777  0.1212  0.2092
  383THF    H10 4976   3.364   4.524   1.207 -1.1209 -0.3979 -2.1437
  383THF    H11 4977   3.288   4.395   1.306  3.4723  0.1167 -1.2777
  383THF    H12 4978   3.245   4.596   1.436  0.9624  0.8674 -0.4673
  383THF    H13 4979   3.206   4.694   1.298 -1.0249 -0.8111 -2.4808
  384THF     O1 4980   0.135   2.362   1.495  0.3038 -0.0661  0.1041
  384THF     C2 4981   0.073   2.444   1.397  0.2278 -0.3969  0.3993
  384THF     C3 4982   0.201   2.258   1.420 -0.3903  0.6025  0.1060
  384THF     H4 4983   0.034   2.535   1.443  0.0132 -1.2765  2.0678
  384THF     H5 4984  -0.017   2.396   1.358  0.1273  0.3535 -0.3022
  384THF     H6 4985   0.274   2.195   1.470  0.4256  0.3226 -1.3921
  384THF     H7 4986   0.123   2.192   1.381 -0.2644 -0.1970  1.1831
  384THF     C8 4987   0.272   2.337   1.310 -0.2851 -0.4585  0.3037
  384THF     C9 4988   0.196   2.466   1.306  0.5330  0.7476  0.5310
  384THF    H10 4989   0.270   2.280   1.217 -0.4009 -0.9329  0.5912
  384THF    H11 4990   0.373   2.362   1.342 -0.0301  0.2507 -0.9957
  384THF    H12 4991   0.245   2.544   1.364  2.0813  0.0188  0.2682
  384THF    H13 4992   0.171   2.509   1.209  2.1574 -0.7664 -0.6070
  385THF     O1 4993   2.279   3.116   1.564  0.3490 -0.2854  0.3978
  385THF     C2 4994   2.411   3.170   1.569 -0.3688  0.4755  0.4177
  385THF     C3 4995   2.236   3.107   1.703  0.0723  0.8030 -0.7586
  385THF     H4 4996   2.435   3.211   1.470 -2.1851  0.2854 -0.1316
  385THF     H5 4997   2.476   3.087   1.595  0.7039  0.8293 -1.0091
  385THF     H6 4998   2.130   3.122   1.724  0.5115  0.8161  1.7353
  385THF     H7 4999   2.259   3.007   1.740 -1.0778  0.8710  0.2016
  385THF     C8 5000   2.320   3.210   1.782  0.4386 -0.1538  0.2518
  385THF     C9 5001   2.394   3.279   1.674 -0.4075  0.3140  0.0752
  385THF    H10 5002   2.381   3.157   1.855  1.9540  1.4829  0.2382
  385THF    H11 5003   2.255   3.281   1.834  1.8296 -0.1009  1.9804
  385THF    H12 5004   2.333   3.351   1.619 -1.3568 -0.6922 -0.2244
  385THF    H13 5005   2.484   3.330   1.709 -0.2837 -0.0100  0.2322
  386THF     O1 5006   3.251   0.794   0.343  1.1636  0.2922 -0.1958
  386THF     C2 5007   3.187   0.681   0.281  0.2187  0.3422  0.2626
  386THF     C3 5008   3.244   0.887   0.230  0.8971 -0.0606  0.1522
  386THF     H4 5009   3.081   0.698   0.263 -0.3188 -1.3520  1.6951
  386THF     H5 5010   3.184   0.595   0.347  1.2698  0.1461  0.0684
  386THF     H6 5011   3.142   0.924   0.226  0.4110 -1.4403 -0.7495
  386THF     H7 5012   3.312   0.969   0.254  1.8506 -0.6965 -0.3182
  386THF     C8 5013   3.296   0.802   0.108 -0.2644  0.2303 -0.1446
  386THF     C9 5014   3.261   0.665   0.153 -1.0983  0.2626 -0.0163
  386THF    H10 5015   3.404   0.811   0.096 -0.2923  2.0441  0.5626
  386THF    H11 5016   3.236   0.827   0.021  0.7426 -1.4828 -1.3773
  386THF    H12 5017   3.197   0.608   0.085 -0.7183 -0.5161  0.2636
  386THF    H13 5018   3.348   0.603   0.175 -0.9144  0.4052 -0.3460
  387THF     O1 5019   1.199   2.384   0.557 -0.0227 -0.6528  0.1960
  387THF     C2 5020   1.077   2.414   0.489 -0.5581  0.5022 -0.1623
  387THF     C3 5021   1.267   2.507   0.574  0.8026  0.0488  0.6664
  387THF     H4 5022   1.005   2.334   0.472 -1.2731  1.4093 -1.5620
  387THF     H5 5023   1.093   2.460   0.392 -0.5353  0.0203 -0.3882
  387THF     H6 5024   1.357   2.508   0.635  0.5761  1.3646  0.9946
  387THF     H7 5025   1.296   2.535   0.472 -0.3188 -1.7434 -0.2127
  387THF     C8 5026   1.156   2.593   0.632  0.3311  0.0579  0.1724
  387THF     C9 5027   1.021   2.525   0.587 -0.3161  0.4114 -0.2378
  387THF    H10 5028   1.163   2.690   0.582 -1.7036  0.4763  0.6335
  387THF    H11 5029   1.166   2.594   0.740  0.2888 -0.2511  0.1792
  387THF    H12 5030   0.973   2.479   0.674 -0.8920 -2.4744 -1.9454
  387THF    H13 5031   0.949   2.595   0.546 -0.2539  1.0151  0.6529
  388THF     O1 5032   0.412   0.164   2.996  0.0979  0.3913  0.2736
  388THF     C2 5033   0.435   0.302   2.989 -0.2132  0.8360  0.1199
  388THF     C3 5034   0.375   0.125   3.127  0.2574  0.6484  0.8071
  388THF     H4 5035   0.426   0.341   2.888  1.8314 -2.2997 -1.4498
  388THF     H5 5036   0.533   0.343   3.015 -0.4475  3.2884 -2.4474
  388THF     H6 5037   0.310   0.038   3.118 -0.3275  1.3068 -2.6458
  388THF     H7 5038   0.465   0.105   3.185  0.6171 -0.2233 -0.0271
  388THF     C8 5039   0.311   0.247   3.180 -0.1592 -0.1058 -0.0858
  388THF     C9 5040   0.311   0.340   3.060 -0.4512 -0.5072  0.0662
  388THF    H10 5041   0.374   0.285   3.261 -1.4541 -0.1949  0.9976
  388THF    H11 5042   0.205   0.239   3.203  0.0415  3.0686  2.8687
  388THF    H12 5043   0.222   0.331   2.997 -0.6716 -3.8580  0.6521
  388THF    H13 5044   0.321   0.445   3.087  1.0133 -0.1811 -1.5392
  389THF     O1 5045   1.189   1.316   3.330  0.6409 -0.3229 -0.6513
  389THF     C2 5046   1.289   1.224   3.378  0.1695  0.5909  0.3363
  389THF     C3 5047   1.203   1.423   3.420  0.2574 -0.4272  0.3716
  389THF     H4 5048   1.388   1.256   3.345 -0.1637  2.2508  0.8432
  389THF     H5 5049   1.285   1.124   3.335  1.6579  0.3341  0.7458
  389THF     H6 5050   1.298   1.472   3.405 -1.0730  1.6903 -1.7241
  389THF     H7 5051   1.123   1.497   3.416  2.6542  2.2924 -0.2781
  389THF     C8 5052   1.208   1.349   3.557 -0.3119 -0.7465  0.3457
  389THF     C9 5053   1.267   1.215   3.532 -0.1502  0.0450 -0.7088
  389THF    H10 5054   1.110   1.325   3.599 -1.5726  0.7167 -1.5990
  389THF    H11 5055   1.259   1.408   3.633 -2.0811  1.0778  0.1795
  389THF    H12 5056   1.356   1.186   3.587 -0.5936 -0.1302 -0.0609
  389THF    H13 5057   1.195   1.144   3.574 -2.1582  1.6613 -1.2767
  390THF     O1 5058   2.081   4.133   1.621  0.1440  0.5939  0.3999
  390THF     C2 5059   2.202   4.188   1.574 -0.1968 -0.1241  0.5794
  390THF     C3 5060   1.994   4.148   1.510  0.1186 -0.4602  0.2277
  390THF     H4 5061   2.242   4.134   1.489 -2.1673 -0.2384 -0.3304
  390THF     H5 5062   2.284   4.201   1.645  1.9832 -0.0424 -1.8035
  390THF     H6 5063   2.009   4.070   1.435 -3.2068  0.8475 -2.0033
  390THF     H7 5064   1.889   4.129   1.530  0.0727 -1.7243 -1.0155
  390THF     C8 5065   2.027   4.291   1.459 -0.1859 -0.8334 -0.0404
  390THF     C9 5066   2.161   4.323   1.523  0.5556  0.2881 -0.1278
  390THF    H10 5067   1.951   4.355   1.505  0.2596 -0.4950  0.2313
  390THF    H11 5068   2.019   4.294   1.350  1.8053  0.2153 -0.2097
  390THF    H12 5069   2.228   4.383   1.460  1.0423  0.2454  0.3379
  390THF    H13 5070   2.139   4.393   1.603  0.4266  0.4169 -0.2738
  391THF     O1 5071   5.314   0.575   0.037 -0.2982  0.0799 -0.3503
  391THF     C2 5072   5.436   0.516   0.088  0.3418 -0.3009  0.2597
  391THF     C3 5073   5.212   0.475   0.004  0.0484  0.0483  0.2613
  391THF     H4 5074   5.434   0.502   0.196 -1.3965 -0.8491  0.1834
  391THF     H5 5075   5.530   0.563   0.058  0.1952 -0.4546 -0.4583
  391THF     H6 5076   5.130   0.494   0.073 -0.2460 -1.7763  0.4520
  391THF     H7 5077   5.190   0.470  -0.103  0.4122  0.8703  0.1398
  391THF     C8 5078   5.272   0.345   0.037 -0.6085  0.3816  0.0180
  391THF     C9 5079   5.421   0.375   0.034 -0.3515  0.6892 -0.0772
  391THF    H10 5080   5.249   0.276  -0.044 -0.1552  1.7257 -1.3054
  391THF    H11 5081   5.240   0.315   0.136 -0.8443 -0.2021 -0.2317
  391THF    H12 5082   5.470   0.301   0.097  2.3574  0.3594 -2.3276
  391THF    H13 5083   5.460   0.365  -0.068  1.0919 -1.5200  0.6123
  392THF     O1 5084   0.249   0.961   5.023  0.0644 -1.1687  0.2741
  392THF     C2 5085   0.220   1.041   4.909  0.2557 -0.1120  0.0891
  392THF     C3 5086   0.204   1.029   5.143  0.2237  0.3132  0.0454
  392THF     H4 5087   0.169   0.979   4.835  2.7210 -0.5978 -1.3200
  392THF     H5 5088   0.310   1.083   4.865 -0.6789  2.5025  0.5328
  392THF     H6 5089   0.116   0.970   5.170  1.1365 -0.6940  0.9397
  392THF     H7 5090   0.274   1.015   5.226  1.8577 -2.2541 -1.6409
  392THF     C8 5091   0.168   1.168   5.099  0.3589 -0.0159  0.0114
  392THF     C9 5092   0.122   1.157   4.952 -0.2041 -0.3850 -1.1299
  392THF    H10 5093   0.249   1.240   5.112  0.4780 -0.0696 -0.4295
  392THF    H11 5094   0.082   1.199   5.159 -0.2067  3.1065 -2.1586
  392THF    H12 5095   0.026   1.106   4.955  0.0290 -0.7915 -0.0562
  392THF    H13 5096   0.112   1.244   4.888 -0.5807  0.0813 -0.4505
  393THF     O1 5097   2.557   3.013   1.028 -0.2927  0.1573 -0.0726
  393THF     C2 5098   2.596   3.072   1.151 -0.1141  0.0368 -0.1059
  393THF     C3 5099   2.632   2.899   0.997 -0.5926  0.4548  0.6943
  393THF     H4 5100   2.534   3.041   1.236  0.0012 -1.8537 -0.6622
  393THF     H5 5101   2.588   3.180   1.154 -0.7881 -0.0224  1.2773
  393THF     H6 5102   2.555   2.823   0.985 -0.5560  0.8081 -3.1958
  393THF     H7 5103   2.672   2.897   0.895 -1.6345  1.6717  0.2365
  393THF     C8 5104   2.741   2.878   1.103 -0.2668 -0.2176 -0.4574
  393THF     C9 5105   2.743   3.021   1.161  0.3258 -0.4405  0.2907
  393THF    H10 5106   2.839   2.851   1.064 -0.4870  0.6986 -1.7010
  393THF    H11 5107   2.715   2.797   1.172  0.0841  0.0558  0.0004
  393THF    H12 5108   2.768   3.020   1.267 -0.4953 -1.0142  0.4835
  393THF    H13 5109   2.815   3.083   1.107  0.4007 -0.7419  0.0450
  394THF     O1 5110   5.135   0.899   2.440  0.1443  0.1207  0.7065
  394THF     C2 5111   5.252   0.947   2.382 -0.1282  0.1970 -0.1174
  394THF     C3 5112   5.151   0.756   2.453  0.5005  0.5620  0.8719
  394THF     H4 5113   5.271   1.054   2.392 -0.9599  0.3988 -0.6021
  394THF     H5 5114   5.232   0.928   2.276  0.5051 -0.3587 -0.1417
  394THF     H6 5115   5.071   0.726   2.521 -0.7980 -1.2955 -1.3267
  394THF     H7 5116   5.124   0.711   2.357  1.3450  0.6430  0.5857
  394THF     C8 5117   5.305   0.733   2.482  0.4559  0.1271 -0.1289
  394THF     C9 5118   5.372   0.855   2.415 -0.2530  0.1699 -0.2630
  394THF    H10 5119   5.347   0.636   2.460 -2.5787 -1.1238 -0.9262
  394THF    H11 5120   5.307   0.747   2.590  0.0846  1.3662 -0.2619
  394THF    H12 5121   5.442   0.902   2.484 -0.9002 -0.5139  0.8969
  394THF    H13 5122   5.426   0.827   2.324  1.3345 -0.6955  0.8915
  395THF     O1 5123   2.841   5.345   3.201 -0.0492  0.3148  0.2340
  395THF     C2 5124   2.968   5.401   3.195  0.3971  0.1379  0.4859
  395THF     C3 5125   2.750   5.417   3.108  0.4144  0.1647  0.3428
  395THF     H4 5126   3.042   5.321   3.206  0.6864 -0.0506 -2.1543
  395THF     H5 5127   2.985   5.470   3.277  1.3554  0.0905  0.3510
  395THF     H6 5128   2.710   5.341   3.039 -1.1016 -0.4742  1.8572
  395THF     H7 5129   2.665   5.465   3.156 -0.3147  0.5726 -1.2898
  395THF     C8 5130   2.840   5.513   3.037  0.2778  0.4255 -0.3531
  395THF     C9 5131   2.975   5.453   3.051  0.2033  0.3599 -0.5567
  395THF    H10 5132   2.831   5.612   3.082  0.4289  0.6000 -0.6985
  395THF    H11 5133   2.817   5.516   2.930  2.3828 -0.5421 -0.8948
  395THF    H12 5134   3.000   5.373   2.982 -0.7750 -0.4092 -0.0404
  395THF    H13 5135   3.052   5.529   3.033  0.5160  0.4692  1.0313
  396THF     O1 5136   3.858   1.274   0.606  0.2833 -0.0393  0.1009
  396THF     C2 5137   3.872   1.136   0.611  1.0072  0.0394  0.0602
  396THF     C3 5138   3.813   1.315   0.728  0.2894  0.0367  0.5645
  396THF     H4 5139   3.942   1.097   0.537  0.4544 -1.1100  0.1235
  396THF     H5 5140   3.773   1.092   0.603  0.6508  0.8364  0.0303
  396THF     H6 5141   3.822   1.421   0.753 -1.2018  0.1764  0.6027
  396THF     H7 5142   3.713   1.281   0.754  0.9684 -1.0164  1.9508
  396THF     C8 5143   3.900   1.232   0.828 -0.2410  0.3869  0.2119
  396THF     C9 5144   3.925   1.100   0.753 -0.1703  0.0390 -0.4909
  396THF    H10 5145   3.851   1.225   0.925 -1.4892 -0.2408 -0.4395
  396THF    H11 5146   4.000   1.274   0.834 -0.2640  0.7728 -1.5708
  396THF    H12 5147   4.030   1.078   0.733  0.2306  1.2272  0.2072
  396THF    H13 5148   3.876   1.018   0.805 -1.6369  1.0798 -0.1526
  397THF     O1 5149   1.106   2.968   3.933  0.0870  0.0296  0.1858
  397THF     C2 5150   0.964   2.978   3.918 -0.2353 -0.5570 -0.7208
  397THF     C3 5151   1.158   3.099   3.914  0.2685 -0.8585 -0.3244
  397THF     H4 5152   0.905   2.889   3.942  0.6364 -0.7393  0.8927
  397THF     H5 5153   0.935   2.987   3.813 -2.0058 -0.1852 -0.2271
  397THF     H6 5154   1.241   3.125   3.979 -0.5806  0.7852  0.1681
  397THF     H7 5155   1.172   3.111   3.806 -1.0963  2.3010 -0.2800
  397THF     C8 5156   1.042   3.194   3.951  0.1123  0.7764 -0.5487
  397THF     C9 5157   0.936   3.100   4.002 -0.1121  0.8123 -0.5503
  397THF    H10 5158   0.998   3.235   3.860  2.9729  0.5636 -2.1609
  397THF    H11 5159   1.068   3.268   4.027  1.4626 -2.1559  2.0613
  397THF    H12 5160   0.943   3.085   4.110 -0.5695 -3.2311 -0.9370
  397THF    H13 5161   0.835   3.128   3.971 -0.2371  0.1043 -0.8099
  398THF     O1 5162   2.405   2.178   3.074 -0.0646 -0.2100  0.6184
  398THF     C2 5163   2.318   2.197   2.959  0.4613 -0.3922 -0.7445
  398THF     C3 5164   2.424   2.040   3.090 -0.5547  0.5633 -0.0703
  398THF     H4 5165   2.316   2.304   2.942 -0.2708 -0.2618  0.0557
  398THF     H5 5166   2.218   2.160   2.983 -0.2655  0.6061 -2.0978
  398THF     H6 5167   2.504   2.025   3.163 -1.5104  1.6755  1.2404
  398THF     H7 5168   2.337   1.991   3.133  0.4032 -1.4349 -0.2569
  398THF     C8 5169   2.454   2.001   2.948 -0.2246  0.3357  0.0152
  398THF     C9 5170   2.395   2.113   2.862  0.5732 -0.4766  0.3795
  398THF    H10 5171   2.393   1.911   2.940 -0.3722  0.4605 -0.2825
  398THF    H11 5172   2.556   1.970   2.926 -0.9785 -0.8385 -2.0851
  398THF    H12 5173   2.483   2.165   2.825  2.6841 -4.0694 -0.2024
  398THF    H13 5174   2.336   2.084   2.775  0.6398  0.2319  0.0947
  399THF     O1 5175   3.309   0.358   1.950  0.4452  0.1196  0.3410
  399THF     C2 5176   3.429   0.314   2.007  0.1572  0.0591  0.3378
  399THF     C3 5177   3.339   0.488   1.893 -0.0808  0.4751  0.3530
  399THF     H4 5178   3.497   0.280   1.929  1.6388  3.2894  0.0351
  399THF     H5 5179   3.408   0.231   2.075  0.6427 -0.7734 -0.5078
  399THF     H6 5180   3.403   0.468   1.807  1.0806 -0.5014  1.4084
  399THF     H7 5181   3.260   0.556   1.860 -0.4841 -0.2052 -0.1225
  399THF     C8 5182   3.416   0.557   2.003 -0.5711  0.4034 -0.2991
  399THF     C9 5183   3.468   0.437   2.084  0.5088 -0.2304  0.2616
  399THF    H10 5184   3.345   0.610   2.067  1.6762  2.2164  0.8375
  399THF    H11 5185   3.505   0.615   1.978  0.3495 -0.6303  0.4818
  399THF    H12 5186   3.577   0.431   2.084  0.4882 -0.6970  1.0721
  399THF    H13 5187   3.436   0.443   2.188 -1.9436 -1.2400 -0.3620
  400THF     O1 5188   3.174   4.649   2.397  0.2785 -0.2226  0.2073
  400THF     C2 5189   3.106   4.734   2.295 -0.1022 -0.1229 -0.7025
  400THF     C3 5190   3.153   4.515   2.361  0.2879 -0.4510 -0.5476
  400THF     H4 5191   3.175   4.766   2.217  2.0652  1.2283  1.5980
  400THF     H5 5192   3.067   4.825   2.340  3.5256  0.8323  0.8861
  400THF     H6 5193   3.254   4.475   2.346 -0.9769 -3.4330 -1.9961
  400THF     H7 5194   3.119   4.471   2.455  1.1097 -0.8441 -0.4230
  400THF     C8 5195   3.063   4.504   2.242 -0.2506 -0.6108  0.5965
  400THF     C9 5196   3.004   4.647   2.234 -1.2835  0.4641 -0.6138
  400THF    H10 5197   2.987   4.427   2.256 -0.6452 -0.5881 -1.1738
  400THF    H11 5198   3.117   4.486   2.149  0.2855 -0.8518  0.9559
  400THF    H12 5199   2.987   4.673   2.130  1.7578 -1.7686 -1.7772
  400THF    H13 5200   2.913   4.656   2.295 -1.0071 -0.9354  0.0306
  401THF     O1 5201   2.117   0.716   5.254  0.0654 -0.3134 -0.5002
  401THF     C2 5202   2.253   0.676   5.238  0.0085 -0.1772 -0.2710
  401THF     C3 5203   2.048   0.698   5.130  0.0208  0.2019 -0.6551
  401THF     H4 5204   2.307   0.656   5.331 -0.2475 -0.1511 -0.1131
  401THF     H5 5205   2.308   0.758   5.194  1.8210 -0.2050  1.7730
  401THF     H6 5206   1.942   0.706   5.157  0.5283 -0.5691  1.7685
  401THF     H7 5207   2.074   0.764   5.047 -0.4003  0.1997 -0.7964
  401THF     C8 5208   2.095   0.555   5.093  0.8276  0.5794 -0.2604
  401THF     C9 5209   2.238   0.556   5.150 -0.6067  0.4818 -0.0685
  401THF    H10 5210   2.068   0.528   4.991 -3.0738 -0.1877  0.7942
  401THF    H11 5211   2.034   0.489   5.154 -0.5533  1.1959 -0.9347
  401THF    H12 5212   2.246   0.465   5.210 -0.3781  1.7609  1.9553
  401THF    H13 5213   2.323   0.556   5.081 -0.3748  0.7497  0.2171
  402THF     O1 5214   2.868   1.965   2.749 -0.3130  0.3475 -0.2113
  402THF     C2 5215   2.931   1.991   2.624  0.0369 -0.0861 -0.1226
  402THF     C3 5216   2.921   1.845   2.801 -0.9128 -0.0273 -0.4076
  402THF     H4 5217   2.908   2.092   2.590 -0.6553  0.0260  0.6395
  402THF     H5 5218   2.896   1.922   2.547  1.4215 -0.5731 -0.3351
  402THF     H6 5219   2.921   1.857   2.909 -0.5848  2.2053 -0.6242
  402THF     H7 5220   2.868   1.753   2.775 -1.5118 -0.3709  1.7862
  402THF     C8 5221   3.063   1.833   2.740 -0.2378 -0.4912 -0.7523
  402THF     C9 5222   3.076   1.952   2.648  0.1577  0.0301 -0.2271
  402THF    H10 5223   3.093   1.741   2.690 -0.2311 -0.3186 -1.0758
  402THF    H11 5224   3.127   1.838   2.828 -1.7195 -3.8073  0.6694
  402THF    H12 5225   3.127   2.038   2.691 -1.4348  0.8456  0.0911
  402THF    H13 5226   3.122   1.916   2.556  0.6483 -2.0642  0.7750
  403THF     O1 5227   3.141   2.350   5.422  0.2776  0.3973 -0.2961
  403THF     C2 5228   3.245   2.267   5.455  0.6983  0.3812 -0.5239
  403THF     C3 5229   3.029   2.273   5.373  0.4024  0.5761 -0.4239
  403THF     H4 5230   3.313   2.315   5.526 -2.2953 -0.8423  3.5036
  403THF     H5 5231   3.313   2.228   5.379  2.1765 -0.6428  1.2195
  403THF     H6 5232   2.937   2.332   5.369  0.5793  0.7940 -1.8226
  403THF     H7 5233   3.063   2.246   5.273  0.4081 -1.5830  0.1289
  403THF     C8 5234   3.040   2.138   5.457  0.3808  0.5081  0.1163
  403THF     C9 5235   3.171   2.150   5.528 -0.3868 -0.4132 -0.6269
  403THF    H10 5236   3.055   2.061   5.381 -1.6358  0.7761 -0.6062
  403THF    H11 5237   2.951   2.112   5.513 -0.2856 -1.6856 -1.8040
  403THF    H12 5238   3.159   2.192   5.628  1.2862  0.9582 -0.9525
  403THF    H13 5239   3.240   2.066   5.539 -0.2069 -0.4951 -2.1712
  404THF     O1 5240   1.936   5.012   3.631 -0.3512  0.3599  0.2239
  404THF     C2 5241   1.822   5.068   3.569  0.7568 -0.0519  0.3061
  404THF     C3 5242   2.037   5.095   3.603 -0.1437  0.3248 -0.4131
  404THF     H4 5243   1.794   5.155   3.629  0.1740  1.4215 -2.0091
  404THF     H5 5244   1.737   5.000   3.564  0.4902  0.2315  0.8448
  404THF     H6 5245   2.034   5.180   3.671 -0.2431 -0.4542  0.5835
  404THF     H7 5246   2.125   5.031   3.606  0.5753  0.9322 -3.8149
  404THF     C8 5247   2.016   5.128   3.457  0.1963 -0.2289  0.2891
  404THF     C9 5248   1.862   5.107   3.431 -0.0204 -0.0104  0.2219
  404THF    H10 5249   2.070   5.065   3.386  0.3218  0.3765 -0.1562
  404THF    H11 5250   2.046   5.230   3.436  2.9330 -1.1192 -0.5399
  404THF    H12 5251   1.807   5.190   3.387  0.1187 -0.6650 -1.2481
  404THF    H13 5252   1.838   5.017   3.373 -0.1157  0.8265 -1.0816
  405THF     O1 5253   4.709   0.498   0.505  0.5348 -0.0192  0.0765
  405THF     C2 5254   4.829   0.416   0.520  0.4967  0.7739  0.4653
  405THF     C3 5255   4.589   0.424   0.505  0.4568 -0.8589 -0.3078
  405THF     H4 5256   4.850   0.407   0.626  0.7543 -0.1165  0.3383
  405THF     H5 5257   4.917   0.459   0.473  1.0015  0.9139  1.5159
  405THF     H6 5258   4.532   0.443   0.596  1.5347 -1.1253  0.4340
  405THF     H7 5259   4.525   0.454   0.422  1.2646 -1.2743 -1.1012
  405THF     C8 5260   4.642   0.277   0.495  0.1817 -0.0931 -0.8294
  405THF     C9 5261   4.786   0.284   0.447 -0.0558 -0.3298 -0.0202
  405THF    H10 5262   4.585   0.220   0.422  1.5377  0.0578 -2.0341
  405THF    H11 5263   4.628   0.224   0.589 -2.5423  0.6968 -0.7221
  405THF    H12 5264   4.842   0.197   0.480 -0.3534 -1.3893 -2.1519
  405THF    H13 5265   4.790   0.284   0.338 -1.3631 -1.9071 -0.1133
  406THF     O1 5266   3.600   0.317   2.835 -0.3065  0.5476  0.4565
  406THF     C2 5267   3.663   0.442   2.856 -0.1522  0.0932  1.0654
  406THF     C3 5268   3.692   0.235   2.759  0.3030  0.0750 -0.1121
  406THF     H4 5269   3.749   0.438   2.923  1.4681  2.7657 -0.6578
  406THF     H5 5270   3.592   0.516   2.892 -0.9384 -0.9496  1.7053
  406THF     H6 5271   3.757   0.175   2.822 -0.7191 -0.4926  0.4398
  406THF     H7 5272   3.633   0.158   2.709  1.0309  0.7918 -2.1648
  406THF     C8 5273   3.770   0.331   2.672  0.0650 -0.1787 -0.4648
  406THF     C9 5274   3.722   0.469   2.716 -0.0361  0.4124 -0.6301
  406THF    H10 5275   3.737   0.326   2.568 -3.5729  0.0220  0.5744
  406THF    H11 5276   3.876   0.304   2.684 -0.0446  0.1312  1.6097
  406THF    H12 5277   3.798   0.547   2.716 -1.1295  1.5562  1.5074
  406THF    H13 5278   3.644   0.510   2.651 -0.1667  0.9604 -0.1386
  407THF     O1 5279   4.306   4.837   0.649 -0.1971 -0.2374  0.0715
  407THF     C2 5280   4.407   4.741   0.611  0.6533 -0.2152  0.3108
  407THF     C3 5281   4.272   4.918   0.537  0.0876  0.1524  0.1921
  407THF     H4 5282   4.354   4.650   0.581  2.1397 -2.1403  3.0316
  407THF     H5 5283   4.467   4.726   0.701  2.6349 -0.7147 -1.0318
  407THF     H6 5284   4.221   4.860   0.461  1.1618  0.7090 -0.9869
  407THF     H7 5285   4.226   5.013   0.564  0.9146  0.8147 -0.6591
  407THF     C8 5286   4.407   4.935   0.476  0.2405  0.2304 -0.0478
  407THF     C9 5287   4.485   4.807   0.493 -0.3104 -0.2398 -0.4617
  407THF    H10 5288   4.457   5.014   0.532 -0.7658  0.5343  0.4504
  407THF    H11 5289   4.393   4.963   0.371 -0.1038 -0.9066 -0.3214
  407THF    H12 5290   4.489   4.742   0.405 -2.2170 -1.1391  0.0641
  407THF    H13 5291   4.584   4.831   0.529 -0.7421  2.3685 -0.8413
  408THF     O1 5292   0.742   0.590   3.332 -0.1208  0.1085 -0.2199
  408THF     C2 5293   0.612   0.627   3.329  0.6488  0.1115 -1.6012
  408THF     C3 5294   0.766   0.468   3.389  0.2622 -0.1361 -0.5722
  408THF     H4 5295   0.591   0.678   3.234 -1.1480  0.8441 -0.8678
  408THF     H5 5296   0.592   0.703   3.405 -0.3933  0.5815 -2.3087
  408THF     H6 5297   0.865   0.437   3.358  1.1377  0.7783  1.1366
  408THF     H7 5298   0.757   0.473   3.498  4.3890 -0.0356 -0.0923
  408THF     C8 5299   0.645   0.388   3.336 -0.5491  0.0604  0.1525
  408THF     C9 5300   0.541   0.496   3.342  0.5774  0.2110 -0.4895
  408THF    H10 5301   0.630   0.311   3.412  2.0659  1.1737  1.9570
  408THF    H11 5302   0.669   0.335   3.243  1.9370 -0.8909  1.2268
  408THF    H12 5303   0.470   0.491   3.259  0.3901 -0.3384 -0.2972
  408THF    H13 5304   0.479   0.499   3.432 -0.4160 -1.4163 -1.0633
  409THF     O1 5305   3.554   2.268   4.125 -0.2070 -0.3629 -0.1035
  409THF     C2 5306   3.474   2.319   4.229 -0.0700  0.3376  0.1476
  409THF     C3 5307   3.646   2.367   4.091 -0.3562 -0.0798 -0.3243
  409THF     H4 5308   3.519   2.290   4.324  1.4048  2.4413  0.1554
  409THF     H5 5309   3.373   2.277   4.224  0.3277 -0.4988 -1.9508
  409THF     H6 5310   3.718   2.371   4.172 -0.7777  1.4045  0.0048
  409THF     H7 5311   3.693   2.334   3.998 -1.5333  1.0559 -1.3568
  409THF     C8 5312   3.569   2.500   4.103  0.5528  0.0356 -0.0773
  409THF     C9 5313   3.457   2.469   4.202  0.3068 -0.2642  0.7923
  409THF    H10 5314   3.512   2.532   4.016  0.8656  2.1443  0.4419
  409THF    H11 5315   3.638   2.574   4.143  1.2031  0.2263 -1.4666
  409THF    H12 5316   3.474   2.525   4.294  0.6462 -2.9204  2.4850
  409THF    H13 5317   3.359   2.494   4.163 -0.0799  0.8612  2.3705
  410THF     O1 5318   4.875   3.769   1.247  0.5018 -0.1783  0.0413
  410THF     C2 5319   4.746   3.764   1.191 -0.3703 -0.5124  0.5403
  410THF     C3 5320   4.924   3.638   1.265 -0.0568  0.5288 -0.1539
  410THF     H4 5321   4.735   3.854   1.130 -0.9885  0.5263  2.0985
  410THF     H5 5322   4.667   3.767   1.266 -0.8264  1.1006  0.0402
  410THF     H6 5323   5.019   3.635   1.211  0.6016 -1.0741  1.0316
  410THF     H7 5324   4.954   3.616   1.368  0.0014 -0.4434 -0.3688
  410THF     C8 5325   4.831   3.541   1.195  0.5137 -0.3122 -0.1803
  410THF     C9 5326   4.747   3.631   1.110 -0.1690 -0.7891  0.2420
  410THF    H10 5327   4.772   3.489   1.271  0.5727 -1.9383 -1.1822
  410THF    H11 5328   4.880   3.466   1.132  0.7809 -1.1869  1.0186
  410THF    H12 5329   4.798   3.647   1.015  1.2760 -2.7593  0.6340
  410THF    H13 5330   4.648   3.592   1.084 -0.8069  0.8906  0.0207
  411THF     O1 5331   2.578   3.378   4.144 -0.2167  0.5982 -0.3806
  411THF     C2 5332   2.628   3.457   4.037  0.8325  0.4050 -0.0747
  411THF     C3 5333   2.645   3.256   4.137 -0.2095 -0.5909 -0.7991
  411THF     H4 5334   2.716   3.509   4.074 -0.3571  0.1548  3.4683
  411THF     H5 5335   2.556   3.533   4.006  0.5875  0.5204  0.7451
  411THF     H6 5336   2.734   3.255   4.199 -0.7516 -3.0498  0.0802
  411THF     H7 5337   2.578   3.186   4.188 -0.5468  1.2982  1.4676
  411THF     C8 5338   2.683   3.240   3.996 -0.5019  0.2041 -0.0153
  411THF     C9 5339   2.641   3.361   3.926 -0.2389  0.1518  0.2695
  411THF    H10 5340   2.656   3.145   3.952 -1.0143  0.3803 -0.0831
  411THF    H11 5341   2.790   3.259   4.006 -0.8179  1.4168  1.7441
  411THF    H12 5342   2.713   3.393   3.850  0.8097 -0.4222  0.9849
  411THF    H13 5343   2.545   3.358   3.874 -0.0585  2.6028 -0.3410
  412THF     O1 5344   2.319   0.562   2.775 -0.4392  0.3460  0.5975
  412THF     C2 5345   2.251   0.629   2.674  0.0059 -1.0137 -0.1056
  412THF     C3 5346   2.363   0.654   2.875 -0.0477  0.0436  0.6693
  412THF     H4 5347   2.153   0.643   2.718 -0.0664  0.1134 -0.5899
  412THF     H5 5348   2.234   0.571   2.583  0.1386  2.1226 -2.2942
  412THF     H6 5349   2.284   0.678   2.946 -2.0800 -2.0082 -0.7515
  412THF     H7 5350   2.439   0.606   2.936 -0.8564 -2.3032 -0.0577
  412THF     C8 5351   2.404   0.773   2.791 -0.2250  0.1532 -0.3481
  412THF     C9 5352   2.318   0.765   2.667 -0.6963  0.4217  0.2955
  412THF    H10 5353   2.508   0.745   2.771  0.5878  2.1738  0.7453
  412THF    H11 5354   2.409   0.871   2.839  0.4098 -0.2999  0.5514
  412THF    H12 5355   2.247   0.848   2.665 -1.2462 -0.0518  0.2322
  412THF    H13 5356   2.382   0.768   2.579 -1.9559  2.0835 -0.6325
  413THF     O1 5357   0.572   2.922   1.598  0.0471 -0.1428 -0.1249
  413THF     C2 5358   0.675   2.956   1.502  0.0131  0.0483 -0.0061
  413THF     C3 5359   0.509   3.037   1.647 -0.3495  0.9083 -0.1511
  413THF     H4 5360   0.651   2.918   1.402  2.6398  2.7553 -1.8378
  413THF     H5 5361   0.778   2.932   1.527  0.1951 -0.3397 -1.0640
  413THF     H6 5362   0.414   3.038   1.593 -0.3642 -1.2603 -0.2577
  413THF     H7 5363   0.481   3.036   1.753 -0.4937 -0.9437 -0.1740
  413THF     C8 5364   0.598   3.151   1.616 -0.5357  0.4121 -0.1237
  413THF     C9 5365   0.669   3.107   1.491  0.2550  0.4507 -0.0696
  413THF    H10 5366   0.665   3.157   1.702  0.9857 -2.0990 -1.0139
  413THF    H11 5367   0.538   3.242   1.618 -1.3845 -0.1288  2.8210
  413THF    H12 5368   0.606   3.137   1.407  0.6605  2.2890  0.2332
  413THF    H13 5369   0.760   3.158   1.457  0.2114 -0.5245 -1.7860
  414THF     O1 5370   0.123   4.707   2.704  0.6395 -0.1852 -0.4822
  414THF     C2 5371   0.153   4.709   2.840  0.4772 -0.3155 -0.4512
  414THF     C3 5372   0.235   4.760   2.633 -0.0822  0.2919  0.2838
  414THF     H4 5373   0.099   4.633   2.896  1.6738 -0.3632  0.7076
  414THF     H5 5374   0.145   4.809   2.883 -0.7188  0.6391 -2.7542
  414THF     H6 5375   0.245   4.730   2.529 -0.5040 -1.2378  0.6525
  414THF     H7 5376   0.221   4.867   2.626 -0.6806  0.1150 -1.6103
  414THF     C8 5377   0.357   4.733   2.710 -0.0609  0.1445  0.3878
  414THF     C9 5378   0.298   4.679   2.839  0.2637  0.5206 -0.3347
  414THF    H10 5379   0.414   4.824   2.729 -1.0852  1.1311 -1.1006
  414THF    H11 5380   0.418   4.659   2.658  0.5036  0.7903  0.1201
  414THF    H12 5381   0.306   4.571   2.845  0.0133  0.5480  0.6297
  414THF    H13 5382   0.354   4.720   2.924 -1.0596  0.7144  0.4695
  415THF     O1 5383   1.474   3.803   0.442  0.2559 -0.9981  0.4773
  415THF     C2 5384   1.395   3.916   0.473 -0.0399 -0.5982 -0.2024
  415THF     C3 5385   1.400   3.725   0.350 -0.4810  0.2051  0.4964
  415THF     H4 5386   1.432   4.015   0.446 -0.4996 -0.2310  0.4876
  415THF     H5 5387   1.407   3.914   0.581 -0.0477 -0.2719 -0.1939
  415THF     H6 5388   1.414   3.766   0.250 -4.4788 -0.3582 -0.4706
  415THF     H7 5389   1.426   3.619   0.356 -0.4437  0.2317  0.7979
  415THF     C8 5390   1.252   3.747   0.370  0.4442 -0.4263  0.4746
  415THF     C9 5391   1.250   3.887   0.429 -0.8754  0.1169  0.3137
  415THF    H10 5392   1.200   3.681   0.439 -0.9880  0.9549  0.7682
  415THF    H11 5393   1.208   3.749   0.270  2.0871 -0.3019 -0.2763
  415THF    H12 5394   1.219   3.957   0.351  1.1819  0.0481 -0.6306
  415THF    H13 5395   1.178   3.909   0.508 -0.9228  2.5465 -0.3206
  416THF     O1 5396   0.486   4.258   1.204 -0.4165  0.4981 -0.1336
  416THF     C2 5397   0.434   4.271   1.330  0.0203 -0.1331  0.2538
  416THF     C3 5398   0.561   4.136   1.211 -0.0451  0.4994  0.1832
  416THF     H4 5399   0.351   4.201   1.341 -0.6492  0.3762 -1.2331
  416THF     H5 5400   0.404   4.373   1.353 -0.5532 -0.2618  0.0959
  416THF     H6 5401   0.498   4.048   1.200  3.1312 -2.1433  1.5814
  416THF     H7 5402   0.625   4.120   1.125 -1.0397  0.3676 -0.5430
  416THF     C8 5403   0.627   4.137   1.354  0.0128  0.9538  0.1853
  416THF     C9 5404   0.543   4.238   1.425 -0.3562  0.1580 -0.4655
  416THF    H10 5405   0.733   4.161   1.345  0.9875 -3.0778 -1.5426
  416THF    H11 5406   0.626   4.036   1.396  2.2447  0.9035  0.2688
  416THF    H12 5407   0.520   4.211   1.528  0.5380  0.5986 -0.1332
  416THF    H13 5408   0.596   4.332   1.445  1.6334 -0.7954 -0.9784
  417THF     O1 5409   3.247   3.762   2.597  0.1572  0.4934 -0.1629
  417THF     C2 5410   3.340   3.671   2.664 -0.2536  0.0402  0.2429
  417THF     C3 5411   3.164   3.683   2.518  0.3127 -0.0874 -0.6847
  417THF     H4 5412   3.387   3.715   2.752  2.3341 -1.2013 -0.4179
  417THF     H5 5413   3.418   3.641   2.594 -0.9830  1.2610 -1.1440
  417THF     H6 5414   3.082   3.751   2.497  0.2962 -0.1399 -0.7882
  417THF     H7 5415   3.207   3.659   2.421  1.4735  0.2566 -0.2770
  417THF     C8 5416   3.116   3.578   2.622 -0.2465  0.0942 -0.1396
  417THF     C9 5417   3.248   3.556   2.698 -0.1808 -0.1816  0.5556
  417THF    H10 5418   3.081   3.494   2.561  0.5388 -0.2107 -0.1776
  417THF    H11 5419   3.046   3.631   2.686 -1.8745 -0.2993 -1.5182
  417THF    H12 5420   3.229   3.562   2.805  3.3964  2.8632  1.2530
  417THF    H13 5421   3.293   3.458   2.681  0.6846  0.1796  0.6936
  418THF     O1 5422   2.177   3.376   4.369 -0.1001  0.5074 -0.5710
  418THF     C2 5423   2.095   3.283   4.294 -0.0566  0.1871  0.2029
  418THF     C3 5424   2.260   3.434   4.266 -0.2469 -0.2587  0.4121
  418THF     H4 5425   2.013   3.240   4.353 -1.1008 -0.3582 -1.5751
  418THF     H5 5426   2.156   3.201   4.257 -0.1695  0.0444  0.3303
  418THF     H6 5427   2.286   3.537   4.290  1.2010 -0.1266 -1.4919
  418THF     H7 5428   2.353   3.377   4.275  0.2399  0.6864  1.6140
  418THF     C8 5429   2.187   3.432   4.133 -0.3074  0.4804  0.0493
  418THF     C9 5430   2.053   3.362   4.172 -0.1726 -0.0987  0.0148
  418THF    H10 5431   2.245   3.365   4.070  0.1108  0.0440  0.8814
  418THF    H11 5432   2.165   3.530   4.092  1.4478  1.5949  1.6487
  418THF    H12 5433   1.969   3.427   4.196 -0.8049 -0.0247 -2.1696
  418THF    H13 5434   2.018   3.290   4.098  0.2010  1.9977 -2.3316
  419THF     O1 5435   3.325   3.704   0.387  0.4075  0.1325 -0.7459
  419THF     C2 5436   3.246   3.683   0.502  0.3053  0.0244  0.2540
  419THF     C3 5437   3.443   3.768   0.432 -0.3841 -0.1678  0.1945
  419THF     H4 5438   3.182   3.594   0.500  1.6145 -1.0387  2.2283
  419THF     H5 5439   3.182   3.768   0.527 -0.6595 -0.8451  0.8256
  419THF     H6 5440   3.523   3.764   0.359  1.8859  0.1892  2.5442
  419THF     H7 5441   3.422   3.874   0.449  2.3505  0.5694 -0.5086
  419THF     C8 5442   3.476   3.683   0.556 -0.6949 -0.0548  0.4816
  419THF     C9 5443   3.341   3.658   0.615  0.4881  0.5346  0.6052
  419THF    H10 5444   3.541   3.738   0.624 -0.0059 -0.4642  0.1625
  419THF    H11 5445   3.520   3.591   0.518  1.6776  0.7766  1.0438
  419THF    H12 5446   3.341   3.552   0.641  1.0070 -0.0245 -1.5454
  419THF    H13 5447   3.316   3.719   0.702 -2.6534  0.0049  0.2028
  420THF     O1 5448   1.950   3.826   1.962 -0.2330  0.0296 -0.2954
  420THF     C2 5449   1.885   3.905   2.059 -0.2126  1.0719  0.5968
  420THF     C3 5450   1.987   3.709   2.029 -0.7201 -1.2269  0.0612
  420THF     H4 5451   1.804   3.963   2.012 -0.4153 -0.6768 -1.3800
  420THF     H5 5452   1.960   3.959   2.116  0.3771  0.5870  0.2821
  420THF     H6 5453   2.028   3.638   1.958  1.2519  0.7648 -0.9201
  420THF     H7 5454   2.081   3.734   2.079  0.1229 -1.7353 -1.2135
  420THF     C8 5455   1.873   3.672   2.114  0.4919  0.4708 -0.2929
  420THF     C9 5456   1.821   3.805   2.155  0.5589 -0.2898 -0.1176
  420THF    H10 5457   1.896   3.612   2.201 -1.3189  1.5285  0.9820
  420THF    H11 5458   1.803   3.613   2.055 -0.6275  1.1621  0.2948
  420THF    H12 5459   1.712   3.802   2.147  0.4436  0.7376  0.7475
  420THF    H13 5460   1.849   3.830   2.257  0.9055 -3.5408  0.7035
  421THF     O1 5461   3.565   4.989   0.446  0.4951 -0.5401  0.1896
  421THF     C2 5462   3.602   5.028   0.312  0.3012 -0.0410  0.4128
  421THF     C3 5463   3.682   4.955   0.513  0.1489 -0.1762 -0.4169
  421THF     H4 5464   3.641   5.129   0.310  0.5153 -0.1196  0.5390
  421THF     H5 5465   3.522   5.020   0.238  0.7348  0.3378 -0.1048
  421THF     H6 5466   3.745   5.044   0.517  0.1178 -0.1139 -1.1897
  421THF     H7 5467   3.673   4.911   0.613 -1.0760  0.5291 -0.1931
  421THF     C8 5468   3.753   4.872   0.411 -0.0838 -0.1088  0.5500
  421THF     C9 5469   3.703   4.922   0.272  0.0776 -0.6047  0.1027
  421THF    H10 5470   3.719   4.769   0.424 -0.6382  0.2780  2.4010
  421THF    H11 5471   3.862   4.868   0.412 -0.0832 -0.3377  0.1183
  421THF    H12 5472   3.795   4.955   0.223  1.0021  1.5918  3.0378
  421THF    H13 5473   3.665   4.836   0.218  0.9469 -1.6473  1.0917
  422THF     O1 5474   3.724   2.764   0.578 -0.2315 -0.1208  0.3404
  422THF     C2 5475   3.614   2.835   0.527 -0.4023 -0.6725  0.1135
  422THF     C3 5476   3.701   2.626   0.600  1.0009  0.5978 -0.0731
  422THF     H4 5477   3.637   2.924   0.469  0.5480 -1.5650 -0.9140
  422THF     H5 5478   3.540   2.859   0.604 -0.8702 -0.7722 -0.3018
  422THF     H6 5479   3.782   2.560   0.569 -1.9252 -2.7664 -1.1973
  422THF     H7 5480   3.692   2.604   0.707 -1.1773  1.7299  0.0400
  422THF     C8 5481   3.563   2.601   0.536  0.6310  0.4195 -0.0513
  422THF     C9 5482   3.549   2.724   0.447  1.0983 -0.2565 -0.9257
  422THF    H10 5483   3.483   2.593   0.610 -2.4817 -3.8946 -3.3497
  422THF    H11 5484   3.554   2.511   0.474  0.5150  0.1715  0.3218
  422THF    H12 5485   3.616   2.694   0.366  0.9498  0.4718 -1.3234
  422THF    H13 5486   3.447   2.741   0.414  0.4178 -0.6284  0.8875
  423THF     O1 5487   0.104   1.507   4.126  0.0847 -0.0151  0.3702
  423THF     C2 5488   0.109   1.399   4.221  0.2454  0.2076 -0.2624
  423THF     C3 5489  -0.024   1.509   4.069  0.0453 -0.0311  0.0264
  423THF     H4 5490   0.170   1.434   4.305 -2.1521 -2.2312  2.7365
  423THF     H5 5491   0.134   1.304   4.174 -3.2374 -0.6071 -0.7085
  423THF     H6 5492  -0.055   1.607   4.034 -1.1886 -0.7071 -0.8339
  423THF     H7 5493  -0.022   1.441   3.984  2.0223  0.0401 -0.0223
  423THF     C8 5494  -0.117   1.461   4.182  0.4267  0.4986  0.5385
  423THF     C9 5495  -0.029   1.397   4.288  0.3599  0.3652  0.3187
  423THF    H10 5496  -0.184   1.392   4.131  0.7816  0.6234 -0.1034
  423THF    H11 5497  -0.177   1.542   4.223  1.8994  1.3479  1.0729
  423THF    H12 5498  -0.030   1.461   4.376  1.8033  1.7342 -0.6119
  423THF    H13 5499  -0.061   1.295   4.312  0.0089  0.4875  0.3770
  424THF     O1 5500   2.345   0.274   3.948  0.6309  0.1368  0.8424
  424THF     C2 5501   2.240   0.209   4.029  0.3075  0.7718  0.7109
  424THF     C3 5502   2.280   0.339   3.834 -0.1685  0.3505  0.1102
  424THF     H4 5503   2.273   0.208   4.133  1.0951 -0.1303  0.4683
  424THF     H5 5504   2.239   0.105   3.995 -1.3543  0.9352  0.1300
  424THF     H6 5505   2.313   0.442   3.818 -0.0481  0.1928 -0.7168
  424THF     H7 5506   2.313   0.303   3.736  1.2792 -0.0570  0.7137
  424THF     C8 5507   2.130   0.327   3.857 -0.4444  0.3730 -0.4441
  424THF     C9 5508   2.107   0.284   4.001 -0.5443 -0.4258 -0.1630
  424THF    H10 5509   2.085   0.249   3.796  0.7697  1.4084 -2.8115
  424THF    H11 5510   2.077   0.419   3.830  1.7394  2.1598  0.9580
  424THF    H12 5511   2.093   0.372   4.064 -0.8376  0.3562 -1.2926
  424THF    H13 5512   2.016   0.228   4.022  1.4241 -2.6506  3.4787
  425THF     O1 5513   4.581   3.336   4.065  0.1398 -0.0047 -0.0103
  425THF     C2 5514   4.513   3.243   4.143 -0.4424  0.6610  0.8478
  425THF     C3 5515   4.674   3.399   4.158  1.1563 -0.4431  0.2416
  425THF     H4 5516   4.470   3.169   4.076  1.8612 -0.9010  0.9712
  425THF     H5 5517   4.442   3.285   4.214 -2.5672  1.1165 -1.4304
  425THF     H6 5518   4.747   3.470   4.121  2.7021 -2.1081 -0.0685
  425THF     H7 5519   4.624   3.451   4.240  0.4134  1.0626 -1.1218
  425THF     C8 5520   4.733   3.273   4.218  0.5258  0.1449  0.1854
  425THF     C9 5521   4.620   3.171   4.217 -0.3420 -0.3744  0.1923
  425THF    H10 5522   4.779   3.280   4.316  0.9840  0.1565 -0.0241
  425THF    H11 5523   4.811   3.242   4.148  1.3831 -2.8678  2.2682
  425THF    H12 5524   4.661   3.078   4.179  2.2855  1.0107 -0.6165
  425THF    H13 5525   4.591   3.150   4.320  3.2531 -0.6065  1.3034
  426THF     O1 5526   5.122   0.073   0.487  0.3221 -0.3698  0.1532
  426THF     C2 5527   5.164  -0.065   0.472 -0.5562 -0.1115 -0.2696
  426THF     C3 5528   5.129   0.126   0.349 -0.2207  0.4643 -0.0492
  426THF     H4 5529   5.163  -0.133   0.556 -2.3756 -0.8325 -0.8299
  426THF     H5 5530   5.272  -0.055   0.459 -0.3791 -0.2021  1.0783
  426THF     H6 5531   5.066   0.215   0.355  2.3647  2.5374 -1.1869
  426THF     H7 5532   5.233   0.145   0.320  0.1767 -1.0517  0.2841
  426THF     C8 5533   5.064   0.021   0.269 -0.1021 -0.0787 -0.1818
  426THF     C9 5534   5.090  -0.109   0.346 -0.2408  0.3009 -0.6386
  426THF    H10 5535   5.109   0.027   0.169 -1.5775  2.2088 -0.7880
  426THF    H11 5536   4.961   0.031   0.235  0.2467 -2.4098 -2.2086
  426THF    H12 5537   5.005  -0.171   0.373 -0.0903  0.6204  0.6128
  426THF    H13 5538   5.151  -0.178   0.287  0.8258 -0.4180  1.2277
  427THF     O1 5539   1.687   1.874   0.986  0.5725 -0.0022 -0.2041
  427THF     C2 5540   1.807   1.797   0.996  0.6176  0.2806  0.6060
  427THF     C3 5541   1.576   1.794   0.964  0.7751  0.4660 -0.1332
  427THF     H4 5542   1.848   1.803   1.097  1.1319 -1.7876  0.5695
  427THF     H5 5543   1.886   1.828   0.928  1.7450 -0.4443  1.5368
  427THF     H6 5544   1.534   1.762   1.059 -0.0163  1.2834 -0.1938
  427THF     H7 5545   1.492   1.843   0.913  0.3624 -1.5293 -1.4841
  427THF     C8 5546   1.623   1.661   0.903 -0.6807 -0.0931  0.6290
  427THF     C9 5547   1.757   1.645   0.973 -0.3260 -0.2223 -0.0935
  427THF    H10 5548   1.637   1.669   0.795 -1.0826  2.1684  0.6910
  427THF    H11 5549   1.565   1.572   0.928  1.8036 -2.4042 -1.2036
  427THF    H12 5550   1.742   1.601   1.072 -1.0599  2.2761  0.9724
  427THF    H13 5551   1.818   1.567   0.928 -2.5105 -3.3360  1.9301
  428THF     O1 5552   0.342   0.246   0.917 -0.1153 -0.4395  0.3617
  428THF     C2 5553   0.344   0.329   1.029 -0.7321  0.6210 -0.1215
  428THF     C3 5554   0.227   0.159   0.915  0.5897 -0.5993 -0.0012
  428THF     H4 5555   0.337   0.433   0.999 -0.5272  0.6995  0.0951
  428THF     H5 5556   0.440   0.333   1.081 -0.3406  1.3429 -0.8780
  428THF     H6 5557   0.138   0.197   0.867  0.4134  0.6798  1.2724
  428THF     H7 5558   0.256   0.057   0.890 -0.4869 -0.7423 -0.7159
  428THF     C8 5559   0.196   0.146   1.066 -0.8383  0.7764  0.3291
  428THF     C9 5560   0.229   0.288   1.111 -0.5835 -0.1858 -0.1628
  428THF    H10 5561   0.283   0.099   1.112 -0.3426 -0.8925 -2.0888
  428THF    H11 5562   0.101   0.102   1.094 -0.1946 -1.4976 -0.7761
  428THF    H12 5563   0.145   0.356   1.093 -0.1660  0.6416  0.9106
  428THF    H13 5564   0.260   0.281   1.215 -0.3323 -1.6312 -0.3198
  429THF     O1 5565   0.425   0.477   3.941 -0.0158  0.0897  0.2383
  429THF     C2 5566   0.447   0.597   3.864 -0.7993 -0.2389 -0.1989
  429THF     C3 5567   0.429   0.355   3.858  1.0155 -0.5470  0.2795
  429THF     H4 5568   0.471   0.685   3.924  0.1421 -0.3230 -0.4361
  429THF     H5 5569   0.357   0.631   3.814 -0.7865 -0.6581 -0.5159
  429THF     H6 5570   0.444   0.261   3.911  0.5170 -1.8981 -1.8373
  429THF     H7 5571   0.333   0.348   3.806  0.7405 -0.6363  0.8004
  429THF     C8 5572   0.534   0.398   3.749 -0.0831  0.1280 -0.5060
  429THF     C9 5573   0.546   0.552   3.757  0.4406 -0.6745  0.1539
  429THF    H10 5574   0.502   0.354   3.655 -1.5264 -0.5049  0.2427
  429THF    H11 5575   0.627   0.350   3.781 -0.4460 -0.6427 -0.6096
  429THF    H12 5576   0.644   0.574   3.798  0.6047 -2.0254  0.5493
  429THF    H13 5577   0.536   0.595   3.658  0.5280 -2.5397 -0.7043
  430THF     O1 5578   1.174   4.557   4.896 -0.0282 -0.4588 -0.0835
  430THF     C2 5579   1.084   4.444   4.892 -0.1277  0.1084  0.4328
  430THF     C3 5580   1.111   4.665   4.822  0.0110  0.3761 -0.5879
  430THF     H4 5581   1.010   4.442   4.972 -0.8973 -0.9056 -0.2795
  430THF     H5 5582   1.149   4.359   4.916 -2.7376 -1.6225  1.8518
  430THF     H6 5583   1.066   4.736   4.892  0.0511 -2.2939  2.3219
  430THF     H7 5584   1.193   4.717   4.773  0.6154  0.9830  1.0205
  430THF     C8 5585   1.006   4.606   4.736  0.9615 -0.2950 -0.2662
  430THF     C9 5586   1.021   4.454   4.745 -0.3469 -0.2995  0.1422
  430THF    H10 5587   0.985   4.653   4.640 -1.3766 -0.0331  0.3152
  430THF    H11 5588   0.910   4.634   4.779  0.6610  0.0717 -1.1391
  430THF    H12 5589   0.922   4.411   4.731 -0.2981 -0.0320 -1.1061
  430THF    H13 5590   1.086   4.409   4.670  1.6361  1.3757  0.7769
  431THF     O1 5591   3.572   5.499   2.518 -0.5719  0.4643  0.3785
  431THF     C2 5592   3.595   5.570   2.394 -0.4537  0.1270  0.6251
  431THF     C3 5593   3.447   5.435   2.497  0.2919  0.4659 -0.4720
  431THF     H4 5594   3.637   5.495   2.327  1.6569 -1.1503  3.2016
  431THF     H5 5595   3.670   5.648   2.403 -0.6842  0.6849 -1.6525
  431THF     H6 5596   3.461   5.349   2.432 -2.0639 -1.3809  1.2660
  431THF     H7 5597   3.412   5.404   2.596 -2.9391 -2.2500 -2.2513
  431THF     C8 5598   3.355   5.537   2.427  0.7227 -0.0922 -0.5568
  431THF     C9 5599   3.455   5.626   2.352  0.0428  0.2185  0.3687
  431THF    H10 5600   3.298   5.611   2.482  2.1458  1.2310 -0.7969
  431THF    H11 5601   3.291   5.489   2.353  1.4108 -0.4239 -0.9508
  431THF    H12 5602   3.441   5.609   2.245  1.3768 -3.6399  0.6490
  431THF    H13 5603   3.455   5.732   2.377  0.8205 -0.0265  1.4864
  432THF     O1 5604   3.498   0.023   2.964 -0.0841  0.5038  0.0249
  432THF     C2 5605   3.592  -0.040   3.053  0.1542  0.1381 -0.3693
  432THF     C3 5606   3.388  -0.068   2.933  0.0968 -0.8311  0.1777
  432THF     H4 5607   3.604   0.012   3.147  0.3606 -0.7760  0.1147
  432THF     H5 5608   3.693  -0.046   3.013  0.4800  0.2046  0.4423
  432THF     H6 5609   3.305  -0.040   2.998 -0.5781 -0.1035 -0.9779
  432THF     H7 5610   3.361  -0.060   2.828  2.4711 -2.2505 -0.6147
  432THF     C8 5611   3.443  -0.205   2.969  0.1275  0.9412  1.0521
  432THF     C9 5612   3.536  -0.173   3.086  0.1361  0.2353  0.5703
  432THF    H10 5613   3.489  -0.257   2.885 -1.3583 -0.8940  1.3090
  432THF    H11 5614   3.364  -0.274   2.997  0.2818 -0.2109 -1.1250
  432THF    H12 5615   3.484  -0.174   3.182 -1.6976  0.6350 -0.3707
  432THF    H13 5616   3.623  -0.238   3.091 -0.5621 -0.7904 -0.3091
  433THF     O1 5617   2.444   2.811   1.750  0.0959  0.0692  0.3456
  433THF     C2 5618   2.527   2.751   1.651 -0.0409  0.2121  0.6477
  433THF     C3 5619   2.529   2.861   1.851 -0.3184 -0.4094  0.0072
  433THF     H4 5620   2.475   2.733   1.557 -0.7620  2.1288  0.6368
  433THF     H5 5621   2.553   2.651   1.685  0.8048 -0.4938 -1.8533
  433THF     H6 5622   2.493   2.958   1.885  1.9004 -0.0153  1.4098
  433THF     H7 5623   2.515   2.785   1.927  0.2533  0.7697  1.3325
  433THF     C8 5624   2.666   2.887   1.780 -0.0263 -0.2433  0.6869
  433THF     C9 5625   2.651   2.834   1.642  0.0503 -0.5310 -0.5133
  433THF    H10 5626   2.743   2.833   1.836 -0.0746 -0.9443  0.0953
  433THF    H11 5627   2.695   2.992   1.779  0.6097 -0.3882 -1.9028
  433THF    H12 5628   2.638   2.920   1.575  0.3859 -0.0454  0.0350
  433THF    H13 5629   2.735   2.775   1.604  0.3054 -0.6256  0.1879
  434THF     O1 5630   2.034   2.535   4.316  0.0014 -0.2823  0.8125
  434THF     C2 5631   1.965   2.505   4.201  0.2708 -0.3504  0.6504
  434THF     C3 5632   2.176   2.523   4.290  0.8929  0.5517 -0.7037
  434THF     H4 5633   1.902   2.587   4.167 -0.3804 -1.2933 -0.5299
  434THF     H5 5634   1.887   2.430   4.217 -1.4943  1.7383  2.5863
  434THF     H6 5635   2.223   2.618   4.264  2.0520 -0.0028 -0.6483
  434THF     H7 5636   2.238   2.478   4.367  1.5659 -1.6407 -2.4102
  434THF     C8 5637   2.188   2.436   4.163  0.3021  0.7927 -0.3596
  434THF     C9 5638   2.058   2.459   4.086  0.2438  0.2828 -0.2041
  434THF    H10 5639   2.193   2.331   4.191 -0.7915  1.2103  1.5768
  434THF    H11 5640   2.279   2.458   4.106  1.0724 -0.8179  0.1836
  434THF    H12 5641   2.068   2.539   4.013  0.8220 -0.2627 -0.7442
  434THF    H13 5642   2.038   2.367   4.030  0.6359  0.3530 -0.4652
  435THF     O1 5643   0.352   2.892   1.935  0.3960 -0.6805 -0.4039
  435THF     C2 5644   0.339   2.883   2.075  0.4986 -0.0594 -0.3290
  435THF     C3 5645   0.238   2.820   1.881 -0.9110  0.5629  0.6010
  435THF     H4 5646   0.398   2.963   2.119  0.3304  1.2257 -2.3417
  435THF     H5 5647   0.383   2.791   2.115  0.7450  0.3727  0.3996
  435THF     H6 5648   0.233   2.849   1.776  2.1388 -0.5001  0.0569
  435THF     H7 5649   0.262   2.714   1.892 -1.6927 -0.0479 -2.6852
  435THF     C8 5650   0.125   2.860   1.974 -0.5140 -0.0811 -0.0756
  435THF     C9 5651   0.190   2.888   2.109 -0.5227 -0.4424  0.3198
  435THF    H10 5652   0.046   2.784   1.979  0.9223 -1.5650  1.3682
  435THF    H11 5653   0.069   2.948   1.943  0.1116 -0.1142 -1.3413
  435THF    H12 5654   0.168   2.992   2.132 -0.2595 -0.4318  0.5218
  435THF    H13 5655   0.158   2.809   2.177 -1.0854 -0.7962 -0.3333
  436THF     O1 5656   4.106   5.257   3.283  0.3355  0.5101  0.3906
  436THF     C2 5657   4.019   5.246   3.174 -0.2510 -1.2656  0.0511
  436THF     C3 5658   4.081   5.381   3.342  0.3818 -0.0108  0.7387
  436THF     H4 5659   3.919   5.212   3.201  0.4026 -1.5763  2.2788
  436THF     H5 5660   4.058   5.182   3.096 -1.0515 -0.5006 -1.0067
  436THF     H6 5661   4.014   5.377   3.428  0.9826  2.0910  1.3675
  436THF     H7 5662   4.178   5.421   3.372 -0.2729  0.7602  1.8839
  436THF     C8 5663   4.019   5.472   3.233  0.5542 -0.0295  0.2219
  436THF     C9 5664   4.007   5.385   3.108 -0.1647 -0.0501 -0.0907
  436THF    H10 5665   4.086   5.557   3.219 -2.8845  2.9221  0.0756
  436THF    H11 5666   3.918   5.510   3.250 -0.6528 -1.9638 -1.9984
  436THF    H12 5667   3.912   5.392   3.055 -0.7378 -1.6514  0.6582
  436THF    H13 5668   4.098   5.408   3.053 -0.3447 -0.5177 -0.6022
  437THF     O1 5669   5.333   2.996   1.644 -0.1774  0.4699  0.1512
  437THF     C2 5670   5.471   2.960   1.651  0.3572 -0.6727 -0.2594
  437THF     C3 5671   5.255   2.914   1.734 -0.2287  0.8747  0.1251
  437THF     H4 5672   5.505   2.984   1.752 -1.7334 -0.3037  0.4046
  437THF     H5 5673   5.533   3.009   1.575 -1.2816  2.6349  0.3585
  437THF     H6 5674   5.239   2.961   1.832  1.6000 -0.9978  1.3874
  437THF     H7 5675   5.157   2.898   1.689 -1.3001  0.3169  2.5062
  437THF     C8 5676   5.338   2.785   1.741 -0.2248  0.1193  0.0688
  437THF     C9 5677   5.449   2.814   1.638  0.0161  0.3253 -0.3338
  437THF    H10 5678   5.284   2.692   1.722  1.3525 -0.6379 -0.9824
  437THF    H11 5679   5.389   2.784   1.837 -0.5646  1.5686  0.2742
  437THF    H12 5680   5.536   2.753   1.664 -0.1377  0.0952 -0.3576
  437THF    H13 5681   5.422   2.792   1.535 -0.8369  1.2016 -0.3131
  438THF     O1 5682   0.216   4.473   3.622 -0.3425 -0.6477  0.6151
  438THF     C2 5683   0.123   4.379   3.582  0.3761  0.2696  0.8068
  438THF     C3 5684   0.171   4.600   3.581  0.5961  0.0832  0.2748
  438THF     H4 5685   0.053   4.365   3.664  0.9839 -0.2599  1.2460
  438THF     H5 5686   0.172   4.284   3.563  1.4002  0.9303  0.0335
  438THF     H6 5687   0.116   4.640   3.667  0.2699 -0.0473  0.1298
  438THF     H7 5688   0.256   4.666   3.566 -0.0278  0.3410 -2.6070
  438THF     C8 5689   0.094   4.571   3.448  0.1604  0.0061  0.0169
  438THF     C9 5690   0.055   4.427   3.448 -0.6335  0.1991  0.2185
  438THF    H10 5691   0.146   4.603   3.357 -1.5840  1.1102 -0.6506
  438THF    H11 5692   0.006   4.634   3.437  0.5088  0.1728 -2.3311
  438THF    H12 5693  -0.053   4.411   3.448 -0.6333 -0.3860 -2.9328
  438THF    H13 5694   0.092   4.378   3.358 -1.1863  0.2948 -0.0632
  439THF     O1 5695   1.714   2.594   0.317 -0.2223 -0.1853  0.0834
  439THF     C2 5696   1.604   2.594   0.403 -0.1000  0.2010  0.3601
  439THF     C3 5697   1.815   2.672   0.367 -0.4439  0.0180 -0.4241
  439THF     H4 5698   1.542   2.505   0.392  1.2494 -0.9654  1.6900
  439THF     H5 5699   1.538   2.680   0.396 -1.7222 -1.0260 -0.0371
  439THF     H6 5700   1.913   2.650   0.325 -1.1707 -2.4543 -0.9908
  439THF     H7 5701   1.789   2.778   0.365  0.2928  0.2352  0.6292
  439THF     C8 5702   1.809   2.636   0.516  0.2584 -0.2280 -0.0546
  439THF     C9 5703   1.663   2.592   0.541  0.2217  0.3688  0.5037
  439THF    H10 5704   1.836   2.708   0.593  3.1962 -0.9951 -0.2674
  439THF    H11 5705   1.869   2.546   0.533  0.8179 -0.0160 -0.8537
  439THF    H12 5706   1.655   2.488   0.575  0.1765 -0.2936 -1.3937
  439THF    H13 5707   1.599   2.646   0.611 -0.4328  0.5085 -0.1889
  440THF     O1 5708   5.471   5.352   0.323 -0.2340 -0.5776 -1.0005
  440THF     C2 5709   5.542   5.371   0.200  0.0374  0.1309 -0.5979
  440THF     C3 5710   5.433   5.214   0.320  0.2093  0.1042 -0.8544
  440THF     H4 5711   5.638   5.326   0.224 -0.5443 -0.1693  1.4013
  440THF     H5 5712   5.565   5.473   0.169 -0.7625  0.1676 -1.1048
  440THF     H6 5713   5.518   5.151   0.346 -0.4013 -0.5012 -0.2673
  440THF     H7 5714   5.357   5.217   0.399 -2.0671 -1.9658 -2.7969
  440THF     C8 5715   5.388   5.185   0.175  0.7250 -0.5299  0.5004
  440THF     C9 5716   5.458   5.294   0.100 -0.0576  0.5028  0.3957
  440THF    H10 5717   5.281   5.196   0.160  0.8636  1.1051  0.5530
  440THF    H11 5718   5.416   5.087   0.137  1.0972 -0.7734  1.3649
  440THF    H12 5719   5.528   5.252   0.027  0.5819  1.2358  0.5678
  440THF    H13 5720   5.384   5.358   0.052  0.0072  1.4043  1.4595
  441THF     O1 5721   1.437   2.565   2.646  0.0608  0.4063  0.1129
  441THF     C2 5722   1.392   2.447   2.710  0.5267  0.7378  0.0225
  441THF     C3 5723   1.576   2.543   2.609 -0.6275 -0.0294 -0.2453
  441THF     H4 5724   1.380   2.367   2.637  0.8962 -0.7371  1.5093
  441THF     H5 5725   1.294   2.466   2.753 -0.2579  0.5187 -1.5978
  441THF     H6 5726   1.597   2.493   2.514  0.3458  0.3136 -0.2139
  441THF     H7 5727   1.638   2.632   2.612 -0.9093  0.1538  0.3859
  441THF     C8 5728   1.631   2.456   2.717  0.3129 -0.0123  0.9818
  441THF     C9 5729   1.512   2.419   2.802 -0.1109  0.7392  0.6178
  441THF    H10 5730   1.707   2.505   2.778  1.1682  0.9828 -0.8179
  441THF    H11 5731   1.688   2.381   2.663  0.5469 -0.6373  2.0618
  441THF    H12 5732   1.513   2.313   2.829  0.8908  0.8765  1.1523
  441THF    H13 5733   1.507   2.482   2.891  1.5157 -0.1743  1.4143
  442THF     O1 5734   0.899   2.742   1.402  0.2767  0.2781  0.5201
  442THF     C2 5735   0.951   2.688   1.524  0.3509  0.4632  0.5537
  442THF     C3 5736   1.009   2.810   1.336 -0.1506 -1.0417  0.5186
  442THF     H4 5737   0.895   2.604   1.565  0.8546  0.1116  0.5422
  442THF     H5 5738   0.960   2.765   1.600  2.6538 -0.7589  1.6203
  442THF     H6 5739   0.980   2.828   1.233  1.6934 -0.8870 -0.0184
  442THF     H7 5740   1.031   2.907   1.378  0.3359 -1.2294  0.7039
  442THF     C8 5741   1.120   2.702   1.348  0.3447  0.3150  0.2222
  442THF     C9 5742   1.102   2.640   1.489  0.2389  0.0128  0.5800
  442THF    H10 5743   1.225   2.728   1.332  1.5859 -1.0172  4.7792
  442THF    H11 5744   1.087   2.631   1.273 -0.8169  1.3181 -0.2406
  442THF    H12 5745   1.136   2.537   1.498 -1.2492 -0.5602 -0.0556
  442THF    H13 5746   1.175   2.692   1.552  0.6966  1.6905 -1.2136
  443THF     O1 5747   0.970   3.553   4.114  0.1664  0.2831 -0.0576
  443THF     C2 5748   1.032   3.605   4.229  0.2337 -0.4670  0.0792
  443THF     C3 5749   0.842   3.491   4.139 -0.5166  0.1461 -0.5818
  443THF     H4 5750   1.040   3.714   4.223  1.0926 -0.4716  0.7797
  443THF     H5 5751   1.127   3.552   4.238 -1.4231 -3.4666  1.1237
  443THF     H6 5752   0.758   3.515   4.074 -1.4664  1.6752  1.0984
  443THF     H7 5753   0.846   3.384   4.118 -0.9252 -0.1148  0.5653
  443THF     C8 5754   0.812   3.524   4.286 -0.2763 -0.1290 -0.1150
  443THF     C9 5755   0.953   3.544   4.346 -0.4951  0.0542  0.8051
  443THF    H10 5756   0.744   3.450   4.329 -2.6006  1.3296 -1.0993
  443THF    H11 5757   0.751   3.614   4.292 -1.7993 -1.1584  0.8580
  443THF    H12 5758   0.950   3.589   4.445  0.8434 -1.7194  1.7103
  443THF    H13 5759   0.996   3.444   4.352  1.6881  0.9779  1.4830
  444THF     O1 5760   3.892   5.299   1.267 -0.8618 -0.4217 -0.3178
  444THF     C2 5761   3.912   5.368   1.147  0.5824 -0.3257 -0.1996
  444THF     C3 5762   3.890   5.402   1.364  0.0222 -0.4670 -0.0982
  444THF     H4 5763   3.815   5.408   1.116 -0.3194 -1.2178  1.3211
  444THF     H5 5764   3.937   5.299   1.067 -1.9105 -2.2803  0.5877
  444THF     H6 5765   3.792   5.447   1.378  0.5169  1.0108 -1.1711
  444THF     H7 5766   3.924   5.368   1.462  1.2859  1.0623  0.0317
  444THF     C8 5767   3.998   5.496   1.316 -0.1552 -0.2518 -0.1099
  444THF     C9 5768   4.020   5.465   1.174 -0.4610  0.1425  0.2653
  444THF    H10 5769   4.091   5.480   1.370  0.0421 -1.6892 -0.8151
  444THF    H11 5770   3.963   5.599   1.310 -0.4272 -0.3686 -0.5900
  444THF    H12 5771   4.018   5.556   1.115  0.7514 -0.9479 -1.5207
  444THF    H13 5772   4.115   5.413   1.168 -0.0358  0.9212  0.1674
  445THF     O1 5773   1.103   0.437   5.267  0.0633  0.2621 -0.0458
  445THF     C2 5774   1.215   0.395   5.346  0.0173 -0.0207  0.3119
  445THF     C3 5775   1.009   0.490   5.356 -0.4980  0.1931 -0.2154
  445THF     H4 5776   1.291   0.351   5.282 -1.4741 -0.5056 -1.2122
  445THF     H5 5777   1.179   0.307   5.399  2.4571 -0.4286  1.4081
  445THF     H6 5778   0.948   0.566   5.307  0.7250  1.9593  0.8804
  445THF     H7 5779   0.933   0.421   5.392 -0.8186  0.0992 -1.0459
  445THF     C8 5780   1.093   0.541   5.468  0.2724  0.3143 -0.5949
  445THF     C9 5781   1.238   0.513   5.441 -0.0439  0.0829  0.0564
  445THF    H10 5782   1.058   0.487   5.556  0.3790 -0.0158 -0.7551
  445THF    H11 5783   1.077   0.646   5.492  0.4595  0.2284 -0.0960
  445THF    H12 5784   1.285   0.593   5.384 -1.2015  0.9219  0.2561
  445THF    H13 5785   1.304   0.494   5.526  1.3341  1.3304 -0.6897
  446THF     O1 5786   1.285   1.651   4.658  0.1613  0.0986  0.1652
  446THF     C2 5787   1.148   1.677   4.690 -0.3566  0.4140  0.5703
  446THF     C3 5788   1.287   1.603   4.524  0.9096  0.0214  0.2102
  446THF     H4 5789   1.137   1.754   4.767  1.3484 -0.3513  1.6438
  446THF     H5 5790   1.100   1.587   4.729 -0.4183 -0.0482 -0.5382
  446THF     H6 5791   1.344   1.678   4.469 -0.6136  2.2018  1.4425
  446THF     H7 5792   1.333   1.505   4.530  0.6477 -0.0526  5.0385
  446THF     C8 5793   1.146   1.606   4.465  0.2766  0.5259 -0.6686
  446THF     C9 5794   1.082   1.703   4.556 -0.1198  0.3530 -0.0200
  446THF    H10 5795   1.106   1.504   4.469  1.6319  0.0039  0.9741
  446THF    H11 5796   1.155   1.641   4.363 -0.6576  0.8969 -0.6304
  446THF    H12 5797   1.113   1.800   4.516  0.8703  0.0905  0.1060
  446THF    H13 5798   0.974   1.687   4.545 -0.2898  1.3479  0.0298
  447THF     O1 5799   4.314   3.217   5.373  0.4565  0.3347  0.6303
  447THF     C2 5800   4.400   3.163   5.269 -0.2287 -0.2747 -0.5115
  447THF     C3 5801   4.180   3.186   5.335 -0.2463  0.1729  0.1387
  447THF     H4 5802   4.502   3.162   5.308 -0.1218  0.8234 -0.7180
  447THF     H5 5803   4.384   3.221   5.178 -2.9902  1.0558  0.6881
  447THF     H6 5804   4.119   3.188   5.425 -0.0560 -0.9041  0.3013
  447THF     H7 5805   4.136   3.253   5.261  0.0717  0.0576 -0.1598
  447THF     C8 5806   4.195   3.042   5.282 -0.1140  0.6886  0.1934
  447THF     C9 5807   4.344   3.029   5.247 -0.5587 -0.1947  0.7379
  447THF    H10 5808   4.128   3.020   5.199 -0.6489  3.5452 -0.2620
  447THF    H11 5809   4.172   2.963   5.353  0.8049  1.3916  1.3201
  447THF    H12 5810   4.394   2.965   5.320  1.4433  0.0255 -0.3882
  447THF    H13 5811   4.368   2.995   5.146 -0.5471  4.1550 -0.9250
  448THF     O1 5812   0.007   2.500   3.516 -0.4707  0.3649 -0.2756
  448THF     C2 5813   0.050   2.462   3.654  0.4652 -0.1093  0.3128
  448THF     C3 5814  -0.069   2.398   3.460 -0.1266  0.4523 -0.1806
  448THF     H4 5815   0.005   2.528   3.728  3.5238  0.5022  1.7796
  448THF     H5 5816   0.158   2.473   3.662  0.5360 -1.6928  2.1115
  448THF     H6 5817  -0.177   2.413   3.464 -0.4133 -1.5540  0.8974
  448THF     H7 5818  -0.037   2.391   3.356 -1.3306  1.1107 -0.6226
  448THF     C8 5819  -0.041   2.270   3.540 -0.5467 -0.1373 -0.2467
  448THF     C9 5820  -0.017   2.321   3.681 -0.5716 -0.4924 -0.0176
  448THF    H10 5821   0.044   2.228   3.485  0.2738 -0.4398  1.1804
  448THF    H11 5822  -0.124   2.199   3.541 -2.3717  1.8830 -0.9530
  448THF    H12 5823  -0.107   2.318   3.742 -0.6908 -0.4545 -0.1887
  448THF    H13 5824   0.061   2.257   3.722 -0.8909 -0.3406  0.8285
  449THF     O1 5825   0.548   5.173   5.076  0.0365 -0.2106  0.3458
  449THF     C2 5826   0.465   5.239   5.171  0.5213 -0.5811  0.6869
  449THF     C3 5827   0.628   5.270   5.008 -0.5303  1.0697 -0.5141
  449THF     H4 5828   0.504   5.272   5.267 -0.3854  1.6088  0.3388
  449THF     H5 5829   0.388   5.166   5.195 -0.9151 -0.3812 -2.6987
  449THF     H6 5830   0.715   5.287   5.071 -0.0415  2.0174 -1.3984
  449THF     H7 5831   0.659   5.225   4.913  1.1971 -1.0449  0.9587
  449THF     C8 5832   0.536   5.390   5.005 -0.8047  0.8576  0.3393
  449THF     C9 5833   0.409   5.351   5.078 -0.3033  0.5880  0.0887
  449THF    H10 5834   0.518   5.420   4.902  0.3143  1.0322  0.1909
  449THF    H11 5835   0.583   5.466   5.067  0.5174 -0.8202  1.4718
  449THF    H12 5836   0.358   5.424   5.141 -0.4016 -0.8223  1.7252
  449THF    H13 5837   0.336   5.302   5.013  0.5288  1.6958 -1.7403
  450THF     O1 5838   2.480   2.007   0.703  0.2437 -0.2668  0.2956
  450THF     C2 5839   2.505   2.088   0.822 -0.3382  0.2680  0.2392
  450THF     C3 5840   2.395   1.900   0.748  0.2153 -0.0522  0.3578
  450THF     H4 5841   2.560   2.180   0.802 -1.3781  0.7158 -0.6627
  450THF     H5 5842   2.571   2.023   0.879  0.7738  1.5117  0.4264
  450THF     H6 5843   2.336   1.864   0.664 -2.6286  2.3698  1.1729
  450THF     H7 5844   2.448   1.819   0.799 -0.1900  1.4098  3.3013
  450THF     C8 5845   2.304   1.968   0.842 -0.5849 -0.9639  0.2080
  450THF     C9 5846   2.370   2.105   0.874  0.5727  0.0931  0.2219
  450THF    H10 5847   2.280   1.908   0.930 -1.4459 -2.5058 -1.0272
  450THF    H11 5848   2.213   2.002   0.791  1.2727 -0.2685 -2.9212
  450THF    H12 5849   2.324   2.191   0.823 -0.4673 -0.6465 -0.1234
  450THF    H13 5850   2.357   2.137   0.977  1.2595  2.3185 -0.3318
  451THF     O1 5851   1.357   4.519   5.110  0.1441 -0.0269  0.1412
  451THF     C2 5852   1.278   4.617   5.177 -0.0420  0.7040  0.8958
  451THF     C3 5853   1.384   4.409   5.194  0.6453  0.3400  0.2376
  451THF     H4 5854   1.179   4.624   5.131 -0.2055 -2.1310  0.6090
  451THF     H5 5855   1.341   4.706   5.182  0.9271  0.2233 -1.2650
  451THF     H6 5856   1.300   4.343   5.174 -0.0541  1.3830 -0.4228
  451THF     H7 5857   1.477   4.365   5.159 -0.3285  0.2774 -2.5484
  451THF     C8 5858   1.381   4.480   5.324  0.1020  0.2635  0.2613
  451THF     C9 5859   1.257   4.558   5.312 -0.0968 -0.4203  0.5588
  451THF    H10 5860   1.466   4.547   5.330 -0.9130  1.4572  2.5536
  451THF    H11 5861   1.374   4.422   5.415 -4.0121  0.4165  0.2278
  451THF    H12 5862   1.168   4.496   5.319 -1.6321  1.6398  0.1694
  451THF    H13 5863   1.251   4.635   5.390 -0.0892  1.8428 -1.5469
  452THF     O1 5864   2.154   2.783   3.512 -0.0630 -0.9178 -0.2776
  452THF     C2 5865   2.255   2.874   3.484 -0.2633 -0.4014 -0.0269
  452THF     C3 5866   2.184   2.730   3.645  0.4139 -0.3918 -0.3024
  452THF     H4 5867   2.249   2.966   3.541  2.0708  0.3334 -0.8402
  452THF     H5 5868   2.260   2.901   3.378  0.4211 -0.0271  0.0972
  452THF     H6 5869   2.150   2.817   3.702 -0.0709 -1.0424  0.4340
  452THF     H7 5870   2.127   2.638   3.663 -1.8677  0.7923 -1.0314
  452THF     C8 5871   2.332   2.716   3.647  0.5075 -0.0665  0.0488
  452THF     C9 5872   2.378   2.795   3.526 -0.9360  0.1318  0.4414
  452THF    H10 5873   2.366   2.613   3.633  1.0144  0.3639 -2.1931
  452THF    H11 5874   2.365   2.749   3.746 -0.4044  0.5487  0.1617
  452THF    H12 5875   2.462   2.861   3.548  0.2192 -0.2140 -2.3976
  452THF    H13 5876   2.419   2.728   3.450 -0.0909 -0.2120  1.1848
  453THF     O1 5877   3.376   2.222   1.710 -0.1904  0.3838  0.3639
  453THF     C2 5878   3.507   2.222   1.669 -0.7655  0.0109  0.2213
  453THF     C3 5879   3.376   2.275   1.844 -0.3227  0.1340 -0.0279
  453THF     H4 5880   3.514   2.216   1.560 -0.2176  0.8785  0.2005
  453THF     H5 5881   3.549   2.134   1.718 -0.1046  0.5974  0.7290
  453THF     H6 5882   3.280   2.323   1.863 -0.3128  0.9192 -1.7481
  453THF     H7 5883   3.393   2.196   1.916  0.0275  0.5228  0.3216
  453THF     C8 5884   3.496   2.372   1.853 -0.0031 -0.1123  0.4898
  453THF     C9 5885   3.566   2.352   1.720 -0.7388 -0.4910  0.6698
  453THF    H10 5886   3.567   2.330   1.924  1.0623 -0.0212 -0.5065
  453THF    H11 5887   3.457   2.471   1.873  0.1967  0.0688 -0.0200
  453THF    H12 5888   3.542   2.431   1.649  2.2050  0.2999  0.4280
  453THF    H13 5889   3.675   2.349   1.725 -0.6344 -1.4085 -1.2284
  454THF     O1 5890   0.045   1.212   2.169  0.2674 -0.7457  0.1552
  454THF     C2 5891  -0.075   1.294   2.203 -0.5248 -0.1823  0.2889
  454THF     C3 5892  -0.002   1.104   2.077 -0.0867 -0.2463  0.1395
  454THF     H4 5893  -0.054   1.399   2.226  0.5873 -0.9567  3.2316
  454THF     H5 5894  -0.124   1.249   2.288 -0.3406 -1.9992 -0.5184
  454THF     H6 5895   0.060   1.078   1.991 -1.1405 -2.0366 -0.1202
  454THF     H7 5896  -0.000   1.010   2.132 -2.0218  0.3844  1.3864
  454THF     C8 5897  -0.146   1.135   2.046 -0.4744  0.0058  0.1310
  454THF     C9 5898  -0.170   1.279   2.090 -0.3181  0.0606 -0.4058
  454THF    H10 5899  -0.216   1.068   2.097 -0.6597  0.9637  1.1769
  454THF    H11 5900  -0.166   1.124   1.940  0.8841 -0.6054 -0.0879
  454THF    H12 5901  -0.158   1.353   2.011 -0.6710  0.5623  0.0004
  454THF    H13 5902  -0.273   1.304   2.114 -0.2550 -0.8992  1.0114
  455THF     O1 5903   5.482   1.433   5.319  0.3194 -0.3525  0.0806
  455THF     C2 5904   5.430   1.554   5.379  0.1661  0.2618 -0.2516
  455THF     C3 5905   5.588   1.387   5.401 -0.1771 -0.8860 -0.3021
  455THF     H4 5906   5.361   1.542   5.463 -1.1071  0.4061 -1.2303
  455THF     H5 5907   5.384   1.599   5.292  1.3116  0.3496 -0.8269
  455THF     H6 5908   5.551   1.333   5.488  2.4035 -1.0540  0.7861
  455THF     H7 5909   5.654   1.321   5.345  1.3210 -1.5111  2.0555
  455THF     C8 5910   5.650   1.516   5.452  0.6410 -0.4173 -0.4181
  455THF     C9 5911   5.552   1.631   5.419  0.5142  0.1419 -0.0138
  455THF    H10 5912   5.732   1.546   5.387 -0.5925  0.8873 -1.4433
  455THF    H11 5913   5.686   1.520   5.555 -2.9884 -0.4156  0.9951
  455THF    H12 5914   5.525   1.700   5.500 -0.6664  0.8474 -0.9756
  455THF    H13 5915   5.578   1.696   5.335 -1.2491  0.7144 -0.1607
  456THF     O1 5916   4.718   0.179   3.013 -0.1590  0.0426 -0.0252
  456THF     C2 5917   4.739   0.276   2.905 -0.5385  0.0390  0.0200
  456THF     C3 5918   4.789   0.232   3.124 -0.0786 -0.0405 -0.3040
  456THF     H4 5919   4.647   0.307   2.856 -0.4633  0.5838  0.2242
  456THF     H5 5920   4.794   0.217   2.832  0.0828 -1.4391  1.6119
  456THF     H6 5921   4.732   0.303   3.183 -1.6816 -0.8141 -0.8616
  456THF     H7 5922   4.813   0.145   3.185 -1.2441 -0.5735 -0.5686
  456THF     C8 5923   4.904   0.311   3.075  0.3827 -0.1033  0.0997
  456THF     C9 5924   4.834   0.389   2.955 -0.9594  0.1503 -0.0871
  456THF    H10 5925   4.977   0.243   3.032 -2.0322 -2.3285 -0.7710
  456THF    H11 5926   4.944   0.386   3.143 -1.5171  0.3196  0.8200
  456THF    H12 5927   4.766   0.468   2.986 -0.8561  1.0731 -2.0715
  456THF    H13 5928   4.903   0.426   2.879  0.7935 -0.5258  1.1066
  457THF     O1 5929   1.164   5.301   0.242 -0.0170  0.3044  0.4607
  457THF     C2 5930   1.127   5.184   0.161  0.1780 -0.2725  0.0501
  457THF     C3 5931   1.290   5.269   0.299 -0.4418 -0.1959  0.1782
  457THF     H4 5932   1.077   5.219   0.070 -1.4582  0.8427  1.2967
  457THF     H5 5933   1.052   5.126   0.215  0.6727 -0.0077  1.0388
  457THF     H6 5934   1.349   5.356   0.328  2.8709 -2.6137  1.3598
  457THF     H7 5935   1.276   5.204   0.385  1.0382  0.3462  0.8524
  457THF     C8 5936   1.368   5.206   0.192 -0.5262  0.5488 -0.4914
  457THF     C9 5937   1.264   5.121   0.130 -0.1873  0.5789  0.1549
  457THF    H10 5938   1.454   5.150   0.228 -0.9964 -0.4555 -0.9097
  457THF    H11 5939   1.412   5.280   0.125  1.5774 -0.4710 -0.3151
  457THF    H12 5940   1.287   5.133   0.024  1.4777 -1.4267  0.2061
  457THF    H13 5941   1.266   5.012   0.139  1.7333  0.5462 -0.1087
  458THF     O1 5942   4.359   5.303   4.170  0.3160  0.1517 -0.2113
  458THF     C2 5943   4.306   5.393   4.264 -0.5776  0.4585 -0.1726
  458THF     C3 5944   4.431   5.381   4.080  0.2408 -0.1443  0.0732
  458THF     H4 5945   4.274   5.334   4.350  3.3712 -0.1939  1.0187
  458THF     H5 5946   4.220   5.444   4.219 -1.3829  0.0476  0.8531
  458THF     H6 5947   4.514   5.344   4.018 -0.2300  1.1505 -1.3927
  458THF     H7 5948   4.365   5.432   4.011 -0.1791 -0.5579  0.1630
  458THF     C8 5949   4.503   5.482   4.180 -0.3157  0.5604 -0.9213
  458THF     C9 5950   4.408   5.492   4.293 -0.2902  0.4227  0.1046
  458THF    H10 5951   4.521   5.583   4.143 -1.7345  2.3182  2.7453
  458THF    H11 5952   4.602   5.452   4.215 -0.9484  0.0003  0.4477
  458THF    H12 5953   4.456   5.468   4.387  0.5238  0.7825 -0.2121
  458THF    H13 5954   4.363   5.592   4.292  1.1027  1.0924 -1.6246
  459THF     O1 5955   1.365   4.428   4.739  0.1127  0.1364  0.5528
  459THF     C2 5956   1.405   4.422   4.601  0.1019  0.0843 -0.7640
  459THF     C3 5957   1.392   4.305   4.803 -0.8411  0.0131 -0.3386
  459THF     H4 5958   1.489   4.490   4.591  1.0687 -0.5874  1.8422
  459THF     H5 5959   1.324   4.457   4.537 -1.5899 -0.0139  1.1927
  459THF     H6 5960   1.431   4.323   4.903 -0.5895 -1.3840 -0.1726
  459THF     H7 5961   1.307   4.237   4.810 -0.2691 -0.4935  2.8900
  459THF     C8 5962   1.496   4.238   4.716 -0.1427 -0.1839  0.4811
  459THF     C9 5963   1.446   4.273   4.579 -0.1703 -0.4719 -0.1488
  459THF    H10 5964   1.517   4.132   4.733  0.4214 -0.3208 -0.8805
  459THF    H11 5965   1.590   4.288   4.733 -0.3047  0.2456  0.1330
  459THF    H12 5966   1.522   4.264   4.502 -0.1921  1.9552 -0.5032
  459THF    H13 5967   1.359   4.214   4.551 -1.1993  0.6071  0.6710
  460THF     O1 5968   4.560   4.574   4.050  0.5541 -0.1056  0.0594
  460THF     C2 5969   4.670   4.660   4.018 -0.0022 -0.5378 -0.2678
  460THF     C3 5970   4.449   4.603   3.968 -0.3907 -0.5269  0.6183
  460THF     H4 5971   4.765   4.605   4.021  0.9419  1.0722  0.6423
  460THF     H5 5972   4.666   4.754   4.073 -0.4774 -0.2960 -0.7018
  460THF     H6 5973   4.388   4.515   3.949  1.5037 -1.9748  0.9257
  460THF     H7 5974   4.393   4.684   4.013  1.8604  2.3576 -1.3944
  460THF     C8 5975   4.507   4.637   3.831  0.2116  0.4389 -0.4084
  460THF     C9 5976   4.635   4.711   3.874 -0.4867  0.0836  0.0850
  460THF    H10 5977   4.444   4.700   3.769 -2.3722 -0.3281  1.2865
  460THF    H11 5978   4.540   4.556   3.766  1.3113  0.8123 -0.3471
  460THF    H12 5979   4.713   4.695   3.799 -1.7082 -0.8194 -1.0574
  460THF    H13 5980   4.605   4.816   3.881 -0.5633  0.1986 -1.5566
  461THF     O1 5981   2.723   0.340   0.652  0.4284  0.5004 -0.4154
  461THF     C2 5982   2.641   0.456   0.637  0.2224 -0.1499 -0.1034
  461THF     C3 5983   2.663   0.235   0.569 -0.3786  0.1347 -0.5732
  461THF     H4 5984   2.653   0.477   0.531 -0.4083 -0.5815 -0.2655
  461THF     H5 5985   2.663   0.545   0.697 -0.5523 -0.6160  0.9153
  461THF     H6 5986   2.666   0.256   0.462 -0.0872 -0.6826 -0.7307
  461THF     H7 5987   2.712   0.139   0.580  0.3411  0.5523 -0.0252
  461THF     C8 5988   2.521   0.244   0.613  0.1914  0.3419  0.0765
  461THF     C9 5989   2.506   0.386   0.660  1.2219  0.0964 -0.7778
  461THF    H10 5990   2.493   0.176   0.694  0.6537 -0.3252 -0.3190
  461THF    H11 5991   2.456   0.229   0.527  0.2456  0.6460 -0.0165
  461THF    H12 5992   2.423   0.434   0.607  0.0943 -0.3425  0.5260
  461THF    H13 5993   2.487   0.402   0.766 -1.5777  0.8646 -1.3141
  462THF     O1 5994   3.223   3.370   2.052 -0.3940  0.1263 -0.3152
  462THF     C2 5995   3.163   3.444   1.943 -0.4014  0.7892 -0.4550
  462THF     C3 5996   3.162   3.408   2.172 -0.0481  0.2644 -0.2162
  462THF     H4 5997   3.082   3.385   1.902  1.1688  0.6140 -3.5465
  462THF     H5 5998   3.226   3.455   1.855 -0.8662  2.4304 -0.6305
  462THF     H6 5999   3.107   3.329   2.223 -3.0020  1.4384 -1.3880
  462THF     H7 6000   3.235   3.451   2.241 -1.1673 -1.3084  2.0601
  462THF     C8 6001   3.071   3.529   2.142 -0.2772  0.3157  0.2958
  462THF     C9 6002   3.107   3.572   2.001  0.0740  0.2164 -0.6292
  462THF    H10 6003   3.072   3.622   2.199 -3.2720  1.0052 -0.5891
  462THF    H11 6004   2.969   3.492   2.135 -0.0216 -1.2763  3.2908
  462THF    H12 6005   3.023   3.605   1.940 -0.4644 -0.7216 -0.4216
  462THF    H13 6006   3.181   3.651   1.999 -0.2371  0.5047 -1.7521
  463THF     O1 6007   3.582   4.301   3.050 -0.2562  0.2866  0.0608
  463THF     C2 6008   3.676   4.285   3.160  0.5803 -0.2434  0.4850
  463THF     C3 6009   3.641   4.377   2.952  0.2193 -0.0967 -0.5013
  463THF     H4 6010   3.639   4.201   3.219  0.8306 -0.8407 -0.1989
  463THF     H5 6011   3.684   4.378   3.217  1.5723  0.0219 -0.0664
  463THF     H6 6012   3.592   4.370   2.855  0.7585  0.5609 -0.8359
  463THF     H7 6013   3.634   4.481   2.984 -2.7920 -0.2164 -0.4412
  463THF     C8 6014   3.788   4.334   2.960 -0.2289 -0.0670 -0.1462
  463THF     C9 6015   3.809   4.257   3.091  0.2063  0.1110  0.8248
  463THF    H10 6016   3.840   4.429   2.968  0.0644 -0.1821 -0.6094
  463THF    H11 6017   3.831   4.279   2.876  0.6367  1.0180 -0.4368
  463THF    H12 6018   3.805   4.150   3.070 -3.8711 -0.1995  2.2608
  463THF    H13 6019   3.896   4.290   3.149  0.6251 -0.1892  0.3767
  464THF     O1 6020   0.270   3.805   4.243 -0.5866 -0.2658 -0.0499
  464THF     C2 6021   0.336   3.912   4.304  0.2330 -0.0543 -0.7609
  464THF     C3 6022   0.374   3.717   4.187  0.2346 -0.3168  0.4466
  464THF     H4 6023   0.273   3.966   4.374  0.2028 -0.8041 -0.2029
  464THF     H5 6024   0.366   3.972   4.218 -0.1309  0.8282 -0.2750
  464THF     H6 6025   0.342   3.613   4.182  0.1601 -0.2867  0.2851
  464THF     H7 6026   0.404   3.755   4.089 -0.9596  1.4534  0.7155
  464THF     C8 6027   0.495   3.738   4.280  0.1720 -0.3404 -0.5247
  464THF     C9 6028   0.456   3.847   4.380 -0.0282 -0.1213  0.4272
  464THF    H10 6029   0.584   3.753   4.219 -0.5471  2.6897 -0.9391
  464THF    H11 6030   0.518   3.651   4.342 -0.3045  0.7393  1.2531
  464THF    H12 6031   0.414   3.798   4.468 -1.9898 -1.2005 -1.0198
  464THF    H13 6032   0.528   3.923   4.411 -1.5175  1.9716 -0.9604
  465THF     O1 6033   1.914   1.183   4.022  0.2089 -1.0830 -0.3353
  465THF     C2 6034   1.992   1.132   4.128 -0.6653 -0.3393 -0.2398
  465THF     C3 6035   1.991   1.230   3.910  0.0062  0.4978  0.0009
  465THF     H4 6036   2.002   1.024   4.135 -0.9073 -0.3341  0.1972
  465THF     H5 6037   1.969   1.183   4.221  0.8193 -1.6883  0.9243
  465THF     H6 6038   1.998   1.145   3.842  0.2784 -0.0905  0.7563
  465THF     H7 6039   1.955   1.323   3.866  2.5419  1.1176 -0.9145
  465THF     C8 6040   2.123   1.278   3.975  0.2424 -0.4946  0.8832
  465THF     C9 6041   2.135   1.184   4.096  0.3867 -0.1007 -0.1278
  465THF    H10 6042   2.117   1.383   4.005 -1.4483 -0.5954  1.0000
  465THF    H11 6043   2.210   1.259   3.912  0.2975 -0.5586  0.9785
  465THF    H12 6044   2.194   1.099   4.062 -1.4468 -1.4971  0.0687
  465THF    H13 6045   2.189   1.232   4.179 -0.5149  1.2784 -0.3018
  466THF     O1 6046   5.007   2.224   2.264 -0.0480 -0.5194  0.3775
  466THF     C2 6047   5.123   2.298   2.217  0.2433  0.9412 -0.2402
  466THF     C3 6048   5.050   2.087   2.284 -0.0147  0.1782  0.0188
  466THF     H4 6049   5.192   2.300   2.302  1.4001  2.8036 -1.1626
  466THF     H5 6050   5.109   2.402   2.187 -2.2176  0.8268  0.3074
  466THF     H6 6051   5.108   2.079   2.376  1.9344  1.7200 -0.9859
  466THF     H7 6052   4.963   2.024   2.296  0.7720 -0.9407 -0.0332
  466THF     C8 6053   5.125   2.064   2.149 -0.4664  0.3646  0.0848
  466THF     C9 6054   5.169   2.203   2.106  0.6233 -0.1263  0.8036
  466THF    H10 6055   5.051   2.030   2.076 -1.7118 -0.5369  1.7203
  466THF    H11 6056   5.210   1.996   2.154 -0.9320 -0.6918 -3.3965
  466THF    H12 6057   5.276   2.208   2.086  0.4246 -1.0951 -0.6106
  466THF    H13 6058   5.111   2.218   2.015 -0.7711  0.2030  1.7213
  467THF     O1 6059   2.605   0.008   1.985 -0.1206 -0.4392 -0.1536
  467THF     C2 6060   2.572   0.143   2.001 -0.2368  0.2651  0.3997
  467THF     C3 6061   2.524  -0.073   2.069  0.6147 -0.2735  1.4021
  467THF     H4 6062   2.492   0.165   1.931  1.0731  2.2087 -0.5948
  467THF     H5 6063   2.656   0.210   1.979 -0.3661  0.4830  0.5531
  467THF     H6 6064   2.434  -0.076   2.008  2.6879  0.1597 -1.9676
  467THF     H7 6065   2.557  -0.175   2.083  0.8998 -0.5457 -0.8080
  467THF     C8 6066   2.502   0.010   2.188 -0.4107  0.4441  0.0083
  467THF     C9 6067   2.513   0.152   2.135  0.1254 -0.0421  0.8987
  467THF    H10 6068   2.586  -0.000   2.256  1.2123 -2.0401 -2.1999
  467THF    H11 6069   2.412  -0.012   2.246  1.4106 -0.5228  2.6676
  467THF    H12 6070   2.421   0.210   2.133  0.1695  0.0542  1.3620
  467THF    H13 6071   2.587   0.196   2.203  1.0722 -0.8855  0.4429
  468THF     O1 6072   3.020   3.560   1.076  0.1256  0.7437  0.3473
  468THF     C2 6073   2.881   3.545   1.092  0.7307 -0.1019  0.1661
  468THF     C3 6074   3.050   3.522   0.941 -0.5595  0.4804 -0.1652
  468THF     H4 6075   2.834   3.600   1.173 -1.2161  2.2836 -2.3875
  468THF     H5 6076   2.863   3.442   1.123 -1.7697  0.0436 -0.5485
  468THF     H6 6077   3.150   3.554   0.914  0.2028 -0.9958  0.7772
  468THF     H7 6078   3.054   3.413   0.935  1.1568  0.3867  1.7124
  468THF     C8 6079   2.940   3.593   0.860 -0.4712 -0.7546 -0.4141
  468THF     C9 6080   2.820   3.568   0.951  0.1914 -0.5803 -1.5376
  468THF    H10 6081   2.920   3.559   0.759  0.4455 -1.0136 -0.5160
  468THF    H11 6082   2.961   3.699   0.850 -2.4318 -0.4093 -1.1800
  468THF    H12 6083   2.750   3.651   0.945  0.7715 -0.0886 -1.5992
  468THF    H13 6084   2.763   3.478   0.924 -1.4142 -1.1483  2.9597
  469THF     O1 6085   5.266   0.495   2.687  0.2237  0.3351 -0.5429
  469THF     C2 6086   5.380   0.397   2.692 -0.0681 -0.0202  0.6120
  469THF     C3 6087   5.225   0.541   2.813 -0.1387  0.6521  0.0862
  469THF     H4 6088   5.460   0.441   2.632 -0.8505  0.9179  0.2280
  469THF     H5 6089   5.346   0.305   2.644  2.1318 -1.0782  0.9671
  469THF     H6 6090   5.286   0.628   2.834  1.2798 -0.0044 -1.1267
  469THF     H7 6091   5.118   0.561   2.810 -0.7951 -2.3866 -1.3306
  469THF     C8 6092   5.263   0.432   2.907 -0.3957  0.1569  0.0397
  469THF     C9 6093   5.390   0.380   2.847 -0.9693  0.1037  0.0986
  469THF    H10 6094   5.182   0.360   2.921 -0.5577  0.3506  0.0986
  469THF    H11 6095   5.278   0.468   3.009  0.3943  0.9241 -0.3418
  469THF    H12 6096   5.479   0.428   2.888 -1.4596  2.6050 -1.5519
  469THF    H13 6097   5.399   0.272   2.863  3.0747  0.1020 -1.0091
  470THF     O1 6098   2.360   3.385   2.616 -0.5235 -0.5566 -0.0834
  470THF     C2 6099   2.327   3.257   2.575 -0.3243  0.3343  0.5737
  470THF     C3 6100   2.440   3.382   2.738  0.4241  0.0318 -0.3036
  470THF     H4 6101   2.417   3.213   2.533 -0.2294  2.9685 -2.4435
  470THF     H5 6102   2.242   3.263   2.506  0.5683  0.8401 -0.5223
  470THF     H6 6103   2.544   3.364   2.710 -0.1642 -3.7895 -0.5732
  470THF     H7 6104   2.429   3.478   2.789 -1.3147 -0.5209  0.4553
  470THF     C8 6105   2.382   3.257   2.803  0.4836  0.4933 -0.0404
  470THF     C9 6106   2.296   3.185   2.703 -0.2846  0.6179 -0.2163
  470THF    H10 6107   2.323   3.286   2.890  1.3289 -1.8224  1.4027
  470THF    H11 6108   2.452   3.194   2.859 -0.5797 -0.1691  0.5999
  470THF    H12 6109   2.310   3.076   2.705 -0.3688  0.6183  1.2029
  470THF    H13 6110   2.191   3.206   2.724 -0.3764 -2.0354  2.8779
  471THF     O1 6111   2.745   1.158   3.108  0.3162  0.3694  0.0894
  471THF     C2 6112   2.626   1.195   3.177  0.5925  0.1759 -0.0804
  471THF     C3 6113   2.850   1.241   3.160  0.0885  0.6547  0.6345
  471THF     H4 6114   2.546   1.122   3.167  0.1206  0.6375  0.2917
  471THF     H5 6115   2.578   1.289   3.150  0.4044  0.0434 -0.2097
  471THF     H6 6116   2.944   1.189   3.145  0.0032  0.9803 -1.3373
  471THF     H7 6117   2.844   1.334   3.104 -2.9543  1.3484  1.9061
  471THF     C8 6118   2.816   1.258   3.302 -0.2802 -0.6142 -0.3740
  471THF     C9 6119   2.677   1.198   3.325  0.6732  0.5271  0.1575
  471THF    H10 6120   2.807   1.364   3.328  0.0945  0.0361 -2.6647
  471THF    H11 6121   2.886   1.217   3.374  0.2094  2.3533  1.0155
  471THF    H12 6122   2.683   1.096   3.363 -2.5925 -0.1581 -0.8880
  471THF    H13 6123   2.610   1.263   3.381  1.8241 -0.1141  2.4026
  472THF     O1 6124   1.400   5.148   3.569 -0.1857 -0.5900  0.1103
  472THF     C2 6125   1.368   5.081   3.687  0.3778 -0.5266  0.0328
  472THF     C3 6126   1.463   5.266   3.603 -0.3922 -0.1668 -0.8616
  472THF     H4 6127   1.435   4.996   3.702  0.5085 -0.5281 -0.5273
  472THF     H5 6128   1.266   5.042   3.676  0.6495 -1.0685 -0.6500
  472THF     H6 6129   1.569   5.243   3.593 -0.8150 -2.3028 -0.7867
  472THF     H7 6130   1.435   5.338   3.526 -0.6611 -0.7322 -1.3019
  472THF     C8 6131   1.416   5.302   3.740  0.3462 -0.8988 -0.0728
  472THF     C9 6132   1.375   5.174   3.801  0.3336 -0.1261  0.3065
  472THF    H10 6133   1.331   5.370   3.728 -0.1138 -1.5688 -0.6658
  472THF    H11 6134   1.495   5.357   3.791 -0.8190  1.8087 -0.9645
  472THF    H12 6135   1.443   5.149   3.883  1.0247 -1.6757 -0.6851
  472THF    H13 6136   1.272   5.179   3.835 -0.5420 -1.1683 -2.0080
  473THF     O1 6137   3.705   2.129   2.041  0.4670  0.3504  0.0946
  473THF     C2 6138   3.750   1.997   2.015 -0.7915 -0.1594  0.3695
  473THF     C3 6139   3.811   2.214   2.003 -0.3448 -0.6809 -0.5410
  473THF     H4 6140   3.723   1.966   1.914 -0.6885 -0.1394  0.3356
  473THF     H5 6141   3.695   1.931   2.082 -0.2851 -0.9603  0.0152
  473THF     H6 6142   3.811   2.227   1.894 -0.3320 -0.1247 -0.4800
  473THF     H7 6143   3.805   2.311   2.052  2.2206  0.0072 -1.4243
  473THF     C8 6144   3.930   2.141   2.071 -0.0707  0.6942  0.3118
  473THF     C9 6145   3.897   1.997   2.042 -0.4920 -0.0019 -0.4621
  473THF    H10 6146   3.937   2.163   2.178 -0.2053 -0.8868  0.6777
  473THF    H11 6147   4.026   2.172   2.028 -0.6936  0.6543 -1.1473
  473THF    H12 6148   3.947   1.959   1.954  1.3215  3.4347 -1.0992
  473THF    H13 6149   3.933   1.934   2.123  2.0721  1.3742 -0.4286
  474THF     O1 6150   0.243   0.181   3.624  0.3606  0.1589 -0.5028
  474THF     C2 6151   0.238   0.046   3.686  0.2635  0.8969  0.5275
  474THF     C3 6152   0.169   0.166   3.511  0.1838  1.7842  0.1217
  474THF     H4 6153   0.142   0.024   3.734  0.5834 -0.1053  0.7281
  474THF     H5 6154   0.316   0.043   3.762  1.2824  2.2427 -0.4223
  474THF     H6 6155   0.062   0.154   3.521 -0.2517  4.1798 -0.8876
  474THF     H7 6156   0.182   0.249   3.441  0.6489  0.8103 -0.9984
  474THF     C8 6157   0.232   0.028   3.454  0.5078 -0.4864  0.2973
  474THF     C9 6158   0.263  -0.053   3.571  0.0074  0.0896 -0.7193
  474THF    H10 6159   0.322   0.074   3.412  0.3881 -0.6384 -0.1264
  474THF    H11 6160   0.180  -0.024   3.375  1.0044 -1.4509  0.5853
  474THF    H12 6161   0.208  -0.147   3.576  0.2351  0.0228  2.1020
  474THF    H13 6162   0.368  -0.083   3.566 -0.1225 -0.7084  0.8701
  475THF     O1 6163   2.920   1.255   2.836 -0.0884 -0.4171  0.4759
  475THF     C2 6164   3.050   1.307   2.863 -0.0641 -0.0075  0.1821
  475THF     C3 6165   2.852   1.335   2.734  0.0439  0.2350  0.3602
  475THF     H4 6166   3.125   1.229   2.848 -2.1832 -2.1358  0.0872
  475THF     H5 6167   3.054   1.350   2.963  1.3805  1.1083 -0.3178
  475THF     H6 6168   2.859   1.292   2.634 -0.9646  0.3655  0.2244
  475THF     H7 6169   2.746   1.338   2.758  0.1189 -0.3489  0.7896
  475THF     C8 6170   2.923   1.466   2.747  0.0879  0.3774 -0.8690
  475THF     C9 6171   3.069   1.419   2.763 -0.1595 -0.5134 -0.3815
  475THF    H10 6172   2.896   1.535   2.827  2.4627  0.0969  0.2619
  475THF    H11 6173   2.907   1.518   2.652  0.7849 -1.5228 -2.0768
  475THF    H12 6174   3.107   1.391   2.665 -0.3703  0.6771 -0.8304
  475THF    H13 6175   3.140   1.496   2.795  0.2504 -0.8115 -0.5730
  476THF     O1 6176   1.699   3.193   4.720  0.1671  0.1985 -0.3126
  476THF     C2 6177   1.749   3.070   4.670 -0.5956 -0.1580  0.1560
  476THF     C3 6178   1.590   3.164   4.801  0.2862 -0.2350 -0.2820
  476THF     H4 6179   1.800   3.007   4.743 -1.0914  0.8098  1.3863
  476THF     H5 6180   1.819   3.090   4.590  0.4154  3.3048  1.7204
  476THF     H6 6181   1.612   3.129   4.901 -1.7076 -1.6401 -0.2636
  476THF     H7 6182   1.529   3.254   4.803  0.3324 -0.2029 -0.3139
  476THF     C8 6183   1.516   3.063   4.711 -0.3837 -0.5398 -0.3817
  476THF     C9 6184   1.619   2.994   4.627 -0.3331  0.5610 -0.5139
  476THF    H10 6185   1.440   3.110   4.649 -1.4736 -3.1846 -1.2283
  476THF    H11 6186   1.463   2.991   4.774 -0.7407 -1.1299 -1.3349
  476THF    H12 6187   1.636   2.888   4.646 -1.2008  0.6589  0.9748
  476THF    H13 6188   1.607   3.002   4.519  0.5235 -0.1971 -0.6787
  477THF     O1 6189   1.129   4.031   1.291 -0.0807 -0.0638 -0.2017
  477THF     C2 6190   1.205   3.993   1.175  0.3055  0.0940 -0.5316
  477THF     C3 6191   1.014   4.089   1.240  0.1840 -0.4814 -0.0101
  477THF     H4 6192   1.237   3.888   1.174 -0.4822 -0.1504 -0.6089
  477THF     H5 6193   1.288   4.063   1.165  1.4779 -0.8186  2.0027
  477THF     H6 6194   0.937   4.089   1.317  1.5261  1.6374  1.4439
  477THF     H7 6195   1.037   4.194   1.226  0.7674 -0.5026  0.7258
  477THF     C8 6196   0.983   4.014   1.108  0.0422 -0.1951  0.0778
  477THF     C9 6197   1.118   4.004   1.047 -0.3725  0.2893  0.0361
  477THF    H10 6198   0.900   4.051   1.047  1.2646  1.8246 -0.4605
  477THF    H11 6199   0.951   3.914   1.134  0.7027 -0.6632 -0.8156
  477THF    H12 6200   1.144   3.922   0.980 -1.7054  2.1478 -2.9339
  477THF    H13 6201   1.137   4.099   0.998 -0.0220  0.3604  0.3067
  478THF     O1 6202   4.213   0.945   1.021  0.1475 -0.5104 -0.1463
  478THF     C2 6203   4.283   0.845   0.935  0.0123 -0.8089  0.2473
  478THF     C3 6204   4.074   0.906   1.050  0.1855  0.1289  0.1767
  478THF     H4 6205   4.332   0.764   0.990  1.9670  0.3350  0.3195
  478THF     H5 6206   4.356   0.899   0.876  0.3956 -0.2811  1.1731
  478THF     H6 6207   4.048   0.884   1.153 -1.1629  0.7612 -0.0093
  478THF     H7 6208   4.014   0.985   1.004  0.3825  0.6696  0.8378
  478THF     C8 6209   4.057   0.780   0.961 -0.3731  0.2226  0.6517
  478THF     C9 6210   4.167   0.782   0.855 -0.4519  0.4701 -0.3802
  478THF    H10 6211   3.957   0.786   0.917  0.0671 -0.2076 -0.4404
  478THF    H11 6212   4.062   0.688   1.018  1.9238  0.6978  1.3294
  478THF    H12 6213   4.198   0.682   0.825  0.7437  0.2227  1.5102
  478THF    H13 6214   4.133   0.841   0.770 -1.4289  0.5490  0.0497
  479THF     O1 6215   3.560   1.797   1.922  0.4812  1.0021 -0.1843
  479THF     C2 6216   3.564   1.661   1.915  0.4362  0.1295  0.3339
  479THF     C3 6217   3.427   1.832   1.960  1.0635 -0.6951  0.3108
  479THF     H4 6218   3.606   1.619   2.006  0.6749 -0.7963 -0.1907
  479THF     H5 6219   3.620   1.632   1.826 -0.5572 -0.3503 -0.1573
  479THF     H6 6220   3.405   1.800   2.061  1.8268  1.1482  1.0997
  479THF     H7 6221   3.408   1.935   1.932 -0.0918 -1.2263 -0.9939
  479THF     C8 6222   3.354   1.743   1.862  0.4087  0.7500  0.3319
  479THF     C9 6223   3.422   1.606   1.882 -0.1436  0.4734 -0.7409
  479THF    H10 6224   3.367   1.771   1.757 -2.7770  1.2785 -0.0386
  479THF    H11 6225   3.245   1.739   1.874  0.1953 -1.4834 -1.6020
  479THF    H12 6226   3.379   1.561   1.971 -1.2866  3.2575  0.2289
  479THF    H13 6227   3.423   1.537   1.798 -0.8419  0.2640 -0.5836
  480THF     O1 6228   1.473   0.154   1.784 -0.2417  0.6582  0.4141
  480THF     C2 6229   1.508   0.222   1.666 -0.1098  0.1443  0.5754
  480THF     C3 6230   1.556   0.207   1.889 -0.2376 -0.3493  0.3603
  480THF     H4 6231   1.456   0.317   1.653 -0.8501 -0.4444 -1.0365
  480THF     H5 6232   1.460   0.158   1.591  0.6878  0.9804 -0.6895
  480THF     H6 6233   1.487   0.255   1.959 -1.2389 -1.3323  0.0947
  480THF     H7 6234   1.609   0.129   1.943  0.4683  1.2713  2.0997
  480THF     C8 6235   1.654   0.302   1.816 -0.0075 -0.1273  0.0516
  480THF     C9 6236   1.659   0.245   1.676 -0.3154 -0.7739 -0.6609
  480THF    H10 6237   1.750   0.315   1.866 -0.4990  2.2056  0.5210
  480THF    H11 6238   1.609   0.401   1.824  0.3989  0.1088 -0.5202
  480THF    H12 6239   1.711   0.305   1.601  0.7894  0.0502  0.7165
  480THF    H13 6240   1.704   0.146   1.664  1.6224 -0.2081  1.1418
  481THF     O1 6241   3.428   0.972   1.543  0.1170 -0.0614  0.1435
  481THF     C2 6242   3.555   0.916   1.547  0.3338 -0.4930 -0.3000
  481THF     C3 6243   3.334   0.886   1.600  0.8660  0.2244  0.0322
  481THF     H4 6244   3.615   0.961   1.627 -0.7140  1.4693 -0.5632
  481THF     H5 6245   3.606   0.923   1.451  0.5254 -3.0702 -0.4542
  481THF     H6 6246   3.333   0.890   1.709  0.2463 -2.2989  0.1897
  481THF     H7 6247   3.232   0.900   1.564  1.0149 -0.0486 -0.4996
  481THF     C8 6248   3.377   0.751   1.548 -0.1339 -0.2686  0.2396
  481THF     C9 6249   3.527   0.766   1.577 -1.0860 -0.0803  0.0001
  481THF    H10 6250   3.346   0.731   1.445  0.5451 -2.0070  0.3399
  481THF    H11 6251   3.338   0.661   1.596  0.1585 -1.4722 -1.6541
  481THF    H12 6252   3.540   0.744   1.683  1.1311 -1.1185 -0.4341
  481THF    H13 6253   3.598   0.701   1.526  2.1512  2.6823  0.6162
  482THF     O1 6254   3.418   4.360   4.159  0.2916  0.1221 -0.1648
  482THF     C2 6255   3.380   4.496   4.156 -0.5704 -0.1487 -0.0754
  482THF     C3 6256   3.334   4.297   4.069 -0.2187  0.4569  0.6073
  482THF     H4 6257   3.445   4.569   4.204  0.6105 -0.3459 -1.3366
  482THF     H5 6258   3.281   4.517   4.196 -0.0233  1.5475  0.4606
  482THF     H6 6259   3.353   4.193   4.043 -0.1746  1.1044 -2.2463
  482THF     H7 6260   3.235   4.300   4.115 -0.2732  1.3965  0.4429
  482THF     C8 6261   3.339   4.384   3.945  0.4533 -0.0099  0.7880
  482THF     C9 6262   3.373   4.519   4.007  0.0600  0.9475 -0.2302
  482THF    H10 6263   3.250   4.397   3.883  1.1017  1.2946  0.0844
  482THF    H11 6264   3.410   4.342   3.874  0.1424 -0.8832  0.9859
  482THF    H12 6265   3.472   4.557   3.979  0.9156 -0.7178  0.4407
  482THF    H13 6266   3.305   4.600   3.981  2.3578  2.6705 -1.2771
  483THF     O1 6267   4.926   5.195   2.950  0.0496 -0.6632 -0.2775
  483THF     C2 6268   4.963   5.334   2.964 -0.5443  0.9692 -0.3032
  483THF     C3 6269   4.980   5.124   3.060 -0.9295 -0.4518  0.2399
  483THF     H4 6270   4.872   5.394   2.964 -1.9674 -1.0785 -1.6773
  483THF     H5 6271   5.019   5.378   2.881 -1.4633  0.6688 -1.1049
  483THF     H6 6272   4.921   5.089   3.145 -1.2894 -4.9566 -1.6066
  483THF     H7 6273   5.026   5.033   3.022 -0.3116 -0.1217  0.1761
  483THF     C8 6274   5.086   5.212   3.132  0.4202 -0.2627 -0.9494
  483THF     C9 6275   5.038   5.350   3.095  0.5608 -0.3216  0.6162
  483THF    H10 6276   5.179   5.190   3.080  0.1976  0.5859 -1.7205
  483THF    H11 6277   5.085   5.196   3.240 -1.9273  1.0086 -0.7074
  483THF    H12 6278   4.978   5.399   3.172  1.0664  1.9862 -0.3934
  483THF    H13 6279   5.125   5.414   3.079  0.3732 -0.2602 -0.1574
  484THF     O1 6280   3.507   5.227   0.643 -0.1013 -0.3201  0.4169
  484THF     C2 6281   3.577   5.333   0.586 -0.4406 -0.5461 -0.0578
  484THF     C3 6282   3.464   5.265   0.771  0.5717  0.6710 -0.2445
  484THF     H4 6283   3.515   5.371   0.505 -0.4394  0.6023  0.4687
  484THF     H5 6284   3.670   5.292   0.548 -1.0454 -0.6557 -1.4943
  484THF     H6 6285   3.367   5.315   0.772 -0.1310 -0.6398 -0.8134
  484THF     H7 6286   3.449   5.184   0.842  0.0500 -0.1888 -1.3071
  484THF     C8 6287   3.572   5.359   0.825  0.4938 -0.1642 -0.3150
  484THF     C9 6288   3.591   5.437   0.697 -0.6417  0.8080  0.2864
  484THF    H10 6289   3.663   5.301   0.840 -0.0879 -1.0866 -0.2559
  484THF    H11 6290   3.543   5.422   0.909  2.0018  0.2490 -0.0787
  484THF    H12 6291   3.524   5.523   0.693  0.4646  1.8297  2.2185
  484THF    H13 6292   3.683   5.494   0.696 -0.9998  1.4242 -1.1436
  485THF     O1 6293   4.602   3.077   0.957  0.0084 -0.4267 -0.4189
  485THF     C2 6294   4.590   3.197   0.875 -0.0398 -0.2407  0.5922
  485THF     C3 6295   4.621   3.121   1.090 -0.0681  0.9677 -0.3769
  485THF     H4 6296   4.539   3.173   0.782 -0.2860 -0.3079  0.7420
  485THF     H5 6297   4.684   3.242   0.846 -1.1649  1.6785 -0.2436
  485THF     H6 6298   4.606   3.038   1.159  1.2496  1.3018  0.3670
  485THF     H7 6299   4.719   3.169   1.100  1.9476 -2.1431 -3.0623
  485THF     C8 6300   4.508   3.222   1.098 -0.6926  0.0337  0.6561
  485THF     C9 6301   4.518   3.291   0.968 -0.1477 -1.0858  0.6365
  485THF    H10 6302   4.524   3.287   1.185  1.1250 -0.6523  0.8784
  485THF    H11 6303   4.413   3.169   1.106  0.5386 -3.0564 -2.7651
  485THF    H12 6304   4.422   3.326   0.932  0.7164  0.4445 -0.3104
  485THF    H13 6305   4.573   3.384   0.987 -0.1654 -1.0329  0.4305
  486THF     O1 6306   4.991   4.119   3.365  0.4435 -0.0126  0.2640
  486THF     C2 6307   5.069   4.214   3.436 -0.3202 -0.4457  0.3192
  486THF     C3 6308   5.027   4.125   3.226  0.0394  0.1858 -0.2462
  486THF     H4 6309   5.156   4.156   3.468 -2.8391 -2.7622  3.6821
  486THF     H5 6310   5.018   4.250   3.525 -0.2373  1.5419 -0.4011
  486THF     H6 6311   5.078   4.034   3.194 -1.5878 -0.8163 -0.1219
  486THF     H7 6312   4.938   4.124   3.163 -1.5621 -0.5318  1.8959
  486THF     C8 6313   5.116   4.252   3.203  0.1325  0.2939 -0.5281
  486THF     C9 6314   5.098   4.325   3.336  0.4646  0.1097  0.4063
  486THF    H10 6315   5.091   4.311   3.115 -2.4732 -1.3132 -0.9686
  486THF    H11 6316   5.219   4.218   3.191 -0.6032 -1.8320 -1.3823
  486THF    H12 6317   5.180   4.393   3.362  0.1164  1.5239 -1.8587
  486THF    H13 6318   5.011   4.389   3.318  0.6749 -0.0690 -1.3903
  487THF     O1 6319   4.613   4.219   0.960 -0.2759 -0.0064  0.3624
  487THF     C2 6320   4.490   4.166   0.974  0.1853  0.2194 -0.4368
  487THF     C3 6321   4.620   4.346   1.027 -0.2917  0.1544 -0.2698
  487THF     H4 6322   4.487   4.099   1.060 -3.9994  0.1467 -0.4595
  487THF     H5 6323   4.458   4.101   0.894  1.2502 -1.9207  0.7889
  487THF     H6 6324   4.628   4.328   1.134 -0.9217 -2.7654 -0.6207
  487THF     H7 6325   4.710   4.400   0.997 -2.1171  2.6111 -1.7066
  487THF     C8 6326   4.489   4.407   0.995  0.4115  0.6247 -0.7354
  487THF     C9 6327   4.396   4.289   0.999 -0.1123 -0.2560  0.1966
  487THF    H10 6328   4.503   4.456   0.899 -0.7458  0.5815 -0.9471
  487THF    H11 6329   4.454   4.482   1.065 -1.6286 -1.0319  0.1423
  487THF    H12 6330   4.355   4.263   1.096 -0.1864 -2.3218 -0.3436
  487THF    H13 6331   4.323   4.292   0.918 -0.0399  3.4312  0.1074
  488THF     O1 6332   3.595   4.122   0.621 -0.0536 -0.2053 -0.3087
  488THF     C2 6333   3.696   4.213   0.592 -0.4350 -0.3883  0.1904
  488THF     C3 6334   3.472   4.190   0.620 -0.1702 -0.2389 -0.3769
  488THF     H4 6335   3.693   4.242   0.487  0.7698  0.8868  0.4819
  488THF     H5 6336   3.798   4.177   0.605  0.0895  1.0566  0.1654
  488THF     H6 6337   3.438   4.180   0.516  1.8604  0.8456 -1.2015
  488THF     H7 6338   3.414   4.133   0.693  1.0783 -2.2058 -0.8405
  488THF     C8 6339   3.503   4.335   0.662  0.5251 -0.2144 -0.4388
  488THF     C9 6340   3.659   4.341   0.662 -0.3589  0.5711  0.5917
  488THF    H10 6341   3.463   4.357   0.761 -2.5226  0.1691 -1.6608
  488THF    H11 6342   3.462   4.412   0.598  2.2849  0.5519 -0.7130
  488THF    H12 6343   3.706   4.422   0.606  1.5626 -0.8125  0.1087
  488THF    H13 6344   3.699   4.341   0.763  3.1232  2.9190 -0.6031
  489THF     O1 6345   1.394   1.985   0.520 -0.2457  0.6125  0.6476
  489THF     C2 6346   1.484   2.080   0.464  0.3499 -0.2420  0.1499
  489THF     C3 6347   1.405   2.001   0.658 -0.4311  0.1800  0.5003
  489THF     H4 6348   1.464   2.114   0.362  2.9150 -0.2474 -0.4226
  489THF     H5 6349   1.584   2.040   0.447 -0.7772 -2.7146 -1.2198
  489THF     H6 6350   1.315   1.959   0.704  1.2112 -4.0675  0.2715
  489THF     H7 6351   1.495   1.954   0.698  0.8485  2.3903  0.3876
  489THF     C8 6352   1.424   2.149   0.684 -0.4870 -1.0874  0.4238
  489THF     C9 6353   1.492   2.199   0.561 -0.1322  0.2624  0.5567
  489THF    H10 6354   1.486   2.167   0.772  0.4663  0.5309 -0.5193
  489THF    H11 6355   1.339   2.215   0.701 -0.1109 -0.4657 -0.0721
  489THF    H12 6356   1.448   2.288   0.517 -0.8916  0.4826  1.7186
  489THF    H13 6357   1.596   2.226   0.579  0.7822 -0.3470 -2.9516
  490THF     O1 6358   1.217   3.076   5.108  0.4116  0.1958  0.4467
  490THF     C2 6359   1.241   3.134   4.977  0.1507  0.1695  0.0240
  490THF     C3 6360   1.155   3.171   5.187 -0.0219 -0.2881 -0.1504
  490THF     H4 6361   1.251   3.051   4.907  0.2254  0.7231 -0.6323
  490THF     H5 6362   1.329   3.199   4.981 -0.5808  1.1132  1.8382
  490THF     H6 6363   1.112   3.128   5.277  0.5094 -0.1952  0.1526
  490THF     H7 6364   1.230   3.242   5.221 -3.0111  2.0601  2.2138
  490THF     C8 6365   1.055   3.239   5.095 -0.2774  0.4019  0.6307
  490THF     C9 6366   1.114   3.223   4.958 -0.7706 -0.0628 -0.4227
  490THF    H10 6367   1.039   3.346   5.113  1.3145  1.1341 -1.7508
  490THF    H11 6368   0.957   3.191   5.092  1.0297 -2.3888 -1.0673
  490THF    H12 6369   1.056   3.155   4.896  0.2410 -1.7012  0.3557
  490THF    H13 6370   1.126   3.319   4.909 -0.6980  0.3040  0.3072
  491THF     O1 6371   0.811   2.826   2.171  0.1738 -0.2945 -0.4538
  491THF     C2 6372   0.712   2.826   2.072  0.1082 -1.0105  0.6189
  491THF     C3 6373   0.806   2.961   2.216 -0.3137 -0.3407 -0.4807
  491THF     H4 6374   0.606   2.828   2.101  0.4951 -0.7337  2.1082
  491THF     H5 6375   0.719   2.734   2.013 -0.5085 -0.3825 -0.4633
  491THF     H6 6376   0.764   2.976   2.315  1.4125 -0.6236  0.3319
  491THF     H7 6377   0.908   2.998   2.230  0.3386 -1.6171 -1.6816
  491THF     C8 6378   0.755   3.048   2.109  0.8549 -0.1281 -0.0925
  491THF     C9 6379   0.749   2.949   1.992  0.3008  0.5661 -0.4816
  491THF    H10 6380   0.827   3.128   2.090 -1.1996  1.7254 -0.5299
  491THF    H11 6381   0.659   3.092   2.136 -0.1043 -1.1739 -1.6258
  491THF    H12 6382   0.682   2.987   1.915 -0.4308 -3.6271 -2.1898
  491THF    H13 6383   0.845   2.935   1.941 -0.3008  0.4831 -1.6405
  492THF     O1 6384   0.834   3.232   0.390  0.5673  0.1465  0.1474
  492THF     C2 6385   0.792   3.338   0.467  0.1508 -1.0241 -0.1976
  492THF     C3 6386   0.932   3.282   0.304  0.4552 -0.4288 -0.0653
  492THF     H4 6387   0.869   3.360   0.541 -0.2993  1.9786 -0.4920
  492THF     H5 6388   0.698   3.315   0.516 -0.4646 -1.1729 -1.4157
  492THF     H6 6389   1.026   3.301   0.356  0.2640  2.5218 -0.5980
  492THF     H7 6390   0.958   3.221   0.217 -1.2555  0.2990 -1.1480
  492THF     C8 6391   0.871   3.416   0.252 -0.5726 -0.2293  0.4379
  492THF     C9 6392   0.791   3.458   0.370  0.6442  0.3309  0.0489
  492THF    H10 6393   0.810   3.400   0.163 -0.8146  1.8058  0.1859
  492THF    H11 6394   0.944   3.495   0.234 -2.3176  1.7376  1.6353
  492THF    H12 6395   0.829   3.548   0.419  1.6148  0.2939 -0.6146
  492THF    H13 6396   0.694   3.501   0.344  0.4379  0.5678  1.1565
  493THF     O1 6397   2.409   4.883   0.826  0.0714  0.6073 -0.1513
  493THF     C2 6398   2.414   4.863   0.688  0.7272 -0.0155 -0.3659
  493THF     C3 6399   2.390   4.760   0.900 -0.4367  0.2225 -0.0608
  493THF     H4 6400   2.517   4.850   0.654  0.0290 -3.4254 -1.6219
  493THF     H5 6401   2.370   4.942   0.628 -1.1673 -1.5873 -1.1935
  493THF     H6 6402   2.473   4.690   0.915 -0.5791  0.4398  1.9311
  493THF     H7 6403   2.352   4.781   0.999  2.1722 -2.1755  1.6226
  493THF     C8 6404   2.288   4.696   0.810  0.4031 -0.2376 -0.2626
  493THF     C9 6405   2.336   4.735   0.664  0.4503  0.3182  0.1449
  493THF    H10 6406   2.195   4.749   0.831 -0.1317 -1.5034  0.6378
  493THF    H11 6407   2.263   4.591   0.823 -0.7076  0.1763  1.3230
  493THF    H12 6408   2.408   4.659   0.633  1.5752  1.6272 -0.5996
  493THF    H13 6409   2.251   4.744   0.597  0.8040 -0.9361 -0.4865
  494THF     O1 6410   0.494   2.023   0.086  0.1187 -0.2480 -0.2859
  494THF     C2 6411   0.413   1.915   0.046 -0.4874 -0.2120 -0.3794
  494THF     C3 6412   0.559   2.064  -0.030  0.0879  1.0408 -0.0039
  494THF     H4 6413   0.324   1.947  -0.008  0.5603  0.2666 -1.8768
  494THF     H5 6414   0.385   1.854   0.132 -1.0715 -1.0602 -1.1572
  494THF     H6 6415   0.498   2.122  -0.099  0.8103  0.1871 -1.4120
  494THF     H7 6416   0.646   2.123  -0.003 -0.4449  1.6724  0.3445
  494THF     C8 6417   0.609   1.926  -0.086 -0.3892  0.1541  0.4058
  494THF     C9 6418   0.500   1.826  -0.049  0.7202  0.5544  0.0699
  494THF    H10 6419   0.699   1.896  -0.031  0.7724  1.5305 -0.6584
  494THF    H11 6420   0.653   1.922  -0.185 -0.2355  2.4463  0.3239
  494THF    H12 6421   0.437   1.801  -0.133 -0.2707  0.8094  0.7184
  494THF    H13 6422   0.529   1.731  -0.004 -3.7259 -0.2663  1.7397
  495THF     O1 6423   3.132   1.104   3.469 -0.6907 -0.1044 -0.0058
  495THF     C2 6424   3.048   1.054   3.575 -0.8161  0.6757 -0.1954
  495THF     C3 6425   3.258   1.153   3.519  0.0974 -0.0951 -0.4331
  495THF     H4 6426   2.976   0.983   3.534  0.8414 -0.8914 -0.5238
  495THF     H5 6427   3.003   1.140   3.624 -0.0214  0.9067  0.1367
  495THF     H6 6428   3.331   1.152   3.438 -2.1051 -0.9348 -2.5346
  495THF     H7 6429   3.236   1.250   3.563  2.1305  0.7391 -1.1707
  495THF     C8 6430   3.280   1.046   3.628 -0.1471 -0.9500 -0.4826
  495THF     C9 6431   3.138   0.999   3.677 -0.3655  0.0625 -0.7563
  495THF    H10 6432   3.334   1.104   3.704  0.1724 -0.7893 -0.8283
  495THF    H11 6433   3.340   0.962   3.594  1.5613 -1.2558  2.9007
  495THF    H12 6434   3.141   0.891   3.692 -3.2602  0.0806  0.8571
  495THF    H13 6435   3.117   1.045   3.774  1.8891 -1.5034  0.5567
  496THF     O1 6436   4.290   2.253   3.497  0.3316  0.1134  0.2575
  496THF     C2 6437   4.270   2.349   3.390 -0.7917  0.6169 -0.0756
  496THF     C3 6438   4.388   2.300   3.581 -0.0948 -0.1323 -0.2564
  496THF     H4 6439   4.164   2.346   3.365 -1.1844 -0.2831  1.5281
  496THF     H5 6440   4.335   2.332   3.305  1.5005 -0.0334  1.7015
  496THF     H6 6441   4.383   2.265   3.685  1.3554  0.0850 -0.0969
  496THF     H7 6442   4.486   2.278   3.541  0.2941  0.0919  0.5464
  496THF     C8 6443   4.355   2.448   3.583  0.5961  0.2474 -0.7019
  496THF     C9 6444   4.312   2.486   3.446  0.0916  0.2074 -0.2935
  496THF    H10 6445   4.436   2.508   3.625 -0.8384  1.0417  1.0856
  496THF    H11 6446   4.273   2.465   3.653  0.9003  0.0039 -0.2811
  496THF    H12 6447   4.242   2.569   3.444 -1.2798 -0.9480 -2.2011
  496THF    H13 6448   4.398   2.513   3.385  1.8826 -1.6645  1.2580
  497THF     O1 6449   3.282   0.402   5.312 -0.5940 -1.2359 -0.3513
  497THF     C2 6450   3.378   0.395   5.211 -0.0246  0.5534 -0.3941
  497THF     C3 6451   3.308   0.314   5.422 -0.0710 -0.0426  0.3728
  497THF     H4 6452   3.467   0.456   5.226  1.3754 -0.8184 -2.5833
  497THF     H5 6453   3.317   0.426   5.126 -1.9206  0.8112  0.9793
  497THF     H6 6454   3.358   0.361   5.506 -0.9298  3.6624 -1.0027
  497THF     H7 6455   3.217   0.267   5.460 -0.0840 -0.7429 -0.4697
  497THF     C8 6456   3.415   0.218   5.360  0.4747  0.0146 -1.1128
  497THF     C9 6457   3.415   0.252   5.212  0.0944  0.2407 -0.1385
  497THF    H10 6458   3.396   0.112   5.380  1.0703 -0.2682 -1.9932
  497THF    H11 6459   3.512   0.247   5.401  0.6439 -2.1753  0.2258
  497THF    H12 6460   3.503   0.220   5.155 -1.1632  0.7293 -2.4833
  497THF    H13 6461   3.345   0.184   5.163  2.6392 -2.1252 -0.7339
  498THF     O1 6462   1.337   4.893   0.759 -0.2298  0.0834  0.6112
  498THF     C2 6463   1.414   4.917   0.875 -0.9258 -0.2328  0.6036
  498THF     C3 6464   1.413   4.913   0.637 -0.7799  0.1370 -0.1603
  498THF     H4 6465   1.449   4.819   0.905  1.0454  0.0258 -0.6884
  498THF     H5 6466   1.371   4.968   0.961  1.4755  2.1970  0.5054
  498THF     H6 6467   1.464   4.821   0.609  0.9226  1.1186 -0.4166
  498THF     H7 6468   1.340   4.942   0.561 -3.3179  0.7841  2.3589
  498THF     C8 6469   1.515   5.018   0.676  0.5143 -0.2022 -0.0330
  498THF     C9 6470   1.538   4.990   0.821  0.1586  0.2235 -0.4677
  498THF    H10 6471   1.474   5.119   0.666  0.7061  0.1204  1.9875
  498THF    H11 6472   1.605   5.016   0.614  0.8753 -2.2974  0.4857
  498THF    H12 6473   1.622   4.922   0.833  0.2985  0.5358  0.3413
  498THF    H13 6474   1.553   5.084   0.875 -0.9667  0.1412  0.0309
  499THF     O1 6475   1.264   3.716   4.759  0.2794  0.1754  0.1337
  499THF     C2 6476   1.228   3.591   4.806 -0.6034  0.3554 -0.5650
  499THF     C3 6477   1.172   3.816   4.805 -0.6326 -0.3216 -0.0146
  499THF     H4 6478   1.325   3.552   4.838  0.6469  1.9526 -2.1858
  499THF     H5 6479   1.188   3.529   4.726 -1.3422  0.6180 -0.4104
  499THF     H6 6480   1.211   3.899   4.863 -1.1552  0.4784 -0.7898
  499THF     H7 6481   1.134   3.875   4.721  1.4406  1.4581  0.2155
  499THF     C8 6482   1.069   3.743   4.885  0.0272 -0.3368 -0.2542
  499THF     C9 6483   1.126   3.609   4.922 -0.1769  0.1224  0.5272
  499THF    H10 6484   0.980   3.722   4.825 -0.6892  0.7851  0.3736
  499THF    H11 6485   1.045   3.802   4.974  0.5023  0.7664 -0.8381
  499THF    H12 6486   1.187   3.616   5.012 -1.6522 -1.4837  1.7318
  499THF    H13 6487   1.049   3.533   4.937 -0.4461 -0.2117 -1.9995
  500THF     O1 6488   4.414   1.990   4.634  0.1936  0.4994 -0.0799
  500THF     C2 6489   4.461   2.123   4.644  0.5004  0.1035  0.5793
  500THF     C3 6490   4.527   1.900   4.650  1.2565 -0.2783 -0.5046
  500THF     H4 6491   4.451   2.165   4.744  0.9562  1.0499  0.2386
  500THF     H5 6492   4.393   2.174   4.575  2.1532  1.4044 -0.1593
  500THF     H6 6493   4.533   1.864   4.753 -1.2912  1.7883  0.4880
  500THF     H7 6494   4.509   1.809   4.594 -3.3320 -1.2922  2.0634
  500THF     C8 6495   4.651   1.984   4.615  0.2602 -0.3586 -0.2230
  500THF     C9 6496   4.597   2.122   4.581  0.3487 -0.2443  0.1381
  500THF    H10 6497   4.711   1.942   4.534  0.3086 -1.9889  0.6033
  500THF    H11 6498   4.723   1.984   4.697  0.2449 -0.7104 -0.2052
  500THF    H12 6499   4.656   2.209   4.610  0.2389 -0.3576  0.7234
  500THF    H13 6500   4.580   2.134   4.475  0.9773  2.1963  0.2600
  501THF     O1 6501   2.249   1.293   2.858 -0.2399  0.7417  0.1661
  501THF     C2 6502   2.285   1.241   2.732  0.1502  0.3522  0.2957
  501THF     C3 6503   2.352   1.302   2.952 -0.0063 -0.1077  0.6968
  501THF     H4 6504   2.280   1.328   2.666  2.6031  1.6217  1.6670
  501THF     H5 6505   2.211   1.168   2.701 -1.6819  2.3453 -0.2948
  501THF     H6 6506   2.362   1.401   2.997 -0.3567 -0.1471  0.8701
  501THF     H7 6507   2.332   1.223   3.024  1.3928 -1.7364 -0.6291
  501THF     C8 6508   2.475   1.268   2.871 -0.0297 -0.2432 -0.4578
  501THF     C9 6509   2.428   1.187   2.748 -0.0897 -0.1675 -0.6044
  501THF    H10 6510   2.536   1.216   2.945  0.0528 -1.5101 -1.3819
  501THF    H11 6511   2.529   1.360   2.849 -0.6216  0.7767  1.9958
  501THF    H12 6512   2.491   1.212   2.662  0.0864  0.1664 -0.3816
  501THF    H13 6513   2.431   1.080   2.768  0.5819  0.2312  1.7261
  502THF     O1 6514   4.067   1.909   3.534  0.4321 -0.1913  0.1105
  502THF     C2 6515   4.200   1.883   3.493  0.0725 -0.2909 -0.0512
  502THF     C3 6516   3.973   1.808   3.487 -0.8003  0.1545 -0.1121
  502THF     H4 6517   4.271   1.929   3.562 -0.4672 -1.3477  1.2393
  502THF     H5 6518   4.223   1.917   3.392  0.8790  1.7189  0.7536
  502THF     H6 6519   3.894   1.808   3.562 -1.2114  1.9152 -0.5115
  502THF     H7 6520   3.945   1.827   3.383  1.9665  0.2229 -0.9358
  502THF     C8 6521   4.060   1.681   3.493 -0.3048  0.4375 -0.2058
  502THF     C9 6522   4.198   1.731   3.523  0.3358 -0.1264  0.2595
  502THF    H10 6523   4.072   1.629   3.398  1.7553 -0.9653  0.7665
  502THF    H11 6524   4.027   1.600   3.557  1.4598 -0.9122 -0.9119
  502THF    H12 6525   4.220   1.726   3.630  2.1266  0.5234 -0.0353
  502THF    H13 6526   4.274   1.676   3.468  0.9418  2.3536 -1.5651
  503THF     O1 6527   5.057   2.313   4.480 -0.1899 -0.2587 -0.3145
  503THF     C2 6528   5.049   2.440   4.415 -0.3871  0.6508 -0.3953
  503THF     C3 6529   5.041   2.335   4.618 -0.3362 -0.6840 -0.5725
  503THF     H4 6530   5.018   2.443   4.311 -1.9080 -0.5453 -0.0160
  503THF     H5 6531   5.143   2.495   4.421  0.3268 -0.6035  0.6152
  503THF     H6 6532   5.010   2.234   4.646  1.1654 -1.1469 -0.5163
  503THF     H7 6533   5.136   2.360   4.664 -1.0753  0.6102  0.3118
  503THF     C8 6534   4.927   2.438   4.625  0.5085 -0.0917 -0.5076
  503THF     C9 6535   4.946   2.517   4.494  0.2049 -0.2312  0.1675
  503THF    H10 6536   4.936   2.492   4.719  1.9579  1.0021 -1.2434
  503THF    H11 6537   4.829   2.390   4.631  0.2438  0.3288 -1.3415
  503THF    H12 6538   4.853   2.522   4.436  1.1704  1.0368 -1.3683
  503THF    H13 6539   4.979   2.620   4.505  1.9194 -0.3116 -2.9627
  504THF     O1 6540   2.972   3.007   2.580 -0.9277  0.6683 -0.2904
  504THF     C2 6541   3.046   3.003   2.463  0.1223 -0.1986  0.2330
  504THF     C3 6542   3.059   3.064   2.676 -0.0112 -0.0315 -0.4535
  504THF     H4 6543   3.053   3.102   2.418 -1.8368  0.4235  1.2030
  504THF     H5 6544   2.993   2.936   2.395 -0.4912 -0.0038  0.5163
  504THF     H6 6545   3.062   3.173   2.667 -1.4094 -0.0058 -1.0118
  504THF     H7 6546   3.019   3.052   2.776 -1.1159  1.1439 -0.7223
  504THF     C8 6547   3.196   3.001   2.646 -0.0898  0.1971  0.3147
  504THF     C9 6548   3.171   2.934   2.513  0.7649  0.8572 -0.3147
  504THF    H10 6549   3.218   2.924   2.720  0.1839  0.4340  0.4820
  504THF    H11 6550   3.277   3.072   2.630  0.8731 -1.0708 -0.6618
  504THF    H12 6551   3.249   2.961   2.442 -1.7425  1.1285 -3.1674
  504THF    H13 6552   3.164   2.826   2.522 -0.3966  0.9148 -0.4538
  505THF     O1 6553   0.767   3.205   5.234  0.2912  0.6107 -0.4286
  505THF     C2 6554   0.787   3.257   5.357 -0.2238 -0.3052 -0.9026
  505THF     C3 6555   0.678   3.300   5.172 -0.3192 -0.3735 -0.7295
  505THF     H4 6556   0.876   3.215   5.404 -1.1702  0.0191  1.2849
  505THF     H5 6557   0.704   3.234   5.423 -0.5291 -0.6923 -1.4148
  505THF     H6 6558   0.681   3.286   5.064  0.8885  0.5012 -0.8176
  505THF     H7 6559   0.579   3.289   5.218  0.6802  1.8716  2.2720
  505THF     C8 6560   0.729   3.437   5.212  0.2212 -0.2569  0.2165
  505THF     C9 6561   0.792   3.409   5.345 -0.0652  0.1380 -0.2735
  505THF    H10 6562   0.649   3.510   5.226  0.7763  0.1464  1.4239
  505THF    H11 6563   0.803   3.482   5.146 -0.4412 -0.0239 -0.3750
  505THF    H12 6564   0.889   3.458   5.330  0.8996 -1.5079  0.3426
  505THF    H13 6565   0.751   3.468   5.428  0.5177 -0.7863  0.6908
  506THF     O1 6566   1.754   3.242   2.095  0.5536  0.2270  0.1400
  506THF     C2 6567   1.835   3.219   1.981 -0.2273  1.2259 -0.3794
  506THF     C3 6568   1.777   3.148   2.197 -0.0256 -0.4284 -0.3197
  506THF     H4 6569   1.862   3.314   1.933 -2.1351  1.4413 -1.1218
  506THF     H5 6570   1.797   3.147   1.909  4.1551 -0.5262 -1.2181
  506THF     H6 6571   1.774   3.195   2.296  0.7624 -0.9409 -0.0441
  506THF     H7 6572   1.695   3.079   2.182 -0.1943 -0.1480 -0.6886
  506THF     C8 6573   1.917   3.095   2.161  0.4780  0.3677  0.4008
  506THF     C9 6574   1.970   3.165   2.034 -0.5778  0.4947 -0.2123
  506THF    H10 6575   1.912   2.987   2.145 -1.0142  0.5973 -0.9778
  506THF    H11 6576   1.986   3.112   2.243 -0.7321  0.3305  1.4590
  506THF    H12 6577   2.037   3.247   2.061 -0.3434  0.4059 -0.5216
  506THF    H13 6578   2.036   3.104   1.971  0.2315  2.4201 -1.3069
  507THF     O1 6579   5.233   3.996   4.714  0.4239 -0.3187 -0.1765
  507THF     C2 6580   5.217   3.916   4.595  0.8348 -0.0956  0.6170
  507THF     C3 6581   5.279   3.911   4.821  0.0830  0.3290  0.5087
  507THF     H4 6582   5.315   3.913   4.547  1.3748  0.8658  1.6011
  507THF     H5 6583   5.150   3.960   4.522  1.4719  0.3888  0.3132
  507THF     H6 6584   5.386   3.932   4.829  0.4342 -1.7680  2.3891
  507THF     H7 6585   5.230   3.945   4.912 -0.0561  1.7686 -0.0696
  507THF     C8 6586   5.248   3.765   4.780 -0.0209 -0.4211  0.5469
  507THF     C9 6587   5.166   3.786   4.657 -0.0200 -0.2917 -0.1560
  507THF    H10 6588   5.189   3.700   4.845 -0.5561 -1.0735 -0.5666
  507THF    H11 6589   5.346   3.722   4.759  0.0926 -1.2125  2.4926
  507THF    H12 6590   5.178   3.702   4.589 -0.5241 -0.6433  0.1817
  507THF    H13 6591   5.059   3.802   4.676  0.7374  4.2887  1.4799
  508THF     O1 6592   4.029   2.242   4.169  0.2660  0.4072 -0.0725
  508THF     C2 6593   3.963   2.176   4.056  0.1177  0.5591 -0.8210
  508THF     C3 6594   4.018   2.161   4.284  0.1683  0.1932  0.0584
  508THF     H4 6595   4.043   2.132   3.997  0.5911  0.0878  0.1528
  508THF     H5 6596   3.900   2.259   4.022 -0.8555  0.9665  1.7623
  508THF     H6 6597   4.113   2.134   4.330  0.0565  0.1506  0.2646
  508THF     H7 6598   3.958   2.192   4.370  1.4456 -1.0239  1.4357
  508THF     C8 6599   3.961   2.033   4.224 -0.1576  0.0293 -0.8954
  508THF     C9 6600   3.871   2.071   4.111  0.6761  0.0349  0.4151
  508THF    H10 6601   3.904   1.974   4.296  0.0318  0.3559 -0.4827
  508THF    H11 6602   4.031   1.961   4.181  1.0476 -0.3027  1.4742
  508THF    H12 6603   3.850   1.998   4.033  2.0587  0.2377 -0.1650
  508THF    H13 6604   3.774   2.110   4.141  0.0290 -0.7812 -0.5318
  509THF     O1 6605   3.107   1.712   3.562  0.0242 -0.4164 -0.4127
  509THF     C2 6606   3.083   1.712   3.708 -0.4131 -0.8433  0.0710
  509THF     C3 6607   2.979   1.674   3.503 -0.8401 -0.4546 -0.4879
  509THF     H4 6608   3.027   1.799   3.744 -0.9636 -1.2376  0.1876
  509THF     H5 6609   3.177   1.705   3.762  1.2619  0.2697 -2.5117
  509THF     H6 6610   2.910   1.757   3.515 -0.9093 -0.8735  2.6612
  509THF     H7 6611   2.988   1.643   3.398 -3.0492 -1.8923 -0.3156
  509THF     C8 6612   2.941   1.557   3.591  0.3333  0.0883 -0.2505
  509THF     C9 6613   2.994   1.590   3.732  0.2405  0.5585 -0.0048
  509THF    H10 6614   2.968   1.457   3.558  1.0372  0.1732  0.0521
  509THF    H11 6615   2.832   1.552   3.596  0.3527  0.6609  1.0693
  509THF    H12 6616   2.905   1.601   3.792  0.4696 -1.0177  0.6849
  509THF    H13 6617   3.063   1.511   3.762  1.4935  0.7924 -2.0536
  510THF     O1 6618   4.717   5.017   3.620  0.4680 -0.1776  0.4363
  510THF     C2 6619   4.842   4.962   3.583  0.4079  0.0054 -0.1461
  510THF     C3 6620   4.625   4.937   3.564  0.3666 -0.4342  0.0194
  510THF     H4 6621   4.860   4.869   3.636  0.0714  0.4036  0.6843
  510THF     H5 6622   4.934   5.017   3.601 -0.5716  1.4988  0.5317
  510THF     H6 6623   4.612   4.844   3.620 -2.9968 -1.3329 -1.8964
  510THF     H7 6624   4.535   4.998   3.565  1.1023  0.7352 -1.2821
  510THF     C8 6625   4.675   4.901   3.422 -0.5061 -0.2055 -0.1117
  510THF     C9 6626   4.825   4.922   3.434 -0.1687 -0.5632  0.1738
  510THF    H10 6627   4.628   4.965   3.347 -1.3895 -1.6040 -0.7874
  510THF    H11 6628   4.659   4.796   3.398 -1.1477 -0.2814  0.6136
  510THF    H12 6629   4.881   4.830   3.417  2.3922  1.2239 -1.6861
  510THF    H13 6630   4.872   5.004   3.380 -1.3347  0.0496  0.0661
  511THF     O1 6631   3.601   4.774   4.913  0.1926 -0.9084  0.0372
  511THF     C2 6632   3.627   4.856   5.025  0.0149  0.1016 -0.3659
  511THF     C3 6633   3.703   4.683   4.903  0.2987 -0.1978 -0.2246
  511THF     H4 6634   3.539   4.902   5.071 -0.2680  0.5947 -1.3800
  511THF     H5 6635   3.696   4.936   4.999  0.0830  0.5483  1.0999
  511THF     H6 6636   3.672   4.590   4.857 -0.7694 -1.4951  2.8606
  511THF     H7 6637   3.774   4.728   4.834 -0.5447  0.7257 -0.5150
  511THF     C8 6638   3.768   4.663   5.036 -0.2562 -0.2629  0.4404
  511THF     C9 6639   3.693   4.763   5.130  0.4754  0.6877 -0.3005
  511THF    H10 6640   3.874   4.687   5.043 -0.1793 -0.9231  2.1693
  511THF    H11 6641   3.760   4.558   5.064  2.1880 -0.3384  1.0963
  511THF    H12 6642   3.614   4.707   5.180 -0.2863  0.4201 -1.7591
  511THF    H13 6643   3.750   4.812   5.209 -0.6614 -0.3879  1.2442
  512THF     O1 6644   1.453   1.861   0.216 -0.0309 -0.0658  0.3050
  512THF     C2 6645   1.409   1.871   0.081 -0.0247  0.3441  0.5240
  512THF     C3 6646   1.592   1.830   0.220  0.4332 -0.4448  0.3432
  512THF     H4 6647   1.380   1.972   0.053  0.3891  0.3279  0.0243
  512THF     H5 6648   1.315   1.816   0.072  0.3859 -0.2537 -0.1625
  512THF     H6 6649   1.648   1.922   0.205 -1.1448  0.6188  0.7154
  512THF     H7 6650   1.620   1.783   0.314  1.6913  0.5484  0.4854
  512THF     C8 6651   1.603   1.735   0.102 -0.1739 -0.0591  0.2584
  512THF     C9 6652   1.519   1.808  -0.008  0.0997 -0.2043 -0.2508
  512THF    H10 6653   1.555   1.644   0.139 -2.2902  0.2741 -1.4505
  512THF    H11 6654   1.706   1.719   0.068 -0.7311  2.1926 -2.9326
  512THF    H12 6655   1.578   1.882  -0.062  1.3577 -1.3294 -0.4939
  512THF    H13 6656   1.482   1.748  -0.091  0.2674  1.8687 -1.9042
  513THF     O1 6657   4.270   0.937   0.205  0.0479  0.5108 -0.5794
  513THF     C2 6658   4.215   1.009   0.309  0.2842 -0.2693 -0.3765
  513THF     C3 6659   4.191   0.818   0.186  0.0389 -0.0295  0.3336
  513THF     H4 6660   4.133   1.066   0.266 -0.5888 -1.1119  0.1199
  513THF     H5 6661   4.296   1.061   0.359  0.5519  0.1630 -1.2487
  513THF     H6 6662   4.100   0.858   0.142 -0.0334  0.9045  1.2838
  513THF     H7 6663   4.238   0.749   0.115  0.3902  1.9334 -1.4605
  513THF     C8 6664   4.157   0.778   0.325  0.2278  0.2033 -0.6790
  513THF     C9 6665   4.147   0.906   0.400 -1.0087 -0.8719 -1.2264
  513THF    H10 6666   4.249   0.729   0.359  0.9947  0.8592 -1.7214
  513THF    H11 6667   4.067   0.720   0.344 -0.5508  1.3734 -0.6536
  513THF    H12 6668   4.042   0.930   0.415 -0.6750  0.1910 -0.4771
  513THF    H13 6669   4.200   0.918   0.495 -0.5515 -2.2593 -1.2763
  514THF     O1 6670   2.785   0.126   3.600 -0.4025  0.2276 -0.3004
  514THF     C2 6671   2.763   0.265   3.599  0.3117  0.3196 -0.1712
  514THF     C3 6672   2.857   0.081   3.490  0.5567 -0.0770 -0.3050
  514THF     H4 6673   2.850   0.318   3.639  0.1511  1.9102 -1.8077
  514THF     H5 6674   2.675   0.293   3.656  0.4957  1.4540 -0.4248
  514THF     H6 6675   2.961   0.112   3.502  0.9162 -1.1267 -0.6110
  514THF     H7 6676   2.852  -0.023   3.460  2.1787  0.0113 -0.9898
  514THF     C8 6677   2.801   0.170   3.380  0.1753 -0.5336 -0.3043
  514THF     C9 6678   2.759   0.295   3.456  0.4476 -0.0978  0.0561
  514THF    H10 6679   2.716   0.128   3.326  0.8030 -1.5513 -0.5064
  514THF    H11 6680   2.877   0.206   3.311 -2.0464  0.6258 -2.3136
  514THF    H12 6681   2.812   0.386   3.429 -0.6723  0.9323  1.1585
  514THF    H13 6682   2.656   0.309   3.421  1.0465  0.0022 -1.7417
  515THF     O1 6683   0.986   4.593   1.100 -0.0588  0.1374 -0.2121
  515THF     C2 6684   1.062   4.527   1.005 -0.1108  0.3063 -1.0411
  515THF     C3 6685   0.877   4.510   1.150  0.1898  0.5123  0.4923
  515THF     H4 6686   1.142   4.460   1.034 -0.1991  0.3649 -0.6643
  515THF     H5 6687   1.117   4.592   0.937 -1.7265  2.0858 -0.7441
  515THF     H6 6688   0.910   4.453   1.237 -1.2617 -1.8137 -0.3805
  515THF     H7 6689   0.793   4.570   1.183 -0.2595 -0.7710  1.7574
  515THF     C8 6690   0.851   4.422   1.032  0.3609 -0.4036 -0.3869
  515THF     C9 6691   0.958   4.448   0.924  0.1092  0.2799 -0.5635
  515THF    H10 6692   0.750   4.440   0.994  0.2938  0.4294  0.1619
  515THF    H11 6693   0.844   4.319   1.068 -0.4233  0.3643  1.8884
  515THF    H12 6694   0.979   4.356   0.869 -0.5067  0.6793 -1.4933
  515THF    H13 6695   0.906   4.504   0.846 -0.1419 -2.3732 -2.4519
  516THF     O1 6696   4.514   2.690   0.865  0.3421  0.3036  0.5772
  516THF     C2 6697   4.466   2.818   0.871  0.3390  0.0922 -0.5719
  516THF     C3 6698   4.467   2.609   0.976 -0.1543 -0.5253  0.2966
  516THF     H4 6699   4.368   2.828   0.824  0.1945  0.4325 -0.2037
  516THF     H5 6700   4.517   2.891   0.809 -0.0900 -1.4800 -2.8987
  516THF     H6 6701   4.394   2.534   0.946 -1.5011  0.1742  1.6819
  516THF     H7 6702   4.549   2.548   1.013  0.0715 -0.4260 -0.0286
  516THF     C8 6703   4.416   2.708   1.083  0.2087  0.2603 -0.4345
  516THF     C9 6704   4.464   2.843   1.028 -0.0468  0.1168  0.2956
  516THF    H10 6705   4.453   2.682   1.182 -0.1401 -1.7541 -0.7841
  516THF    H11 6706   4.307   2.712   1.094  0.5070  1.2109  3.4093
  516THF    H12 6707   4.395   2.926   1.046  0.8917  0.9461  0.1769
  516THF    H13 6708   4.562   2.861   1.071 -0.7732  0.2518  1.9484
  517THF     O1 6709   0.133   5.258   1.251 -0.0256  0.0781  0.1105
  517THF     C2 6710   0.245   5.319   1.316  0.2064 -0.6327 -0.0109
  517THF     C3 6711   0.016   5.262   1.330  0.9444  0.2840 -0.4192
  517THF     H4 6712   0.303   5.374   1.243  0.8859 -2.3914 -0.8578
  517THF     H5 6713   0.313   5.245   1.359  0.3426 -0.5470 -0.0774
  517THF     H6 6714  -0.070   5.268   1.263  0.5391  2.8988  0.2388
  517THF     H7 6715   0.006   5.173   1.393 -1.1601  1.0757  0.4843
  517THF     C8 6716   0.036   5.385   1.419  0.5233 -0.1114 -0.1185
  517THF     C9 6717   0.185   5.414   1.417 -0.0779 -0.9944  0.2418
  517THF    H10 6718   0.007   5.370   1.523  0.0797 -3.6153 -0.6002
  517THF    H11 6719  -0.017   5.469   1.376  0.9351  1.0276  1.4849
  517THF    H12 6720   0.206   5.520   1.405  1.5873 -1.5600 -2.5476
  517THF    H13 6721   0.218   5.399   1.520 -0.3106  3.5278  1.2044
  518THF     O1 6722   1.342   2.432   3.922  0.2036  0.3154 -0.4665
  518THF     C2 6723   1.217   2.498   3.935 -0.1999  0.2066 -0.0731
  518THF     C3 6724   1.321   2.315   3.838 -0.0985 -0.6617 -0.2386
  518THF     H4 6725   1.207   2.545   3.837  1.2418 -1.9248 -1.3188
  518THF     H5 6726   1.225   2.571   4.016  1.6464  1.0524 -0.9619
  518THF     H6 6727   1.295   2.342   3.735 -0.0781  1.6831  0.3174
  518THF     H7 6728   1.415   2.261   3.846  0.6808  0.4969 -1.1790
  518THF     C8 6729   1.203   2.250   3.907 -0.4082 -0.4137 -0.2077
  518THF     C9 6730   1.123   2.380   3.962 -0.3080 -0.2173 -0.1312
  518THF    H10 6731   1.238   2.187   3.990 -2.1731  1.1798  1.8520
  518THF    H11 6732   1.142   2.197   3.834  0.6005 -1.1219 -0.5624
  518THF    H12 6733   1.027   2.392   3.911 -0.1110 -0.4899 -0.5792
  518THF    H13 6734   1.110   2.360   4.068  2.5484  0.0669  0.3581
  519THF     O1 6735   0.900   4.953   5.267  0.5316  0.3091 -0.8529
  519THF     C2 6736   0.755   4.975   5.239 -0.1248  0.8374  0.4450
  519THF     C3 6737   0.898   4.882   5.389 -0.1936 -0.0699  0.2760
  519THF     H4 6738   0.715   4.918   5.155 -1.0997  1.4010  0.5091
  519THF     H5 6739   0.749   5.081   5.216  2.4821  1.6869  2.9728
  519THF     H6 6740   0.895   4.776   5.363 -0.2934  0.3027 -1.3082
  519THF     H7 6741   0.989   4.888   5.449 -0.0832  0.0985  0.0903
  519THF     C8 6742   0.786   4.923   5.472  0.7036  0.7344 -0.5450
  519THF     C9 6743   0.679   4.953   5.369  0.1263 -0.4660 -0.1621
  519THF    H10 6744   0.806   5.011   5.534  0.0258  0.2621  0.3736
  519THF    H11 6745   0.761   4.846   5.545  3.0324  0.6147  0.2028
  519THF    H12 6746   0.609   4.870   5.354  0.2953 -0.9335  1.4885
  519THF    H13 6747   0.617   5.041   5.390 -1.0841 -1.5876  1.1578
  520THF     O1 6748   3.431   0.662   5.076 -0.3412 -0.1883  0.1517
  520THF     C2 6749   3.356   0.744   5.170 -0.2319 -0.1981 -0.0802
  520THF     C3 6750   3.572   0.678   5.085  0.2748  0.2061  0.9379
  520THF     H4 6751   3.315   0.701   5.261 -0.2450  0.2612  0.1339
  520THF     H5 6752   3.280   0.798   5.113  0.8074 -0.5612 -1.8742
  520THF     H6 6753   3.624   0.621   5.162 -0.1520 -0.6110  0.6308
  520THF     H7 6754   3.621   0.656   4.990 -2.1328  2.5409 -1.0131
  520THF     C8 6755   3.579   0.828   5.110  0.7570  0.5892 -0.5688
  520THF     C9 6756   3.460   0.847   5.209 -0.4806 -0.3286 -0.0317
  520THF    H10 6757   3.561   0.877   5.015 -1.4622 -1.0683 -1.0923
  520THF    H11 6758   3.669   0.874   5.152  0.8197 -0.7616  0.8698
  520THF    H12 6759   3.494   0.818   5.308 -0.3449  0.5681  0.1962
  520THF    H13 6760   3.413   0.945   5.223 -1.9849 -0.7020 -1.9051
  521THF     O1 6761   4.170   4.353   5.410  0.2806  0.1026  0.0180
  521THF     C2 6762   4.087   4.234   5.413 -0.1141 -0.0564  0.4284
  521THF     C3 6763   4.276   4.318   5.494  0.1078  0.4191 -0.1796
  521THF     H4 6764   4.008   4.241   5.338 -0.2128  0.3523  0.5707
  521THF     H5 6765   4.033   4.236   5.509  0.5936  1.4414  0.8208
  521THF     H6 6766   4.362   4.384   5.481 -0.9441  2.0608  0.7605
  521THF     H7 6767   4.234   4.330   5.594 -1.9391 -0.7401 -0.8548
  521THF     C8 6768   4.305   4.175   5.463 -0.0332 -0.1277  0.2928
  521THF     C9 6769   4.183   4.114   5.392 -0.2609  0.1907 -0.5394
  521THF    H10 6770   4.331   4.127   5.557 -0.1827  0.9569  0.9024
  521THF    H11 6771   4.373   4.163   5.378  0.7751 -1.6451  1.1155
  521THF    H12 6772   4.196   4.087   5.288  1.7872  0.5057 -0.4062
  521THF    H13 6773   4.156   4.027   5.451  1.3349  0.7693  1.1794
  522THF     O1 6774   1.674   4.457   4.976  0.3967  0.1876  0.4167
  522THF     C2 6775   1.770   4.459   4.872 -0.0410  0.4000  0.0398
  522THF     C3 6776   1.731   4.507   5.096  0.1238  0.3120  0.6998
  522THF     H4 6777   1.737   4.530   4.796 -0.2129 -0.7731 -1.0029
  522THF     H5 6778   1.791   4.361   4.831 -1.5339 -0.3891  1.0715
  522THF     H6 6779   1.665   4.563   5.162  0.2791  1.3937 -0.0392
  522THF     H7 6780   1.785   4.434   5.156  0.8277  0.0426 -0.2308
  522THF     C8 6781   1.844   4.592   5.044 -0.5870 -0.6870 -0.3267
  522THF     C9 6782   1.903   4.517   4.925 -0.5148 -1.2210  0.1332
  522THF    H10 6783   1.920   4.610   5.120 -0.5285 -1.5572 -0.1729
  522THF    H11 6784   1.811   4.691   5.011  2.7102  0.3019 -1.0644
  522THF    H12 6785   1.944   4.589   4.854 -1.0501  0.5671  1.5570
  522THF    H13 6786   1.974   4.438   4.951 -0.7661 -1.5750 -0.2582
  523THF     O1 6787   2.559   3.907   3.215 -0.1769  0.0248 -0.2897
  523THF     C2 6788   2.626   3.965   3.328 -0.3069  0.3639 -0.2527
  523THF     C3 6789   2.586   3.769   3.213 -0.2194  0.1203 -0.9434
  523THF     H4 6790   2.572   4.053   3.363  1.0438  1.6915 -1.3500
  523THF     H5 6791   2.729   3.983   3.297  0.0617  1.0436  1.2653
  523THF     H6 6792   2.485   3.731   3.200 -1.0486  1.3362  1.3706
  523THF     H7 6793   2.651   3.742   3.130  0.0790  0.0418 -0.6865
  523THF     C8 6794   2.622   3.720   3.349  0.4264  0.8638 -0.1530
  523THF     C9 6795   2.633   3.846   3.431 -0.2931  0.0433  0.0585
  523THF    H10 6796   2.721   3.676   3.343 -0.8417 -2.3103 -0.1213
  523THF    H11 6797   2.560   3.638   3.386  1.5048  0.0230 -0.1686
  523THF    H12 6798   2.549   3.858   3.499  1.2729  0.7998  1.9359
  523THF    H13 6799   2.710   3.855   3.507 -0.6060 -1.8539  0.6536
  524THF     O1 6800   1.052   0.737   4.830  0.0771 -0.2978  0.0532
  524THF     C2 6801   1.024   0.712   4.692 -0.0949  0.4828 -0.3226
  524THF     C3 6802   1.021   0.618   4.904  0.2183 -0.2696 -0.4271
  524THF     H4 6803   1.118   0.722   4.638  0.0128  2.0934  0.1239
  524THF     H5 6804   0.964   0.791   4.648 -0.2008 -0.9639 -2.9870
  524THF     H6 6805   1.102   0.550   4.930 -0.0039  0.0094  1.1347
  524THF     H7 6806   0.970   0.645   4.997 -0.3176  0.4332 -0.9195
  524THF     C8 6807   0.915   0.552   4.820 -0.5786  0.2312 -0.3523
  524THF     C9 6808   0.966   0.569   4.683  0.1307 -1.2420  0.2074
  524THF    H10 6809   0.829   0.616   4.836  0.0762  0.8618  0.8536
  524THF    H11 6810   0.881   0.452   4.843 -0.6202  0.4707  0.6891
  524THF    H12 6811   1.049   0.504   4.655  0.0671 -0.1113 -3.0034
  524THF    H13 6812   0.890   0.557   4.606 -1.1932 -0.7592  1.4085
  525THF     O1 6813   3.580   3.278   2.558 -0.0248  0.5559  0.2127
  525THF     C2 6814   3.539   3.156   2.498 -0.6025  0.3467 -0.6751
  525THF     C3 6815   3.606   3.367   2.450 -0.1638  0.3022 -0.7852
  525THF     H4 6816   3.489   3.086   2.565  0.4323 -0.3315 -0.5881
  525THF     H5 6817   3.629   3.098   2.480  0.4478  2.2878 -2.0551
  525THF     H6 6818   3.604   3.473   2.475 -1.8395  0.1631 -0.2106
  525THF     H7 6819   3.710   3.350   2.422 -0.2309 -2.5066  0.3825
  525THF     C8 6820   3.512   3.332   2.338 -0.3814 -0.2334  0.2669
  525THF     C9 6821   3.460   3.197   2.369  0.6529  0.3608  0.0450
  525THF    H10 6822   3.554   3.348   2.239 -0.4497  1.4231  0.4692
  525THF    H11 6823   3.429   3.402   2.338 -0.9872 -0.8819 -2.0351
  525THF    H12 6824   3.357   3.211   2.400  0.3986 -2.3219  0.6460
  525THF    H13 6825   3.462   3.130   2.283  1.2890 -0.4932  0.7076
  526THF     O1 6826   5.215   2.728   2.544  0.0085 -0.3187  0.3920
  526THF     C2 6827   5.099   2.646   2.551 -0.0771  0.0324 -0.3655
  526THF     C3 6828   5.321   2.680   2.621  0.2706  0.2514  0.6659
  526THF     H4 6829   5.035   2.656   2.463 -1.2058 -0.7226  0.3426
  526THF     H5 6830   5.037   2.672   2.637 -3.0523  2.0409 -2.8873
  526THF     H6 6831   5.412   2.696   2.565  0.9252  1.5424  2.0280
  526THF     H7 6832   5.330   2.745   2.708 -0.2279  0.0213  0.8974
  526THF     C8 6833   5.278   2.541   2.647  0.2337 -0.1722  0.5125
  526THF     C9 6834   5.156   2.507   2.565 -0.4301 -0.2183  0.4144
  526THF    H10 6835   5.259   2.549   2.754 -0.7494  3.3689  0.1677
  526THF    H11 6836   5.355   2.468   2.621  0.4054 -0.4015  1.6162
  526THF    H12 6837   5.190   2.478   2.465  2.6316  1.9033  0.6925
  526THF    H13 6838   5.088   2.431   2.603  0.5291 -2.5424 -2.1362
  527THF     O1 6839   2.842   0.676   3.905 -0.1864 -0.1377  0.0261
  527THF     C2 6840   2.896   0.807   3.891 -0.7136  0.4543 -0.3250
  527THF     C3 6841   2.702   0.680   3.868 -0.5387 -0.3454 -0.3805
  527THF     H4 6842   2.970   0.801   3.811  0.7075 -0.3233  1.0016
  527THF     H5 6843   2.948   0.841   3.981 -1.5910  1.3713 -0.1542
  527THF     H6 6844   2.699   0.665   3.760 -3.7111  0.4395 -0.5195
  527THF     H7 6845   2.637   0.606   3.914  0.5899 -0.9185  0.3106
  527THF     C8 6846   2.653   0.823   3.899 -0.3553 -0.6500 -0.3904
  527THF     C9 6847   2.779   0.895   3.864  0.6221 -1.2906 -0.2032
  527THF    H10 6848   2.631   0.838   4.005 -1.1113  2.4227 -0.8831
  527THF    H11 6849   2.560   0.839   3.844 -0.9779  0.6271  0.9482
  527THF    H12 6850   2.776   0.918   3.757  0.7221  1.0024  0.2417
  527THF    H13 6851   2.797   0.986   3.921  1.9389 -3.2908  2.8509
  528THF     O1 6852   1.701   2.626   4.910  0.2895  0.1290 -0.3933
  528THF     C2 6853   1.590   2.612   4.821 -0.1544 -0.3644  0.1067
  528THF     C3 6854   1.678   2.540   5.018 -0.1928 -0.1286 -0.8307
  528THF     H4 6855   1.591   2.535   4.743 -2.8794 -1.2068  0.7801
  528THF     H5 6856   1.561   2.706   4.775 -0.7909  0.9738  3.0504
  528THF     H6 6857   1.710   2.448   4.970 -0.8069 -0.2553 -1.0098
  528THF     H7 6858   1.740   2.568   5.104 -0.0974 -0.2440 -0.8619
  528THF     C8 6859   1.530   2.525   5.035  0.0122  0.4624 -0.2309
  528THF     C9 6860   1.467   2.569   4.907 -0.2778  0.5555  0.2760
  528THF    H10 6861   1.498   2.587   5.119 -0.2291  0.1828 -0.1148
  528THF    H11 6862   1.501   2.424   5.063  0.0498 -0.2287 -2.4655
  528THF    H12 6863   1.413   2.485   4.863  1.0070 -0.8587  1.3190
  528THF    H13 6864   1.391   2.646   4.923 -1.1590 -0.6717  2.3888
  529THF     O1 6865   2.250   0.527   1.819  0.2267  0.2964  0.8482
  529THF     C2 6866   2.376   0.472   1.817 -0.4836 -0.6062 -0.6384
  529THF     C3 6867   2.256   0.657   1.749  0.4611 -0.7028  0.4388
  529THF     H4 6868   2.390   0.399   1.737 -2.7953 -0.9155 -0.8160
  529THF     H5 6869   2.404   0.426   1.912 -1.1677  0.8322  0.2798
  529THF     H6 6870   2.274   0.643   1.642 -0.1016 -3.0602  0.6049
  529THF     H7 6871   2.164   0.709   1.778 -0.0887 -1.1803 -0.4151
  529THF     C8 6872   2.381   0.711   1.815 -0.4834  0.1230 -0.3371
  529THF     C9 6873   2.473   0.591   1.808 -0.8255 -0.2717  0.3799
  529THF    H10 6874   2.384   0.743   1.919  2.4223  0.1570 -0.3314
  529THF    H11 6875   2.428   0.784   1.749 -1.5041 -1.3389 -2.8310
  529THF    H12 6876   2.533   0.588   1.718  0.7651  1.8794  1.2850
  529THF    H13 6877   2.549   0.586   1.886 -0.8997  1.7037  0.6256
  530THF     O1 6878   1.398   0.785   0.641  0.8081  0.1733  0.4985
  530THF     C2 6879   1.486   0.881   0.690  0.4739 -0.5017  0.0090
  530THF     C3 6880   1.367   0.698   0.740  0.4812  0.8523  0.2250
  530THF     H4 6881   1.437   0.947   0.761  1.0408 -1.5985  1.4750
  530THF     H5 6882   1.539   0.943   0.617 -0.7434 -0.5249 -0.9207
  530THF     H6 6883   1.309   0.741   0.822 -1.0183 -0.9396  0.1617
  530THF     H7 6884   1.319   0.609   0.699  1.8416  0.2438 -0.0739
  530THF     C8 6885   1.504   0.668   0.787  0.3343 -0.3675  0.4562
  530THF     C9 6886   1.582   0.802   0.777  0.1646  0.3338  0.1938
  530THF    H10 6887   1.549   0.587   0.729 -0.1155 -0.7871  0.6903
  530THF    H11 6888   1.506   0.627   0.888 -0.0436 -0.3212  0.4839
  530THF    H12 6889   1.596   0.846   0.876  0.1997  1.7502 -0.4194
  530THF    H13 6890   1.680   0.794   0.729  1.4529  2.1189  2.3205
  531THF     O1 6891   1.341   3.978   4.326  0.8011 -0.1012 -0.1222
  531THF     C2 6892   1.355   3.852   4.389  0.1067  0.0811 -0.9955
  531THF     C3 6893   1.462   4.009   4.265 -0.1190  0.3788  0.1058
  531THF     H4 6894   1.264   3.806   4.429 -0.2316  2.0560  0.7040
  531THF     H5 6895   1.421   3.869   4.474 -0.6936 -1.6021  0.0242
  531THF     H6 6896   1.451   4.070   4.175  1.4279 -1.1122 -1.1519
  531THF     H7 6897   1.520   4.069   4.336  0.0646  2.0925 -1.4137
  531THF     C8 6898   1.517   3.873   4.227 -0.6255 -0.2373 -0.1586
  531THF     C9 6899   1.428   3.770   4.277 -0.3773  0.3499 -0.1555
  531THF    H10 6900   1.617   3.858   4.268 -0.0991 -2.0433 -1.8849
  531THF    H11 6901   1.530   3.860   4.119  0.6725 -0.2574 -0.0169
  531THF    H12 6902   1.355   3.744   4.201  0.9728 -1.6644 -0.8447
  531THF    H13 6903   1.475   3.678   4.312 -2.5531 -1.1346 -0.9462
  532THF     O1 6904   3.793   1.320   2.210  0.0719 -0.2413  0.1979
  532THF     C2 6905   3.845   1.439   2.142 -0.2743  0.0213 -0.9385
  532THF     C3 6906   3.913   1.247   2.232 -0.2383  0.7644 -0.1325
  532THF     H4 6907   3.885   1.509   2.215 -0.7263 -0.3126 -0.3649
  532THF     H5 6908   3.774   1.497   2.084  0.1142  1.3428 -0.1172
  532THF     H6 6909   3.965   1.296   2.314  0.4403 -0.4545  0.1942
  532THF     H7 6910   3.886   1.148   2.269  1.5751  0.4042  0.3328
  532THF     C8 6911   4.006   1.263   2.118 -0.6204  0.8270  0.4102
  532THF     C9 6912   3.958   1.385   2.050 -0.1325 -0.4213 -0.1019
  532THF    H10 6913   3.985   1.181   2.050 -1.4245  0.0723  1.5399
  532THF    H11 6914   4.112   1.261   2.142 -0.5363 -3.4935  0.2796
  532THF    H12 6915   4.036   1.459   2.032 -0.0306 -0.2642  0.9193
  532THF    H13 6916   3.905   1.367   1.957 -0.8860 -0.8535  0.3994
  533THF     O1 6917   0.670   0.083   2.001 -0.2697 -0.0297  0.1645
  533THF     C2 6918   0.604   0.101   2.122  0.0749 -0.0291 -0.1569
  533THF     C3 6919   0.608  -0.023   1.936  0.7180 -0.9060  0.4632
  533THF     H4 6920   0.520   0.170   2.114 -0.5268 -0.7399 -0.1029
  533THF     H5 6921   0.672   0.138   2.198  0.3744  1.1432 -0.9575
  533THF     H6 6922   0.514   0.021   1.904  2.2653  1.6744 -0.9021
  533THF     H7 6923   0.659  -0.068   1.851 -1.9282 -2.8271 -0.2378
  533THF     C8 6924   0.596  -0.126   2.052  0.3009  0.1519 -0.5222
  533THF     C9 6925   0.544  -0.035   2.160  0.0287  0.2403 -0.7016
  533THF    H10 6926   0.698  -0.146   2.085 -0.9000 -0.3842  3.3915
  533THF    H11 6927   0.539  -0.214   2.024  0.9026 -0.3856 -0.1017
  533THF    H12 6928   0.435  -0.033   2.160 -0.0607 -1.3982 -2.7551
  533THF    H13 6929   0.545  -0.058   2.267 -0.2279 -0.5473 -0.8619
  534THF     O1 6930   1.015   2.405   4.725 -0.4405 -0.2710  0.5854
  534THF     C2 6931   1.134   2.448   4.788  0.2435  0.8106 -0.8757
  534THF     C3 6932   0.945   2.316   4.814  0.0055  0.1737  0.1672
  534THF     H4 6933   1.160   2.543   4.743  0.2677  1.6369  0.8156
  534THF     H5 6934   1.220   2.386   4.763  0.6244  1.5283 -1.3792
  534THF     H6 6935   0.838   2.299   4.802 -0.2539  1.9200 -0.1987
  534THF     H7 6936   0.998   2.221   4.822  3.4000  1.9808  1.5179
  534THF     C8 6937   0.956   2.401   4.938  0.6028 -0.5327 -0.5450
  534THF     C9 6938   1.099   2.455   4.936  0.4486  0.0748 -0.2634
  534THF    H10 6939   0.933   2.327   5.014 -1.9252 -0.5798 -1.2523
  534THF    H11 6940   0.883   2.482   4.947 -0.5033 -1.7497  2.7090
  534THF    H12 6941   1.101   2.555   4.979 -0.7100 -0.6258  1.5771
  534THF    H13 6942   1.160   2.396   5.004  1.9596  2.1688  0.2914
  535THF     O1 6943   1.835   2.289   3.858 -0.2799  0.1351 -0.3916
  535THF     C2 6944   1.860   2.189   3.759  0.1830  0.4791  0.6688
  535THF     C3 6945   1.782   2.403   3.796 -0.4667 -0.3358 -0.0539
  535THF     H4 6946   1.855   2.089   3.801 -0.6396 -0.3178 -1.2340
  535THF     H5 6947   1.960   2.196   3.717  0.3638 -0.5238  0.9206
  535THF     H6 6948   1.731   2.472   3.864 -0.1329 -0.2958  0.1580
  535THF     H7 6949   1.865   2.462   3.759 -0.5204  0.1465  0.5614
  535THF     C8 6950   1.696   2.348   3.681  0.7508  0.0329  0.0324
  535THF     C9 6951   1.761   2.215   3.642  0.8963 -0.9432 -0.8331
  535THF    H10 6952   1.692   2.418   3.598  0.5924 -1.6260 -1.4311
  535THF    H11 6953   1.592   2.330   3.710  0.9342 -1.9196 -0.3702
  535THF    H12 6954   1.682   2.141   3.635 -0.7384  0.7742 -1.4681
  535THF    H13 6955   1.809   2.213   3.544 -0.5954 -0.7666 -1.5879
  536THF     O1 6956   3.057   2.086   4.864 -0.6356  0.1669 -0.0642
  536THF     C2 6957   3.070   2.166   4.982 -0.3927 -0.1634  0.1891
  536THF     C3 6958   2.913   2.083   4.842 -0.0983 -0.8881 -0.2554
  536THF     H4 6959   3.172   2.200   5.001 -0.2294 -2.0038  3.3811
  536THF     H5 6960   3.049   2.110   5.074 -3.1229  1.3134  0.5534
  536THF     H6 6961   2.882   2.052   4.743  0.4682 -1.8597 -0.1484
  536THF     H7 6962   2.868   2.014   4.913 -0.0833 -0.0673  0.5825
  536THF     C8 6963   2.873   2.231   4.871  0.0259  0.4380  0.7195
  536THF     C9 6964   2.975   2.285   4.965 -0.4091 -0.1303  0.5859
  536THF    H10 6965   2.777   2.229   4.922 -0.8596 -0.3700 -0.8988
  536THF    H11 6966   2.850   2.293   4.784  2.4149 -2.3965 -2.1834
  536THF    H12 6967   3.026   2.374   4.928  0.9565 -0.6500  1.1403
  536THF    H13 6968   2.934   2.313   5.062 -0.4976  1.1729  0.1825
  537THF     O1 6969   3.151   0.379   1.153  0.3157 -0.7314 -0.4335
  537THF     C2 6970   3.075   0.476   1.227  1.1662  0.0827 -0.0587
  537THF     C3 6971   3.239   0.319   1.249 -0.1309  0.0201  0.2294
  537THF     H4 6972   3.011   0.418   1.293  0.6630 -0.5981 -1.1189
  537THF     H5 6973   3.008   0.535   1.163  0.3445 -0.2033  0.5314
  537THF     H6 6974   3.187   0.242   1.306  2.4130 -0.2574  2.3628
  537THF     H7 6975   3.322   0.266   1.204  1.3790  2.5680 -0.1701
  537THF     C8 6976   3.283   0.440   1.322  0.0488 -0.0652 -0.3503
  537THF     C9 6977   3.180   0.554   1.295 -0.2666  0.3906  0.0982
  537THF    H10 6978   3.373   0.482   1.277 -2.2050  2.4987 -2.8161
  537THF    H11 6979   3.294   0.410   1.427 -0.2829 -0.6639 -0.4836
  537THF    H12 6980   3.139   0.609   1.379 -0.8894 -0.1058  0.1238
  537THF    H13 6981   3.211   0.629   1.221 -1.5515  1.2212  0.3840
  538THF     O1 6982   3.763   2.866   5.411 -0.4913  0.5726  0.6010
  538THF     C2 6983   3.879   2.958   5.414  0.3398  0.5546 -0.5387
  538THF     C3 6984   3.730   2.839   5.546 -0.5734 -0.4390  0.1253
  538THF     H4 6985   3.895   2.991   5.311 -0.8692  2.8946 -0.0413
  538THF     H5 6986   3.965   2.911   5.460  0.1717  0.2689 -0.5113
  538THF     H6 6987   3.640   2.777   5.550 -1.4342  0.8268  2.3342
  538THF     H7 6988   3.797   2.772   5.601  0.1383 -0.7747 -1.1143
  538THF     C8 6989   3.728   2.984   5.597  0.3299  0.4026 -0.2470
  538THF     C9 6990   3.821   3.059   5.506  0.1623 -0.5166  0.3754
  538THF    H10 6991   3.777   2.992   5.694 -0.8261 -0.3313  0.4249
  538THF    H11 6992   3.627   3.024   5.604 -0.8187 -1.9143 -2.1607
  538THF    H12 6993   3.764   3.141   5.465  2.3411  0.4831 -0.8289
  538THF    H13 6994   3.891   3.112   5.571 -1.5299  0.7966  1.2140
  539THF     O1 6995   5.133   4.039   2.944 -0.4971 -0.8416 -0.0962
  539THF     C2 6996   5.069   3.925   2.894 -0.6370  0.5310 -0.5816
  539THF     C3 6997   5.099   4.154   2.871  0.1466 -0.5762  0.5543
  539THF     H4 6998   4.967   3.911   2.932  0.3348 -1.5858  1.4742
  539THF     H5 6999   5.126   3.836   2.920  1.5401  2.1578  0.5307
  539THF     H6 7000   4.994   4.178   2.890 -0.8020 -2.2352 -1.9997
  539THF     H7 7001   5.157   4.244   2.890  0.5126 -0.5934 -0.4454
  539THF     C8 7002   5.108   4.094   2.732 -0.5385  0.4743 -0.1158
  539THF     C9 7003   5.060   3.952   2.736 -0.5875  0.4040 -0.7008
  539THF    H10 7004   5.216   4.086   2.717 -0.4102 -2.0175  1.5431
  539THF    H11 7005   5.073   4.154   2.648 -0.9781 -0.0119 -0.2832
  539THF    H12 7006   4.963   3.929   2.693 -0.7296  0.2074 -0.2763
  539THF    H13 7007   5.134   3.893   2.680 -2.5520 -2.3316 -0.5987
  540THF     O1 7008   2.618   0.673   1.203  0.2316  0.4186  0.6543
  540THF     C2 7009   2.521   0.738   1.122 -0.0973  0.8469  0.6808
  540THF     C3 7010   2.732   0.631   1.116  0.4415 -0.2310  0.9277
  540THF     H4 7011   2.535   0.846   1.114 -0.2919  0.7441 -1.5154
  540THF     H5 7012   2.420   0.716   1.156  0.1314 -2.4605 -0.4199
  540THF     H6 7013   2.812   0.705   1.127  0.3537 -0.0069  0.1320
  540THF     H7 7014   2.777   0.537   1.147  1.8255 -1.0924 -3.1093
  540THF     C8 7015   2.684   0.641   0.966  0.3812  1.0170 -0.1301
  540THF     C9 7016   2.538   0.681   0.986 -0.3392  0.2078 -0.4158
  540THF    H10 7017   2.712   0.547   0.919 -1.2747  1.0230 -1.1737
  540THF    H11 7018   2.741   0.723   0.923  0.9284  1.6583  1.7007
  540THF    H12 7019   2.501   0.749   0.909  1.6845  2.6717  0.6277
  540THF    H13 7020   2.485   0.586   0.986  3.0873 -1.8475  0.0911
  541THF     O1 7021   0.912   2.122   1.264  0.1340 -0.0358 -0.4098
  541THF     C2 7022   0.946   2.234   1.352  0.5273  0.6079 -0.6226
  541THF     C3 7023   0.872   2.016   1.352 -0.3502  0.1849  0.0659
  541THF     H4 7024   0.955   2.332   1.305 -1.4373  2.2810  2.1774
  541THF     H5 7025   1.032   2.209   1.412 -0.2069  0.6882  0.4861
  541THF     H6 7026   0.826   1.934   1.298  0.8311 -0.4615  0.0176
  541THF     H7 7027   0.961   1.965   1.389 -0.7471 -1.4873 -1.1948
  541THF     C8 7028   0.786   2.088   1.453  0.8957 -0.2044 -0.4148
  541THF     C9 7029   0.824   2.230   1.443 -0.5601 -0.4368  0.3024
  541THF    H10 7030   0.804   2.050   1.553 -0.4747 -1.8679 -0.7465
  541THF    H11 7031   0.683   2.057   1.435  0.9899 -1.3346  0.7847
  541THF    H12 7032   0.749   2.278   1.380 -0.2541 -0.2503  0.0825
  541THF    H13 7033   0.845   2.279   1.538  1.4068 -2.0197  0.7417
  542THF     O1 7034   4.883   2.554   0.108  0.0303  0.0074 -0.6102
  542THF     C2 7035   4.900   2.623   0.234  0.0882  0.5948 -0.3000
  542THF     C3 7036   4.789   2.620   0.035 -0.8191 -0.7202 -0.9475
  542THF     H4 7037   5.004   2.618   0.267  0.2582 -0.3296 -0.9527
  542THF     H5 7038   4.837   2.575   0.309  0.6078  1.0816  0.4630
  542THF     H6 7039   4.806   2.602  -0.071  1.0913  0.4877 -0.9070
  542THF     H7 7040   4.688   2.602   0.072 -1.0807  0.8014 -0.8386
  542THF     C8 7041   4.819   2.766   0.068 -0.2511  0.2073 -0.3052
  542THF     C9 7042   4.864   2.766   0.216  0.2812 -0.2022  0.1179
  542THF    H10 7043   4.728   2.818   0.039  0.6274  0.5272 -2.7393
  542THF    H11 7044   4.895   2.817   0.009 -1.9904  2.5264 -0.6885
  542THF    H12 7045   4.944   2.834   0.243 -1.7779  1.5500  2.2601
  542THF    H13 7046   4.777   2.787   0.278  0.0178  1.6219 -0.8073
  543THF     O1 7047   4.154   4.140   4.184 -0.3234  0.0778 -0.5204
  543THF     C2 7048   4.174   4.219   4.066  0.5955  0.7794 -0.4582
  543THF     C3 7049   4.261   4.049   4.206 -0.9274  0.6717 -0.1478
  543THF     H4 7050   4.151   4.325   4.074  3.6507  1.4675  0.3067
  543THF     H5 7051   4.100   4.190   3.991  0.2762 -0.6480  0.3784
  543THF     H6 7052   4.330   4.100   4.273  2.3214  0.1310 -2.8147
  543THF     H7 7053   4.236   3.954   4.253  1.3524 -0.6676 -1.4896
  543THF     C8 7054   4.326   4.028   4.069  1.0267  0.1000 -0.2297
  543THF     C9 7055   4.313   4.173   4.019  0.1767  0.2632  1.0836
  543THF    H10 7056   4.266   3.953   4.018  2.1167 -1.8607  1.2122
  543THF    H11 7057   4.432   4.004   4.070  0.5822 -2.1289  0.2396
  543THF    H12 7058   4.399   4.229   4.056 -0.0849  2.4183 -1.3006
  543THF    H13 7059   4.313   4.167   3.910  0.8913  0.7522  1.0504
  544THF     O1 7060   1.289   1.830   1.115 -0.4899  0.1983 -0.0777
  544THF     C2 7061   1.278   1.684   1.081 -0.3315 -0.7048 -0.0261
  544THF     C3 7062   1.209   1.858   1.233  0.7248 -0.2698  0.6078
  544THF     H4 7063   1.366   1.632   1.119 -0.4633 -1.4807 -0.7490
  544THF     H5 7064   1.269   1.669   0.974 -0.7950  0.4546 -0.1617
  544THF     H6 7065   1.261   1.906   1.316  1.2607 -1.1586  0.8076
  544THF     H7 7066   1.118   1.911   1.206  0.4615 -0.9458  0.1307
  544THF     C8 7067   1.155   1.719   1.283  0.1891 -0.9614 -0.3887
  544THF     C9 7068   1.150   1.641   1.155 -0.5844 -0.2669  0.3623
  544THF    H10 7069   1.056   1.724   1.327 -0.3469 -4.0763 -0.9739
  544THF    H11 7070   1.231   1.679   1.350  2.8639  1.2672 -1.8566
  544THF    H12 7071   1.143   1.536   1.184  0.0530  0.2174  2.4545
  544THF    H13 7072   1.062   1.669   1.098  0.9416  0.4053 -1.7572
  545THF     O1 7073   2.891   5.498   4.494  0.0990 -0.3059 -0.3075
  545THF     C2 7074   2.874   5.371   4.426 -0.6132 -0.0779  0.1330
  545THF     C3 7075   2.993   5.572   4.429 -0.0798  0.1703 -0.9232
  545THF     H4 7076   2.787   5.316   4.462 -1.8523  2.2028  0.8063
  545THF     H5 7077   2.966   5.318   4.454 -1.2662 -1.1775  0.2371
  545THF     H6 7078   3.004   5.676   4.459 -0.0975 -0.3388  0.9380
  545THF     H7 7079   3.090   5.528   4.453 -0.2074 -0.0632 -0.8397
  545THF     C8 7080   2.951   5.540   4.282 -0.4905 -0.7299  0.5853
  545THF     C9 7081   2.857   5.421   4.278 -0.3417 -0.1481 -0.4595
  545THF    H10 7082   3.045   5.530   4.227 -0.5958 -0.5847  0.3768
  545THF    H11 7083   2.904   5.626   4.234  0.3032 -0.7066 -0.1831
  545THF    H12 7084   2.756   5.462   4.281 -0.9592 -1.6616  0.6937
  545THF    H13 7085   2.873   5.343   4.203  0.5348  0.1599 -0.6005
  546THF     O1 7086   1.035   3.627   0.718  0.1048 -0.1821  0.4320
  546THF     C2 7087   0.902   3.639   0.761  0.4075  0.4864 -0.2414
  546THF     C3 7088   1.099   3.746   0.766  0.6537 -0.0610 -0.1922
  546THF     H4 7089   0.884   3.578   0.850  1.1532  0.5457 -0.0399
  546THF     H5 7090   0.822   3.602   0.698 -0.6881  1.9512  0.2420
  546THF     H6 7091   1.119   3.746   0.873 -3.2489  0.3638  0.6844
  546THF     H7 7092   1.197   3.755   0.719  1.2965 -0.2170  1.0950
  546THF     C8 7093   0.993   3.849   0.727  0.3062 -0.3263 -0.5249
  546THF     C9 7094   0.871   3.785   0.787 -0.2086 -0.1890  0.0914
  546THF    H10 7095   0.985   3.849   0.618  0.0908 -0.8719 -0.5089
  546THF    H11 7096   1.016   3.950   0.761  1.3966 -0.5965 -0.4182
  546THF    H12 7097   0.879   3.799   0.895  3.1742 -0.6686  0.0169
  546THF    H13 7098   0.777   3.819   0.745 -0.1699 -0.2442 -0.0395
  547THF     O1 7099   3.378   1.410   0.357 -0.1728  0.1389 -0.3909
  547THF     C2 7100   3.361   1.553   0.328 -0.2798 -0.7731  0.5654
  547THF     C3 7101   3.517   1.378   0.373 -0.9156 -0.8361  0.7028
  547THF     H4 7102   3.294   1.583   0.408 -0.5245 -0.4562  0.2407
  547THF     H5 7103   3.329   1.572   0.226  1.7448 -0.7134 -0.1166
  547THF     H6 7104   3.523   1.288   0.433  3.1420 -0.8914  0.4828
  547THF     H7 7105   3.562   1.352   0.277  0.4418  0.6698  0.8902
  547THF     C8 7106   3.573   1.505   0.425 -0.2825 -0.2368 -0.3143
  547THF     C9 7107   3.498   1.614   0.349 -0.0807  0.0047 -0.1550
  547THF    H10 7108   3.680   1.521   0.411 -0.1800 -1.3202 -0.9112
  547THF    H11 7109   3.545   1.505   0.530  2.7333  1.5310  0.6004
  547THF    H12 7110   3.488   1.702   0.412 -2.7423  1.1272 -1.9386
  547THF    H13 7111   3.549   1.637   0.256 -1.1048 -0.0339 -0.7412
  548THF     O1 7112   1.287   0.941   1.789 -0.0579  0.0823  0.4401
  548THF     C2 7113   1.250   0.811   1.734  0.0988  0.4403  0.3991
  548THF     C3 7114   1.401   0.983   1.725 -0.1728 -0.5849  0.2472
  548THF     H4 7115   1.144   0.794   1.755  0.7055 -1.9844  1.8124
  548THF     H5 7116   1.304   0.734   1.788  1.4886  0.4842 -0.8786
  548THF     H6 7117   1.411   1.092   1.725  3.0306 -0.7748  1.0402
  548THF     H7 7118   1.491   0.940   1.769 -1.3784 -4.6090 -0.8831
  548THF     C8 7119   1.388   0.942   1.572  0.0415  0.2689 -0.3232
  548THF     C9 7120   1.298   0.818   1.586  0.8334 -0.4233  0.6667
  548THF    H10 7121   1.477   0.910   1.517  0.5466 -2.2171  1.7224
  548THF    H11 7122   1.336   1.022   1.520 -1.5662 -0.4604  0.1163
  548THF    H12 7123   1.207   0.828   1.527 -1.7938 -0.4964  4.3629
  548THF    H13 7124   1.338   0.721   1.556 -1.7256 -1.7621  1.3184
  549THF     O1 7125   0.120   5.462   2.912 -0.1852  0.3931 -0.1823
  549THF     C2 7126   0.124   5.317   2.916  0.4798  0.8309 -0.4395
  549THF     C3 7127  -0.003   5.511   2.977 -0.1549 -0.3464 -0.5760
  549THF     H4 7128   0.222   5.270   2.922  0.0780 -0.1228 -1.0842
  549THF     H5 7129   0.077   5.286   2.823  0.2195 -0.3363  0.0732
  549THF     H6 7130   0.032   5.585   3.048 -3.6020 -0.2927  1.2275
  549THF     H7 7131  -0.069   5.569   2.912  0.4457 -0.4971 -1.3467
  549THF     C8 7132  -0.069   5.385   3.052 -0.4838  0.1350  0.5781
  549THF     C9 7133   0.042   5.276   3.035 -0.2994 -0.0786 -0.2894
  549THF    H10 7134  -0.157   5.372   2.989  0.2372  0.1689 -0.4562
  549THF    H11 7135  -0.077   5.388   3.161  3.2606  2.4753  0.9879
  549THF    H12 7136   0.099   5.271   3.128 -1.3524  0.0771  0.3740
  549THF    H13 7137   0.008   5.173   3.022  0.5473 -0.3520 -0.4485
  550THF     O1 7138   0.605   0.052   2.680  0.8168 -0.1999 -0.0076
  550THF     C2 7139   0.640  -0.069   2.617  0.1681  0.8993 -0.2419
  550THF     C3 7140   0.697   0.083   2.786  0.3937  0.3642  0.3104
  550THF     H4 7141   0.585  -0.078   2.524  0.4732  1.6118 -0.4930
  550THF     H5 7142   0.609  -0.155   2.677  0.4235  0.6309 -0.4907
  550THF     H6 7143   0.694   0.186   2.822 -1.3565  0.6640 -0.6230
  550THF     H7 7144   0.666   0.024   2.872  0.9689 -0.8479 -0.2944
  550THF     C8 7145   0.831   0.044   2.720 -0.1143  0.8103  0.7186
  550THF     C9 7146   0.793  -0.062   2.614  0.4683 -0.2461 -0.4365
  550THF    H10 7147   0.907   0.014   2.792  1.9507 -0.7335 -1.9218
  550THF    H11 7148   0.861   0.131   2.662 -0.0824  0.5563  0.3484
  550THF    H12 7149   0.832  -0.026   2.519  1.5411  0.9997  0.4368
  550THF    H13 7150   0.832  -0.163   2.631  0.1566 -0.4176 -0.7225
  551THF     O1 7151   2.147   2.834   4.010  0.3893  0.3287  0.4511
  551THF     C2 7152   2.250   2.930   4.022  0.8168 -0.1818 -0.2062
  551THF     C3 7153   2.051   2.886   4.101 -0.3480 -0.0519 -0.0897
  551THF     H4 7154   2.223   3.011   3.953  0.9197  0.7344  0.8095
  551THF     H5 7155   2.350   2.903   3.987  0.3681 -1.9045 -0.2286
  551THF     H6 7156   1.987   2.963   4.060  2.0920  1.2911 -1.6461
  551THF     H7 7157   1.990   2.800   4.129  1.4755 -0.6219  2.5101
  551THF     C8 7158   2.133   2.926   4.221 -0.0677  0.3007  0.1334
  551THF     C9 7159   2.271   2.967   4.164 -0.2631 -0.3900 -0.8159
  551THF    H10 7160   2.149   2.837   4.281  0.0529  0.2976  0.0969
  551THF    H11 7161   2.073   2.993   4.283 -0.4444  0.1098 -0.0174
  551THF    H12 7162   2.291   3.074   4.167 -0.0582 -0.4269 -0.8414
  551THF    H13 7163   2.355   2.918   4.215 -0.5208 -1.3671 -1.3125
  552THF     O1 7164   2.291   1.618   0.904 -0.3271 -0.5266 -0.6949
  552THF     C2 7165   2.196   1.519   0.957  0.2359 -0.6140 -0.1398
  552THF     C3 7166   2.398   1.628   0.995 -0.0312  0.3588 -0.6157
  552THF     H4 7167   2.112   1.485   0.896 -2.4851  1.4605  2.1699
  552THF     H5 7168   2.146   1.576   1.035 -0.0591 -0.3427 -0.5241
  552THF     H6 7169   2.484   1.641   0.929 -1.0268 -0.6981 -2.2122
  552THF     H7 7170   2.388   1.717   1.057  0.7320  0.0887 -0.0974
  552THF     C8 7171   2.404   1.502   1.084 -1.3429  0.1528  0.4315
  552THF     C9 7172   2.290   1.420   1.029 -0.6023  0.4458  0.1713
  552THF    H10 7173   2.389   1.521   1.190 -0.8030  0.6441  0.4291
  552THF    H11 7174   2.500   1.450   1.075 -2.4490 -1.7515 -1.1712
  552THF    H12 7175   2.333   1.356   0.952 -1.7208  0.5745 -0.5800
  552THF    H13 7176   2.235   1.355   1.097 -1.0651  0.3629 -0.2760
  553THF     O1 7177   1.708   3.544   0.369 -0.0657 -0.1653  0.0453
  553THF     C2 7178   1.646   3.431   0.306  0.5333  0.1540  0.3698
  553THF     C3 7179   1.786   3.607   0.270  0.3627 -0.6855  1.0641
  553THF     H4 7180   1.565   3.473   0.248 -0.1076  0.0252  1.1527
  553THF     H5 7181   1.610   3.354   0.375  2.5345  0.2758  1.6385
  553THF     H6 7182   1.732   3.661   0.192  2.8745 -0.8259 -0.9119
  553THF     H7 7183   1.855   3.681   0.310  1.7735 -2.7307  2.6344
  553THF     C8 7184   1.853   3.493   0.202  0.0399 -0.2159 -0.7731
  553THF     C9 7185   1.756   3.373   0.217 -1.1172 -1.1597  0.4972
  553THF    H10 7186   1.946   3.455   0.244  0.7404 -0.9254 -2.8201
  553THF    H11 7187   1.867   3.501   0.094  1.5355 -2.6081 -0.8336
  553THF    H12 7188   1.717   3.353   0.117  0.0256  0.4562 -0.3018
  553THF    H13 7189   1.817   3.292   0.258  0.2202  0.2764  1.4379
  554THF     O1 7190   5.352   1.121   4.540  0.5271 -0.2448 -0.0767
  554THF     C2 7191   5.232   1.080   4.476  0.1451 -0.8669  0.3680
  554THF     C3 7192   5.380   1.018   4.630  0.4535 -0.2246  0.4603
  554THF     H4 7193   5.229   1.123   4.376  1.4307  0.3246  0.8012
  554THF     H5 7194   5.147   1.126   4.527  1.4094 -0.8252  2.5878
  554THF     H6 7195   5.485   1.032   4.655 -0.0676  0.9608  2.0952
  554THF     H7 7196   5.310   1.021   4.713  0.7076 -1.5644  0.7389
  554THF     C8 7197   5.343   0.888   4.555 -0.3244 -0.5841  0.4463
  554THF     C9 7198   5.214   0.930   4.481  0.2893 -0.4552 -0.3144
  554THF    H10 7199   5.339   0.807   4.628  3.6119 -1.9660 -0.6105
  554THF    H11 7200   5.424   0.853   4.491 -1.0433 -2.9674  0.7439
  554THF    H12 7201   5.206   0.881   4.384 -0.6601  1.5840 -1.3331
  554THF    H13 7202   5.128   0.901   4.541 -0.9621  0.0218 -1.8092
  555THF     O1 7203   2.011   3.615   3.636 -0.2837  0.5810 -0.2893
  555THF     C2 7204   1.929   3.583   3.743 -0.3308 -0.5409 -0.6770
  555THF     C3 7205   2.058   3.491   3.585 -0.0473 -0.0902 -0.1858
  555THF     H4 7206   1.834   3.557   3.696 -1.1854 -0.1317  0.7659
  555THF     H5 7207   1.909   3.671   3.804  0.7288 -0.4528 -0.4364
  555THF     H6 7208   1.977   3.455   3.521 -1.1878  2.8588 -0.5568
  555THF     H7 7209   2.149   3.530   3.540  0.3916  0.3986  1.0821
  555THF     C8 7210   2.085   3.413   3.708 -0.5921  0.2843 -0.3066
  555THF     C9 7211   2.001   3.467   3.817  0.4841  0.3105 -0.4811
  555THF    H10 7212   2.191   3.424   3.729 -0.3138 -2.4216  0.1879
  555THF    H11 7213   2.069   3.306   3.693  1.3933  0.2784 -3.1143
  555THF    H12 7214   1.935   3.393   3.860 -1.3857  0.5464 -2.7276
  555THF    H13 7215   2.055   3.501   3.906  0.1858 -2.6754  0.9394
  556THF     O1 7216   4.849   5.446   3.530  0.4685 -0.3320 -0.4091
  556THF     C2 7217   4.817   5.310   3.543  0.1581 -1.0203  0.0456
  556THF     C3 7218   4.770   5.500   3.426 -0.2948  0.7656 -0.5057
  556THF     H4 7219   4.838   5.252   3.633 -1.2651 -1.8969 -0.1518
  556THF     H5 7220   4.858   5.256   3.457 -0.5954 -1.8274  0.1818
  556THF     H6 7221   4.761   5.608   3.433 -0.2734  0.7765 -0.6403
  556THF     H7 7222   4.812   5.463   3.332 -0.7525 -1.2207  0.0198
  556THF     C8 7223   4.636   5.424   3.447 -0.1381 -0.2471 -0.2804
  556THF     C9 7224   4.667   5.304   3.528  0.2292  0.2491 -0.2324
  556THF    H10 7225   4.588   5.414   3.349  1.4685  0.9393 -1.2384
  556THF    H11 7226   4.563   5.476   3.510 -2.5816 -3.6725 -0.0003
  556THF    H12 7227   4.615   5.303   3.624 -0.5772  1.0865 -0.6469
  556THF    H13 7228   4.657   5.204   3.485 -0.9277  1.0171 -1.8339
  557THF     O1 7229   0.094   2.342   2.639  0.0674  0.1982 -0.2169
  557THF     C2 7230   0.055   2.220   2.692  0.7255 -0.2444  0.2913
  557THF     C3 7231   0.226   2.374   2.676  0.3565 -0.4822  0.0235
  557THF     H4 7232   0.022   2.164   2.605 -1.9078  2.3773 -0.6001
  557THF     H5 7233  -0.032   2.232   2.757  0.6618  2.1449 -0.1394
  557THF     H6 7234   0.277   2.411   2.588 -0.0061 -0.2548 -0.0897
  557THF     H7 7235   0.224   2.454   2.750 -0.0780 -0.3428 -0.1435
  557THF     C8 7236   0.290   2.244   2.711 -0.5543  0.7877  0.1877
  557THF     C9 7237   0.172   2.178   2.776 -0.2893  0.4212 -0.2052
  557THF    H10 7238   0.373   2.260   2.779  0.6491  1.0373 -1.2903
  557THF    H11 7239   0.329   2.190   2.624 -0.1041  0.1085  0.8047
  557THF    H12 7240   0.185   2.071   2.764 -0.7844  0.4207 -0.7901
  557THF    H13 7241   0.160   2.207   2.880  0.7624 -1.7030  0.5637
  558THF     O1 7242   1.102   1.756   3.989 -0.6592 -0.3369 -0.0444
  558THF     C2 7243   1.100   1.895   4.017  0.5415  0.0476 -0.1017
  558THF     C3 7244   1.236   1.711   3.996  0.2092 -0.1048  0.4186
  558THF     H4 7245   1.003   1.915   4.062  1.6279 -2.8267  4.0753
  558THF     H5 7246   1.110   1.958   3.928 -0.3936 -0.6525 -0.7174
  558THF     H6 7247   1.252   1.635   4.072  2.6435 -0.5995 -0.4981
  558THF     H7 7248   1.264   1.665   3.901 -2.7383  0.8403 -1.0496
  558THF     C8 7249   1.322   1.832   4.032  1.1272 -0.6489  0.8995
  558THF     C9 7250   1.217   1.916   4.114  0.6143 -0.3567  0.0709
  558THF    H10 7251   1.360   1.870   3.936 -1.8670 -0.1748 -0.1875
  558THF    H11 7252   1.409   1.809   4.094  0.2431  0.8348  2.7964
  558THF    H12 7253   1.199   1.870   4.211 -0.9669 -2.4596 -1.1255
  558THF    H13 7254   1.257   2.016   4.130 -1.1368  0.5313 -0.8146
  559THF     O1 7255   2.549   0.446   3.151  0.4791 -0.3988 -0.3500
  559THF     C2 7256   2.592   0.386   3.034 -0.4751  0.9385  0.4022
  559THF     C3 7257   2.450   0.373   3.214 -0.8442 -0.4095 -0.3645
  559THF     H4 7258   2.682   0.333   3.064 -0.1222  1.3519  0.0659
  559THF     H5 7259   2.620   0.464   2.963  0.4827 -0.2548 -0.5814
  559THF     H6 7260   2.488   0.284   3.265 -0.0766  1.4064  2.4065
  559THF     H7 7261   2.400   0.436   3.287 -0.4698  1.7764 -1.8910
  559THF     C8 7262   2.365   0.344   3.094 -0.5786  0.1698 -0.0564
  559THF     C9 7263   2.465   0.313   2.979  0.2231 -0.0872 -0.2911
  559THF    H10 7264   2.319   0.439   3.068  0.9561  0.5582 -1.5557
  559THF    H11 7265   2.283   0.275   3.112  0.2071 -1.0679 -1.0936
  559THF    H12 7266   2.488   0.208   2.964 -0.5870 -0.3847  0.4519
  559THF    H13 7267   2.427   0.349   2.883  0.6437 -1.8040 -1.1370
  560THF     O1 7268   4.892   1.586   1.328  0.1898  0.0928  0.4070
  560THF     C2 7269   4.832   1.551   1.455  0.8207  0.4147  0.1650
  560THF     C3 7270   4.973   1.699   1.354  0.4788  0.2730 -0.6997
  560THF     H4 7271   4.822   1.444   1.472 -1.1476  0.3619 -1.1465
  560THF     H5 7272   4.731   1.592   1.451  0.4077 -0.6489 -0.4624
  560THF     H6 7273   5.056   1.714   1.285  1.1768 -1.2847 -0.2598
  560THF     H7 7274   4.910   1.787   1.357 -2.2265 -1.5594  1.2079
  560THF     C8 7275   5.032   1.669   1.484 -0.3188  0.2957 -0.6445
  560THF     C9 7276   4.917   1.614   1.563 -0.5790  0.2635 -0.6834
  560THF    H10 7277   5.068   1.760   1.532  1.1726  0.0474 -1.2583
  560THF    H11 7278   5.106   1.591   1.467 -0.3419 -0.0506  0.7266
  560THF    H12 7279   4.935   1.563   1.658  1.7944 -0.5595 -1.5150
  560THF    H13 7280   4.857   1.698   1.598 -0.6806 -0.6250  1.4080
  561THF     O1 7281   4.615   1.615   0.823  0.1679  0.1495  0.5746
  561THF     C2 7282   4.586   1.519   0.918  0.1994  0.3401  0.0894
  561THF     C3 7283   4.757   1.621   0.805 -0.0450  0.1604 -0.8231
  561THF     H4 7284   4.585   1.428   0.857 -0.3476 -0.3313  1.0562
  561THF     H5 7285   4.490   1.519   0.970  0.1386 -3.5385  0.2964
  561THF     H6 7286   4.799   1.530   0.763 -0.2413 -1.9124  3.0632
  561THF     H7 7287   4.792   1.711   0.753  0.2623  0.0260 -0.8527
  561THF     C8 7288   4.797   1.636   0.957  0.1006  0.0498  0.3087
  561THF     C9 7289   4.698   1.538   1.020  0.4820  0.2194  0.8529
  561THF    H10 7290   4.776   1.736   0.995  0.2321  0.9294 -1.7562
  561THF    H11 7291   4.902   1.608   0.969  0.1538  0.7106  1.4472
  561THF    H12 7292   4.743   1.447   1.061  1.7545 -0.6539 -2.1572
  561THF    H13 7293   4.666   1.583   1.114  0.3296 -0.6059  1.2062
  562THF     O1 7294   0.927   4.072   3.277 -0.3304  0.0291 -0.2162
  562THF     C2 7295   0.908   4.189   3.201 -0.1986  0.0758 -0.0612
  562THF     C3 7296   0.830   3.978   3.259  0.2056  0.3592  1.0821
  562THF     H4 7297   0.990   4.249   3.163 -1.0543  0.3899 -1.4979
  562THF     H5 7298   0.849   4.247   3.272 -0.9032 -0.5926 -0.0873
  562THF     H6 7299   0.845   3.872   3.280 -1.7734 -0.5068 -1.4059
  562THF     H7 7300   0.738   4.009   3.310  0.7157  1.0612  1.5881
  562THF     C8 7301   0.809   3.992   3.111  0.3719 -0.5902 -0.3663
  562THF     C9 7302   0.828   4.138   3.080 -0.2060 -0.2490 -0.0706
  562THF    H10 7303   0.713   3.954   3.075  0.3447 -0.7516 -0.1232
  562THF    H11 7304   0.892   3.937   3.066  2.0973  0.6362  1.1607
  562THF    H12 7305   0.877   4.158   2.985  0.9902  1.4425  0.8487
  562THF    H13 7306   0.730   4.186   3.076  0.4842  1.1898 -0.3307
  563THF     O1 7307   4.899   5.378   0.633  0.7926 -0.4322  0.5357
  563THF     C2 7308   4.971   5.341   0.759  0.6655  0.4305  0.0520
  563THF     C3 7309   4.777   5.426   0.685 -0.0093 -0.1651  0.1820
  563THF     H4 7310   5.080   5.334   0.755  0.7483 -0.7948  2.4070
  563THF     H5 7311   4.938   5.240   0.783  0.8886  0.5118  0.7439
  563THF     H6 7312   4.735   5.486   0.604 -0.8924  0.3882  1.0238
  563THF     H7 7313   4.711   5.341   0.704 -1.9932  0.6246 -2.5740
  563THF     C8 7314   4.812   5.516   0.805  0.0028 -0.4531  0.3008
  563THF     C9 7315   4.922   5.442   0.871  0.0801  0.6310  0.3742
  563THF    H10 7316   4.727   5.531   0.872 -1.1162 -0.7455 -1.0031
  563THF    H11 7317   4.851   5.611   0.770 -3.8700  1.2125  0.0449
  563THF    H12 7318   4.999   5.515   0.897  0.2650  0.5425  0.0710
  563THF    H13 7319   4.897   5.396   0.967  2.3660  0.7161  1.0568
  564THF     O1 7320   1.334   0.172   0.271 -0.4135 -0.0515  0.2514
  564THF     C2 7321   1.308   0.307   0.245  0.6725 -0.2037  0.4183
  564THF     C3 7322   1.425   0.169   0.383  0.2421  0.2579  0.4256
  564THF     H4 7323   1.209   0.343   0.273  0.0046 -1.9454  0.4113
  564THF     H5 7324   1.312   0.307   0.136  2.1809 -0.5303  0.4531
  564THF     H6 7325   1.366   0.157   0.474  0.7701 -1.5779  0.5532
  564THF     H7 7326   1.485   0.078   0.386  0.0816  0.1556  3.0411
  564THF     C8 7327   1.509   0.288   0.370  0.0673 -0.1027  0.4680
  564THF     C9 7328   1.426   0.391   0.300  0.1654 -0.1055 -0.3947
  564THF    H10 7329   1.593   0.258   0.307  1.2213 -0.1208  1.9645
  564THF    H11 7330   1.551   0.325   0.464 -2.9117  0.4034  1.7163
  564THF    H12 7331   1.393   0.462   0.376 -1.5744  1.6209 -2.6338
  564THF    H13 7332   1.479   0.440   0.219 -0.8300  0.4390 -0.7359
  565THF     O1 7333   4.743   4.781   4.874 -0.5185  0.2460  0.1803
  565THF     C2 7334   4.740   4.646   4.849 -0.5343  0.3246  0.2658
  565THF     C3 7335   4.615   4.837   4.873  0.3941 -0.3448 -0.0781
  565THF     H4 7336   4.715   4.605   4.946 -0.2679 -1.4576 -0.3792
  565THF     H5 7337   4.836   4.601   4.822 -0.5625  0.3481  0.1244
  565THF     H6 7338   4.569   4.862   4.969 -1.9564  3.7877 -2.0179
  565THF     H7 7339   4.625   4.938   4.833  3.2370  0.1308  1.5210
  565THF     C8 7340   4.530   4.738   4.798 -0.2911  0.4756 -0.2024
  565THF     C9 7341   4.621   4.621   4.754  0.0475 -0.5701 -0.5062
  565THF    H10 7342   4.474   4.776   4.713 -1.1858 -1.4309 -0.5202
  565THF    H11 7343   4.459   4.703   4.874 -0.3080  1.0186  0.0321
  565THF    H12 7344   4.574   4.523   4.755 -1.0129 -0.0710 -0.0222
  565THF    H13 7345   4.651   4.644   4.651  0.2059  1.7160 -0.0191
  566THF     O1 7346   3.250   0.657   4.656  0.2053  0.0465 -0.3950
  566THF     C2 7347   3.257   0.679   4.798  0.2304  0.6544  0.7463
  566THF     C3 7348   3.363   0.736   4.607  0.2028 -0.5185 -1.0134
  566THF     H4 7349   3.355   0.650   4.835  0.3823 -0.1680 -0.2587
  566THF     H5 7350   3.183   0.644   4.870 -0.7043 -0.8443 -0.8612
  566THF     H6 7351   3.460   0.707   4.648  0.7347 -0.2346 -2.0411
  566THF     H7 7352   3.372   0.738   4.499  1.3900 -0.0621 -0.9239
  566THF     C8 7353   3.328   0.873   4.674 -0.0119 -0.3560 -0.3681
  566THF     C9 7354   3.255   0.829   4.807 -0.4298  0.1166  0.0701
  566THF    H10 7355   3.258   0.921   4.605 -1.0203 -0.9286  0.2308
  566THF    H11 7356   3.424   0.922   4.690 -1.2444  1.1579  3.5808
  566THF    H12 7357   3.311   0.856   4.896  1.2407 -0.1405 -0.8693
  566THF    H13 7358   3.150   0.858   4.811 -0.5453 -0.3833  1.2199
  567THF     O1 7359   3.499   1.294   1.320  0.4471 -0.0095 -0.3665
  567THF     C2 7360   3.638   1.311   1.355 -0.4520 -0.1078 -0.6275
  567THF     C3 7361   3.480   1.358   1.199  0.2173 -0.0842 -0.0532
  567THF     H4 7362   3.661   1.247   1.440  0.4194 -1.3295 -1.7425
  567THF     H5 7363   3.676   1.411   1.377  0.6432 -0.5350 -0.4916
  567THF     H6 7364   3.380   1.330   1.166  0.3822  1.1100 -1.7317
  567THF     H7 7365   3.475   1.466   1.214  1.2763 -0.0946  0.4659
  567THF     C8 7366   3.598   1.316   1.116 -0.2390 -0.7040 -0.6997
  567THF     C9 7367   3.698   1.270   1.219  0.2704  0.2968 -0.0258
  567THF    H10 7368   3.629   1.393   1.045  1.1698  0.3946  1.0044
  567THF    H11 7369   3.584   1.225   1.058 -2.0421  0.2613 -1.8907
  567THF    H12 7370   3.727   1.165   1.219  1.1181  0.4924  1.3984
  567THF    H13 7371   3.794   1.313   1.191 -0.9104  2.0395 -1.6607
  568THF     O1 7372   2.722   0.697   4.801  0.3091 -0.4535  0.0888
  568THF     C2 7373   2.776   0.811   4.869  0.2585  0.1466  0.0271
  568THF     C3 7374   2.757   0.578   4.865 -0.1177 -0.0727 -0.8090
  568THF     H4 7375   2.706   0.894   4.880  0.6953  0.4692  0.4078
  568THF     H5 7376   2.861   0.847   4.811  0.5350  0.2891  0.5204
  568THF     H6 7377   2.667   0.522   4.890 -0.1290 -1.1680 -3.0746
  568THF     H7 7378   2.816   0.509   4.805 -0.0824 -0.7790  0.0173
  568THF     C8 7379   2.841   0.618   4.989 -0.4204 -0.9562  0.2671
  568THF     C9 7380   2.813   0.766   5.008 -0.4750 -0.4867  0.2913
  568THF    H10 7381   2.947   0.600   4.970  0.0015  0.2454  1.4107
  568THF    H11 7382   2.800   0.559   5.071 -1.4307 -0.1997  0.3291
  568THF    H12 7383   2.743   0.794   5.086 -0.6061  1.3243 -0.4338
  568THF    H13 7384   2.911   0.811   5.028 -0.6982 -0.1767  0.6818
  569THF     O1 7385   2.159   2.340   0.360  0.4050 -0.0244  1.0136
  569THF     C2 7386   2.188   2.404   0.484  0.2964  0.8330 -0.3973
  569THF     C3 7387   2.171   2.198   0.368 -0.4696 -0.3084  0.0689
  569THF     H4 7388   2.099   2.406   0.547  1.0542 -0.8291  0.7961
  569THF     H5 7389   2.233   2.503   0.476  0.0193  0.9164 -0.8922
  569THF     H6 7390   2.079   2.161   0.413 -0.8500  1.2242  0.6167
  569THF     H7 7391   2.188   2.156   0.269 -0.4529  0.5153 -0.2842
  569THF     C8 7392   2.300   2.193   0.450  0.0669  0.2138  0.6223
  569THF     C9 7393   2.289   2.307   0.548  0.0358 -0.3094  0.4685
  569THF    H10 7394   2.387   2.209   0.386 -1.8910 -0.3481 -2.3950
  569THF    H11 7395   2.297   2.089   0.481 -1.6871 -0.2358 -0.8377
  569THF    H12 7396   2.250   2.283   0.647  0.1265  1.1348  0.8785
  569THF    H13 7397   2.380   2.363   0.568 -0.3181  0.4003  0.1121
  570THF     O1 7398   2.747   2.154   0.568  0.2579 -0.2334 -0.5501
  570THF     C2 7399   2.860   2.216   0.498  0.2958  0.3542 -0.1837
  570THF     C3 7400   2.641   2.240   0.544  0.0588  0.3784 -0.3869
  570THF     H4 7401   2.941   2.147   0.481  1.3535  1.8228 -1.4240
  570THF     H5 7402   2.900   2.305   0.548  1.0542  0.3115 -0.7035
  570THF     H6 7403   2.542   2.199   0.564  0.0184  0.5010 -0.3356
  570THF     H7 7404   2.655   2.332   0.601 -1.5402  0.2907  0.2088
  570THF     C8 7405   2.649   2.261   0.396  0.6850  0.6328 -0.3234
  570THF     C9 7406   2.795   2.247   0.357  0.7388 -0.0324  0.0189
  570THF    H10 7407   2.600   2.353   0.367 -1.7231 -0.2215  0.7846
  570THF    H11 7408   2.602   2.184   0.334  1.0095  0.6157 -0.5532
  570THF    H12 7409   2.815   2.157   0.298  2.5848  0.2071  0.2296
  570THF    H13 7410   2.835   2.332   0.302  0.3860  0.1070 -0.0280
  571THF     O1 7411   5.363   5.024   3.567 -0.3749  0.6008  0.1540
  571THF     C2 7412   5.277   5.135   3.574 -0.3426  0.1698  0.5411
  571THF     C3 7413   5.493   5.080   3.545 -0.1241 -0.2915 -0.2770
  571THF     H4 7414   5.295   5.173   3.675 -0.8062  0.8994  0.3607
  571THF     H5 7415   5.172   5.105   3.574 -0.6982  1.3421  0.7608
  571THF     H6 7416   5.526   5.135   3.633 -0.0957 -1.3476  0.3796
  571THF     H7 7417   5.563   5.002   3.514  1.2359  0.1670  1.5009
  571THF     C8 7418   5.467   5.182   3.438 -0.3607  0.1474  0.4853
  571THF     C9 7419   5.320   5.229   3.464  0.6111  0.2707  0.2397
  571THF    H10 7420   5.459   5.132   3.341 -1.8118  1.5557 -0.1695
  571THF    H11 7421   5.537   5.260   3.408  0.1517 -1.2011 -2.1950
  571THF    H12 7422   5.319   5.334   3.495 -0.6592  0.2405  0.3260
  571THF    H13 7423   5.260   5.216   3.375  0.5802 -1.8296  0.5285
  572THF     O1 7424   2.897   4.228   3.662 -0.1467  0.3466  0.4708
  572THF     C2 7425   3.031   4.263   3.638 -0.2216  0.0181 -0.5522
  572THF     C3 7426   2.874   4.110   3.581 -0.0627 -0.3111 -0.3686
  572THF     H4 7427   3.099   4.198   3.691 -1.7047  0.6822  2.3556
  572THF     H5 7428   3.048   4.371   3.648 -0.9454  0.2004 -1.1722
  572THF     H6 7429   2.913   4.031   3.645 -1.9700  0.5332  2.0251
  572THF     H7 7430   2.770   4.078   3.565  0.7049 -2.4579 -1.4380
  572THF     C8 7431   2.945   4.145   3.450 -0.1718 -0.0012  0.3010
  572THF     C9 7432   3.062   4.234   3.490 -0.1320 -0.1737 -0.2253
  572THF    H10 7433   2.887   4.207   3.381  1.0721  1.3220  0.3931
  572THF    H11 7434   2.973   4.054   3.397  2.2581 -0.0887  1.5847
  572THF    H12 7435   3.152   4.173   3.483 -0.8206 -1.3006  0.4931
  572THF    H13 7436   3.055   4.328   3.434  0.9369 -0.5388 -1.0121
  573THF     O1 7437   4.773   2.882   5.100  0.1081 -0.4506  0.2162
  573THF     C2 7438   4.704   2.920   5.219  0.1790 -0.2478  0.3257
  573THF     C3 7439   4.817   3.007   5.045  0.6489 -0.4813  0.3997
  573THF     H4 7440   4.670   2.844   5.289  1.7649 -0.9433  0.3854
  573THF     H5 7441   4.611   2.971   5.194 -1.1383 -2.0060  1.4773
  573THF     H6 7442   4.890   2.995   4.966 -0.9403 -1.7366 -0.9595
  573THF     H7 7443   4.728   3.057   5.009  0.7239 -1.5622 -1.4003
  573THF     C8 7444   4.869   3.089   5.161 -0.2135 -0.0542  0.1552
  573THF     C9 7445   4.803   3.017   5.276  0.2351 -0.2713  0.3294
  573THF    H10 7446   4.832   3.191   5.156 -0.4142 -0.0759  0.9930
  573THF    H11 7447   4.977   3.097   5.172 -0.1716 -1.6028  1.2967
  573THF    H12 7448   4.876   2.965   5.337  3.0535  3.3467  0.4117
  573THF    H13 7449   4.746   3.095   5.328 -1.8118 -0.7826 -1.0192
  574THF     O1 7450   3.231   2.102   2.320  0.3138 -0.0399  0.2181
  574THF     C2 7451   3.210   2.027   2.207  0.2791  0.1551  0.1446
  574THF     C3 7452   3.235   2.240   2.283 -0.8390 -0.0832  0.1987
  574THF     H4 7453   3.165   1.932   2.235 -0.1454  0.0363 -0.9130
  574THF     H5 7454   3.304   1.996   2.161 -0.3248 -1.2745 -0.1617
  574THF     H6 7455   3.228   2.305   2.370  1.3760 -0.7327  0.9322
  574THF     H7 7456   3.331   2.266   2.239  0.7910  0.5050  3.7964
  574THF     C8 7457   3.128   2.249   2.181 -0.8567 -0.4691  0.1425
  574THF     C9 7458   3.115   2.109   2.122 -0.1195  0.2820  0.2123
  574THF    H10 7459   3.153   2.319   2.101  1.1993 -0.3696  0.8253
  574THF    H11 7460   3.035   2.275   2.232 -1.2213  0.0732 -0.7784
  574THF    H12 7461   3.018   2.060   2.125 -0.4103  0.6296 -2.0575
  574THF    H13 7462   3.144   2.098   2.018 -3.5859  0.3939 -0.8838
  575THF     O1 7463   4.672   0.714   2.482  0.1552 -0.2516 -0.7345
  575THF     C2 7464   4.749   0.787   2.575 -0.7646 -0.3901 -0.2868
  575THF     C3 7465   4.759   0.608   2.445 -0.0747 -0.0224 -0.6017
  575THF     H4 7466   4.694   0.867   2.624 -0.8744  0.7674 -2.1784
  575THF     H5 7467   4.827   0.839   2.519 -0.5838  1.2065  1.3589
  575THF     H6 7468   4.693   0.536   2.396 -0.7259  0.1515 -0.0006
  575THF     H7 7469   4.833   0.654   2.380  0.2050  0.7566  0.2467
  575THF     C8 7470   4.820   0.556   2.572  0.8287  0.1350  0.3106
  575THF     C9 7471   4.814   0.679   2.662  0.4512 -0.3803 -0.4178
  575THF    H10 7472   4.923   0.522   2.563  0.6530 -0.7832  1.5535
  575THF    H11 7473   4.763   0.470   2.604  2.6983 -0.5039  2.1351
  575THF    H12 7474   4.755   0.650   2.750  2.5444 -0.3488  1.0605
  575THF    H13 7475   4.907   0.715   2.706 -1.1817  2.2131  1.1963
  576THF     O1 7476   5.313   0.384   1.586 -0.2179  0.4715 -0.1549
  576THF     C2 7477   5.364   0.311   1.704 -0.4038 -0.3473 -0.6056
  576THF     C3 7478   5.384   0.349   1.472 -1.1124  0.1214  0.3726
  576THF     H4 7479   5.277   0.261   1.745  1.3238 -1.9215  1.3678
  576THF     H5 7480   5.410   0.386   1.768 -1.9838  0.0609  0.0966
  576THF     H6 7481   5.324   0.360   1.382 -1.0870  0.8451  0.4367
  576THF     H7 7482   5.467   0.420   1.470 -2.2587  1.4880  0.0850
  576THF     C8 7483   5.438   0.206   1.500  0.1429 -0.4086  0.3240
  576THF     C9 7484   5.465   0.210   1.652 -0.8897  0.5398 -0.1730
  576THF    H10 7485   5.529   0.181   1.446  0.8134  0.4659  1.0315
  576THF    H11 7486   5.364   0.134   1.465  0.1714 -0.3338  0.1103
  576THF    H12 7487   5.471   0.115   1.705 -0.6616  0.5445 -0.1897
  576THF    H13 7488   5.563   0.254   1.670 -1.3377  0.9436  1.4258
  577THF     O1 7489   5.434   2.852   0.187  0.2805  0.7927 -0.5129
  577THF     C2 7490   5.569   2.859   0.212 -0.2143  0.0150  0.1280
  577THF     C3 7491   5.380   2.761   0.282 -0.1004  0.3760 -0.2370
  577THF     H4 7492   5.602   2.962   0.223  1.0914 -0.1862 -1.4283
  577THF     H5 7493   5.631   2.827   0.128  0.0128  1.9576 -0.4962
  577THF     H6 7494   5.334   2.811   0.367  1.1490 -0.7548  1.1481
  577THF     H7 7495   5.306   2.697   0.232  0.4539 -1.2292  0.9239
  577THF     C8 7496   5.494   2.683   0.345  0.3530 -0.1046 -0.0627
  577THF     C9 7497   5.599   2.781   0.341 -0.3272  0.2034  0.1610
  577THF    H10 7498   5.516   2.598   0.281 -1.7495 -1.3177  0.7348
  577THF    H11 7499   5.470   2.646   0.445  0.9111 -0.3331 -0.0074
  577THF    H12 7500   5.595   2.847   0.427 -0.0601  1.0178 -0.4434
  577THF    H13 7501   5.696   2.731   0.348 -0.9257 -1.0944 -0.3709
  578THF     O1 7502   2.511   4.564   0.021 -0.5255  0.5493 -0.9161
  578THF     C2 7503   2.430   4.568   0.136 -0.1112 -0.4612 -0.1903
  578THF     C3 7504   2.623   4.654   0.057 -0.3206  0.2998  0.6215
  578THF     H4 7505   2.357   4.488   0.128  1.0228 -1.3957 -1.8991
  578THF     H5 7506   2.374   4.661   0.139 -1.5661 -1.2296 -1.8514
  578THF     H6 7507   2.702   4.658  -0.017 -1.3400  1.6526 -0.4464
  578THF     H7 7508   2.593   4.758   0.047 -1.8557 -0.0481  1.2102
  578THF     C8 7509   2.656   4.626   0.195  0.0123  0.4417 -0.4791
  578THF     C9 7510   2.535   4.559   0.252  0.1328  0.0146 -0.1119
  578THF    H10 7511   2.685   4.721   0.240 -0.3246  1.8288 -3.0396
  578THF    H11 7512   2.735   4.551   0.209 -1.5519 -0.9421  1.4811
  578THF    H12 7513   2.550   4.453   0.272  0.6819 -0.2338 -1.6778
  578THF    H13 7514   2.493   4.621   0.331 -0.6046  3.1666 -2.7480
  579THF     O1 7515   3.873   3.927   5.271 -0.4461 -0.4414  0.1668
  579THF     C2 7516   3.737   3.886   5.293 -0.0396  0.1096 -0.2431
  579THF     C3 7517   3.883   3.998   5.145  0.7137 -0.5424 -0.4523
  579THF     H4 7518   3.714   3.855   5.394  0.2498 -0.6041 -0.3885
  579THF     H5 7519   3.716   3.819   5.210  0.7054  1.0914 -1.2770
  579THF     H6 7520   3.978   4.044   5.119  0.5323  0.6330  0.8649
  579THF     H7 7521   3.858   3.924   5.069  0.6901 -0.1845 -0.7941
  579THF     C8 7522   3.764   4.094   5.169  0.1153  0.2463 -0.0594
  579THF     C9 7523   3.665   4.019   5.266 -0.4261 -0.5751  0.0953
  579THF    H10 7524   3.708   4.128   5.081 -1.5114 -0.8180  0.5169
  579THF    H11 7525   3.813   4.181   5.212 -1.1388  0.6401  0.6311
  579THF    H12 7526   3.657   4.083   5.354 -0.8160 -3.5022  2.3599
  579THF    H13 7527   3.570   3.991   5.221  0.1517 -2.9741  0.2449
  580THF     O1 7528   2.360   3.575   2.251 -0.7545 -0.3978 -0.3826
  580THF     C2 7529   2.258   3.484   2.216 -1.1204  0.0942 -0.1543
  580THF     C3 7530   2.443   3.607   2.134  0.4043  0.6527 -0.1901
  580THF     H4 7531   2.167   3.543   2.205  0.2349  2.5677  1.0157
  580THF     H5 7532   2.245   3.407   2.292 -0.3816  0.1317  0.0173
  580THF     H6 7533   2.436   3.714   2.114 -2.2828  0.6920  0.5776
  580THF     H7 7534   2.544   3.567   2.140  0.4137  0.5883 -0.7304
  580THF     C8 7535   2.378   3.536   2.017  0.6495  0.7863 -0.0837
  580THF     C9 7536   2.301   3.419   2.082  0.1093  0.2767 -0.7803
  580THF    H10 7537   2.456   3.513   1.944 -0.8732  0.8472 -1.7922
  580THF    H11 7538   2.312   3.611   1.974  1.9311  1.9725 -0.0487
  580THF    H12 7539   2.215   3.371   2.034  1.1978 -3.0779  0.2933
  580THF    H13 7540   2.365   3.331   2.088  0.1630  0.2813 -1.2469
  581THF     O1 7541   3.093   2.562   3.443 -0.2343  0.8779 -0.5900
  581THF     C2 7542   3.225   2.525   3.478  0.0508  0.5257  0.8037
  581THF     C3 7543   3.088   2.604   3.311  0.0862  0.0990  0.0456
  581THF     H4 7544   3.219   2.434   3.539  3.1173 -0.0452  0.4263
  581THF     H5 7545   3.276   2.606   3.529  0.1800  1.3920 -0.6576
  581THF     H6 7546   2.989   2.607   3.266  1.6216  1.2983 -3.6593
  581THF     H7 7547   3.112   2.710   3.308  0.4229  0.0167 -0.3283
  581THF     C8 7548   3.186   2.524   3.245 -0.0976  0.2654  0.4840
  581THF     C9 7549   3.293   2.508   3.345  0.4692  0.0320  0.1936
  581THF    H10 7550   3.220   2.578   3.157 -1.7808  0.0648 -0.3334
  581THF    H11 7551   3.151   2.425   3.216  1.6742  0.2912 -2.0114
  581THF    H12 7552   3.338   2.409   3.337 -1.5595 -0.9734  0.3236
  581THF    H13 7553   3.365   2.587   3.325  0.8785  0.0775  1.6821
  582THF     O1 7554   0.359   5.231   0.327 -0.6280  0.0530  0.1123
  582THF     C2 7555   0.423   5.155   0.222 -0.5599  0.4150 -0.4490
  582THF     C3 7556   0.454   5.288   0.427  0.5963 -0.3170 -0.4781
  582THF     H4 7557   0.488   5.213   0.157 -0.3084 -0.6610 -1.1768
  582THF     H5 7558   0.364   5.093   0.155  1.8564 -0.1115 -2.2032
  582THF     H6 7559   0.475   5.393   0.412 -1.0313  0.0668 -0.2526
  582THF     H7 7560   0.415   5.276   0.528  0.7566  0.3289 -0.3382
  582THF     C8 7561   0.576   5.189   0.403  0.1251 -0.0013 -0.1335
  582THF     C9 7562   0.528   5.076   0.307  0.1325  0.4997  0.3370
  582THF    H10 7563   0.607   5.137   0.494  0.5029 -1.0481 -0.8302
  582THF    H11 7564   0.663   5.238   0.359  1.0474 -0.3555  1.2514
  582THF    H12 7565   0.610   5.040   0.245  1.1495 -3.0162  3.3692
  582THF    H13 7566   0.483   4.999   0.370  0.9377 -1.2606 -1.1723
  583THF     O1 7567   2.942   0.474   0.229  0.2757 -1.1262 -0.7370
  583THF     C2 7568   2.903   0.363   0.151 -0.2764 -0.3233 -0.1340
  583THF     C3 7569   2.923   0.431   0.367  0.3409  0.0782  0.1202
  583THF     H4 7570   2.958   0.366   0.056  0.6330  0.9056  0.4146
  583THF     H5 7571   2.794   0.362   0.144 -0.3717 -1.6055  1.1173
  583THF     H6 7572   2.985   0.494   0.431 -0.4327  0.5078  0.4600
  583THF     H7 7573   2.816   0.422   0.384  0.0972  1.2219 -0.6584
  583THF     C8 7574   2.990   0.294   0.364 -0.2662 -0.3956  0.1574
  583THF     C9 7575   2.951   0.234   0.228 -0.1813 -0.1423 -0.2609
  583THF    H10 7576   2.984   0.220   0.444 -0.5491 -0.6855 -0.1269
  583THF    H11 7577   3.095   0.318   0.351 -0.2283  0.1322  1.3328
  583THF    H12 7578   3.043   0.193   0.186  0.2676  0.3204  0.2468
  583THF    H13 7579   2.876   0.156   0.244  0.6836 -1.2722 -1.5232
  584THF     O1 7580   3.761   5.083   2.254  0.1154  0.4785  0.4665
  584THF     C2 7581   3.747   5.029   2.116  0.0032  0.1520 -0.2215
  584THF     C3 7582   3.633   5.105   2.309 -0.1254  0.1519  0.0949
  584THF     H4 7583   3.728   4.922   2.104 -2.6369  0.4966  0.2038
  584THF     H5 7584   3.839   5.051   2.062  1.4695  2.0653  2.7570
  584THF     H6 7585   3.586   5.020   2.358 -1.2355  2.1254  2.6965
  584THF     H7 7586   3.648   5.180   2.386 -0.8528  1.8967 -1.4039
  584THF     C8 7587   3.558   5.159   2.185 -0.7283 -0.5021  0.7336
  584THF     C9 7588   3.652   5.138   2.063 -0.5796 -0.6199  0.5794
  584THF    H10 7589   3.525   5.262   2.199 -3.9853 -1.3742  0.1180
  584THF    H11 7590   3.463   5.109   2.171 -1.2897 -0.3624  3.3995
  584THF    H12 7591   3.594   5.108   1.976 -1.3094 -3.1193  1.8265
  584THF    H13 7592   3.708   5.229   2.043 -2.8549  0.6782 -0.3095
  585THF     O1 7593   3.519   1.775   2.479  0.1689 -0.0623  0.2823
  585THF     C2 7594   3.522   1.731   2.346  0.4738 -0.2561 -0.0886
  585THF     C3 7595   3.380   1.809   2.509  0.2721  0.2165 -0.0830
  585THF     H4 7596   3.626   1.707   2.323  0.3849  1.1232 -2.2845
  585THF     H5 7597   3.500   1.823   2.291 -0.3530  0.0827  0.7883
  585THF     H6 7598   3.357   1.841   2.610  0.2137  2.5507 -0.7785
  585THF     H7 7599   3.360   1.896   2.447 -2.0832 -0.3900 -0.2943
  585THF     C8 7600   3.307   1.689   2.443 -0.0900  0.2494  0.4377
  585THF     C9 7601   3.411   1.630   2.341  0.3175 -0.1145 -0.3907
  585THF    H10 7602   3.210   1.718   2.401 -0.8276 -2.4689  0.0581
  585THF    H11 7603   3.282   1.609   2.514 -0.9153 -0.5548 -0.7140
  585THF    H12 7604   3.441   1.536   2.388 -0.7763 -0.0754  0.4415
  585THF    H13 7605   3.366   1.601   2.246 -1.0698 -1.5907  0.6525
  586THF     O1 7606   4.012   1.906   4.829 -0.4966 -0.0069 -0.2729
  586THF     C2 7607   3.898   1.947   4.762  0.4405 -0.1791 -0.3415
  586THF     C3 7608   4.131   1.923   4.749 -0.8207  0.6063 -0.0787
  586THF     H4 7609   3.872   2.050   4.784  0.6261 -0.6734  2.5809
  586THF     H5 7610   3.812   1.885   4.787  0.4840 -1.4770 -2.9612
  586THF     H6 7611   4.201   1.995   4.792  0.1920  0.7228 -1.8472
  586THF     H7 7612   4.184   1.828   4.750 -0.3255  0.8701  1.2090
  586THF     C8 7613   4.075   1.978   4.612 -0.8375 -0.3987 -0.5509
  586THF     C9 7614   3.930   1.932   4.610  0.2176  0.3049  0.2947
  586THF    H10 7615   4.130   1.945   4.524  0.2184  0.6643 -0.3217
  586THF    H11 7616   4.062   2.087   4.612 -4.2767 -0.6442  1.3807
  586THF    H12 7617   3.864   1.991   4.546  1.9975 -0.0123 -1.9239
  586THF    H13 7618   3.912   1.831   4.574 -0.6704  0.5078  0.1326
  587THF     O1 7619   5.357   1.499   1.072 -0.2058 -0.3619  0.5227
  587THF     C2 7620   5.373   1.459   0.939  0.1829 -0.1402  0.1927
  587THF     C3 7621   5.236   1.574   1.087  0.0617  1.0415 -0.4067
  587THF     H4 7622   5.457   1.391   0.921 -1.2347 -1.7700 -0.6548
  587THF     H5 7623   5.386   1.543   0.871 -1.4571 -0.9129 -1.1519
  587THF     H6 7624   5.208   1.574   1.192 -1.5705  0.9835 -0.8123
  587THF     H7 7625   5.254   1.681   1.071  2.3405  0.7423 -0.2317
  587THF     C8 7626   5.140   1.506   0.988  0.1290  0.8194  0.0790
  587THF     C9 7627   5.234   1.412   0.905 -0.3311 -0.2474  0.0055
  587THF    H10 7628   5.091   1.579   0.923 -3.4054 -0.6620  0.8371
  587THF    H11 7629   5.068   1.443   1.040 -1.0207  1.0521 -1.1718
  587THF    H12 7630   5.213   1.313   0.944 -1.0589 -0.6860 -1.4284
  587THF    H13 7631   5.224   1.420   0.797  0.2931  1.3559  0.0364
  588THF     O1 7632   3.440   3.104   3.174  0.3625  0.3648  0.4285
  588THF     C2 7633   3.458   3.127   3.034 -0.0488  0.2485  0.1196
  588THF     C3 7634   3.385   2.976   3.193  0.0448 -0.2122 -0.3225
  588THF     H4 7635   3.557   3.172   3.032 -0.8355  2.2030  1.7695
  588THF     H5 7636   3.379   3.191   2.996  2.2288  1.4831 -2.8929
  588THF     H6 7637   3.454   2.914   3.250 -0.3088 -0.6380 -0.3534
  588THF     H7 7638   3.289   2.980   3.244 -0.1351  0.8619 -0.7119
  588THF     C8 7639   3.361   2.914   3.056  0.1479  0.4315  0.1853
  588THF     C9 7640   3.457   2.988   2.968 -0.4742  0.4457 -0.3338
  588THF    H10 7641   3.256   2.933   3.030 -0.5791 -0.6674  2.1391
  588THF    H11 7642   3.365   2.805   3.057 -2.0299  0.3023  0.4191
  588THF    H12 7643   3.558   2.952   2.985  0.2933  2.4878 -0.2139
  588THF    H13 7644   3.427   2.984   2.864  2.2056 -4.1154 -1.1691
  589THF     O1 7645   5.233   4.274   1.928 -0.9331  0.3895 -0.3051
  589THF     C2 7646   5.374   4.275   1.954  0.6219  0.6885 -0.4166
  589THF     C3 7647   5.207   4.384   1.837 -0.1860  0.1838 -0.0749
  589THF     H4 7648   5.428   4.222   1.875  2.2684  2.5922 -0.6418
  589THF     H5 7649   5.393   4.214   2.042  0.2418 -0.0673 -0.8439
  589THF     H6 7650   5.226   4.360   1.733  0.5858  0.7037 -0.0639
  589THF     H7 7651   5.103   4.411   1.854 -0.3615  0.7324 -1.8834
  589THF     C8 7652   5.311   4.497   1.881  0.0116  0.2588  0.2044
  589THF     C9 7653   5.407   4.421   1.972 -0.4154 -0.1483 -0.0302
  589THF    H10 7654   5.259   4.570   1.944 -0.7049 -0.1546  0.1105
  589THF    H11 7655   5.353   4.546   1.794 -2.9811  1.1188 -0.8698
  589THF    H12 7656   5.506   4.462   1.948 -0.4627 -0.8964 -1.6641
  589THF    H13 7657   5.387   4.445   2.076 -0.4698  1.2135 -0.3421
  590THF     O1 7658   4.254   3.391   0.303 -0.0524 -0.4231  0.1995
  590THF     C2 7659   4.144   3.344   0.380 -0.7364  0.6508  0.4494
  590THF     C3 7660   4.339   3.476   0.382  0.2996  0.6011 -0.2706
  590THF     H4 7661   4.130   3.245   0.336  1.8610  0.4614 -0.0928
  590THF     H5 7662   4.058   3.410   0.369  1.3661  3.6080  0.7259
  590THF     H6 7663   4.443   3.475   0.348  1.1432 -3.1958  1.8577
  590THF     H7 7664   4.296   3.576   0.388 -0.0647  0.4538 -0.4465
  590THF     C8 7665   4.337   3.401   0.517  0.7089  0.6787  0.2461
  590THF     C9 7666   4.202   3.332   0.518 -0.0575 -0.1912  0.7509
  590THF    H10 7667   4.341   3.469   0.603 -0.1023  0.5225  0.4144
  590THF    H11 7668   4.420   3.331   0.527 -0.3201 -0.5301  0.4651
  590THF    H12 7669   4.221   3.228   0.547  0.8608 -0.6100 -1.2427
  590THF    H13 7670   4.143   3.384   0.594 -0.4687  0.4808 -0.0186
  591THF     O1 7671   0.378   4.143   4.039 -0.7889  0.1699  0.8963
  591THF     C2 7672   0.247   4.127   3.999  0.7056 -0.2760  0.5629
  591THF     C3 7673   0.398   4.285   4.058  0.2501  0.0200 -0.0498
  591THF     H4 7674   0.177   4.130   4.082  0.2437  3.1767  0.2065
  591THF     H5 7675   0.230   4.036   3.941 -1.2477  1.7339 -2.3005
  591THF     H6 7676   0.386   4.306   4.165 -0.7936 -2.5723  0.4135
  591THF     H7 7677   0.493   4.323   4.019 -1.6473  3.7214 -1.6321
  591THF     C8 7678   0.297   4.357   3.973  0.0571  0.6103  0.1782
  591THF     C9 7679   0.223   4.249   3.907  0.0620 -0.0186  0.5294
  591THF    H10 7680   0.343   4.424   3.900 -1.5948  1.1700 -0.3904
  591THF    H11 7681   0.227   4.415   4.033 -0.4353 -0.4013  0.6025
  591THF    H12 7682   0.117   4.272   3.892  0.5420  2.1631  0.1027
  591THF    H13 7683   0.261   4.232   3.806 -1.5955 -2.0836  0.1818
  592THF     O1 7684   3.363   5.064   4.940 -0.6675  0.0347 -0.2021
  592THF     C2 7685   3.451   5.173   4.954  0.2452 -0.4007  0.2120
  592THF     C3 7686   3.252   5.086   5.024  0.5885  0.6485 -0.1470
  592THF     H4 7687   3.469   5.219   4.857  1.1679 -0.2662  0.4367
  592THF     H5 7688   3.546   5.147   5.000 -0.1224 -1.8046  0.2245
  592THF     H6 7689   3.169   5.022   4.996  0.8285  1.2967 -2.4827
  592THF     H7 7690   3.276   5.043   5.122 -2.1719 -1.2908 -0.2077
  592THF     C8 7691   3.240   5.238   5.025  0.0266  0.6222 -0.5395
  592THF     C9 7692   3.378   5.285   5.033 -0.2284  0.0392  0.0339
  592THF    H10 7693   3.170   5.273   5.101 -0.9324 -0.3255 -0.9601
  592THF    H11 7694   3.200   5.272   4.929 -0.7716  0.0550 -0.4203
  592THF    H12 7695   3.381   5.383   4.985  3.4410  0.1430  0.1797
  592THF    H13 7696   3.417   5.298   5.134  1.4089 -1.3795 -0.3684
  593THF     O1 7697   0.102   3.914   3.516  0.0411  0.2191 -0.3843
  593THF     C2 7698  -0.006   3.858   3.436 -0.5177 -0.1602  0.1500
  593THF     C3 7699   0.040   4.000   3.607 -0.2608 -0.1305 -0.6976
  593THF     H4 7700  -0.032   3.763   3.482 -0.7037  0.5073  1.4731
  593THF     H5 7701   0.019   3.845   3.331  1.2741  0.1227  0.5100
  593THF     H6 7702  -0.012   3.936   3.678  1.2211 -0.8338 -0.2150
  593THF     H7 7703   0.095   4.076   3.663 -2.0204  1.2567 -0.7434
  593THF     C8 7704  -0.067   4.075   3.523 -1.1913 -0.4759 -0.6434
  593THF     C9 7705  -0.121   3.962   3.434 -0.1123 -0.0898 -0.5360
  593THF    H10 7706  -0.029   4.144   3.447 -0.1694 -0.5362 -0.2069
  593THF    H11 7707  -0.140   4.126   3.585  0.0419 -1.9883  2.2863
  593THF    H12 7708  -0.217   3.917   3.461 -1.0381 -0.9123 -4.5325
  593THF    H13 7709  -0.136   4.004   3.334 -0.0937  1.0639 -0.0717
  594THF     O1 7710   4.119   0.678   2.823  0.0792 -0.2404  0.3939
  594THF     C2 7711   4.075   0.685   2.690  0.3271  0.0939  0.1678
  594THF     C3 7712   4.005   0.682   2.905  0.1244 -0.0023 -0.8028
  594THF     H4 7713   4.047   0.586   2.653 -0.8849 -0.7055  2.9433
  594THF     H5 7714   4.160   0.732   2.640 -0.5335  2.4862  0.8266
  594THF     H6 7715   3.953   0.587   2.901  0.5572 -0.2011 -2.2103
  594THF     H7 7716   4.031   0.704   3.009  0.9186 -0.7938 -0.8245
  594THF     C8 7717   3.917   0.793   2.838  0.3039 -0.2417 -0.6649
  594THF     C9 7718   3.954   0.786   2.692  0.5310 -0.2830  0.2008
  594THF    H10 7719   3.935   0.894   2.874 -1.3658 -0.0246 -0.3473
  594THF    H11 7720   3.813   0.775   2.863  0.1251  0.7536 -0.6712
  594THF    H12 7721   3.873   0.750   2.629 -0.5784  3.4580 -0.7932
  594THF    H13 7722   3.972   0.890   2.663 -1.7954 -0.1970 -1.1521
  595THF     O1 7723   2.983   1.174   0.223 -0.0675 -0.5293  0.3186
  595THF     C2 7724   3.065   1.289   0.276 -0.0909 -0.0814 -0.2560
  595THF     C3 7725   2.846   1.181   0.275 -0.4898  0.6607 -0.0602
  595THF     H4 7726   3.103   1.359   0.202 -1.6476  2.7699  1.4831
  595THF     H5 7727   3.150   1.245   0.329  0.7495  1.7900  0.0239
  595THF     H6 7728   2.785   1.154   0.189  0.0598  3.1692 -1.3428
  595THF     H7 7729   2.827   1.114   0.359 -1.5523 -0.3036 -1.0438
  595THF     C8 7730   2.840   1.326   0.319 -0.5742 -0.1835 -0.4141
  595THF     C9 7731   2.976   1.352   0.378 -0.3459 -0.2387  0.5427
  595THF    H10 7732   2.772   1.343   0.403 -1.6193  1.8756 -1.5910
  595THF    H11 7733   2.824   1.393   0.234 -0.0181  1.0986  0.4647
  595THF    H12 7734   3.011   1.454   0.395 -1.5139  0.6105 -1.7012
  595THF    H13 7735   2.984   1.299   0.473  2.4643  0.2983  0.6792
  596THF     O1 7736   2.338   0.010   2.630 -0.2592  0.7556 -0.5330
  596THF     C2 7737   2.451   0.090   2.626 -0.2877 -0.4508  0.2853
  596THF     C3 7738   2.251   0.026   2.518 -0.4446 -0.1578  0.4136
  596THF     H4 7739   2.523   0.043   2.559  1.3071  0.1157  1.5411
  596THF     H5 7740   2.497   0.077   2.724  0.6507 -2.5016 -0.3737
  596THF     H6 7741   2.283  -0.032   2.432  1.5290  2.5238 -0.8021
  596THF     H7 7742   2.150  -0.005   2.543  0.0317 -1.5648  0.6626
  596THF     C8 7743   2.272   0.180   2.499 -0.1798 -0.1577 -0.2868
  596THF     C9 7744   2.390   0.227   2.584 -0.4801 -0.7040 -0.0560
  596THF    H10 7745   2.180   0.227   2.533  1.4144  2.7958  0.2484
  596THF    H11 7746   2.294   0.214   2.398 -2.0967  2.0851 -0.0472
  596THF    H12 7747   2.464   0.280   2.525 -0.7674  0.0937  0.2877
  596THF    H13 7748   2.353   0.288   2.666  2.1483 -1.7335  2.0716
  597THF     O1 7749   2.546   2.567   1.190  0.2404  0.3918 -0.4790
  597THF     C2 7750   2.603   2.438   1.181  0.3617 -0.6204  0.2933
  597THF     C3 7751   2.579   2.619   1.324  0.2339 -0.1860  0.5787
  597THF     H4 7752   2.638   2.420   1.079  0.1440  3.1000 -0.5902
  597THF     H5 7753   2.524   2.368   1.204  0.0013  0.1213  1.3982
  597THF     H6 7754   2.577   2.726   1.345  0.9703 -0.4998  2.5199
  597THF     H7 7755   2.505   2.573   1.390 -2.8268  1.3429 -1.5577
  597THF     C8 7756   2.718   2.565   1.351 -0.0717 -0.2396  0.3715
  597THF     C9 7757   2.719   2.432   1.280 -0.4898  0.3293 -0.7311
  597THF    H10 7758   2.742   2.542   1.455 -0.0928  2.5322  1.0599
  597THF    H11 7759   2.786   2.636   1.305 -0.8277 -0.6519 -1.4752
  597THF    H12 7760   2.808   2.422   1.219 -2.3196 -2.0251 -3.2566
  597THF    H13 7761   2.711   2.351   1.353  2.2085  0.3766 -0.2787
  598THF     O1 7762   1.225   3.406   4.512 -0.5092 -0.3230 -0.3927
  598THF     C2 7763   1.353   3.423   4.452  1.0082  0.3034  0.2101
  598THF     C3 7764   1.207   3.262   4.534 -0.1411 -0.2699 -0.1738
  598THF     H4 7765   1.430   3.410   4.528  0.2918 -1.2809  0.6926
  598THF     H5 7766   1.364   3.514   4.393 -1.0760  1.3257  1.2883
  598THF     H6 7767   1.252   3.219   4.623  1.3955 -2.0670 -1.7328
  598THF     H7 7768   1.099   3.245   4.531 -0.0967 -0.4550 -0.7447
  598THF     C8 7769   1.270   3.189   4.409 -0.3507  0.9634 -0.6858
  598THF     C9 7770   1.364   3.303   4.355  0.3544  0.4983 -0.1086
  598THF    H10 7771   1.190   3.153   4.345 -1.1469  0.3328  0.6106
  598THF    H11 7772   1.325   3.102   4.445 -1.5354  1.3496  2.3510
  598THF    H12 7773   1.462   3.255   4.350  0.5973  0.6761  1.9896
  598THF    H13 7774   1.322   3.322   4.256  0.3203 -1.7180 -0.5752
  599THF     O1 7775   3.714   0.517   0.096  0.2169  0.1171 -0.9556
  599THF     C2 7776   3.707   0.564  -0.032  0.0124  0.2844  0.8522
  599THF     C3 7777   3.837   0.545   0.152  0.4193 -0.2713  0.3742
  599THF     H4 7778   3.604   0.585  -0.062 -0.2031 -2.9492 -1.0837
  599THF     H5 7779   3.742   0.494  -0.107  1.8433 -0.0772  1.9700
  599THF     H6 7780   3.837   0.551   0.260  4.0166  1.1696  0.4281
  599THF     H7 7781   3.904   0.468   0.115 -0.8616 -1.1846 -0.1253
  599THF     C8 7782   3.874   0.684   0.093 -0.0745 -0.5482  0.1053
  599THF     C9 7783   3.787   0.698  -0.031 -1.1536 -0.1892 -0.4732
  599THF    H10 7784   3.976   0.680   0.055  0.1104 -1.8199  0.7087
  599THF    H11 7785   3.856   0.771   0.156  1.4404  1.0117 -1.4993
  599THF    H12 7786   3.718   0.781  -0.016 -1.1936 -0.5228  1.5711
  599THF    H13 7787   3.848   0.717  -0.118 -0.0259 -1.6626 -0.0373
  600THF     O1 7788   4.994   2.229   0.242 -0.0258  0.0699  0.0745
  600THF     C2 7789   4.941   2.286   0.356 -0.1242 -0.4433  0.0605
  600THF     C3 7790   5.112   2.160   0.283 -0.0206 -0.1285 -0.2232
  600THF     H4 7791   4.841   2.323   0.337  0.6734  0.5624 -2.5385
  600THF     H5 7792   5.008   2.367   0.384 -0.0627  0.0504 -1.4426
  600THF     H6 7793   5.164   2.096   0.212  0.1345 -0.0976 -0.1371
  600THF     H7 7794   5.187   2.237   0.297 -0.7091  0.2230  1.7620
  600THF     C8 7795   5.075   2.086   0.418 -0.2307 -0.4940 -0.2185
  600THF     C9 7796   4.955   2.170   0.453  0.1908  0.0515 -0.0312
  600THF    H10 7797   5.158   2.092   0.488 -0.6109  0.9609  0.1379
  600THF    H11 7798   5.037   1.989   0.386 -2.6073  1.1396 -2.7850
  600THF    H12 7799   4.870   2.104   0.471  1.6357 -1.5334  1.3297
  600THF    H13 7800   4.966   2.215   0.552  0.2222  0.2257 -0.1121
  601THF     O1 7801   2.153   0.478   0.979 -0.0135  0.2772  0.2707
  601THF     C2 7802   2.131   0.456   0.841  0.3373  0.4606  0.1613
  601THF     C3 7803   2.078   0.587   1.022 -0.0825 -0.2537  0.3508
  601THF     H4 7804   2.051   0.385   0.820 -0.9371  1.1409  2.4250
  601THF     H5 7805   2.220   0.411   0.796 -0.6506 -0.8839 -0.5381
  601THF     H6 7806   2.011   0.544   1.096 -0.3654 -1.5822 -0.6436
  601THF     H7 7807   2.140   0.663   1.070 -2.3674  2.3997 -0.6518
  601THF     C8 7808   2.013   0.649   0.893 -0.3323  0.0127 -0.6475
  601THF     C9 7809   2.109   0.593   0.786  0.6566 -0.0394 -0.2091
  601THF    H10 7810   2.024   0.758   0.899  2.0298 -0.1607 -0.8258
  601THF    H11 7811   1.911   0.614   0.877  0.1079 -1.7241  0.1616
  601THF    H12 7812   2.056   0.603   0.691 -2.3283  0.9802  1.4314
  601THF    H13 7813   2.199   0.654   0.778 -0.6037  1.6592 -3.0175
  602THF     O1 7814   5.433   3.045   2.134  1.0225  0.3224 -0.0142
  602THF     C2 7815   5.316   3.141   2.152 -0.6830  0.6159 -0.4490
  602THF     C3 7816   5.429   2.969   2.256  0.1419  0.0591  0.6527
  602THF     H4 7817   5.272   3.170   2.056  0.0311 -1.1924 -1.3824
  602THF     H5 7818   5.370   3.216   2.209 -1.8014  1.5928 -0.6454
  602THF     H6 7819   5.477   2.871   2.250  2.0791  0.9187  1.3404
  602THF     H7 7820   5.470   3.022   2.342 -0.9292 -0.1753  1.3239
  602THF     C8 7821   5.282   2.940   2.274 -0.2426 -0.0550 -0.3714
  602THF     C9 7822   5.217   3.068   2.238  0.8524  0.7672  0.3578
  602THF    H10 7823   5.252   2.899   2.371 -0.7904  0.4400 -0.3258
  602THF    H11 7824   5.248   2.863   2.205  0.1327 -1.1057  0.5771
  602THF    H12 7825   5.123   3.057   2.185  1.0017  2.0027 -0.2150
  602THF    H13 7826   5.216   3.133   2.326 -1.2572 -0.6813  1.4960
  603THF     O1 7827   0.986   0.163   2.275  0.2966 -0.6601 -0.1745
  603THF     C2 7828   1.029   0.298   2.256 -0.0750 -0.0610  0.2478
  603THF     C3 7829   1.071   0.083   2.190 -0.1729 -0.1057 -0.2215
  603THF     H4 7830   1.001   0.363   2.339 -0.6778  1.5005 -1.0983
  603THF     H5 7831   0.973   0.346   2.175 -1.3945 -0.8643  0.6592
  603THF     H6 7832   1.072  -0.016   2.235 -0.6318 -0.0966 -0.1848
  603THF     H7 7833   1.037   0.078   2.086  1.8206  4.0481 -1.3079
  603THF     C8 7834   1.211   0.147   2.205 -0.2183  0.5394 -0.2051
  603THF     C9 7835   1.181   0.300   2.217 -0.7695  0.1989 -0.1811
  603THF    H10 7836   1.275   0.126   2.120  1.3368 -3.7179  1.7520
  603THF    H11 7837   1.254   0.119   2.302 -0.9625 -0.8800 -0.2579
  603THF    H12 7838   1.242   0.347   2.294  0.2304 -0.1107 -0.7644
  603THF    H13 7839   1.198   0.351   2.122 -0.4137  1.4102  0.5045
  604THF     O1 7840   1.050   4.196   3.972 -0.0681  0.2270  0.0982
  604THF     C2 7841   1.083   4.062   3.962  0.6549 -0.2785 -0.8282
  604THF     C3 7842   0.914   4.202   3.922 -0.3250 -0.8794 -0.2863
  604THF     H4 7843   1.158   4.041   4.038 -1.6177 -2.9432  0.8856
  604THF     H5 7844   1.121   4.043   3.861  0.2135 -0.0602 -1.0373
  604THF     H6 7845   0.871   4.297   3.954 -2.2581 -1.1998 -1.7809
  604THF     H7 7846   0.910   4.190   3.814 -0.8659 -1.7377 -0.1818
  604THF     C8 7847   0.838   4.089   3.992 -0.3879  0.1291 -0.4249
  604THF     C9 7848   0.951   3.982   3.987 -0.1307 -0.6534 -0.0491
  604THF    H10 7849   0.758   4.063   3.922 -0.0017 -0.6672 -0.5778
  604THF    H11 7850   0.797   4.120   4.088  1.4904 -0.2689  0.5281
  604THF    H12 7851   0.953   3.911   4.069 -0.4341  1.7928  2.2219
  604THF    H13 7852   0.939   3.915   3.902 -0.4389  0.1326 -0.6360
  605THF     O1 7853   1.564   4.641   2.079  0.1061 -0.0530  0.5126
  605THF     C2 7854   1.519   4.752   2.162  0.6748 -0.4119  0.6849
  605THF     C3 7855   1.669   4.582   2.159 -0.4447  0.2996  0.4660
  605THF     H4 7856   1.417   4.784   2.141  0.7132 -0.7276 -0.0479
  605THF     H5 7857   1.577   4.835   2.123  1.2653  0.1768  2.7208
  605THF     H6 7858   1.634   4.480   2.180 -1.8518  0.9661  1.6028
  605THF     H7 7859   1.763   4.573   2.106 -0.0349  1.6052  0.9293
  605THF     C8 7860   1.684   4.671   2.287  0.1230  0.2066  0.2572
  605THF     C9 7861   1.548   4.726   2.302 -0.0529  0.0085  0.0503
  605THF    H10 7862   1.755   4.750   2.262 -1.5380  2.1224  1.3153
  605THF    H11 7863   1.721   4.609   2.369  0.2369  1.8939  1.5258
  605THF    H12 7864   1.483   4.645   2.338  0.6325 -0.8388 -0.5710
  605THF    H13 7865   1.543   4.824   2.350 -0.2355  0.7493 -1.4457
  606THF     O1 7866   3.086   4.241   0.136  0.5382 -0.3543  1.1233
  606THF     C2 7867   3.197   4.204   0.217 -0.3863 -0.0539 -0.4454
  606THF     C3 7868   3.015   4.347   0.200  0.0828  0.6149  0.2825
  606THF     H4 7869   3.287   4.244   0.170  0.3530 -0.1768  0.8164
  606THF     H5 7870   3.214   4.096   0.221  2.8769  0.2815 -2.0561
  606THF     H6 7871   3.061   4.445   0.189 -0.8019  1.2397  1.8731
  606THF     H7 7872   2.917   4.362   0.155  0.0569 -1.6118 -0.5518
  606THF     C8 7873   3.016   4.311   0.346  0.4065 -0.0919 -0.5244
  606THF     C9 7874   3.162   4.262   0.360  0.3157 -0.1204 -0.1654
  606THF    H10 7875   2.942   4.234   0.370 -0.5132  0.2454 -2.1425
  606THF    H11 7876   3.003   4.392   0.419  0.4475 -0.5111 -0.0463
  606THF    H12 7877   3.230   4.343   0.388  0.4322 -0.3086  0.1072
  606THF    H13 7878   3.171   4.183   0.435  2.1059 -0.3161 -0.5630
  607THF     O1 7879   4.411   1.244   0.656  0.9165  0.0788 -0.1042
  607THF     C2 7880   4.420   1.358   0.573 -0.0780 -0.2883  0.1378
  607THF     C3 7881   4.277   1.231   0.703  0.4965 -0.0970  0.1212
  607THF     H4 7882   4.428   1.351   0.464 -1.0425  2.3372 -0.1642
  607THF     H5 7883   4.501   1.424   0.604  0.1783  0.4554 -1.9513
  607THF     H6 7884   4.235   1.145   0.653 -1.9886  2.5610 -2.7900
  607THF     H7 7885   4.279   1.236   0.812 -1.7326  0.6023  0.1783
  607THF     C8 7886   4.193   1.347   0.656  0.5743 -0.6561  0.1248
  607THF     C9 7887   4.299   1.444   0.606 -0.6003 -0.2827 -0.2734
  607THF    H10 7888   4.133   1.401   0.729  1.2239  0.3965 -0.1005
  607THF    H11 7889   4.136   1.318   0.567  1.2028 -1.4530 -0.0251
  607THF    H12 7890   4.261   1.489   0.514 -0.9289 -1.2588 -0.6257
  607THF    H13 7891   4.331   1.509   0.687  0.1629  0.3870 -1.0868
  608THF     O1 7892   5.111   3.660   0.398 -0.0828  0.2035 -0.1769
  608THF     C2 7893   4.975   3.636   0.382 -0.1677 -0.6267 -0.3710
  608THF     C3 7894   5.155   3.742   0.292 -0.6713  0.3239 -0.3285
  608THF     H4 7895   4.932   3.613   0.479  2.6879 -1.4892  0.8043
  608THF     H5 7896   4.960   3.544   0.325 -1.3986 -0.3148 -0.5584
  608THF     H6 7897   5.256   3.774   0.317 -0.8989  1.3270 -0.6652
  608THF     H7 7898   5.176   3.684   0.202  0.7698  2.8843 -1.7479
  608THF     C8 7899   5.039   3.844   0.289 -0.6486 -0.1749  0.4186
  608THF     C9 7900   4.911   3.759   0.317 -0.3063 -0.0332  0.2115
  608THF    H10 7901   5.037   3.911   0.203 -0.2826  0.1811  0.6846
  608THF    H11 7902   5.054   3.920   0.366  2.1268  0.4407 -0.6152
  608THF    H12 7903   4.844   3.803   0.391 -0.2519 -2.0646  1.5546
  608THF    H13 7904   4.864   3.727   0.224 -1.4913  1.0235  0.4166
  609THF     O1 7905   3.556   1.179   2.027  0.0930 -0.1635 -0.3919
  609THF     C2 7906   3.640   1.078   1.973  0.1815  0.9347  0.6341
  609THF     C3 7907   3.497   1.127   2.145  0.5484  0.6022  0.1450
  609THF     H4 7908   3.727   1.056   2.035  0.3831  0.8577  0.3228
  609THF     H5 7909   3.675   1.093   1.871 -0.2489 -0.2874  0.2950
  609THF     H6 7910   3.564   1.113   2.230  2.0757 -0.5996 -1.1935
  609THF     H7 7911   3.404   1.173   2.179  0.4609  1.7410 -1.5257
  609THF     C8 7912   3.451   0.990   2.098  0.0574  0.5732  0.6035
  609THF     C9 7913   3.550   0.951   1.987  0.1853  0.0856 -0.1004
  609THF    H10 7914   3.360   0.993   2.038  0.9499 -0.1744 -0.8358
  609THF    H11 7915   3.435   0.912   2.172 -0.7040 -1.5175 -1.6368
  609THF    H12 7916   3.609   0.863   2.012 -0.4150 -0.6915 -1.3261
  609THF    H13 7917   3.490   0.921   1.901 -2.1848 -1.0212  1.8204
  610THF     O1 7918   5.383   3.843   5.474 -0.0780 -0.3958  0.4913
  610THF     C2 7919   5.417   3.960   5.408 -0.1718  0.8992  0.0572
  610THF     C3 7920   5.487   3.806   5.556  0.1442  0.5746 -0.5058
  610THF     H4 7921   5.399   4.047   5.472 -0.2584 -0.3838  1.8821
  610THF     H5 7922   5.368   3.968   5.312 -0.6516  1.7634  0.3651
  610THF     H6 7923   5.491   3.866   5.647  1.0833 -1.5109  0.9024
  610THF     H7 7924   5.470   3.707   5.597 -0.5049  1.4205  1.4049
  610THF     C8 7925   5.618   3.825   5.476  0.3985  1.0282  0.3346
  610THF     C9 7926   5.571   3.934   5.381  0.4959  0.2596 -0.0811
  610THF    H10 7927   5.663   3.743   5.421 -0.5930  0.7875 -0.1385
  610THF    H11 7928   5.691   3.850   5.553 -1.7778  1.1369  2.4861
  610THF    H12 7929   5.617   4.031   5.396 -1.6539  1.7207 -2.1587
  610THF    H13 7930   5.590   3.900   5.279  0.9518  1.8526 -0.5537
  611THF     O1 7931   0.754   1.743   1.946 -0.0625 -0.1753  0.1051
  611THF     C2 7932   0.656   1.834   1.994 -0.2474 -0.5005 -0.0767
  611THF     C3 7933   0.724   1.707   1.811 -0.0992  0.2471 -0.1463
  611THF     H4 7934   0.673   1.879   2.092  3.1300  3.3521 -2.1059
  611THF     H5 7935   0.554   1.796   1.996 -1.2148  1.8477 -0.7291
  611THF     H6 7936   0.810   1.678   1.751 -0.6894  1.1686 -1.4831
  611THF     H7 7937   0.639   1.639   1.802 -1.0080  1.4967 -1.6564
  611THF     C8 7938   0.692   1.847   1.760  0.0672 -0.0641 -0.2101
  611THF     C9 7939   0.642   1.936   1.879 -0.1442  0.3075 -0.1934
  611THF    H10 7940   0.619   1.855   1.679  2.1028  0.0681 -2.1352
  611THF    H11 7941   0.779   1.890   1.710 -0.2545  1.5749  0.5527
  611THF    H12 7942   0.710   2.020   1.893  0.6526 -0.0245 -1.8231
  611THF    H13 7943   0.544   1.984   1.872 -0.2894 -0.0480 -0.7601
  612THF     O1 7944   0.438   4.672   2.175  0.4287  0.1004 -0.3770
  612THF     C2 7945   0.517   4.718   2.070  0.3959  0.1306 -0.6783
  612THF     C3 7946   0.512   4.713   2.289  0.2033  0.1851  0.5723
  612THF     H4 7947   0.469   4.715   1.972 -0.4708  1.6828 -0.3432
  612THF     H5 7948   0.610   4.662   2.069 -0.2216 -1.1211  2.2007
  612THF     H6 7949   0.447   4.712   2.377  1.1879  1.6153  1.3669
  612THF     H7 7950   0.605   4.659   2.304 -0.5408 -0.5600  3.0927
  612THF     C8 7951   0.548   4.862   2.254  0.5047  0.5845  0.2340
  612THF     C9 7952   0.551   4.862   2.105  0.5354  0.1252  0.7193
  612THF    H10 7953   0.646   4.889   2.295  0.9103 -0.3044 -0.1134
  612THF    H11 7954   0.475   4.939   2.279  0.8691  0.4740  1.7068
  612THF    H12 7955   0.468   4.920   2.064  0.1476 -0.3963  0.7463
  612THF    H13 7956   0.645   4.888   2.058  0.5837  0.3098  0.9177
  613THF     O1 7957   1.081   1.539   2.170 -0.2353 -0.2557 -0.2024
  613THF     C2 7958   1.157   1.565   2.290  0.1926  0.0212 -0.0930
  613THF     C3 7959   1.064   1.663   2.111  0.3735 -0.0905 -0.2361
  613THF     H4 7960   1.212   1.477   2.324  1.8830  0.6602 -1.0272
  613THF     H5 7961   1.092   1.586   2.374  0.8540  0.3636  0.3387
  613THF     H6 7962   1.038   1.650   2.006  2.1221 -3.3996 -0.3811
  613THF     H7 7963   0.987   1.718   2.165  0.1256  0.4968 -1.1594
  613THF     C8 7964   1.191   1.740   2.130 -0.2781 -0.5837  0.0134
  613THF     C9 7965   1.245   1.686   2.266 -0.1737  0.2545  0.5037
  613THF    H10 7966   1.177   1.848   2.134  1.1798 -0.3067 -1.4061
  613THF    H11 7967   1.256   1.720   2.044 -2.0006  3.6740 -2.6238
  613THF    H12 7968   1.353   1.679   2.259 -0.3183 -0.0994 -2.8477
  613THF    H13 7969   1.204   1.764   2.331 -0.1361  1.2979 -0.6806
  614THF     O1 7970   4.994   4.824   5.376  0.0510 -0.3332  0.3616
  614THF     C2 7971   4.892   4.839   5.274  0.4923 -0.0629 -0.0131
  614THF     C3 7972   4.931   4.822   5.502  0.1359  0.2233  0.5697
  614THF     H4 7973   4.853   4.741   5.246 -0.8238  0.2656  0.6171
  614THF     H5 7974   4.920   4.888   5.180 -0.1952 -0.2071 -0.2959
  614THF     H6 7975   4.943   4.721   5.541 -0.9102 -0.7900 -1.5801
  614THF     H7 7976   4.974   4.896   5.569 -1.2454  1.5038  0.0895
  614THF     C8 7977   4.778   4.856   5.485  0.3309 -0.0337  0.2720
  614THF     C9 7978   4.773   4.914   5.348 -0.3633 -0.1561 -0.4859
  614THF    H10 7979   4.744   4.932   5.555 -0.6456 -0.2634  0.0649
  614THF    H11 7980   4.723   4.763   5.496  0.0156  0.3974  2.9990
  614THF    H12 7981   4.682   4.898   5.289 -0.4086 -0.2005 -0.4037
  614THF    H13 7982   4.778   5.022   5.356 -0.5025  0.1025 -3.0058
  615THF     O1 7983   4.391   0.956   4.843  0.6311  0.8586 -0.3477
  615THF     C2 7984   4.379   0.881   4.720 -0.5647  0.1992 -0.2419
  615THF     C3 7985   4.418   1.093   4.807 -0.1111  0.2400  0.1181
  615THF     H4 7986   4.312   0.797   4.738 -0.9003  0.8393  1.7949
  615THF     H5 7987   4.481   0.848   4.702  0.0636  1.9168 -0.0181
  615THF     H6 7988   4.392   1.162   4.887 -1.2398 -0.2567  0.1930
  615THF     H7 7989   4.525   1.106   4.790 -0.4863  1.6796 -1.5180
  615THF     C8 7990   4.339   1.113   4.674  0.6015 -0.2249  0.2703
  615THF     C9 7991   4.332   0.976   4.608 -0.5241  0.9808 -0.2803
  615THF    H10 7992   4.368   1.193   4.606  2.2041 -1.1876 -0.2206
  615THF    H11 7993   4.237   1.141   4.702 -0.3210 -0.2942 -2.7030
  615THF    H12 7994   4.236   0.958   4.561 -1.5343  0.2825  1.9409
  615THF    H13 7995   4.412   0.962   4.535 -1.8567  0.2404 -1.6314
  616THF     O1 7996   3.637   1.127   0.087  0.0916 -0.5591 -0.4413
  616THF     C2 7997   3.668   1.059   0.212  0.5928  0.1222  0.0698
  616THF     C3 7998   3.759   1.127   0.007 -0.2008 -0.0377  0.7093
  616THF     H4 7999   3.656   0.952   0.193 -1.9992  0.3143  0.2470
  616THF     H5 8000   3.604   1.080   0.298  0.2642  1.4335 -0.4746
  616THF     H6 8001   3.751   1.052  -0.072 -0.8606  0.7301  0.0330
  616THF     H7 8002   3.764   1.222  -0.045 -3.3513 -1.1577 -1.9709
  616THF     C8 8003   3.869   1.086   0.100 -0.1359  0.5323  0.5845
  616THF     C9 8004   3.811   1.091   0.240  0.0562  0.1696  0.3752
  616THF    H10 8005   3.959   1.147   0.086  0.0727 -0.2086 -1.6609
  616THF    H11 8006   3.906   0.986   0.081  0.5476  0.5654  1.6773
  616THF    H12 8007   3.855   1.018   0.308  1.7109  1.3119  0.5955
  616THF    H13 8008   3.825   1.188   0.289  1.3812 -0.3104  0.9773
  617THF     O1 8009   5.182   0.079   2.437 -0.9176 -0.0762 -0.2216
  617THF     C2 8010   5.114   0.178   2.512  0.1160 -0.4781 -1.1799
  617THF     C3 8011   5.279   0.019   2.517 -0.3070 -0.9027 -0.5619
  617THF     H4 8012   5.011   0.196   2.481 -0.6187  0.1007  1.3779
  617THF     H5 8013   5.171   0.271   2.503 -2.4634  1.2589 -0.9855
  617THF     H6 8014   5.318  -0.070   2.467  0.7659 -0.3501 -0.7373
  617THF     H7 8015   5.377   0.068   2.523  0.2086 -2.0539  1.1253
  617THF     C8 8016   5.209   0.005   2.652 -0.1154  0.1963  0.5024
  617THF     C9 8017   5.113   0.120   2.662  0.1981  0.3568  0.0464
  617THF    H10 8018   5.281   0.001   2.734  1.2477 -2.4634 -0.6992
  617THF    H11 8019   5.154  -0.089   2.657 -0.3859  0.3961  1.6338
  617THF    H12 8020   5.010   0.090   2.684 -0.9853  1.0380 -3.7173
  617THF    H13 8021   5.143   0.192   2.737  1.4567 -0.4870  0.3747
  618THF     O1 8022   2.290   5.181   2.955  0.0893  0.1220  0.2941
  618THF     C2 8023   2.283   5.278   2.859 -0.6667  0.4320 -0.1692
  618THF     C3 8024   2.263   5.233   3.084  0.8111 -0.0427  0.1838
  618THF     H4 8025   2.191   5.290   2.802  0.2456  4.7708 -1.0902
  618THF     H5 8026   2.359   5.260   2.783  0.0532 -0.1408  0.6733
  618THF     H6 8027   2.177   5.197   3.140  0.0658  0.2403 -0.7550
  618THF     H7 8028   2.356   5.222   3.141  0.5419 -0.1542  0.5998
  618THF     C8 8029   2.231   5.383   3.059 -0.7325  0.0042  0.1922
  618THF     C9 8030   2.306   5.413   2.930 -0.4373 -0.4200 -0.0208
  618THF    H10 8031   2.264   5.447   3.142  1.1826 -0.0631 -0.4656
  618THF    H11 8032   2.126   5.404   3.038 -0.6324  1.6392  1.1703
  618THF    H12 8033   2.284   5.505   2.875  1.1772  0.0411  0.0557
  618THF    H13 8034   2.414   5.415   2.947 -0.6124  2.8415  1.3095
  619THF     O1 8035   3.592   3.384   0.322 -0.5109  0.2428  0.4420
  619THF     C2 8036   3.454   3.355   0.281 -0.0712  0.2459 -0.5623
  619THF     C3 8037   3.668   3.382   0.208 -0.1392  0.2909 -0.0038
  619THF     H4 8038   3.372   3.380   0.348 -0.3008  0.6669 -0.9939
  619THF     H5 8039   3.445   3.249   0.257  1.1185 -0.6175  2.3497
  619THF     H6 8040   3.766   3.428   0.223 -0.1897  0.4834 -0.2625
  619THF     H7 8041   3.681   3.282   0.167 -1.1219  0.4468 -0.7162
  619THF     C8 8042   3.588   3.453   0.099  0.0048 -0.4625  0.2391
  619THF     C9 8043   3.446   3.448   0.157  0.4198 -0.3399  0.5227
  619THF    H10 8044   3.598   3.394   0.008  0.6406 -0.8709  0.5671
  619THF    H11 8045   3.601   3.561   0.087  1.2367 -0.4904  1.1485
  619THF    H12 8046   3.424   3.545   0.202  1.0316  0.3157 -0.5489
  619THF    H13 8047   3.370   3.417   0.086  0.3262  0.5302  0.2306
  620THF     O1 8048   3.392   0.526   3.623  0.3285 -0.8943 -0.2272
  620THF     C2 8049   3.309   0.637   3.596  0.4587  0.1715 -0.0670
  620THF     C3 8050   3.304   0.440   3.705 -0.1777  0.1029  0.2364
  620THF     H4 8051   3.355   0.709   3.528  1.0595  0.6540  0.8297
  620THF     H5 8052   3.289   0.693   3.687 -0.6586  1.2261 -0.9328
  620THF     H6 8053   3.347   0.341   3.700  0.5002  0.4513 -1.3255
  620THF     H7 8054   3.305   0.475   3.809 -1.1859  0.9014 -0.0009
  620THF     C8 8055   3.160   0.445   3.642 -0.2990 -0.2650  0.4061
  620THF     C9 8056   3.169   0.574   3.561 -0.0806 -0.5222  0.9750
  620THF    H10 8057   3.080   0.464   3.713  0.0382  2.9891  0.0631
  620THF    H11 8058   3.134   0.360   3.579  0.2263  1.3637 -2.1650
  620THF    H12 8059   3.164   0.550   3.455  4.4324  2.0195 -0.0925
  620THF    H13 8060   3.091   0.647   3.584  1.1981  1.7971 -1.4257
  621THF     O1 8061   4.007   4.954   5.046 -0.4216 -0.0668  0.2451
  621THF     C2 8062   4.001   4.921   4.905  0.3638  0.1486 -0.1129
  621THF     C3 8063   4.113   5.044   5.052 -0.1751 -0.2309  0.0402
  621THF     H4 8064   3.923   4.984   4.862  1.4266  0.6488 -1.3729
  621THF     H5 8065   3.967   4.820   4.882  0.7421  0.0579 -0.2754
  621THF     H6 8066   4.075   5.143   5.028  0.3627  0.4575  1.8684
  621THF     H7 8067   4.150   5.062   5.153  0.0363  1.6633 -0.3312
  621THF     C8 8068   4.218   5.003   4.951 -0.6913  0.4240  0.3237
  621THF     C9 8069   4.135   4.955   4.834 -0.4528  0.3339  0.4177
  621THF    H10 8070   4.285   4.926   4.989 -1.0924 -0.4497 -0.6699
  621THF    H11 8071   4.281   5.088   4.925 -0.1373  0.1590  0.7794
  621THF    H12 8072   4.122   5.036   4.762 -0.5565 -1.5064 -1.7185
  621THF    H13 8073   4.158   4.873   4.766 -1.5323 -1.5335  2.1912
  622THF     O1 8074   4.344   1.814   0.486  0.1643 -0.0510 -0.4337
  622THF     C2 8075   4.396   1.932   0.539 -0.4672 -0.1814 -0.1808
  622THF     C3 8076   4.454   1.723   0.466  0.2176 -0.0095 -0.2222
  622THF     H4 8077   4.441   1.926   0.638 -0.4798 -3.5303 -0.2684
  622THF     H5 8078   4.322   2.011   0.552 -0.8005 -0.5659  0.3104
  622THF     H6 8079   4.471   1.686   0.567 -1.8253  0.5713  0.3718
  622THF     H7 8080   4.426   1.646   0.394 -0.3115  0.4173 -0.4802
  622THF     C8 8081   4.573   1.809   0.425 -0.2582 -0.2685 -0.3399
  622THF     C9 8082   4.517   1.947   0.439 -0.1555 -0.6342 -0.3326
  622THF    H10 8083   4.618   1.788   0.328  0.1995 -0.5160 -0.0756
  622THF    H11 8084   4.656   1.783   0.491  0.3808 -2.5376 -1.9427
  622THF    H12 8085   4.595   2.018   0.465 -0.2439 -1.2136  1.6721
  622THF    H13 8086   4.471   1.975   0.344 -0.7100 -1.4303 -0.3163
  623THF     O1 8087   3.220   5.029   2.766 -0.2982  0.2896  0.1505
  623THF     C2 8088   3.188   5.050   2.627 -0.7141 -0.3710 -0.4179
  623THF     C3 8089   3.286   4.901   2.767 -0.4852  0.0350  0.2246
  623THF     H4 8090   3.174   5.153   2.593 -1.7356 -1.1708 -2.5796
  623THF     H5 8091   3.111   4.981   2.594 -2.4469  0.9750  0.6088
  623THF     H6 8092   3.331   4.880   2.864 -0.4168 -0.9673 -0.0150
  623THF     H7 8093   3.217   4.818   2.750 -1.3744  0.8948 -0.4998
  623THF     C8 8094   3.386   4.915   2.652 -0.1104 -0.0319 -0.1164
  623THF     C9 8095   3.320   5.017   2.565 -0.6542  0.5345 -0.0290
  623THF    H10 8096   3.399   4.816   2.608 -0.8391 -0.0994 -0.2052
  623THF    H11 8097   3.483   4.955   2.678  0.7537 -1.9064 -0.2824
  623THF    H12 8098   3.376   5.109   2.550  0.0021 -0.1029 -1.7768
  623THF    H13 8099   3.299   4.982   2.464 -0.7226 -1.2137  0.5593
  624THF     O1 8100   4.699   0.272   4.561  0.8150  0.1637  0.6752
  624THF     C2 8101   4.721   0.417   4.533 -0.0398  0.1316 -0.1735
  624THF     C3 8102   4.600   0.227   4.466 -0.8265  0.0120 -0.0339
  624THF     H4 8103   4.816   0.427   4.481 -1.3223  0.0268 -2.7017
  624THF     H5 8104   4.715   0.475   4.625 -0.1514 -0.3918  0.1542
  624THF     H6 8105   4.630   0.126   4.438 -1.1439  0.2451 -1.2734
  624THF     H7 8106   4.508   0.215   4.524 -0.8327 -0.2047 -0.0867
  624THF     C8 8107   4.582   0.333   4.359  0.0639 -0.2919 -0.4651
  624THF     C9 8108   4.612   0.458   4.438 -0.1986 -0.4100  0.1047
  624THF    H10 8109   4.483   0.333   4.312 -0.2294  2.0421  0.0233
  624THF    H11 8110   4.662   0.331   4.284  1.5282 -0.0257  1.0385
  624THF    H12 8111   4.639   0.548   4.384 -0.4372 -1.8928 -2.6796
  624THF    H13 8112   4.522   0.474   4.498 -2.4540 -0.6106 -2.9625
  625THF     O1 8113   1.489   0.344   2.993  0.2415 -0.4069 -0.1879
  625THF     C2 8114   1.553   0.297   3.113 -0.2305 -0.3969 -0.1144
  625THF     C3 8115   1.560   0.458   2.944 -0.6404 -0.2818 -0.2078
  625THF     H4 8116   1.543   0.189   3.126 -1.1986 -0.7166 -2.7781
  625THF     H5 8117   1.502   0.350   3.194  1.0210  0.4988  0.1123
  625THF     H6 8118   1.591   0.443   2.841 -0.2542 -2.4502  0.1721
  625THF     H7 8119   1.503   0.551   2.946 -0.7680 -0.3473 -0.7940
  625THF     C8 8120   1.682   0.469   3.039  0.8005 -0.0232 -0.3909
  625THF     C9 8121   1.702   0.338   3.099  0.5684 -0.0076 -0.9470
  625THF    H10 8122   1.663   0.545   3.114  0.3733 -0.9879  0.5013
  625THF    H11 8123   1.762   0.521   2.986  1.3791  2.6838  2.8580
  625THF    H12 8124   1.762   0.272   3.036 -1.4791 -1.7642 -1.1631
  625THF    H13 8125   1.746   0.342   3.199 -3.3955 -0.7721  1.0293
  626THF     O1 8126   5.449   3.036   5.179 -0.0585  0.5362  0.1652
  626THF     C2 8127   5.349   3.120   5.164 -0.0835 -0.2528  0.3245
  626THF     C3 8128   5.531   3.076   5.290 -0.6025 -0.2406  0.5007
  626THF     H4 8129   5.268   3.093   5.231 -1.1729 -0.4330 -1.0068
  626THF     H5 8130   5.301   3.124   5.066 -0.9023 -0.4974  0.7087
  626THF     H6 8131   5.472   3.072   5.382  1.3066  2.8022  2.0327
  626THF     H7 8132   5.626   3.027   5.307 -0.7558  0.1742  2.8543
  626THF     C8 8133   5.520   3.231   5.287 -0.8911 -0.3049 -0.3645
  626THF     C9 8134   5.411   3.254   5.182 -0.1825  0.6436 -0.6212
  626THF    H10 8135   5.609   3.283   5.251  0.9334 -2.2274  1.1185
  626THF    H11 8136   5.495   3.265   5.388 -2.5249 -1.3929 -0.3577
  626THF    H12 8137   5.344   3.337   5.207  0.0710  0.3520  1.1654
  626THF    H13 8138   5.469   3.265   5.091  0.5281  0.4861 -0.1928
  627THF     O1 8139   4.681   1.677   3.342  0.5513  0.1195 -0.7161
  627THF     C2 8140   4.769   1.773   3.406 -0.4734  0.9111  0.3702
  627THF     C3 8141   4.583   1.640   3.447 -0.3036  0.2618 -0.4285
  627THF     H4 8142   4.798   1.856   3.342  1.1398  0.8355  0.9506
  627THF     H5 8143   4.859   1.723   3.442 -1.7827 -1.4137  0.6523
  627THF     H6 8144   4.492   1.689   3.413 -0.1511 -0.2411 -1.6151
  627THF     H7 8145   4.562   1.534   3.462 -0.0356  0.5296  2.5918
  627THF     C8 8146   4.629   1.699   3.578 -0.2976 -0.0692  0.1797
  627THF     C9 8147   4.705   1.821   3.532 -0.5173  0.3137  0.3417
  627THF    H10 8148   4.694   1.622   3.618  0.8588  0.7114 -0.1509
  627THF    H11 8149   4.550   1.724   3.650  0.2619 -1.5118  1.3400
  627THF    H12 8150   4.633   1.899   3.511  0.5698  1.0207 -0.8937
  627THF    H13 8151   4.786   1.856   3.597  0.4736 -0.6778 -0.3066
  628THF     O1 8152   3.319   1.011   4.067 -0.3275  0.4588  0.0769
  628THF     C2 8153   3.386   0.909   3.985  0.7738 -0.3199 -0.4923
  628THF     C3 8154   3.195   0.954   4.102 -0.0094  0.3456 -0.4095
  628THF     H4 8155   3.486   0.892   4.025  1.2035  0.6723 -1.1023
  628THF     H5 8156   3.409   0.951   3.887 -0.6786  1.0302 -0.2910
  628THF     H6 8157   3.160   0.981   4.202  0.4364  0.6308 -0.3296
  628THF     H7 8158   3.118   0.982   4.030 -0.7333  1.7522  0.8464
  628THF     C8 8159   3.218   0.801   4.100 -0.6830 -0.2354 -0.3413
  628THF     C9 8160   3.298   0.784   3.975  0.6146  0.1549 -0.4234
  628THF    H10 8161   3.125   0.750   4.074  0.9322 -2.0633 -3.0707
  628THF    H11 8162   3.277   0.766   4.184 -0.6357 -0.8059 -0.6069
  628THF    H12 8163   3.360   0.695   3.964  0.9031  0.4053 -0.8465
  628THF    H13 8164   3.221   0.774   3.899 -0.8103 -3.5395  1.2308
  629THF     O1 8165   0.033   4.140   2.906 -0.1743  0.2975  0.0694
  629THF     C2 8166  -0.006   4.083   3.028  0.3910 -0.7179  0.0567
  629THF     C3 8167   0.005   4.279   2.927  0.3028 -0.7276 -0.5769
  629THF     H4 8168   0.043   3.986   3.034  1.7016 -0.1291 -0.7436
  629THF     H5 8169  -0.114   4.076   3.036  0.3886 -1.2207 -0.3362
  629THF     H6 8170   0.061   4.351   2.866 -2.3825  0.1022 -2.2562
  629THF     H7 8171  -0.099   4.292   2.898 -0.1482 -2.8098 -0.0550
  629THF     C8 8172   0.013   4.316   3.076  0.0569 -0.2065  0.0762
  629THF     C9 8173   0.041   4.179   3.134  1.0585  0.6227  0.5395
  629THF    H10 8174  -0.076   4.364   3.117 -0.0025 -1.7306  1.8955
  629THF    H11 8175   0.092   4.384   3.109  0.4109 -1.3734  1.7718
  629THF    H12 8176   0.148   4.162   3.143  0.7942 -2.2148 -0.6677
  629THF    H13 8177  -0.010   4.168   3.230 -2.2939  3.1382 -0.7540
  630THF     O1 8178   5.364   2.192   3.244  0.0124 -0.4860  0.3796
  630THF     C2 8179   5.254   2.121   3.311  0.1368  0.2028 -0.1196
  630THF     C3 8180   5.373   2.130   3.115 -0.0358  0.2687  0.1928
  630THF     H4 8181   5.196   2.189   3.372 -0.4781  0.8637 -1.4042
  630THF     H5 8182   5.291   2.040   3.374  1.0023  1.2167  0.7196
  630THF     H6 8183   5.373   2.202   3.033 -0.2639  0.2341  0.1635
  630THF     H7 8184   5.474   2.089   3.108 -0.8662 -1.7440 -0.6344
  630THF     C8 8185   5.271   2.014   3.112 -0.0668 -0.1218 -0.3294
  630THF     C9 8186   5.166   2.067   3.205  0.5314  0.5688  0.5466
  630THF    H10 8187   5.318   1.924   3.150 -2.8922 -1.6393 -0.1385
  630THF    H11 8188   5.250   1.995   3.007 -0.3216 -1.6216 -0.0228
  630THF    H12 8189   5.117   2.155   3.164 -0.7482 -0.2289  0.3063
  630THF    H13 8190   5.091   1.997   3.240 -0.5874  0.8122 -1.2206
  631THF     O1 8191   3.271   2.637   2.660  0.0730  0.3868  0.1869
  631THF     C2 8192   3.296   2.628   2.802  0.0757 -0.3588  0.5864
  631THF     C3 8193   3.153   2.572   2.641  0.1789 -0.2041 -0.2354
  631THF     H4 8194   3.238   2.708   2.846  1.9412  1.4137 -0.0047
  631THF     H5 8195   3.402   2.647   2.823  0.1412 -0.0280 -0.0258
  631THF     H6 8196   3.071   2.637   2.672  1.4896  1.4048  0.0142
  631THF     H7 8197   3.149   2.552   2.534  1.6949  0.8813 -0.5250
  631THF     C8 8198   3.171   2.436   2.719 -0.3253 -0.1608 -0.4875
  631THF     C9 8199   3.252   2.481   2.840 -0.3365  0.8385  0.0126
  631THF    H10 8200   3.237   2.373   2.659 -0.7844  0.2313 -1.4248
  631THF    H11 8201   3.080   2.378   2.734 -0.5502  0.4103  0.4092
  631THF    H12 8202   3.197   2.493   2.933 -1.5603 -1.4998 -0.3241
  631THF    H13 8203   3.337   2.417   2.863  0.1042  1.1491 -0.7410
  632THF     O1 8204   0.539   3.271   4.315  0.3140  0.1185 -0.3527
  632THF     C2 8205   0.571   3.138   4.279 -1.0151  0.4439 -0.4350
  632THF     C3 8206   0.529   3.283   4.457  0.4388 -0.0648 -0.5012
  632THF     H4 8207   0.611   3.124   4.178 -2.4120 -0.9538 -0.8216
  632THF     H5 8208   0.487   3.070   4.294  0.0470 -1.2612 -1.8581
  632THF     H6 8209   0.568   3.374   4.503  0.3698 -0.3992  0.2238
  632THF     H7 8210   0.427   3.286   4.496  0.9664 -0.2856  0.9289
  632THF     C8 8211   0.603   3.159   4.512 -0.0402 -0.0035 -0.3670
  632THF     C9 8212   0.668   3.097   4.392  0.3179  0.5808  0.4135
  632THF    H10 8213   0.538   3.091   4.567  0.6791  1.0601  1.9275
  632THF    H11 8214   0.681   3.183   4.584 -1.2176 -0.5154  1.1521
  632THF    H12 8215   0.765   3.144   4.370  1.3535 -0.8640  1.7311
  632THF    H13 8216   0.688   2.991   4.402  1.1909  0.8958  2.6149
  633THF     O1 8217   3.259   2.127   3.983  0.6652 -0.3773 -0.0245
  633THF     C2 8218   3.398   2.101   3.951 -0.2429 -0.0267  0.1147
  633THF     C3 8219   3.188   2.153   3.857  0.7369  0.4714  0.0345
  633THF     H4 8220   3.450   2.057   4.036 -0.1172  2.1651  1.2417
  633THF     H5 8221   3.461   2.183   3.917  1.0585 -0.9965  0.1354
  633THF     H6 8222   3.081   2.131   3.862  0.7214  0.1843 -1.1009
  633THF     H7 8223   3.215   2.255   3.831 -1.9086  1.2502  0.0838
  633THF     C8 8224   3.252   2.052   3.762 -0.0407  0.2115  0.0552
  633THF     C9 8225   3.367   2.000   3.846 -0.0300  0.6637 -0.2688
  633THF    H10 8226   3.287   2.101   3.671  0.2753  0.1826  0.1587
  633THF    H11 8227   3.181   1.975   3.735  0.0827 -0.8255  2.4365
  633THF    H12 8228   3.344   1.910   3.903  0.8729  1.8577  2.1559
  633THF    H13 8229   3.451   1.986   3.778 -1.5507 -1.2913 -1.8574
  634THF     O1 8230   1.288   0.093   4.763 -0.0253 -0.3566  0.3093
  634THF     C2 8231   1.322  -0.021   4.830  0.1585  0.4953 -0.0995
  634THF     C3 8232   1.165   0.150   4.818 -0.1100 -0.1274 -0.2076
  634THF     H4 8233   1.424  -0.054   4.813  0.5867  0.2790  2.5033
  634THF     H5 8234   1.254  -0.098   4.791 -0.7566  1.5433 -0.6239
  634THF     H6 8235   1.160   0.258   4.803  0.5238 -0.1241 -0.4290
  634THF     H7 8236   1.070   0.110   4.784 -1.2423  0.0053  2.5469
  634THF     C8 8237   1.173   0.110   4.968  0.1010 -0.1832  0.0801
  634THF     C9 8238   1.295   0.024   4.973  0.1011 -0.1580 -0.7656
  634THF    H10 8239   1.077   0.070   5.001 -0.2000  1.4866  1.3843
  634THF    H11 8240   1.191   0.197   5.031 -3.2414  0.2332  0.6678
  634THF    H12 8241   1.371   0.098   4.996 -1.5542  1.3467  0.1133
  634THF    H13 8242   1.286  -0.058   5.044 -0.2792 -0.2731 -0.9377
  635THF     O1 8243   1.174   5.369   4.105 -0.5775  0.1956  0.0641
  635THF     C2 8244   1.095   5.483   4.139 -0.1529 -0.1335  0.2132
  635THF     C3 8245   1.306   5.401   4.106 -0.1613 -0.3548 -0.9741
  635THF     H4 8246   1.017   5.440   4.202 -1.3702 -0.0742 -1.1764
  635THF     H5 8247   1.052   5.519   4.045 -0.1217 -2.4245 -0.7410
  635THF     H6 8248   1.361   5.307   4.114 -1.4652 -1.0560  0.3410
  635THF     H7 8249   1.338   5.451   4.014  0.0284 -0.5157 -0.9971
  635THF     C8 8250   1.314   5.498   4.227 -1.0657 -0.1019 -0.2247
  635THF     C9 8251   1.186   5.576   4.218  0.2386 -0.3192 -0.0739
  635THF    H10 8252   1.412   5.544   4.215 -2.0273  1.5988 -1.9969
  635THF    H11 8253   1.313   5.448   4.323  0.9078 -0.6932 -0.4615
  635THF    H12 8254   1.143   5.603   4.315  0.6436  2.5984 -0.6167
  635THF    H13 8255   1.192   5.666   4.157 -0.6249 -0.6188 -0.6290
  636THF     O1 8256   0.014   3.276   1.353  0.8665  0.1956  0.3367
  636THF     C2 8257   0.130   3.333   1.401 -0.1714  0.1142 -0.1243
  636THF     C3 8258  -0.013   3.341   1.228 -0.8435  0.2217 -0.0708
  636THF     H4 8259   0.162   3.277   1.489  0.7972 -0.3755 -0.7692
  636THF     H5 8260   0.101   3.433   1.434  2.2947  0.4533  1.2674
  636THF     H6 8261  -0.079   3.276   1.170  0.8361 -1.3264 -0.3380
  636THF     H7 8262  -0.057   3.440   1.237 -0.3421  0.3121  1.7807
  636THF     C8 8263   0.132   3.348   1.166  0.5062  0.4805 -0.5781
  636THF     C9 8264   0.221   3.348   1.283 -0.3521  0.3974  0.3502
  636THF    H10 8265   0.146   3.441   1.111  0.5409 -0.8308 -2.9032
  636THF    H11 8266   0.152   3.277   1.086 -0.5386 -2.1036  1.3124
  636THF    H12 8267   0.299   3.272   1.281 -1.2214 -0.4856 -0.5494
  636THF    H13 8268   0.267   3.447   1.287  0.8037 -0.1083  0.0304
  637THF     O1 8269   3.637   1.483   3.828  0.7525  0.3665  0.3141
  637THF     C2 8270   3.594   1.598   3.756  0.1545  0.2903 -0.6055
  637THF     C3 8271   3.560   1.366   3.782 -0.0786  0.1008  0.7024
  637THF     H4 8272   3.631   1.607   3.654  0.9262  0.2804 -0.3293
  637THF     H5 8273   3.605   1.692   3.810 -0.8718 -0.3367  0.7537
  637THF     H6 8274   3.629   1.298   3.732  0.5875  0.5634  0.9630
  637THF     H7 8275   3.520   1.318   3.871  1.3772 -0.0130  1.3275
  637THF     C8 8276   3.450   1.413   3.692  0.0955 -0.1700  0.3100
  637THF     C9 8277   3.442   1.559   3.745  0.1607  0.2265 -0.3721
  637THF    H10 8278   3.357   1.360   3.713 -1.7591  3.1121  1.1211
  637THF    H11 8279   3.477   1.399   3.588  1.3813 -1.5408  0.7969
  637THF    H12 8280   3.399   1.623   3.668  0.0280 -1.1165 -1.4609
  637THF    H13 8281   3.390   1.567   3.840 -0.4774  1.2330 -0.7925
  638THF     O1 8282   4.795   4.990   4.105  0.4824 -0.1932 -0.2323
  638THF     C2 8283   4.791   5.094   4.204 -0.0263 -0.4500 -0.3635
  638THF     C3 8284   4.760   5.046   3.975  0.1295  0.0437 -0.5496
  638THF     H4 8285   4.854   5.065   4.289 -0.9001  0.0854  0.4932
  638THF     H5 8286   4.685   5.110   4.224  0.2452  0.7568  0.1930
  638THF     H6 8287   4.813   4.996   3.894  0.3525 -2.0935  0.8326
  638THF     H7 8288   4.652   5.047   3.965 -0.3175  0.5045  2.8574
  638THF     C8 8289   4.823   5.187   3.981  0.6386  1.0208  0.4013
  638THF     C9 8290   4.850   5.211   4.130  0.4237 -0.0355 -0.0976
  638THF    H10 8291   4.756   5.266   3.948 -0.7387  0.2803  1.3032
  638THF    H11 8292   4.917   5.209   3.932  1.4558  0.7947  1.8027
  638THF    H12 8293   4.955   5.236   4.151  0.7433 -1.3477 -0.0434
  638THF    H13 8294   4.803   5.307   4.152  1.2018  0.7871 -1.8077
  639THF     O1 8295   2.824   4.124   0.740  0.2776 -0.4267  0.5469
  639THF     C2 8296   2.841   4.000   0.669  0.0289 -0.1206  0.5207
  639THF     C3 8297   2.939   4.205   0.712 -0.0277  0.3856 -0.0623
  639THF     H4 8298   2.808   4.018   0.566 -0.0464 -0.0572  0.5560
  639THF     H5 8299   2.772   3.920   0.698 -0.7315  0.7995  1.3178
  639THF     H6 8300   2.954   4.249   0.613  2.4331 -0.5658 -0.1976
  639THF     H7 8301   2.947   4.273   0.796  0.7187 -1.2458  1.2555
  639THF     C8 8302   3.055   4.110   0.710  0.6365 -0.1103  0.2233
  639THF     C9 8303   2.990   3.973   0.677  0.2291  0.5568 -0.3958
  639THF    H10 8304   3.110   4.098   0.804 -1.0368  0.6357  1.3334
  639THF    H11 8305   3.134   4.136   0.639  0.9721 -1.6409  0.0099
  639THF    H12 8306   3.023   3.929   0.583 -1.7153 -0.9640 -0.4317
  639THF    H13 8307   3.018   3.901   0.755  2.5163  0.4270 -1.2783
  640THF     O1 8308   3.694   0.025   1.930  0.0643 -0.2865  0.0358
  640THF     C2 8309   3.772  -0.011   1.815  0.3935 -0.2819 -0.4993
  640THF     C3 8310   3.559  -0.004   1.900 -0.3418  0.9822 -0.4537
  640THF     H4 8311   3.841  -0.093   1.833  2.6953  1.2745 -1.7573
  640THF     H5 8312   3.833   0.065   1.767 -1.3383  0.4312 -1.6888
  640THF     H6 8313   3.515  -0.044   1.992  2.1509 -2.3406 -0.5328
  640THF     H7 8314   3.513   0.085   1.857 -1.6031 -0.6530 -2.7261
  640THF     C8 8315   3.559  -0.107   1.787  0.3570  0.0510  0.1652
  640THF     C9 8316   3.666  -0.037   1.707 -0.2229  0.0066  0.1522
  640THF    H10 8317   3.463  -0.111   1.736 -0.4467  0.5515  1.5719
  640THF    H11 8318   3.576  -0.213   1.808  1.5099 -0.2661 -2.0571
  640THF    H12 8319   3.705  -0.101   1.628  1.7607  0.4781  0.6868
  640THF    H13 8320   3.634   0.061   1.671  0.7191  0.0588 -0.6041
  641THF     O1 8321   2.604   1.830   0.443 -0.6811 -0.2811 -0.1140
  641THF     C2 8322   2.479   1.848   0.375 -0.5603 -0.5122  0.1442
  641THF     C3 8323   2.678   1.718   0.391  0.3275 -0.0403  0.0764
  641THF     H4 8324   2.451   1.953   0.382 -2.1335 -0.9752  1.3115
  641THF     H5 8325   2.407   1.787   0.428 -0.0820 -0.7668  0.5100
  641THF     H6 8326   2.779   1.748   0.361  1.1081 -0.3656  2.2106
  641THF     H7 8327   2.681   1.638   0.465 -1.0429 -0.0306  0.1588
  641THF     C8 8328   2.595   1.681   0.266  0.3368 -0.0041  0.0580
  641THF     C9 8329   2.510   1.804   0.234  0.5831  0.6316 -0.7538
  641THF    H10 8330   2.532   1.597   0.295  1.0026  0.0442  1.7291
  641THF    H11 8331   2.656   1.659   0.178  0.5865  1.8084 -0.2737
  641THF    H12 8332   2.572   1.878   0.183 -0.8166  1.2603 -1.6104
  641THF    H13 8333   2.427   1.800   0.163 -0.8753  1.0509  0.8647
  642THF     O1 8334   4.147   3.192   3.632  0.0404 -0.0033  0.2250
  642THF     C2 8335   4.256   3.187   3.718  0.2203 -0.4832  0.1960
  642THF     C3 8336   4.028   3.181   3.710  0.0442 -0.6250  0.2117
  642THF     H4 8337   4.309   3.282   3.709 -1.5828  0.4735 -0.9884
  642THF     H5 8338   4.314   3.101   3.686 -0.1038  0.3355 -2.9171
  642THF     H6 8339   3.943   3.226   3.658  0.2922 -1.0276 -0.5575
  642THF     H7 8340   3.987   3.080   3.717  1.1689 -1.0596  0.7340
  642THF     C8 8341   4.063   3.234   3.844  0.8383 -0.4936  0.2016
  642THF     C9 8342   4.196   3.165   3.865  0.0310  0.0332 -0.1943
  642THF    H10 8343   3.984   3.218   3.918 -1.5262  3.9175 -1.0028
  642THF    H11 8344   4.089   3.339   3.854  1.9963 -0.5679 -1.5851
  642THF    H12 8345   4.263   3.207   3.940 -0.0957  1.5344 -0.8675
  642THF    H13 8346   4.172   3.062   3.887 -0.3221 -0.4089 -2.4068
  643THF     O1 8347   4.130   3.330   2.741 -0.0504 -0.6316 -0.3185
  643THF     C2 8348   4.069   3.436   2.670  0.2501 -0.2517  0.2605
  643THF     C3 8349   4.120   3.219   2.656 -0.1422  0.0316  0.0247
  643THF     H4 8350   4.132   3.456   2.583 -2.7260 -2.5100 -2.6770
  643THF     H5 8351   4.057   3.518   2.741 -0.0743 -1.0600  1.1547
  643THF     H6 8352   4.209   3.201   2.595 -0.2754  0.0333 -0.1708
  643THF     H7 8353   4.121   3.127   2.714 -0.0135 -0.8104 -1.2708
  643THF     C8 8354   3.994   3.235   2.573  0.7267 -0.5649 -0.1116
  643THF     C9 8355   3.942   3.365   2.620 -0.0866 -0.0096  0.2484
  643THF    H10 8356   3.919   3.159   2.594 -0.0333  0.0902 -0.3685
  643THF    H11 8357   4.014   3.255   2.468 -0.0999  2.5301  0.2203
  643THF    H12 8358   3.891   3.425   2.545 -1.5633 -1.2771  0.2028
  643THF    H13 8359   3.863   3.358   2.694 -3.0805 -0.7313 -2.7755
  644THF     O1 8360   0.763   4.594   1.840  0.5468 -0.0549  0.6237
  644THF     C2 8361   0.765   4.472   1.769  0.3746 -0.1887  1.0040
  644THF     C3 8362   0.705   4.685   1.746 -0.4074 -0.2263  0.2849
  644THF     H4 8363   0.664   4.430   1.769 -0.5258  1.6707 -1.6823
  644THF     H5 8364   0.830   4.396   1.811  1.0186 -0.6973 -0.8416
  644THF     H6 8365   0.596   4.680   1.749 -0.3897 -0.4312  0.6068
  644THF     H7 8366   0.738   4.783   1.780 -1.4875 -0.1824  1.2563
  644THF     C8 8367   0.759   4.650   1.607  0.2255 -1.2154  0.1156
  644THF     C9 8368   0.807   4.508   1.626 -0.6024 -0.2326 -0.3734
  644THF    H10 8369   0.838   4.715   1.571  0.6856 -2.5857 -1.4979
  644THF    H11 8370   0.675   4.657   1.538  0.1889  1.1321  0.3401
  644THF    H12 8371   0.759   4.441   1.554 -1.1386 -2.3623  1.8192
  644THF    H13 8372   0.916   4.515   1.629 -0.7294  2.1108  1.5445
  645THF     O1 8373   1.990   0.086   5.478 -0.2117 -0.0369  0.1352
  645THF     C2 8374   2.122   0.130   5.474 -0.2283  0.1299 -0.0218
  645THF     C3 8375   1.955   0.055   5.338 -0.5011 -0.3241 -0.4644
  645THF     H4 8376   2.191   0.047   5.492 -0.2049  0.1623  0.0362
  645THF     H5 8377   2.154   0.177   5.566 -0.5494 -2.8332  1.7458
  645THF     H6 8378   1.981  -0.049   5.320  0.7206  0.1838 -1.7509
  645THF     H7 8379   1.847   0.061   5.324 -0.8946 -0.7247  1.8536
  645THF     C8 8380   2.020   0.155   5.251 -0.0813  0.0239  0.1781
  645THF     C9 8381   2.134   0.212   5.345 -0.0567 -0.5453  0.0735
  645THF    H10 8382   1.950   0.235   5.230 -0.7433  0.0572  2.2103
  645THF    H11 8383   2.062   0.117   5.158 -0.0287 -0.2452  0.3106
  645THF    H12 8384   2.237   0.199   5.313  0.2148  1.8047 -0.2211
  645THF    H13 8385   2.122   0.319   5.362 -0.8331 -0.6883  0.4619
  646THF     O1 8386   3.674   1.277   4.931  0.0018  0.5391 -0.1774
  646THF     C2 8387   3.567   1.187   4.901 -0.9072 -0.7558  0.5803
  646THF     C3 8388   3.631   1.381   5.017  0.3790  0.1418 -0.2023
  646THF     H4 8389   3.601   1.095   4.853 -1.5450 -1.7722  2.0164
  646THF     H5 8390   3.495   1.235   4.835  0.7928  0.7361 -0.2613
  646THF     H6 8391   3.718   1.422   5.068 -0.3615  0.6376  0.6857
  646THF     H7 8392   3.587   1.457   4.952 -0.3047 -0.1910 -0.1375
  646THF     C8 8393   3.511   1.318   5.094 -0.4761  0.1400  1.0144
  646THF     C9 8394   3.507   1.176   5.038 -0.3969 -0.2398 -0.3536
  646THF    H10 8395   3.417   1.371   5.081 -0.5248  0.1602  1.4272
  646THF    H11 8396   3.553   1.305   5.194  1.5268 -1.8185  0.0057
  646THF    H12 8397   3.575   1.113   5.096 -1.3609  0.9197  2.1593
  646THF    H13 8398   3.410   1.129   5.052 -0.1143 -0.1824  2.3217
  647THF     O1 8399   2.105   5.045   2.325  0.5026 -0.2562  0.9255
  647THF     C2 8400   2.175   5.103   2.441  0.5261  0.5030 -0.1961
  647THF     C3 8401   1.975   5.110   2.308 -0.0407 -0.2217 -0.5626
  647THF     H4 8402   2.213   5.201   2.412  0.2534  0.6554 -0.0435
  647THF     H5 8403   2.254   5.040   2.482 -1.4012 -1.1997  1.0901
  647THF     H6 8404   1.979   5.201   2.248  1.3858  1.5553  2.0361
  647THF     H7 8405   1.899   5.037   2.278 -0.2999 -1.4141  2.5406
  647THF     C8 8406   1.943   5.154   2.446  0.1218  0.0111 -0.9204
  647THF     C9 8407   2.063   5.123   2.536  0.1652  0.0818  0.4890
  647THF    H10 8408   1.846   5.114   2.475 -1.0130  1.1452 -2.9126
  647THF    H11 8409   1.938   5.262   2.460  1.8418 -0.2958  3.6680
  647THF    H12 8410   2.061   5.185   2.626 -3.2806 -0.5536  0.9974
  647THF    H13 8411   2.037   5.030   2.588 -3.1072  0.8478  0.4484
  648THF     O1 8412   4.876   0.811   1.943  0.6265  0.3765  0.0886
  648THF     C2 8413   4.907   0.790   2.081  0.2031 -0.3729  0.6926
  648THF     C3 8414   4.934   0.709   1.853 -0.0063 -0.0446  0.0908
  648THF     H4 8415   4.821   0.826   2.138 -1.2114 -0.2879 -1.3704
  648THF     H5 8416   5.000   0.838   2.111  0.5597 -1.2375  0.9900
  648THF     H6 8417   4.863   0.664   1.783 -0.5657  0.3790  0.3776
  648THF     H7 8418   5.013   0.756   1.795  1.5333 -0.7436  1.5578
  648THF     C8 8419   4.990   0.608   1.947 -0.3701  0.6486  0.2431
  648THF     C9 8420   4.921   0.637   2.078 -0.1621  0.2219 -0.5924
  648THF    H10 8421   5.097   0.627   1.958 -0.5483  0.6534  2.5896
  648THF    H11 8422   4.979   0.506   1.911  0.1410  0.2786  1.0952
  648THF    H12 8423   4.823   0.588   2.082  0.8149 -1.7872  0.1496
  648THF    H13 8424   4.963   0.588   2.165  0.8626 -0.1410 -1.2742
  649THF     O1 8425   4.831   0.684   4.111 -0.3479 -0.5945  0.2281
  649THF     C2 8426   4.896   0.685   4.236  0.0432 -0.0243  0.1846
  649THF     C3 8427   4.828   0.555   4.055 -0.8469 -0.1315 -1.3107
  649THF     H4 8428   4.845   0.632   4.317  2.9191 -3.1065  0.2004
  649THF     H5 8429   4.930   0.787   4.254  0.3362  0.1086 -1.0868
  649THF     H6 8430   4.767   0.489   4.116 -0.4609  1.3553  0.8407
  649THF     H7 8431   4.799   0.545   3.951 -3.7058  1.5600 -0.7733
  649THF     C8 8432   4.978   0.524   4.078  0.5685 -0.2320  0.0782
  649THF     C9 8433   5.015   0.593   4.214  0.0527 -0.0749 -0.6821
  649THF    H10 8434   5.043   0.564   4.000  2.1586  0.3554  1.6336
  649THF    H11 8435   5.007   0.419   4.083  2.0527  0.0161 -1.9542
  649THF    H12 8436   5.032   0.521   4.294 -0.2697  0.0717 -0.4804
  649THF    H13 8437   5.110   0.647   4.217 -0.4920  0.9928 -1.6655
  650THF     O1 8438   5.066   0.147   1.192 -0.1619 -0.3867  0.2793
  650THF     C2 8439   5.181   0.099   1.127 -0.0085  0.1700 -0.0836
  650THF     C3 8440   5.088   0.287   1.212  0.6719  0.3405  0.0850
  650THF     H4 8441   5.159   0.011   1.067 -0.4639  0.6929 -0.6927
  650THF     H5 8442   5.264   0.074   1.193 -0.8475 -0.1006  0.8928
  650THF     H6 8443   4.996   0.343   1.192  2.9458  4.3163 -0.2805
  650THF     H7 8444   5.113   0.310   1.316  0.6004 -2.1004  0.6988
  650THF     C8 8445   5.190   0.338   1.105 -0.2411  0.4638 -0.1088
  650THF     C9 8446   5.216   0.209   1.022 -0.0576  1.2416 -0.1973
  650THF    H10 8447   5.270   0.388   1.159 -0.1349  0.0375  0.1307
  650THF    H11 8448   5.150   0.420   1.045  0.3201  0.5334 -0.3941
  650THF    H12 8449   5.143   0.200   0.942 -0.7884 -0.6515  0.6265
  650THF    H13 8450   5.318   0.203   0.985 -0.4954  3.0411 -1.8404
  651THF     O1 8451   4.170   1.368   1.766 -0.0465  0.1854  0.2547
  651THF     C2 8452   4.266   1.468   1.725  0.5323  0.1366 -0.8450
  651THF     C3 8453   4.237   1.271   1.847 -0.2823  0.1361  0.4157
  651THF     H4 8454   4.250   1.556   1.787  2.1215 -0.6994  0.8672
  651THF     H5 8455   4.261   1.497   1.620  2.1041  0.8489 -0.7602
  651THF     H6 8456   4.262   1.308   1.946  1.3882 -1.1472  0.5159
  651THF     H7 8457   4.202   1.168   1.845  0.2642 -0.0467  0.2155
  651THF     C8 8458   4.376   1.262   1.784 -0.7487 -0.0796  0.0091
  651THF     C9 8459   4.407   1.400   1.747 -0.1956  0.5500 -0.2512
  651THF    H10 8460   4.376   1.194   1.699  2.9470 -0.4942  0.1742
  651THF    H11 8461   4.446   1.217   1.854  0.4210 -0.5832 -1.4345
  651THF    H12 8462   4.457   1.448   1.832 -0.4899 -2.4850  1.7935
  651THF    H13 8463   4.482   1.405   1.668 -0.8337  1.5917 -0.8070
  652THF     O1 8464   1.265   1.687   3.534 -0.1570 -0.6580 -0.5236
  652THF     C2 8465   1.393   1.705   3.584 -0.2636 -0.3163  0.2425
  652THF     C3 8466   1.189   1.786   3.599  0.8625  0.1399 -0.0472
  652THF     H4 8467   1.453   1.647   3.515 -1.4551 -1.7731  0.3694
  652THF     H5 8468   1.400   1.671   3.688 -1.1463  1.0768  0.7886
  652THF     H6 8469   1.102   1.816   3.540  0.6960  1.2355  0.7234
  652THF     H7 8470   1.149   1.737   3.688  0.5594 -0.7069 -0.6416
  652THF     C8 8471   1.273   1.912   3.626 -0.6393 -0.4005 -0.4649
  652THF     C9 8472   1.405   1.862   3.577 -0.6011  0.2508  0.7028
  652THF    H10 8473   1.280   1.938   3.731  0.6662  1.1130 -0.8901
  652THF    H11 8474   1.240   1.999   3.569  0.0124  1.6831  2.1867
  652THF    H12 8475   1.410   1.881   3.469  0.3378 -1.2403  0.4580
  652THF    H13 8476   1.488   1.911   3.628  0.8255 -0.0914 -1.1808
  653THF     O1 8477   0.290   1.414   2.474  0.0363  0.1467 -0.1496
  653THF     C2 8478   0.225   1.294   2.438  0.2051  0.6708  0.3042
  653THF     C3 8479   0.228   1.462   2.597 -0.0785 -0.2903 -0.1369
  653THF     H4 8480   0.287   1.243   2.364 -0.5515 -0.4460  0.4125
  653THF     H5 8481   0.124   1.311   2.399 -0.6420 -0.1813  1.9998
  653THF     H6 8482   0.296   1.528   2.651 -0.3593 -0.0224 -0.1098
  653THF     H7 8483   0.138   1.521   2.577  0.1143 -0.0228 -0.2264
  653THF     C8 8484   0.185   1.337   2.675 -0.5536  0.2382 -0.3616
  653THF     C9 8485   0.222   1.227   2.580  0.1934 -0.4494 -0.0691
  653THF    H10 8486   0.076   1.341   2.685 -0.4438 -1.0158  2.8548
  653THF    H11 8487   0.219   1.328   2.779 -3.2685  1.3761  0.7395
  653THF    H12 8488   0.323   1.196   2.608  0.6977  1.3008  0.1726
  653THF    H13 8489   0.163   1.136   2.594  1.9997 -1.4767  1.2631
  654THF     O1 8490   0.760   2.106   2.309  0.1016 -0.2815 -0.6763
  654THF     C2 8491   0.792   1.974   2.355  0.1178  0.5680  0.2485
  654THF     C3 8492   0.870   2.157   2.243  0.3917  0.2042 -0.0707
  654THF     H4 8493   0.760   1.895   2.287 -0.0092  0.7513  0.0927
  654THF     H5 8494   0.735   1.967   2.447 -1.9406 -0.6487 -1.0498
  654THF     H6 8495   0.876   2.113   2.144  0.0571  1.9863 -0.9216
  654THF     H7 8496   0.863   2.266   2.233  0.2756  0.2414  0.3853
  654THF     C8 8497   0.991   2.111   2.316  0.0168  0.7143  0.1262
  654THF     C9 8498   0.951   1.977   2.378  0.4285 -0.5027 -0.1129
  654THF    H10 8499   1.023   2.190   2.384  1.2957 -0.1336  0.5337
  654THF    H11 8500   1.065   2.077   2.244 -0.8662 -2.7406  0.6932
  654THF    H12 8501   1.008   1.893   2.337  0.6638 -0.8300  0.8690
  654THF    H13 8502   0.965   1.979   2.486 -1.3220  0.6035  0.1496
  655THF     O1 8503   1.971   1.708   1.446 -0.4193 -0.0899  0.0380
  655THF     C2 8504   1.928   1.599   1.525 -0.3339  0.2115 -0.0485
  655THF     C3 8505   2.057   1.658   1.347 -0.4128 -0.2789  0.2929
  655THF     H4 8506   1.841   1.629   1.583 -1.1133  1.1049 -1.6233
  655THF     H5 8507   2.006   1.557   1.589 -0.7021  0.8125  0.8280
  655THF     H6 8508   2.073   1.723   1.261 -1.3603 -0.0713  0.2666
  655THF     H7 8509   2.151   1.639   1.398 -0.7949 -0.5247  0.9204
  655THF     C8 8510   1.995   1.528   1.304  0.4073 -0.5656 -0.0275
  655THF     C9 8511   1.890   1.501   1.408 -0.4283  0.2497 -0.0701
  655THF    H10 8512   2.064   1.446   1.283  1.9892  0.5025  0.8098
  655THF    H11 8513   1.937   1.538   1.212  2.1345  1.8030 -0.9617
  655THF    H12 8514   1.794   1.535   1.369 -0.6621  0.2867  0.5246
  655THF    H13 8515   1.882   1.397   1.437  1.9718  0.4547  1.6229
  656THF     O1 8516   1.413   3.898   1.466  0.0653  0.2229  0.4631
  656THF     C2 8517   1.464   3.799   1.378  0.5591 -0.3695 -0.1490
  656THF     C3 8518   1.505   4.000   1.474  1.1159 -0.5621 -0.2129
  656THF     H4 8519   1.427   3.827   1.280  2.5365  2.2029 -0.2728
  656THF     H5 8520   1.431   3.700   1.410  2.5328 -0.5999  1.3744
  656THF     H6 8521   1.488   4.076   1.397 -0.7979  1.1002  1.7307
  656THF     H7 8522   1.500   4.043   1.574  0.5217 -0.7139 -0.1760
  656THF     C8 8523   1.632   3.926   1.469 -0.3782  0.6388 -0.1108
  656THF     C9 8524   1.612   3.802   1.395 -0.3232  0.2776 -0.3640
  656THF    H10 8525   1.661   3.918   1.573 -1.3021 -0.0720  0.1051
  656THF    H11 8526   1.705   3.997   1.430 -0.2293 -0.0214 -1.0580
  656THF    H12 8527   1.648   3.814   1.293  0.8760  0.8636  0.1133
  656THF    H13 8528   1.652   3.707   1.430 -1.6366 -0.1760 -0.0437
  657THF     O1 8529   3.223   1.279   0.880 -0.4168 -0.6595  0.2690
  657THF     C2 8530   3.292   1.156   0.875 -0.3380 -0.0320 -0.0017
  657THF     C3 8531   3.198   1.314   0.747 -0.2639  0.5255  0.3885
  657THF     H4 8532   3.218   1.078   0.858 -1.3213  0.8908 -0.0124
  657THF     H5 8533   3.346   1.123   0.963  1.1463 -1.3616 -1.3380
  657THF     H6 8534   3.108   1.260   0.718 -0.4305 -0.0496  1.8808
  657THF     H7 8535   3.199   1.422   0.737  1.7482  0.5373  0.1808
  657THF     C8 8536   3.319   1.255   0.672  0.3304 -0.3275 -0.4749
  657THF     C9 8537   3.386   1.163   0.759  0.6426 -0.0352 -0.5911
  657THF    H10 8538   3.388   1.333   0.638  0.3898  0.2866  0.9907
  657THF    H11 8539   3.277   1.207   0.584 -0.4638  2.0083 -1.4499
  657THF    H12 8540   3.397   1.068   0.707 -0.2250 -1.3220  1.4446
  657THF    H13 8541   3.479   1.209   0.793  0.2305 -0.8236  1.7789
  658THF     O1 8542   2.418   0.783   4.284 -0.4789  0.4249 -0.0127
  658THF     C2 8543   2.384   0.652   4.238  0.1366 -0.5090 -0.3363
  658THF     C3 8544   2.321   0.881   4.238  0.5331  0.3157  0.1278
  658THF     H4 8545   2.300   0.623   4.302 -2.4529  1.0997 -2.7344
  658THF     H5 8546   2.464   0.578   4.237 -2.4648 -3.5714  0.5887
  658THF     H6 8547   2.245   0.901   4.313 -0.2662 -4.1881  0.7750
  658THF     H7 8548   2.363   0.979   4.214 -0.3719  1.6525  3.4230
  658THF     C8 8549   2.264   0.811   4.111 -0.1775  0.1214 -1.2380
  658THF     C9 8550   2.342   0.683   4.098  0.2076 -0.4215  0.1709
  658THF    H10 8551   2.259   0.871   4.020 -1.2810  0.2621 -1.1007
  658THF    H11 8552   2.161   0.783   4.135 -0.1804  0.3302 -0.9978
  658THF    H12 8553   2.292   0.595   4.056  0.6337  0.0224 -1.3237
  658THF    H13 8554   2.435   0.691   4.041 -0.0784 -0.2639 -0.2780
  659THF     O1 8555   3.699   5.222   5.264  0.5906  0.4864 -0.0330
  659THF     C2 8556   3.823   5.154   5.276 -0.3118  0.2178  0.3201
  659THF     C3 8557   3.593   5.145   5.329 -0.7460 -0.1343  0.1405
  659THF     H4 8558   3.901   5.228   5.294 -0.2178  0.7126 -1.9225
  659THF     H5 8559   3.853   5.095   5.190  0.2519  1.5139 -0.4042
  659THF     H6 8560   3.536   5.211   5.394  0.8149 -0.9514  2.4774
  659THF     H7 8561   3.545   5.094   5.245  1.9238 -1.9444 -0.4351
  659THF     C8 8562   3.662   5.031   5.416  0.5815 -1.0147 -0.3950
  659THF     C9 8563   3.805   5.069   5.409 -0.5978 -0.5770  0.6020
  659THF    H10 8564   3.620   4.934   5.387 -0.9352 -0.7457  0.7661
  659THF    H11 8565   3.621   5.054   5.514  0.4557  2.7348 -1.1551
  659THF    H12 8566   3.829   5.121   5.501  0.9381 -1.1589  0.5599
  659THF    H13 8567   3.857   4.974   5.402 -0.7245 -0.5639 -0.8502
  660THF     O1 8568   0.007   3.882   2.243  0.5568 -0.4831 -0.0193
  660THF     C2 8569   0.006   3.995   2.158 -0.1463  0.1762 -0.4843
  660THF     C3 8570  -0.054   3.770   2.189  0.7322  0.0893  0.5375
  660THF     H4 8571   0.093   4.061   2.155 -1.1678  1.7667  2.0189
  660THF     H5 8572  -0.067   4.065   2.199 -0.5842 -0.6482  0.1564
  660THF     H6 8573  -0.035   3.672   2.233 -1.6541 -0.1759  1.1145
  660THF     H7 8574  -0.159   3.786   2.214 -0.0836 -2.9781 -0.4450
  660THF     C8 8575  -0.021   3.794   2.040 -0.1434  0.4356  0.7806
  660THF     C9 8576  -0.049   3.942   2.024 -0.2209 -0.4956 -0.3443
  660THF    H10 8577  -0.087   3.740   1.973 -0.9792  0.4787  1.5462
  660THF    H11 8578   0.084   3.775   2.021 -0.0927 -0.1550  1.6149
  660THF    H12 8579   0.012   3.978   1.941  1.3973  2.6345  1.9772
  660THF    H13 8580  -0.156   3.956   2.008 -0.6545 -0.9075  1.8876
  661THF     O1 8581   0.797   4.543   5.115 -0.4702  0.4775 -0.1919
  661THF     C2 8582   0.680   4.611   5.156  0.7229 -0.3797  0.7900
  661THF     C3 8583   0.827   4.454   5.226 -0.4199  0.4012  0.7504
  661THF     H4 8584   0.642   4.657   5.065 -2.3332 -1.0482  1.6151
  661THF     H5 8585   0.712   4.694   5.219  1.7626  0.3598 -0.6331
  661THF     H6 8586   0.894   4.372   5.199  0.3005  0.7915  1.3226
  661THF     H7 8587   0.875   4.508   5.307 -0.4197  0.7032  0.5515
  661THF     C8 8588   0.693   4.406   5.264  0.0102 -0.2110  0.4837
  661THF     C9 8589   0.597   4.511   5.218  0.4979 -0.2995  0.0352
  661THF    H10 8590   0.684   4.381   5.370  0.2760 -0.8959  0.3477
  661THF    H11 8591   0.680   4.317   5.203  1.1496  0.6968 -1.1588
  661THF    H12 8592   0.517   4.471   5.156  2.0830  0.0579 -2.3696
  661THF    H13 8593   0.549   4.566   5.299  0.3225  2.1402 -1.6154
  662THF     O1 8594   0.750   3.535   4.711 -0.5932  0.1122  0.2395
  662THF     C2 8595   0.704   3.662   4.666  0.3138  0.1395 -0.2596
  662THF     C3 8596   0.646   3.462   4.771 -0.1567 -0.2469 -0.5650
  662THF     H4 8597   0.671   3.662   4.562 -2.3527 -1.1038  0.5081
  662THF     H5 8598   0.789   3.729   4.679 -0.7789  2.2319 -2.9343
  662THF     H6 8599   0.636   3.358   4.741  1.7171 -0.0989 -1.8571
  662THF     H7 8600   0.655   3.452   4.879 -2.1814  2.6098 -0.0001
  662THF     C8 8601   0.521   3.555   4.765  0.1808 -0.6289  0.6540
  662THF     C9 8602   0.590   3.685   4.761  0.0761 -0.0646  0.3203
  662THF    H10 8603   0.459   3.558   4.855 -1.6353 -2.2449 -0.4753
  662THF    H11 8604   0.455   3.531   4.683  0.0666  0.9981  0.2399
  662THF    H12 8605   0.523   3.758   4.717 -0.7829 -0.2729  1.2483
  662THF    H13 8606   0.625   3.697   4.863  0.9200 -0.4899  0.0903
  663THF     O1 8607   1.827   3.866   0.526 -0.5223  0.6187  1.3551
  663THF     C2 8608   1.953   3.861   0.468  0.3101 -0.5190  0.0788
  663THF     C3 8609   1.788   4.001   0.531 -0.1856 -0.3736 -0.3490
  663THF     H4 8610   1.946   3.876   0.360 -2.0489  0.1026  0.2636
  663THF     H5 8611   2.001   3.764   0.479  0.1388 -0.7579 -1.1415
  663THF     H6 8612   1.758   4.039   0.434 -0.4681  3.3127  1.0108
  663THF     H7 8613   1.706   4.018   0.601 -0.2719 -2.0901  0.0168
  663THF     C8 8614   1.916   4.073   0.589 -0.0206 -0.4729  0.2895
  663THF     C9 8615   2.029   3.974   0.546  0.6292  0.9433  0.1856
  663THF    H10 8616   1.902   4.088   0.696 -2.0172  0.2402 -0.0375
  663THF    H11 8617   1.925   4.170   0.540 -1.3809 -0.9234 -0.9112
  663THF    H12 8618   2.092   4.024   0.473  0.1402  0.8046 -0.3361
  663THF    H13 8619   2.100   3.937   0.620  2.9171  0.6934 -1.9996
  664THF     O1 8620   4.952   2.600   3.164 -0.3351  0.3617 -0.4120
  664THF     C2 8621   5.017   2.536   3.055 -0.5159  0.3420 -0.3930
  664THF     C3 8622   4.941   2.740   3.142 -0.1094  0.3835 -0.2679
  664THF     H4 8623   4.947   2.461   3.016  0.6899 -0.5595 -0.8830
  664THF     H5 8624   5.101   2.475   3.090 -0.2734  0.3372 -0.9731
  664THF     H6 8625   4.838   2.766   3.165  0.4506  2.3339  0.2355
  664THF     H7 8626   5.018   2.795   3.198 -0.0418 -0.5932  0.6367
  664THF     C8 8627   4.969   2.753   2.989  0.1418 -0.4436  0.7352
  664THF     C9 8628   5.068   2.646   2.961  0.2994  0.5242  0.1231
  664THF    H10 8629   5.001   2.852   2.957 -0.2356 -0.9530 -1.3549
  664THF    H11 8630   4.873   2.734   2.941  0.2161  0.7467  0.0727
  664THF    H12 8631   5.056   2.613   2.858  1.0582  1.6668 -0.3486
  664THF    H13 8632   5.168   2.676   2.991 -0.6678  2.0842  2.0534
  665THF     O1 8633   2.567   0.438   4.572 -0.9653 -0.0181 -0.4718
  665THF     C2 8634   2.460   0.377   4.510 -0.0672  0.7480 -0.1581
  665THF     C3 8635   2.652   0.334   4.612  0.1620  0.6103  0.1670
  665THF     H4 8636   2.384   0.437   4.459 -0.7841  0.0243  0.0434
  665THF     H5 8637   2.389   0.327   4.575  0.5252 -0.4122 -0.3879
  665THF     H6 8638   2.754   0.364   4.637  1.1441 -2.3399  0.1770
  665THF     H7 8639   2.621   0.282   4.703  2.2700 -0.5918  0.2614
  665THF     C8 8640   2.648   0.229   4.495 -0.4136  0.5908 -0.5303
  665THF     C9 8641   2.528   0.280   4.413 -0.0595  1.0585  0.3798
  665THF    H10 8642   2.630   0.128   4.534  2.3958 -0.0452 -0.6367
  665THF    H11 8643   2.743   0.216   4.443  1.0905  1.6312  1.7497
  665THF    H12 8644   2.559   0.339   4.326  2.2676 -2.8646 -1.7421
  665THF    H13 8645   2.467   0.197   4.380  0.8790  1.1084 -1.6329
  666THF     O1 8646   0.138   0.274   4.797 -0.1328 -0.7719 -0.3845
  666THF     C2 8647   0.263   0.281   4.861  0.2050 -0.6463 -0.8535
  666THF     C3 8648   0.155   0.167   4.706 -0.3938 -0.7873  0.0454
  666THF     H4 8649   0.276   0.195   4.927  3.1495 -0.3672 -0.9730
  666THF     H5 8650   0.278   0.375   4.914  1.9547 -1.8620  0.9289
  666THF     H6 8651   0.120   0.078   4.759 -3.0244  0.8285  1.2618
  666THF     H7 8652   0.097   0.193   4.617 -1.1839 -0.2666  0.6985
  666THF     C8 8653   0.304   0.152   4.673 -0.6075  0.1598  0.0587
  666THF     C9 8654   0.367   0.260   4.751  0.3062 -1.2904  0.3277
  666THF    H10 8655   0.317   0.157   4.565  0.4655  4.8387  0.2268
  666THF    H11 8656   0.342   0.059   4.716 -1.1571 -1.1705 -2.1466
  666THF    H12 8657   0.462   0.238   4.799  0.8795  1.5357  0.6788
  666THF    H13 8658   0.391   0.347   4.689 -2.2308 -0.9127 -0.2139
  667THF     O1 8659   5.371   1.036   2.869 -0.2615  0.1871 -0.5791
  667THF     C2 8660   5.352   1.104   2.993 -0.3030 -0.3041  0.3096
  667THF     C3 8661   5.242   1.008   2.820  0.3465  0.3911 -0.1255
  667THF     H4 8662   5.449   1.133   3.035  1.5136 -2.6278 -1.9634
  667THF     H5 8663   5.307   1.043   3.071 -1.3797 -0.4161 -0.3799
  667THF     H6 8664   5.244   0.975   2.716  0.0901 -1.0438  0.3001
  667THF     H7 8665   5.181   0.944   2.885  0.9871 -0.1199 -0.0141
  667THF     C8 8666   5.188   1.157   2.829  0.4412  0.4849 -0.2918
  667THF     C9 8667   5.253   1.217   2.951  0.4069  0.4058 -0.1462
  667THF    H10 8668   5.079   1.162   2.820  0.3840 -0.5357 -0.2429
  667THF    H11 8669   5.220   1.218   2.745 -0.4615 -1.9832 -2.5712
  667THF    H12 8670   5.303   1.311   2.931 -0.2408  0.7147 -0.3114
  667THF    H13 8671   5.181   1.225   3.032  1.2801 -0.0172  0.7020
  668THF     O1 8672   1.036   5.020   3.319  0.1618 -0.5980  0.6201
  668THF     C2 8673   1.176   5.047   3.332  0.0266  0.0212 -0.8736
  668THF     C3 8674   1.011   4.899   3.390 -0.7237 -0.0587  0.5266
  668THF     H4 8675   1.193   5.108   3.421 -1.0121 -2.2360  0.9898
  668THF     H5 8676   1.196   5.108   3.244 -0.9561  3.2093  0.9453
  668THF     H6 8677   1.013   4.910   3.498 -0.0402  2.8151  0.3044
  668THF     H7 8678   0.915   4.860   3.359 -1.5792  1.8514  0.6093
  668THF     C8 8679   1.123   4.807   3.346 -0.0412  0.5280 -1.4155
  668THF     C9 8680   1.238   4.907   3.329 -1.0659 -0.5390 -0.7490
  668THF    H10 8681   1.087   4.769   3.250 -3.2632  1.6217 -0.7656
  668THF    H11 8682   1.151   4.718   3.401 -1.6816  0.5878 -0.4198
  668THF    H12 8683   1.320   4.901   3.401  1.4664  0.1311 -3.4147
  668THF    H13 8684   1.287   4.895   3.233 -2.5208  1.8022 -1.8715
  669THF     O1 8685   0.181   0.724   2.931  0.2354  0.2972 -1.0204
  669THF     C2 8686   0.113   0.759   2.809  0.1477  0.0510  0.4832
  669THF     C3 8687   0.201   0.847   2.998  0.7779 -0.0407 -1.0952
  669THF     H4 8688   0.010   0.784   2.833  0.4770  0.6742  1.3106
  669THF     H5 8689   0.128   0.679   2.736  1.6957 -0.7535  1.6166
  669THF     H6 8690   0.113   0.887   3.049  1.1962  0.7995 -1.0127
  669THF     H7 8691   0.273   0.831   3.078  0.3587  1.4531 -0.3807
  669THF     C8 8692   0.259   0.930   2.884  0.4133 -0.5200  0.4807
  669THF     C9 8693   0.188   0.882   2.760  0.4964 -0.4073  0.5489
  669THF    H10 8694   0.365   0.920   2.860  0.7767  1.5988  1.0632
  669THF    H11 8695   0.251   1.038   2.893  2.9526 -0.0733 -1.4511
  669THF    H12 8696   0.117   0.962   2.737  0.4539 -0.0639  1.7644
  669THF    H13 8697   0.254   0.867   2.674  1.1045  1.0576  0.7253
  670THF     O1 8698   4.513   3.904   5.422  0.7006 -0.4226 -0.2818
  670THF     C2 8699   4.457   3.778   5.437  0.6009 -0.2193 -0.2952
  670THF     C3 8700   4.611   3.915   5.529  0.1100  0.2749  0.1825
  670THF     H4 8701   4.529   3.710   5.392  2.7138  0.6600  1.5548
  670THF     H5 8702   4.367   3.770   5.376 -0.8280  0.8715  1.5476
  670THF     H6 8703   4.706   3.871   5.498  0.2247  0.8960 -0.3604
  670THF     H7 8704   4.621   4.021   5.552  3.4336  0.0460  0.2876
  670THF     C8 8705   4.556   3.840   5.652  0.1094 -0.2619 -0.8881
  670THF     C9 8706   4.450   3.753   5.587 -0.0889  0.6398  0.0027
  670THF    H10 8707   4.509   3.914   5.717  0.4804 -1.0357  0.2674
  670THF    H11 8708   4.639   3.796   5.707 -0.5007 -1.9712 -1.2721
  670THF    H12 8709   4.467   3.647   5.609  1.1115  0.5317 -1.2828
  670THF    H13 8710   4.352   3.775   5.630  0.4849  2.4847  0.4560
  671THF     O1 8711   4.931   2.349   5.272 -0.2599 -0.0175  0.4237
  671THF     C2 8712   5.022   2.301   5.172 -0.2404  0.1374 -0.0711
  671THF     C3 8713   4.833   2.432   5.213  0.2744  0.0222 -0.2814
  671THF     H4 8714   5.051   2.201   5.204  2.6345  0.8488 -0.1955
  671THF     H5 8715   5.111   2.364   5.175 -0.5144  0.6149 -1.3837
  671THF     H6 8716   4.734   2.428   5.257  0.0749 -2.6926 -0.8097
  671THF     H7 8717   4.871   2.535   5.215 -1.1425  0.5879  2.4327
  671THF     C8 8718   4.821   2.376   5.068  0.4931  0.0522  0.3844
  671THF     C9 8719   4.944   2.284   5.044  0.0139  0.1071 -0.5932
  671THF    H10 8720   4.813   2.455   4.993  0.1339 -0.4515 -0.1082
  671THF    H11 8721   4.730   2.318   5.057 -1.8942  3.7552 -1.2807
  671THF    H12 8722   4.907   2.188   5.010 -1.4098  1.0418 -1.8439
  671THF    H13 8723   5.001   2.334   4.965 -0.9454  0.4548 -1.0844
  672THF     O1 8724   1.972   2.694   2.744 -0.1756 -0.3008 -0.0141
  672THF     C2 8725   1.862   2.789   2.765 -0.3073  0.2459 -0.1721
  672THF     C3 8726   2.079   2.766   2.689 -0.0100 -0.2467 -0.4387
  672THF     H4 8727   1.813   2.751   2.855  1.0452 -0.3950  0.3127
  672THF     H5 8728   1.803   2.792   2.673  0.6169 -2.9993 -1.0060
  672THF     H6 8729   2.176   2.718   2.702 -1.0419 -2.2401  0.1923
  672THF     H7 8730   2.056   2.771   2.583 -1.4825 -1.4068 -0.2049
  672THF     C8 8731   2.071   2.901   2.770  0.0251  0.5142 -0.4709
  672THF     C9 8732   1.926   2.927   2.801 -0.2211  0.5894  0.1012
  672THF    H10 8733   2.123   2.973   2.707  0.6321  1.9007  1.5153
  672THF    H11 8734   2.114   2.898   2.870  0.1786  2.3865 -0.4408
  672THF    H12 8735   1.894   2.950   2.903 -2.7886 -1.1337 -0.2301
  672THF    H13 8736   1.883   2.991   2.725 -0.1446  0.2967 -0.1907
  673THF     O1 8737   4.892   4.501   2.075 -0.5372  0.2628  0.1599
  673THF     C2 8738   4.947   4.554   2.192  0.7698 -0.7012  0.4090
  673THF     C3 8739   4.838   4.618   2.004 -0.4258  0.0914 -0.6854
  673THF     H4 8740   5.002   4.482   2.252 -2.0429 -0.3505  3.7413
  673THF     H5 8741   4.874   4.578   2.270  0.6096 -2.5567  0.8830
  673THF     H6 8742   4.808   4.606   1.899 -1.1892  1.1301 -0.5996
  673THF     H7 8743   4.749   4.658   2.051 -0.1377 -1.2955  1.1383
  673THF     C8 8744   4.964   4.708   2.013  0.7942  0.4063  0.2181
  673THF     C9 8745   5.017   4.683   2.149 -0.4443  0.3256 -0.8152
  673THF    H10 8746   4.938   4.812   1.994  1.4539  0.8755  1.7021
  673THF    H11 8747   5.040   4.689   1.938  2.4354 -2.5890  2.4187
  673THF    H12 8748   5.125   4.674   2.148 -0.4090 -1.5633  2.8068
  673THF    H13 8749   4.989   4.762   2.218  1.7815 -0.5261  1.1880
  674THF     O1 8750   2.114   2.763   4.712  0.4353 -0.4428  0.3371
  674THF     C2 8751   2.020   2.782   4.610  0.0500  0.2134 -1.0093
  674THF     C3 8752   2.152   2.628   4.718 -1.0755 -0.3944 -0.1236
  674THF     H4 8753   2.079   2.794   4.519  1.6277  1.9479  0.1679
  674THF     H5 8754   1.942   2.859   4.610 -0.9917 -0.7273  1.5892
  674THF     H6 8755   2.242   2.612   4.657 -0.8468 -2.4714  0.6660
  674THF     H7 8756   2.163   2.585   4.818  2.5050 -0.4085 -0.3684
  674THF     C8 8757   2.046   2.547   4.645  0.0796 -0.4270  0.1519
  674THF     C9 8758   1.944   2.654   4.603 -0.1940 -0.5046  0.2368
  674THF    H10 8759   2.002   2.473   4.711  2.2909 -1.5962  0.4185
  674THF    H11 8760   2.090   2.495   4.560 -1.2784  0.4282 -1.1221
  674THF    H12 8761   1.910   2.641   4.500 -0.5234  0.2966  0.2370
  674THF    H13 8762   1.858   2.657   4.669  0.4746 -0.4960  1.1340
  675THF     O1 8763   4.508   5.143   5.291 -0.6898 -0.2256  0.0734
  675THF     C2 8764   4.551   5.185   5.162  0.6965  0.0228  0.5854
  675THF     C3 8765   4.466   5.259   5.363 -0.1560 -0.5372  0.5357
  675THF     H4 8766   4.469   5.197   5.091  0.9098 -2.1377 -0.0787
  675THF     H5 8767   4.625   5.120   5.116 -1.2191 -0.6673 -1.7014
  675THF     H6 8768   4.361   5.290   5.354 -1.0602 -3.3457  0.2687
  675THF     H7 8769   4.486   5.243   5.469  0.8641  1.3283  0.6612
  675THF     C8 8770   4.566   5.371   5.323  0.2090  0.1834  0.4186
  675THF     C9 8771   4.621   5.321   5.191  0.5940 -0.2633 -0.9664
  675THF    H10 8772   4.641   5.376   5.402  0.4442  0.9289  0.1612
  675THF    H11 8773   4.535   5.475   5.337  1.3159  0.9615 -2.2596
  675THF    H12 8774   4.609   5.392   5.109 -3.1654 -0.9135 -1.1578
  675THF    H13 8775   4.726   5.306   5.213  0.6254 -1.3033 -1.7036
  676THF     O1 8776   2.834   4.629   2.515  0.2932  0.0502  0.2327
  676THF     C2 8777   2.888   4.740   2.586 -0.8537  0.2620 -0.0426
  676THF     C3 8778   2.839   4.519   2.603 -0.0708  0.3353  0.2342
  676THF     H4 8779   2.870   4.832   2.530  3.6327  0.2725 -1.9294
  676THF     H5 8780   2.996   4.722   2.590 -0.9967 -1.7106 -2.4097
  676THF     H6 8781   2.751   4.456   2.590 -1.2669  1.9722  0.0450
  676THF     H7 8782   2.932   4.465   2.582 -1.5391 -1.3808 -2.4041
  676THF     C8 8783   2.829   4.573   2.744  0.1384  1.2489  0.7303
  676THF     C9 8784   2.827   4.725   2.724  0.0261  0.1424  0.1831
  676THF    H10 8785   2.916   4.542   2.803  0.7272  1.2400 -0.1259
  676THF    H11 8786   2.743   4.526   2.793  0.7812 -0.2771  0.4757
  676THF    H12 8787   2.723   4.752   2.735 -0.2373 -0.7063 -0.1268
  676THF    H13 8788   2.882   4.774   2.804 -0.2672 -0.0499  0.5033
  677THF     O1 8789   0.681   3.140   3.655 -0.5187 -0.1760 -0.0328
  677THF     C2 8790   0.802   3.142   3.583 -0.2223 -0.4061  0.2208
  677THF     C3 8791   0.597   3.053   3.582  1.3816 -0.0478  0.4156
  677THF     H4 8792   0.855   3.047   3.597 -0.0608 -0.5091 -0.9755
  677THF     H5 8793   0.858   3.230   3.613  1.4400 -0.4924 -2.3615
  677THF     H6 8794   0.633   2.952   3.600  2.0056  0.1903  0.5389
  677THF     H7 8795   0.493   3.057   3.613  1.7507  1.9131  1.6023
  677THF     C8 8796   0.616   3.101   3.437 -0.3325  0.9863 -0.0777
  677THF     C9 8797   0.755   3.152   3.438 -0.4380 -0.7135  0.6163
  677THF    H10 8798   0.533   3.165   3.410  0.1256  1.8520  0.5065
  677THF    H11 8799   0.596   3.007   3.385  1.1480  0.1381  0.8041
  677THF    H12 8800   0.824   3.100   3.372  1.9226 -1.5083  3.5158
  677THF    H13 8801   0.762   3.258   3.412  0.7879 -0.8701  0.2678
  678THF     O1 8802   4.911   5.040   0.418 -0.5481 -0.6347  0.5061
  678THF     C2 8803   4.871   5.009   0.548 -0.1558  0.1121 -0.3818
  678THF     C3 8804   5.052   5.014   0.397  0.0020 -0.4224 -0.1067
  678THF     H4 8805   4.773   4.963   0.549 -0.3099  0.4370 -0.2176
  678THF     H5 8806   4.860   5.091   0.620 -0.1727  0.3792 -0.6886
  678THF     H6 8807   5.068   4.934   0.325 -1.8552 -0.6985 -0.2429
  678THF     H7 8808   5.104   5.107   0.373  0.9113 -1.0469 -0.6272
  678THF     C8 8809   5.100   4.972   0.540 -0.0610 -0.4120  0.5149
  678THF     C9 8810   4.973   4.917   0.613 -0.4792 -0.5466  0.7761
  678THF    H10 8811   5.132   5.055   0.603 -3.8284  1.6424  0.0973
  678THF    H11 8812   5.178   4.897   0.535  1.5477  1.2346 -0.1520
  678THF    H12 8813   4.969   4.812   0.588 -0.2990 -0.3258 -0.1909
  678THF    H13 8814   4.991   4.922   0.721  0.4189 -1.1206  0.6617
  679THF     O1 8815   2.931   3.930   4.958  0.0882  0.1674  0.2393
  679THF     C2 8816   2.811   3.887   4.906  0.4859  0.1088 -0.4343
  679THF     C3 8817   3.035   3.835   4.928  0.6781  0.4840  0.6077
  679THF     H4 8818   2.734   3.963   4.892  0.9015 -0.0970 -5.5270
  679THF     H5 8819   2.776   3.814   4.979 -1.0173 -0.0452 -1.2725
  679THF     H6 8820   3.136   3.870   4.950  1.5365 -1.4244 -0.0568
  679THF     H7 8821   3.020   3.747   4.991  0.3808  0.5046  0.5653
  679THF     C8 8822   3.001   3.792   4.788 -0.0325 -0.3426  0.0311
  679THF     C9 8823   2.848   3.811   4.777  0.7492  0.1183 -0.5906
  679THF    H10 8824   3.033   3.691   4.762  3.2786  0.5486  0.1571
  679THF    H11 8825   3.053   3.853   4.715 -2.3142  0.3968 -1.0707
  679THF    H12 8826   2.803   3.857   4.690 -2.1825  0.0020  0.7643
  679THF    H13 8827   2.796   3.715   4.771  0.2794  0.3683 -0.4896
  680THF     O1 8828   4.377   2.692   3.868 -0.8964 -0.2259  0.3925
  680THF     C2 8829   4.514   2.681   3.884  0.2200 -0.6823 -0.2811
  680THF     C3 8830   4.350   2.818   3.802 -1.0129 -0.5872 -0.5909
  680THF     H4 8831   4.545   2.631   3.792 -0.8175  1.1540 -1.6985
  680THF     H5 8832   4.535   2.620   3.972 -0.7860  2.3592  2.2508
  680THF     H6 8833   4.369   2.807   3.695  0.3878  1.6132 -0.6190
  680THF     H7 8834   4.248   2.840   3.833 -0.7384 -0.2298  0.0739
  680THF     C8 8835   4.446   2.911   3.867 -0.2790  0.8397  0.4377
  680THF     C9 8836   4.558   2.825   3.902 -0.2468  0.3467 -0.4138
  680THF    H10 8837   4.395   2.961   3.949 -0.2860 -0.2433  1.1040
  680THF    H11 8838   4.480   2.987   3.796  0.7989  0.6215  0.7055
  680THF    H12 8839   4.639   2.840   3.830  0.0197 -2.9026 -0.9221
  680THF    H13 8840   4.596   2.858   3.998  0.9856 -0.8148 -0.4660
  681THF     O1 8841   3.472   5.110   3.594 -0.1491 -0.0275  0.3918
  681THF     C2 8842   3.601   5.060   3.619  0.0988  0.1154  0.5648
  681THF     C3 8843   3.487   5.249   3.588 -0.3142 -0.1467  0.4939
  681THF     H4 8844   3.613   4.954   3.595  0.1084  0.2261  0.0797
  681THF     H5 8845   3.621   5.078   3.725 -2.5644  3.5681  0.6339
  681THF     H6 8846   3.402   5.306   3.550  0.9006  0.2559 -1.8358
  681THF     H7 8847   3.522   5.275   3.688  4.0626 -0.4267 -0.7361
  681THF     C8 8848   3.606   5.245   3.487 -0.0113  0.1379 -0.1238
  681THF     C9 8849   3.699   5.135   3.527  0.2489  0.5856 -0.2080
  681THF    H10 8850   3.658   5.341   3.485 -1.0614  0.7299  0.1863
  681THF    H11 8851   3.565   5.239   3.386  0.2787  0.4264 -0.2606
  681THF    H12 8852   3.719   5.081   3.434 -0.0217  0.3280 -0.1182
  681THF    H13 8853   3.795   5.168   3.566  0.8236  1.3773 -2.1407
  682THF     O1 8854   1.435   4.408   2.708  0.7367 -0.2655 -0.4579
  682THF     C2 8855   1.552   4.343   2.750 -0.9627 -0.2251  0.9428
  682THF     C3 8856   1.475   4.475   2.591 -0.2234 -0.1776  0.2142
  682THF     H4 8857   1.536   4.279   2.836  1.5771  0.0425  1.6920
  682THF     H5 8858   1.624   4.417   2.786 -1.8716  1.3455 -0.3322
  682THF     H6 8859   1.391   4.493   2.524  0.1914  0.6078 -0.1235
  682THF     H7 8860   1.516   4.572   2.618  0.0692  0.1743 -1.3522
  682THF     C8 8861   1.562   4.364   2.519 -0.7292 -1.1068 -0.2652
  682THF     C9 8862   1.601   4.271   2.627  0.4512  0.2150  0.1083
  682THF    H10 8863   1.650   4.416   2.482 -0.9097 -1.3984 -1.1272
  682THF    H11 8864   1.510   4.300   2.448 -0.1937 -2.1502  0.2558
  682THF    H12 8865   1.544   4.179   2.613 -0.5018  0.7095  0.6345
  682THF    H13 8866   1.707   4.246   2.628  0.0540 -1.6902 -0.2766
  683THF     O1 8867   5.093   0.744   5.366 -0.7870  0.7218  0.0095
  683THF     C2 8868   5.153   0.809   5.254  0.4273  0.5713 -0.0086
  683THF     C3 8869   4.953   0.736   5.336  0.4337 -0.3078 -0.4509
  683THF     H4 8870   5.261   0.796   5.246  0.3397 -0.2756  0.0223
  683THF     H5 8871   5.146   0.917   5.260  2.0553  0.6525  1.3274
  683THF     H6 8872   4.912   0.658   5.401  1.1020 -0.2095  0.0925
  683THF     H7 8873   4.896   0.821   5.372  0.8831  0.3827 -1.3410
  683THF     C8 8874   4.930   0.720   5.188 -0.0243  0.4310 -0.6248
  683THF     C9 8875   5.077   0.729   5.142 -0.2110 -0.1498 -0.3415
  683THF    H10 8876   4.881   0.804   5.140  0.4826  1.7937  1.1104
  683THF    H11 8877   4.877   0.632   5.153  0.5874 -0.3961  0.4391
  683THF    H12 8878   5.114   0.627   5.154 -0.2154 -0.0312  0.7584
  683THF    H13 8879   5.095   0.777   5.045  0.1532  0.4788  0.0301
  684THF     O1 8880   2.633   1.186   1.425  0.0460  0.3551 -0.4866
  684THF     C2 8881   2.771   1.162   1.400 -0.2654 -0.7234  0.4408
  684THF     C3 8882   2.581   1.247   1.306  0.6220 -0.1355  0.1510
  684THF     H4 8883   2.787   1.069   1.345  0.7425 -0.2061 -0.1790
  684THF     H5 8884   2.825   1.168   1.494 -0.0011 -0.0085  0.2498
  684THF     H6 8885   2.580   1.158   1.243  0.8516  0.8544 -1.3124
  684THF     H7 8886   2.476   1.275   1.319  0.3896 -0.0939 -1.5107
  684THF     C8 8887   2.684   1.351   1.275 -0.1233 -0.0745  0.9274
  684THF     C9 8888   2.819   1.283   1.317 -0.4010 -0.1362 -0.2607
  684THF    H10 8889   2.660   1.447   1.322 -0.5948  0.5115 -0.4753
  684THF    H11 8890   2.669   1.379   1.171 -1.8831 -0.1588  1.1225
  684THF    H12 8891   2.873   1.253   1.228  1.6525  0.3998  0.7323
  684THF    H13 8892   2.880   1.348   1.381  0.1167  0.1495 -1.0285
  685THF     O1 8893   2.076   4.506   0.975 -0.0936 -0.6019 -0.2790
  685THF     C2 8894   2.055   4.602   1.080  0.0365  0.1497 -0.1740
  685THF     C3 8895   1.961   4.461   0.917  0.4908 -0.4536  0.0025
  685THF     H4 8896   2.142   4.667   1.077  0.0315  0.1430 -0.5087
  685THF     H5 8897   2.044   4.549   1.175  1.1950  0.0362 -0.0970
  685THF     H6 8898   1.976   4.435   0.812  0.4643 -1.6826  0.2830
  685THF     H7 8899   1.926   4.378   0.980  0.7511 -0.1279  0.5845
  685THF     C8 8900   1.864   4.580   0.925  0.6663  0.3030  0.4041
  685THF     C9 8901   1.925   4.667   1.033  0.3194  0.5819  0.9241
  685THF    H10 8902   1.766   4.544   0.955  0.6735 -2.1659 -2.0384
  685THF    H11 8903   1.852   4.631   0.829 -2.6657 -2.0813 -0.6471
  685THF    H12 8904   1.939   4.772   1.004  2.5290 -0.3282 -1.6543
  685THF    H13 8905   1.864   4.659   1.123  0.6614 -0.7802  1.0482
  686THF     O1 8906   3.775   4.962   1.601 -0.2419  0.6376 -0.2445
  686THF     C2 8907   3.830   5.085   1.655  0.8154  0.1433  0.2784
  686THF     C3 8908   3.838   4.852   1.667 -0.5365 -0.0301 -0.2930
  686THF     H4 8909   3.749   5.129   1.713 -0.0488 -2.7123  1.4131
  686THF     H5 8910   3.857   5.147   1.570  0.5170 -2.9459 -2.2599
  686THF     H6 8911   3.767   4.780   1.706 -0.3443  0.5774  1.2531
  686THF     H7 8912   3.896   4.789   1.600  0.9925  0.0180  0.9522
  686THF     C8 8913   3.917   4.905   1.786 -0.2503  0.1311 -0.0946
  686THF     C9 8914   3.949   5.052   1.745 -0.8411  0.2865  0.2737
  686THF    H10 8915   4.005   4.847   1.816 -0.3450 -0.2857 -0.6154
  686THF    H11 8916   3.850   4.903   1.872  0.1564 -1.7772  0.2225
  686THF    H12 8917   3.962   5.125   1.825 -0.8538  2.2540 -1.4485
  686THF    H13 8918   4.027   5.061   1.670 -0.3309  0.5257  0.8311
  687THF     O1 8919   0.971   0.833   0.408  0.4967 -0.8267  0.6903
  687THF     C2 8920   1.048   0.781   0.518  0.9628 -0.3142 -0.0305
  687THF     C3 8921   1.014   0.758   0.298 -0.0671 -0.0882 -0.4188
  687THF     H4 8922   0.988   0.814   0.604 -2.3636  0.1757 -2.3505
  687THF     H5 8923   1.144   0.831   0.514  0.7877 -0.0090 -0.4179
  687THF     H6 8924   0.956   0.778   0.207  0.2218 -0.2792 -0.6442
  687THF     H7 8925   1.118   0.777   0.271  1.3341 -3.2465  2.1032
  687THF     C8 8926   1.013   0.616   0.354  0.2624  0.1895  0.5865
  687THF     C9 8927   1.066   0.627   0.492 -0.2299 -0.6420  0.3298
  687THF    H10 8928   1.079   0.550   0.298  1.0114  0.0522  1.6012
  687THF    H11 8929   0.914   0.572   0.358  0.6428 -0.9920 -1.6108
  687THF    H12 8930   1.003   0.562   0.553 -0.5950 -1.1987 -0.6162
  687THF    H13 8931   1.169   0.593   0.505  0.6144  1.8645  0.8038
  688THF     O1 8932   0.776   3.545   2.730  0.0687  0.0187 -0.1718
  688THF     C2 8933   0.703   3.667   2.746  0.2117  0.5961 -0.2331
  688THF     C3 8934   0.899   3.562   2.666 -0.3495 -0.1120 -0.7071
  688THF     H4 8935   0.642   3.660   2.836  0.3608 -0.2216 -0.1923
  688THF     H5 8936   0.637   3.692   2.662  0.7036  1.7599 -0.2971
  688THF     H6 8937   0.968   3.486   2.702  0.9102  0.8758 -0.9542
  688THF     H7 8938   0.898   3.553   2.557  1.6596 -1.3220 -0.6850
  688THF     C8 8939   0.935   3.706   2.703 -0.3453  0.8857  0.7770
  688THF     C9 8940   0.808   3.776   2.758  0.1489 -0.4639  0.4105
  688THF    H10 8941   0.977   3.753   2.614 -0.6274 -0.1220  0.0958
  688THF    H11 8942   1.024   3.692   2.765  0.7143 -1.1550 -1.0238
  688THF    H12 8943   0.823   3.816   2.858 -0.9289  0.1867  0.3165
  688THF    H13 8944   0.792   3.861   2.693  1.2316  0.0731  0.8123
  689THF     O1 8945   3.244   2.938   3.906 -0.1154  0.2837  0.7169
  689THF     C2 8946   3.134   2.928   3.988 -0.2794 -0.0565  0.1419
  689THF     C3 8947   3.205   3.033   3.810 -0.1798  0.5630 -0.3197
  689THF     H4 8948   3.156   2.879   4.083 -0.0376 -2.3846 -1.0389
  689THF     H5 8949   3.059   2.868   3.936  0.4787 -0.2121 -0.7942
  689THF     H6 8950   3.303   3.047   3.764  0.7397  0.6171  1.5655
  689THF     H7 8951   3.135   2.986   3.741 -1.5995  1.1582  0.6649
  689THF     C8 8952   3.146   3.144   3.888 -0.7956 -0.2054  0.3270
  689THF     C9 8953   3.096   3.072   4.012  0.0886  0.3301  0.5301
  689THF    H10 8954   3.076   3.210   3.838  0.6221  0.0142 -1.4790
  689THF    H11 8955   3.223   3.214   3.921 -0.8614 -0.5285  1.1904
  689THF    H12 8956   3.144   3.109   4.103  3.3780 -1.5007 -0.3148
  689THF    H13 8957   2.988   3.088   4.020  0.0618  0.4763 -0.1029
  690THF     O1 8958   1.267   2.720   2.072 -0.1703 -0.8647 -0.3008
  690THF     C2 8959   1.365   2.746   1.970  0.4150 -0.4381  0.4147
  690THF     C3 8960   1.158   2.805   2.054 -0.4967  1.0565 -0.2563
  690THF     H4 8961   1.417   2.655   1.941 -1.8627 -1.5984 -0.2668
  690THF     H5 8962   1.430   2.822   2.013 -0.6900 -0.0783  1.5066
  690THF     H6 8963   1.071   2.749   2.023  0.7292 -0.2044 -1.5865
  690THF     H7 8964   1.131   2.858   2.145 -0.4901 -1.2566  1.1570
  690THF     C8 8965   1.189   2.895   1.934 -0.8670  0.0405 -0.2750
  690THF     C9 8966   1.289   2.804   1.850  0.1914 -0.0336  0.4350
  690THF    H10 8967   1.229   2.992   1.961 -1.3010  1.2929 -3.6138
  690THF    H11 8968   1.109   2.908   1.862 -1.8380  2.7070  1.1736
  690THF    H12 8969   1.231   2.736   1.787 -0.2312  0.5492  0.1836
  690THF    H13 8970   1.349   2.864   1.781  3.1678 -1.6552  1.4292
  691THF     O1 8971   3.734   3.933   2.622  0.3700 -0.5015 -0.7522
  691THF     C2 8972   3.635   3.925   2.521  0.3015  0.3356 -1.0079
  691THF     C3 8973   3.684   4.005   2.739 -0.1487  0.2124 -0.8103
  691THF     H4 8974   3.598   3.822   2.516  0.7491  0.0509  0.9272
  691THF     H5 8975   3.669   3.945   2.419 -0.6386  1.9693 -1.0252
  691THF     H6 8976   3.713   3.963   2.835 -3.1820  1.3822  0.7442
  691THF     H7 8977   3.728   4.103   2.724 -0.9497  0.4411 -1.7762
  691THF     C8 8978   3.531   4.015   2.719  0.1056 -0.5059  0.5576
  691THF     C9 8979   3.526   4.017   2.569 -0.0437  0.3814  0.2697
  691THF    H10 8980   3.497   4.113   2.753  1.1987 -0.0958  0.5356
  691THF    H11 8981   3.475   3.940   2.774  1.5263  0.3915  3.4639
  691THF    H12 8982   3.428   3.978   2.541  0.4414  0.7141 -2.0838
  691THF    H13 8983   3.525   4.116   2.524 -1.3138  1.1503  1.8629
  692THF     O1 8984   0.910   2.772   0.336  0.4370 -0.1942  0.0607
  692THF     C2 8985   0.956   2.866   0.240  0.5593 -0.1075  0.2756
  692THF     C3 8986   0.772   2.735   0.327 -0.6421  0.7625  0.6968
  692THF     H4 8987   1.058   2.854   0.204  0.3604  1.6440 -0.9782
  692THF     H5 8988   0.948   2.965   0.287 -0.3822 -0.0505  0.0128
  692THF     H6 8989   0.759   2.636   0.283  0.0445  1.2110 -0.5559
  692THF     H7 8990   0.722   2.755   0.421  0.9142  1.3032  1.4417
  692THF     C8 8991   0.724   2.835   0.220  0.3497  0.0536  0.1327
  692THF     C9 8992   0.844   2.860   0.140  0.0312  0.2265  0.2355
  692THF    H10 8993   0.692   2.928   0.267  1.5811  0.1772  0.7713
  692THF    H11 8994   0.644   2.788   0.163  1.0155 -1.0958  0.1182
  692THF    H12 8995   0.884   2.786   0.070  2.9709  1.9980 -0.1177
  692THF    H13 8996   0.837   2.949   0.078 -2.2098  1.2881  1.8931
  693THF     O1 8997   4.411   3.594   5.208  0.2993  0.0711  0.2734
  693THF     C2 8998   4.328   3.543   5.104 -0.5395  0.4698  0.4787
  693THF     C3 8999   4.536   3.525   5.204 -0.5159 -0.4423  0.1250
  693THF     H4 9000   4.242   3.606   5.081 -0.8492  0.1832  0.8577
  693THF     H5 9001   4.284   3.449   5.135  3.7293 -1.0316  2.8304
  693THF     H6 9002   4.625   3.581   5.234  1.1567 -3.0275  0.2547
  693THF     H7 9003   4.535   3.443   5.275  0.3081  1.0440  1.9710
  693THF     C8 9004   4.557   3.477   5.056  0.1708 -0.3288  0.7012
  693THF     C9 9005   4.419   3.515   4.986 -1.4824 -0.3662  0.2834
  693THF    H10 9006   4.575   3.369   5.059 -0.1533 -0.4948 -1.5496
  693THF    H11 9007   4.632   3.538   5.006 -1.0607  1.9072  1.4730
  693THF    H12 9008   4.424   3.608   4.930 -0.1004  0.3790  1.5754
  693THF    H13 9009   4.388   3.444   4.910  0.3700 -0.8888 -0.0402
  694THF     O1 9010   2.385   2.738   5.063  0.0982 -0.0853 -0.3119
  694THF     C2 9011   2.524   2.716   5.033 -0.1159 -0.1886  0.2325
  694THF     C3 9012   2.347   2.626   5.137 -0.0434 -0.3958 -0.3529
  694THF     H4 9013   2.578   2.802   4.996 -0.4008 -0.6551 -1.3603
  694THF     H5 9014   2.510   2.632   4.964 -0.0272  0.6323 -0.8064
  694THF     H6 9015   2.259   2.662   5.191  1.4982  0.4235  1.7717
  694THF     H7 9016   2.321   2.539   5.077 -0.5650  0.2962 -1.1496
  694THF     C8 9017   2.463   2.593   5.229  0.4448  0.9812 -0.0884
  694THF     C9 9018   2.576   2.669   5.166 -0.0338 -0.1346 -0.4406
  694THF    H10 9019   2.487   2.487   5.238  1.5858  1.1772 -0.6536
  694THF    H11 9020   2.438   2.632   5.328  0.9833  2.7325 -0.6177
  694THF    H12 9021   2.607   2.744   5.238  1.1199 -2.1804  1.2843
  694THF    H13 9022   2.667   2.611   5.153 -1.8126 -3.4276  0.5152
  695THF     O1 9023   4.317   1.277   2.689 -0.0187  0.4853 -0.6737
  695THF     C2 9024   4.313   1.182   2.797  0.7064  0.1877  0.1146
  695THF     C3 9025   4.186   1.303   2.635 -0.1749 -0.5293 -0.1843
  695THF     H4 9026   4.322   1.238   2.891  1.2234  2.5261 -1.2436
  695THF     H5 9027   4.389   1.105   2.787 -0.2191 -0.6794 -0.3988
  695THF     H6 9028   4.163   1.409   2.620 -1.0720 -0.8490 -1.1791
  695THF     H7 9029   4.194   1.269   2.532 -3.6418  1.2487 -1.1736
  695THF     C8 9030   4.096   1.230   2.731  0.6234  0.6847  0.0452
  695THF     C9 9031   4.177   1.115   2.792 -0.6182 -0.3604  0.1025
  695THF    H10 9032   4.013   1.190   2.672 -0.8586  1.6066  1.4019
  695THF    H11 9033   4.052   1.303   2.799 -0.8265  0.5793 -0.7294
  695THF    H12 9034   4.143   1.074   2.887 -1.9049  0.1119 -0.1362
  695THF    H13 9035   4.196   1.023   2.737  1.1664  1.3661 -2.4261
  696THF     O1 9036   4.698   1.587   2.540 -0.1028  0.1774  0.3446
  696THF     C2 9037   4.722   1.653   2.663  0.2068 -0.7150 -0.1563
  696THF     C3 9038   4.561   1.578   2.530 -0.1466 -0.1364 -0.0885
  696THF     H4 9039   4.709   1.761   2.657 -2.0136 -0.7795  2.1520
  696THF     H5 9040   4.823   1.636   2.702 -0.2544 -3.1863  0.1181
  696THF     H6 9041   4.534   1.661   2.465  1.2106  0.1661 -0.2800
  696THF     H7 9042   4.541   1.481   2.486  1.4401 -1.2657  1.5514
  696THF     C8 9043   4.506   1.598   2.670  0.4300 -0.2387  0.1884
  696THF     C9 9044   4.616   1.606   2.761 -0.5773 -0.0826 -0.1258
  696THF    H10 9045   4.419   1.545   2.707 -0.0360  1.2885  1.3652
  696THF    H11 9046   4.458   1.696   2.667  0.1288 -0.3747  0.5338
  696THF    H12 9047   4.587   1.674   2.842  3.3884  0.7298  0.8206
  696THF    H13 9048   4.631   1.506   2.802  1.0450 -1.2104 -3.1391
  697THF     O1 9049   1.334   2.754   3.722  0.4749 -0.4284 -0.0898
  697THF     C2 9050   1.433   2.712   3.628  0.7362  0.0973  0.6869
  697THF     C3 9051   1.399   2.800   3.838 -0.2855  0.2561  0.4900
  697THF     H4 9052   1.406   2.721   3.523 -0.7355  3.6703  1.2144
  697THF     H5 9053   1.453   2.608   3.657 -3.0085 -1.4191 -1.4948
  697THF     H6 9054   1.346   2.866   3.907 -0.6434 -0.2304  0.6836
  697THF     H7 9055   1.429   2.717   3.901 -1.0005  0.8483  1.6541
  697THF     C8 9056   1.512   2.879   3.776 -0.3318  0.1657  0.0096
  697THF     C9 9057   1.555   2.798   3.659  0.1657 -0.2822  0.5565
  697THF    H10 9058   1.602   2.895   3.837  0.6890 -0.9341 -1.1461
  697THF    H11 9059   1.473   2.975   3.741  0.8908  1.0551  0.9751
  697THF    H12 9060   1.593   2.853   3.573 -0.7230 -0.4925  0.0166
  697THF    H13 9061   1.637   2.731   3.686  2.4915  1.8095 -0.8069
  698THF     O1 9062   2.069   4.984   2.023  0.0977  0.3924  0.1629
  698THF     C2 9063   2.196   5.051   2.020  0.0864  1.3558  0.2613
  698THF     C3 9064   1.990   5.017   1.909  0.2910  0.1676  0.2079
  698THF     H4 9065   2.269   4.970   2.016 -0.7480  0.6464 -1.9620
  698THF     H5 9066   2.203   5.113   2.109 -1.4206  2.4117 -0.3149
  698THF     H6 9067   1.941   4.928   1.869  2.6291 -1.5575  0.9375
  698THF     H7 9068   1.918   5.096   1.930 -1.4472 -2.1651  4.0773
  698THF     C8 9069   2.080   5.069   1.800  0.3602  0.3580 -0.0769
  698THF     C9 9070   2.194   5.129   1.889 -0.3252 -0.2122 -1.0371
  698THF    H10 9071   2.039   5.147   1.736 -0.6975 -0.4879 -0.4745
  698THF    H11 9072   2.113   4.992   1.730 -1.4281 -0.4531 -0.0941
  698THF    H12 9073   2.292   5.111   1.843  1.8026 -1.0375  3.3318
  698THF    H13 9074   2.184   5.236   1.907 -0.4397 -0.4699  0.4783
  699THF     O1 9075   3.630   2.984   4.303 -0.3375 -0.3107 -0.5624
  699THF     C2 9076   3.525   2.892   4.339 -0.1635  0.8276 -0.3725
  699THF     C3 9077   3.574   3.084   4.213 -0.3571  0.4090  0.1693
  699THF     H4 9078   3.474   2.948   4.417  0.1292 -0.0091  0.4252
  699THF     H5 9079   3.563   2.801   4.384 -1.3192  1.4314  1.9899
  699THF     H6 9080   3.507   3.146   4.274  0.0940  1.3454 -0.2590
  699THF     H7 9081   3.656   3.143   4.171 -0.4979  0.8269  0.4696
  699THF     C8 9082   3.492   2.996   4.113 -0.5690  0.2835 -0.0848
  699THF     C9 9083   3.446   2.883   4.212 -0.1145  0.0408  0.3293
  699THF    H10 9084   3.545   2.964   4.024  0.1259 -0.4977  0.5893
  699THF    H11 9085   3.412   3.058   4.073 -0.4020  1.8318  1.8127
  699THF    H12 9086   3.342   2.898   4.242 -0.0446 -0.9339  1.1334
  699THF    H13 9087   3.445   2.783   4.168  1.6378 -0.2428  0.8527
  700THF     O1 9088   3.969   1.987   1.545  0.3244  0.2770 -0.1600
  700THF     C2 9089   3.833   1.939   1.568 -0.3720  1.0279  0.3052
  700THF     C3 9090   4.050   1.955   1.660 -0.6683  0.2152 -0.2489
  700THF     H4 9091   3.781   1.901   1.480  0.8450  0.3860 -0.1621
  700THF     H5 9092   3.771   2.015   1.616 -2.1756  0.0473 -0.3840
  700THF     H6 9093   4.154   1.949   1.629 -1.3061  0.2187 -2.5121
  700THF     H7 9094   4.042   2.018   1.749 -0.8357 -2.5334  1.8236
  700THF     C8 9095   4.000   1.815   1.688 -0.0231 -0.0526 -0.0522
  700THF     C9 9096   3.850   1.821   1.667  0.3135 -0.1175  1.0507
  700THF    H10 9097   4.043   1.784   1.784  0.8182  2.5775  0.5072
  700THF    H11 9098   4.040   1.745   1.614  1.5638 -0.2078  0.9080
  700THF    H12 9099   3.807   1.729   1.627 -1.4391  1.4119 -0.8084
  700THF    H13 9100   3.807   1.820   1.768 -3.0224 -0.4454 -0.2226
  701THF     O1 9101   3.135   1.256   4.250  0.1040 -0.2359 -0.5716
  701THF     C2 9102   3.231   1.338   4.181 -0.0312  0.8058  0.4320
  701THF     C3 9103   3.010   1.322   4.245 -0.5285  0.5385  0.0646
  701THF     H4 9104   3.325   1.286   4.160 -2.4446 -3.0130 -2.0395
  701THF     H5 9105   3.256   1.431   4.233 -0.4849  1.9459 -1.3335
  701THF     H6 9106   2.928   1.250   4.251 -1.6687  1.8868  1.3927
  701THF     H7 9107   3.000   1.395   4.325  1.9293  2.2410 -1.0412
  701THF     C8 9108   3.017   1.411   4.118  0.5555  0.8560 -0.5796
  701THF     C9 9109   3.155   1.381   4.058 -0.2456 -0.1174 -0.9130
  701THF    H10 9110   3.017   1.508   4.166 -1.0723  0.4806  0.2546
  701THF    H11 9111   2.934   1.400   4.048  1.1936  0.8783 -1.3585
  701THF    H12 9112   3.148   1.305   3.980 -0.6599 -0.5237 -0.4925
  701THF    H13 9113   3.200   1.473   4.021  0.2464 -0.4270 -1.0865
  702THF     O1 9114   1.435   1.069   4.700 -0.0845 -0.0792 -0.6298
  702THF     C2 9115   1.427   1.128   4.573  0.1207 -0.8321  0.3367
  702THF     C3 9116   1.297   1.050   4.751  0.2174  0.0867 -0.1159
  702THF     H4 9117   1.510   1.127   4.502  0.8005 -0.4491  1.1185
  702THF     H5 9118   1.394   1.231   4.587  0.4570 -0.4770 -1.2686
  702THF     H6 9119   1.269   0.983   4.832  0.5926 -1.9193 -1.5427
  702THF     H7 9120   1.260   1.151   4.765  4.0048  1.3354  2.4375
  702THF     C8 9121   1.221   1.012   4.625 -0.0669  0.0820 -0.3517
  702THF     C9 9122   1.309   1.059   4.511  0.2038  0.2519  0.4010
  702THF    H10 9123   1.127   1.065   4.612 -0.4741 -0.8393 -1.2093
  702THF    H11 9124   1.197   0.906   4.619 -0.9419  0.0085  2.7742
  702THF    H12 9125   1.328   0.973   4.446 -2.1820 -0.8657  1.0276
  702THF    H13 9126   1.251   1.130   4.452  2.8340  1.4672 -0.8548
  703THF     O1 9127   0.456   2.263   4.062  0.1227  0.2106  0.0044
  703THF     C2 9128   0.582   2.201   4.076  0.4990 -0.2849  0.1134
  703THF     C3 9129   0.431   2.300   3.924 -0.4531  0.5476 -0.3314
  703THF     H4 9130   0.579   2.093   4.066  1.2590 -0.1959 -1.2672
  703THF     H5 9131   0.620   2.218   4.177  2.6996 -1.0369 -0.5345
  703THF     H6 9132   0.388   2.225   3.857 -0.6538  2.0934 -2.0239
  703THF     H7 9133   0.361   2.384   3.922  0.5441  1.3832 -0.9190
  703THF     C8 9134   0.573   2.351   3.887  0.6687  0.2339 -0.2273
  703THF     C9 9135   0.668   2.269   3.973 -0.2066 -0.2822  1.0309
  703THF    H10 9136   0.579   2.457   3.913 -1.2462  0.7398 -1.6090
  703THF    H11 9137   0.589   2.328   3.782 -1.1452  1.6481 -0.8555
  703THF    H12 9138   0.718   2.198   3.908 -2.3213 -1.5103  0.6750
  703THF    H13 9139   0.727   2.341   4.030 -0.0300 -0.7955  1.5136
  704THF     O1 9140   2.079   4.998   1.159 -0.0764 -0.1326 -0.3704
  704THF     C2 9141   2.154   5.112   1.189 -0.0499 -0.0864  1.0158
  704THF     C3 9142   1.976   4.996   1.262  0.1347 -0.1674 -0.8508
  704THF     H4 9143   2.095   5.198   1.160 -0.0929  0.1467  1.7733
  704THF     H5 9144   2.244   5.106   1.127  0.2781  0.4684  1.4301
  704THF     H6 9145   1.904   5.073   1.235  2.0047  0.5960 -4.3374
  704THF     H7 9146   1.930   4.897   1.269 -0.2090  0.0747  0.7911
  704THF     C8 9147   2.054   5.026   1.395 -1.1761  0.1022 -0.0138
  704THF     C9 9148   2.173   5.109   1.342 -0.2267 -0.4088  0.0809
  704THF    H10 9149   2.084   4.940   1.454 -1.9390  1.0118  1.7630
  704THF    H11 9150   2.001   5.081   1.473 -0.1932 -0.4280  1.0486
  704THF    H12 9151   2.177   5.211   1.377 -2.4167 -0.6984  1.3784
  704THF    H13 9152   2.263   5.050   1.359 -1.1989 -1.8065  0.5791
  705THF     O1 9153   4.926   4.317   0.315  0.5174 -0.0313  0.0302
  705THF     C2 9154   4.812   4.251   0.265  0.4433  0.5845  0.0927
  705THF     C3 9155   4.955   4.416   0.230 -0.1826 -0.1185  0.4405
  705THF     H4 9156   4.778   4.175   0.335 -1.2971 -0.9671 -2.2766
  705THF     H5 9157   4.826   4.195   0.173  0.2868  1.1941 -0.3109
  705THF     H6 9158   5.002   4.487   0.298 -1.2961  0.9295  0.1542
  705THF     H7 9159   5.034   4.375   0.167 -0.6840 -1.1191  0.4482
  705THF     C8 9160   4.826   4.469   0.170  0.1298  0.8176 -0.9273
  705THF     C9 9161   4.725   4.370   0.226 -0.1867 -0.1358 -0.2239
  705THF    H10 9162   4.834   4.469   0.062  0.7212 -1.3822 -0.9316
  705THF    H11 9163   4.812   4.575   0.192  1.5189  0.8663 -0.1908
  705THF    H12 9164   4.670   4.404   0.314 -1.7226  0.6122 -1.4261
  705THF    H13 9165   4.652   4.347   0.148 -0.1260 -1.4314  0.0714
  706THF     O1 9166   1.654   4.816   5.383 -0.3380  0.0966  0.1654
  706THF     C2 9167   1.712   4.924   5.319 -0.5493 -0.1874 -0.4517
  706THF     C3 9168   1.678   4.810   5.523  0.0707  0.3956  0.2566
  706THF     H4 9169   1.629   4.969   5.265 -0.1935  0.5606 -0.3918
  706THF     H5 9170   1.793   4.910   5.247  0.6732 -0.7986  0.9768
  706THF     H6 9171   1.589   4.773   5.572 -0.4257  1.6564  0.3302
  706THF     H7 9172   1.767   4.750   5.542  0.8797  0.6083 -2.3426
  706THF     C8 9173   1.711   4.958   5.552 -0.0821  0.4768 -0.0205
  706THF     C9 9174   1.783   5.005   5.429  0.1607 -0.8478  0.2272
  706THF    H10 9175   1.764   4.971   5.646 -1.0332  1.1682  0.4482
  706THF    H11 9176   1.611   5.003   5.558  0.2975  1.2697  0.5013
  706THF    H12 9177   1.769   5.113   5.428  1.5360 -0.5794  2.8397
  706THF    H13 9178   1.891   4.996   5.434  0.1942 -0.6578 -0.0932
  707THF     O1 9179   2.856   0.847   3.105 -0.0035 -0.5226  0.2179
  707THF     C2 9180   2.909   0.892   3.227  0.2084  0.0510  0.0821
  707THF     C3 9181   2.773   0.732   3.120  0.4305 -0.1451  0.0471
  707THF     H4 9182   2.926   0.999   3.239  2.5093 -0.1055 -1.1104
  707THF     H5 9183   3.007   0.843   3.221  0.0578 -0.2602  0.1369
  707THF     H6 9184   2.674   0.752   3.080  0.2593  0.8500  0.9349
  707THF     H7 9185   2.826   0.645   3.080  0.5093 -0.6914  1.2978
  707THF     C8 9186   2.751   0.719   3.269  0.1547 -0.0188  0.3988
  707THF     C9 9187   2.833   0.825   3.337  0.3729 -0.1015 -0.1279
  707THF    H10 9188   2.771   0.619   3.310 -0.0779 -1.2932 -2.3901
  707THF    H11 9189   2.646   0.738   3.292 -1.0481 -2.8571 -2.0247
  707THF    H12 9190   2.766   0.895   3.386 -0.3685 -0.6766 -0.2958
  707THF    H13 9191   2.900   0.786   3.414 -0.7560  0.1721  1.0179
  708THF     O1 9192   4.712   0.119   2.509 -0.1244  0.5045  0.3157
  708THF     C2 9193   4.790  -0.002   2.478  0.5016  0.8068  0.2326
  708THF     C3 9194   4.597   0.077   2.572  0.3159 -0.5115 -0.2485
  708THF     H4 9195   4.892   0.026   2.452  1.0879  0.4071  1.9774
  708THF     H5 9196   4.748  -0.060   2.396  1.0423  0.6063  0.0894
  708THF     H6 9197   4.533   0.144   2.629 -1.5546 -0.1895 -2.5719
  708THF     H7 9198   4.540   0.021   2.498  0.0215 -0.0512 -0.3737
  708THF     C8 9199   4.641  -0.034   2.659  0.2964  0.1581  0.1418
  708THF     C9 9200   4.772  -0.089   2.606 -0.3628  0.1401  0.4024
  708THF    H10 9201   4.556  -0.102   2.655  0.7100 -0.3745  0.2663
  708THF    H11 9202   4.653  -0.000   2.762  1.8448  1.9898 -0.5736
  708THF    H12 9203   4.849  -0.065   2.680 -0.5674 -0.6230  0.8778
  708THF    H13 9204   4.774  -0.197   2.593  1.0851  0.0264  1.3155
  709THF     O1 9205   1.369   1.591   4.934 -0.6890  0.1921  0.4857
  709THF     C2 9206   1.344   1.576   5.070  0.0146 -0.2359 -0.0674
  709THF     C3 9207   1.334   1.458   4.880  0.2355 -0.5525  0.3642
  709THF     H4 9208   1.239   1.590   5.097 -0.0223  1.0073 -0.7450
  709THF     H5 9209   1.391   1.652   5.132 -2.2253  0.1498  1.2934
  709THF     H6 9210   1.225   1.458   4.882  0.2163  0.3026  2.8182
  709THF     H7 9211   1.377   1.443   4.781 -0.3100 -0.7919  0.1587
  709THF     C8 9212   1.376   1.352   4.988 -0.3251 -0.3829 -0.0315
  709THF     C9 9213   1.378   1.428   5.106 -0.0638  0.3526 -0.3180
  709THF    H10 9214   1.477   1.315   4.967 -0.4501 -0.7199 -0.0478
  709THF    H11 9215   1.315   1.262   4.988  2.0204 -2.1342 -2.0266
  709THF    H12 9216   1.322   1.388   5.190 -0.2831  1.3046  0.0023
  709THF    H13 9217   1.475   1.429   5.156 -0.4803  1.7119  0.5135
  710THF     O1 9218   3.604   3.786   3.125 -0.7953 -0.3384 -0.6365
  710THF     C2 9219   3.620   3.735   3.259  0.1449 -0.2118 -0.6617
  710THF     C3 9220   3.599   3.922   3.138 -0.5004 -0.9980 -0.1718
  710THF     H4 9221   3.710   3.763   3.313 -0.7066  1.2549  0.0643
  710THF     H5 9222   3.612   3.626   3.254 -0.8755 -0.2393  0.8239
  710THF     H6 9223   3.698   3.968   3.138 -0.1119 -1.7426 -1.9587
  710THF     H7 9224   3.552   3.967   3.051  0.7893  1.1765  0.1644
  710THF     C8 9225   3.531   3.941   3.279 -0.0926 -0.0584 -0.3507
  710THF     C9 9226   3.513   3.803   3.344 -0.7911  0.6520  0.9117
  710THF    H10 9227   3.431   3.983   3.269 -1.1064 -2.3436 -0.3078
  710THF    H11 9228   3.572   4.022   3.339 -1.1789 -0.6322  1.2268
  710THF    H12 9229   3.538   3.792   3.450  2.1378 -1.0239  0.1434
  710THF    H13 9230   3.412   3.766   3.327  0.3127 -1.5669 -1.3407
  711THF     O1 9231   0.326   2.315   0.184  0.4155  0.1741 -0.6067
  711THF     C2 9232   0.373   2.337   0.053 -0.0275  0.0865 -0.1829
  711THF     C3 9233   0.266   2.431   0.244 -0.1447 -0.1842  0.3590
  711THF     H4 9234   0.369   2.245  -0.004  0.9706 -0.8532  1.1887
  711THF     H5 9235   0.474   2.377   0.068 -0.2826  0.5750  0.2946
  711THF     H6 9236   0.178   2.412   0.305 -0.5155  2.6667  0.8354
  711THF     H7 9237   0.341   2.470   0.313  0.3642 -0.8090  0.1660
  711THF     C8 9238   0.262   2.535   0.130  0.1928 -0.4660 -0.0190
  711THF     C9 9239   0.291   2.452   0.002  1.1254 -0.7971 -0.0907
  711THF    H10 9240   0.336   2.612   0.150 -0.7414  0.3084  0.5424
  711THF    H11 9241   0.174   2.599   0.126  0.4944  0.4924  4.0032
  711THF    H12 9242   0.195   2.420  -0.039  1.0060 -0.0088 -0.4519
  711THF    H13 9243   0.338   2.517  -0.071 -1.7316  2.5871  0.7598
  712THF     O1 9244   1.240   2.133   1.745  0.2323  0.3215  0.3925
  712THF     C2 9245   1.327   2.051   1.823 -0.0265 -0.0722  0.3593
  712THF     C3 9246   1.196   2.057   1.633 -0.0695 -0.1329  0.2218
  712THF     H4 9247   1.329   2.091   1.925 -3.7177  1.7735 -0.1164
  712THF     H5 9248   1.429   2.063   1.788 -0.6700  0.7805 -1.3099
  712THF     H6 9249   1.101   2.102   1.605 -0.6067 -1.6918 -0.5613
  712THF     H7 9250   1.279   2.061   1.563  0.0757 -1.1255  0.3133
  712THF     C8 9251   1.175   1.918   1.692 -0.2614 -0.6317  0.2158
  712THF     C9 9252   1.266   1.913   1.820  0.2262 -0.0386  0.0320
  712THF    H10 9253   1.208   1.844   1.619  0.8299  0.2680 -0.2438
  712THF    H11 9254   1.067   1.906   1.705 -0.6750  1.1661 -1.0294
  712THF    H12 9255   1.204   1.908   1.910  0.6745 -0.6227  0.3083
  712THF    H13 9256   1.339   1.833   1.830 -1.0720 -1.2583  0.1461
  713THF     O1 9257   3.916   1.638   0.230 -0.5158  0.0363  0.2972
  713THF     C2 9258   4.017   1.563   0.303  0.1186 -0.2298 -0.0593
  713THF     C3 9259   3.887   1.575   0.109  0.1748 -0.0876  0.6536
  713THF     H4 9260   4.013   1.598   0.407  1.7858  1.6316 -0.5687
  713THF     H5 9261   4.117   1.574   0.263  0.8217 -0.6725  1.4920
  713THF     H6 9262   3.792   1.603   0.063  1.2775 -0.3404 -1.9669
  713THF     H7 9263   3.966   1.583   0.034 -1.6046  1.0743 -1.1840
  713THF     C8 9264   3.894   1.421   0.161 -0.2872 -0.7446  0.5089
  713THF     C9 9265   3.968   1.417   0.290  0.1034  0.2452  0.2771
  713THF    H10 9266   3.938   1.359   0.083 -1.6994  0.8278 -1.6802
  713THF    H11 9267   3.791   1.390   0.177 -1.0971  1.2287 -0.4578
  713THF    H12 9268   3.914   1.391   0.381  2.0066  0.9343  1.6603
  713THF    H13 9269   4.055   1.355   0.270 -0.8609 -1.2163  0.4289
  714THF     O1 9270   1.295   3.870   1.734  0.0155  0.0764 -0.2178
  714THF     C2 9271   1.389   3.767   1.767  0.5274 -0.4556 -0.0947
  714THF     C3 9272   1.240   3.926   1.852 -0.0171  0.3425  0.5520
  714THF     H4 9273   1.481   3.825   1.779 -0.7297  1.5070  0.5689
  714THF     H5 9274   1.404   3.689   1.692  0.3945 -1.1040  0.5427
  714THF     H6 9275   1.319   3.984   1.900 -0.6460  2.3881 -0.7889
  714THF     H7 9276   1.149   3.983   1.833 -0.1139 -0.0961 -0.3248
  714THF     C8 9277   1.223   3.801   1.944 -0.1798 -0.1132  0.2522
  714THF     C9 9278   1.345   3.721   1.908  0.4687 -0.8755  0.0091
  714THF    H10 9279   1.132   3.751   1.910 -0.5091  1.1876 -0.8631
  714THF    H11 9280   1.213   3.821   2.051 -1.3091  3.7324 -0.4400
  714THF    H12 9281   1.421   3.762   1.974 -0.6578 -0.1094  0.8578
  714THF    H13 9282   1.336   3.614   1.921 -0.9663 -1.0054 -1.6819
  715THF     O1 9283   4.132   1.368   4.564 -0.1002  0.0762 -0.0996
  715THF     C2 9284   4.017   1.346   4.481  0.7555  0.4647  0.1764
  715THF     C3 9285   4.087   1.435   4.678 -0.1960  0.1209 -0.1361
  715THF     H4 9286   3.972   1.247   4.480  0.7501  0.4580 -1.4191
  715THF     H5 9287   4.045   1.360   4.377 -0.4052 -1.9050 -0.5286
  715THF     H6 9288   4.049   1.371   4.758  0.6083  0.5229  0.5740
  715THF     H7 9289   4.166   1.499   4.715 -1.1419  0.0286  2.2046
  715THF     C8 9290   3.984   1.531   4.626  0.6527 -0.0689  0.6696
  715THF     C9 9291   3.914   1.457   4.509 -0.1989 -0.0547  0.3502
  715THF    H10 9292   4.028   1.616   4.574  0.4880 -0.7857 -0.6851
  715THF    H11 9293   3.915   1.569   4.702 -0.0929 -1.0537  0.5121
  715THF    H12 9294   3.815   1.421   4.539 -1.4462  3.2741  0.6609
  715THF    H13 9295   3.891   1.519   4.422  1.0403  0.1236  0.1291
  716THF     O1 9296   0.577   3.193   0.979  0.2580  0.1154  0.2586
  716THF     C2 9297   0.649   3.317   0.996 -0.4827  0.9481 -0.1240
  716THF     C3 9298   0.452   3.237   0.926 -0.4772 -0.0359  0.8447
  716THF     H4 9299   0.756   3.306   1.009 -0.6478 -0.2866  0.3426
  716THF     H5 9300   0.610   3.374   1.081 -0.5368 -0.1976  0.6420
  716THF     H6 9301   0.402   3.149   0.886  2.4898 -1.9968  1.1690
  716THF     H7 9302   0.388   3.275   1.006 -2.1319  1.0945 -0.9328
  716THF     C8 9303   0.492   3.331   0.816  0.2573 -0.3689 -0.0063
  716THF     C9 9304   0.632   3.375   0.860  0.0924  0.0458 -0.2590
  716THF    H10 9305   0.415   3.408   0.819  0.2876 -0.3427  0.1381
  716THF    H11 9306   0.481   3.292   0.716 -2.1888  0.4598 -0.1107
  716THF    H12 9307   0.711   3.336   0.795 -0.0411  0.3298 -0.5903
  716THF    H13 9308   0.641   3.483   0.855  1.2568 -0.0554 -0.7421
  717THF     O1 9309   1.128   2.025   0.150  0.0109  0.4796 -0.0153
  717THF     C2 9310   1.075   2.129   0.236 -0.5043 -0.4354  0.7040
  717THF     C3 9311   1.070   2.033   0.019  0.1407 -0.2826  0.1579
  717THF     H4 9312   1.144   2.153   0.317  1.7047  0.4318 -1.3127
  717THF     H5 9313   0.983   2.098   0.284 -1.3193 -0.6952 -0.9660
  717THF     H6 9314   1.149   2.004  -0.050  0.4128 -1.3509  0.9032
  717THF     H7 9315   0.980   1.974  -0.001 -1.4251  1.6466  1.1368
  717THF     C8 9316   1.022   2.181   0.002 -0.7329  0.0686 -0.2328
  717THF     C9 9317   1.058   2.245   0.140 -0.1216 -0.5217  0.6748
  717THF    H10 9318   0.915   2.186  -0.018 -0.6983  3.1577 -0.2131
  717THF    H11 9319   1.078   2.230  -0.078  1.3141  0.7411  1.5146
  717THF    H12 9320   1.146   2.309   0.136 -2.3218  2.8331 -2.9968
  717THF    H13 9321   0.970   2.300   0.174  1.6467  2.4534  0.8328
  718THF     O1 9322   2.641   3.204   0.071  0.1689  0.3631 -0.2009
  718THF     C2 9323   2.708   3.155  -0.036  0.0915  0.2821  0.7975
  718THF     C3 9324   2.565   3.094   0.119  0.7487  0.6041 -0.7048
  718THF     H4 9325   2.773   3.078   0.004 -2.2001 -1.9022  0.5940
  718THF     H5 9326   2.770   3.236  -0.073  3.0072 -1.0920  2.3313
  718THF     H6 9327   2.627   3.014   0.158 -1.3978 -0.2208  1.2293
  718THF     H7 9328   2.497   3.121   0.200 -0.7389  2.5878 -2.5065
  718THF     C8 9329   2.503   3.039  -0.015 -0.1107 -0.0314 -0.6545
  718THF     C9 9330   2.589   3.106  -0.124 -0.6160 -0.0867 -0.1236
  718THF    H10 9331   2.401   3.076  -0.007 -0.1848 -0.4833  4.5885
  718THF    H11 9332   2.499   2.930  -0.020 -1.2819  0.0448 -2.1517
  718THF    H12 9333   2.608   3.031  -0.201 -4.1147 -0.1598 -1.1007
  718THF    H13 9334   2.540   3.193  -0.167 -1.1628 -0.2220  0.2189
  719THF     O1 9335   4.050   3.514   1.872  0.6226  0.2223  0.0380
  719THF     C2 9336   3.935   3.512   1.792  0.6483 -0.2931 -0.5656
  719THF     C3 9337   4.143   3.417   1.821 -0.1949  0.6857 -0.0382
  719THF     H4 9338   3.946   3.567   1.699 -0.0365  2.1716  0.7255
  719THF     H5 9339   3.847   3.554   1.842 -0.1211 -1.9693 -0.4572
  719THF     H6 9340   4.223   3.462   1.762 -0.1452  1.2494  0.4431
  719THF     H7 9341   4.187   3.375   1.912  2.0524  1.5719 -0.6506
  719THF     C8 9342   4.064   3.318   1.747 -0.2383 -0.1656 -0.8868
  719THF     C9 9343   3.922   3.363   1.784  0.0767  0.3734 -0.1120
  719THF    H10 9344   4.086   3.214   1.772  2.2934  0.3830 -0.5348
  719THF    H11 9345   4.102   3.344   1.648  3.9437  0.6057  0.6988
  719THF    H12 9346   3.851   3.337   1.706 -2.2681 -0.6348  2.2239
  719THF    H13 9347   3.893   3.306   1.871  1.4154 -1.5858 -0.8877
  720THF     O1 9348   4.563   5.153   1.043  0.7195  0.3960 -0.0233
  720THF     C2 9349   4.703   5.134   1.034 -0.3800 -0.0329 -0.7255
  720THF     C3 9350   4.492   5.051   0.965  0.1522 -0.5547 -0.2828
  720THF     H4 9351   4.738   5.093   1.129  0.7531  0.1742 -1.0480
  720THF     H5 9352   4.754   5.227   1.012 -0.3837 -0.4214 -2.5404
  720THF     H6 9353   4.484   4.967   1.034  0.6675 -0.3906 -0.0216
  720THF     H7 9354   4.396   5.087   0.928 -0.0778  0.6639  1.3705
  720THF     C8 9355   4.590   5.035   0.845 -0.0024  0.3490  0.0878
  720THF     C9 9356   4.726   5.046   0.916 -0.1928  0.3580  0.1860
  720THF    H10 9357   4.575   5.109   0.767 -1.0736 -0.7439 -0.7942
  720THF    H11 9358   4.572   4.938   0.799 -3.2592 -0.2312  2.1957
  720THF    H12 9359   4.767   4.949   0.944 -0.6130  0.4428  1.1268
  720THF    H13 9360   4.804   5.095   0.858 -0.9218  3.3397  1.5474
  721THF     O1 9361   2.215   3.799   4.742  0.5176 -0.0724 -0.1957
  721THF     C2 9362   2.250   3.666   4.702 -0.4521 -0.2336  0.2513
  721THF     C3 9363   2.337   3.858   4.783 -0.9464  0.6417  0.3876
  721THF     H4 9364   2.296   3.661   4.604  2.5871 -0.2065  1.5477
  721THF     H5 9365   2.169   3.593   4.699  1.4927 -2.4873 -0.6245
  721THF     H6 9366   2.381   3.922   4.706  1.9317 -0.8489  0.6297
  721THF     H7 9367   2.318   3.921   4.870  1.7774  1.5613  0.4199
  721THF     C8 9368   2.435   3.747   4.814  0.1487 -0.0155 -0.3218
  721THF     C9 9369   2.355   3.617   4.794  0.0207 -0.2376 -0.4786
  721THF    H10 9370   2.485   3.761   4.909 -2.8276 -0.7669  1.4876
  721THF    H11 9371   2.505   3.747   4.730 -0.8911 -0.4834 -1.2166
  721THF    H12 9372   2.412   3.528   4.770  1.1836  0.5569 -0.7144
  721THF    H13 9373   2.300   3.584   4.882  0.8546 -1.6770 -0.4642
  722THF     O1 9374   2.360   2.595   2.049 -0.6757 -0.4872  0.1464
  722THF     C2 9375   2.292   2.489   2.107 -0.0961 -0.4646 -0.4572
  722THF     C3 9376   2.494   2.576   2.076 -0.9097 -0.5388 -0.1942
  722THF     H4 9377   2.280   2.415   2.028 -1.6056  0.9594 -1.6581
  722THF     H5 9378   2.194   2.517   2.147 -1.0697 -2.5441 -1.2180
  722THF     H6 9379   2.554   2.581   1.985  1.4048  0.0224  1.2672
  722THF     H7 9380   2.549   2.648   2.138 -0.3196  0.0123 -1.3147
  722THF     C8 9381   2.515   2.440   2.140  0.2441  0.0187  0.1901
  722THF     C9 9382   2.390   2.434   2.219 -0.2098 -0.4740  0.7264
  722THF    H10 9383   2.607   2.428   2.197 -0.5093  0.7150  1.5927
  722THF    H11 9384   2.506   2.367   2.059  0.4020  0.2961 -0.0812
  722THF    H12 9385   2.372   2.330   2.247 -2.3305 -0.5280 -0.5463
  722THF    H13 9386   2.388   2.500   2.305 -0.9349 -0.1577  0.4759
  723THF     O1 9387   0.954   2.069   4.378  0.1379 -0.2383  0.3915
  723THF     C2 9388   0.911   2.145   4.264 -0.1248 -0.0301 -0.1524
  723THF     C3 9389   0.918   2.128   4.500 -0.1559 -0.0385  0.3464
  723THF     H4 9390   0.814   2.102   4.239 -0.2655 -0.3803  0.9518
  723THF     H5 9391   0.972   2.141   4.174 -1.7620 -0.6291 -1.2946
  723THF     H6 9392   0.817   2.087   4.504 -0.3089  0.3938  0.9946
  723THF     H7 9393   0.969   2.109   4.594 -3.3874 -0.2960  2.2002
  723THF     C8 9394   0.915   2.275   4.466 -0.6424 -0.5217 -0.3376
  723THF     C9 9395   0.894   2.287   4.321 -0.0084 -0.4030  0.5161
  723THF    H10 9396   1.014   2.309   4.495 -0.0695 -2.0578 -0.4157
  723THF    H11 9397   0.846   2.340   4.519  0.0414 -0.3089  0.3010
  723THF    H12 9398   0.794   2.330   4.317 -1.1122 -2.9033 -0.5137
  723THF    H13 9399   0.965   2.359   4.280 -2.4325  1.3243 -0.9085
  724THF     O1 9400   2.564   3.575   5.328 -0.7885  0.1521 -0.0402
  724THF     C2 9401   2.693   3.627   5.286  0.7211 -0.7135 -0.0794
  724THF     C3 9402   2.465   3.647   5.256  0.2571 -1.2368 -0.4097
  724THF     H4 9403   2.727   3.572   5.199 -0.9951 -1.8981 -0.0438
  724THF     H5 9404   2.771   3.608   5.360  0.1845 -0.1475  0.6478
  724THF     H6 9405   2.420   3.601   5.167 -1.5956 -1.5452  0.6293
  724THF     H7 9406   2.378   3.658   5.320  0.0185 -0.0577 -0.8964
  724THF     C8 9407   2.529   3.781   5.228 -0.0863 -0.0859  0.7531
  724THF     C9 9408   2.677   3.778   5.274  0.4102  0.3610 -0.7145
  724THF    H10 9409   2.473   3.865   5.267 -1.5584  0.4953 -2.2641
  724THF    H11 9410   2.536   3.800   5.121  1.5903 -0.0841  0.8372
  724THF    H12 9411   2.751   3.830   5.214  2.3483  0.5405  1.6744
  724THF    H13 9412   2.688   3.823   5.373 -1.7294 -1.0545  0.2495
  725THF     O1 9413   3.010   4.100   2.710 -0.3334  0.1648 -0.1364
  725THF     C2 9414   3.126   4.047   2.656  0.2245  0.1418  0.1485
  725THF     C3 9415   2.930   4.139   2.602  0.0928  1.2238 -0.2300
  725THF     H4 9416   3.113   3.944   2.623  1.3492 -0.4032  1.2946
  725THF     H5 9417   3.211   4.049   2.724  0.7848 -1.4974 -0.4446
  725THF     H6 9418   2.854   4.064   2.579  3.1378 -1.5278 -2.0344
  725THF     H7 9419   2.866   4.224   2.628  0.1086  1.4795 -1.0143
  725THF     C8 9420   3.022   4.175   2.488  0.6291 -0.3774 -0.1894
  725THF     C9 9421   3.159   4.146   2.544 -0.5235  0.3203 -0.7236
  725THF    H10 9422   2.998   4.276   2.455 -1.3599 -0.5500  0.5527
  725THF    H11 9423   2.998   4.100   2.412 -1.4692  1.3717 -1.3950
  725THF    H12 9424   3.231   4.123   2.465  1.5037  1.4236  0.7238
  725THF    H13 9425   3.193   4.235   2.597  2.5677 -1.0967 -0.1106
  726THF     O1 9426   4.999   0.594   1.214 -0.5477 -0.5677  0.1700
  726THF     C2 9427   5.059   0.719   1.180  0.1793  0.1180 -0.3891
  726THF     C3 9428   4.996   0.597   1.363 -0.2023 -0.4442  0.5885
  726THF     H4 9429   4.983   0.796   1.173 -0.6493 -0.6962 -0.5739
  726THF     H5 9430   5.101   0.713   1.079  0.7418 -0.6011 -0.1220
  726THF     H6 9431   4.920   0.663   1.403 -0.3763  0.4470 -1.1287
  726THF     H7 9432   4.982   0.501   1.412 -0.3944 -0.0319  1.3524
  726THF     C8 9433   5.133   0.656   1.397  0.9336  0.2566  0.6081
  726THF     C9 9434   5.180   0.723   1.275  0.7750  0.1746 -0.0238
  726THF    H10 9435   5.186   0.563   1.418  0.3987 -0.8498 -2.5604
  726THF    H11 9436   5.132   0.714   1.490 -1.6172 -0.1433  0.8947
  726THF    H12 9437   5.222   0.821   1.294  0.8215  0.1766 -0.1427
  726THF    H13 9438   5.266   0.669   1.237  0.1139 -0.3264 -0.8572
  727THF     O1 9439   0.771   3.750   5.461  0.1292  0.1990  0.0243
  727THF     C2 9440   0.736   3.798   5.591 -0.4019 -0.2977 -0.9460
  727THF     C3 9441   0.893   3.821   5.417 -0.8289 -0.0776  0.1302
  727THF     H4 9442   0.723   3.713   5.659  1.7936  1.0387  1.3148
  727THF     H5 9443   0.646   3.860   5.591 -0.2151  0.1218  2.1597
  727THF     H6 9444   0.946   3.762   5.343 -0.9594 -1.1055  0.8273
  727THF     H7 9445   0.872   3.912   5.362 -1.5682 -0.4180 -0.1673
  727THF     C8 9446   0.976   3.845   5.542  0.5460  0.0304 -0.6771
  727THF     C9 9447   0.862   3.868   5.645 -0.6800 -0.3505  0.3833
  727THF    H10 9448   1.042   3.928   5.516  0.0429  0.9193  0.7436
  727THF    H11 9449   1.029   3.756   5.573  0.9364  0.7864  0.9078
  727THF    H12 9450   0.886   3.817   5.738  0.2932 -1.4010 -0.4095
  727THF    H13 9451   0.846   3.973   5.665  2.0483  0.1614  0.3308
  728THF     O1 9452   2.163   1.979   4.068  0.1311  0.1865  0.4957
  728THF     C2 9453   2.122   2.049   3.944 -0.4012  0.2527 -0.8587
  728THF     C3 9454   2.304   2.001   4.084 -0.5040  0.2598  0.4697
  728THF     H4 9455   2.088   2.149   3.971 -0.8880 -0.2789  0.6012
  728THF     H5 9456   2.041   1.989   3.902  0.8638 -0.2142 -2.7996
  728THF     H6 9457   2.314   2.107   4.108  0.3383  0.0423  1.1303
  728THF     H7 9458   2.344   1.939   4.165  0.5358  3.0991  2.2884
  728THF     C8 9459   2.360   1.979   3.943  0.8897  0.1780  0.3239
  728THF     C9 9460   2.246   2.043   3.854  0.2133 -0.2437  0.2380
  728THF    H10 9461   2.375   1.874   3.916  0.3921  0.2991 -0.4515
  728THF    H11 9462   2.458   2.010   3.908  0.2649  0.3110 -1.4192
  728THF    H12 9463   2.264   2.139   3.805 -1.0033 -1.2315 -2.2946
  728THF    H13 9464   2.229   1.968   3.778 -0.1350  0.1911 -0.1207
  729THF     O1 9465   2.741   2.281   3.079 -0.0816  0.3795  0.0190
  729THF     C2 9466   2.823   2.178   3.036 -0.1413 -0.0039  0.0841
  729THF     C3 9467   2.814   2.401   3.073 -0.0218 -0.3967 -0.2267
  729THF     H4 9468   2.780   2.083   3.004 -1.6144  0.9238 -0.7961
  729THF     H5 9469   2.878   2.149   3.125  0.9496 -0.6622 -0.7829
  729THF     H6 9470   2.768   2.496   3.101  1.8543  0.3620  0.4319
  729THF     H7 9471   2.901   2.388   3.137 -0.7976  0.2582  1.0158
  729THF     C8 9472   2.889   2.398   2.940  0.5571  0.1750  0.8316
  729THF     C9 9473   2.907   2.242   2.923  0.0239  0.4825 -0.4651
  729THF    H10 9474   2.984   2.451   2.943  1.0656 -0.6978  0.5969
  729THF    H11 9475   2.835   2.436   2.853  0.1199  1.3921  1.6183
  729THF    H12 9476   2.866   2.216   2.825 -1.8143  2.4099 -0.2894
  729THF    H13 9477   3.012   2.215   2.916 -0.5647 -2.5808  0.8172
  730THF     O1 9478   2.052   5.044   0.134  0.5748 -0.0585 -0.0924
  730THF     C2 9479   2.134   4.923   0.118  0.3543 -0.2889 -0.0131
  730THF     C3 9480   2.076   5.096   0.268 -0.0372 -0.1143  0.4567
  730THF     H4 9481   2.161   4.892   0.017 -1.0039 -0.8141 -0.2393
  730THF     H5 9482   2.076   4.842   0.162 -1.5707  0.5962 -0.7831
  730THF     H6 9483   2.086   5.204   0.258  1.2250 -0.3808 -1.7672
  730THF     H7 9484   1.997   5.077   0.341  0.1573 -1.6593  0.3060
  730THF     C8 9485   2.216   5.047   0.315 -0.7630  0.0237 -0.3915
  730THF     C9 9486   2.262   4.951   0.206 -0.1034  0.1956  0.8245
  730THF    H10 9487   2.194   4.991   0.405 -1.3110 -0.5510 -0.8813
  730THF    H11 9488   2.291   5.125   0.333 -1.2571  0.4765 -0.2821
  730THF    H12 9489   2.349   4.979   0.147 -1.1394  0.9944 -0.4012
  730THF    H13 9490   2.291   4.856   0.250  0.1774 -0.5525 -0.9041
  731THF     O1 9491   0.015   3.758   5.001  0.1849 -0.0357 -0.0033
  731THF     C2 9492   0.085   3.672   4.914 -0.5613  0.3403 -0.9316
  731THF     C3 9493  -0.022   3.671   5.107  0.2009  1.0604 -0.4409
  731THF     H4 9494   0.154   3.727   4.849 -0.5312  1.2384 -0.1665
  731THF     H5 9495   0.021   3.608   4.852  0.5323 -2.3364  0.5600
  731THF     H6 9496  -0.057   3.730   5.192  0.8947  1.7790 -0.6416
  731THF     H7 9497  -0.118   3.628   5.079  0.4992  1.0951 -1.5618
  731THF     C8 9498   0.093   3.563   5.128  0.1200  0.7303 -0.0387
  731THF     C9 9499   0.178   3.593   5.001  0.4112 -0.3424 -0.4471
  731THF    H10 9500   0.059   3.460   5.130  1.6324  0.1796 -0.5178
  731THF    H11 9501   0.153   3.583   5.217 -1.6049  2.2983  0.8355
  731THF    H12 9502   0.261   3.659   5.024 -1.6084  2.0727  0.3081
  731THF    H13 9503   0.204   3.499   4.951 -1.6386 -0.2108 -1.9085
  732THF     O1 9504   1.568   0.380   5.483 -0.0648  0.0579 -0.5708
  732THF     C2 9505   1.702   0.348   5.518 -0.0163 -0.0647  0.5075
  732THF     C3 9506   1.583   0.469   5.373  0.3186 -0.4428  0.4589
  732THF     H4 9507   1.717   0.241   5.505 -0.0950 -0.2123  1.5360
  732THF     H5 9508   1.721   0.365   5.624 -1.7706  0.3475  0.7985
  732THF     H6 9509   1.506   0.446   5.299  0.6634  0.3204 -0.1489
  732THF     H7 9510   1.571   0.573   5.404  0.8223 -0.1566 -0.3017
  732THF     C8 9511   1.722   0.446   5.309  0.3435  0.3401  0.0412
  732THF     C9 9512   1.805   0.418   5.430 -0.6599 -0.2364  0.6158
  732THF    H10 9513   1.764   0.531   5.254  1.1396 -0.6875 -0.9986
  732THF    H11 9514   1.707   0.365   5.237 -0.8936  1.0697 -0.5649
  732THF    H12 9515   1.894   0.359   5.410 -0.2205  0.1086  1.4849
  732THF    H13 9516   1.848   0.509   5.473  3.0265 -1.1872 -0.6881
  733THF     O1 9517   0.996   2.665   3.099  0.2776 -0.1496  0.0215
  733THF     C2 9518   1.107   2.593   3.155 -0.3283 -0.0581  0.3259
  733THF     C3 9519   1.049   2.758   3.010 -0.0432  0.4111  0.6381
  733THF     H4 9520   1.082   2.488   3.142 -2.7265  0.7209 -2.4994
  733THF     H5 9521   1.107   2.606   3.263 -3.6216  0.0692  0.4164
  733THF     H6 9522   0.984   2.782   2.925  0.4507  2.4065  0.7849
  733THF     H7 9523   1.068   2.857   3.051  1.2067 -0.9349  3.6043
  733THF     C8 9524   1.189   2.706   2.973  0.0083 -0.3930 -0.4878
  733THF     C9 9525   1.232   2.630   3.095  0.0749 -0.0498  0.2640
  733THF    H10 9526   1.259   2.784   2.943 -0.7187 -0.5595 -2.8092
  733THF    H11 9527   1.193   2.643   2.884  1.0640  1.4439 -1.8179
  733THF    H12 9528   1.290   2.543   3.063  1.2794  0.5250  0.8031
  733THF    H13 9529   1.298   2.697   3.151 -1.8434 -0.0208  2.6272
  734THF     O1 9530   3.192   4.860   4.684 -0.8099 -1.1491 -0.3694
  734THF     C2 9531   3.168   4.860   4.549 -0.2077 -0.4857  0.4106
  734THF     C3 9532   3.075   4.892   4.757  0.1487 -0.2870 -0.2616
  734THF     H4 9533   3.204   4.761   4.521  0.5591  0.0351 -0.4610
  734THF     H5 9534   3.223   4.927   4.484 -0.4210 -1.0101 -0.3245
  734THF     H6 9535   3.080   4.844   4.854  0.5855 -0.6752 -0.4747
  734THF     H7 9536   3.059   5.000   4.765 -0.7961 -0.4847  0.7185
  734THF     C8 9537   2.968   4.824   4.669  0.6876 -0.0490 -0.3106
  734THF     C9 9538   3.021   4.868   4.531  0.0826 -0.1092  0.4567
  734THF    H10 9539   2.867   4.858   4.690  0.8264 -0.0217  0.3203
  734THF    H11 9540   2.968   4.715   4.676 -2.3130 -0.1843 -1.0109
  734THF    H12 9541   2.975   4.801   4.459 -1.2544  2.5175 -1.3087
  734THF    H13 9542   2.992   4.970   4.502  0.3579  0.0508  0.7417
  735THF     O1 9543   1.655   4.833   3.380  0.3922 -0.4378 -0.5837
  735THF     C2 9544   1.583   4.801   3.261  0.8052 -0.0314  0.5442
  735THF     C3 9545   1.754   4.729   3.391  0.4634  0.2795 -0.6628
  735THF     H4 9546   1.517   4.876   3.216 -1.2060 -1.1800  1.4440
  735THF     H5 9547   1.515   4.719   3.284  1.4021 -0.6532  0.1488
  735THF     H6 9548   1.828   4.745   3.469 -1.4757  0.7168  1.1646
  735THF     H7 9549   1.709   4.633   3.417  1.7186 -0.9846 -2.8611
  735THF     C8 9550   1.812   4.721   3.250  0.8032  0.3397  0.7849
  735THF     C9 9551   1.695   4.763   3.168 -0.2514 -0.0770  0.3239
  735THF    H10 9552   1.841   4.622   3.216 -0.2437 -0.1490  1.2493
  735THF    H11 9553   1.897   4.787   3.232  1.9967 -1.4085 -0.3237
  735THF    H12 9554   1.727   4.861   3.132  2.8852 -1.0003  0.2794
  735THF    H13 9555   1.684   4.696   3.084  1.1102 -0.9639  0.8158
  736THF     O1 9556   4.992   3.506   5.200  0.6557  0.2669  0.7010
  736THF     C2 9557   5.051   3.457   5.319  0.1759  0.0494 -0.8768
  736THF     C3 9558   5.066   3.621   5.160 -0.2132 -0.3075 -0.2392
  736THF     H4 9559   5.130   3.384   5.301 -0.6870 -0.7812 -1.3941
  736THF     H5 9560   4.976   3.407   5.380  1.4132 -0.3446  0.3891
  736THF     H6 9561   5.165   3.588   5.127  0.9122  0.3106  2.3007
  736THF     H7 9562   5.011   3.674   5.082 -2.1422 -2.6310 -0.5681
  736THF     C8 9563   5.063   3.695   5.294  0.7918 -0.3682 -0.9149
  736THF     C9 9564   5.100   3.587   5.388  0.4684  0.1842  0.4268
  736THF    H10 9565   4.961   3.725   5.315  1.0354  0.1767 -0.4553
  736THF    H11 9566   5.118   3.788   5.304  1.8486 -1.1235  0.7855
  736THF    H12 9567   5.208   3.582   5.404  0.3253 -0.9212  1.0984
  736THF    H13 9568   5.054   3.613   5.483  2.3132 -1.8406  1.9807
  737THF     O1 9569   2.639   5.104   3.421 -0.1257  0.3031 -0.0907
  737THF     C2 9570   2.511   5.164   3.439 -0.6208  0.3313 -0.2128
  737THF     C3 9571   2.636   4.993   3.507 -0.3708  0.1260 -0.0560
  737THF     H4 9572   2.478   5.221   3.352 -1.6941 -0.9789 -0.6917
  737THF     H5 9573   2.517   5.209   3.538  0.5544  0.0744 -0.1431
  737THF     H6 9574   2.719   4.930   3.477 -0.1932  0.3944 -0.1321
  737THF     H7 9575   2.648   5.022   3.612 -0.8054 -2.0795  0.6560
  737THF     C8 9576   2.496   4.932   3.494 -0.0035 -0.2797  0.1768
  737THF     C9 9577   2.411   5.050   3.453 -0.5284 -0.3049 -0.4604
  737THF    H10 9578   2.455   4.903   3.591  0.7057 -0.3454  0.4617
  737THF    H11 9579   2.490   4.849   3.424  3.6360 -0.3040 -0.2693
  737THF    H12 9580   2.363   5.021   3.359  0.5592 -0.0840 -1.1081
  737THF    H13 9581   2.327   5.073   3.519 -1.0393  1.0000 -1.5025
  738THF     O1 9582   0.059   2.716   0.862  0.2051 -0.0299  0.1287
  738THF     C2 9583   0.036   2.815   0.769  0.1611 -0.2303 -0.0558
  738THF     C3 9584  -0.067   2.684   0.919 -0.2066  0.6418 -0.0743
  738THF     H4 9585   0.003   2.776   0.673 -0.4147  0.9874 -0.3776
  738THF     H5 9586   0.124   2.872   0.739 -0.8835  1.1719 -0.5929
  738THF     H6 9587  -0.121   2.619   0.850  0.6994  0.3729 -0.5512
  738THF     H7 9588  -0.049   2.631   1.012  3.2353 -0.5145 -1.2224
  738THF     C8 9589  -0.140   2.813   0.929  0.4747 -0.4147 -0.0030
  738THF     C9 9590  -0.080   2.901   0.817  0.0429  0.5731 -0.0832
  738THF    H10 9591  -0.106   2.850   1.025 -0.7222  0.3916  0.1389
  738THF    H11 9592  -0.249   2.810   0.939  0.6337 -1.9791  1.7593
  738THF    H12 9593  -0.141   2.921   0.728  1.1313 -0.5412 -1.1044
  738THF    H13 9594  -0.050   2.994   0.865  1.8029 -0.0935  0.1783
  739THF     O1 9595   0.181   3.429   1.761 -0.4507 -0.2666  0.3115
  739THF     C2 9596   0.119   3.444   1.890  0.0701 -0.6928  0.6178
  739THF     C3 9597   0.274   3.320   1.765 -0.0267  0.0353  0.1781
  739THF     H4 9598   0.025   3.499   1.882  0.4241 -0.1785 -0.1488
  739THF     H5 9599   0.180   3.504   1.957  1.0018 -2.3051  1.2936
  739THF     H6 9600   0.299   3.269   1.672 -3.0540  0.6492 -1.1080
  739THF     H7 9601   0.369   3.354   1.806 -0.1816 -0.1183  0.6700
  739THF     C8 9602   0.208   3.222   1.861 -0.1322 -0.4168 -0.1772
  739THF     C9 9603   0.111   3.302   1.947  0.0427 -0.2236  0.0865
  739THF    H10 9604   0.273   3.160   1.922 -1.7636 -1.1153  0.9089
  739THF    H11 9605   0.147   3.153   1.802 -0.9236 -1.1278  1.3992
  739THF    H12 9606   0.009   3.265   1.936 -0.5932  1.6911 -0.8816
  739THF    H13 9607   0.130   3.294   2.054 -0.5387 -1.7305  0.0908
  740THF     O1 9608   3.319   1.308   1.670 -0.0783  0.6183 -0.1404
  740THF     C2 9609   3.345   1.217   1.777  0.1575 -0.0124 -0.3088
  740THF     C3 9610   3.190   1.373   1.689  0.0432 -0.3710  0.0543
  740THF     H4 9611   3.379   1.278   1.861  0.5296  0.4868 -0.8157
  740THF     H5 9612   3.413   1.132   1.765  0.8170  0.5844 -0.8720
  740THF     H6 9613   3.204   1.471   1.735  0.0747 -1.0308  1.5137
  740THF     H7 9614   3.162   1.395   1.586  0.9315 -1.9989 -0.5636
  740THF     C8 9615   3.100   1.275   1.766 -0.0469  0.1466 -0.0565
  740THF     C9 9616   3.195   1.166   1.807  0.0131  0.3290  0.0558
  740THF    H10 9617   3.014   1.243   1.708 -0.3035 -0.4219  0.6271
  740THF    H11 9618   3.064   1.322   1.858 -1.1858 -1.7883  0.5226
  740THF    H12 9619   3.166   1.132   1.906  0.3821  1.8207  0.7113
  740THF    H13 9620   3.178   1.089   1.732  0.2579  1.7780 -1.5592
  741THF     O1 9621   1.287   3.578   2.781  0.2894  0.2243 -0.3073
  741THF     C2 9622   1.254   3.443   2.752  1.0318  0.5396 -0.5067
  741THF     C3 9623   1.344   3.574   2.908 -1.3529  0.2591 -0.1680
  741THF     H4 9624   1.221   3.443   2.648 -1.4716  2.5355  0.1875
  741THF     H5 9625   1.167   3.426   2.815  2.1347  1.1885  1.2624
  741THF     H6 9626   1.384   3.674   2.929  0.7431 -0.6799  0.6254
  741THF     H7 9627   1.271   3.550   2.986 -2.7443  0.4758 -1.3658
  741THF     C8 9628   1.450   3.472   2.889 -0.4856  0.0189 -0.6379
  741THF     C9 9629   1.373   3.373   2.793 -0.0729 -0.0061  0.2673
  741THF    H10 9630   1.476   3.428   2.986 -1.9348  3.6438  1.5920
  741THF    H11 9631   1.539   3.505   2.835  0.8624 -1.7101  0.4067
  741THF    H12 9632   1.431   3.341   2.707 -1.4797  0.1015 -0.7547
  741THF    H13 9633   1.357   3.280   2.848  1.3065  0.0297  0.7631
  742THF     O1 9634   4.108   4.166   3.141 -0.0264  0.3176 -1.0073
  742THF     C2 9635   4.163   4.121   3.019  0.2902  0.6026 -0.2307
  742THF     C3 9636   4.227   4.226   3.203  0.0467  0.1011  0.1810
  742THF     H4 9637   4.080   4.096   2.953 -2.2340 -0.4615  3.0866
  742THF     H5 9638   4.229   4.035   3.024 -0.0329  0.3964  0.7088
  742THF     H6 9639   4.195   4.278   3.293 -1.9602 -2.1957  0.9293
  742THF     H7 9640   4.300   4.154   3.238 -0.5942 -1.5720 -1.7074
  742THF     C8 9641   4.283   4.306   3.089  0.0133 -0.8280 -0.5914
  742THF     C9 9642   4.245   4.234   2.964 -0.0554 -0.8857 -0.0601
  742THF    H10 9643   4.391   4.312   3.100 -0.1088  0.7602 -0.0205
  742THF    H11 9644   4.260   4.412   3.100  1.1757 -0.2503 -2.9607
  742THF    H12 9645   4.190   4.307   2.904  0.4138 -0.4236  0.0704
  742THF    H13 9646   4.335   4.207   2.908  0.1750  0.9379 -0.6371
  743THF     O1 9647   3.210   2.014   4.574  0.5872 -0.6309 -0.5324
  743THF     C2 9648   3.094   2.079   4.518  0.0609 -0.6758  0.0532
  743THF     C3 9649   3.243   1.930   4.470 -0.2893 -0.7196 -0.1551
  743THF     H4 9650   3.063   2.170   4.570  0.9307 -0.8504  0.9023
  743THF     H5 9651   3.011   2.010   4.503  1.0854 -1.7570 -0.8108
  743THF     H6 9652   3.347   1.901   4.466 -0.7574 -2.3885 -1.9129
  743THF     H7 9653   3.173   1.846   4.466 -2.8493  1.2494  0.4721
  743THF     C8 9654   3.235   2.007   4.336  0.2164 -0.0895 -0.6700
  743THF     C9 9655   3.148   2.124   4.380  0.1860  0.3851 -0.0358
  743THF    H10 9656   3.187   1.945   4.260  1.4053 -1.2485 -0.4999
  743THF    H11 9657   3.331   2.044   4.300 -0.5189  1.7289 -0.8897
  743THF    H12 9658   3.200   2.219   4.391  0.7665 -0.0062  0.6802
  743THF    H13 9659   3.070   2.139   4.305  0.2022  1.6910  0.1901
  744THF     O1 9660   1.545   1.146   1.073 -0.2997  0.6892  0.5213
  744THF     C2 9661   1.647   1.218   1.006  0.5058 -0.1865  0.2385
  744THF     C3 9662   1.481   1.227   1.163  0.0312 -0.3714  0.0863
  744THF     H4 9663   1.602   1.294   0.942  0.1650  1.6488  2.5371
  744THF     H5 9664   1.713   1.157   0.945 -0.4364 -0.1340 -0.8825
  744THF     H6 9665   1.396   1.284   1.126 -0.2148  0.2743  1.5747
  744THF     H7 9666   1.434   1.164   1.239  0.7837 -1.4530 -0.3134
  744THF     C8 9667   1.603   1.316   1.214 -0.1429  0.2064  0.6405
  744THF     C9 9668   1.724   1.279   1.128  0.6156  1.2448 -0.3995
  744THF    H10 9669   1.626   1.298   1.319  1.5429 -1.3901  0.0401
  744THF    H11 9670   1.568   1.417   1.194  1.2549  0.5310 -0.2626
  744THF    H12 9671   1.781   1.367   1.101  1.6408  1.1641  1.3706
  744THF    H13 9672   1.775   1.195   1.176 -1.8013 -1.2216 -1.8499
  745THF     O1 9673   0.574   2.494   1.438  0.9779 -0.0501  0.3863
  745THF     C2 9674   0.592   2.433   1.570  0.1754  0.1298  0.6908
  745THF     C3 9675   0.531   2.631   1.462 -0.1327 -0.5183  0.4300
  745THF     H4 9676   0.696   2.438   1.600  1.7768 -1.5379 -3.8800
  745THF     H5 9677   0.563   2.328   1.576  0.3853  0.1243  1.9461
  745THF     H6 9678   0.623   2.686   1.482  1.2964 -1.8410 -1.9731
  745THF     H7 9679   0.484   2.669   1.371  2.4001  1.5955 -0.1257
  745THF     C8 9680   0.427   2.621   1.579  0.5498  0.2248 -0.1377
  745THF     C9 9681   0.495   2.510   1.662  0.4430 -0.6041  0.1263
  745THF    H10 9682   0.328   2.589   1.547  0.1507  2.3211 -1.1484
  745THF    H11 9683   0.402   2.706   1.642 -2.2498 -0.9751  0.5484
  745THF    H12 9684   0.552   2.552   1.745 -0.0641 -0.5156  0.4354
  745THF    H13 9685   0.412   2.454   1.704 -2.7779  2.7535 -1.1905
  746THF     O1 9686   3.974   2.532   2.364  0.2639  0.3384 -0.5335
  746THF     C2 9687   4.064   2.453   2.284 -0.6227  0.0537  0.6988
  746THF     C3 9688   4.016   2.665   2.350  0.7353  0.3920 -0.0440
  746THF     H4 9689   4.024   2.353   2.270 -1.5619  0.3898  0.8839
  746THF     H5 9690   4.153   2.433   2.344 -0.7476 -2.5906  0.1295
  746THF     H6 9691   3.952   2.736   2.402 -0.4064 -0.9044  0.4057
  746THF     H7 9692   4.114   2.665   2.398 -1.1042 -0.5919  4.2320
  746THF     C8 9693   4.031   2.671   2.200  0.7422  0.3721  0.5800
  746THF     C9 9694   4.082   2.538   2.159 -0.1557 -0.1817  0.6356
  746THF    H10 9695   4.101   2.749   2.169 -0.7243  0.8129 -1.8910
  746THF    H11 9696   3.934   2.691   2.155 -0.4034 -4.6130  0.2523
  746THF    H12 9697   4.020   2.485   2.086 -1.7638  1.5625  0.6664
  746THF    H13 9698   4.186   2.539   2.128 -0.0759 -1.2583  0.8095
  747THF     O1 9699   4.715   4.678   0.676  0.1099 -0.3045  0.2972
  747THF     C2 9700   4.781   4.636   0.795  0.3578  0.4845  0.5314
  747THF     C3 9701   4.751   4.594   0.570  0.1390  0.0933  0.1832
  747THF     H4 9702   4.712   4.600   0.870  1.7291  0.2869  1.7387
  747THF     H5 9703   4.834   4.719   0.843  1.5969  0.0002  0.0557
  747THF     H6 9704   4.673   4.573   0.497  1.5728 -0.1547 -1.3479
  747THF     H7 9705   4.835   4.638   0.516 -0.3674 -1.0798 -1.6494
  747THF     C8 9706   4.807   4.468   0.640  0.4756  0.2666 -0.0380
  747THF     C9 9707   4.884   4.527   0.757 -0.3433 -0.4262 -0.3068
  747THF    H10 9708   4.856   4.390   0.584 -1.6103 -0.8080 -0.4783
  747THF    H11 9709   4.723   4.409   0.678  0.4714  0.8017  0.8099
  747THF    H12 9710   4.905   4.463   0.843  1.3566  1.4766  0.7799
  747THF    H13 9711   4.981   4.564   0.725 -0.6940  0.4256 -0.4237
  748THF     O1 9712   3.762   3.488   4.907 -0.3216  0.1519  0.0465
  748THF     C2 9713   3.680   3.399   4.979 -0.1693 -0.6077 -0.3485
  748THF     C3 9714   3.900   3.459   4.943 -0.1266 -0.7319  0.2811
  748THF     H4 9715   3.586   3.380   4.929  0.3623 -0.6661 -1.3488
  748THF     H5 9716   3.654   3.436   5.078  0.4461 -0.8947 -0.0746
  748THF     H6 9717   3.969   3.502   4.871  0.5897 -0.2470  1.2411
  748THF     H7 9718   3.918   3.491   5.046 -0.7228  1.1991 -0.1836
  748THF     C8 9719   3.896   3.306   4.948 -0.5242 -0.8159  0.2425
  748THF     C9 9720   3.760   3.270   4.991 -0.4684  0.5274  0.0989
  748THF    H10 9721   3.967   3.260   5.016 -0.4837  1.0689  1.5695
  748THF    H11 9722   3.919   3.265   4.850 -2.0858 -4.1070  1.1254
  748THF    H12 9723   3.739   3.189   4.920  1.1638 -0.0500  0.2102
  748THF    H13 9724   3.766   3.240   5.095  0.6954  3.1197  0.8470
  749THF     O1 9725   1.677   5.429   1.315  0.3362 -0.4036 -0.3137
  749THF     C2 9726   1.686   5.568   1.291 -0.2199 -0.2877 -0.0976
  749THF     C3 9727   1.782   5.402   1.404  0.0926 -0.0479  0.2571
  749THF     H4 9728   1.649   5.631   1.371  1.2895 -1.1910  1.3880
  749THF     H5 9729   1.635   5.596   1.199  0.2910  1.2312  0.0650
  749THF     H6 9730   1.754   5.442   1.502 -0.1809 -1.7754  0.9259
  749THF     H7 9731   1.791   5.296   1.428  0.0636 -0.6757 -2.2839
  749THF     C8 9732   1.904   5.456   1.325 -0.4384 -0.2868 -0.0917
  749THF     C9 9733   1.845   5.587   1.273  0.2343  0.1388  0.1570
  749THF    H10 9734   1.912   5.391   1.238  0.4491  0.6662 -0.7485
  749THF    H11 9735   2.002   5.450   1.372 -0.9311 -0.7883  0.9121
  749THF    H12 9736   1.882   5.668   1.336 -0.6578 -0.2331  1.1844
  749THF    H13 9737   1.870   5.611   1.170 -1.1942  0.9085 -0.0368
  750THF     O1 9738   2.220   5.471   4.456 -0.2913  0.2762  0.5076
  750THF     C2 9739   2.311   5.418   4.352  0.5522  0.0461  0.6742
  750THF     C3 9740   2.150   5.365   4.516  0.1047  0.1492 -0.8607
  750THF     H4 9741   2.402   5.478   4.358  0.5567  0.3310 -1.4883
  750THF     H5 9742   2.262   5.433   4.255  0.6077 -0.5817  0.5495
  750THF     H6 9743   2.107   5.384   4.615  1.0854  0.2933 -0.4579
  750THF     H7 9744   2.075   5.319   4.451 -0.9240  0.2473  0.2233
  750THF     C8 9745   2.258   5.267   4.531  0.4545  0.2211 -0.4827
  750THF     C9 9746   2.328   5.277   4.397 -0.0084  0.4502  0.2628
  750THF    H10 9747   2.228   5.166   4.558  0.7957  0.5099  1.0792
  750THF    H11 9748   2.317   5.299   4.617  2.8827 -0.1294 -1.9074
  750THF    H12 9749   2.436   5.265   4.407 -0.0120  1.1836  1.3540
  750THF    H13 9750   2.283   5.217   4.317  1.5141 -0.0390 -0.2745
  751THF     O1 9751   0.725   1.148   2.867 -0.4104 -0.5412  0.2093
  751THF     C2 9752   0.741   1.130   2.729  0.0216  0.6385  0.0695
  751THF     C3 9753   0.635   1.259   2.877 -0.0117 -0.7540 -0.6805
  751THF     H4 9754   0.779   1.029   2.714 -0.0836  0.9171 -2.4234
  751THF     H5 9755   0.819   1.197   2.693  1.5336 -0.5523  0.9883
  751THF     H6 9756   0.599   1.280   2.978  1.2162 -0.7077 -0.2377
  751THF     H7 9757   0.682   1.355   2.852 -1.5237  0.3470  0.5138
  751THF     C8 9758   0.521   1.209   2.796 -0.4304  0.5140 -0.1771
  751THF     C9 9759   0.600   1.149   2.679  0.3304  0.9025  0.3988
  751THF    H10 9760   0.464   1.295   2.760  1.2496  2.2077  1.0412
  751THF    H11 9761   0.459   1.138   2.850 -0.5529 -0.4861 -1.5838
  751THF    H12 9762   0.561   1.049   2.661 -0.6379  0.9717  1.9735
  751THF    H13 9763   0.594   1.204   2.585 -2.6968 -0.1083 -0.1103
  752THF     O1 9764   3.568   4.586   2.659  0.5643  0.1518  1.0688
  752THF     C2 9765   3.510   4.529   2.545  0.4811  0.4023  0.7673
  752THF     C3 9766   3.712   4.591   2.630 -0.2935 -0.3595 -0.0994
  752THF     H4 9767   3.498   4.606   2.469 -1.7368  0.3754  1.0504
  752THF     H5 9768   3.409   4.499   2.572  1.3837 -2.6147  1.1932
  752THF     H6 9769   3.741   4.679   2.571  1.4358  0.0796  1.2967
  752THF     H7 9770   3.751   4.601   2.732 -1.9460 -3.8305  1.0085
  752THF     C8 9771   3.747   4.476   2.540 -0.0445 -0.1010  0.0574
  752THF     C9 9772   3.607   4.418   2.500 -0.6758  0.1563  0.3374
  752THF    H10 9773   3.821   4.414   2.591 -0.2442  0.6487  1.3108
  752THF    H11 9774   3.784   4.508   2.443 -1.2686 -1.2355 -0.8349
  752THF    H12 9775   3.603   4.396   2.394  1.9572  0.9983  0.0083
  752THF    H13 9776   3.585   4.327   2.556 -0.1950 -0.8236 -1.0164
  753THF     O1 9777   0.643   4.513   4.487  0.0888 -0.8259  0.1805
  753THF     C2 9778   0.784   4.493   4.477 -1.0997  0.9349  0.4047
  753THF     C3 9779   0.579   4.397   4.443 -0.2879 -0.4566  0.2295
  753THF     H4 9780   0.819   4.418   4.548 -2.1336  1.1928  1.2202
  753THF     H5 9781   0.843   4.585   4.478  2.0772 -0.9413 -1.0434
  753THF     H6 9782   0.595   4.318   4.516 -0.2277 -0.3696  0.3095
  753THF     H7 9783   0.473   4.419   4.427  0.0731  1.1813 -0.1102
  753THF     C8 9784   0.651   4.360   4.314 -0.0462 -0.2817  0.6444
  753THF     C9 9785   0.781   4.429   4.337 -0.0009 -0.2807  0.2212
  753THF    H10 9786   0.604   4.398   4.224 -1.2944  0.7954  1.7097
  753THF    H11 9787   0.670   4.253   4.311  2.8779  0.1627  0.9574
  753THF    H12 9788   0.867   4.368   4.308  0.3675  0.4357 -0.2033
  753THF    H13 9789   0.785   4.510   4.264 -0.9304 -2.0188 -1.8771
  754THF     O1 9790   1.850   0.303   2.631  0.0882 -0.1989 -0.0592
  754THF     C2 9791   1.940   0.405   2.681  0.0800 -0.3707 -0.6542
  754THF     C3 9792   1.848   0.199   2.729 -0.3599 -0.1709 -0.6114
  754THF     H4 9793   1.887   0.498   2.699  2.4164  1.2182 -1.5904
  754THF     H5 9794   2.017   0.431   2.610  0.6716 -0.2030  0.0366
  754THF     H6 9795   1.784   0.222   2.814  0.5061 -0.5122  0.1487
  754THF     H7 9796   1.828   0.100   2.688 -0.9749 -0.8448  1.2465
  754THF     C8 9797   1.989   0.196   2.780 -0.1296  0.1029  0.6079
  754THF     C9 9798   1.997   0.347   2.808  0.5275  0.3459 -0.0883
  754THF    H10 9799   2.067   0.172   2.708 -1.0817  2.4781 -1.3499
  754THF    H11 9800   2.007   0.149   2.877  0.3011  1.9978  1.4836
  754THF    H12 9801   1.950   0.374   2.903  0.4261 -0.7893  0.2037
  754THF    H13 9802   2.099   0.379   2.826  0.8099 -0.4425 -0.2557
  755THF     O1 9803   3.805   0.308   1.079 -0.4976  0.5766 -0.3220
  755THF     C2 9804   3.700   0.241   1.036  0.1989 -0.3921  0.4458
  755THF     C3 9805   3.889   0.337   0.968 -0.4333 -1.0648  0.4409
  755THF     H4 9806   3.616   0.266   1.101 -0.4155  0.3286 -0.5902
  755THF     H5 9807   3.723   0.135   1.033 -1.2489 -0.7382  1.0776
  755THF     H6 9808   3.906   0.441   0.943 -1.1592 -0.7571  1.1843
  755THF     H7 9809   3.988   0.292   0.969  1.1251  2.1011  0.8098
  755THF     C8 9810   3.817   0.295   0.843  0.0450  0.0475  0.2576
  755THF     C9 9811   3.674   0.290   0.899 -0.2388  0.0693  0.6908
  755THF    H10 9812   3.854   0.196   0.817 -2.1051 -0.5254 -0.8646
  755THF    H11 9813   3.831   0.368   0.764  1.0944 -0.8461 -0.4033
  755THF    H12 9814   3.640   0.392   0.914 -1.6613 -0.3466  0.4579
  755THF    H13 9815   3.605   0.221   0.851 -0.0415 -0.2337  0.8387
  756THF     O1 9816   1.199   5.310   1.893 -0.0695  0.1390  0.1307
  756THF     C2 9817   1.056   5.297   1.910  0.1941  0.2151 -0.3387
  756THF     C3 9818   1.254   5.302   2.027  0.4280  0.3579 -0.6911
  756THF     H4 9819   1.006   5.249   1.826  0.3379 -1.4244  0.4765
  756THF     H5 9820   1.021   5.400   1.912 -0.5782 -0.0377 -0.7045
  756THF     H6 9821   1.353   5.258   2.018 -0.3748 -2.5581  2.6725
  756THF     H7 9822   1.244   5.402   2.070 -0.1315  0.1923 -0.4303
  756THF     C8 9823   1.169   5.192   2.084 -0.3281  0.4514 -0.0370
  756THF     C9 9824   1.025   5.221   2.038 -0.1738 -0.0068 -0.4460
  756THF    H10 9825   1.176   5.182   2.192  1.4866 -0.7972 -0.2181
  756THF    H11 9826   1.189   5.093   2.043  0.2791  0.4902  0.1605
  756THF    H12 9827   0.968   5.131   2.017  1.7570 -0.7523 -3.0928
  756THF    H13 9828   0.971   5.279   2.113 -0.0252 -1.7232  1.0527
  757THF     O1 9829   2.634   0.116   5.197  0.0807 -0.2150  0.0838
  757THF     C2 9830   2.597   0.226   5.279 -0.0953 -0.4748  0.2489
  757THF     C3 9831   2.772   0.138   5.173 -0.6237 -0.2492  0.1570
  757THF     H4 9832   2.498   0.216   5.324  0.7439  1.7896  2.9564
  757THF     H5 9833   2.596   0.322   5.227 -3.6384 -0.3856  0.2261
  757THF     H6 9834   2.812   0.044   5.136  1.1090  0.3536  0.4204
  757THF     H7 9835   2.795   0.203   5.089 -0.2291 -0.0405  0.4223
  757THF     C8 9836   2.837   0.194   5.293  0.0136  0.0326  0.4570
  757THF     C9 9837   2.710   0.234   5.376 -0.1273 -0.3293 -0.0577
  757THF    H10 9838   2.896   0.278   5.256 -0.3345  0.0422 -0.0861
  757THF    H11 9839   2.898   0.125   5.350  2.8461  3.2835  1.7223
  757THF    H12 9840   2.698   0.162   5.457  0.8463 -0.2623  0.1609
  757THF    H13 9841   2.714   0.333   5.421  0.5069 -0.6644  0.6442
  758THF     O1 9842   2.402   2.111   0.039  0.3264 -0.0547  0.4932
  758THF     C2 9843   2.501   2.042  -0.043 -0.0805 -0.1177  0.3127
  758THF     C3 9844   2.427   2.250   0.036  0.3221 -0.3422  0.2617
  758THF     H4 9845   2.466   2.042  -0.147 -0.8952  0.3729  0.5770
  758THF     H5 9846   2.522   1.940  -0.011  0.8175  0.1137  0.4973
  758THF     H6 9847   2.356   2.312  -0.020 -0.7994 -0.6068  1.3320
  758THF     H7 9848   2.425   2.298   0.134  2.1139 -0.4514  0.3729
  758THF     C8 9849   2.570   2.269  -0.018  0.1446 -0.0853  0.6412
  758THF     C9 9850   2.626   2.127  -0.040  0.5555  0.4784  0.5473
  758THF    H10 9851   2.632   2.338   0.040 -1.8290  0.7245  1.9111
  758THF    H11 9852   2.553   2.301  -0.120  1.1861 -4.3983 -1.1080
  758THF    H12 9853   2.680   2.117  -0.135  0.6403 -2.2057  0.7913
  758THF    H13 9854   2.693   2.091   0.038 -0.3535 -0.5391  0.8888
  759THF     O1 9855   0.944   4.300   2.695 -0.0640 -0.0474  0.1320
  759THF     C2 9856   0.997   4.427   2.713  0.1525 -0.6568 -0.2008
  759THF     C3 9857   0.909   4.294   2.558 -0.3361  0.3171 -0.4246
  759THF     H4 9858   1.051   4.449   2.805 -1.1894  1.0446  0.2308
  759THF     H5 9859   0.916   4.500   2.724 -0.6423 -1.5719  0.1010
  759THF     H6 9860   0.874   4.194   2.530 -1.2502  0.9110 -1.4961
  759THF     H7 9861   0.832   4.368   2.534 -0.4192  0.6306  0.7633
  759THF     C8 9862   1.042   4.328   2.501  0.6878  0.0461  0.1525
  759THF     C9 9863   1.075   4.446   2.593  0.1276  0.0043 -0.0478
  759THF    H10 9864   1.026   4.361   2.398 -1.5700 -1.8867 -0.2072
  759THF    H11 9865   1.119   4.252   2.506 -0.1616 -0.8094  0.7300
  759THF    H12 9866   1.181   4.444   2.616 -0.1155  2.2063  1.5245
  759THF    H13 9867   1.059   4.545   2.552  1.1582  0.3940  0.4756
  760THF     O1 9868   0.213   2.689   4.360 -0.2973 -0.2794  0.2556
  760THF     C2 9869   0.245   2.774   4.250 -0.3140  0.2709  1.2519
  760THF     C3 9870   0.154   2.571   4.308 -0.4011  0.6923  0.7502
  760THF     H4 9871   0.323   2.843   4.282  0.1667  1.5926 -2.3012
  760THF     H5 9872   0.159   2.831   4.213 -1.3879 -1.8257  0.3501
  760THF     H6 9873   0.209   2.488   4.353 -0.8045 -0.3281 -0.5566
  760THF     H7 9874   0.047   2.577   4.329 -0.8933 -0.4612 -1.1554
  760THF     C8 9875   0.183   2.563   4.157 -0.7051 -0.5740  0.3212
  760THF     C9 9876   0.287   2.672   4.141 -0.2391 -0.0335 -0.5338
  760THF    H10 9877   0.089   2.596   4.114  0.3263  1.5240 -0.4328
  760THF    H11 9878   0.215   2.466   4.118  2.4521  0.9300 -1.1176
  760THF    H12 9879   0.385   2.629   4.163  0.3817  1.2554 -0.6642
  760THF    H13 9880   0.288   2.721   4.044  1.3537  0.3901 -0.3466
  761THF     O1 9881   2.236   4.164   3.089 -0.1853  0.4802 -0.5409
  761THF     C2 9882   2.161   4.113   2.983  0.0004  0.2727 -0.5570
  761THF     C3 9883   2.229   4.309   3.085  0.3660  0.1343  0.1042
  761THF     H4 9884   2.138   4.007   2.987 -1.3894  0.5517 -0.7357
  761THF     H5 9885   2.214   4.131   2.890  1.1475  2.4109  0.4174
  761THF     H6 9886   2.258   4.360   3.177  2.6091  1.2268 -1.1343
  761THF     H7 9887   2.295   4.348   3.008 -2.0179  1.1593 -1.5529
  761THF     C8 9888   2.091   4.341   3.030 -0.5921 -0.1528 -0.4341
  761THF     C9 9889   2.037   4.205   3.000 -0.4189 -0.2200 -0.2343
  761THF    H10 9890   2.094   4.405   2.942 -3.5224  2.7782  1.3575
  761THF    H11 9891   2.029   4.393   3.103  0.2481  0.4437 -0.1263
  761THF    H12 9892   1.977   4.166   3.082 -1.4069  0.4288 -0.6315
  761THF    H13 9893   1.981   4.221   2.908  1.4162  2.1430 -1.0225
  762THF     O1 9894   1.518   0.593   1.999 -0.1803 -0.6612  0.0395
  762THF     C2 9895   1.488   0.496   2.095 -0.1108 -0.5716 -0.0465
  762THF     C3 9896   1.623   0.689   2.036  0.2630  0.2289 -0.1894
  762THF     H4 9897   1.545   0.404   2.094 -1.5688 -1.5233  0.7535
  762THF     H5 9898   1.382   0.472   2.103 -0.3674  0.2201 -0.9133
  762THF     H6 9899   1.722   0.643   2.028  0.2835 -0.3785  2.5404
  762THF     H7 9900   1.616   0.781   1.978 -0.4699  1.7455  2.1536
  762THF     C8 9901   1.581   0.707   2.176 -0.0068  0.6189 -0.7502
  762THF     C9 9902   1.525   0.567   2.223  0.1169  0.0947 -0.5200
  762THF    H10 9903   1.501   0.779   2.164 -0.4247  0.1504 -0.8105
  762THF    H11 9904   1.651   0.746   2.250  1.4367  0.1399 -1.8135
  762THF    H12 9905   1.601   0.504   2.270 -0.2795  0.3578  0.5138
  762THF    H13 9906   1.442   0.585   2.292  0.8625  1.0942  0.1531
  763THF     O1 9907   1.168   1.373   0.889 -0.2356  0.1236  0.3564
  763THF     C2 9908   1.262   1.270   0.877  0.7228 -0.1960  0.0590
  763THF     C3 9909   1.053   1.328   0.816 -0.3189 -0.5318 -0.4717
  763THF     H4 9910   1.239   1.193   0.950  0.7970 -1.0820 -0.8359
  763THF     H5 9911   1.362   1.311   0.894  0.9402  0.4000 -2.2563
  763THF     H6 9912   0.990   1.266   0.880  1.3364 -0.2438  1.5121
  763THF     H7 9913   1.009   1.417   0.772  2.9095  0.2872 -2.3532
  763THF     C8 9914   1.090   1.235   0.703 -0.3594  0.1063 -0.2305
  763THF     C9 9915   1.236   1.209   0.739 -0.3001 -0.1171  0.4715
  763THF    H10 9916   1.083   1.278   0.604 -1.5830  0.7834  0.1320
  763THF    H11 9917   1.048   1.134   0.701 -0.0061 -0.0351 -0.8825
  763THF    H12 9918   1.265   1.104   0.742 -0.8819 -0.3863 -1.6084
  763THF    H13 9919   1.296   1.268   0.671 -1.2272  0.6720  0.3200
  764THF     O1 9920   4.116   5.091   1.238 -0.1435  0.0894  0.3002
  764THF     C2 9921   4.256   5.106   1.244 -0.3306  0.5669  0.2466
  764THF     C3 9922   4.077   5.016   1.348  0.0782  1.0947  0.1402
  764THF     H4 9923   4.278   5.184   1.317  0.0315  0.5840  0.1193
  764THF     H5 9924   4.293   5.132   1.145  0.1590 -0.1186  0.2451
  764THF     H6 9925   4.046   5.085   1.426 -1.4703  1.8252 -1.0786
  764THF     H7 9926   3.992   4.950   1.329 -0.3860  1.3138  1.4005
  764THF     C8 9927   4.200   4.926   1.377  0.0016  0.0709  0.0513
  764THF     C9 9928   4.313   4.977   1.287 -0.3871 -0.2287 -0.3427
  764THF    H10 9929   4.179   4.821   1.357 -0.9524 -0.0112  1.3555
  764THF    H11 9930   4.224   4.932   1.483  0.8652  0.7239 -0.1687
  764THF    H12 9931   4.404   4.999   1.342  0.6189  3.1277 -3.0091
  764THF    H13 9932   4.329   4.900   1.211 -0.2454 -0.5554  0.0137
  765THF     O1 9933   4.110   2.736   1.504 -0.2507  0.2223 -0.7725
  765THF     C2 9934   4.187   2.753   1.385  0.1481  0.0447 -0.0536
  765THF     C3 9935   4.153   2.837   1.595 -0.1925  0.0083  0.4013
  765THF     H4 9936   4.134   2.753   1.290  0.7608 -0.3805 -0.4072
  765THF     H5 9937   4.251   2.665   1.384 -0.4558 -0.4142 -1.9493
  765THF     H6 9938   4.076   2.914   1.590  0.1295  0.4654  1.9162
  765THF     H7 9939   4.157   2.793   1.695 -2.4381 -1.5367 -0.0963
  765THF     C8 9940   4.290   2.888   1.549  0.3922  0.1041  0.6903
  765THF     C9 9941   4.278   2.877   1.397 -0.4553 -0.5119 -0.0962
  765THF    H10 9942   4.368   2.823   1.589 -1.4461 -2.5084  0.2869
  765THF    H11 9943   4.313   2.991   1.576 -0.3231  0.4628 -0.0010
  765THF    H12 9944   4.221   2.961   1.359  0.3910  0.7898  1.4078
  765THF    H13 9945   4.376   2.879   1.351 -1.0279  1.6526 -1.3241
  766THF     O1 9946   2.955   4.366   4.712  0.2830 -0.4632 -0.8184
  766THF     C2 9947   2.931   4.388   4.578 -1.3788 -0.1180  0.4132
  766THF     C3 9948   2.927   4.232   4.731 -0.1498 -0.7614 -0.9059
  766THF     H4 9949   2.981   4.472   4.530 -1.5945 -0.6250 -0.7227
  766THF     H5 9950   2.826   4.391   4.548 -1.4296 -1.3818  0.4091
  766THF     H6 9951   2.963   4.211   4.832 -0.0579  1.4112 -0.4296
  766THF     H7 9952   2.820   4.211   4.735 -0.5738  1.3814  0.4479
  766THF     C8 9953   2.991   4.159   4.615 -0.8461  0.0319 -0.2276
  766THF     C9 9954   2.988   4.265   4.509  0.2833 -0.2400 -0.2233
  766THF    H10 9955   2.938   4.071   4.579  2.0599 -1.9469 -0.0160
  766THF    H11 9956   3.096   4.145   4.641 -0.8897  1.3497  0.7650
  766THF    H12 9957   3.090   4.288   4.476  1.2335 -0.5583  2.2562
  766THF    H13 9958   2.931   4.236   4.420  0.1234 -0.3337 -0.0892
  767THF     O1 9959   4.595   2.097   0.878 -0.3567 -0.1348 -0.4905
  767THF     C2 9960   4.551   2.210   0.804 -0.3832  0.0761  0.0796
  767THF     C3 9961   4.733   2.079   0.866  0.0921 -0.7939  0.1735
  767THF     H4 9962   4.459   2.256   0.838 -0.9897  0.5980 -2.1298
  767THF     H5 9963   4.530   2.183   0.700  1.2583  3.8375 -1.4026
  767THF     H6 9964   4.776   2.049   0.961  1.6242 -0.7704 -0.4844
  767THF     H7 9965   4.745   2.000   0.792 -1.8361 -0.6735 -0.3217
  767THF     C8 9966   4.791   2.219   0.833  0.1690 -0.1672 -0.2000
  767THF     C9 9967   4.665   2.309   0.824 -0.1889  0.4923  0.5460
  767THF    H10 9968   4.834   2.224   0.733 -1.6478  0.8405 -0.9899
  767THF    H11 9969   4.855   2.256   0.912 -0.8587 -2.0247  1.6036
  767THF    H12 9970   4.652   2.360   0.920 -1.9827  0.7852  0.1774
  767THF    H13 9971   4.668   2.377   0.738 -0.3159 -0.4149 -0.1881
  768THF     O1 9972   3.093   3.262   4.890  0.5010 -0.0042 -0.8185
  768THF     C2 9973   3.050   3.295   5.019 -0.1291 -0.2781  0.0133
  768THF     C3 9974   3.036   3.363   4.805 -0.5073 -0.7103  0.3071
  768THF     H4 9975   3.107   3.381   5.054 -0.0866 -0.4277  0.3168
  768THF     H5 9976   3.063   3.217   5.094  2.6685  0.5165  0.4574
  768THF     H6 9977   3.108   3.442   4.826  0.6019 -1.8645  1.0341
  768THF     H7 9978   3.041   3.347   4.698 -0.4604 -0.1704  0.2248
  768THF     C8 9979   2.897   3.400   4.860 -0.4867  0.2815 -0.5625
  768THF     C9 9980   2.908   3.340   5.002 -0.2779  0.4217  0.1771
  768THF    H10 9981   2.819   3.344   4.808 -0.9159 -0.2061  0.5493
  768THF    H11 9982   2.882   3.507   4.869  0.1859  0.2450  1.7914
  768THF    H12 9983   2.884   3.402   5.089  0.4074  0.1119  0.5950
  768THF    H13 9984   2.845   3.250   5.005  0.2193  0.0990  1.8714
  769THF     O1 9985   5.198   4.222   4.177 -0.3960  0.3274  0.3820
  769THF     C2 9986   5.302   4.229   4.076  0.5499  0.4198  0.5580
  769THF     C3 9987   5.228   4.297   4.289  0.1403 -0.1520  0.2421
  769THF     H4 9988   5.292   4.322   4.020  1.2230  0.7145  0.9186
  769THF     H5 9989   5.305   4.139   4.015  0.5782  0.5363  0.3875
  769THF     H6 9990   5.178   4.394   4.283 -1.2220 -0.8953 -1.2758
  769THF     H7 9991   5.187   4.243   4.375 -2.5092  0.8628 -0.2662
  769THF     C8 9992   5.382   4.302   4.286 -0.7034 -0.4719 -0.5267
  769THF     C9 9993   5.430   4.230   4.162  0.4038  0.0848  0.2422
  769THF    H10 9994   5.418   4.259   4.379  1.6479  0.5740 -0.8787
  769THF    H11 9995   5.405   4.409   4.291 -0.4942 -0.5285 -0.2703
  769THF    H12 9996   5.510   4.291   4.120  0.3220 -0.0193 -0.0719
  769THF    H13 9997   5.470   4.132   4.185  0.4587 -0.1478 -0.8023
  770THF     O1 9998   1.203   0.106   0.709 -0.0831 -0.0410  0.9268
  770THF     C2 9999   1.288   0.215   0.752  0.4752 -0.1957 -0.2057
  770THF     C310000   1.086   0.163   0.661  0.2395 -0.2440  0.0266
  770THF     H410001   1.385   0.188   0.711  0.4834 -1.2561  0.4807
  770THF     H510002   1.282   0.222   0.861 -0.6980  0.6738 -0.3089
  770THF     H610003   1.039   0.095   0.590 -1.6987 -3.2449  3.7610
  770THF     H710004   1.016   0.178   0.743  0.7466  0.7101  0.3029
  770THF     C810005   1.132   0.303   0.604  0.1119 -0.3247 -0.0559
  770THF     C910006   1.241   0.346   0.703  0.3048 -0.2852 -0.1653
  770THF    H1010007   1.053   0.375   0.587 -0.2777  0.3363  3.6034
  770THF    H1110008   1.182   0.275   0.511 -1.8594  0.3878 -1.3818
  770THF    H1210009   1.325   0.395   0.655 -0.6693 -1.3366 -3.2219
  770THF    H1310010   1.216   0.413   0.784  1.2105  0.4098 -0.4487
  771THF     O110011   2.218   2.697   1.327 -0.1113 -0.2804  0.2114
  771THF     C210012   2.249   2.705   1.187  0.4332  0.2429  0.2637
  771THF     C310013   2.171   2.822   1.375  0.3509 -0.4636  0.5930
  771THF     H410014   2.253   2.606   1.142 -0.7088 -0.1698  1.0185
  771THF     H510015   2.347   2.751   1.180  0.5182  0.4316  2.1785
  771THF     H610016   2.094   2.812   1.452  0.0009  1.2582  0.5027
  771THF     H710017   2.256   2.869   1.424  0.9745 -1.5415  0.5901
  771THF     C810018   2.123   2.903   1.245  0.5598  0.4150 -0.5355
  771THF     C910019   2.140   2.804   1.131  0.4075  0.5815 -0.4359
  771THF    H1010020   2.181   2.994   1.230  0.6671  0.5492  0.5956
  771THF    H1110021   2.019   2.930   1.259  0.2387 -0.1182 -1.7971
  771THF    H1210022   2.048   2.750   1.109  0.2855  0.3762  0.5392
  771THF    H1310023   2.172   2.849   1.037 -2.5354  0.0045 -1.8217
  772THF     O110024   1.919   1.310   0.086  0.7276  0.1420 -0.2612
  772THF     C210025   1.981   1.310  -0.038 -0.4378  0.0074  0.1024
  772THF     C310026   1.965   1.416   0.164 -0.1217 -0.0516 -0.3085
  772THF     H410027   1.899   1.338  -0.104  0.1270  1.0052 -0.1952
  772THF     H510028   2.025   1.215  -0.066 -1.0479 -0.1248 -0.4129
  772THF     H610029   1.880   1.456   0.220  0.1947 -0.5910  0.5698
  772THF     H710030   2.027   1.394   0.251  0.3973 -0.7236 -0.8447
  772THF     C810031   2.036   1.516   0.070  0.0021 -0.0655 -0.2047
  772THF     C910032   2.090   1.414  -0.032 -0.7126 -0.5159  0.0258
  772THF    H1010033   2.111   1.574   0.124  1.1022 -1.2430 -0.4140
  772THF    H1110034   1.969   1.584   0.019 -0.7949 -0.4288  0.3338
  772THF    H1210035   2.115   1.463  -0.126  0.7274  1.1632  1.2120
  772THF    H1310036   2.179   1.372   0.015  0.6722  2.1557 -0.0158
  773THF     O110037   0.386   3.362   3.393  0.6196 -0.2189  0.3686
  773THF     C210038   0.273   3.282   3.412 -0.4097  0.1673 -0.2724
  773THF     C310039   0.333   3.490   3.341 -0.1024  1.0305  0.2644
  773THF     H410040   0.291   3.193   3.473 -1.5946 -0.5910 -0.9811
  773THF     H510041   0.234   3.249   3.316 -1.7818  1.1327 -0.0756
  773THF     H610042   0.401   3.574   3.352  0.4484  0.7430 -0.8119
  773THF     H710043   0.312   3.476   3.235 -1.3259 -0.6568  0.6912
  773THF     C810044   0.210   3.512   3.425 -0.1800 -0.0872 -0.1886
  773THF     C910045   0.168   3.376   3.470  0.2945  0.5549 -0.1112
  773THF    H1010046   0.131   3.585   3.405 -1.5698 -0.7003  2.4413
  773THF    H1110047   0.253   3.564   3.511  0.2227  0.5437 -0.7704
  773THF    H1210048   0.171   3.375   3.579  0.2479  1.1858 -0.0968
  773THF    H1310049   0.065   3.364   3.437 -0.0195  2.0800  0.2120
  774THF     O110050   2.873   5.112   1.990 -0.2281  0.2970  0.0897
  774THF     C210051   2.871   4.986   1.924 -0.0099  0.2845  0.6417
  774THF     C310052   2.769   5.183   1.930 -0.1720  0.1605 -0.6131
  774THF     H410053   2.916   4.906   1.984  1.3966  2.1453  2.2302
  774THF     H510054   2.926   4.985   1.830  0.1713 -1.4280  0.7256
  774THF     H610055   2.742   5.275   1.982 -1.0254 -1.0452  1.1577
  774THF     H710056   2.807   5.222   1.835  1.9566  0.6209  0.3750
  774THF     C810057   2.650   5.084   1.924 -0.2330  0.5636  0.0211
  774THF     C910058   2.722   4.956   1.893 -0.4715  0.1924 -0.1338
  774THF    H1010059   2.584   5.117   1.845  1.0998  0.7020 -1.0763
  774THF    H1110060   2.588   5.065   2.011  0.5630  1.8385  0.9131
  774THF    H1210061   2.690   4.877   1.960 -0.0160  1.3139  1.4580
  774THF    H1310062   2.707   4.939   1.786  1.1300  1.7754 -0.6679
  775THF     O110063   1.288   1.158   2.656 -0.0797 -0.0360 -0.3750
  775THF     C210064   1.268   1.263   2.560  0.3720  0.4805  0.1084
  775THF     C310065   1.407   1.184   2.727  1.0741 -0.1769 -0.0412
  775THF     H410066   1.168   1.305   2.555 -0.3679 -1.2329 -0.0351
  775THF     H510067   1.298   1.227   2.461  3.0379  0.0095  1.0009
  775THF     H610068   1.403   1.127   2.820 -1.7457  1.1965  0.8197
  775THF     H710069   1.493   1.146   2.672  1.2524  0.0885  0.0504
  775THF     C810070   1.408   1.333   2.743 -0.1442  0.5276 -0.2629
  775THF     C910071   1.363   1.377   2.606  0.2662  0.0380 -0.3675
  775THF    H1010072   1.504   1.380   2.765  1.4738 -1.7430 -2.0225
  775THF    H1110073   1.331   1.365   2.813 -1.0503 -3.9498  1.0837
  775THF    H1210074   1.332   1.482   2.602 -1.0885 -0.3382 -0.1635
  775THF    H1310075   1.452   1.362   2.545  1.7214  0.9951  1.3700
  776THF     O110076   4.176   4.517   3.783  0.0748 -0.2315 -0.3193
  776THF     C210077   4.240   4.412   3.704  0.2901  0.3185 -0.1167
  776THF     C310078   4.067   4.558   3.706  0.1003  0.5324 -0.2316
  776THF     H410079   4.214   4.314   3.744 -3.5519  2.0100  2.0494
  776THF     H510080   4.348   4.424   3.712  0.4342 -0.8652 -0.1367
  776THF     H610081   3.976   4.545   3.765 -1.4284  2.1174 -2.1153
  776THF     H710082   4.079   4.665   3.690  1.6157  0.4253  0.0322
  776THF     C810083   4.061   4.471   3.577  0.0136  1.5107  0.0992
  776THF     C910084   4.201   4.413   3.563 -0.0853 -0.4872 -0.2099
  776THF    H1010085   4.026   4.523   3.488  2.2372 -0.7932 -2.2955
  776THF    H1110086   3.991   4.389   3.594 -0.3718  1.2616 -2.3893
  776THF    H1210087   4.206   4.313   3.520  1.6845 -0.5619  0.0962
  776THF    H1310088   4.267   4.477   3.504  0.0372 -0.0059  0.4401
  777THF     O110089   0.555   1.835   1.372  0.3018 -0.3640  1.0391
  777THF     C210090   0.560   1.711   1.321 -0.8478  0.2688  0.1496
  777THF     C310091   0.438   1.850   1.453  0.0373 -0.2046 -0.2066
  777THF     H410092   0.660   1.673   1.303 -1.9110 -1.4783 -2.8305
  777THF     H510093   0.524   1.704   1.218 -1.5518 -1.2080  0.4711
  777THF     H610094   0.446   1.926   1.531 -0.3211  1.6985 -1.9383
  777THF     H710095   0.352   1.869   1.389  1.0740 -0.5306 -1.7687
  777THF     C810096   0.429   1.711   1.513  0.2151  1.2390 -0.2705
  777THF     C910097   0.480   1.621   1.415 -0.6665  0.7810  0.4990
  777THF    H1010098   0.328   1.689   1.548  0.7567  0.8346  1.0985
  777THF    H1110099   0.488   1.711   1.605 -0.4152  0.1693  0.1525
  777THF    H1210100   0.531   1.536   1.460 -1.4794  0.1115  0.1774
  777THF    H1310101   0.397   1.578   1.359  1.8679  0.3638 -3.2438
  778THF     O110102   1.677   0.249   4.969  0.2459 -0.8998  0.6420
  778THF     C210103   1.626   0.179   4.851  0.0943 -0.4096 -0.2784
  778THF     C310104   1.809   0.308   4.952 -0.6993  0.0265  0.1864
  778THF     H410105   1.539   0.238   4.821 -0.8645  0.2686  3.3363
  778THF     H510106   1.587   0.081   4.876  0.5271 -0.6206 -0.4170
  778THF     H610107   1.819   0.410   4.990 -0.1359 -0.2576  0.8278
  778THF     H710108   1.886   0.252   5.005  0.4227 -0.8450 -2.2185
  778THF     C810109   1.834   0.304   4.800 -0.2847  0.5957 -0.1048
  778THF     C910110   1.751   0.185   4.762  0.1104  0.3560  0.1540
  778THF    H1010111   1.939   0.286   4.777  0.2568  1.3680  1.6593
  778THF    H1110112   1.789   0.391   4.753 -0.6137  1.6246  2.0079
  778THF    H1210113   1.721   0.183   4.657 -0.7576 -1.3966  0.3889
  778THF    H1310114   1.803   0.089   4.774  0.0624  0.5222  1.9217
  779THF     O110115   2.241   3.178   3.092 -0.7183 -0.5439 -0.0127
  779THF     C210116   2.210   3.305   3.147  0.0578 -0.4839  0.4453
  779THF     C310117   2.125   3.105   3.078 -0.0798  0.3949 -1.1169
  779THF     H410118   2.260   3.380   3.084 -0.3724 -1.7053 -1.4361
  779THF     H510119   2.247   3.314   3.249  0.7441 -2.0228  0.3644
  779THF     H610120   2.083   3.108   2.978 -2.6164 -1.4809 -0.2018
  779THF     H710121   2.141   3.001   3.107  0.2161  0.2799 -1.6737
  779THF     C810122   2.030   3.171   3.169  0.2707  0.2813  0.2380
  779THF     C910123   2.059   3.315   3.139  0.9200  0.3684 -0.7087
  779THF    H1010124   2.051   3.135   3.269  1.7196  0.1962 -0.0845
  779THF    H1110125   1.927   3.156   3.136  1.0793  0.9514 -2.8897
  779THF    H1210126   2.027   3.327   3.036  0.2203 -1.0631 -0.6871
  779THF    H1310127   2.002   3.375   3.209 -0.8793  1.1482 -2.7260
  780THF     O110128   3.848   2.600   1.659 -0.0085 -0.5197 -0.1007
  780THF     C210129   3.874   2.606   1.799  0.0160 -0.6737  0.0322
  780THF     C310130   3.790   2.725   1.621  0.2089 -0.0577 -0.5732
  780THF     H410131   3.979   2.631   1.814 -0.4681  0.8071  1.1648
  780THF     H510132   3.863   2.507   1.845  0.8932  0.3407  2.6157
  780THF     H610133   3.875   2.792   1.614  0.1739 -0.1973 -3.1507
  780THF     H710134   3.740   2.731   1.525 -2.2520  0.1145  0.6312
  780THF     C810135   3.697   2.745   1.741  0.2117  0.5395 -0.7124
  780THF     C910136   3.780   2.709   1.855 -0.0605  0.2017  0.3955
  780THF    H1010137   3.620   2.669   1.731 -1.0614  1.8019 -0.8765
  780THF    H1110138   3.646   2.842   1.736  0.3520  0.5639 -2.7935
  780THF    H1210139   3.822   2.802   1.894 -0.0953 -0.5042  2.2368
  780THF    H1310140   3.720   2.672   1.937 -1.5056 -0.0096 -0.7238
  781THF     O110141   0.466   2.582   0.804  0.0538  0.0181  0.4371
  781THF     C210142   0.425   2.580   0.935  0.6148  0.4940 -0.8580
  781THF     C310143   0.366   2.557   0.708 -0.4899 -0.0948  0.4224
  781THF     H410144   0.411   2.683   0.966 -1.5525 -0.3795  1.3960
  781THF     H510145   0.497   2.533   1.001 -0.8050  1.1109  1.2039
  781THF     H610146   0.325   2.653   0.674  1.6438  0.5706 -0.4317
  781THF     H710147   0.397   2.506   0.616 -1.1641  0.3229 -0.0526
  781THF     C810148   0.260   2.474   0.782  0.2302 -0.0834 -0.7881
  781THF     C910149   0.296   2.497   0.932 -1.1172  0.0151 -0.1254
  781THF    H1010150   0.264   2.367   0.759 -1.2951 -0.5683  0.9484
  781THF    H1110151   0.161   2.505   0.751 -1.1326 -1.0799  2.1686
  781THF    H1210152   0.218   2.550   0.987 -0.8164  0.9012 -0.5403
  781THF    H1310153   0.311   2.399   0.977 -0.2914  0.4080  0.4708
  782THF     O110154   0.224   1.921   5.116  0.5383  0.2567 -0.1448
  782THF     C210155   0.361   1.928   5.087 -1.1972 -0.2075  0.6051
  782THF     C310156   0.161   2.047   5.127  0.0896 -0.7141 -0.3615
  782THF     H410157   0.401   1.854   5.017  0.9800 -0.6921  2.2808
  782THF     H510158   0.416   1.913   5.180 -0.9165  0.3997  0.5464
  782THF     H610159   0.089   2.060   5.047 -0.0123 -0.4650 -0.2279
  782THF     H710160   0.114   2.078   5.220 -0.7564  0.2347 -1.0922
  782THF     C810161   0.273   2.151   5.108 -0.5022  0.2573 -0.1296
  782THF     C910162   0.388   2.073   5.045  0.0102  0.4820 -0.0803
  782THF    H1010163   0.317   2.180   5.203 -0.2669  1.4938 -0.5952
  782THF    H1110164   0.259   2.248   5.059  0.0493  1.5365  2.1079
  782THF    H1210165   0.375   2.076   4.936  0.2311  0.8381 -0.1005
  782THF    H1310166   0.487   2.112   5.069 -0.3093  1.0995  0.2766
  783THF     O110167   2.534   3.774   3.939 -0.2369  0.0966  0.2663
  783THF     C210168   2.435   3.743   3.842 -0.3929 -1.0922 -0.7794
  783THF     C310169   2.473   3.790   4.061 -0.1129  0.6260  0.5910
  783THF     H410170   2.469   3.670   3.768  0.9270 -1.1064 -0.1866
  783THF     H510171   2.401   3.836   3.797  0.7528 -0.9670 -1.4270
  783THF     H610172   2.510   3.710   4.125 -1.6516 -0.9822 -0.4399
  783THF     H710173   2.487   3.891   4.101  1.5627  0.5605  0.2582
  783THF     C810174   2.325   3.750   4.048  0.1646 -0.4616  0.0551
  783THF     C910175   2.318   3.676   3.918 -0.2165 -0.9912  0.6044
  783THF    H1010176   2.272   3.846   4.047  3.3642  1.6495  3.5742
  783THF    H1110177   2.290   3.694   4.135  3.3549 -0.5556  1.4405
  783THF    H1210178   2.346   3.571   3.914  1.0464 -0.6372 -0.3794
  783THF    H1310179   2.218   3.693   3.878  0.0807  1.3230  0.6757
  784THF     O110180   4.977   3.271   1.311 -0.1392 -0.4876  0.0198
  784THF     C210181   5.103   3.264   1.249  0.2307 -1.2450  0.1698
  784THF     C310182   4.931   3.137   1.315 -0.3958 -0.0885  0.0417
  784THF     H410183   5.161   3.354   1.269  0.7740 -1.5044 -0.1958
  784THF     H510184   5.083   3.278   1.143  3.6779 -0.6076 -0.5158
  784THF     H610185   4.858   3.135   1.396 -1.8993  0.0525 -1.2635
  784THF     H710186   4.898   3.085   1.226 -0.1668 -0.9393  0.4468
  784THF     C810187   5.051   3.063   1.358  0.2779 -0.1666 -1.0509
  784THF     C910188   5.160   3.128   1.287  0.0525 -0.5894 -0.7760
  784THF    H1010189   5.046   2.958   1.328 -0.2565 -0.2415 -0.7120
  784THF    H1110190   5.074   3.077   1.464 -0.6693  0.6805 -0.9451
  784THF    H1210191   5.241   3.136   1.359 -1.0839  0.0267  0.4667
  784THF    H1310192   5.198   3.077   1.198  0.4864 -0.2119 -0.8166
  785THF     O110193   1.265   1.685   3.042  0.2415  0.2405  0.2358
  785THF     C210194   1.321   1.681   3.169 -0.0841  0.2588 -0.3950
  785THF     C310195   1.361   1.706   2.940  0.5129 -0.3712  0.4079
  785THF     H410196   1.367   1.583   3.178  0.4840  0.3307 -2.1017
  785THF     H510197   1.245   1.705   3.244  0.6743  1.0614  0.1271
  785THF     H610198   1.405   1.607   2.927  0.6310 -0.3280  0.4725
  785THF     H710199   1.319   1.743   2.846 -0.9926  0.3357  1.3206
  785THF     C810200   1.461   1.794   3.010 -0.1746 -0.6766 -0.4738
  785THF     C910201   1.426   1.793   3.157  0.4857  0.5155  0.1181
  785THF    H1010202   1.448   1.895   2.969 -1.0485  0.4305  2.3328
  785THF    H1110203   1.561   1.754   2.996 -0.6160 -1.3204 -2.0872
  785THF    H1210204   1.504   1.773   3.231  0.3332  0.9096  0.3935
  785THF    H1310205   1.378   1.886   3.190  0.7619 -0.1911  2.7869
  786THF     O110206   0.598   3.560   1.943 -0.0533 -0.0150 -0.5307
  786THF     C210207   0.679   3.623   2.039 -0.1348  0.4719  0.0731
  786THF     C310208   0.464   3.595   1.967 -0.0959 -0.0846  0.0610
  786THF     H410209   0.778   3.646   1.999 -0.4182  1.0434 -0.3085
  786THF     H510210   0.693   3.568   2.132  0.9749  2.1739  0.9512
  786THF     H610211   0.399   3.576   1.882 -0.7572 -1.3265  0.8154
  786THF     H710212   0.441   3.556   2.066 -0.9254  0.8435  0.2503
  786THF     C810213   0.476   3.741   1.989 -0.1417  0.6203  0.1405
  786THF     C910214   0.607   3.754   2.062 -0.1569 -0.8426  1.0199
  786THF    H1010215   0.389   3.773   2.046 -0.1796  0.8489 -0.0391
  786THF    H1110216   0.479   3.794   1.893 -3.8375  2.7807  1.0280
  786THF    H1210217   0.652   3.840   2.013  0.7059 -2.3085 -0.9092
  786THF    H1310218   0.592   3.761   2.170 -1.8929 -0.9182  0.8121
  787THF     O110219   4.599   2.825   3.569  0.8771  0.1162  0.1174
  787THF     C210220   4.733   2.854   3.567 -0.4222  0.3489 -0.0449
  787THF     C310221   4.539   2.896   3.461 -0.0408  0.8298 -0.2408
  787THF     H410222   4.793   2.790   3.632  1.2567  0.9128 -0.9787
  787THF     H510223   4.743   2.955   3.607 -0.3403  0.4204 -0.2438
  787THF     H610224   4.440   2.855   3.445  1.0160 -1.2230 -2.1113
  787THF     H710225   4.527   2.997   3.499 -0.6370  0.7231 -0.1381
  787THF     C810226   4.646   2.888   3.354  0.2652  0.1365  0.9198
  787THF     C910227   4.769   2.835   3.429 -0.1059  0.4867  0.5012
  787THF    H1010228   4.654   2.985   3.307  2.1379 -1.1933 -1.7744
  787THF    H1110229   4.622   2.810   3.281  0.6840 -0.6744  1.6179
  787THF    H1210230   4.798   2.731   3.412 -1.3796  0.3502 -1.1095
  787THF    H1310231   4.855   2.892   3.395 -2.4388  2.3118 -2.9838
  788THF     O110232   4.653   2.018   5.123  0.0667 -0.3645 -0.1759
  788THF     C210233   4.558   2.124   5.110 -0.3717  0.3452 -0.2892
  788THF     C310234   4.606   1.901   5.061 -0.6152 -0.0663  0.0639
  788THF     H410235   4.569   2.175   5.015  0.9652  2.4473  0.9055
  788THF     H510236   4.568   2.209   5.177  0.2522  0.2371 -0.2357
  788THF     H610237   4.610   1.935   4.957  0.9747  2.0648  0.7567
  788THF     H710238   4.668   1.812   5.074  0.2959  0.6381  0.6046
  788THF     C810239   4.458   1.889   5.106  0.3276 -0.4718  0.1107
  788THF     C910240   4.425   2.037   5.099  0.0973  0.2074 -0.8476
  788THF    H1010241   4.450   1.852   5.208  0.2145 -0.3883  0.1318
  788THF    H1110242   4.392   1.830   5.042 -0.2985  1.4969 -1.1600
  788THF    H1210243   4.374   2.060   5.005 -2.0790  2.2645  0.6934
  788THF    H1310244   4.357   2.060   5.182  2.3201  2.4530  0.5072
  789THF     O110245   0.371   4.162   2.726 -0.0080 -0.5103  0.4638
  789THF     C210246   0.376   4.268   2.824  0.0830 -0.0422  0.0243
  789THF     C310247   0.504   4.104   2.723  1.0090 -0.3158  0.6472
  789THF     H410248   0.348   4.233   2.923 -1.0391 -0.8950 -0.5718
  789THF     H510249   0.309   4.347   2.790  1.1055  1.5563  1.5605
  789THF     H610250   0.529   4.047   2.812  2.1961  0.6783  0.9858
  789THF     H710251   0.514   4.045   2.632 -1.0980 -0.5312  0.5071
  789THF     C810252   0.588   4.226   2.715 -0.4029 -0.2380  0.0754
  789THF     C910253   0.520   4.323   2.810 -0.8623 -0.1307 -0.3000
  789THF    H1010254   0.580   4.268   2.614  0.5894 -0.9264 -0.3058
  789THF    H1110255   0.696   4.215   2.727 -0.3018  0.0659 -0.5218
  789THF    H1210256   0.570   4.332   2.906 -1.1804  0.8950 -0.2300
  789THF    H1310257   0.528   4.414   2.750 -2.4680 -0.1455 -0.5819
  790THF     O110258   2.372   4.205   0.798 -0.0847 -0.3198 -0.0152
  790THF     C210259   2.478   4.222   0.709 -0.3833 -0.6815 -1.0778
  790THF     C310260   2.256   4.220   0.723 -0.1320 -0.6022 -0.2137
  790THF     H410261   2.491   4.137   0.641  1.2340 -0.9057 -0.5494
  790THF     H510262   2.564   4.222   0.777 -0.2024  0.8109 -1.2772
  790THF     H610263   2.223   4.126   0.679 -1.7645 -0.4258  0.5376
  790THF     H710264   2.179   4.243   0.797 -0.1178 -1.0812 -0.0447
  790THF     C810265   2.289   4.329   0.620  0.3125 -0.2718  0.1271
  790THF     C910266   2.443   4.346   0.640 -0.2020  0.0272  0.4492
  790THF    H1010267   2.239   4.422   0.647  2.0104  0.4642  0.8661
  790THF    H1110268   2.250   4.296   0.523 -0.8399  2.8433 -0.5883
  790THF    H1210269   2.505   4.358   0.551  0.3454 -0.5740  0.7422
  790THF    H1310270   2.447   4.434   0.703  0.3829 -0.2702  0.8371
  791THF     O110271   1.160   5.203   5.012  0.2153  0.2979 -0.0840
  791THF     C210272   1.120   5.167   5.145 -0.4845  0.3055  0.1991
  791THF     C310273   1.294   5.153   4.994  0.2464  0.1912  0.8870
  791THF     H410274   1.012   5.166   5.161 -0.4640  1.4294  0.4894
  791THF     H510275   1.160   5.248   5.207 -0.7671  0.8560 -0.3277
  791THF     H610276   1.293   5.091   4.905  0.5433  0.9514  0.3495
  791THF     H710277   1.358   5.236   4.965 -0.8314 -0.0033 -2.4607
  791THF     C810278   1.332   5.069   5.114  0.1410  0.4603  0.2665
  791THF     C910279   1.191   5.035   5.170 -0.5856  0.0338  0.0762
  791THF    H1010280   1.385   5.122   5.193 -0.5742  0.3593  0.8258
  791THF    H1110281   1.392   4.983   5.084 -1.1922  0.4765 -2.8431
  791THF    H1210282   1.137   4.960   5.111 -0.0937 -0.3145  0.0654
  791THF    H1310283   1.188   5.003   5.274 -0.0139 -1.9946 -0.4716
  792THF     O110284   1.605   1.258   4.103  0.1561  0.4564  0.0500
  792THF     C210285   1.649   1.253   4.240 -0.1615 -0.4793  0.6397
  792THF     C310286   1.611   1.395   4.064  0.0812  0.1499  0.2393
  792THF     H410287   1.758   1.255   4.249 -0.2394  0.6201  1.5349
  792THF     H510288   1.620   1.161   4.291  0.6590 -1.0813  0.0560
  792THF     H610289   1.713   1.433   4.050 -0.7663  3.2561  1.5496
  792THF     H710290   1.548   1.414   3.977 -0.1983  2.0635  0.8182
  792THF     C810291   1.559   1.474   4.188 -0.1078 -0.1620 -0.0700
  792THF     C910292   1.567   1.366   4.292  0.0011  0.0679 -0.3470
  792THF    H1010293   1.459   1.513   4.172 -0.3906 -0.1266  1.6677
  792THF    H1110294   1.626   1.557   4.212 -2.0755  1.4839  0.0330
  792THF    H1210295   1.601   1.400   4.389 -2.5977  1.5744  0.1412
  792THF    H1310296   1.466   1.330   4.310 -1.2974  2.0931 -2.9061
  793THF     O110297   5.017   1.362   4.624  0.1118  0.6557  0.0099
  793THF     C210298   5.147   1.400   4.672  0.2229  0.2031 -0.7657
  793THF     C310299   4.990   1.437   4.503  0.0618  0.2762 -0.1036
  793THF     H410300   5.229   1.334   4.642  0.8984  0.3648  0.6543
  793THF     H510301   5.140   1.398   4.781 -0.3894 -2.9366 -0.7871
  793THF     H610302   4.951   1.365   4.430  0.3965  1.0487 -1.0619
  793THF     H710303   4.913   1.512   4.523  1.1636  1.0597  1.3741
  793THF     C810304   5.120   1.498   4.469 -0.1501 -0.5034  0.4115
  793THF     C910305   5.179   1.531   4.602  0.4723  0.7179  0.9800
  793THF    H1010306   5.092   1.577   4.399 -3.7512 -0.1573  2.0276
  793THF    H1110307   5.176   1.425   4.411 -1.6079 -0.7794 -0.7030
  793THF    H1210308   5.287   1.548   4.600  0.7060 -0.6776  0.5575
  793THF    H1310309   5.140   1.623   4.644  0.0195 -0.2091  2.6691
  794THF     O110310   1.285   3.207   3.261 -0.4369  0.0825  0.1983
  794THF     C210311   1.202   3.262   3.160  0.4569  0.2992  1.0738
  794THF     C310312   1.328   3.312   3.348  0.4176 -0.0979  0.2446
  794THF     H410313   1.138   3.188   3.112  1.6015  0.0827 -0.1704
  794THF     H510314   1.263   3.307   3.082 -0.5612 -0.1242  0.0005
  794THF     H610315   1.320   3.282   3.452  1.4708 -0.5608  0.2065
  794THF     H710316   1.430   3.340   3.321  0.6318 -1.8579 -0.9524
  794THF     C810317   1.236   3.428   3.317 -0.4010 -0.1442 -0.0181
  794THF     C910318   1.122   3.369   3.237 -0.1997 -0.8712 -0.1079
  794THF    H1010319   1.294   3.501   3.260 -0.6144 -0.4648 -0.6486
  794THF    H1110320   1.189   3.475   3.403  1.6401 -0.5809  1.4278
  794THF    H1210321   1.042   3.336   3.302 -1.8855  0.1933 -1.5534
  794THF    H1310322   1.087   3.450   3.173  0.9305  0.1309  0.4831
  795THF     O110323   5.445   3.648   3.929  0.0655  0.0600  0.4861
  795THF     C210324   5.514   3.762   3.957  0.1606 -0.4095  0.0722
  795THF     C310325   5.461   3.624   3.791 -0.5039  0.0428 -0.0428
  795THF     H410326   5.552   3.771   4.059  0.5382 -1.0470 -0.0078
  795THF     H510327   5.462   3.851   3.922  4.2711  1.6922 -1.2644
  795THF     H610328   5.442   3.519   3.768 -0.4788 -0.6890  2.8288
  795THF     H710329   5.392   3.681   3.729 -0.6346  0.8999  0.8641
  795THF     C810330   5.602   3.660   3.769 -0.4403  0.4170  0.3953
  795THF     C910331   5.642   3.750   3.885 -0.6044 -0.7949  0.2207
  795THF    H1010332   5.623   3.691   3.667  1.1794 -0.4524  0.4220
  795THF    H1110333   5.662   3.570   3.786  0.4391  1.2202  1.8307
  795THF    H1210334   5.713   3.710   3.957 -0.2244  0.6044  0.6585
  795THF    H1310335   5.681   3.847   3.855  1.2805 -1.6841 -0.3787
  796THF     O110336   0.860   3.612   3.477  0.1459  0.0566 -0.2925
  796THF     C210337   0.950   3.697   3.538 -0.4363 -0.3847  0.5052
  796THF     C310338   0.828   3.505   3.565 -0.5865  0.4530 -0.5265
  796THF     H410339   0.944   3.793   3.486 -0.3360 -0.2360  0.7644
  796THF     H510340   1.052   3.660   3.541  0.2301  0.8124 -3.1717
  796THF     H610341   0.728   3.471   3.541 -0.8693  0.5151  0.5243
  796THF     H710342   0.904   3.426   3.564 -1.0147 -0.0075  0.8929
  796THF     C810343   0.828   3.568   3.704  0.5271 -0.1583 -0.2974
  796THF     C910344   0.902   3.699   3.684  0.0951  0.1020 -0.6199
  796THF    H1010345   0.884   3.513   3.779  0.8749 -2.1924 -1.9696
  796THF    H1110346   0.729   3.595   3.741  0.8747  2.9837 -1.3053
  796THF    H1210347   0.837   3.786   3.697  1.0792  0.8530 -0.5797
  796THF    H1310348   0.985   3.702   3.754 -1.9299  0.8884  1.8794
  797THF     O110349   5.093   3.164   4.915  0.3203 -0.4836 -0.0715
  797THF     C210350   5.115   3.192   4.780 -0.6638  0.6647 -0.8913
  797THF     C310351   5.050   3.291   4.960  0.3829  0.4431  0.2791
  797THF     H410352   5.030   3.224   4.720 -0.0121  2.3311 -0.9588
  797THF     H510353   5.156   3.103   4.730 -1.6212 -0.3508  0.0740
  797THF     H610354   4.945   3.305   4.936  0.0423  0.1002  1.4945
  797THF     H710355   5.062   3.295   5.069  1.1031  1.4799  0.1793
  797THF     C810356   5.146   3.379   4.893  0.3403  0.0149  0.1956
  797THF     C910357   5.215   3.302   4.788 -0.3056 -0.5686 -0.3796
  797THF    H1010358   5.221   3.424   4.958  0.1807  0.0871  0.3327
  797THF    H1110359   5.096   3.464   4.847  0.0510 -0.9743 -1.4193
  797THF    H1210360   5.212   3.351   4.691 -0.8428  0.3166  0.0697
  797THF    H1310361   5.310   3.264   4.826 -0.2830 -0.3141 -0.1812
  798THF     O110362   2.054   2.212   4.557  0.0836  0.1173 -0.6321
  798THF     C210363   2.076   2.105   4.641  0.2954  0.1722 -0.1464
  798THF     C310364   2.043   2.166   4.425  0.2287  0.0273 -0.6750
  798THF     H410365   1.983   2.083   4.693  0.8459 -1.7556  0.1038
  798THF     H510366   2.157   2.128   4.711  0.5056 -0.6020 -0.1260
  798THF     H610367   1.946   2.127   4.396  0.4931 -0.6663 -0.6514
  798THF     H710368   2.052   2.254   4.362 -0.9085  1.0947  0.6010
  798THF     C810369   2.139   2.061   4.414  0.4516 -0.2250  0.2794
  798THF     C910370   2.117   1.991   4.555 -0.0996 -0.5748  0.2328
  798THF    H1010371   2.238   2.102   4.393  0.6308 -0.5640  0.4485
  798THF    H1110372   2.118   1.999   4.326  0.7378 -1.1121  0.8281
  798THF    H1210373   2.038   1.917   4.554 -0.9926  0.3527  0.3192
  798THF    H1310374   2.209   1.936   4.576  0.6385 -0.4990 -2.4628
  799THF     O110375   0.582   4.082   0.217  0.3437 -0.5606 -0.4819
  799THF     C210376   0.460   4.005   0.222 -0.7411 -0.4720  0.0559
  799THF     C310377   0.568   4.200   0.145 -0.6659 -0.9636  1.2762
  799THF     H410378   0.403   4.019   0.314  0.8001  0.9660  0.8497
  799THF     H510379   0.468   3.899   0.199 -4.2956 -1.1845  1.4114
  799THF     H610380   0.592   4.280   0.215  1.7930 -0.2504 -0.2698
  799THF     H710381   0.635   4.209   0.059  0.1994 -0.9566  1.9403
  799THF     C810382   0.418   4.206   0.095 -0.1722  0.0116 -0.0311
  799THF     C910383   0.372   4.060   0.111  0.2451  0.4451  0.3045
  799THF    H1010384   0.407   4.250  -0.004  0.1410  1.4034  0.5240
  799THF    H1110385   0.365   4.269   0.166  0.4715  1.1094 -0.4900
  799THF    H1210386   0.267   4.039   0.130  0.1776  1.2597  0.8960
  799THF    H1310387   0.390   3.997   0.024 -3.3497 -0.5266  0.1303
  800THF     O110388   5.332   3.364   0.329 -0.2083  0.3266  0.1383
  800THF     C210389   5.353   3.237   0.269  0.3961 -0.1203  0.0461
  800THF     C310390   5.443   3.446   0.304 -0.2482 -0.3642  0.7161
  800THF     H410391   5.260   3.181   0.263  0.3371 -0.2073  1.3767
  800THF     H510392   5.416   3.174   0.331  1.1872  0.8441  0.2441
  800THF     H610393   5.408   3.549   0.299  0.2573 -0.2395 -0.6259
  800THF     H710394   5.515   3.434   0.385 -0.6249 -0.0536  1.0977
  800THF     C810395   5.519   3.391   0.184  0.1315  0.1220  0.4349
  800THF     C910396   5.436   3.261   0.148  0.0957 -0.2805  0.5258
  800THF    H1010397   5.617   3.359   0.221  0.0652 -0.4852  0.1084
  800THF    H1110398   5.524   3.471   0.109 -0.1348  0.4486  0.7643
  800THF    H1210399   5.364   3.278   0.068 -1.0699 -1.5982  1.2583
  800THF    H1310400   5.501   3.176   0.127  0.4249  0.3254 -1.0907
  801THF     O110401   1.275   4.429   1.971 -0.5855  0.0938 -0.2535
  801THF     C210402   1.242   4.297   1.942  0.1997 -0.2218  0.3847
  801THF     C310403   1.331   4.421   2.102  0.0961  0.0911 -0.4833
  801THF     H410404   1.327   4.229   1.938 -1.4289 -2.5045  1.8868
  801THF     H510405   1.177   4.288   1.855  1.4797 -0.2682 -0.5974
  801THF     H610406   1.431   4.385   2.075  0.4948  2.2112 -2.0738
  801THF     H710407   1.346   4.516   2.152  2.1155 -1.5599  2.3675
  801THF     C810408   1.238   4.336   2.173  0.1494  0.7534 -0.1691
  801THF     C910409   1.161   4.261   2.068 -0.5008  0.2354  0.0687
  801THF    H1010410   1.168   4.410   2.211 -0.2801 -0.0833  0.6879
  801THF    H1110411   1.277   4.279   2.257 -1.7962  1.4329  1.2670
  801THF    H1210412   1.168   4.154   2.087 -3.7350 -0.0656  0.0064
  801THF    H1310413   1.056   4.285   2.053 -1.3526 -2.4155  1.1215
  802THF     O110414   1.631   0.335   3.856  0.3533  0.6780  0.0222
  802THF     C210415   1.507   0.407   3.880  0.0101 -0.2963  0.1593
  802THF     C310416   1.668   0.283   3.983 -0.2734 -0.4165  0.3825
  802THF     H410417   1.420   0.341   3.882 -0.0458 -0.2365 -0.2073
  802THF     H510418   1.476   0.485   3.811  0.1908 -0.1321  0.2612
  802THF     H610419   1.629   0.182   3.993 -1.1879 -0.2628 -1.1591
  802THF     H710420   1.777   0.274   3.987 -0.3570 -1.2993  0.9268
  802THF     C810421   1.625   0.376   4.087  0.7553  0.3830  0.1049
  802THF     C910422   1.537   0.474   4.014 -0.4841  0.0532  0.7138
  802THF    H1010423   1.713   0.432   4.121  1.3692 -0.5639  0.1128
  802THF    H1110424   1.560   0.323   4.155  1.2692 -0.1469  0.1944
  802THF    H1210425   1.454   0.497   4.081 -0.6659  0.4312  0.3614
  802THF    H1310426   1.591   0.567   4.000 -1.0948  0.3137  0.0251
  803THF     O110427   1.808   4.624   0.558  0.2140  0.3196 -0.6487
  803THF     C210428   1.892   4.534   0.486 -0.2752  0.1287 -0.8228
  803THF     C310429   1.735   4.705   0.470 -0.2880  1.0982 -0.7247
  803THF     H410430   1.841   4.450   0.439 -1.9524 -0.9382  2.5862
  803THF     H510431   1.966   4.491   0.554 -0.0885 -1.6478 -2.0559
  803THF     H610432   1.656   4.655   0.414  0.8515 -1.5540 -0.1097
  803THF     H710433   1.691   4.786   0.528 -1.9470 -1.2851  1.5765
  803THF     C810434   1.858   4.743   0.388 -0.1323  0.0456 -0.6089
  803THF     C910435   1.957   4.621   0.380  0.2560  0.1218 -0.1487
  803THF    H1010436   1.911   4.826   0.435 -0.8914 -0.0006  0.3663
  803THF    H1110437   1.838   4.789   0.291 -0.2820 -0.5438 -0.8654
  803THF    H1210438   1.956   4.572   0.283  0.2805  2.3277 -1.3349
  803THF    H1310439   2.060   4.643   0.412  0.3686  2.3052 -1.7738
  804THF     O110440   3.762   4.168   0.170  0.3377  0.1397  0.1939
  804THF     C210441   3.630   4.186   0.200 -0.4075  0.2133 -0.3716
  804THF     C310442   3.783   4.034   0.117  0.4045  0.0568  0.0001
  804THF     H410443   3.570   4.236   0.124  0.7082  1.8502 -0.2370
  804THF     H510444   3.618   4.250   0.287 -0.5390  1.6001 -1.3739
  804THF     H610445   3.823   4.038   0.016  2.0756 -1.8309  0.5255
  804THF     H710446   3.868   3.982   0.161 -0.4634 -1.0563  0.4060
  804THF     C810447   3.654   3.957   0.130  0.6262 -0.4156 -0.2153
  804THF     C910448   3.584   4.038   0.235  0.0162 -0.3005 -0.0368
  804THF    H1010449   3.673   3.854   0.161  2.3479  0.3464  1.5174
  804THF    H1110450   3.595   3.958   0.038  0.4860  1.0058 -0.1355
  804THF    H1210451   3.476   4.034   0.241 -0.1641  2.4781  0.1081
  804THF    H1310452   3.617   4.000   0.332 -0.1637 -1.9623 -0.5922
  805THF     O110453   1.867   0.245   4.380  0.7578 -0.0095  0.0132
  805THF     C210454   1.911   0.382   4.405 -0.2482 -0.5401  0.1429
  805THF     C310455   1.983   0.169   4.348 -0.4870 -1.1198  0.1081
  805THF     H410456   1.882   0.401   4.508  0.3652 -2.1831  0.6529
  805THF     H510457   1.850   0.452   4.348  3.3679  2.7831 -0.0829
  805THF     H610458   1.985   0.064   4.376  1.2873 -0.9284  0.8361
  805THF     H710459   2.003   0.187   4.242  1.6074  1.1561  0.8008
  805THF     C810460   2.097   0.249   4.413  0.8593 -0.3237 -0.2241
  805THF     C910461   2.062   0.398   4.394 -0.0308  0.0712  0.4538
  805THF    H1010462   2.191   0.231   4.361  0.0071  0.0217 -1.9732
  805THF    H1110463   2.099   0.227   4.519  0.1012  1.8786  0.3151
  805THF    H1210464   2.100   0.470   4.467  0.8379 -0.9618  1.0451
  805THF    H1310465   2.096   0.436   4.297  0.9626 -1.0135  0.3649
  806THF     O110466   3.185   4.297   5.091  0.0431  0.1226  0.0513
  806THF     C210467   3.294   4.240   5.022 -0.2005 -0.0320  0.2430
  806THF     C310468   3.185   4.238   5.228 -0.0563 -0.6726  0.2821
  806THF     H410469   3.337   4.273   4.928  0.5994  0.8111  0.8855
  806THF     H510470   3.284   4.131   5.013 -1.6505 -0.2153  3.0606
  806THF     H610471   3.139   4.302   5.303 -2.3178  0.9559 -2.2723
  806THF     H710472   3.133   4.142   5.232 -0.4095 -0.5068 -0.2360
  806THF     C810473   3.339   4.233   5.249 -0.0168 -0.6467  0.3335
  806THF     C910474   3.404   4.272   5.117  0.2758 -0.8700  0.2392
  806THF    H1010475   3.360   4.131   5.281 -2.2681 -0.4460  2.8290
  806THF    H1110476   3.381   4.280   5.338 -0.4449 -0.8539  0.6514
  806THF    H1210477   3.424   4.378   5.100 -0.0119 -0.6762  1.0801
  806THF    H1310478   3.498   4.222   5.095  0.0919 -0.9070 -0.4872
  807THF     O110479   4.176   2.867   0.630  0.2784  0.2969  0.5969
  807THF     C210480   4.063   2.782   0.636  0.0586 -0.3111 -0.3423
  807THF     C310481   4.142   2.979   0.712 -0.2015 -0.5276  0.1652
  807THF     H410482   4.098   2.679   0.627 -0.6214 -0.5339 -0.4817
  807THF     H510483   3.997   2.803   0.552 -1.5843  0.4005  1.0689
  807THF     H610484   4.233   3.037   0.724  0.4468 -1.8550  2.0262
  807THF     H710485   4.069   3.047   0.667 -0.1574 -1.0027 -0.6367
  807THF     C810486   4.074   2.924   0.836 -0.1041  0.4958  0.3191
  807THF     C910487   3.995   2.812   0.770 -0.4726 -0.8228  0.1465
  807THF    H1010488   4.009   2.987   0.897 -0.5394  0.5392 -0.1824
  807THF    H1110489   4.141   2.876   0.907 -0.8432  1.5627  1.7936
  807THF    H1210490   3.988   2.722   0.830 -0.6501 -0.0751  1.2688
  807THF    H1310491   3.894   2.849   0.755  0.0728  0.6068 -0.1706
  808THF     O110492   1.625   4.687   1.688 -0.2518  0.0415 -0.7600
  808THF     C210493   1.717   4.793   1.702  0.1346 -0.1890  0.6939
  808THF     C310494   1.654   4.617   1.570  0.3803  0.1607  0.2619
  808THF     H410495   1.774   4.756   1.787  1.0189 -1.1366 -0.2790
  808THF     H510496   1.672   4.884   1.741  0.7045  2.3235 -3.8561
  808THF     H610497   1.644   4.510   1.589 -1.0606  0.0618 -0.8440
  808THF     H710498   1.572   4.658   1.510  0.9447 -0.0650 -0.6825
  808THF     C810499   1.798   4.657   1.526  0.0734 -0.2291 -0.3053
  808THF     C910500   1.812   4.799   1.581 -0.4394 -0.2910  0.0204
  808THF    H1010501   1.811   4.646   1.418 -3.0616  0.0089 -0.7816
  808THF    H1110502   1.881   4.598   1.564  0.0256  0.7016  1.3463
  808THF    H1210503   1.911   4.822   1.621 -0.5122  1.8882 -0.9144
  808THF    H1310504   1.789   4.878   1.509  0.0941 -1.0610 -1.0232
  809THF     O110505   1.247   2.961   1.181 -0.4222  0.1515 -0.0352
  809THF     C210506   1.194   3.002   1.054 -0.1823  0.3611  0.0066
  809THF     C310507   1.378   3.016   1.193  0.1062  0.1583 -0.1353
  809THF     H410508   1.147   3.100   1.069  0.3321  0.6336 -0.1554
  809THF     H510509   1.116   2.929   1.031 -0.4328 -0.2195  2.4391
  809THF     H610510   1.382   3.107   1.252  0.7614  0.8414 -1.1923
  809THF     H710511   1.436   2.938   1.244 -0.8929 -0.2790  0.3529
  809THF     C810512   1.426   3.032   1.055 -0.1615  0.1715  0.1020
  809THF     C910513   1.312   2.997   0.961 -0.1463  0.3402 -0.2325
  809THF    H1010514   1.518   2.976   1.038  0.2736  1.0650 -0.5549
  809THF    H1110515   1.453   3.136   1.042 -0.1852  0.1734  0.0659
  809THF    H1210516   1.312   3.066   0.876  1.9358  0.9551  0.2094
  809THF    H1310517   1.324   2.893   0.932  0.0578  0.4889 -0.7053
  810THF     O110518   4.551   0.838   3.621  0.3702  0.2680 -0.4306
  810THF     C210519   4.508   0.751   3.725 -0.6248 -0.5697  0.2241
  810THF     C310520   4.667   0.780   3.574 -0.1707  0.8388 -0.1112
  810THF     H410521   4.462   0.657   3.695 -0.5035  0.3109 -3.1485
  810THF     H510522   4.437   0.806   3.786 -0.3601 -0.0561  0.0759
  810THF     H610523   4.644   0.680   3.539 -1.2718 -0.0043  2.8024
  810THF     H710524   4.732   0.830   3.501  0.1031  0.0066 -0.4436
  810THF     C810525   4.745   0.753   3.705  0.3377  0.1393  0.1201
  810THF     C910526   4.631   0.714   3.797 -1.0572  0.2445 -0.4989
  810THF    H1010527   4.782   0.851   3.735 -2.6176  0.1018  4.7238
  810THF    H1110528   4.816   0.671   3.697 -2.7835 -3.1213  2.9431
  810THF    H1210529   4.635   0.606   3.798  0.6931  0.2732  0.8923
  810THF    H1310530   4.646   0.750   3.899  0.1742 -0.4288 -0.4185
  811THF     O110531   1.845   0.648   3.457  0.1923  0.0254  0.2057
  811THF     C210532   1.705   0.621   3.483  0.3466  0.1124 -0.3355
  811THF     C310533   1.906   0.518   3.462  0.7521 -0.2164  0.1282
  811THF     H410534   1.653   0.603   3.389 -1.5161  0.3775  0.6024
  811THF     H510535   1.659   0.709   3.528  1.7200 -0.3936  2.2560
  811THF     H610536   1.908   0.497   3.355 -0.2804  2.0937 -0.4171
  811THF     H710537   2.004   0.507   3.509  0.5039 -2.9322  0.1256
  811THF     C810538   1.809   0.421   3.532  0.6080  0.7134 -0.5244
  811THF     C910539   1.690   0.502   3.580 -0.2148 -0.1119  0.0914
  811THF    H1010540   1.861   0.383   3.620 -2.3839  2.2530  2.1039
  811THF    H1110541   1.773   0.337   3.473 -1.4326  1.8244 -0.9596
  811THF    H1210542   1.599   0.444   3.566 -0.8218  1.2970 -2.2076
  811THF    H1310543   1.700   0.529   3.685 -1.3060 -0.4627  0.3052
  812THF     O110544   2.370   4.622   2.337  0.1168 -0.5654  0.3328
  812THF     C210545   2.294   4.679   2.443  0.0982 -0.0090 -0.3235
  812THF     C310546   2.496   4.676   2.368  0.2316 -0.0075 -0.0778
  812THF     H410547   2.198   4.629   2.449  0.8270 -1.3255  1.0656
  812THF     H510548   2.275   4.786   2.438 -0.4815 -0.0796  0.2531
  812THF     H610549   2.579   4.630   2.315  1.0490 -0.6993  1.7005
  812THF     H710550   2.496   4.784   2.356 -1.0806  0.1152  0.7737
  812THF     C810551   2.519   4.661   2.516  0.5408  0.3327 -0.7349
  812THF     C910552   2.379   4.658   2.565  0.5715 -0.0738 -0.3062
  812THF    H1010553   2.568   4.754   2.546 -0.4456  0.8036 -0.5679
  812THF    H1110554   2.566   4.568   2.549 -0.9078 -0.2943 -0.3489
  812THF    H1210555   2.366   4.568   2.625 -0.3485 -0.2157 -0.7074
  812THF    H1310556   2.356   4.740   2.634 -2.3041  0.3974 -1.6963
  813THF     O110557   4.884   0.995   4.650 -0.2880  0.3054 -0.3047
  813THF     C210558   4.791   0.897   4.691  0.6261 -0.6418 -0.5206
  813THF     C310559   4.914   1.087   4.751  0.6692  0.0271 -0.3674
  813THF     H410560   4.824   0.803   4.646  1.1080 -0.8620  0.2758
  813THF     H510561   4.698   0.933   4.647  0.3038  1.8661  1.9550
  813THF     H610562   5.013   1.129   4.735  0.7049 -0.3365 -1.1812
  813THF     H710563   4.827   1.153   4.753 -1.5460 -2.6955 -1.2211
  813THF     C810564   4.916   0.991   4.870 -0.3318 -0.1121 -0.1507
  813THF     C910565   4.795   0.900   4.847 -0.2604 -0.4003 -0.2449
  813THF    H1010566   4.912   1.052   4.960  1.3677  0.4064 -0.3944
  813THF    H1110567   4.997   0.918   4.864 -0.0707 -0.0099  1.5487
  813THF    H1210568   4.794   0.801   4.893  2.2423 -0.9967 -1.3224
  813THF    H1310569   4.709   0.952   4.890  0.9346 -0.2591  2.1405
  814THF     O110570   0.249   1.606   1.961 -0.2709  0.0770  0.2473
  814THF     C210571   0.162   1.487   1.990 -0.9896  0.5148 -0.1195
  814THF     C310572   0.353   1.556   1.883 -0.4254 -0.4840 -0.1415
  814THF     H410573   0.109   1.472   1.896 -0.8941  2.8176 -0.6000
  814THF     H510574   0.094   1.505   2.074  2.1702  0.1459  2.7536
  814THF     H610575   0.344   1.567   1.774  0.5309 -0.9404 -0.2738
  814THF     H710576   0.440   1.620   1.897 -0.2976 -0.9842  1.4666
  814THF     C810577   0.382   1.419   1.921 -0.1748  0.4751  0.9745
  814THF     C910578   0.267   1.380   2.016  0.1022  0.0077  0.2945
  814THF    H1010579   0.477   1.398   1.969  0.0796 -1.0123 -0.0720
  814THF    H1110580   0.384   1.360   1.828  1.5560 -0.5802  1.6426
  814THF    H1210581   0.227   1.286   1.979 -0.9972  0.7416 -0.4658
  814THF    H1310582   0.301   1.377   2.119 -1.3518 -0.5995  0.7744
  815THF     O110583   5.205   2.753   3.787  0.7370 -0.0857  0.3962
  815THF     C210584   5.163   2.624   3.734 -0.3849 -0.3948  0.2340
  815THF     C310585   5.268   2.820   3.682 -0.4736  0.1581  0.0386
  815THF     H410586   5.080   2.582   3.791 -3.1891  0.9363 -2.5336
  815THF     H510587   5.257   2.570   3.741  1.0151  1.8172 -0.2465
  815THF     H610588   5.263   2.928   3.696  0.7973  0.5218 -1.8818
  815THF     H710589   5.370   2.783   3.682  0.6548  3.0178  0.0360
  815THF     C810590   5.199   2.785   3.553 -0.3279  0.2965  0.0546
  815THF     C910591   5.120   2.659   3.595 -0.2017  0.1951  0.9452
  815THF    H1010592   5.264   2.772   3.467  0.4498 -0.4025  0.7358
  815THF    H1110593   5.137   2.866   3.516 -0.1915  0.7249  0.7547
  815THF    H1210594   5.012   2.668   3.586 -0.1896  0.7060  1.2982
  815THF    H1310595   5.153   2.578   3.529 -1.0411  1.4993 -1.2051
  816THF     O110596   2.849   4.880   3.178 -0.1183 -0.0487  0.1796
  816THF     C210597   2.728   4.802   3.162  1.1036 -0.0164  0.7324
  816THF     C310598   2.963   4.800   3.187  0.0759  0.1297 -0.1077
  816THF     H410599   2.716   4.766   3.060 -0.0025 -1.5220  1.3590
  816THF     H510600   2.638   4.861   3.182  0.3355 -1.0845  0.5350
  816THF     H610601   3.006   4.784   3.088  1.0217 -0.1176  0.3302
  816THF     H710602   3.037   4.851   3.249  0.0959  0.0593 -0.0725
  816THF     C810603   2.909   4.675   3.258  0.0086 -0.5931  0.2089
  816THF     C910604   2.759   4.680   3.244 -0.5473  0.4641 -0.2634
  816THF    H1010605   2.930   4.690   3.363  1.9545  1.2373 -0.3672
  816THF    H1110606   2.958   4.583   3.226  0.8314 -0.8748  2.1643
  816THF    H1210607   2.730   4.598   3.179 -0.1433  1.3461 -1.6019
  816THF    H1310608   2.707   4.681   3.340  0.9946 -0.3460  0.6210
  817THF     O110609   2.383   4.296   2.480 -0.3630  0.3583  0.8057
  817THF     C210610   2.489   4.210   2.435  0.5031 -0.2759 -0.0079
  817THF     C310611   2.330   4.255   2.600  0.8210 -0.1105  0.5901
  817THF     H410612   2.562   4.255   2.368 -0.1838 -1.1080 -1.3656
  817THF     H510613   2.448   4.125   2.379  0.8765  1.5428 -3.3367
  817THF     H610614   2.277   4.339   2.644  1.3829  0.3770  0.3587
  817THF     H710615   2.258   4.175   2.582 -0.8869  1.7455 -1.3804
  817THF     C810616   2.449   4.216   2.674  0.0235 -0.0021 -0.0566
  817THF     C910617   2.538   4.155   2.561 -0.2413 -0.3840  0.0162
  817THF    H1010618   2.432   4.148   2.756  1.9801 -0.9480 -0.3765
  817THF    H1110619   2.492   4.307   2.717 -0.3840 -1.0295  2.7135
  817THF    H1210620   2.646   4.170   2.571 -0.2146  0.0489 -0.7617
  817THF    H1310621   2.515   4.049   2.563  0.4130 -0.5266  1.7291
  818THF     O110622   1.939   0.570   2.146 -0.3501 -0.6811  0.0402
  818THF     C210623   1.978   0.530   2.277  0.4358 -0.0514 -0.2453
  818THF     C310624   1.984   0.470   2.051  0.3013  0.1524 -0.4873
  818THF     H410625   1.910   0.467   2.333 -1.0495  0.2880 -1.6037
  818THF     H510626   1.995   0.627   2.323 -2.0071  0.7334 -0.8524
  818THF     H610627   1.914   0.387   2.043  1.0713 -0.3409 -3.5667
  818THF     H710628   1.996   0.516   1.953  0.1646  2.4633  0.5132
  818THF     C810629   2.117   0.431   2.115  0.3132 -0.5634  0.6782
  818THF     C910630   2.104   0.446   2.265  0.1589  0.5403  0.4707
  818THF    H1010631   2.195   0.489   2.065  0.0129  0.0453  0.9068
  818THF    H1110632   2.150   0.333   2.079  2.7804  0.5534 -0.3424
  818THF    H1210633   2.082   0.346   2.303 -2.3890  0.3505 -1.2009
  818THF    H1310634   2.200   0.477   2.305  1.7032 -1.1652 -1.6554
  819THF     O110635   1.230   4.858   2.750  0.3606  0.0540  0.2283
  819THF     C210636   1.171   4.730   2.747  0.3446  0.2186 -0.0874
  819THF     C310637   1.366   4.838   2.782 -0.7784  0.1333  0.2710
  819THF     H410638   1.217   4.676   2.665 -0.3741 -2.2126  1.0087
  819THF     H510639   1.062   4.737   2.741  0.2648 -1.2931 -1.0583
  819THF     H610640   1.441   4.820   2.704 -1.2793 -0.0600 -0.1675
  819THF     H710641   1.405   4.922   2.840 -2.4016  0.3972  1.0359
  819THF     C810642   1.368   4.726   2.879 -0.3942  0.4304 -0.8568
  819THF     C910643   1.225   4.675   2.884  0.3964 -0.1465  0.5742
  819THF    H1010644   1.388   4.766   2.979  1.0000 -1.5396 -0.2913
  819THF    H1110645   1.440   4.648   2.857  1.7254  1.8619  0.5930
  819THF    H1210646   1.211   4.568   2.904 -1.7564  0.0416  0.2485
  819THF    H1310647   1.168   4.731   2.958 -2.0165 -0.3845 -0.9947
  820THF     O110648   0.603   3.722   1.296 -0.5083  0.4764  0.4020
  820THF     C210649   0.742   3.731   1.304 -0.1409 -0.8079 -0.0673
  820THF     C310650   0.555   3.672   1.426  0.0548 -0.3892 -0.2756
  820THF     H410651   0.772   3.808   1.374 -0.4188  0.2735 -1.1070
  820THF     H510652   0.795   3.744   1.209  0.1390 -0.6945  0.1024
  820THF     H610653   0.541   3.756   1.494  1.1145  0.1404 -0.6843
  820THF     H710654   0.461   3.620   1.406 -0.2683 -0.6768  1.7963
  820THF     C810655   0.665   3.576   1.466 -0.3139  0.4429  0.0592
  820THF     C910656   0.773   3.597   1.368  0.6671 -0.5642  0.1737
  820THF    H1010657   0.630   3.472   1.464  0.4472  0.1812 -1.5522
  820THF    H1110658   0.703   3.592   1.566 -1.4703  3.2497  0.1282
  820THF    H1210659   0.875   3.599   1.408  0.4814 -1.7933  0.7673
  820THF    H1310660   0.764   3.520   1.292 -2.6350 -0.5197  0.3870
  821THF     O110661   2.422   1.354   1.693  0.2362 -0.3152  0.1098
  821THF     C210662   2.348   1.388   1.808 -0.0618  0.4139 -0.1887
  821THF     C310663   2.418   1.462   1.593 -0.2979  0.5829  0.5949
  821THF     H410664   2.415   1.427   1.884  0.9658  3.3906 -2.4549
  821THF     H510665   2.286   1.307   1.848  0.4094 -0.1867 -0.6646
  821THF     H610666   2.512   1.496   1.550 -0.4871  2.1875  1.3448
  821THF     H710667   2.357   1.426   1.511 -0.7439  0.9942  0.7426
  821THF     C810668   2.349   1.576   1.659  0.7037 -0.2430 -0.6979
  821THF     C910669   2.261   1.496   1.761 -0.3395  0.5505 -0.3443
  821THF    H1010670   2.291   1.642   1.595 -1.2300  0.7264  1.8850
  821THF    H1110671   2.414   1.637   1.722 -0.4483  0.9864 -0.6715
  821THF    H1210672   2.228   1.557   1.845 -1.8847 -0.0646 -0.4679
  821THF    H1310673   2.173   1.445   1.722  0.9029 -4.4265  2.4989
  822THF     O110674   2.288   1.444   2.127 -0.0265  0.3139  0.0947
  822THF     C210675   2.223   1.505   2.242 -0.2499 -0.0144 -0.6754
  822THF     C310676   2.402   1.368   2.171  0.0127 -0.3343  0.3495
  822THF     H410677   2.161   1.423   2.277 -0.1710 -0.0320 -0.5788
  822THF     H510678   2.179   1.605   2.235 -1.6982 -0.4838  1.1048
  822THF     H610679   2.403   1.267   2.131 -1.2901  0.2967 -1.3953
  822THF     H710680   2.483   1.419   2.118  1.2392 -2.8211 -0.3421
  822THF     C810681   2.399   1.379   2.325  0.1658 -0.2698 -0.6134
  822THF     C910682   2.325   1.511   2.349 -0.2905 -0.0891 -0.2515
  822THF    H1010683   2.498   1.384   2.370 -0.3700  0.8640  0.5149
  822THF    H1110684   2.343   1.292   2.360 -0.7760 -0.2334 -1.9335
  822THF    H1210685   2.280   1.522   2.447  0.1221 -1.1375  0.0779
  822THF    H1310686   2.403   1.586   2.338 -0.1968 -0.0720  0.4807
  823THF     O110687   0.850   5.037   3.777 -0.0018 -0.1166  0.3825
  823THF     C210688   0.989   5.073   3.793  0.1982 -0.1348 -0.4206
  823THF     C310689   0.821   4.918   3.848 -0.1094 -0.3286 -0.4177
  823THF     H410690   0.986   5.176   3.829 -0.1112  0.8449 -3.0399
  823THF     H510691   1.036   5.072   3.695  0.8735 -1.0492 -0.1037
  823THF     H610692   0.728   4.918   3.906  0.6072  1.7820  0.8422
  823THF     H710693   0.819   4.833   3.780 -1.3915  0.6497 -1.6856
  823THF     C810694   0.932   4.894   3.945  0.0410 -0.6435 -0.2201
  823THF     C910695   1.048   4.964   3.886 -0.5271  0.1799 -0.2342
  823THF    H1010696   0.957   4.790   3.964  1.3016 -0.2990  0.0744
  823THF    H1110697   0.914   4.944   4.040  3.4073  2.1001 -0.8425
  823THF    H1210698   1.111   5.002   3.967 -1.1133  2.1862 -0.6720
  823THF    H1310699   1.114   4.898   3.829  2.1119  2.0435  0.4273
  824THF     O110700   3.465   4.622   4.628  0.2981 -0.6064  0.0499
  824THF     C210701   3.396   4.527   4.716  0.1809  0.2636 -0.3091
  824THF     C310702   3.496   4.549   4.513 -0.7079 -0.0911  0.3569
  824THF     H410703   3.336   4.570   4.796 -0.2783 -0.1130 -0.4423
  824THF     H510704   3.477   4.463   4.752 -0.1561 -0.1136 -0.2137
  824THF     H610705   3.503   4.616   4.427  2.8456 -0.3370  0.2880
  824THF     H710706   3.592   4.500   4.526 -0.3257  0.9291  1.6170
  824THF     C810707   3.391   4.439   4.493 -0.1115 -0.0525  0.1254
  824THF     C910708   3.317   4.438   4.620  0.2330  0.0562 -0.2818
  824THF    H1010709   3.444   4.346   4.472 -1.6978 -1.0556  0.4852
  824THF    H1110710   3.336   4.452   4.400  1.0867 -1.5030 -0.8333
  824THF    H1210711   3.222   4.481   4.587  1.3294  1.7730 -1.3776
  824THF    H1310712   3.296   4.341   4.666 -0.9205 -0.2901 -1.4519
  825THF     O110713   1.706   4.098   5.439 -0.2794 -0.3131 -1.0847
  825THF     C210714   1.647   4.190   5.526 -0.3780  0.0046 -0.5135
  825THF     C310715   1.803   4.023   5.510 -0.5958 -0.0637  0.2277
  825THF     H410716   1.540   4.177   5.541 -0.5451  0.8410 -0.9351
  825THF     H510717   1.667   4.289   5.485 -1.5651  0.1674 -0.7353
  825THF     H610718   1.812   3.926   5.463 -0.2870  0.2686 -0.4030
  825THF     H710719   1.903   4.065   5.499 -0.8272  0.3152 -0.4447
  825THF     C810720   1.771   4.038   5.659 -0.1084  0.2111  0.5871
  825THF     C910721   1.718   4.174   5.662  0.2564 -0.2768 -0.2895
  825THF    H1010722   1.855   4.026   5.727 -1.6342  0.2383  2.5729
  825THF    H1110723   1.687   3.971   5.681 -1.5761  0.7955 -2.5694
  825THF    H1210724   1.649   4.193   5.745  1.3227  0.6872  0.4116
  825THF    H1310725   1.797   4.250   5.669 -0.7501  0.8869 -1.0746
  826THF     O110726   3.886   0.698   1.687  0.2297  0.2410  0.5799
  826THF     C210727   3.971   0.795   1.730  0.1841 -0.6935 -0.4722
  826THF     C310728   3.932   0.667   1.553 -1.2967 -0.2002  0.4228
  826THF     H410729   4.055   0.746   1.780  1.3944  0.2739 -1.4839
  826THF     H510730   3.916   0.853   1.805  0.4886 -0.1000 -0.7015
  826THF     H610731   3.981   0.569   1.548  2.5707  1.5106 -4.5888
  826THF     H710732   3.858   0.670   1.473  0.3350  2.5833 -1.1361
  826THF     C810733   4.037   0.764   1.509  0.2503 -0.1950  0.0333
  826THF     C910734   4.012   0.877   1.606  0.4578 -0.1120  0.6203
  826THF    H1010735   4.026   0.799   1.407  0.1914  0.8627  0.3891
  826THF    H1110736   4.141   0.729   1.505  1.0685  1.9887  0.6716
  826THF    H1210737   4.100   0.941   1.619  1.4649 -1.3175 -0.1082
  826THF    H1310738   3.927   0.935   1.569 -0.7540 -1.2213  1.6029
  827THF     O110739   5.021   2.646   1.939 -0.1734  0.0743 -0.1965
  827THF     C210740   5.094   2.720   2.042 -0.0506 -0.0657  0.6093
  827THF     C310741   4.923   2.568   2.005 -0.1219  0.4076 -0.3020
  827THF     H410742   5.138   2.802   1.986 -1.5871  0.2777 -0.1416
  827THF     H510743   5.171   2.657   2.085 -0.1474  0.3129  1.3580
  827THF     H610744   4.834   2.550   1.944 -0.2054  0.6237 -0.2434
  827THF     H710745   4.961   2.473   2.042  1.6269  1.4086  0.5707
  827THF     C810746   4.885   2.649   2.122  0.0537  0.2832 -0.1258
  827THF     C910747   4.997   2.754   2.149 -0.3062  0.8878  0.0395
  827THF    H1010748   4.848   2.600   2.213  1.3451 -0.4092  0.0518
  827THF    H1110749   4.796   2.707   2.098  0.7914  1.4235 -0.1810
  827THF    H1210750   4.962   2.858   2.151 -1.9368  0.4125 -1.5871
  827THF    H1310751   5.040   2.746   2.249 -0.4375 -0.8269 -0.0160
  828THF     O110752   3.940   3.951   0.574  0.3059 -0.0967 -0.5071
  828THF     C210753   3.864   3.829   0.591 -0.0589  0.5827 -0.4114
  828THF     C310754   4.059   3.918   0.515 -0.1463  0.0426  0.7206
  828THF     H410755   3.756   3.840   0.602  0.0181  0.3399  0.7159
  828THF     H510756   3.895   3.786   0.686 -1.6235 -0.6399 -0.4140
  828THF     H610757   4.112   4.007   0.482 -1.8969  0.6531 -0.6020
  828THF     H710758   4.125   3.866   0.584 -0.1946 -0.8847  0.0873
  828THF     C810759   4.011   3.828   0.406  0.5055 -0.0997  0.0842
  828THF     C910760   3.901   3.746   0.470 -0.5730  0.2072  0.0031
  828THF    H1010761   4.091   3.766   0.367  0.3135  0.4075 -1.1748
  828THF    H1110762   3.984   3.891   0.321  0.4016  0.6938  0.6932
  828THF    H1210763   3.826   3.726   0.394  0.8710 -0.5218 -1.2798
  828THF    H1310764   3.950   3.654   0.503 -0.5461  0.4669  0.6970
  829THF     O110765   4.495   5.108   2.955 -0.2074 -0.4922  0.2100
  829THF     C210766   4.573   5.224   2.950  0.0334 -0.3371 -0.3918
  829THF     C310767   4.377   5.128   3.033 -0.1885  0.1937  0.0869
  829THF     H410768   4.626   5.232   2.855 -1.6215 -1.2724 -1.4399
  829THF     H510769   4.649   5.224   3.028 -1.0704 -0.8755  0.7241
  829THF     H610770   4.308   5.103   2.953 -1.0664 -0.1894  0.9396
  829THF     H710771   4.371   5.067   3.123  1.0238  2.4098  1.7712
  829THF     C810772   4.376   5.277   3.074 -0.1896  0.5741  0.0673
  829THF     C910773   4.469   5.338   2.980 -0.4225  0.0194  0.2779
  829THF    H1010774   4.410   5.284   3.177 -1.1164  1.1115  0.3474
  829THF    H1110775   4.273   5.314   3.076 -1.0191 -1.5924 -0.0597
  829THF    H1210776   4.422   5.370   2.887  0.7547 -0.9664 -0.6988
  829THF    H1310777   4.520   5.421   3.030 -0.3292 -0.5771  1.2012
  830THF     O110778   2.784   5.053   1.053  0.0447 -0.0928 -0.1523
  830THF     C210779   2.781   4.964   0.937 -0.3979  0.3594  0.1460
  830THF     C310780   2.785   4.967   1.166  0.0141 -0.5124  0.7232
  830THF     H410781   2.821   5.014   0.849 -1.5895  1.2017  0.0702
  830THF     H510782   2.677   4.937   0.924 -0.4136 -0.1932  1.2869
  830THF     H610783   2.865   5.007   1.228 -1.0636 -0.7573  2.3524
  830THF     H710784   2.689   4.974   1.217  0.4653  3.5639  1.3554
  830THF     C810785   2.810   4.821   1.122 -0.5652  0.0843  0.4543
  830THF     C910786   2.859   4.846   0.985 -0.0114 -0.1007  0.8560
  830THF    H1010787   2.715   4.768   1.111 -0.6475  0.1567  0.8230
  830THF    H1110788   2.882   4.762   1.177  0.9887  2.7791  1.5055
  830THF    H1210789   2.966   4.860   0.967  0.0723 -2.7634 -1.2211
  830THF    H1310790   2.836   4.767   0.914  2.8606  0.1203 -0.4580
  831THF     O110791   5.094   3.520   0.733  0.3011  0.1714  0.9545
  831THF     C210792   5.050   3.467   0.856 -0.7075 -0.8985  0.6273
  831THF     C310793   5.144   3.652   0.756  0.1548 -0.8348 -0.5381
  831THF     H410794   5.048   3.359   0.849  1.1119 -0.9433  0.3404
  831THF     H510795   4.958   3.520   0.881  0.0765  1.7696 -1.5839
  831THF     H610796   5.199   3.699   0.675  0.0812  1.5865  0.7219
  831THF     H710797   5.066   3.726   0.775  0.9505  0.9225 -3.5850
  831THF     C810798   5.235   3.629   0.878 -0.3944 -0.6113 -0.6167
  831THF     C910799   5.165   3.514   0.953 -0.2649  0.4966 -0.2136
  831THF    H1010800   5.239   3.727   0.926 -1.7629 -0.9333  0.2176
  831THF    H1110801   5.335   3.592   0.855 -0.0106 -1.3036  1.8198
  831THF    H1210802   5.224   3.423   0.960 -3.3377 -1.5020  1.8825
  831THF    H1310803   5.133   3.532   1.055  0.4899 -1.5256  0.4240
  832THF     O110804   3.817   2.341   3.564  0.0958  0.2803  0.4067
  832THF     C210805   3.726   2.352   3.671  0.2955  0.1963  0.7569
  832THF     C310806   3.896   2.233   3.596 -0.0470  0.5060 -1.0826
  832THF     H410807   3.638   2.406   3.636 -0.9557 -2.4959 -0.5422
  832THF     H510808   3.773   2.409   3.751 -1.6176  1.6462  0.9048
  832THF     H610809   3.921   2.181   3.503  0.7096  0.4566 -0.8635
  832THF     H710810   3.982   2.286   3.637 -0.9698  1.7084 -0.6509
  832THF     C810811   3.820   2.140   3.693  0.9138 -0.1748  1.0805
  832THF     C910812   3.684   2.212   3.705  0.6175  0.1970  0.1981
  832THF    H1010813   3.874   2.135   3.788  1.7561 -1.7709  0.5426
  832THF    H1110814   3.800   2.040   3.657  2.9279 -0.8981  1.8413
  832THF    H1210815   3.603   2.190   3.636 -0.0026  3.1353 -0.1327
  832THF    H1310816   3.642   2.206   3.806  0.3377  1.6804  0.1814
  833THF     O110817   1.839   0.567   0.403  0.4183  0.8282  0.0437
  833THF     C210818   1.942   0.661   0.414  0.2954 -0.1736 -0.6469
  833THF     C310819   1.881   0.442   0.452 -0.3386  0.2046 -0.3048
  833THF     H410820   1.954   0.688   0.519  0.5330  0.6331 -0.8792
  833THF     H510821   1.921   0.745   0.348  1.3099  0.2588 -0.4370
  833THF     H610822   1.888   0.452   0.560  0.3385 -1.5260 -0.1638
  833THF     H710823   1.820   0.357   0.422 -1.1986  1.4533 -2.3369
  833THF     C810824   2.016   0.431   0.372  0.2015 -0.4383 -0.7884
  833THF     C910825   2.064   0.574   0.378 -0.0340  0.1460  0.2187
  833THF    H1010826   1.999   0.402   0.269 -0.4537  2.5949 -1.6287
  833THF    H1110827   2.091   0.369   0.423 -0.0986  0.3874  0.7281
  833THF    H1210828   2.147   0.591   0.446  2.4598 -0.9667 -2.3472
  833THF    H1310829   2.118   0.594   0.286 -1.5495  2.2407 -0.3057
  834THF     O110830   3.416   4.490   3.638 -0.1575  1.0310  0.2785
  834THF     C210831   3.552   4.505   3.688  0.4127  0.1191  0.5661
  834THF     C310832   3.430   4.429   3.511 -0.2064  0.1271  0.1615
  834THF     H410833   3.564   4.497   3.796 -0.2751 -0.3761  0.6184
  834THF     H510834   3.583   4.605   3.658  2.1400 -0.4237  0.4830
  834THF     H610835   3.338   4.379   3.483  0.7941 -1.3940 -0.6069
  834THF     H710836   3.452   4.508   3.439  0.8794 -0.6836 -0.4290
  834THF     C810837   3.549   4.339   3.516 -0.1200  0.3333  0.2565
  834THF     C910838   3.636   4.396   3.623 -0.2115 -0.4916  0.0790
  834THF    H1010839   3.602   4.341   3.421 -3.1839 -0.1709 -1.6144
  834THF    H1110840   3.513   4.237   3.531 -0.8374  0.3407 -1.1998
  834THF    H1210841   3.667   4.319   3.695 -0.7087  0.6049  1.5168
  834THF    H1310842   3.721   4.440   3.571 -0.1261 -1.2509 -0.4482
  835THF     O110843   5.369   1.657   4.862  0.0529  0.7803  0.1036
  835THF     C210844   5.455   1.693   4.756  0.2711  0.4604  0.6573
  835THF     C310845   5.433   1.571   4.956  0.5370  0.1780  0.3440
  835THF     H410846   5.408   1.769   4.695 -0.6490 -0.4778  0.1562
  835THF     H510847   5.458   1.597   4.704  0.5247  0.5102  0.5791
  835THF     H610848   5.374   1.568   5.048 -0.6632  0.3937 -0.3870
  835THF     H710849   5.440   1.465   4.932  0.0811 -0.5211  2.9659
  835THF     C810850   5.563   1.655   4.967  0.1269 -0.8267  0.4030
  835THF     C910851   5.591   1.711   4.830 -0.3267 -0.4080  0.2446
  835THF    H1010852   5.647   1.599   5.009  1.6321  2.5782  2.3652
  835THF    H1110853   5.562   1.729   5.047 -1.5365 -0.9850  0.5527
  835THF    H1210854   5.626   1.813   4.844  0.4096 -0.7645  1.0147
  835THF    H1310855   5.672   1.654   4.785 -0.6693  1.4493 -3.0613
  836THF     O110856   4.577   0.115   1.154  0.1823  0.3439  0.4781
  836THF     C210857   4.704   0.064   1.195  0.5063  0.7883 -0.1669
  836THF     C310858   4.486   0.008   1.156  0.0692 -0.4830 -0.3668
  836THF     H410859   4.780   0.135   1.229  0.2659  0.0634  2.0459
  836THF     H510860   4.744   0.022   1.103 -0.6556  1.8771 -1.2044
  836THF     H610861   4.385   0.050   1.149  0.8316  1.3576 -1.2426
  836THF     H710862   4.494  -0.057   1.069  0.8556 -1.2063  0.2278
  836THF     C810863   4.517  -0.054   1.292  0.0368 -0.3433 -0.8586
  836THF     C910864   4.669  -0.038   1.309 -0.5442 -0.2240 -0.0278
  836THF    H1010865   4.478  -0.154   1.313  1.0983 -0.1813  2.4686
  836THF    H1110866   4.471   0.008   1.368  0.1337 -1.0881 -0.1758
  836THF    H1210867   4.699  -0.008   1.409 -0.4025 -1.1259  0.2136
  836THF    H1310868   4.720  -0.133   1.288 -3.0667 -1.4580 -0.9814
  837THF     O110869   1.469   2.156   3.350 -0.0881  0.3794 -0.0103
  837THF     C210870   1.523   2.225   3.240  0.4963 -0.2239  0.2338
  837THF     C310871   1.331   2.180   3.366 -0.6720  0.2308  0.3167
  837THF     H410872   1.517   2.163   3.151 -2.2671 -0.2920  0.3914
  837THF     H510873   1.627   2.249   3.262  0.1571 -0.6960  2.5849
  837THF     H610874   1.274   2.091   3.338 -0.0716  0.8061 -3.2563
  837THF     H710875   1.308   2.223   3.464  0.6782  1.5593  0.0927
  837THF     C810876   1.294   2.285   3.258 -0.9764 -0.1175  0.1092
  837THF     C910877   1.432   2.345   3.236 -0.7284 -0.1061 -0.5364
  837THF    H1010878   1.227   2.359   3.301  2.3824  3.0178  0.4637
  837THF    H1110879   1.253   2.245   3.165  0.6391 -3.1563  0.5405
  837THF    H1210880   1.447   2.392   3.139 -0.9807 -0.4630 -0.7544
  837THF    H1310881   1.466   2.424   3.302 -0.3917  1.6382 -2.6723
  838THF     O110882   3.537   0.204   1.495  0.2116  0.0119 -0.3043
  838THF     C210883   3.641   0.277   1.430  0.6037 -0.3278  0.1219
  838THF     C310884   3.503   0.276   1.612 -0.3644 -0.4921 -0.3463
  838THF     H410885   3.602   0.370   1.389  0.5126 -1.1975 -1.8426
  838THF     H510886   3.674   0.216   1.347  0.7665 -2.5185  1.7076
  838THF     H610887   3.418   0.340   1.587  0.4212 -0.2469 -2.5982
  838THF     H710888   3.467   0.205   1.687  1.3681 -2.0407 -0.9199
  838THF     C810889   3.631   0.348   1.644  0.1922 -0.3208  0.1332
  838THF     C910890   3.735   0.316   1.545  1.1657 -0.2729 -0.2732
  838THF    H1010891   3.670   0.335   1.744  1.6993  3.9659  0.3180
  838THF    H1110892   3.600   0.451   1.626 -1.5255 -0.9825 -1.0496
  838THF    H1210893   3.797   0.401   1.515 -0.6021  0.9642 -0.6055
  838THF    H1310894   3.803   0.239   1.580  0.2953 -0.5765  0.8241
  839THF     O110895   1.948   5.467   2.305 -0.2300 -0.1273 -0.3185
  839THF     C210896   1.920   5.598   2.353  0.2101  0.1266  0.3915
  839THF     C310897   1.846   5.441   2.210 -0.4696 -0.0426  0.3223
  839THF     H410898   2.007   5.639   2.404  1.8543 -0.6820 -1.6135
  839THF     H510899   1.848   5.593   2.434  0.3488 -0.3733  0.4864
  839THF     H610900   1.888   5.379   2.131 -0.2898  1.4991 -0.8444
  839THF     H710901   1.765   5.382   2.254 -1.0624  2.1636  2.4378
  839THF     C810902   1.787   5.568   2.164 -0.0985  0.0567 -0.7151
  839THF     C910903   1.873   5.671   2.233  0.6983  0.1473  0.6431
  839THF    H1010904   1.683   5.576   2.197 -0.2831 -1.5460 -0.8347
  839THF    H1110905   1.790   5.570   2.055 -3.3464 -1.6786 -0.9788
  839THF    H1210906   1.960   5.695   2.173  1.2920 -3.3413 -0.0878
  839THF    H1310907   1.805   5.753   2.254 -1.1146 -0.8939 -0.8130
  840THF     O110908   1.543   5.311   0.822 -0.2657  0.5549 -0.3719
  840THF     C210909   1.606   5.349   0.948 -0.4587 -0.1047 -0.3103
  840THF     C310910   1.427   5.389   0.798 -0.0590  0.1753 -0.7886
  840THF     H410911   1.658   5.441   0.923  1.4905 -0.8195  0.9020
  840THF     H510912   1.678   5.272   0.976 -0.9568 -0.7898 -0.8576
  840THF     H610913   1.457   5.488   0.763 -1.0616  1.8231  2.5709
  840THF     H710914   1.353   5.349   0.729  0.1067  0.2552 -1.0163
  840THF     C810915   1.365   5.402   0.946 -0.5569 -0.4128 -0.6075
  840THF     C910916   1.488   5.378   1.045 -0.6897  1.1978 -0.0128
  840THF    H1010917   1.280   5.335   0.960 -0.7485  0.2151  1.6130
  840THF    H1110918   1.330   5.504   0.964  2.5544  0.8532 -1.0694
  840THF    H1210919   1.502   5.462   1.113  1.0795 -0.3732  1.6680
  840THF    H1310920   1.469   5.291   1.107  0.9198 -1.4265 -2.9105
  841THF     O110921   4.427   4.924   4.502  0.3280 -0.3654 -0.3781
  841THF     C210922   4.494   4.906   4.377 -0.2176  0.1819  0.0413
  841THF     C310923   4.333   5.023   4.482  0.1875 -0.5470  0.3597
  841THF     H410924   4.546   4.810   4.371  2.4765  1.5020  0.7407
  841THF     H510925   4.574   4.979   4.368  0.9709 -1.1783 -0.9129
  841THF     H610926   4.253   5.016   4.556  1.1085  1.4227  1.6223
  841THF     H710927   4.377   5.119   4.511  1.5186 -0.7152 -1.0166
  841THF     C810928   4.291   5.020   4.340  0.2361  1.0252  0.3127
  841THF     C910929   4.394   4.937   4.267 -0.6869  0.5670  0.3254
  841THF    H1010930   4.290   5.124   4.306  1.5636  1.7666  2.4192
  841THF    H1110931   4.191   4.985   4.312  1.0865 -1.2330 -0.0336
  841THF    H1210932   4.344   4.850   4.224  0.5225  0.6088 -1.2341
  841THF    H1310933   4.434   4.986   4.178  0.2789 -0.2561  0.2972
  842THF     O110934   2.753   3.826   1.693 -0.4837  0.2002  0.2653
  842THF     C210935   2.825   3.818   1.814 -0.5078  0.1150  0.2663
  842THF     C310936   2.615   3.829   1.728 -0.6820 -1.2285 -0.4853
  842THF     H410937   2.815   3.917   1.859  2.4744  0.8612 -0.4978
  842THF     H510938   2.924   3.777   1.798 -0.4406  1.6216 -5.2694
  842THF     H610939   2.583   3.921   1.777 -0.8821 -0.8618 -1.2903
  842THF     H710940   2.551   3.807   1.642  0.4631 -2.5265 -1.0557
  842THF     C810941   2.612   3.710   1.825 -0.6753 -0.0113 -0.4325
  842THF     C910942   2.746   3.718   1.895 -0.0649  0.5464 -0.5250
  842THF    H1010943   2.598   3.624   1.760 -0.0482 -0.3982 -0.0620
  842THF    H1110944   2.531   3.715   1.898 -0.2647  2.9162 -0.0372
  842THF    H1210945   2.742   3.737   2.002  1.8987  0.7628 -0.4465
  842THF    H1310946   2.779   3.618   1.869 -0.2060  0.3027  0.2094
  843THF     O110947   3.275   1.226   4.702  0.2235 -0.1906  0.2356
  843THF     C210948   3.225   1.253   4.575 -0.2281  0.1101 -0.3132
  843THF     C310949   3.182   1.265   4.794  0.5078  0.4297 -0.3683
  843THF     H410950   3.290   1.203   4.502  2.5287 -1.0849  2.6908
  843THF     H510951   3.230   1.358   4.547 -1.3016  0.7158  1.6343
  843THF     H610952   3.198   1.220   4.892  1.7255 -1.0468 -1.1919
  843THF     H710953   3.165   1.373   4.789 -1.1036  0.1412 -1.6666
  843THF     C810954   3.056   1.198   4.737 -0.2543  0.1875 -0.0264
  843THF     C910955   3.085   1.193   4.588 -0.5821  0.2917  0.1179
  843THF    H1010956   2.967   1.256   4.760  0.8107  1.2804  1.5391
  843THF    H1110957   3.042   1.097   4.777 -0.5250  0.6061  0.9769
  843THF    H1210958   3.083   1.089   4.554 -0.1526 -0.1461  1.3547
  843THF    H1310959   3.015   1.244   4.522  0.1123  0.2411 -0.6740
  844THF     O110960   2.942   3.883   5.412  0.1132 -0.2353 -0.3382
  844THF     C210961   3.014   3.830   5.308 -0.0257 -0.0864  0.0786
  844THF     C310962   3.020   3.982   5.469 -0.3705  0.2134  0.4812
  844THF     H410963   3.005   3.891   5.218  0.6602 -0.4384 -0.2425
  844THF     H510964   2.981   3.729   5.283  1.8738 -0.7211 -0.0596
  844THF     H610965   3.025   4.068   5.404 -1.6804  0.8811  1.2042
  844THF     H710966   2.983   4.000   5.570  2.4671 -0.5471  1.7521
  844THF     C810967   3.161   3.916   5.478 -0.1322 -0.1511  0.2957
  844THF     C910968   3.165   3.830   5.358 -0.4524 -0.1062 -0.6352
  844THF    H1010969   3.178   3.861   5.570  0.8286  2.0655  1.5454
  844THF    H1110970   3.243   3.986   5.496 -1.6170  1.3552  1.5576
  844THF    H1210971   3.237   3.855   5.280  0.3879 -2.9668 -0.8905
  844THF    H1310972   3.184   3.732   5.400 -1.2007 -0.4848 -1.1540
  845THF     O110973   3.684   2.281   2.490  0.3593 -0.7714 -0.7376
  845THF     C210974   3.592   2.257   2.597  0.2231 -0.4032 -0.5738
  845THF     C310975   3.637   2.221   2.368  0.1157  0.3173  0.3646
  845THF     H410976   3.508   2.324   2.580  1.2476  1.2767  0.6547
  845THF     H510977   3.611   2.297   2.697 -1.8088  0.2233 -0.3885
  845THF     H610978   3.561   2.286   2.324  0.7148  1.9626  1.6245
  845THF     H710979   3.719   2.191   2.303  0.5506  0.9291  0.6201
  845THF     C810980   3.571   2.098   2.424 -0.1189  0.4756  0.1580
  845THF     C910981   3.558   2.114   2.579 -0.1733  0.1766 -0.4815
  845THF    H1010982   3.638   2.014   2.408 -0.8964 -0.2259  0.5260
  845THF    H1110983   3.476   2.078   2.373  0.1180 -0.6686  0.1432
  845THF    H1210984   3.465   2.078   2.623  2.3655 -3.3184  2.7433
  845THF    H1310985   3.637   2.054   2.623  0.4821  0.6879 -0.9362
  846THF     O110986   2.074   5.270   4.083 -0.2670  0.0431  0.8536
  846THF     C210987   1.979   5.338   4.163 -0.7659 -0.0268  0.0601
  846THF     C310988   2.009   5.215   3.972  0.0272  0.3953 -0.1930
  846THF     H410989   2.030   5.396   4.240  0.8176 -1.1415 -0.1022
  846THF     H510990   1.893   5.278   4.194 -1.6304  0.1666 -1.8371
  846THF     H610991   2.082   5.205   3.891 -0.4311  1.3551 -0.7398
  846THF     H710992   1.971   5.113   3.981 -3.1410  1.4425 -0.6337
  846THF     C810993   1.905   5.323   3.942 -0.2912  0.4410 -1.1544
  846THF     C910994   1.918   5.424   4.060  0.0045  0.2064  0.8417
  846THF    H1010995   1.807   5.275   3.953 -0.2422  0.7354  1.1959
  846THF    H1110996   1.910   5.354   3.838 -2.4919  1.4598 -1.0257
  846THF    H1210997   1.981   5.506   4.025 -3.2431  2.4955 -0.1466
  846THF    H1310998   1.821   5.467   4.087 -2.7382 -1.6233 -4.6049
  847THF     O110999   3.967   4.248   1.820  0.1767 -0.0907  0.3796
  847THF     C211000   4.023   4.298   1.698 -0.4110 -0.0525  0.3403
  847THF     C311001   4.003   4.348   1.918  0.4601  0.3694  0.7785
  847THF     H411002   3.983   4.253   1.607 -2.0671  1.4738  0.2580
  847THF     H511003   4.130   4.284   1.692 -0.4383  0.1303 -1.0718
  847THF     H611004   3.963   4.329   2.018 -3.3225 -1.6777 -0.9404
  847THF     H711005   4.112   4.341   1.928  0.6904 -1.1133 -1.9149
  847THF     C811006   3.957   4.473   1.846  0.0214 -0.2373 -0.3925
  847THF     C911007   3.975   4.446   1.694 -0.8075 -0.5983  0.0246
  847THF    H1011008   4.019   4.554   1.885  1.0655 -0.9442 -0.5518
  847THF    H1111009   3.854   4.507   1.862  0.0849 -0.2013 -0.0550
  847THF    H1211010   3.877   4.464   1.650 -0.5311  2.5832  0.4876
  847THF    H1311011   4.041   4.527   1.663  0.3498 -1.4190  0.2573
  848THF     O111012   3.866   2.821   5.119 -0.2932  0.1990  0.3096
  848THF     C211013   3.923   2.871   4.996  0.1663  0.5182  0.2693
  848THF     C311014   3.959   2.720   5.157 -0.5091 -0.2687 -0.1785
  848THF     H411015   3.994   2.953   5.010  0.7135  0.3304 -1.2048
  848THF     H511016   3.841   2.903   4.933  0.0034 -2.4504 -1.2128
  848THF     H611017   4.046   2.763   5.207 -0.6491 -0.9861  0.7332
  848THF     H711018   3.919   2.658   5.238  2.3491 -1.0549  0.7633
  848THF     C811019   3.987   2.648   5.029  0.2349  0.7762  0.4971
  848THF     C911020   4.000   2.755   4.933 -0.4405 -0.8222  0.9987
  848THF    H1011021   3.900   2.589   5.002  0.4823 -0.0835  1.5217
  848THF    H1111022   4.068   2.576   5.022 -0.9260 -0.5034 -0.2567
  848THF    H1211023   4.108   2.767   4.929 -0.6083  2.1251  2.5470
  848THF    H1311024   3.966   2.749   4.829 -1.7974  0.7177  1.3046
  849THF     O111025   4.717   4.548   3.151 -0.2700  0.2138 -0.2902
  849THF     C211026   4.859   4.561   3.119  0.4926  0.1603 -0.9784
  849THF     C311027   4.651   4.611   3.045 -0.0274  0.7485 -0.2518
  849THF     H411028   4.885   4.497   3.035  1.9325  0.2541 -0.6167
  849THF     H511029   4.923   4.546   3.206 -1.5077 -0.9979  0.3683
  849THF     H611030   4.647   4.555   2.951 -0.5681  1.1542 -0.4776
  849THF     H711031   4.547   4.633   3.071 -0.5334 -0.4102 -1.1439
  849THF     C811032   4.733   4.735   3.015  0.7731 -0.0615 -0.4273
  849THF     C911033   4.866   4.712   3.087 -0.1972  0.3301  0.6207
  849THF    H1011034   4.688   4.825   3.058 -2.2679 -2.2423  1.3447
  849THF    H1111035   4.733   4.763   2.909 -0.5303  1.1621 -0.1386
  849THF    H1211036   4.953   4.722   3.022  0.4961  2.1934  1.7358
  849THF    H1311037   4.881   4.765   3.181  0.6732 -0.3036  0.8482
  850THF     O111038   1.052   2.492   2.348  0.0161 -0.3907 -0.3810
  850THF     C211039   0.959   2.603   2.343 -0.0975  0.1833 -0.1341
  850THF     C311040   1.094   2.481   2.483 -0.2022  0.0708  1.0385
  850THF     H411041   0.882   2.581   2.270  0.1892 -1.2557 -0.0292
  850THF     H511042   1.009   2.694   2.311 -0.4728  0.9752  1.4263
  850THF     H611043   1.048   2.390   2.521  2.8956 -0.7438  3.2045
  850THF     H711044   1.202   2.468   2.485 -0.2168 -0.0611  0.9759
  850THF     C811045   1.035   2.597   2.567  0.0912 -0.2060 -0.0732
  850THF     C911046   0.908   2.616   2.485  0.2571 -0.0836  0.0487
  850THF    H1011047   1.087   2.691   2.553 -0.4843  0.0209 -0.7539
  850THF    H1111048   1.029   2.577   2.674  3.4255 -0.9593  0.0849
  850THF    H1211049   0.839   2.539   2.520  0.8985 -0.3650  0.7417
  850THF    H1311050   0.865   2.715   2.496  0.8871  0.2703 -0.6778
  851THF     O111051   0.817   3.978   4.850 -0.2539 -0.1413 -0.1037
  851THF     C211052   0.875   4.046   4.958  0.3273 -0.3260 -0.1341
  851THF     C311053   0.678   4.008   4.850 -0.1530 -0.4433  0.7149
  851THF     H411054   0.983   4.057   4.956  0.1937  2.2093  1.9602
  851THF     H511055   0.847   3.990   5.048 -0.2144  0.8635  0.4486
  851THF     H611056   0.636   3.990   4.751  2.3846 -0.2668 -0.4737
  851THF     H711057   0.633   3.952   4.932  0.1371 -0.5014  0.8353
  851THF     C811058   0.678   4.161   4.885  0.1001  0.1684  0.0695
  851THF     C911059   0.809   4.184   4.948 -0.0073  0.2024 -0.0501
  851THF    H1011060   0.598   4.184   4.955  0.2137  1.3606 -0.1596
  851THF    H1111061   0.652   4.212   4.792 -0.3704  2.1408  1.2325
  851THF    H1211062   0.872   4.249   4.887  1.9468 -2.6092 -1.2551
  851THF    H1311063   0.804   4.225   5.048 -2.5105  0.0080 -0.0341
  852THF     O111064   2.594   0.720   0.527  0.3087  0.1291 -0.2825
  852THF     C211065   2.650   0.809   0.444  0.1195  0.1583 -0.2578
  852THF     C311066   2.496   0.781   0.612  0.1996  0.5094 -0.2898
  852THF     H411067   2.709   0.757   0.367  0.6665  1.1487 -0.5223
  852THF     H511068   2.710   0.884   0.495 -0.6336  1.4813 -1.2718
  852THF     H611069   2.421   0.707   0.642 -0.1584  0.7326 -0.6219
  852THF     H711070   2.524   0.839   0.700  0.4276 -1.0325  0.6885
  852THF     C811071   2.425   0.874   0.515 -0.0552 -0.0312 -0.2671
  852THF     C911072   2.517   0.874   0.392  0.0919 -0.1058 -0.0443
  852THF    H1011073   2.401   0.969   0.562 -1.7061 -0.5890  0.0826
  852THF    H1111074   2.329   0.825   0.496  0.1181 -0.2939 -0.4713
  852THF    H1211075   2.475   0.799   0.326 -1.4212  1.3745 -0.8194
  852THF    H1311076   2.528   0.970   0.342  0.1342  0.4181  0.9416
  853THF     O111077   4.875   1.591   2.047 -0.6608 -0.1797 -0.3259
  853THF     C211078   4.895   1.524   2.168  0.4287  0.1862  0.3322
  853THF     C311079   4.768   1.680   2.066  0.1850  0.2776  0.3273
  853THF     H411080   4.926   1.589   2.249 -1.6385 -1.4285  2.5503
  853THF     H511081   4.960   1.437   2.156  0.5342  0.1850  0.8920
  853THF     H611082   4.805   1.759   2.132  0.1083 -2.0381  3.3687
  853THF     H711083   4.734   1.724   1.972  0.3473 -0.8372 -0.2719
  853THF     C811084   4.664   1.592   2.143  0.3376  0.3196 -0.3568
  853THF     C911085   4.752   1.482   2.207  0.3993 -0.7066  0.2576
  853THF    H1011086   4.587   1.554   2.076 -1.2677  3.3785 -0.4259
  853THF    H1111087   4.602   1.649   2.212 -0.2853 -2.0557  1.1599
  853THF    H1211088   4.734   1.468   2.314 -0.9934  0.4693  0.2187
  853THF    H1311089   4.706   1.394   2.163 -1.4454  0.6512 -0.6794
  854THF     O111090   3.768   1.433   3.390 -0.0133 -0.5088  0.2908
  854THF     C211091   3.840   1.306   3.388  0.5417  0.4006  0.9646
  854THF     C311092   3.652   1.422   3.316 -0.2515 -0.3662 -0.6024
  854THF     H411093   3.815   1.256   3.481 -0.4905  1.1387  1.0937
  854THF     H511094   3.947   1.318   3.375  1.0051 -3.7746 -0.8728
  854THF     H611095   3.570   1.473   3.366  2.3928  2.3615  1.3515
  854THF     H711096   3.664   1.475   3.221 -1.2812  1.6015  0.2988
  854THF     C811097   3.641   1.271   3.297  0.0130 -0.7060 -0.5624
  854THF     C911098   3.779   1.226   3.274  0.2692 -0.1762  0.4400
  854THF    H1011099   3.578   1.249   3.211  0.8714  1.2397 -1.7525
  854THF    H1111100   3.599   1.222   3.386  1.9755  0.5224  1.1260
  854THF    H1211101   3.791   1.118   3.277  0.9320 -0.0988  0.7229
  854THF    H1311102   3.819   1.264   3.180  1.7204 -0.1433  1.0539
  855THF     O111103   4.849   2.872   4.664  0.2022  0.3689  0.3715
  855THF     C211104   4.720   2.836   4.685 -0.2799 -0.2084  0.2763
  855THF     C311105   4.855   2.947   4.544  0.7031  0.0057  0.9055
  855THF     H411106   4.668   2.924   4.722  0.9944  0.5719  0.2542
  855THF     H511107   4.699   2.761   4.762 -1.6110 -0.1314  0.0142
  855THF     H611108   4.824   3.048   4.569 -1.7476 -0.4529  0.0251
  855THF     H711109   4.952   2.949   4.495  0.5722 -0.6729  0.6027
  855THF     C811110   4.745   2.874   4.455 -0.3272 -0.8432  0.5996
  855THF     C911111   4.672   2.783   4.553 -0.0659 -0.4268  0.8314
  855THF    H1011112   4.768   2.829   4.359 -0.9383 -0.1707  0.1198
  855THF    H1111113   4.673   2.953   4.432  0.4899  1.1610  4.1628
  855THF    H1211114   4.564   2.773   4.555 -0.2621  1.5159  0.9229
  855THF    H1311115   4.713   2.682   4.543  0.6585 -0.0378 -0.2561
  856THF     O111116   1.963   5.227   0.770 -0.2233  0.1819 -0.0067
  856THF     C211117   1.857   5.135   0.799 -0.2027 -0.1308  0.4064
  856THF     C311118   2.083   5.151   0.740  0.3093  0.4191  0.6238
  856THF     H411119   1.767   5.192   0.775  0.5367  0.0315 -2.2920
  856THF     H511120   1.856   5.086   0.896  0.3421 -0.3319  0.3139
  856THF     H611121   2.122   5.198   0.650  1.6443 -1.5265  0.1181
  856THF     H711122   2.160   5.156   0.817  1.1487 -0.3942 -0.1306
  856THF     C811123   2.035   5.009   0.724  0.3590 -0.1378  0.3640
  856THF     C911124   1.889   5.031   0.691 -0.7913  0.2251 -0.3204
  856THF    H1011125   2.053   4.949   0.814  1.1693  1.9956  1.6949
  856THF    H1111126   2.091   4.961   0.644  0.2293  2.6563 -1.5249
  856THF    H1211127   1.880   5.070   0.590 -1.2082  0.5022 -0.1792
  856THF    H1311128   1.823   4.945   0.704  0.9130 -1.4353 -1.9928
  857THF     O111129   4.849   4.617   1.213  0.6148  0.3740  0.0612
  857THF     C211130   4.914   4.727   1.160  0.4570  0.3826  0.2328
  857THF     C311131   4.710   4.648   1.239 -0.1734 -0.2827 -0.0950
  857THF     H411132   4.892   4.736   1.054  1.6593  0.6785 -0.0058
  857THF     H511133   5.021   4.707   1.165  0.5526  0.6101 -0.7086
  857THF     H611134   4.666   4.629   1.141  1.6741 -0.4725 -0.9351
  857THF     H711135   4.666   4.587   1.318 -2.1935  0.0031 -0.9350
  857THF     C811136   4.716   4.798   1.276  0.4827  0.3020 -0.3885
  857THF     C911137   4.865   4.841   1.254 -0.2101 -0.4961  0.9268
  857THF    H1011138   4.700   4.815   1.382  2.7510  4.6730 -0.5237
  857THF    H1111139   4.646   4.862   1.222  0.8372  0.4625 -0.6636
  857THF    H1211140   4.885   4.936   1.205 -1.4023  0.0062  1.3904
  857THF    H1311141   4.933   4.848   1.339 -0.5550  1.6545  1.0769
  858THF     O111142   4.791   2.330   3.893 -0.2306  0.0401  0.1607
  858THF     C211143   4.874   2.364   4.009  0.0629 -0.1614 -0.5670
  858THF     C311144   4.693   2.238   3.930 -0.0078  0.0614 -0.2665
  858THF     H411145   4.909   2.465   3.985  0.3251  0.0574  0.6955
  858THF     H511146   4.947   2.286   4.030  1.3727  0.9002 -1.0135
  858THF     H611147   4.603   2.239   3.869 -0.3382 -0.4622  0.2087
  858THF     H711148   4.732   2.137   3.931  2.3503  0.8408  2.5177
  858THF     C811149   4.655   2.283   4.070 -0.3473 -0.0978  0.7628
  858THF     C911150   4.771   2.368   4.121  0.4687  0.1971 -0.1373
  858THF    H1011151   4.638   2.194   4.130 -0.8881 -3.1812 -3.4799
  858THF    H1111152   4.562   2.339   4.074 -1.6619 -2.1515  0.6777
  858THF    H1211153   4.733   2.467   4.148 -1.9668 -0.8056  0.3841
  858THF    H1311154   4.825   2.343   4.212  1.5118 -0.8475 -1.0123
  859THF     O111155   5.114   2.070   4.877  0.1950 -0.7495 -0.4233
  859THF     C211156   5.022   1.976   4.832  0.0715 -0.0886  0.2659
  859THF     C311157   5.206   2.001   4.964  0.0756 -0.2953  0.2687
  859THF     H411158   5.052   1.922   4.743  2.3752  1.1955  0.1829
  859THF     H511159   4.929   2.026   4.805 -0.7993 -1.0421  1.3464
  859THF     H611160   5.271   1.938   4.904  0.2719 -0.8055  1.0104
  859THF     H711161   5.270   2.067   5.022  0.2122  0.0048 -0.2133
  859THF     C811162   5.122   1.913   5.048 -0.0951  0.2505 -0.5194
  859THF     C911163   5.000   1.882   4.958  0.9524  0.2721 -0.6930
  859THF    H1011164   5.099   1.963   5.142  1.1104 -1.4245  0.7323
  859THF    H1111165   5.187   1.828   5.072  0.0973  0.5871  0.2036
  859THF    H1211166   5.001   1.776   4.932  1.4337  0.3100 -0.8441
  859THF    H1311167   4.912   1.898   5.020  2.0345  2.7213  0.3105
  860THF     O111168   2.096   4.585   3.321 -0.6519  0.1848 -0.2029
  860THF     C211169   2.153   4.682   3.409 -0.0443  0.3878 -0.0707
  860THF     C311170   2.077   4.466   3.396  0.4341 -0.0216  0.1785
  860THF     H411171   2.127   4.778   3.365 -0.9980 -0.5520 -1.6699
  860THF     H511172   2.261   4.674   3.411 -0.0510  0.3879  1.1026
  860THF     H611173   2.013   4.393   3.347  1.9603 -2.4760  1.6226
  860THF     H711174   2.179   4.429   3.400  0.2572 -0.4292  1.1133
  860THF     C811175   2.023   4.527   3.527  0.7779  0.6444 -0.2976
  860THF     C911176   2.097   4.656   3.554  0.4314 -0.3020  0.9594
  860THF    H1011177   2.034   4.458   3.611 -0.0335 -0.1935 -0.8474
  860THF    H1111178   1.916   4.544   3.519  1.0975  1.9121 -3.3426
  860THF    H1211179   2.032   4.734   3.595 -0.4906 -0.2064 -0.6037
  860THF    H1311180   2.181   4.649   3.623  1.3228  0.0382 -0.0733
  861THF     O111181   3.338   0.233   0.882 -0.6441 -0.4007 -0.2561
  861THF     C211182   3.295   0.364   0.841  0.2956 -0.3560  0.2245
  861THF     C311183   3.228   0.142   0.872  0.1910 -0.0612 -0.0107
  861THF     H411184   3.381   0.421   0.807  1.4091 -1.5125  1.0283
  861THF     H511185   3.237   0.421   0.914  1.8911  1.0178  0.4695
  861THF     H611186   3.261   0.046   0.834 -1.0713  0.2514 -2.0113
  861THF     H711187   3.181   0.133   0.970 -0.0490  0.8673 -0.0302
  861THF     C811188   3.127   0.215   0.780 -0.2651 -0.5320 -0.0810
  861THF     C911189   3.205   0.331   0.729 -0.8317  0.1541 -0.2419
  861THF    H1011190   3.033   0.236   0.831  0.9042  1.5088  1.3865
  861THF    H1111191   3.097   0.147   0.701  1.4351  0.0552 -1.3037
  861THF    H1211192   3.266   0.309   0.641 -1.2448  2.0389 -1.0436
  861THF    H1311193   3.139   0.412   0.699  0.6552  0.5866 -2.6572
  862THF     O111194   3.068   2.551   0.535  0.7289 -0.6278 -0.5675
  862THF     C211195   3.097   2.636   0.423  0.0723  0.3262 -0.5630
  862THF     C311196   3.155   2.442   0.535  0.3454 -0.0074 -0.0212
  862THF     H411197   3.190   2.692   0.434  0.0675  0.0800  0.9212
  862THF     H511198   3.012   2.700   0.402 -0.4325 -0.5400 -1.2348
  862THF     H611199   3.248   2.475   0.582 -0.3597 -0.5833  1.8880
  862THF     H711200   3.126   2.362   0.603  0.3311  1.1468  1.3899
  862THF     C811201   3.160   2.404   0.387 -0.4277  0.1442 -0.2329
  862THF     C911202   3.121   2.533   0.308 -0.3524  0.4861  0.2746
  862THF    H1011203   3.072   2.344   0.365  0.0413 -0.3507 -0.7995
  862THF    H1111204   3.250   2.350   0.356  0.8171  1.7280  0.4599
  862THF    H1211205   3.207   2.562   0.248  0.1723  0.5665  1.0526
  862THF    H1311206   3.033   2.506   0.250 -0.0704  0.0259  0.0572
  863THF     O111207   4.341   4.337   4.337 -0.3197 -0.2168  0.4080
  863THF     C211208   4.316   4.455   4.266 -0.3634 -0.7117  0.0767
  863THF     C311209   4.482   4.321   4.362  0.0907 -0.6558  0.3346
  863THF     H411210   4.210   4.478   4.263 -0.5822 -1.6706  0.1935
  863THF     H511211   4.351   4.450   4.163 -0.6517 -0.0842 -0.0598
  863THF     H611212   4.487   4.268   4.457 -0.0608 -1.2288  0.0256
  863THF     H711213   4.531   4.269   4.281 -1.2287 -1.4981  0.0436
  863THF     C811214   4.526   4.470   4.374 -0.1968  0.2658 -0.6049
  863THF     C911215   4.403   4.550   4.340  0.5718 -0.4729  0.2568
  863THF    H1011216   4.617   4.486   4.315  1.7204 -1.2788  1.7491
  863THF    H1111217   4.545   4.495   4.479  2.7471  3.2787 -1.6774
  863THF    H1211218   4.358   4.582   4.434  0.5609 -1.3300  0.5521
  863THF    H1311219   4.420   4.630   4.268 -0.9588 -1.8268 -1.7525
  864THF     O111220   4.506   4.934   2.113 -0.2489 -0.2182  0.2605
  864THF     C211221   4.367   4.911   2.140  0.4630  0.1038  0.1922
  864THF     C311222   4.564   4.959   2.237 -0.0003 -0.2745 -1.0343
  864THF     H411223   4.319   4.855   2.060 -1.8774  0.5004  1.2505
  864THF     H511224   4.317   5.007   2.150  0.2773  0.0053  0.2086
  864THF     H611225   4.672   4.966   2.225  0.6142 -3.4720  1.1378
  864THF     H711226   4.532   5.046   2.294  2.9199  0.3345 -0.1778
  864THF     C811227   4.517   4.850   2.327  0.2215 -0.6714  0.8815
  864THF     C911228   4.374   4.829   2.263 -0.2196 -0.2403 -0.5310
  864THF    H1011229   4.513   4.872   2.434 -0.4612  0.6366  0.6024
  864THF    H1111230   4.565   4.753   2.314 -1.7040 -1.5415 -0.1807
  864THF    H1211231   4.364   4.722   2.244 -0.5884  0.0685 -2.2497
  864THF    H1311232   4.301   4.862   2.337  2.5258  2.9182  1.0556
  865THF     O111233   1.069   0.692   2.998  0.1353  0.8337 -0.1514
  865THF     C211234   1.012   0.757   2.889  0.6363 -0.5087  0.3083
  865THF     C311235   0.987   0.691   3.109  0.1796 -0.8235 -0.3321
  865THF     H411236   0.935   0.697   2.840  0.6303 -0.0964 -0.1991
  865THF     H511237   1.083   0.802   2.819  1.2045 -1.1074  0.5017
  865THF     H611238   0.922   0.604   3.119 -0.2941 -0.4126  0.1998
  865THF     H711239   1.051   0.686   3.198  0.2320 -0.5704 -0.3541
  865THF     C811240   0.912   0.827   3.098 -0.1730  0.4088 -0.6422
  865THF     C911241   0.943   0.876   2.957  0.4622 -0.5728 -0.1192
  865THF    H1011242   0.947   0.900   3.172 -0.7400  0.5317 -0.4861
  865THF    H1111243   0.807   0.807   3.117  0.3760 -0.5854  1.6589
  865THF    H1211244   0.850   0.898   2.905  0.3403 -1.0117 -0.0930
  865THF    H1311245   1.002   0.967   2.965 -0.6550  0.2848 -1.2478
  866THF     O111246   5.353   4.919   1.519  0.6454  0.5357  0.0441
  866THF     C211247   5.229   4.987   1.565  0.2613  0.1190  0.9024
  866THF     C311248   5.413   4.875   1.642  0.1009  0.6410  0.0157
  866THF     H411249   5.147   4.916   1.576  1.4566 -1.4177  0.1578
  866THF     H511250   5.204   5.060   1.489  0.9579 -1.3351 -0.7881
  866THF     H611251   5.377   4.777   1.674 -0.5645  1.0788  0.6559
  866THF     H711252   5.519   4.856   1.626  0.3805  0.9542  1.3417
  866THF     C811253   5.389   4.987   1.746 -0.1855 -0.6918  0.0385
  866THF     C911254   5.271   5.064   1.691  0.2503  0.2683 -0.3157
  866THF    H1011255   5.476   5.051   1.761 -1.1955  0.9219 -0.7495
  866THF    H1111256   5.360   4.938   1.839  1.5256 -0.8833  0.5082
  866THF    H1211257   5.181   5.091   1.747  1.5491 -0.5292  2.2782
  866THF    H1311258   5.314   5.159   1.659  0.8382  0.6500  1.5300
  867THF     O111259   2.090   2.314   1.163  0.3315  0.1221 -0.1175
  867THF     C211260   2.087   2.170   1.160 -0.1868 -0.1844 -0.3383
  867THF     C311261   2.117   2.336   1.298  0.5297 -0.3557  0.5694
  867THF     H411262   2.178   2.113   1.180 -1.0415 -1.6507 -0.4808
  867THF     H511263   2.052   2.120   1.070  0.3182 -1.9668  0.3976
  867THF     H611264   2.222   2.314   1.319  1.2227  2.7822  0.9832
  867THF     H711265   2.095   2.441   1.321 -1.1218 -0.8503  1.3538
  867THF     C811266   2.024   2.252   1.374 -0.1922  0.3475  0.4493
  867THF     C911267   1.989   2.143   1.274  0.2006 -0.2947 -0.0847
  867THF    H1011268   1.936   2.303   1.412 -0.7494 -0.4104  0.1980
  867THF    H1111269   2.078   2.209   1.459 -0.1368  1.8415  1.2016
  867THF    H1211270   1.998   2.039   1.305 -2.0706 -1.4562 -2.8544
  867THF    H1311271   1.883   2.150   1.251  0.2224  0.5344  0.0563
  868THF     O111272   5.053   3.234   0.581 -0.6796  0.2355  0.2018
  868THF     C211273   5.069   3.121   0.669 -0.1969  0.3675  0.6054
  868THF     C311274   4.987   3.186   0.460  0.2475  0.1064  0.4785
  868THF     H411275   4.973   3.107   0.720 -0.2330 -0.4717  0.3111
  868THF     H511276   5.144   3.142   0.746 -0.9177  0.6670  1.2444
  868THF     H611277   4.880   3.192   0.477  0.0221 -0.4789 -0.6710
  868THF     H711278   5.001   3.236   0.365 -1.3845  1.0874  0.7260
  868THF     C811279   5.037   3.047   0.441 -0.1226  0.4427  0.0813
  868THF     C911280   5.093   3.006   0.573 -0.0747 -0.2076  1.1444
  868THF    H1011281   5.113   3.041   0.362 -0.4191 -0.4439 -0.1512
  868THF    H1111282   4.961   2.972   0.420 -1.4258  1.3345  1.4205
  868THF    H1211283   5.069   2.903   0.600  0.5557 -0.2055  1.7149
  868THF    H1311284   5.201   2.998   0.560 -0.2781 -1.4721 -0.1122
  869THF     O111285   2.522   0.806   3.589  0.3656  0.8793  0.5282
  869THF     C211286   2.476   0.681   3.543  0.1747  0.7898  0.0088
  869THF     C311287   2.437   0.905   3.532  0.0470  0.3234  0.3767
  869THF     H411288   2.436   0.627   3.629 -0.4257  0.6640 -0.3400
  869THF     H511289   2.548   0.617   3.493  0.0214 -0.2873  1.1249
  869THF     H611290   2.360   0.916   3.608  0.3560 -1.1022  0.9252
  869THF     H711291   2.488   1.000   3.545  2.0525 -0.6676  0.1900
  869THF     C811292   2.394   0.858   3.395  0.4031 -0.2653  0.3696
  869THF     C911293   2.371   0.717   3.431  1.2126 -0.6325  0.3335
  869THF    H1011294   2.472   0.872   3.321  0.5272  3.5003  1.0212
  869THF    H1111295   2.300   0.909   3.375  0.6077  1.3984  3.1708
  869THF    H1211296   2.263   0.702   3.440  0.2745  2.2700 -3.5507
  869THF    H1311297   2.397   0.647   3.353  0.5661 -0.0836 -0.3904
  870THF     O111298   5.081   4.671   4.336  0.0047  0.2320 -0.7508
  870THF     C211299   4.952   4.603   4.332  0.1573 -0.2317  0.1962
  870THF     C311300   5.057   4.758   4.444  0.5231  0.2925  0.1410
  870THF     H411301   4.939   4.519   4.401 -0.4059 -0.4747 -0.1957
  870THF     H511302   4.946   4.563   4.231 -0.4088 -1.7604  0.7969
  870THF     H611303   5.074   4.712   4.542 -1.8261  0.9337  0.9128
  870THF     H711304   5.125   4.843   4.440  0.9429 -0.0768 -1.1174
  870THF     C811305   4.912   4.805   4.442 -0.4019 -0.0254  0.4863
  870THF     C911306   4.843   4.702   4.348  0.2393 -0.2526 -0.0756
  870THF    H1011307   4.904   4.905   4.401 -0.2698 -0.6494 -1.1564
  870THF    H1111308   4.864   4.807   4.540 -1.3922 -0.9269  0.0423
  870THF    H1211309   4.761   4.670   4.412  0.7472  0.5913  1.0400
  870THF    H1311310   4.820   4.745   4.250  2.3148 -1.3412 -1.1042
  871THF     O111311   5.283   3.437   3.571 -0.7039 -0.2057 -0.4575
  871THF     C211312   5.169   3.514   3.586  0.5380  0.0623  0.0304
  871THF     C311313   5.252   3.304   3.607  0.4658  0.5083  0.5101
  871THF     H411314   5.175   3.613   3.541 -0.2677 -0.4336 -1.2671
  871THF     H511315   5.138   3.526   3.690  0.6789  3.1340 -0.2061
  871THF     H611316   5.334   3.234   3.590 -0.5157 -0.7086  0.6268
  871THF     H711317   5.241   3.294   3.715 -0.2245 -0.8749  0.3343
  871THF     C811318   5.118   3.278   3.539 -0.1949 -0.3553  0.1915
  871THF     C911319   5.066   3.425   3.514 -0.5472  0.4207  0.3764
  871THF    H1011320   5.048   3.211   3.590 -1.8751  0.2965 -1.1400
  871THF    H1111321   5.145   3.224   3.449 -2.2666  0.5025 -1.0184
  871THF    H1211322   5.066   3.455   3.409  0.1380 -1.3355 -0.1603
  871THF    H1311323   4.967   3.457   3.547 -1.0136  2.6677 -2.6999
  872THF     O111324   1.265   1.204   2.213 -0.5402 -0.4759 -0.5493
  872THF     C211325   1.335   1.296   2.133  0.2378 -0.1985 -0.0209
  872THF     C311326   1.338   1.081   2.213 -0.2493 -0.4591 -0.2341
  872THF     H411327   1.311   1.401   2.149 -3.2147 -0.9465  0.6628
  872THF     H511328   1.334   1.275   2.026 -0.6816  1.1234 -0.2900
  872THF     H611329   1.301   0.994   2.268  1.6585 -0.4774  1.1061
  872THF     H711330   1.330   1.050   2.108  0.4199  1.2421 -0.8209
  872THF     C811331   1.486   1.129   2.233  1.4667  0.1580  0.1577
  872THF     C911332   1.484   1.267   2.168  0.5871 -0.0601  0.1347
  872THF    H1011333   1.548   1.053   2.185  0.8653 -1.0290  1.1956
  872THF    H1111334   1.512   1.144   2.338  0.8262  2.0872  0.0878
  872THF    H1211335   1.521   1.329   2.249 -1.0156  0.2276  0.6929
  872THF    H1311336   1.548   1.252   2.081  2.1607 -0.8462  1.3914
  873THF     O111337   1.811   1.129   4.667 -0.1322  0.0823 -0.0255
  873THF     C211338   1.839   1.190   4.536  0.3168 -0.6880  0.3205
  873THF     C311339   1.911   1.187   4.751  0.0310  0.2647  0.4493
  873THF     H411340   1.790   1.285   4.515  1.1595 -0.5760 -1.2321
  873THF     H511341   1.802   1.134   4.450 -0.1458  0.7390 -0.4428
  873THF     H611342   1.897   1.294   4.766  0.0170  0.6941 -2.1843
  873THF     H711343   1.919   1.126   4.841 -1.3105 -0.0303  0.3794
  873THF     C811344   2.039   1.176   4.663  1.1273  0.4612 -0.6631
  873THF     C911345   1.993   1.215   4.527  0.1200  0.8346 -0.1673
  873THF    H1011346   2.062   1.070   4.673  0.1998  0.3298  0.2935
  873THF    H1111347   2.121   1.238   4.698  1.1606  1.2754 -2.0978
  873THF    H1211348   2.001   1.323   4.513  0.1245  0.7696 -0.6665
  873THF    H1311349   2.048   1.158   4.453 -0.5525  1.0142 -0.8108
  874THF     O111350   3.398   3.272   4.702 -0.1184  0.2457  0.5530
  874THF     C211351   3.539   3.248   4.673  0.1980  0.3723 -0.6790
  874THF     C311352   3.358   3.400   4.666 -0.0409 -0.4685 -0.4835
  874THF     H411353   3.546   3.169   4.598  0.8574 -0.3077  0.0713
  874THF     H511354   3.587   3.211   4.764 -0.3631 -0.0171 -0.5353
  874THF     H611355   3.254   3.404   4.633 -0.2186  0.7057  0.1798
  874THF     H711356   3.350   3.462   4.756 -2.2587 -0.2897 -0.7630
  874THF     C811357   3.460   3.448   4.571  0.2008  0.3285  0.0167
  874THF     C911358   3.588   3.373   4.608 -0.2118 -0.2416 -0.0112
  874THF    H1011359   3.482   3.554   4.580 -0.3722  0.4476  0.0133
  874THF    H1111360   3.442   3.417   4.468  2.4621 -1.6305  0.1193
  874THF    H1211361   3.651   3.367   4.520 -0.5714 -0.6242 -0.2496
  874THF    H1311362   3.636   3.432   4.686 -0.5578 -1.3995  1.1193
  875THF     O111363   1.571   1.251   0.114  0.2229  0.4361  0.1974
  875THF     C211364   1.570   1.358   0.014  0.6756  0.6909  0.3203
  875THF     C311365   1.450   1.262   0.185 -0.0511  0.7931 -0.5673
  875THF     H411366   1.611   1.335  -0.085  2.1061 -0.0121  1.0432
  875THF     H511367   1.631   1.443   0.046  0.4298  1.3388 -0.8683
  875THF     H611368   1.389   1.188   0.133  1.7722 -0.2558 -1.3203
  875THF     H711369   1.465   1.252   0.293  0.3855  1.6612 -0.5366
  875THF     C811370   1.385   1.396   0.146 -0.8525 -0.4045  0.4957
  875THF     C911371   1.426   1.410   0.002  0.3623 -0.0997  0.1288
  875THF    H1011372   1.420   1.477   0.210 -1.9948  0.2659  0.3083
  875THF    H1111373   1.276   1.391   0.155 -1.0857  0.3319 -1.4455
  875THF    H1211374   1.365   1.345  -0.061  0.9701  1.2848 -2.0348
  875THF    H1311375   1.422   1.513  -0.034  0.2100 -0.1905 -0.1199
  876THF     O111376   1.778   1.257   1.816  0.1888  0.0093 -0.0211
  876THF     C211377   1.872   1.362   1.833 -0.3461  0.4054 -0.6786
  876THF     C311378   1.849   1.141   1.858 -0.4362  0.4970 -0.3694
  876THF     H411379   1.826   1.456   1.804 -4.3855 -0.9217  0.8311
  876THF     H511380   1.952   1.339   1.762  0.9333 -1.5052  1.2773
  876THF     H611381   1.780   1.058   1.872  0.6956 -0.0253  3.0745
  876THF     H711382   1.927   1.120   1.785  0.9501  1.1592  0.8720
  876THF     C811383   1.909   1.188   1.990 -1.0190  0.0697 -0.7235
  876THF     C911384   1.908   1.331   1.984 -0.0293  0.0222  0.0873
  876THF    H1011385   2.009   1.145   1.996 -1.4339 -0.9515 -0.7757
  876THF    H1111386   1.847   1.156   2.074  2.9560  0.4388  2.6494
  876THF    H1211387   1.839   1.366   2.060  0.4373  2.0072 -0.3419
  876THF    H1311388   2.001   1.382   2.009  0.1438 -0.0722 -0.3605
  877THF     O111389   4.136   0.340   2.932  0.2859 -0.6580  0.0091
  877THF     C211390   4.235   0.302   3.025 -0.2226  0.7303  0.6383
  877THF     C311391   4.137   0.257   2.820 -0.4854 -0.3718 -0.5845
  877THF     H411392   4.208   0.243   3.113  0.3615  0.3405  0.5627
  877THF     H511393   4.274   0.393   3.071 -0.7837 -0.3483  3.4852
  877THF     H611394   4.087   0.162   2.833 -0.2362 -0.1974  2.1790
  877THF     H711395   4.092   0.300   2.730 -0.2935 -0.6108 -0.7976
  877THF     C811396   4.288   0.234   2.803 -0.3767  0.1947 -0.5956
  877THF     C911397   4.342   0.229   2.942 -0.5530 -0.0548  0.0736
  877THF    H1011398   4.338   0.314   2.750  0.6203  0.5286  0.8182
  877THF    H1111399   4.311   0.136   2.759  0.3271 -0.8659  1.9649
  877THF    H1211400   4.358   0.125   2.974  2.8007 -0.1004 -1.3825
  877THF    H1311401   4.438   0.276   2.960  0.0469 -0.5012 -1.7445
  878THF     O111402   1.943   2.726   1.719 -0.5793  0.0434  0.1705
  878THF     C211403   2.043   2.638   1.772  0.1185  0.5753  0.0045
  878THF     C311404   1.948   2.849   1.786 -0.4369 -0.1702 -0.3188
  878THF     H411405   2.130   2.618   1.709 -0.8467 -1.1804 -0.8382
  878THF     H511406   2.000   2.540   1.791  1.8913 -0.2289  0.0552
  878THF     H611407   2.018   2.916   1.737 -0.0101  0.1410  0.6849
  878THF     H711408   1.851   2.897   1.779 -0.5943 -0.6119 -1.3323
  878THF     C811409   1.993   2.811   1.929  0.2489 -0.0870  0.2342
  878THF     C911410   2.080   2.697   1.909  0.0201  0.6364 -0.2548
  878THF    H1011411   1.904   2.802   1.992 -1.1305  1.1945 -1.4437
  878THF    H1111412   2.056   2.891   1.970 -0.2154  1.4643 -1.9331
  878THF    H1211413   2.185   2.728   1.913  0.3932  0.2905 -3.9037
  878THF    H1311414   2.057   2.632   1.993 -0.3355  1.1442  0.0484
  879THF     O111415   1.140   3.560   1.264  0.3521  0.4789  0.1361
  879THF     C211416   1.066   3.528   1.142 -0.2941 -1.4921 -0.0742
  879THF     C311417   1.159   3.439   1.332 -0.2173 -0.0452 -0.1916
  879THF     H411418   1.100   3.600   1.067 -2.1224  0.4927  0.8905
  879THF     H511419   0.961   3.551   1.159  0.0281 -0.5036  0.6836
  879THF     H611420   1.224   3.439   1.420 -1.7326 -0.5028  0.9680
  879THF     H711421   1.063   3.413   1.375 -0.6520 -1.7193 -2.0372
  879THF     C811422   1.191   3.332   1.227  0.8209 -0.1262 -1.0439
  879THF     C911423   1.106   3.389   1.108  0.8748  0.1795  0.3659
  879THF    H1011424   1.184   3.228   1.258  1.1249  0.5105  1.3287
  879THF    H1111425   1.295   3.338   1.192  1.3410 -0.2480  0.4232
  879THF    H1211426   1.147   3.381   1.007 -2.7583 -0.6547 -1.2077
  879THF    H1311427   1.004   3.352   1.098 -0.3474  3.3163  0.3664
  880THF     O111428   1.594   3.553   5.228 -0.8735  0.4124 -0.4541
  880THF     C211429   1.552   3.459   5.122  0.2891 -0.0992  0.0333
  880THF     C311430   1.688   3.493   5.312 -0.1007 -0.2740  0.5187
  880THF     H411431   1.623   3.476   5.040 -0.9318 -0.1242 -1.0549
  880THF     H511432   1.457   3.471   5.071  0.4138  1.3626  0.0817
  880THF     H611433   1.783   3.505   5.260 -0.1736  2.9959  0.9318
  880THF     H711434   1.707   3.536   5.410 -0.3349  0.1691  0.3722
  880THF     C811435   1.631   3.348   5.318 -0.0482  0.4410 -0.7937
  880THF     C911436   1.569   3.322   5.187  0.3187  0.0686  0.4041
  880THF    H1011437   1.552   3.339   5.393  0.3168  0.1441 -0.4440
  880THF    H1111438   1.710   3.284   5.357 -1.2698  1.2813  3.7772
  880THF    H1211439   1.636   3.255   5.132  1.2280  0.6970  0.7105
  880THF    H1311440   1.477   3.266   5.198  0.6816 -0.7535 -0.4901
  881THF     O111441   2.048   3.783   1.718  0.5961 -0.4758 -0.3171
  881THF     C211442   1.932   3.718   1.675  0.1068 -0.0726  0.8145
  881THF     C311443   2.164   3.745   1.648 -0.6797 -0.2395  0.3068
  881THF     H411444   1.838   3.772   1.690 -0.5139 -0.3914 -1.5243
  881THF     H511445   1.931   3.622   1.726 -2.6169 -0.7984 -0.4479
  881THF     H611446   2.229   3.831   1.634 -2.4810  1.0021 -0.9702
  881THF     H711447   2.214   3.660   1.695 -0.0710 -0.6557 -1.0457
  881THF     C811448   2.105   3.701   1.505 -0.1648 -0.3109  0.0951
  881THF     C911449   1.955   3.720   1.525  0.3435 -0.0807  0.0951
  881THF    H1011450   2.136   3.600   1.477  2.1589 -0.2530  2.1118
  881THF    H1111451   2.143   3.758   1.421 -0.3801 -1.9093 -1.1469
  881THF    H1211452   1.934   3.823   1.497  2.8898  1.0792  1.9649
  881THF    H1311453   1.882   3.653   1.480 -0.1605 -0.8035  1.8874
  882THF     O111454   4.108   3.951   1.892  0.2429  0.0548 -0.1300
  882THF     C211455   4.208   4.050   1.924 -0.3159  0.5424  0.1267
  882THF     C311456   4.161   3.842   1.832  0.2204  0.6038  0.6775
  882THF     H411457   4.176   4.130   1.991  1.0172  0.9886  0.2613
  882THF     H511458   4.254   4.088   1.832  2.0872 -2.4440 -0.0399
  882THF     H611459   4.091   3.761   1.851 -0.6095  0.5736 -2.0269
  882THF     H711460   4.178   3.853   1.725  1.7506 -2.4317  0.4983
  882THF     C811461   4.293   3.829   1.897 -0.0628 -0.0084  0.0030
  882THF     C911462   4.313   3.951   1.984 -0.3444 -0.6242  0.0090
  882THF    H1011463   4.377   3.835   1.827 -0.2163  1.0625 -0.1117
  882THF    H1111464   4.307   3.737   1.953 -0.3751  0.7186  1.3062
  882THF    H1211465   4.276   3.931   2.085 -1.0654  1.6610  0.2630
  882THF    H1311466   4.413   3.991   1.999 -1.0061  1.5912 -1.1727
  883THF     O111467   0.858   4.924   4.778 -0.2393 -0.0185  0.3834
  883THF     C211468   0.969   4.991   4.829 -0.9536 -0.4491  0.3125
  883THF     C311469   0.761   5.013   4.732  0.5359  0.1310 -0.5433
  883THF     H411470   1.059   4.935   4.801 -1.3423 -0.3453 -1.2193
  883THF     H511471   0.955   5.003   4.937 -1.7991 -0.6733  0.2317
  883THF     H611472   0.683   4.975   4.666 -0.0539  0.7959 -0.2332
  883THF     H711473   0.708   5.037   4.824  0.1319 -0.6425 -0.5644
  883THF     C811474   0.842   5.127   4.678  0.1596 -0.1512  0.1164
  883THF     C911475   0.966   5.123   4.755 -0.3091  0.5713 -0.0107
  883THF    H1011476   0.783   5.215   4.701 -0.7392 -0.6125 -0.3677
  883THF    H1111477   0.856   5.121   4.570  1.7279 -1.1268  0.3432
  883THF    H1211478   1.053   5.136   4.691 -0.9643 -1.7448 -1.5038
  883THF    H1311479   0.966   5.207   4.825  1.1265  0.9928 -0.4799
  884THF     O111480   3.625   2.572   2.395  0.5024 -0.2130  0.2655
  884THF     C211481   3.513   2.617   2.473  0.0831 -0.1843  0.5913
  884THF     C311482   3.614   2.636   2.267  0.0407  0.0871 -0.0049
  884THF     H411483   3.523   2.600   2.580 -1.4065  0.5289  0.8764
  884THF     H511484   3.421   2.568   2.441 -0.4517  1.0628  0.1438
  884THF     H611485   3.699   2.619   2.201 -0.4975  2.6684 -1.4999
  884THF     H711486   3.529   2.602   2.206 -0.0339 -0.8046  0.5824
  884THF     C811487   3.601   2.781   2.317  0.2944  0.3013  0.5423
  884THF     C911488   3.506   2.768   2.438 -0.5454  0.0941 -0.1715
  884THF    H1011489   3.561   2.846   2.239 -0.8697  0.9402  1.6285
  884THF    H1111490   3.701   2.821   2.334  1.4783 -1.3046 -2.0025
  884THF    H1211491   3.547   2.833   2.514  0.5371 -2.6049  1.7136
  884THF    H1311492   3.409   2.801   2.402  0.0388  1.7151 -0.3259
  885THF     O111493   5.381   2.414   4.753  0.2258  0.2485  0.1003
  885THF     C211494   5.421   2.416   4.619  0.1078 -0.1197 -0.4757
  885THF     C311495   5.455   2.318   4.824  0.4701 -0.3839 -0.3476
  885THF     H411496   5.517   2.467   4.608  0.5396 -0.9397 -0.6067
  885THF     H511497   5.339   2.457   4.561  0.2276  1.8777  0.6569
  885THF     H611498   5.556   2.352   4.845 -0.3338  1.7129  0.3664
  885THF     H711499   5.413   2.293   4.921  0.0963  1.7668  0.0792
  885THF     C811500   5.458   2.203   4.720 -0.5663  0.0966 -0.8280
  885THF     C911501   5.452   2.268   4.588 -0.3801  0.2358 -0.1919
  885THF    H1011502   5.372   2.135   4.720  0.3637 -1.1779 -2.4038
  885THF    H1111503   5.550   2.146   4.735  1.0547  2.2924 -1.8649
  885THF    H1211504   5.548   2.268   4.538 -0.9624  1.3954 -1.3674
  885THF    H1311505   5.378   2.220   4.524  0.2717 -0.9838 -0.0479
  886THF     O111506   1.219   0.717   2.399 -0.2357 -0.8326 -0.1880
  886THF     C211507   1.230   0.593   2.471  0.3036  0.2095  0.6482
  886THF     C311508   1.264   0.815   2.491  0.0333  0.0986  0.7689
  886THF     H411509   1.325   0.544   2.449 -1.0846 -1.5349 -2.0213
  886THF     H511510   1.157   0.521   2.435  2.1831 -1.0884 -0.7605
  886THF     H611511   1.327   0.884   2.434 -0.9432  0.8870  0.6168
  886THF     H711512   1.178   0.878   2.518 -0.7332 -1.0714  1.1147
  886THF     C811513   1.322   0.745   2.612  0.1719 -0.5300 -0.5132
  886THF     C911514   1.228   0.630   2.617 -0.2152  0.6046 -0.3958
  886THF    H1011515   1.316   0.801   2.705  0.4484 -1.7521  0.2630
  886THF    H1111516   1.426   0.715   2.604  0.6250  1.1141 -1.1116
  886THF    H1211517   1.255   0.546   2.682  1.1371  1.7571  0.5969
  886THF    H1311518   1.123   0.653   2.638 -0.3136  0.6526 -0.9380
  887THF     O111519   5.412   4.949   2.635  0.0920  0.5802 -0.1039
  887THF     C211520   5.467   5.059   2.693 -0.2218 -0.2143  0.1884
  887THF     C311521   5.269   4.959   2.639 -0.2247 -0.1411 -0.1047
  887THF     H411522   5.573   5.064   2.670 -0.4558 -0.0711 -0.9087
  887THF     H511523   5.446   5.055   2.800 -1.9693  0.0956 -0.1029
  887THF     H611524   5.216   4.884   2.581 -1.5369 -0.7060  1.7517
  887THF     H711525   5.244   4.935   2.742 -1.3807 -0.3396 -0.4171
  887THF     C811526   5.253   5.116   2.608 -0.0520  0.2253  0.0499
  887THF     C911527   5.390   5.170   2.629 -0.3625 -0.3891  0.3590
  887THF    H1011528   5.178   5.167   2.668  0.4400  1.3009 -0.2337
  887THF    H1111529   5.222   5.133   2.504  2.3909  0.8055 -0.6552
  887THF    H1211530   5.435   5.198   2.534 -2.3433  1.4566 -0.1396
  887THF    H1311531   5.407   5.265   2.681  1.1463 -1.0607  1.1443
  888THF     O111532   4.542   2.480   3.172 -0.2248  0.6562  0.5205
  888THF     C211533   4.487   2.590   3.102  0.0068 -0.7397 -0.2084
  888THF     C311534   4.574   2.382   3.073 -0.0987  0.2302 -0.2155
  888THF     H411535   4.564   2.661   3.071 -0.1154  0.2440  1.6607
  888THF     H511536   4.419   2.645   3.167  1.3849  0.9386 -0.1074
  888THF     H611537   4.669   2.408   3.027 -0.5938  2.9854  0.2032
  888THF     H711538   4.586   2.290   3.132  1.6761  0.7068  0.2165
  888THF     C811539   4.462   2.394   2.973 -0.1608  0.7775 -0.2593
  888THF     C911540   4.406   2.540   2.992  0.3424  0.0703  0.7698
  888THF    H1011541   4.384   2.327   3.008 -0.8060  1.2311 -0.8063
  888THF    H1111542   4.488   2.368   2.871 -0.1030 -2.2056  0.4274
  888THF    H1211543   4.424   2.609   2.909 -4.3827  0.1622 -0.4681
  888THF    H1311544   4.303   2.546   3.026  0.1790  1.9562  0.1035
  889THF     O111545   0.493   4.816   0.094  0.5960 -0.3444 -0.0826
  889THF     C211546   0.528   4.681   0.128  0.1815 -0.1086  0.0676
  889THF     C311547   0.351   4.824   0.088  0.0995  0.2780 -0.3169
  889THF     H411548   0.543   4.687   0.236  0.0147 -0.7899  0.1271
  889THF     H511549   0.629   4.665   0.089 -0.7418 -0.3889 -2.3823
  889THF     H611550   0.310   4.838   0.187  1.1638 -1.9194  0.5235
  889THF     H711551   0.314   4.887   0.007  0.4229 -1.9278 -2.2958
  889THF     C811552   0.307   4.688   0.032 -0.0677  0.7115  0.4921
  889THF     C911553   0.407   4.592   0.087 -0.0413  0.3118  0.1891
  889THF    H1011554   0.318   4.678  -0.076 -1.6654 -1.5583  0.4861
  889THF    H1111555   0.202   4.662   0.050  0.4452 -1.0176  1.1647
  889THF    H1211556   0.357   4.554   0.176  1.5190 -0.1050  0.9266
  889THF    H1311557   0.417   4.522   0.004 -1.0584  0.0146  0.3090
  890THF     O111558   0.468   0.842   5.229 -0.1641  0.4909  0.2080
  890THF     C211559   0.485   0.825   5.365  0.5545  0.0681 -0.2812
  890THF     C311560   0.581   0.918   5.184 -0.3970 -0.5352  0.8725
  890THF     H411561   0.457   0.725   5.399  2.9347 -0.6225 -0.1784
  890THF     H511562   0.414   0.898   5.404  2.0709  1.4309  0.0158
  890THF     H611563   0.595   0.901   5.077 -1.3238  0.5189  0.5668
  890THF     H711564   0.552   1.023   5.189  0.3887 -0.1952 -0.9446
  890THF     C811565   0.696   0.886   5.275 -0.7886 -0.0025  0.3263
  890THF     C911566   0.630   0.878   5.411 -0.4287 -0.1924 -0.2944
  890THF    H1011567   0.772   0.963   5.259  0.1259 -0.9710 -0.1194
  890THF    H1111568   0.732   0.786   5.250 -1.2986 -0.8310  2.6141
  890THF    H1211569   0.684   0.805   5.472  0.8164 -0.7312 -1.9761
  890THF    H1311570   0.618   0.973   5.463  0.1378 -0.0976 -0.3325
  891THF     O111571   2.055   4.421   5.267 -0.4825  0.0582 -0.7671
  891THF     C211572   2.179   4.487   5.238  0.1847  0.2957 -0.0281
  891THF     C311573   2.018   4.460   5.400 -0.2785 -0.2809  0.8326
  891THF     H411574   2.190   4.513   5.132  2.4686 -0.1453  0.0451
  891THF     H511575   2.257   4.415   5.264  0.1278  0.3615  0.3302
  891THF     H611576   1.909   4.457   5.406 -0.3444 -1.6703 -0.6289
  891THF     H711577   2.067   4.398   5.475 -0.1749 -3.5585 -1.7577
  891THF     C811578   2.059   4.605   5.405  0.4158  0.1572 -0.3085
  891THF     C911579   2.187   4.608   5.329 -0.5895  0.3410  0.8284
  891THF    H1011580   2.075   4.638   5.507 -1.6897  0.5871 -0.0799
  891THF    H1111581   1.986   4.672   5.359 -1.2769 -1.1453  0.3711
  891THF    H1211582   2.200   4.703   5.278  1.5625 -0.3404  0.0185
  891THF    H1311583   2.273   4.605   5.396  0.3201 -1.2754 -0.3214
  892THF     O111584   0.040   4.731   1.041  0.4175  0.2391 -0.1092
  892THF     C211585   0.098   4.857   1.022  0.7624  0.0802 -0.3987
  892THF     C311586  -0.023   4.725   1.173 -0.2358  0.0154  0.0585
  892THF     H411587   0.041   4.921   0.954  0.9132 -0.2226 -0.8116
  892THF     H511588   0.201   4.839   0.990  0.4074  1.2161 -2.3893
  892THF     H611589  -0.125   4.763   1.178  0.0838  1.1143 -1.2001
  892THF     H711590  -0.021   4.626   1.220 -1.4426  0.0962  0.3069
  892THF     C811591   0.063   4.813   1.261 -0.0826 -0.5345  0.7709
  892THF     C911592   0.104   4.925   1.160 -0.4470 -0.0690  0.2725
  892THF    H1011593   0.141   4.756   1.312 -2.3996 -4.1547  0.6095
  892THF    H1111594   0.011   4.843   1.352  0.5423 -0.3338  1.0754
  892THF    H1211595   0.037   5.011   1.165  0.4680  0.5944  2.1035
  892THF    H1311596   0.207   4.958   1.175 -0.3666  1.8323 -3.2371
  893THF     O111597   5.183   1.191   5.270 -0.7722  0.4490  0.0651
  893THF     C211598   5.275   1.179   5.171  0.1988 -0.5869  0.2681
  893THF     C311599   5.071   1.270   5.232 -0.0231 -0.6201 -0.8087
  893THF     H411600   5.334   1.088   5.187  0.5141 -0.4174  0.0838
  893THF     H511601   5.340   1.265   5.159  2.3133 -2.1186 -0.0175
  893THF     H611602   4.979   1.232   5.277 -1.6073  1.7296 -1.8355
  893THF     H711603   5.074   1.374   5.264 -0.8488 -1.4383  2.3059
  893THF     C811604   5.075   1.256   5.081  0.2695 -0.8869  0.3035
  893THF     C911605   5.187   1.167   5.053  0.0022 -0.0094  0.0361
  893THF    H1011606   5.092   1.356   5.041 -1.6575 -0.8602 -0.5556
  893THF    H1111607   4.974   1.220   5.060  0.0669  0.5431 -1.4141
  893THF    H1211608   5.142   1.068   5.059 -1.1136  0.3171 -2.0113
  893THF    H1311609   5.234   1.181   4.955  0.8713  0.3703  0.4959
  894THF     O111610   0.088   4.319   0.956 -0.3804 -0.2791 -0.1011
  894THF     C211611   0.036   4.218   0.869  0.5148  0.5804  0.0398
  894THF     C311612   0.166   4.258   1.059  0.2128 -0.1974 -0.2514
  894THF     H411613   0.127   4.194   0.816  0.0484  1.3731 -1.1594
  894THF     H511614  -0.035   4.249   0.792 -0.4385 -0.5819  0.4277
  894THF     H611615   0.267   4.251   1.018  0.8869 -0.7906  1.4139
  894THF     H711616   0.178   4.321   1.147 -2.2257 -0.6400  0.4972
  894THF     C811617   0.099   4.121   1.085 -0.0835 -0.7899 -0.7925
  894THF     C911618  -0.008   4.123   0.981 -0.0031 -0.2730 -0.5704
  894THF    H1011619   0.067   4.114   1.189  2.2041  0.7490  0.1160
  894THF    H1111620   0.164   4.035   1.069 -0.6484 -1.3191 -0.2935
  894THF    H1211621  -0.014   4.022   0.942 -1.5359 -0.4144 -0.0505
  894THF    H1311622  -0.100   4.151   1.032  0.7545  0.8811  0.2233
  895THF     O111623   3.684   0.757   4.124 -0.4135 -0.2153 -0.3253
  895THF     C211624   3.583   0.696   4.210  0.0303 -0.1377 -0.0618
  895THF     C311625   3.812   0.777   4.191  0.1073 -0.0817  0.4280
  895THF     H411626   3.520   0.630   4.151  0.0989  0.9180 -1.3712
  895THF     H511627   3.521   0.772   4.258 -2.1032 -0.1411 -2.5867
  895THF     H611628   3.900   0.794   4.130  0.9230 -2.1345  0.9353
  895THF     H711629   3.799   0.861   4.258  2.4081  0.3815  0.3665
  895THF     C811630   3.813   0.658   4.278  0.1561  0.5827 -0.0853
  895THF     C911631   3.668   0.615   4.312 -0.4115 -0.5405 -0.4562
  895THF    H1011632   3.872   0.673   4.369 -0.2752 -0.5194  0.3955
  895THF    H1111633   3.864   0.583   4.216  2.1478  0.1202  1.9715
  895THF    H1211634   3.643   0.510   4.326  0.9173 -0.6105  1.9908
  895THF    H1311635   3.654   0.668   4.406  0.7763  1.2721 -1.2559
  896THF     O111636   0.292   2.853   2.447 -0.0275  0.4640  0.0288
  896THF     C211637   0.431   2.825   2.435  0.2971 -0.3662  0.1457
  896THF     C311638   0.250   2.759   2.547 -0.1686  0.1424  0.0585
  896THF     H411639   0.477   2.901   2.372 -0.4210  0.2985  0.4108
  896THF     H511640   0.455   2.726   2.395  3.1488 -0.5479  1.9454
  896THF     H611641   0.160   2.786   2.602  0.1956 -0.6641  1.0994
  896THF     H711642   0.238   2.660   2.503  1.3008  0.6488 -1.5936
  896THF     C811643   0.365   2.739   2.648  0.2187 -0.0682 -0.1127
  896THF     C911644   0.476   2.824   2.581  0.6094 -0.1742  0.9570
  896THF    H1011645   0.405   2.640   2.673  2.8307  0.6700 -1.1356
  896THF    H1111646   0.343   2.789   2.743 -0.3043 -0.3227 -0.0969
  896THF    H1211647   0.478   2.923   2.627 -0.7135 -0.0389  0.7663
  896THF    H1311648   0.576   2.782   2.594  1.5293  2.1272  1.8543
  897THF     O111649   2.815   1.704   0.007 -0.0501  0.1118 -0.1159
  897THF     C211650   2.917   1.622  -0.039 -0.1059 -0.9050 -0.1773
  897THF     C311651   2.871   1.829   0.041  0.0430 -0.3019 -1.0149
  897THF     H411652   2.929   1.656  -0.142  0.4974  0.4179  0.3183
  897THF     H511653   2.887   1.517  -0.034 -1.0184 -0.6752 -0.5419
  897THF     H611654   2.889   1.898  -0.041 -3.8335  1.0811 -0.9142
  897THF     H711655   2.803   1.881   0.109  0.4860  0.3749 -1.0814
  897THF     C811656   2.997   1.788   0.112 -0.2538 -0.2157  0.3601
  897THF     C911657   3.038   1.656   0.045 -0.3384 -0.4317 -0.4778
  897THF    H1011658   2.983   1.769   0.219 -1.8967  0.6898  0.3445
  897THF    H1111659   3.074   1.864   0.114  0.3380 -0.7647 -0.6360
  897THF    H1211660   3.131   1.662  -0.012 -0.1262 -0.8862 -0.1841
  897THF    H1311661   3.059   1.581   0.121  2.5775  1.3761  0.6979
  898THF     O111662   5.130   2.142   2.789  0.0027 -0.1717 -0.0235
  898THF     C211663   5.046   2.113   2.677  0.7958 -0.0473 -0.0675
  898THF     C311664   5.058   2.236   2.876 -0.8894  0.6437  0.4825
  898THF     H411665   5.066   2.020   2.625 -1.7066 -1.0465  0.5799
  898THF     H511666   5.074   2.188   2.604  2.2022  1.1749  1.6433
  898THF     H611667   5.096   2.238   2.978 -1.7030  2.3744  0.7870
  898THF     H711668   5.062   2.336   2.833 -1.1792  1.2512  1.8062
  898THF     C811669   4.920   2.175   2.874  0.7221 -0.3652  0.0766
  898THF     C911670   4.903   2.122   2.729  0.2703  0.1305 -0.2004
  898THF    H1011671   4.839   2.243   2.898  1.0046 -0.0952  0.2662
  898THF    H1111672   4.912   2.090   2.942 -0.7304 -0.7410 -0.5248
  898THF    H1211673   4.845   2.030   2.734 -0.3037  0.5242  0.7694
  898THF    H1311674   4.848   2.192   2.665  0.8676 -0.4387 -1.3520
  899THF     O111675   1.306   4.753   1.849  0.2587 -0.2300 -0.5796
  899THF     C211676   1.318   4.892   1.814  0.3600 -0.3296  0.0598
  899THF     C311677   1.229   4.715   1.737  0.8513 -0.0778 -0.3758
  899THF     H411678   1.385   4.887   1.728 -1.2982 -2.1665 -1.2272
  899THF     H511679   1.369   4.955   1.887 -0.2070 -1.3679  1.4136
  899THF     H611680   1.290   4.715   1.647 -1.4597  2.1972 -2.1038
  899THF     H711681   1.185   4.616   1.748 -1.1555  0.8888  0.7409
  899THF     C811682   1.115   4.816   1.725  0.0694  0.1205  0.6458
  899THF     C911683   1.179   4.941   1.770  0.0028 -0.2778  0.0706
  899THF    H1011684   1.029   4.791   1.787 -0.2634  0.0755  0.1734
  899THF    H1111685   1.079   4.821   1.622  1.7720  1.6973  0.0887
  899THF    H1211686   1.194   5.018   1.694  0.8302  1.1088  1.5780
  899THF    H1311687   1.131   4.998   1.849 -0.0779  0.0891 -0.2383
  900THF     O111688   1.939   1.932   0.506 -0.0226 -0.5503 -0.3436
  900THF     C211689   2.060   1.852   0.551 -0.3603 -0.6880 -0.4157
  900THF     C311690   1.834   1.865   0.570  0.5109  0.3700  0.4675
  900THF     H411691   2.085   1.882   0.652  1.0296  3.6833 -1.8444
  900THF     H511692   2.145   1.871   0.484  0.4764 -0.0702  0.7927
  900THF     H611693   1.839   1.881   0.678 -2.1394  0.5044  0.6164
  900THF     H711694   1.733   1.902   0.554  0.4659  0.7097  1.4642
  900THF     C811695   1.854   1.718   0.544  0.3784 -0.0709 -0.3549
  900THF     C911696   2.005   1.710   0.549 -0.6576  0.0423 -0.2677
  900THF    H1011697   1.825   1.685   0.444 -1.2994 -0.9670  0.3832
  900THF    H1111698   1.807   1.648   0.613 -0.4241 -1.5195 -2.2515
  900THF    H1211699   2.033   1.670   0.646  0.1994  5.3312  2.0230
  900THF    H1311700   2.050   1.661   0.463  2.6897 -0.7485  1.7853
  901THF     O111701   0.916   1.068   2.258 -0.6062  0.1426 -0.1934
  901THF     C211702   0.912   0.939   2.191  0.4597  0.4644 -0.0660
  901THF     C311703   0.972   1.042   2.390  0.3393 -0.6044  0.5474
  901THF     H411704   1.005   0.917   2.138  0.7974  1.7640 -0.0418
  901THF     H511705   0.837   0.920   2.114  0.0430 -0.8611  0.6248
  901THF     H611706   1.077   1.015   2.386  0.5406  0.2782 -0.4859
  901THF     H711707   0.958   1.121   2.464 -2.1272 -0.4234 -0.0154
  901THF     C811708   0.901   0.918   2.425 -0.3485 -0.0855 -0.3152
  901THF     C911709   0.896   0.826   2.305  0.0872  0.1469  0.1921
  901THF    H1011710   0.801   0.948   2.455  0.4747 -0.1228  2.7605
  901THF    H1111711   0.954   0.873   2.509  1.1397 -0.8947 -1.6220
  901THF    H1211712   0.965   0.742   2.304  1.5394  1.2588  1.9161
  901THF    H1311713   0.802   0.772   2.297 -0.8145  1.2952  2.1821
  902THF     O111714   3.892   1.819   0.508 -0.0253  0.1042 -0.2703
  902THF     C211715   3.789   1.747   0.569 -0.1885 -0.1881 -0.3086
  902THF     C311716   3.988   1.831   0.613 -0.6215  0.0996  0.4279
  902THF     H411717   3.815   1.641   0.582  1.4988 -0.0754 -2.2985
  902THF     H511718   3.699   1.755   0.508 -0.1956 -0.2897 -0.3117
  902THF     H611719   4.046   1.738   0.610  1.3303  1.2682 -0.6767
  902THF     H711720   4.054   1.914   0.590 -1.2848  0.2346 -1.0938
  902THF     C811721   3.912   1.869   0.737  0.0117  0.6769  0.3896
  902THF     C911722   3.772   1.810   0.709  0.1405 -0.2978 -0.2233
  902THF    H1011723   3.905   1.978   0.733 -1.3415  0.5716 -1.4708
  902THF    H1111724   3.959   1.840   0.831  1.1897 -0.0311 -0.3797
  902THF    H1211725   3.755   1.727   0.777 -1.2152 -1.3431 -1.7582
  902THF    H1311726   3.691   1.882   0.707 -0.7237 -1.2379 -2.4341
  903THF     O111727   3.793   0.725   2.201 -0.2479 -0.0891 -0.8410
  903THF     C211728   3.855   0.721   2.334  0.0164  0.2341  0.1243
  903THF     C311729   3.896   0.687   2.114 -0.5185 -0.1164  0.2195
  903THF     H411730   3.868   0.615   2.357  0.1929 -0.5712 -3.1928
  903THF     H511731   3.796   0.774   2.409  0.2435  2.0406 -0.9270
  903THF     H611732   3.922   0.581   2.119 -0.4571 -0.0610  1.2386
  903THF     H711733   3.873   0.713   2.010  1.6907 -0.9259 -0.5360
  903THF     C811734   4.028   0.763   2.158 -0.4418 -0.6979 -0.8036
  903THF     C911735   3.989   0.781   2.309 -0.6032  0.3128  0.1648
  903THF    H1011736   4.049   0.855   2.104 -0.5138 -0.7360 -0.8965
  903THF    H1111737   4.106   0.688   2.152 -2.2530 -2.8516  0.6442
  903THF    H1211738   4.065   0.750   2.380  1.7608 -0.1020 -2.3661
  903THF    H1311739   3.975   0.887   2.331 -0.7841  0.4778 -0.7136
  904THF     O111740   2.715   3.368   1.557 -0.3909  0.5437  0.4725
  904THF     C211741   2.724   3.477   1.470 -0.2790 -0.9600  0.6961
  904THF     C311742   2.829   3.363   1.647 -0.4226  0.9796  0.0336
  904THF     H411743   2.687   3.565   1.523 -1.0555 -0.7757 -0.1291
  904THF     H511744   2.676   3.492   1.373  1.7141 -0.0088 -0.2046
  904THF     H611745   2.820   3.411   1.745 -1.4317  0.0046  0.4353
  904THF     H711746   2.850   3.258   1.665  0.8727  0.6027 -3.0914
  904THF     C811747   2.948   3.432   1.577 -0.3286  0.8030 -0.4101
  904THF     C911748   2.881   3.465   1.451  0.2236 -0.2122 -0.3647
  904THF    H1011749   3.034   3.368   1.555 -1.6984 -2.1419  2.0536
  904THF    H1111750   2.981   3.525   1.622  0.4465 -1.1369  3.4942
  904THF    H1211751   2.911   3.558   1.404  0.8435 -0.8598 -1.2708
  904THF    H1311752   2.900   3.377   1.391 -1.0531 -0.1224 -0.9352
  905THF     O111753   2.389   1.977   4.991 -0.3062 -0.1137  0.4834
  905THF     C211754   2.326   1.957   4.861 -0.3119 -0.0531 -0.5064
  905THF     C311755   2.529   1.955   4.974 -0.3584 -0.7150 -0.1153
  905THF     H411756   2.349   2.049   4.808  0.4684  1.0969  1.6925
  905THF     H511757   2.222   1.938   4.888 -0.1910 -2.5582 -1.4960
  905THF     H611758   2.576   2.047   4.938 -1.0460 -0.2474  0.1545
  905THF     H711759   2.574   1.928   5.070  0.1804 -0.7142 -0.3648
  905THF     C811760   2.536   1.836   4.881  0.8193  0.4790  0.1033
  905THF     C911761   2.394   1.828   4.807 -0.4655  0.4503 -0.5413
  905THF    H1011762   2.547   1.748   4.945  2.4720  1.5204  1.3444
  905THF    H1111763   2.620   1.842   4.812  0.6598  0.8242 -0.0577
  905THF    H1211764   2.393   1.826   4.698 -2.7890  0.3892 -0.5665
  905THF    H1311765   2.344   1.743   4.853  0.0359  1.1540  1.4203
  906THF     O111766   0.329   5.354   2.602 -0.1276 -0.0023  0.7862
  906THF     C211767   0.356   5.213   2.600  0.3297  0.1748  0.7810
  906THF     C311768   0.278   5.389   2.474 -0.0427 -0.1367 -0.2538
  906THF     H411769   0.304   5.167   2.684 -0.5431 -2.2649 -0.9742
  906THF     H511770   0.464   5.197   2.606  0.3114  0.1783  1.1493
  906THF     H611771   0.205   5.470   2.477 -1.5126 -1.4411  1.9834
  906THF     H711772   0.364   5.421   2.416  1.8352  0.0864  2.5161
  906THF     C811773   0.217   5.265   2.405 -0.0226 -0.6191 -0.2473
  906THF     C911774   0.310   5.159   2.463 -0.5254 -0.0539  0.1083
  906THF    H1011775   0.230   5.263   2.297 -0.1946 -0.9481 -0.2646
  906THF    H1111776   0.109   5.249   2.415  0.0315 -1.0082 -0.2587
  906THF    H1211777   0.269   5.058   2.463  1.7721 -1.0578 -0.3437
  906THF    H1311778   0.398   5.154   2.400  0.8955  3.8747  1.4562
  907THF     O111779   2.943   0.409   2.239 -0.1472 -0.5281  0.3865
  907THF     C211780   2.862   0.323   2.161  0.5369  0.5889 -0.5131
  907THF     C311781   3.073   0.396   2.193 -0.1833  0.1940  0.0285
  907THF     H411782   2.831   0.359   2.063  2.0261  1.2989 -0.7448
  907THF     H511783   2.775   0.297   2.222  1.6699 -0.2883  0.7971
  907THF     H611784   3.074   0.431   2.089 -2.5715  4.4213  1.1930
  907THF     H711785   3.155   0.451   2.240  0.8634 -0.2824 -1.1515
  907THF     C811786   3.088   0.242   2.204  0.4604 -0.6900  0.0911
  907THF     C911787   2.953   0.197   2.156  0.3786 -0.1287 -0.1618
  907THF    H1011788   3.110   0.213   2.307 -1.8231  0.6672  1.0479
  907THF    H1111789   3.164   0.213   2.132  0.3147 -0.0382 -0.3319
  907THF    H1211790   2.948   0.151   2.057  0.0489 -0.5330  0.0381
  907THF    H1311791   2.920   0.115   2.219 -2.6483 -0.3291 -1.8061
  908THF     O111792   4.299   3.310   3.084 -0.2740 -1.1698 -0.0810
  908THF     C211793   4.320   3.180   3.035  0.3253  0.0404  0.3811
  908THF     C311794   4.394   3.336   3.187  0.2999  1.3641  0.4400
  908THF     H411795   4.368   3.195   2.938  3.7110  0.8759  2.0531
  908THF     H511796   4.224   3.130   3.027 -0.7583  1.6806  2.2050
  908THF     H611797   4.485   3.383   3.149  1.4631 -0.2035  1.1625
  908THF     H711798   4.349   3.399   3.264 -0.7392 -0.6996  1.6018
  908THF     C811799   4.429   3.201   3.240 -0.0571  0.2904 -0.5229
  908THF     C911800   4.414   3.105   3.122  0.3667  0.7150 -0.2681
  908THF    H1011801   4.355   3.180   3.317  1.2488 -0.9423  0.4564
  908THF    H1111802   4.523   3.219   3.292 -0.7341  0.7005  0.5791
  908THF    H1211803   4.515   3.082   3.088 -0.0356 -3.0552  0.6583
  908THF    H1311804   4.370   3.012   3.157  3.3735 -1.8804 -2.7853
  909THF     O111805   3.842   5.034   2.997  0.0412  1.0316  0.0338
  909THF     C211806   3.716   4.966   2.994 -0.1423 -0.7227  0.0204
  909THF     C311807   3.935   4.947   2.928  0.5919  0.0231 -0.7559
  909THF     H411808   3.634   5.036   3.009 -0.2497 -0.6860 -0.6922
  909THF     H511809   3.716   4.907   3.086 -0.9248  0.3904  0.7648
  909THF     H611810   3.990   5.004   2.853  1.5512 -2.4512 -2.0662
  909THF     H711811   4.013   4.914   2.997 -0.2789 -1.3590 -0.3860
  909THF     C811812   3.855   4.833   2.860 -0.1965  0.1682 -0.1048
  909THF     C911813   3.713   4.883   2.865  0.6111  0.3597 -0.1934
  909THF    H1011814   3.868   4.740   2.916  0.2816  0.2712 -0.0422
  909THF    H1111815   3.891   4.809   2.760 -0.2620 -1.6617  0.2857
  909THF    H1211816   3.690   4.952   2.784 -1.8585 -1.2256 -0.9383
  909THF    H1311817   3.641   4.803   2.850 -0.1159  0.9417  0.1447
  910THF     O111818   3.832   0.455   3.425  0.2670 -0.3310  0.2133
  910THF     C211819   3.940   0.515   3.508 -0.5002  0.6100 -0.1384
  910THF     C311820   3.887   0.416   3.296  0.3782  0.0485  0.2628
  910THF     H411821   3.917   0.519   3.614 -0.7459  0.5474 -0.1888
  910THF     H511822   3.962   0.619   3.483 -3.4561  1.1552 -0.8247
  910THF     H611823   3.813   0.353   3.246 -0.6004  0.4991  1.1077
  910THF     H711824   3.911   0.509   3.245  0.3944  0.0112  0.2022
  910THF     C811825   4.020   0.355   3.339 -0.1272 -0.1197 -0.2885
  910THF     C911826   4.050   0.415   3.476 -1.0070  0.2664  0.5133
  910THF    H1011827   4.097   0.372   3.264 -1.6069  4.2933 -1.0799
  910THF    H1111828   4.009   0.247   3.355 -1.7876  0.1863  0.9415
  910THF    H1211829   4.063   0.326   3.536 -1.2925 -0.8355 -0.9996
  910THF    H1311830   4.139   0.479   3.476  0.3090 -1.4183 -1.4096
  911THF     O111831   1.700   2.560   3.220 -0.0724  0.6143 -0.5648
  911THF     C211832   1.746   2.498   3.100  0.5894 -0.9831  0.0689
  911THF     C311833   1.776   2.675   3.242 -0.4758  0.0814 -0.2261
  911THF     H411834   1.705   2.526   3.004  1.6826 -2.0149 -0.7312
  911THF     H511835   1.735   2.390   3.113  1.6140 -0.9440  1.6203
  911THF     H611836   1.749   2.746   3.163  0.4580 -1.4346 -2.0024
  911THF     H711837   1.757   2.722   3.338 -2.5118 -0.3342 -0.3868
  911THF     C811838   1.920   2.618   3.220  0.0845  0.4285  0.1999
  911THF     C911839   1.893   2.533   3.092 -0.1632  0.2687  0.0032
  911THF    H1011840   1.954   2.551   3.299 -0.3376  1.1700  1.0275
  911THF    H1111841   2.002   2.690   3.214  1.8947 -1.5370  0.1756
  911THF    H1211842   1.917   2.593   3.004 -0.8227 -1.1218 -1.1687
  911THF    H1311843   1.949   2.440   3.087 -1.2709 -0.3639 -1.7727
  912THF     O111844   3.934   2.800   3.795  0.9310  0.4888 -0.0289
  912THF     C211845   3.895   2.774   3.929  0.2201 -0.1942 -0.6373
  912THF     C311846   4.016   2.694   3.745 -0.0567 -0.1361 -0.0438
  912THF     H411847   3.793   2.810   3.940  0.7067  1.4933 -1.3701
  912THF     H511848   3.959   2.827   4.000  0.4106 -0.5321 -0.5542
  912THF     H611849   3.957   2.651   3.664 -0.4285 -1.0465  0.6921
  912THF     H711850   4.112   2.731   3.711 -0.6557  1.7615  0.1787
  912THF     C811851   4.028   2.584   3.855  0.5900  0.0457  0.3340
  912THF     C911852   3.916   2.625   3.957  0.4118 -0.3653 -0.5856
  912THF    H1011853   4.126   2.600   3.902 -0.1759 -0.0112  2.0247
  912THF    H1111854   4.025   2.480   3.824 -0.3639  0.1659 -0.0004
  912THF    H1211855   3.819   2.583   3.932  0.5062 -1.2676  0.4610
  912THF    H1311856   3.936   2.607   4.063 -0.9569  0.6208 -0.1288
  913THF     O111857   4.147   1.860   1.086  0.1064  0.0324 -0.0967
  913THF     C211858   4.260   1.871   1.001 -0.0353  0.5646  0.2258
  913THF     C311859   4.104   1.728   1.089 -0.2291 -0.0373 -0.4676
  913THF     H411860   4.348   1.833   1.053  0.2903  0.7421 -0.1942
  913THF     H511861   4.275   1.973   0.966  0.4294  0.0384 -1.1943
  913THF     H611862   4.134   1.681   1.182 -0.5102  1.4337  0.3957
  913THF     H711863   3.995   1.717   1.090 -0.1087 -1.3001 -0.2603
  913THF     C811864   4.147   1.664   0.956 -0.3197  0.6095  0.0114
  913THF     C911865   4.233   1.767   0.890 -0.2658 -0.7814 -0.2332
  913THF    H1011866   4.064   1.629   0.895 -1.4448  0.2628  1.6710
  913THF    H1111867   4.208   1.575   0.975 -0.3260 -0.1756 -3.1518
  913THF    H1211868   4.323   1.728   0.842  1.4940  1.1642  1.2882
  913THF    H1311869   4.176   1.814   0.811  0.3123  1.0003  0.3613
  914THF     O111870   2.754   3.499   0.060  0.2222  0.5421 -0.1739
  914THF     C211871   2.887   3.443   0.053 -0.1179 -0.1714 -0.8125
  914THF     C311872   2.743   3.573   0.186 -0.1302  0.0855 -0.0306
  914THF     H411873   2.914   3.455  -0.052  1.5356  2.6408 -0.1661
  914THF     H511874   2.897   3.338   0.081  0.3222 -0.3950 -1.7684
  914THF     H611875   2.669   3.653   0.173  1.4582  1.3489 -1.8585
  914THF     H711876   2.704   3.503   0.260  0.2837  1.0979  1.1754
  914THF     C811877   2.880   3.619   0.232 -0.5829 -0.5738  0.5606
  914THF     C911878   2.971   3.536   0.145 -0.0278 -0.1673 -0.4719
  914THF    H1011879   2.893   3.603   0.339  1.1258  0.5916  0.5491
  914THF    H1111880   2.895   3.725   0.216  1.0352 -0.7636  0.6868
  914THF    H1211881   3.027   3.612   0.091 -0.4721  0.1050 -0.5514
  914THF    H1311882   3.046   3.477   0.199  1.1222  2.2879  0.7732
  915THF     O111883   4.483   2.866   2.144  0.5598  0.4109  0.1105
  915THF     C211884   4.430   2.786   2.037  0.4061  0.1692  0.8349
  915THF     C311885   4.391   2.973   2.150 -0.1026  0.1319 -0.5665
  915THF     H411886   4.342   2.727   2.064  1.5045 -1.3212  1.3106
  915THF     H511887   4.512   2.729   1.995 -0.4863  1.3743 -2.9219
  915THF     H611888   4.300   2.931   2.193  0.0035  0.2333 -0.2354
  915THF     H711889   4.415   3.061   2.210  2.9995 -0.4103 -0.8402
  915THF     C811890   4.374   3.017   2.017  0.2459 -0.6129  1.3519
  915THF     C911891   4.398   2.889   1.934  0.2544 -0.3633 -0.1735
  915THF    H1011892   4.451   3.093   2.000 -1.3317  1.6611  3.6908
  915THF    H1111893   4.274   3.060   2.011  0.2324 -0.8344 -0.7555
  915THF    H1211894   4.317   2.852   1.872 -0.5642  0.3930  0.4119
  915THF    H1311895   4.484   2.892   1.868 -0.3459 -0.9262 -1.0041
  916THF     O111896   3.051   3.829   3.055 -0.6855  0.3488 -0.1044
  916THF     C211897   3.191   3.799   3.036  0.1533 -0.2772 -0.1024
  916THF     C311898   2.994   3.758   3.169 -0.1552  0.4726 -0.0667
  916THF     H411899   3.240   3.884   3.082 -0.8379  0.0252  0.4142
  916THF     H511900   3.203   3.804   2.928 -0.2076  1.3857 -0.0857
  916THF     H611901   2.933   3.827   3.226 -0.5926 -0.2992  0.4171
  916THF     H711902   2.931   3.676   3.133 -0.4641  1.2130 -1.2858
  916THF     C811903   3.114   3.689   3.233  0.7657  0.1221 -0.2849
  916THF     C911904   3.208   3.672   3.116  0.2261 -0.3435  0.6195
  916THF    H1011905   3.100   3.587   3.269  0.5151  0.8400  1.7920
  916THF    H1111906   3.159   3.758   3.305 -0.6633 -0.7107  1.4894
  916THF    H1211907   3.310   3.652   3.147 -0.2673 -1.6205  1.4980
  916THF    H1311908   3.167   3.587   3.061 -0.1497  0.5238 -0.4866
  917THF     O111909   5.404   0.104   5.059  0.0733 -0.2322  0.1924
  917THF     C211910   5.394   0.178   5.183 -0.2276 -0.5887  0.1697
  917THF     C311911   5.459  -0.028   5.095 -0.1396 -0.1750  0.7199
  917THF     H411912   5.288   0.200   5.200 -0.3425 -1.3612  0.4801
  917THF     H511913   5.457   0.267   5.176 -1.8338  0.7107  1.2648
  917THF     H611914   5.368  -0.088   5.100  1.5219 -2.8756  0.4960
  917THF     H711915   5.534  -0.071   5.029 -0.2457  0.9633 -0.1838
  917THF     C811916   5.531  -0.008   5.222  0.0186 -0.0657 -0.5528
  917THF     C911917   5.435   0.077   5.292 -0.1957  0.3134 -0.4318
  917THF    H1011918   5.631   0.034   5.220 -0.2721  0.7260  0.3558
  917THF    H1111919   5.550  -0.103   5.271 -0.3324 -0.9696 -2.1007
  917THF    H1211920   5.343   0.031   5.329  0.3386  0.8389  1.7035
  917THF    H1311921   5.471   0.143   5.371 -0.6678 -0.1516  0.1754
  918THF     O111922   3.858   5.156   0.853  0.5834 -0.0842 -0.1891
  918THF     C211923   3.930   5.044   0.892 -0.2097  0.0485 -0.1296
  918THF     C311924   3.931   5.238   0.758 -0.4509  0.1069 -1.0978
  918THF     H411925   3.874   4.951   0.881  2.6727 -1.8187 -0.0411
  918THF     H511926   3.980   5.053   0.988  1.4281  0.5141 -0.9887
  918THF     H611927   3.893   5.235   0.656  1.0136  2.2743 -1.7996
  918THF     H711928   3.925   5.343   0.787  0.6198 -0.0030 -0.3964
  918THF     C811929   4.076   5.193   0.769  0.2802  0.3684 -0.9110
  918THF     C911930   4.042   5.046   0.789  0.2386  0.0963  0.1713
  918THF    H1011931   4.124   5.249   0.848  1.2178  0.1366 -1.3112
  918THF    H1111932   4.138   5.210   0.681  1.2693  1.5380 -0.0115
  918THF    H1211933   4.007   5.003   0.695 -0.8177  1.0726  0.1016
  918THF    H1311934   4.128   4.988   0.823  0.2437 -0.0048 -0.0126
  919THF     O111935   5.346   0.565   2.185  0.5109  0.4178 -0.2883
  919THF     C211936   5.491   0.558   2.179  0.8062 -0.0705  1.0173
  919THF     C311937   5.288   0.429   2.171 -0.2424 -0.2575  0.0875
  919THF     H411938   5.528   0.603   2.271 -0.4364  2.4339  0.3808
  919THF     H511939   5.543   0.606   2.096  0.2706 -0.7961  0.2385
  919THF     H611940   5.194   0.420   2.226 -0.2512 -0.3461  0.0576
  919THF     H711941   5.277   0.410   2.065  1.6138 -0.8882 -0.0274
  919THF     C811942   5.392   0.347   2.239  0.4617 -0.0068 -0.2867
  919THF     C911943   5.515   0.404   2.169 -0.0033 -0.2539  0.1247
  919THF    H1011944   5.368   0.242   2.222  0.1184 -0.0937  0.6798
  919THF    H1111945   5.383   0.352   2.347 -0.3381 -0.3014 -0.3332
  919THF    H1211946   5.615   0.373   2.201 -0.2772 -2.6312 -1.0937
  919THF    H1311947   5.507   0.375   2.064 -1.8933  0.3041  0.0672
  920THF     O111948   0.091   3.953   0.656 -0.2614  0.0707 -0.0115
  920THF     C211949  -0.037   4.018   0.603  0.4084 -0.2686  0.5580
  920THF     C311950   0.104   3.825   0.596 -0.1711  0.4694  0.4799
  920THF     H411951   0.001   4.095   0.537 -0.5501  0.2153  0.5435
  920THF     H511952  -0.084   4.058   0.693  1.8447  2.6578  0.1203
  920THF     H611953   0.136   3.823   0.491 -1.0073 -0.8380  0.2254
  920THF     H711954   0.173   3.758   0.647 -2.6007 -2.1902  0.5161
  920THF     C811955  -0.044   3.775   0.595 -0.0677 -0.5087  0.0993
  920THF     C911956  -0.110   3.901   0.537 -0.0131 -0.1268 -0.3073
  920THF    H1011957  -0.071   3.756   0.698  1.0925  1.1573  0.7519
  920THF    H1111958  -0.061   3.695   0.523 -1.6655  1.2832 -1.6557
  920THF    H1211959  -0.084   3.901   0.431  1.9765  2.0334  0.1002
  920THF    H1311960  -0.218   3.916   0.541  0.3760  3.5854 -0.5821
  921THF     O111961   3.089   2.688   0.946 -0.7275 -0.1895  0.6506
  921THF     C211962   3.034   2.589   1.027 -0.1617 -0.0463  0.1155
  921THF     C311963   3.068   2.638   0.811 -0.0362 -0.1522 -0.3472
  921THF     H411964   3.013   2.611   1.132 -0.1570 -1.0752  0.3422
  921THF     H511965   3.103   2.505   1.032  1.7405  1.4043 -0.8284
  921THF     H611966   3.079   2.717   0.737 -0.7388  1.2281  0.9928
  921THF     H711967   3.135   2.556   0.782 -0.6995 -0.5894 -0.6556
  921THF     C811968   2.930   2.574   0.811  0.0207 -0.0483 -0.0430
  921THF     C911969   2.904   2.550   0.959 -0.4169 -0.3734 -0.1218
  921THF    H1011970   2.918   2.481   0.756  0.9648  0.4472 -1.1328
  921THF    H1111971   2.853   2.642   0.773  0.5218  0.0945 -0.8271
  921THF    H1211972   2.826   2.621   0.988 -1.5618 -1.7459  0.2898
  921THF    H1311973   2.870   2.450   0.986 -1.7164 -0.1020 -0.6552
  922THF     O111974   1.876   3.607   0.646  0.2663 -0.0913  0.3552
  922THF     C211975   1.930   3.484   0.618  0.0654  0.0125 -0.3940
  922THF     C311976   1.918   3.653   0.772 -0.0325  0.8085 -0.2519
  922THF     H411977   1.927   3.469   0.510 -1.2181  1.0090 -0.5289
  922THF     H511978   1.868   3.412   0.670  0.2478  1.5136  2.0478
  922THF     H611979   1.925   3.762   0.775 -0.4459  0.8223  0.4232
  922THF     H711980   1.832   3.630   0.834  0.6749 -1.2391  0.0415
  922THF     C811981   2.042   3.575   0.807  0.1718 -0.1466  0.1496
  922THF     C911982   2.069   3.505   0.674 -0.2093  0.3944 -0.4779
  922THF    H1011983   2.004   3.505   0.881 -1.4390  0.0351 -0.4752
  922THF    H1111984   2.134   3.617   0.848  1.4208 -2.0989 -0.5307
  922THF    H1211985   2.131   3.564   0.607 -1.5527  1.3898 -0.9120
  922THF    H1311986   2.118   3.412   0.701  0.3955  1.4419  2.3563
  923THF     O111987   1.855   4.045   3.492 -0.1506 -0.5375 -0.4941
  923THF     C211988   1.815   4.176   3.462  0.3408 -0.1766  0.2434
  923THF     C311989   1.755   3.967   3.440 -0.3084 -0.1580 -0.1888
  923THF     H411990   1.893   4.252   3.465 -0.0610  0.2457  0.0917
  923THF     H511991   1.742   4.215   3.533  0.2216  1.1327 -0.5761
  923THF     H611992   1.781   3.861   3.435 -0.4096 -0.1740 -0.3816
  923THF     H711993   1.676   3.975   3.514  1.4942 -0.6373  1.8898
  923THF     C811994   1.723   4.025   3.310  1.0069 -0.0316  0.3570
  923THF     C911995   1.756   4.171   3.324  0.2965 -0.0217 -0.1692
  923THF    H1011996   1.624   3.993   3.278  1.1240 -3.0604  2.5783
  923THF    H1111997   1.788   3.974   3.239  1.4753 -0.0659  0.8079
  923THF    H1211998   1.828   4.201   3.247  0.9214 -1.7694 -0.3201
  923THF    H1311999   1.662   4.225   3.323 -0.2460 -0.9273  0.8340
  924THF     O112000   0.715   0.515   2.511  0.1886 -0.4313 -0.1897
  924THF     C212001   0.798   0.464   2.605 -0.5979  0.1716 -0.5495
  924THF     C312002   0.618   0.608   2.573  0.0288  0.4210  0.4876
  924THF     H412003   0.882   0.530   2.624  0.9336 -1.7482 -0.3124
  924THF     H512004   0.828   0.366   2.567 -2.4357 -0.2255 -1.0884
  924THF     H612005   0.643   0.705   2.529 -2.3287  0.3803 -1.1526
  924THF     H712006   0.516   0.576   2.555  0.5566 -1.0735 -0.0144
  924THF     C812007   0.642   0.596   2.725  0.0904  0.0690 -0.2395
  924THF     C912008   0.706   0.461   2.737 -0.8573  0.6113  0.4864
  924THF    H1012009   0.551   0.605   2.784  0.4007 -0.7739  0.3813
  924THF    H1112010   0.708   0.677   2.756 -0.1663 -0.4821  1.8820
  924THF    H1212011   0.751   0.434   2.833 -3.3459  0.5041  1.7299
  924THF    H1312012   0.634   0.382   2.714 -0.9088  1.0879 -1.0718
  925THF     O112013   3.144   3.481   4.378  0.3876 -0.0836  0.2292
  925THF     C212014   3.171   3.468   4.247 -0.5350  0.0929  0.8356
  925THF     C312015   3.163   3.618   4.414 -0.4741  0.3940  0.4436
  925THF     H412016   3.098   3.519   4.184 -1.3418  0.2868  1.8997
  925THF     H512017   3.176   3.365   4.212  0.7597  0.7879 -1.2366
  925THF     H612018   3.075   3.674   4.383 -0.0725  0.3992 -0.7318
  925THF     H712019   3.189   3.635   4.519  1.1506 -0.1336  0.1455
  925THF     C812020   3.292   3.655   4.332  0.0820  0.0580 -0.3627
  925THF     C912021   3.307   3.543   4.237 -0.1320  0.1364 -0.3646
  925THF    H1012022   3.384   3.672   4.387  0.8275  0.3761 -1.6821
  925THF    H1112023   3.263   3.750   4.287 -2.8366 -0.1263  0.8630
  925THF    H1212024   3.325   3.562   4.131  1.0620  1.3593  0.0474
  925THF    H1312025   3.390   3.483   4.275  1.3680  1.9020 -0.7056
  926THF     O112026   2.381   0.672   4.639  0.3031 -0.4237 -0.3474
  926THF     C212027   2.273   0.767   4.635 -0.0562  0.4498 -0.0761
  926THF     C312028   2.386   0.646   4.776  0.1780 -0.0219 -0.2194
  926THF     H412029   2.180   0.713   4.655 -1.2824  0.6747 -4.2168
  926THF     H512030   2.264   0.819   4.540  0.7244  0.6045 -0.0700
  926THF     H612031   2.295   0.596   4.813  0.5577 -1.1658 -0.7705
  926THF     H712032   2.469   0.579   4.799  0.1252 -0.0366 -0.0727
  926THF     C812033   2.391   0.778   4.842 -0.1040 -0.6827  0.1661
  926THF     C912034   2.309   0.869   4.749  0.1362 -0.0559  0.6520
  926THF    H1012035   2.496   0.807   4.844  0.3411 -2.1820  2.7011
  926THF    H1112036   2.345   0.773   4.941 -0.8132  1.4042  0.0026
  926THF    H1212037   2.221   0.910   4.800 -1.0691  0.1318 -1.4516
  926THF    H1312038   2.367   0.947   4.700  0.1047 -1.2780 -1.4363
  927THF     O112039   5.269   3.478   1.817  0.4799 -0.3747  0.0276
  927THF     C212040   5.249   3.351   1.754  0.1106  0.5827  0.4838
  927THF     C312041   5.289   3.573   1.709  0.0728 -0.2377 -0.0206
  927THF     H412042   5.147   3.344   1.717 -0.6284  2.5332  2.0323
  927THF     H512043   5.258   3.280   1.837  2.7184  1.1837  0.7885
  927THF     H612044   5.193   3.608   1.671  0.0331  1.7071  1.6618
  927THF     H712045   5.329   3.663   1.757 -0.4712  0.7912 -1.4238
  927THF     C812046   5.378   3.494   1.617 -0.1039  0.2496 -0.3702
  927THF     C912047   5.362   3.344   1.651 -0.1075 -0.3846  0.0590
  927THF    H1012048   5.484   3.516   1.631 -0.2220 -0.2954  1.7488
  927THF    H1112049   5.355   3.510   1.512  0.1485  0.6430 -0.3673
  927THF    H1212050   5.334   3.286   1.562  1.7062  0.0454 -0.8423
  927THF    H1312051   5.455   3.296   1.682  0.3787  0.4187 -0.1265
  928THF     O112052   1.534   3.513   0.632  0.1966 -0.4563  0.2401
  928THF     C212053   1.412   3.578   0.666  0.5216  0.1339  0.3501
  928THF     C312054   1.546   3.397   0.702  0.0664 -0.4789  0.1912
  928THF     H412055   1.380   3.656   0.596  1.2529  0.1002 -0.0335
  928THF     H512056   1.406   3.622   0.766  0.8184 -1.8617  1.2824
  928THF     H612057   1.611   3.321   0.660  2.0789  1.4389 -0.3335
  928THF     H712058   1.596   3.414   0.798  0.7194 -1.5799  0.0610
  928THF     C812059   1.411   3.357   0.738 -0.3731 -1.0881 -0.3089
  928THF     C912060   1.319   3.458   0.679 -0.5902 -0.2297 -0.1096
  928THF    H1012061   1.401   3.348   0.846 -0.2741 -0.6461 -0.2646
  928THF    H1112062   1.390   3.255   0.705 -2.2006 -0.0116 -2.7798
  928THF    H1212063   1.285   3.424   0.581 -2.3792  1.2599 -0.0709
  928THF    H1312064   1.232   3.471   0.743  0.1596  0.1643  0.8502
  929THF     O112065   4.793   4.941   1.597 -0.0594 -0.3222  0.0990
  929THF     C212066   4.843   5.070   1.554 -0.2252 -0.5435  1.0226
  929THF     C312067   4.817   4.942   1.735 -0.4452 -0.1568  0.4485
  929THF     H412068   4.808   5.104   1.456  0.2295 -0.7645  0.7845
  929THF     H512069   4.951   5.065   1.550 -0.1556  1.0292 -0.8253
  929THF     H612070   4.764   4.858   1.780 -1.2998  1.2844  2.2700
  929THF     H712071   4.923   4.944   1.759 -0.3427  1.2173 -0.0448
  929THF     C812072   4.757   5.079   1.782 -0.2469 -0.0385  0.5685
  929THF     C912073   4.795   5.172   1.665 -0.0915 -0.3860 -0.0294
  929THF    H1012074   4.803   5.110   1.876 -1.0697  2.4510  0.2308
  929THF    H1112075   4.649   5.068   1.794 -0.2957 -0.7877 -0.4175
  929THF    H1212076   4.720   5.240   1.624  0.0939 -0.6515 -0.8342
  929THF    H1312077   4.873   5.239   1.702 -1.9157  0.2508  3.0601
  930THF     O112078   2.217   1.282   5.177  0.1676  0.1894  0.5525
  930THF     C212079   2.153   1.218   5.065 -0.6442 -0.1190 -0.5698
  930THF     C312080   2.309   1.188   5.234 -0.1903 -0.3371  0.0738
  930THF     H412081   2.229   1.218   4.986 -1.7478  0.5001 -1.6629
  930THF     H512082   2.064   1.266   5.024 -0.7541 -0.3516 -0.6061
  930THF     H612083   2.396   1.178   5.169 -0.2820 -3.4716  0.2985
  930THF     H712084   2.342   1.203   5.337  0.5891 -2.8791  0.2590
  930THF     C812085   2.219   1.062   5.227 -0.3174 -0.1260  0.0587
  930THF     C912086   2.136   1.077   5.101 -0.6779  0.1883  0.3351
  930THF    H1012087   2.162   1.052   5.320 -1.1325 -1.6739 -0.5668
  930THF    H1112088   2.276   0.969   5.215 -0.5742 -0.3701  0.6704
  930THF    H1212089   2.181   1.019   5.021  3.1562  1.1444  1.5650
  930THF    H1312090   2.033   1.044   5.118 -1.1242  0.2849 -1.9002
  931THF     O112091   3.690   0.835   1.162 -0.2792  0.1104  0.2501
  931THF     C212092   3.707   0.696   1.115 -0.4423 -0.1328  0.1269
  931THF     C312093   3.602   0.897   1.070  0.2702  0.6539 -0.2944
  931THF     H412094   3.725   0.626   1.197 -2.2250 -0.4581  0.2702
  931THF     H512095   3.795   0.691   1.051 -1.1663  0.7450 -0.9786
  931THF     H612096   3.558   0.990   1.107 -0.5126 -0.3203  1.3693
  931THF     H712097   3.667   0.915   0.985  0.6176  0.7614 -0.0081
  931THF     C812098   3.496   0.788   1.051 -0.1392  0.0416 -0.1308
  931THF     C912099   3.575   0.660   1.046 -0.1086  0.8064  0.2605
  931THF    H1012100   3.429   0.808   0.967 -0.3945  1.9681  0.4730
  931THF    H1112101   3.427   0.777   1.134 -0.3820  0.2651 -0.2984
  931THF    H1212102   3.517   0.589   1.106 -0.4298 -0.9142 -1.9503
  931THF    H1312103   3.594   0.617   0.948  3.0094 -3.5611  2.4640
  932THF     O112104   3.603   2.019   3.247  0.0037 -0.0836 -0.1091
  932THF     C212105   3.660   1.957   3.362  0.2828  0.3792 -0.0340
  932THF     C312106   3.507   2.116   3.290 -0.1940  0.6353 -0.5294
  932THF     H412107   3.733   2.023   3.410  0.1940  1.0412 -0.7745
  932THF     H512108   3.713   1.872   3.319  0.8676  0.8854 -0.3302
  932THF     H612109   3.559   2.197   3.341  1.2855 -0.1835 -0.6705
  932THF     H712110   3.431   2.150   3.220 -0.3157 -0.5100 -0.9880
  932THF     C812111   3.423   2.028   3.383  0.3057  0.1133 -0.2642
  932THF     C912112   3.532   1.938   3.445  0.0358  0.4503  0.1607
  932THF    H1012113   3.350   1.962   3.334 -1.9463  0.8345  1.9130
  932THF    H1112114   3.374   2.093   3.456  1.8222  0.4343  0.4943
  932THF    H1212115   3.556   1.962   3.548  0.4033  1.8288 -0.2339
  932THF    H1312116   3.507   1.832   3.442 -0.8878  0.6734 -0.8918
  933THF     O112117   4.547   3.974   4.990 -0.2822 -0.0047 -0.1939
  933THF     C212118   4.578   3.855   5.068 -0.2346 -0.3604  0.3212
  933THF     C312119   4.665   4.009   4.922  0.1754 -0.6531  0.4060
  933THF     H412120   4.584   3.776   4.993 -1.8248  1.9578 -2.4339
  933THF     H512121   4.503   3.826   5.142  1.2516 -0.0608  2.0084
  933THF     H612122   4.666   3.969   4.820  0.5398  0.4302 -0.0276
  933THF     H712123   4.660   4.116   4.906 -1.7546 -1.0355 -2.2280
  933THF     C812124   4.780   3.960   5.016  0.4467 -0.1584 -0.5561
  933THF     C912125   4.716   3.875   5.126  0.3552 -0.4226 -0.3179
  933THF    H1012126   4.837   4.038   5.065  1.4086 -1.1829 -0.0039
  933THF    H1112127   4.839   3.883   4.967  0.7928 -0.3659  0.1697
  933THF    H1212128   4.783   3.790   5.140  0.5175 -0.6070 -1.9245
  933THF    H1312129   4.703   3.931   5.218 -2.0433 -1.0337 -0.2305
  934THF     O112130   2.590   5.280   3.866 -0.2259  0.4146 -0.1502
  934THF     C212131   2.648   5.243   3.987  0.0818  0.3355 -0.0666
  934THF     C312132   2.446   5.260   3.875 -0.3805  0.2442 -0.1970
  934THF     H412133   2.744   5.292   3.996 -0.3884  1.2137  0.2521
  934THF     H512134   2.666   5.136   3.994  0.1840  0.2844 -0.9502
  934THF     H612135   2.393   5.315   3.796 -0.6242 -1.0473 -0.9577
  934THF     H712136   2.431   5.152   3.878 -0.2927  0.2341 -0.1253
  934THF     C812137   2.415   5.317   4.010 -0.3379 -0.2636  0.2281
  934THF     C912138   2.546   5.296   4.088  0.8679  0.0315 -0.4973
  934THF    H1012139   2.338   5.258   4.061  1.4305 -2.7543  0.1873
  934THF    H1112140   2.389   5.423   4.009  2.4022  0.4785 -0.8234
  934THF    H1212141   2.572   5.391   4.134 -1.3105  0.6178 -0.3829
  934THF    H1312142   2.528   5.214   4.158 -1.4247  1.0250  0.1539
  935THF     O112143   4.555   4.238   0.497 -0.1911 -0.1581 -0.0909
  935THF     C212144   4.533   4.103   0.455 -0.3518 -0.0206 -0.4494
  935THF     C312145   4.484   4.260   0.614  0.7991  0.6867  0.5508
  935THF     H412146   4.579   4.042   0.533 -0.8414  2.0742  1.5849
  935THF     H512147   4.583   4.063   0.367  0.1088 -0.2683 -0.0837
  935THF     H612148   4.534   4.209   0.697 -0.7075  0.6908  1.5034
  935THF     H712149   4.471   4.364   0.644 -2.1017 -0.1801  2.7622
  935THF     C812150   4.347   4.197   0.574 -0.0126  0.0585  0.1918
  935THF     C912151   4.382   4.094   0.460 -0.4015  0.0873  0.0579
  935THF    H1012152   4.282   4.278   0.539  1.0482  0.3462 -1.2352
  935THF    H1112153   4.305   4.142   0.658 -0.7518  2.3796  1.4315
  935THF    H1212154   4.340   3.994   0.470 -3.4827  1.1072 -1.4898
  935THF    H1312155   4.351   4.132   0.363  1.1023 -0.6681 -0.7646
  936THF     O112156   3.568   3.567   1.783 -0.7199 -0.0032  0.3825
  936THF     C212157   3.524   3.692   1.838 -0.3242  0.0070 -0.2884
  936THF     C312158   3.536   3.468   1.876 -0.4096 -0.5378 -1.0475
  936THF     H412159   3.415   3.701   1.833 -0.1746  3.0493  0.0308
  936THF     H512160   3.568   3.779   1.790 -0.6916 -0.2075 -1.0380
  936THF     H612161   3.431   3.439   1.868 -0.3729 -0.9898 -0.0046
  936THF     H712162   3.581   3.370   1.861  0.4727 -0.2354 -0.4256
  936THF     C812163   3.573   3.532   2.011 -0.1317  0.6494 -0.9536
  936THF     C912164   3.575   3.680   1.987 -0.3475 -0.3679  0.5451
  936THF    H1012165   3.672   3.495   2.040  0.3349  2.3756 -0.1792
  936THF    H1112166   3.495   3.525   2.087  0.5222 -0.5498 -0.3543
  936THF    H1212167   3.506   3.731   2.054 -0.3390 -0.9286  0.9844
  936THF    H1312168   3.676   3.722   1.992 -1.8339  3.6540  0.7237
  937THF     O112169   4.237   2.815   3.281 -0.5798  0.4225 -0.0057
  937THF     C212170   4.165   2.852   3.397  0.0462 -0.3664  0.2649
  937THF     C312171   4.147   2.827   3.169 -0.2775 -0.5072  0.8104
  937THF     H412172   4.153   2.960   3.388  1.5476 -0.1466  0.6527
  937THF     H512173   4.226   2.819   3.481  1.6437  1.8582  0.0692
  937THF     H612174   4.127   2.926   3.129 -0.1977 -1.3361 -1.4220
  937THF     H712175   4.187   2.766   3.088 -0.1067 -0.2059  0.6677
  937THF     C812176   4.020   2.758   3.222 -0.4662 -0.5634 -0.5245
  937THF     C912177   4.031   2.780   3.371 -0.3439  0.1121  0.6294
  937THF    H1012178   4.023   2.652   3.195 -1.0016 -0.0374 -2.9243
  937THF    H1112179   3.931   2.803   3.176  0.4005 -1.4337 -3.2661
  937THF    H1212180   3.954   2.846   3.412 -1.4096 -1.9437  2.1425
  937THF    H1312181   4.026   2.685   3.425  2.5751 -0.3172  0.2864
  938THF     O112182   0.247   0.686   1.488  0.0799  0.6380 -0.2428
  938THF     C212183   0.160   0.721   1.375 -0.6421 -0.5696  0.3098
  938THF     C312184   0.374   0.665   1.443  0.1664 -0.2801  0.3943
  938THF     H412185   0.206   0.814   1.340  2.5444 -1.3347  2.0846
  938THF     H512186   0.052   0.718   1.388 -0.8103 -0.3363 -0.9445
  938THF     H612187   0.408   0.762   1.408 -0.5758 -1.0737 -2.8704
  938THF     H712188   0.451   0.622   1.508  1.1691  1.1865  0.2244
  938THF     C812189   0.348   0.576   1.319  0.0246 -0.1601  0.3310
  938THF     C912190   0.200   0.612   1.277  0.3470 -0.3776 -0.5096
  938THF    H1012191   0.361   0.470   1.339  0.6991  0.0062  0.7831
  938THF    H1112192   0.419   0.598   1.239 -1.1483 -0.1596 -0.7425
  938THF    H1212193   0.184   0.637   1.172 -1.5426  0.2453 -0.1229
  938THF    H1312194   0.138   0.527   1.305 -2.3069  2.1747  2.1229
  939THF     O112195   0.821   2.309   2.674  0.3394 -0.0554  0.5930
  939THF     C212196   0.841   2.390   2.792  0.0258 -0.4651  0.1042
  939THF     C312197   0.711   2.225   2.694  0.1106  0.6246  0.4514
  939THF     H412198   0.795   2.489   2.786  0.7162 -0.2002 -1.1530
  939THF     H512199   0.949   2.398   2.800 -0.0057  0.4913 -0.2979
  939THF     H612200   0.619   2.283   2.679  0.3561  0.4808 -1.9731
  939THF     H712201   0.716   2.145   2.621  1.3649  1.5750 -0.5410
  939THF     C812202   0.735   2.185   2.833 -0.4536 -0.5455  0.3386
  939THF     C912203   0.784   2.305   2.902  0.5296 -0.6145 -0.2372
  939THF    H1012204   0.815   2.111   2.829 -0.6655 -0.7230 -0.9645
  939THF    H1112205   0.644   2.141   2.875 -0.4532 -1.3439 -0.4490
  939THF    H1212206   0.705   2.364   2.950  1.0366  0.2813 -0.4860
  939THF    H1312207   0.855   2.272   2.978  1.0634 -0.8383 -0.8241
  940THF     O112208   1.079   3.361   1.672 -0.1720  0.1022 -0.0668
  940THF     C212209   1.011   3.483   1.718  0.5392 -0.1358  0.3994
  940THF     C312210   1.089   3.277   1.792  0.1799 -0.1028  0.1356
  940THF     H412211   0.941   3.525   1.646  0.5656  0.6778  0.8384
  940THF     H512212   1.085   3.560   1.739  0.2096  2.0118 -4.8242
  940THF     H612213   1.092   3.172   1.760 -0.3790  0.2698 -1.1960
  940THF     H712214   1.173   3.291   1.860 -0.4448 -3.2468  1.7869
  940THF     C812215   0.954   3.298   1.853  0.4136  0.1067  0.0835
  940THF     C912216   0.920   3.444   1.842 -0.3064  0.1261  0.4883
  940THF    H1012217   0.946   3.261   1.955 -0.5002 -0.9163 -0.3343
  940THF    H1112218   0.889   3.242   1.786  1.1184 -1.0174  0.3190
  940THF    H1212219   0.813   3.455   1.826 -0.3015  1.4149  1.1822
  940THF    H1312220   0.952   3.509   1.924  0.2770  1.5471 -0.8052
  941THF     O112221   4.477   2.583   5.342 -0.3640  0.5515  0.7998
  941THF     C212222   4.377   2.668   5.394 -0.7462 -0.0873  0.0703
  941THF     C312223   4.454   2.444   5.376  0.1534  0.3379 -0.4887
  941THF     H412224   4.326   2.701   5.304 -0.9068  0.3615  0.3265
  941THF     H512225   4.429   2.753   5.437  0.1822 -0.5769 -0.0485
  941THF     H612226   4.384   2.383   5.319 -0.7708 -0.4709  1.4395
  941THF     H712227   4.555   2.408   5.394  0.4564  1.4066  0.0061
  941THF     C812228   4.376   2.455   5.506  0.0215 -0.1129  0.2058
  941THF     C912229   4.295   2.578   5.482  0.3716  0.0364  0.0192
  941THF    H1012230   4.449   2.491   5.579 -0.9965  0.2354  1.0873
  941THF    H1112231   4.316   2.373   5.545  0.5383 -0.9406 -0.7157
  941THF    H1212232   4.210   2.537   5.426  2.2450 -1.2352 -2.0669
  941THF    H1312233   4.261   2.629   5.572 -0.1906  1.3702 -0.8967
  942THF     O112234   0.648   4.682   3.863 -0.1867 -0.2742 -0.1051
  942THF     C212235   0.660   4.576   3.960  0.9440  0.6000  0.0618
  942THF     C312236   0.514   4.722   3.864 -0.0744 -0.0030 -1.1082
  942THF     H412237   0.763   4.556   3.992  0.9686  0.0116 -0.3640
  942THF     H512238   0.618   4.481   3.928 -1.0662  1.2396  0.7060
  942THF     H612239   0.485   4.808   3.804 -3.2150  0.7181  1.1601
  942THF     H712240   0.454   4.635   3.837 -2.2011  0.4292  1.7509
  942THF     C812241   0.507   4.756   4.024  0.3620 -0.5716  0.0432
  942THF     C912242   0.580   4.632   4.081 -0.0338  0.2343  0.2143
  942THF    H1012243   0.404   4.768   4.057  0.8949 -0.1984  1.6461
  942THF    H1112244   0.558   4.845   4.061 -0.2893 -0.7073  1.3560
  942THF    H1212245   0.636   4.666   4.168 -0.1702  3.5357 -0.8405
  942THF    H1312246   0.504   4.569   4.128  0.6563  0.4297  1.6345
  943THF     O112247   0.999   5.062   0.669 -0.1901  0.2532  0.5898
  943THF     C212248   1.096   5.161   0.709 -0.2709 -0.1926  0.2001
  943THF     C312249   0.967   5.096   0.535  0.3339 -0.5035 -0.7238
  943THF     H412250   1.198   5.147   0.673 -0.2189  0.8623 -0.0816
  943THF     H512251   1.106   5.160   0.817  3.2764 -0.4125 -0.0022
  943THF     H612252   1.051   5.070   0.471  1.0794  0.7628 -0.3016
  943THF     H712253   0.885   5.038   0.491  0.0275 -0.1668 -0.6040
  943THF     C812254   0.944   5.251   0.539 -0.7984 -0.7104  0.2561
  943THF     C912255   1.039   5.292   0.654  0.5577 -0.1148  0.8239
  943THF    H1012256   0.842   5.269   0.573 -1.1786 -0.7865 -0.8087
  943THF    H1112257   0.956   5.304   0.445  1.5800 -3.2228 -1.0179
  943THF    H1212258   1.132   5.345   0.630 -0.0397  0.7587  0.3718
  943THF    H1312259   0.981   5.343   0.730  0.8602  2.0582 -0.2976
  944THF     O112260   2.669   1.965   2.094  0.1864 -0.2958 -0.6681
  944THF     C212261   2.553   1.897   2.050  0.2530  0.3653  0.0329
  944THF     C312262   2.780   1.876   2.070  0.1606 -0.5743  0.4303
  944THF     H412263   2.528   1.925   1.947  0.4932  1.7155  0.3177
  944THF     H512264   2.464   1.929   2.106 -1.0050  0.3908 -1.8758
  944THF     H612265   2.811   1.874   1.965  2.5704  0.7570  1.0285
  944THF     H712266   2.868   1.894   2.131 -0.5134 -1.6672  1.7901
  944THF     C812267   2.717   1.741   2.110  0.8839 -0.2790 -0.0581
  944THF     C912268   2.573   1.746   2.074 -0.5642  0.2044 -0.3976
  944THF    H1012269   2.734   1.735   2.218  1.4823  0.7048 -0.0795
  944THF    H1112270   2.767   1.656   2.064  0.0192 -0.6947 -0.2306
  944THF    H1212271   2.564   1.693   1.980  0.1536 -0.8924  0.1344
  944THF    H1312272   2.510   1.697   2.149 -0.4698 -3.0821 -2.3216
  945THF     O112273   0.111   1.355   1.428  0.0679 -0.3945 -0.1174
  945THF     C212274  -0.008   1.280   1.434  0.2544  0.4084  1.1392
  945THF     C312275   0.169   1.332   1.555 -0.4729 -0.1144 -0.5196
  945THF     H412276   0.024   1.175   1.431  0.2006  0.4208 -1.0488
  945THF     H512277  -0.067   1.301   1.346  0.1570 -0.8627  0.8853
  945THF     H612278   0.216   1.233   1.560  1.2246  0.6915  0.3218
  945THF     H712279   0.246   1.403   1.585 -0.1033 -0.4436 -0.6819
  945THF     C812280   0.049   1.338   1.655  0.4171  1.0017 -0.1938
  945THF     C912281  -0.069   1.310   1.568  0.4368  0.5230 -0.6790
  945THF    H1012282   0.021   1.432   1.703 -0.5034  0.5882  0.1040
  945THF    H1112283   0.070   1.283   1.747 -0.2812  1.7621  0.4400
  945THF    H1212284  -0.124   1.222   1.602  0.5630  1.0392  0.9650
  945THF    H1312285  -0.136   1.395   1.565  1.4557  1.3190 -1.9796
  946THF     O112286   0.445   1.156   0.073 -0.1068 -0.3262  0.6222
  946THF     C212287   0.378   1.282   0.078 -0.2089  0.7646  0.4946
  946THF     C312288   0.515   1.139   0.198 -0.0244  0.1297 -0.3595
  946THF     H412289   0.301   1.272   0.154  0.5888  1.3110  1.4046
  946THF     H512290   0.337   1.321  -0.015 -2.9475  0.2349  1.3951
  946THF     H612291   0.445   1.103   0.274  0.6328  0.5321  0.4504
  946THF     H712292   0.608   1.088   0.174  0.0799  0.1497  0.0071
  946THF     C812293   0.553   1.287   0.240 -0.1039  0.2688 -0.8408
  946THF     C912294   0.494   1.373   0.136 -0.5751 -0.4070 -0.3301
  946THF    H1012295   0.661   1.299   0.235  0.2563 -1.3918  1.1895
  946THF    H1112296   0.516   1.305   0.341 -0.2252 -0.1014 -0.8175
  946THF    H1212297   0.459   1.471   0.166 -2.5987 -0.8037 -1.2037
  946THF    H1312298   0.565   1.380   0.054 -0.7048  0.8718 -0.3521
  947THF     O112299   2.253   0.955   0.817 -0.4811  0.5556 -0.4315
  947THF     C212300   2.222   0.973   0.959 -0.2096  0.6287 -0.6026
  947THF     C312301   2.220   1.077   0.754  0.0344 -0.1549 -0.7142
  947THF     H412302   2.299   1.037   1.001  0.5385 -0.7168  0.1568
  947THF     H512303   2.218   0.876   1.010 -1.5220  0.3543 -1.1945
  947THF     H612304   2.300   1.148   0.773 -0.9153  0.1726  2.6494
  947THF     H712305   2.206   1.056   0.648 -5.3465  0.9718 -0.5081
  947THF     C812306   2.088   1.121   0.821  0.5001  0.2470  0.3088
  947THF     C912307   2.090   1.053   0.957  0.1703  0.3962 -0.3037
  947THF    H1012308   2.002   1.084   0.766  1.3630 -1.5078  0.0762
  947THF    H1112309   2.080   1.228   0.838  1.7920  0.3242  0.4804
  947THF    H1212310   2.071   1.119   1.042 -1.8772  0.5255 -0.8119
  947THF    H1312311   2.007   0.983   0.959 -1.6984  2.5045  1.5107
  948THF     O112312   0.964   2.839   3.514  0.2167 -0.2963  0.1681
  948THF     C212313   0.962   2.855   3.374  0.0838  0.0000  0.0173
  948THF     C312314   1.093   2.839   3.553 -0.5110 -0.4543  0.5711
  948THF     H412315   0.870   2.913   3.376  0.3220  0.4382  2.9246
  948THF     H512316   0.934   2.768   3.314 -0.3392  0.3954 -0.3712
  948THF     H612317   1.094   2.842   3.662 -1.8893  0.4510  0.5963
  948THF     H712318   1.140   2.746   3.524  0.0340 -0.3800  1.1983
  948THF     C812319   1.156   2.960   3.488 -0.1978  0.2815 -0.1147
  948THF     C912320   1.090   2.936   3.347 -0.3744  0.9914 -0.0831
  948THF    H1012321   1.265   2.957   3.481 -0.2225 -3.4407 -1.3690
  948THF    H1112322   1.119   3.054   3.528  1.8906  0.9239  0.4099
  948THF    H1212323   1.084   3.033   3.298  1.4062  0.6744 -0.9990
  948THF    H1312324   1.158   2.873   3.290 -0.6811  0.4463  0.1528
  949THF     O112325   2.601   5.143   0.366  0.4051 -0.2191 -0.5791
  949THF     C212326   2.742   5.112   0.363  0.0212  0.1004 -1.1556
  949THF     C312327   2.577   5.215   0.243  0.3058  0.6733  0.5780
  949THF     H412328   2.767   5.050   0.449 -2.8273 -2.4503 -1.9808
  949THF     H512329   2.797   5.206   0.361  2.0610 -1.0357 -1.0262
  949THF     H612330   2.471   5.214   0.217  0.2809 -1.7643  0.5518
  949THF     H712331   2.617   5.317   0.235  1.2654  0.2022 -1.5070
  949THF     C812332   2.656   5.126   0.148 -0.4979  0.4870 -0.2088
  949THF     C912333   2.763   5.048   0.229  0.5029 -0.0218 -0.7453
  949THF    H1012334   2.694   5.177   0.059 -2.3502 -1.1539 -2.0413
  949THF    H1112335   2.588   5.048   0.112 -1.1556  0.3829  1.2111
  949THF    H1212336   2.730   4.945   0.245  2.0871 -0.1346  2.5320
  949THF    H1312337   2.863   5.065   0.190 -0.0816 -2.0667 -3.4602
  950THF     O112338   4.952   1.591   2.898 -0.1779 -0.1312 -0.6384
  950THF     C212339   4.867   1.665   2.988 -0.2810 -0.8913  0.2633
  950THF     C312340   5.084   1.642   2.907 -0.3608 -0.2340 -0.1745
  950THF     H412341   4.779   1.605   3.010 -1.0549 -0.3063 -1.0948
  950THF     H512342   4.838   1.759   2.941  0.7952  0.0430  1.3633
  950THF     H612343   5.147   1.557   2.931 -0.5877 -0.0702  1.0917
  950THF     H712344   5.114   1.690   2.814  0.7560 -2.7935 -1.2228
  950THF     C812345   5.083   1.733   3.029  0.8956 -0.5354  0.4242
  950THF     C912346   4.956   1.696   3.107  0.2697  0.7945  0.2491
  950THF    H1012347   5.068   1.833   2.988 -1.2625 -1.5462 -1.5209
  950THF    H1112348   5.172   1.725   3.091  1.9702 -0.6155 -1.0669
  950THF    H1212349   4.976   1.604   3.162  1.3807  1.4755  1.0035
  950THF    H1312350   4.932   1.781   3.171 -0.0315  0.2806  0.8234
  951THF     O112351   5.345   4.765   4.852  0.5958 -0.0985  0.4609
  951THF     C212352   5.345   4.855   4.736 -0.1298  0.1569  0.0378
  951THF     C312353   5.211   4.727   4.889 -0.3526 -0.7609 -0.3296
  951THF     H412354   5.385   4.828   4.638 -2.4485  0.6504 -1.1005
  951THF     H512355   5.422   4.925   4.770  0.5921 -0.4985 -0.2118
  951THF     H612356   5.185   4.648   4.818 -0.0895 -0.2383 -1.0181
  951THF     H712357   5.210   4.688   4.990  0.4474  0.3126  0.1118
  951THF     C812358   5.131   4.853   4.872  0.2114 -0.1306 -0.3775
  951THF     C912359   5.198   4.915   4.751 -0.3317 -0.1253  0.1541
  951THF    H1012360   5.138   4.901   4.970  1.0547 -0.7598 -0.1155
  951THF    H1112361   5.024   4.830   4.867  0.1560  0.2986 -1.3275
  951THF    H1212362   5.147   4.891   4.658  0.9209  1.7288 -1.0787
  951THF    H1312363   5.216   5.022   4.753  1.2755 -0.2917 -1.9282
  952THF     O112364   0.241   3.830   3.127 -0.4232 -0.5634  0.4277
  952THF     C212365   0.308   3.805   3.008 -0.0630  0.2613 -0.2246
  952THF     C312366   0.324   3.904   3.207 -0.7226  0.7570 -0.1429
  952THF     H412367   0.263   3.867   2.930 -0.4638  0.1040 -0.1225
  952THF     H512368   0.302   3.699   2.981  1.1715  0.1674 -0.1669
  952THF     H612369   0.263   3.986   3.244  1.6063  1.3192  2.8991
  952THF     H712370   0.358   3.847   3.293 -2.3606 -1.2743 -0.7684
  952THF     C812371   0.445   3.955   3.129 -0.3486 -0.0337 -0.1961
  952THF     C912372   0.456   3.843   3.031 -0.1115  0.5316 -0.0939
  952THF    H1012373   0.517   3.961   3.210 -1.7697 -0.4987  1.1502
  952THF    H1112374   0.431   4.050   3.078 -3.1585 -0.2125  0.0665
  952THF    H1212375   0.505   3.866   2.937 -0.8848  1.9968 -0.1814
  952THF    H1312376   0.515   3.760   3.068  1.6354  1.4052 -0.8100
  953THF     O112377   4.708   4.272   3.465  0.3919 -0.6062  0.1751
  953THF     C212378   4.648   4.282   3.335 -0.7159  0.5251  0.3234
  953THF     C312379   4.693   4.394   3.536 -0.0224 -0.1977  0.6005
  953THF     H412380   4.619   4.186   3.293 -1.2738  0.2013  1.4390
  953THF     H512381   4.706   4.343   3.265  1.8304 -0.3576  1.5365
  953THF     H612382   4.655   4.357   3.631 -0.1029  0.6490  0.9063
  953THF     H712383   4.785   4.452   3.550  2.3910 -3.6583  0.2621
  953THF     C812384   4.586   4.484   3.468 -0.3519 -0.5173  0.3017
  953THF     C912385   4.528   4.377   3.377  0.6610 -0.1928 -0.4061
  953THF    H1012386   4.622   4.564   3.404 -0.1245 -2.6495 -2.4433
  953THF    H1112387   4.512   4.529   3.534 -1.0753  0.4563 -1.1225
  953THF    H1212388   4.445   4.320   3.420  1.4315 -0.7509  0.3726
  953THF    H1312389   4.487   4.427   3.290 -1.5609 -1.8652 -0.4060
  954THF     O112390   1.720   3.250   1.624  0.2978  0.3304 -0.2297
  954THF     C212391   1.589   3.286   1.578  0.6100  0.4850  0.1677
  954THF     C312392   1.765   3.143   1.545  0.5238  0.5598 -0.8719
  954THF     H412393   1.590   3.324   1.476  0.1573 -0.6483 -0.2803
  954THF     H512394   1.539   3.355   1.647  2.0383  1.6413  0.0861
  954THF     H612395   1.791   3.172   1.443  0.9221  0.0109 -0.9284
  954THF     H712396   1.851   3.106   1.601  0.1246  0.4810 -0.3042
  954THF     C812397   1.643   3.055   1.533 -0.8609 -0.4078 -0.4139
  954THF     C912398   1.522   3.147   1.563 -0.1305 -0.4011 -0.3976
  954THF    H1012399   1.640   2.971   1.603 -0.3514 -0.5451 -0.5508
  954THF    H1112400   1.647   3.007   1.435  2.1593  0.1727 -0.6727
  954THF    H1212401   1.455   3.143   1.478  0.8749  1.2387 -1.3270
  954THF    H1312402   1.486   3.118   1.661 -0.6857  0.6624 -0.2721
  955THF     O112403   4.072   3.563   3.177 -0.1190 -0.0514 -0.4305
  955THF     C212404   4.195   3.635   3.188 -0.3603  0.0544 -0.3881
  955THF     C312405   3.987   3.611   3.280  0.4647 -0.0787  0.4919
  955THF     H412406   4.190   3.725   3.127 -0.7051  0.0402 -0.3815
  955THF     H512407   4.282   3.578   3.157 -0.7225 -1.9543  1.9443
  955THF     H612408   3.916   3.677   3.230 -0.2399 -2.2503 -1.5553
  955THF     H712409   3.943   3.524   3.329  0.8569 -0.6089 -0.0881
  955THF     C812410   4.065   3.690   3.383 -0.2097  0.4678  0.4958
  955THF     C912411   4.205   3.664   3.340  0.4033  0.3638  0.2610
  955THF    H1012412   4.047   3.671   3.489 -0.2138 -0.4580  0.3337
  955THF    H1112413   4.033   3.794   3.377 -3.5149 -0.4279  0.9719
  955THF    H1212414   4.267   3.752   3.356  0.7991  0.3001 -0.8361
  955THF    H1312415   4.255   3.578   3.384  0.7233 -0.0248 -0.8288
  956THF     O112416   1.008   0.500   3.871  0.5571  0.3320  0.8935
  956THF     C212417   0.887   0.465   3.941 -0.6635  0.3827 -0.3273
  956THF     C312418   1.097   0.524   3.973 -0.0847 -0.8706  0.0613
  956THF     H412419   0.819   0.421   3.868 -1.7190  1.8068 -0.2596
  956THF     H512420   0.837   0.548   3.992 -1.8066 -0.6026  0.2213
  956THF     H612421   1.197   0.523   3.929  0.1318  2.1081  0.2400
  956THF     H712422   1.077   0.625   4.010 -0.8011 -0.9024 -0.2238
  956THF     C812423   1.074   0.413   4.069  0.0716  0.7798 -0.0836
  956THF     C912424   0.936   0.362   4.036 -0.2761  0.1261  0.0204
  956THF    H1012425   1.084   0.440   4.174 -0.2608 -0.1546  0.1908
  956THF    H1112426   1.149   0.337   4.050 -1.3868 -0.7074 -0.1358
  956THF    H1212427   0.937   0.259   4.000  0.1983 -0.1681  0.8362
  956THF    H1312428   0.878   0.369   4.128  0.2678 -0.4909  0.4259
  957THF     O112429   4.534   1.064   5.339 -0.0429 -0.5378 -0.4641
  957THF     C212430   4.668   1.063   5.341  0.5057 -0.3198 -0.0653
  957THF     C312431   4.495   1.037   5.205 -0.5322  0.1952 -0.2122
  957THF     H412432   4.707   0.962   5.349 -2.0806 -1.3179  0.9286
  957THF     H512433   4.704   1.132   5.418  0.3973  1.0419 -1.1917
  957THF     H612434   4.524   0.937   5.171  2.7209  1.7122 -2.3788
  957THF     H712435   4.389   1.047   5.185 -0.7982 -1.4595  0.2002
  957THF     C812436   4.582   1.129   5.125  0.4283 -0.2070  0.2198
  957THF     C912437   4.712   1.124   5.205 -0.5203 -0.4082 -0.5320
  957THF    H1012438   4.537   1.228   5.118  2.9636  0.9658 -0.3466
  957THF    H1112439   4.592   1.100   5.020 -0.5786 -0.2094  0.1140
  957THF    H1212440   4.794   1.063   5.167  0.2180 -1.2604  2.2152
  957THF    H1312441   4.742   1.229   5.207  0.7369 -0.7483  1.3232
  958THF     O112442   1.338   3.942   3.416  0.6897 -0.7729 -0.1245
  958THF     C212443   1.217   4.002   3.384  0.4766  0.4697 -0.3722
  958THF     C312444   1.393   4.023   3.518 -0.2003  0.3774 -0.1413
  958THF     H412445   1.158   3.933   3.323  0.4798  2.6453 -3.0310
  958THF     H512446   1.225   4.091   3.322  2.1775  1.0009  0.5663
  958THF     H612447   1.459   3.967   3.585  0.8281  2.2838  0.5268
  958THF     H712448   1.446   4.106   3.474 -0.4415  1.4229  1.4326
  958THF     C812449   1.270   4.073   3.598  0.2778  0.5266 -0.0784
  958THF     C912450   1.149   4.023   3.519  0.1028 -0.3868 -0.0075
  958THF    H1012451   1.270   4.182   3.596  1.4400  0.5673  0.6619
  958THF    H1112452   1.271   4.036   3.701 -1.7229 -1.6535 -0.7671
  958THF    H1212453   1.110   3.935   3.570 -0.5025 -1.1280 -1.6896
  958THF    H1312454   1.076   4.103   3.514  0.3649 -0.1090  0.4530
  959THF     O112455   0.205   2.246   3.149 -0.0424 -0.4123 -0.2560
  959THF     C212456   0.306   2.348   3.163 -0.3284 -0.1586 -0.2251
  959THF     C312457   0.273   2.119   3.180  0.7348  1.0369 -0.1317
  959THF     H412458   0.312   2.370   3.270 -1.3081 -0.3063 -0.1288
  959THF     H512459   0.276   2.437   3.108 -0.0444  0.1162  0.0639
  959THF     H612460   0.240   2.086   3.278  0.1729 -1.7328 -1.1398
  959THF     H712461   0.238   2.035   3.119 -1.1922  1.4610  0.3303
  959THF     C812462   0.422   2.144   3.163  0.0404  0.2689 -0.6422
  959THF     C912463   0.427   2.282   3.105 -0.0659  0.1130  0.0480
  959THF    H1012464   0.468   2.066   3.103  0.4638  0.8757 -1.1220
  959THF    H1112465   0.463   2.143   3.264  0.5605 -0.0645 -0.8542
  959THF    H1212466   0.522   2.331   3.127  0.6097 -1.4394  0.7684
  959THF    H1312467   0.415   2.281   2.996 -2.3823  0.3606  0.2574
  960THF     O112468   4.373   1.906   3.813 -0.1037  0.1724  0.1905
  960THF     C212469   4.268   1.965   3.898  0.3799  0.8530  0.3602
  960THF     C312470   4.455   1.826   3.895  0.3533  0.2443  0.6319
  960THF     H412471   4.177   1.904   3.904  0.0946  1.0097 -1.6894
  960THF     H512472   4.230   2.058   3.855 -1.0789  0.0518 -0.1878
  960THF     H612473   4.404   1.731   3.907  3.0219 -1.4558 -0.5081
  960THF     H712474   4.556   1.828   3.854  1.3360 -0.5012  2.8306
  960THF     C812475   4.467   1.908   4.030 -0.5202  0.4998  0.1055
  960THF     C912476   4.326   1.976   4.043  0.0708  0.2760  0.1333
  960THF    H1012477   4.552   1.976   4.021 -0.1576 -0.0923 -1.2467
  960THF    H1112478   4.501   1.845   4.112  1.9142  2.6309  0.8852
  960THF    H1212479   4.262   1.923   4.113  0.9859  0.9152  1.5113
  960THF    H1312480   4.324   2.083   4.065 -0.3231  0.2655  0.1489
  961THF     O112481   5.378   0.819   3.751  0.1323 -0.1498 -0.0831
  961THF     C212482   5.508   0.879   3.737  0.1200 -0.1240  0.0105
  961THF     C312483   5.293   0.933   3.736  0.6140 -0.3549 -0.4717
  961THF     H412484   5.507   0.912   3.633 -0.8642  1.1923  0.4126
  961THF     H512485   5.588   0.806   3.753  0.5652  0.3175 -0.1699
  961THF     H612486   5.299   0.975   3.635 -1.3805  1.0918 -0.0496
  961THF     H712487   5.189   0.916   3.762  0.2827 -0.3012 -1.6905
  961THF     C812488   5.359   1.034   3.835  0.1828  0.0335 -0.8886
  961THF     C912489   5.504   0.993   3.836 -0.0414  0.3299  0.1300
  961THF    H1012490   5.319   1.028   3.937  1.2309  2.2211 -0.2833
  961THF    H1112491   5.335   1.135   3.801 -1.6793  0.1662  0.6287
  961THF    H1212492   5.573   1.071   3.806 -0.3748 -0.4581 -2.9968
  961THF    H1312493   5.533   0.956   3.935 -1.2581 -0.0885  0.3456
  962THF     O112494   4.694   1.155   3.093 -0.8832  0.3190 -0.5714
  962THF     C212495   4.595   1.131   3.184 -0.0470  0.3692  0.3925
  962THF     C312496   4.702   1.297   3.063 -0.4351  0.0910 -0.0255
  962THF     H412497   4.629   1.050   3.249 -2.8540 -0.8554  0.4702
  962THF     H512498   4.516   1.087   3.123  1.4674  0.3890 -1.6626
  962THF     H612499   4.807   1.313   3.036 -0.4180  1.4813  0.7556
  962THF     H712500   4.622   1.309   2.990  0.4296 -0.6184 -1.1280
  962THF     C812501   4.672   1.362   3.192  0.1335 -0.1712 -0.2781
  962THF     C912502   4.565   1.269   3.244  0.1025 -0.1720  0.6470
  962THF    H1012503   4.639   1.466   3.183 -1.4746 -0.6382 -0.1110
  962THF    H1112504   4.763   1.367   3.252  0.7762  0.4757 -1.2627
  962THF    H1212505   4.564   1.260   3.353  0.4132 -3.4975  0.4774
  962THF    H1312506   4.468   1.304   3.211  1.1029  0.9566 -1.2767
  963THF     O112507   4.743   3.942   4.151  0.4764 -0.6066 -0.3428
  963THF     C212508   4.652   3.917   4.257  0.2623  0.6762 -0.2257
  963THF     C312509   4.696   3.898   4.030  0.7526 -0.0779 -0.8769
  963THF     H412510   4.571   3.989   4.252 -1.7838 -1.5277 -0.5517
  963THF     H512511   4.712   3.926   4.348  1.9369 -0.4788 -1.1650
  963THF     H612512   4.637   3.978   3.985  0.3701  0.1008 -0.0734
  963THF     H712513   4.770   3.880   3.952  1.2319 -0.9254 -0.2468
  963THF     C812514   4.612   3.774   4.072  0.0913  0.2237  0.0711
  963THF     C912515   4.599   3.776   4.227  0.0334  0.3397  0.0014
  963THF    H1012516   4.662   3.682   4.040  2.3450  1.1758  0.6632
  963THF    H1112517   4.517   3.784   4.019 -0.6255 -1.4379  0.9550
  963THF    H1212518   4.502   3.753   4.273 -0.5341 -0.8088 -1.6531
  963THF    H1312519   4.677   3.708   4.262 -1.2822 -1.4325 -0.3519
  964THF     O112520   0.533   2.626   4.825 -0.4653  0.1902 -0.1872
  964THF     C212521   0.648   2.589   4.750 -0.4369  0.1543  0.5422
  964THF     C312522   0.434   2.673   4.728 -0.1899  0.4627 -0.2743
  964THF     H412523   0.629   2.491   4.706 -2.3447  0.9390 -0.5169
  964THF     H512524   0.743   2.600   4.803 -0.4290  0.6928  0.4314
  964THF     H612525   0.388   2.596   4.666  1.4802 -1.8621  1.1810
  964THF     H712526   0.352   2.723   4.780 -0.3268 -1.1611  1.1578
  964THF     C812527   0.519   2.754   4.638 -0.4216  0.1376 -0.8324
  964THF     C912528   0.650   2.681   4.623  0.4223  0.1716 -0.1893
  964THF    H1012529   0.542   2.853   4.679  0.4824  0.9227 -3.0438
  964THF    H1112530   0.480   2.762   4.536  1.5790 -0.4912 -1.7113
  964THF    H1212531   0.634   2.622   4.533 -0.4176 -1.3974  0.9346
  964THF    H1312532   0.734   2.748   4.607 -0.6824  1.6880  0.1787
  965THF     O112533   5.312   0.442   4.670  0.0105 -0.7363  0.6871
  965THF     C212534   5.428   0.520   4.655  0.6835 -0.2723 -0.0594
  965THF     C312535   5.224   0.474   4.568 -0.5372 -0.4838 -0.0553
  965THF     H412536   5.515   0.486   4.712  0.4888  0.5701  0.7554
  965THF     H512537   5.408   0.626   4.669  1.3773  0.2268 -2.3912
  965THF     H612538   5.134   0.413   4.560 -3.0620  3.1238 -2.6284
  965THF     H712539   5.188   0.577   4.581 -1.1985 -0.8152  0.8136
  965THF     C812540   5.314   0.475   4.442  0.7266  0.4258  0.4890
  965THF     C912541   5.448   0.511   4.501 -0.3622 -1.0152  0.0465
  965THF    H1012542   5.288   0.542   4.360  2.2436  0.5588  0.0889
  965THF    H1112543   5.322   0.371   4.410 -3.4901  0.2277 -0.4739
  965THF    H1212544   5.520   0.433   4.476  0.6249  0.2163 -1.1599
  965THF    H1312545   5.485   0.606   4.461  0.8323 -1.8295 -0.8849
  966THF     O112546   0.776   2.482   0.918  0.2141  0.1576 -0.1382
  966THF     C212547   0.825   2.444   1.043 -0.2212  0.1638 -0.4323
  966THF     C312548   0.807   2.620   0.909 -0.3846  0.5874  0.1008
  966THF     H412549   0.933   2.442   1.033 -0.2675 -0.5140 -0.8474
  966THF     H512550   0.794   2.345   1.078  0.0875  0.8160  1.9095
  966THF     H612551   0.914   2.623   0.886 -0.3230  1.1344  0.4562
  966THF     H712552   0.743   2.664   0.832 -1.3101  0.4036  0.7508
  966THF     C812553   0.781   2.671   1.048  0.6166  0.6667  0.3512
  966THF     C912554   0.770   2.552   1.137 -0.4252  0.4888 -0.7528
  966THF    H1012555   0.688   2.727   1.041  0.6315  0.4706 -2.3771
  966THF    H1112556   0.859   2.738   1.082 -0.5004  1.6552  1.0610
  966THF    H1212557   0.810   2.573   1.236  0.3978 -0.4655 -0.8702
  966THF    H1312558   0.667   2.517   1.141 -1.3153  2.2626 -4.1811
  967THF     O112559   3.548   4.986   4.653 -0.5546 -0.3145  0.6274
  967THF     C212560   3.665   5.065   4.662  0.3919  0.3287  0.3003
  967THF     C312561   3.548   4.943   4.515  1.0143  0.1660 -0.3126
  967THF     H412562   3.698   5.100   4.760  0.9001 -1.7920  0.9330
  967THF     H512563   3.645   5.149   4.596 -0.7474 -1.1032 -1.2423
  967THF     H612564   3.489   4.852   4.504  0.3865  0.4191  0.8080
  967THF     H712565   3.507   5.028   4.460 -0.6046 -0.5410 -0.2576
  967THF     C812566   3.695   4.905   4.494  0.5518  0.3465  0.2020
  967THF     C912567   3.779   4.980   4.600 -0.0511  0.0585  0.3492
  967THF    H1012568   3.730   4.925   4.393  0.2775 -0.8104 -0.1326
  967THF    H1112569   3.721   4.799   4.499 -2.4949 -0.5128 -0.3301
  967THF    H1212570   3.817   4.913   4.676  1.2359  0.0090 -0.3051
  967THF    H1312571   3.862   5.039   4.560 -0.9108 -0.3951 -2.3790
  968THF     O112572   4.685   0.985   0.890  0.1617 -0.0879  0.0838
  968THF     C212573   4.801   0.930   0.946 -0.5575  0.0063 -0.0531
  968THF     C312574   4.688   1.122   0.931 -0.3628  0.2636  0.2821
  968THF     H412575   4.820   0.829   0.911 -0.3327  0.0126  0.0502
  968THF     H512576   4.799   0.932   1.055  0.8583  1.0543 -0.0099
  968THF     H612577   4.620   1.185   0.873  0.5302  1.0469  0.0601
  968THF     H712578   4.644   1.132   1.030 -1.9412  2.1255 -0.5443
  968THF     C812579   4.829   1.166   0.915 -0.4162  0.2409 -0.2356
  968THF     C912580   4.913   1.037   0.901  0.7377 -0.3504 -0.3660
  968THF    H1012581   4.859   1.235   0.994 -1.0248 -0.1387  0.3377
  968THF    H1112582   4.849   1.211   0.818  0.8285 -0.6012 -0.4088
  968THF    H1212583   4.955   1.033   0.801  1.6273 -0.9526  0.0248
  968THF    H1312584   5.002   1.042   0.963  0.9498  0.5824 -0.7305
  969THF     O112585   0.478   0.918   3.797 -0.2441  0.4050  0.1758
  969THF     C212586   0.614   0.924   3.852  0.1860 -0.6239  0.4128
  969THF     C312587   0.405   1.033   3.829  0.4826 -0.5767  0.2148
  969THF     H412588   0.671   0.952   3.763  0.2989 -1.7368  0.1197
  969THF     H512589   0.643   0.824   3.886  0.4414 -1.5013 -2.1006
  969THF     H612590   0.366   1.077   3.737  2.3961 -0.9223 -0.8182
  969THF     H712591   0.326   1.023   3.903 -0.4538  0.6373 -0.5758
  969THF     C812592   0.502   1.124   3.898 -0.4770  0.1238 -0.1627
  969THF     C912593   0.605   1.030   3.958 -0.6824  0.0550 -0.5457
  969THF    H1012594   0.451   1.185   3.972 -0.0218 -0.8499  0.9835
  969THF    H1112595   0.534   1.190   3.818  1.9206 -0.9737 -0.1789
  969THF    H1212596   0.696   1.085   3.979 -1.3631  0.7938  0.6132
  969THF    H1312597   0.561   0.993   4.052 -0.6392 -0.3297 -0.6734
  970THF     O112598   0.877   0.193   1.117 -0.4374 -0.5986 -0.9432
  970THF     C212599   0.823   0.070   1.140  0.0723  0.5159 -0.2334
  970THF     C312600   0.970   0.183   1.001  0.5099  0.0317 -0.6947
  970THF     H412601   0.745   0.052   1.065 -0.6132  1.0671  0.3372
  970THF     H512602   0.785   0.046   1.239  0.6537  0.0563 -0.1201
  970THF     H612603   0.908   0.223   0.921  0.6927 -1.9057 -1.8821
  970THF     H712604   1.054   0.250   1.014 -1.0563  1.9182  0.3165
  970THF     C812605   1.005   0.036   0.989 -0.6457 -0.3239 -0.0409
  970THF     C912606   0.942  -0.022   1.117  0.2528 -0.9670 -0.0604
  970THF    H1012607   1.112   0.014   0.985 -0.9932 -2.2696  0.3146
  970THF    H1112608   0.963  -0.010   0.900 -1.8000 -1.9528  1.2605
  970THF    H1212609   0.920  -0.128   1.116  1.6953 -1.3118  1.1697
  970THF    H1312610   0.997  -0.006   1.210 -2.8998 -1.5731  2.0441
  971THF     O112611   4.540   0.526   0.916  0.2918  0.3946 -0.6243
  971THF     C212612   4.614   0.403   0.891 -0.3507 -0.2174  0.8581
  971THF     C312613   4.641   0.620   0.929  0.1717  0.1246 -0.3839
  971THF     H412614   4.656   0.388   0.792  0.1050 -0.4026  1.0765
  971THF     H512615   4.545   0.320   0.907  0.3016 -0.5124  2.3229
  971THF     H612616   4.689   0.640   0.833 -1.2615  1.1554 -0.9200
  971THF     H712617   4.593   0.708   0.971 -0.7039 -0.4479 -0.1424
  971THF     C812618   4.724   0.544   1.032 -0.7758 -0.0114  0.2362
  971THF     C912619   4.723   0.405   0.989 -0.0878 -0.0668  0.3559
  971THF    H1012620   4.687   0.553   1.133 -1.6490  1.6824 -0.1956
  971THF    H1112621   4.821   0.593   1.029 -0.0141 -1.4717 -1.5349
  971THF    H1212622   4.819   0.376   0.947  1.3948 -0.6894  3.8620
  971THF    H1312623   4.706   0.334   1.070  0.7887 -0.7519 -0.0448
  972THF     O112624   4.894   0.714   2.968  0.1277  0.7156  0.0054
  972THF     C212625   4.788   0.768   3.045  0.2789 -0.6754 -0.2320
  972THF     C312626   5.018   0.719   3.042 -0.0195 -0.9888  0.0595
  972THF     H412627   4.707   0.697   3.031  1.7646 -2.2477 -1.3486
  972THF     H512628   4.757   0.863   3.003  0.7717 -0.2005  0.4500
  972THF     H612629   5.048   0.622   3.083 -0.1010 -1.2148 -0.4082
  972THF     H712630   5.100   0.753   2.978 -1.7944  0.4460 -1.5675
  972THF     C812631   4.986   0.806   3.163  0.7107  0.1606 -0.3699
  972THF     C912632   4.838   0.774   3.185 -0.1514  0.3535 -0.9016
  972THF    H1012633   5.005   0.906   3.125 -2.1435  1.8579  2.1923
  972THF    H1112634   5.051   0.780   3.246 -0.1967 -1.0649  0.0015
  972THF    H1212635   4.838   0.674   3.228 -0.3767  0.5723 -0.3761
  972THF    H1312636   4.783   0.841   3.252  0.3140 -0.7080  0.5897
  973THF     O112637   0.462   2.788   3.017  0.5274  0.7289 -0.5658
  973THF     C212638   0.601   2.749   3.043  0.3494  0.9754 -0.1847
  973THF     C312639   0.469   2.925   2.966  0.1127 -0.4159  0.4742
  973THF     H412640   0.633   2.709   2.947  0.0776 -0.7526  0.4199
  973THF     H512641   0.608   2.679   3.127 -2.6180 -0.1383 -0.7398
  973THF     H612642   0.492   2.918   2.860  2.3151 -2.3823  1.0019
  973THF     H712643   0.371   2.966   2.987 -0.8945 -2.4514  0.0092
  973THF     C812644   0.579   2.993   3.041 -0.5798  0.4505 -0.2921
  973THF     C912645   0.676   2.882   3.074 -0.6604  0.2907 -0.7373
  973THF    H1012646   0.532   3.040   3.128  1.2736  0.3641  0.8142
  973THF    H1112647   0.615   3.071   2.975 -0.3179 -0.5465 -1.3543
  973THF    H1212648   0.766   2.905   3.018  0.8584 -1.3631  0.9168
  973THF    H1312649   0.691   2.884   3.182  0.7025  1.9896 -0.9191
  974THF     O112650   0.240   3.874   2.554 -0.3750  0.2061 -0.1743
  974THF     C212651   0.302   3.765   2.623  0.0721  0.1259 -0.1717
  974THF     C312652   0.317   3.898   2.437  0.0391  0.3585 -0.0208
  974THF     H412653   0.242   3.718   2.701 -1.0992  0.1712 -1.0209
  974THF     H512654   0.398   3.795   2.665 -0.1688 -0.7330  1.0661
  974THF     H612655   0.281   3.979   2.374  1.4863  1.2962  0.3006
  974THF     H712656   0.420   3.930   2.456 -0.1908  0.6844  0.7164
  974THF     C812657   0.328   3.759   2.382 -0.0381  0.0725  0.0117
  974THF     C912658   0.311   3.666   2.506  0.4258 -0.3505 -0.2471
  974THF    H1012659   0.428   3.745   2.341  1.3330  3.3682  1.8209
  974THF    H1112660   0.272   3.742   2.291  1.9596 -0.3713 -1.1918
  974THF    H1212661   0.220   3.608   2.493  0.2581  0.1121 -1.1861
  974THF    H1312662   0.398   3.607   2.533  1.8926  2.3051  1.2234
  975THF     O112663   2.572   3.952   0.119 -0.0945  0.0469  0.6201
  975THF     C212664   2.612   3.959   0.249 -0.3712 -0.2234 -0.3262
  975THF     C312665   2.621   4.063   0.041 -0.2455 -0.5100  0.6439
  975THF     H412666   2.668   3.867   0.266 -1.6047 -0.7842  0.8538
  975THF     H512667   2.518   3.971   0.303 -0.0979 -0.6238  0.2442
  975THF     H612668   2.716   4.041  -0.006  0.0139  0.6805  0.5687
  975THF     H712669   2.550   4.102  -0.032  1.3582 -0.5527 -0.9720
  975THF     C812670   2.664   4.162   0.144  0.2213 -0.8128 -0.4075
  975THF     C912671   2.707   4.080   0.264  0.1994  0.1175 -0.1688
  975THF    H1012672   2.574   4.221   0.160  1.9520  2.7999 -2.6051
  975THF    H1112673   2.743   4.228   0.108  0.2671  0.8012  2.3482
  975THF    H1212674   2.809   4.048   0.244 -0.2068 -0.6223 -1.0874
  975THF    H1312675   2.698   4.141   0.355 -0.3695  1.2473 -0.9544
  976THF     O112676   0.753   0.034   4.058 -0.1610  0.2828  0.2807
  976THF     C212677   0.697  -0.081   4.125 -0.0704 -0.7600 -0.0783
  976THF     C312678   0.759   0.011   3.919  0.1438  0.1099 -0.1731
  976THF     H412679   0.662  -0.051   4.224  4.0992  0.6748  1.1855
  976THF     H512680   0.774  -0.157   4.137 -0.8584 -1.3299  1.7192
  976THF     H612681   0.786   0.103   3.867 -1.2920  1.2479  0.9701
  976THF     H712682   0.825  -0.075   3.911  0.6682  0.6503 -2.1749
  976THF     C812683   0.620  -0.044   3.891 -0.3530 -0.1686  0.1949
  976THF     C912684   0.591  -0.125   4.025 -0.1944  0.6339  0.4604
  976THF    H1012685   0.613  -0.105   3.801  0.4368  1.3082 -0.9089
  976THF    H1112686   0.552   0.041   3.884 -1.5630 -0.9176  2.1271
  976THF    H1212687   0.491  -0.108   4.063  0.2296 -0.4764  2.1741
  976THF    H1312688   0.600  -0.233   4.034  3.7006  0.7259 -0.4089
  977THF     O112689   0.540   3.751   3.747  0.3961 -0.4526  0.2532
  977THF     C212690   0.555   3.878   3.814  0.1577  0.7759 -0.0302
  977THF     C312691   0.523   3.775   3.604  0.0105  0.2404  1.0131
  977THF     H412692   0.662   3.899   3.819 -0.2488  2.9392  0.6992
  977THF     H512693   0.514   3.852   3.912 -0.4024  1.3863 -0.0949
  977THF     H612694   0.615   3.803   3.554 -0.9203  2.3441  0.3384
  977THF     H712695   0.475   3.689   3.558  1.0632 -1.1940  2.5022
  977THF     C812696   0.429   3.896   3.603 -0.0607 -0.4337 -0.0103
  977THF     C912697   0.472   3.978   3.730 -0.2295  0.4753 -0.2124
  977THF    H1012698   0.329   3.855   3.615  0.1745 -1.3148 -0.9637
  977THF    H1112699   0.423   3.966   3.520 -0.6404 -0.3385  0.1063
  977THF    H1212700   0.552   4.047   3.703 -0.4929  0.6878 -0.4537
  977THF    H1312701   0.399   4.041   3.780 -0.9755  0.9915 -1.8950
  978THF     O112702   3.209   4.853   3.768 -0.0126 -0.0971 -0.3471
  978THF     C212703   3.275   4.780   3.673 -0.9619 -0.0775 -0.8882
  978THF     C312704   3.094   4.784   3.803 -0.6496  0.1623  0.1788
  978THF     H412705   3.331   4.703   3.726  0.1177  1.3357  0.1033
  978THF     H512706   3.355   4.834   3.623 -0.7311 -0.1655 -0.6184
  978THF     H612707   3.109   4.695   3.864  0.1186  0.0463 -0.1695
  978THF     H712708   3.023   4.854   3.846 -0.7247 -1.7821  3.5163
  978THF     C812709   3.044   4.728   3.667  0.1601 -0.2194 -0.0098
  978THF     C912710   3.169   4.740   3.578  1.1645 -0.2709  0.9055
  978THF    H1012711   2.971   4.797   3.627  3.6040  2.1637 -2.7712
  978THF    H1112712   3.001   4.628   3.677 -1.2680  0.4936  1.5678
  978THF    H1212713   3.189   4.646   3.527  0.5138  0.4387 -0.7422
  978THF    H1312714   3.154   4.824   3.509 -1.5747  0.9379  2.7589
  979THF     O112715   2.065   1.793   5.416 -0.0067  0.7815  0.1597
  979THF     C212716   2.161   1.858   5.492 -0.4158 -0.2956 -0.5159
  979THF     C312717   1.934   1.846   5.424 -0.0650 -0.7428 -0.2893
  979THF     H412718   2.217   1.918   5.420 -1.7638  0.5366 -0.9071
  979THF     H512719   2.224   1.780   5.533  1.0182  0.4974 -1.1000
  979THF     H612720   1.917   1.930   5.357 -0.0032  0.6664  1.3641
  979THF     H712721   1.860   1.769   5.401 -2.2626  0.3312  2.5546
  979THF     C812722   1.936   1.892   5.572 -0.8043  0.4426  0.9879
  979THF     C912723   2.085   1.947   5.591 -0.0493 -0.5169 -0.4923
  979THF    H1012724   1.923   1.808   5.641 -0.9882  1.4938  2.2804
  979THF    H1112725   1.862   1.969   5.596 -0.3114  1.3335 -0.2699
  979THF    H1212726   2.093   2.051   5.560  0.0681 -0.1162  0.8246
  979THF    H1312727   2.117   1.940   5.695  3.8228  1.7189 -1.3714
  980THF     O112728   4.516   1.604   4.327 -0.4003  0.2336 -0.4948
  980THF     C212729   4.555   1.529   4.213 -0.8586  0.5926 -0.1656
  980THF     C312730   4.404   1.535   4.389 -0.1914 -0.2684 -0.7494
  980THF     H412731   4.657   1.556   4.185 -0.0144 -0.3047  1.8318
  980THF     H512732   4.493   1.534   4.123 -2.5540  1.9277  1.0206
  980THF     H612733   4.438   1.535   4.492 -3.9056  1.6418  0.6737
  980THF     H712734   4.313   1.594   4.392  1.2376  2.0609  0.6425
  980THF     C812735   4.407   1.395   4.329 -0.2608 -0.8513  0.3475
  980THF     C912736   4.535   1.384   4.250  0.1047 -0.0361 -0.1625
  980THF    H1012737   4.325   1.379   4.260 -0.1971  1.1432 -0.2420
  980THF    H1112738   4.397   1.317   4.405  1.3322 -0.8339  0.6241
  980THF    H1212739   4.602   1.352   4.330 -2.6621  0.6911  2.6343
  980THF    H1312740   4.518   1.320   4.164 -3.5396  0.4539  0.0655
  981THF     O112741   0.713   3.311   3.001  0.3972  0.3490 -0.2319
  981THF     C212742   0.834   3.351   3.049  0.7803  0.3975 -0.0366
  981THF     C312743   0.619   3.356   3.095  0.5617 -0.2959  0.6637
  981THF     H412744   0.914   3.327   2.980 -2.7704 -2.2440 -3.7060
  981THF     H512745   0.845   3.286   3.137 -0.9276 -0.0236 -0.0999
  981THF     H612746   0.523   3.353   3.043  0.8876 -1.1412  0.0862
  981THF     H712747   0.606   3.292   3.182  0.6499 -1.2066  0.0127
  981THF     C812748   0.663   3.493   3.135 -0.7416 -0.5637  0.4017
  981THF     C912749   0.809   3.496   3.078  0.2446 -0.4365 -0.6576
  981THF    H1012750   0.666   3.501   3.244  0.5245  2.4365  0.2553
  981THF    H1112751   0.598   3.571   3.095  0.1153 -1.2075 -2.4809
  981THF    H1212752   0.817   3.558   2.989  0.2669  3.0372  1.5846
  981THF    H1312753   0.882   3.540   3.147  0.4005  0.5289 -1.4134
  982THF     O112754   3.460   3.760   5.175 -0.3486  0.0984  0.2181
  982THF     C212755   3.443   3.627   5.199 -0.5009 -0.1295 -0.2320
  982THF     C312756   3.450   3.799   5.046 -0.2811 -0.6608  0.1942
  982THF     H412757   3.399   3.614   5.298 -0.0557  1.5814  0.2368
  982THF     H512758   3.534   3.570   5.185 -1.2310 -1.2975 -0.3285
  982THF     H612759   3.381   3.883   5.052  1.2006  0.5345  1.2975
  982THF     H712760   3.543   3.827   4.997 -1.4239  2.4815 -0.3785
  982THF     C812761   3.386   3.679   4.977  0.3609  0.0355  0.1003
  982THF     C912762   3.348   3.589   5.089 -0.1127 -0.1634 -0.8242
  982THF    H1012763   3.445   3.629   4.900  0.8362  0.3205  0.2755
  982THF    H1112764   3.301   3.716   4.919  1.9337  3.2675 -0.3696
  982THF    H1212765   3.249   3.606   5.130 -0.4890 -2.6492 -0.5164
  982THF    H1312766   3.354   3.486   5.052 -1.5083 -0.9180  0.8861
  983THF     O112767   1.243   3.932   2.771 -0.3713 -0.2675  0.1396
  983THF     C212768   1.235   3.933   2.913 -0.1888 -0.1555  0.1095
  983THF     C312769   1.201   4.063   2.729 -0.3686  0.5223  1.0476
  983THF     H412770   1.310   3.868   2.957  0.5569  1.6492  1.6347
  983THF     H512771   1.132   3.904   2.933 -1.3784  2.1731 -2.0226
  983THF     H612772   1.292   4.101   2.683 -1.0464  0.2483 -0.5975
  983THF     H712773   1.110   4.046   2.671 -1.0417  1.7834  1.6969
  983THF     C812774   1.157   4.143   2.849 -0.1227 -0.6770 -0.6111
  983THF     C912775   1.244   4.080   2.958  0.2988  0.2900 -0.4177
  983THF    H1012776   1.052   4.142   2.879  1.0053 -0.9644  4.2326
  983THF    H1112777   1.178   4.250   2.853 -0.4501 -0.5793 -1.4328
  983THF    H1212778   1.346   4.120   2.956  0.8559 -1.0792 -0.6409
  983THF    H1312779   1.204   4.089   3.059  1.7100 -0.5216  0.2496
  984THF     O112780   4.229   3.647   4.013 -1.3326 -0.0752  0.4346
  984THF     C212781   4.125   3.662   3.919 -0.1334 -0.2193 -0.4112
  984THF     C312782   4.324   3.561   3.952  0.2324  0.2211 -0.1748
  984THF     H412783   4.058   3.743   3.948 -0.2503 -0.8817  1.2808
  984THF     H512784   4.076   3.565   3.920  0.5216 -0.5644 -0.8431
  984THF     H612785   4.423   3.573   3.995  0.9857 -1.0766 -1.4721
  984THF     H712786   4.280   3.461   3.959 -1.0715  0.8935  3.2116
  984THF     C812787   4.329   3.604   3.811 -0.9942  0.0308  0.3364
  984THF     C912788   4.202   3.680   3.792  0.8903  0.1090  0.3259
  984THF    H1012789   4.346   3.525   3.738 -1.1687  0.3641 -0.0649
  984THF    H1112790   4.411   3.674   3.799 -0.3106 -1.0470 -1.8511
  984THF    H1212791   4.224   3.785   3.774 -2.3713  0.7788 -0.4308
  984THF    H1312792   4.152   3.632   3.708 -0.0441  3.4145 -1.1585
  985THF     O112793   5.382   2.484   2.287 -0.6594 -0.0619  1.0046
  985THF     C212794   5.463   2.593   2.223 -0.4733 -0.0702 -0.7300
  985THF     C312795   5.479   2.408   2.344 -0.0305  0.6640  0.4492
  985THF     H412796   5.491   2.653   2.310 -0.8648 -2.1588  0.9284
  985THF     H512797   5.399   2.649   2.155 -0.2080 -0.0774 -0.9826
  985THF     H612798   5.515   2.455   2.435 -2.0691 -1.5845  2.5733
  985THF     H712799   5.439   2.311   2.373 -0.9261  0.3508 -1.6899
  985THF     C812800   5.584   2.384   2.234 -0.0268 -0.4912 -0.4398
  985THF     C912801   5.569   2.510   2.150  0.0183  0.0633 -0.4523
  985THF    H1012802   5.548   2.295   2.183 -0.1317 -2.0182  2.1660
  985THF    H1112803   5.687   2.369   2.269 -0.5816  0.6652  1.9012
  985THF    H1212804   5.656   2.575   2.149  0.0398  0.1057  1.2883
  985THF    H1312805   5.537   2.488   2.048 -0.1729  3.4816 -1.2651
  986THF     O112806   1.627   1.979   4.151  0.6552 -0.1046 -0.1875
  986THF     C212807   1.693   2.028   4.260  0.2784 -0.4574 -0.3451
  986THF     C312808   1.635   2.081   4.059 -0.4267  0.4687  1.2489
  986THF     H412809   1.799   2.013   4.245  0.4829  0.0255  0.5210
  986THF     H512810   1.666   1.976   4.352  0.8008  0.9978  0.6605
  986THF     H612811   1.737   2.089   4.022 -0.8801  1.4169  0.1353
  986THF     H712812   1.569   2.071   3.973 -0.1421 -1.2644  1.1884
  986THF     C812813   1.604   2.207   4.135  0.3206  0.1174 -0.0285
  986THF     C912814   1.685   2.184   4.255  0.0048  0.6252 -0.7084
  986THF    H1012815   1.497   2.212   4.158  0.6442 -1.6730  2.2364
  986THF    H1112816   1.624   2.298   4.079 -1.4732 -0.3385 -1.5316
  986THF    H1212817   1.784   2.229   4.240  1.7250 -2.8156 -0.6257
  986THF    H1312818   1.639   2.226   4.345 -0.2124 -2.2200  0.5983
  987THF     O112819   1.010   4.287   5.401 -0.5203 -0.3671 -0.0630
  987THF     C212820   1.102   4.188   5.401  0.2450  0.2417 -0.0241
  987THF     C312821   0.943   4.302   5.526 -0.8207  0.3014  0.1195
  987THF     H412822   1.187   4.188   5.332  1.2155  0.1693  1.1342
  987THF     H512823   1.049   4.096   5.375  1.5824 -0.2557 -1.1042
  987THF     H612824   0.927   4.403   5.562  1.2978  1.5568 -2.2373
  987THF     H712825   0.845   4.253   5.529 -0.5969 -0.1134  1.2971
  987THF     C812826   1.036   4.229   5.633  0.0115 -0.3032  0.2923
  987THF     C912827   1.152   4.188   5.544 -0.2965  0.2837 -0.5851
  987THF    H1012828   0.991   4.142   5.680 -0.5709 -0.2147 -0.0875
  987THF    H1112829   1.070   4.289   5.717  0.7093  1.3606 -1.0973
  987THF    H1212830   1.224   4.270   5.553  0.1883 -0.1129 -0.8029
  987THF    H1312831   1.194   4.092   5.572  0.8349  1.5433  2.4103
  988THF     O112832   0.403   5.441   0.085 -0.2762 -0.4529 -0.4881
  988THF     C212833   0.315   5.451  -0.023 -0.3693  0.7671 -0.1966
  988THF     C312834   0.441   5.569   0.125  0.3122 -0.1674  0.8025
  988THF     H412835   0.213   5.451   0.014 -0.4445 -0.7874 -0.3786
  988THF     H512836   0.331   5.368  -0.091 -0.1447 -0.7655  1.6495
  988THF     H612837   0.365   5.612   0.191 -0.7933 -0.5830 -0.1618
  988THF     H712838   0.534   5.571   0.182  1.2191  1.8993 -0.6107
  988THF     C812839   0.448   5.652  -0.007 -0.3792 -0.3436  0.2474
  988THF     C912840   0.343   5.582  -0.092  0.4322  0.1078  0.1627
  988THF    H1012841   0.548   5.638  -0.049 -0.5321  0.6602 -0.4958
  988THF    H1112842   0.432   5.760  -0.013  0.3071 -0.1957  0.9229
  988THF    H1212843   0.246   5.630  -0.105  0.1988 -0.4013  0.0082
  988THF    H1312844   0.370   5.547  -0.192 -0.8355  1.5617 -0.7296
  989THF     O112845   0.764   4.807   3.143 -0.0543  0.0083  0.7578
  989THF     C212846   0.647   4.796   3.065  0.9673  0.3833 -0.2072
  989THF     C312847   0.814   4.677   3.150 -0.6428  0.7949 -0.4833
  989THF     H412848   0.635   4.871   2.987 -1.7332  0.0081 -0.2460
  989THF     H512849   0.563   4.815   3.132  1.9301 -1.9042  1.8099
  989THF     H612850   0.920   4.680   3.173 -1.1399 -0.2986  2.4069
  989THF     H712851   0.773   4.633   3.241  0.9821  0.4364  0.1151
  989THF     C812852   0.781   4.616   3.012 -0.6904 -0.3708 -0.2621
  989THF     C912853   0.642   4.665   2.993 -0.1368  0.2823 -0.5868
  989THF    H1012854   0.788   4.507   3.008 -3.1816 -0.5593 -0.9639
  989THF    H1112855   0.851   4.650   2.936  2.1836 -0.0918  2.3061
  989THF    H1212856   0.631   4.662   2.884 -1.9276  0.5240 -0.4426
  989THF    H1312857   0.573   4.595   3.039 -0.5188  0.5723 -0.7094
  990THF     O112858   3.881   2.313   4.545 -0.5741  0.5582 -0.5291
  990THF     C212859   3.913   2.331   4.681 -0.5613  1.2117  0.0270
  990THF     C312860   3.829   2.434   4.499 -0.4443 -0.3721 -0.1819
  990THF     H412861   4.017   2.300   4.693 -0.9738 -0.2543  0.0908
  990THF     H512862   3.855   2.260   4.740 -1.3711  0.0948 -2.0229
  990THF     H612863   3.852   2.449   4.393  0.5416 -0.5220  0.0017
  990THF     H712864   3.720   2.430   4.510 -0.5387 -1.9318 -1.2777
  990THF     C812865   3.885   2.548   4.590 -0.3801 -0.0010  0.7437
  990THF     C912866   3.886   2.478   4.719 -0.2155 -0.3998  0.2952
  990THF    H1012867   3.829   2.642   4.591 -1.7328 -0.7333 -0.7093
  990THF    H1112868   3.983   2.582   4.556  0.2884  1.9084  4.1342
  990THF    H1212869   3.970   2.518   4.775 -1.5873  1.7350  0.9404
  990THF    H1312870   3.795   2.478   4.778 -0.3366  2.4814  0.2342
  991THF     O112871   3.766   1.340   2.733  0.1078 -0.1745  0.5546
  991THF     C212872   3.797   1.472   2.704 -0.0985 -0.5116 -0.0984
  991THF     C312873   3.638   1.302   2.674  0.0469 -0.4109 -0.1704
  991THF     H412874   3.904   1.488   2.717  0.0134 -2.1927  1.3422
  991THF     H512875   3.756   1.549   2.770  2.3824 -0.3355  1.3470
  991THF     H612876   3.612   1.196   2.672 -4.6687  0.5326 -2.2201
  991THF     H712877   3.561   1.350   2.733  1.8067  0.7428  1.2731
  991THF     C812878   3.657   1.368   2.543 -0.0211  0.4037 -0.0701
  991THF     C912879   3.751   1.487   2.559 -0.1608  0.0043  0.6649
  991THF    H1012880   3.565   1.393   2.492  0.2328 -0.6935 -1.1103
  991THF    H1112881   3.702   1.295   2.475 -1.0188  3.4444 -4.4111
  991THF    H1212882   3.834   1.475   2.489 -0.3036  0.7080  0.3564
  991THF    H1312883   3.702   1.582   2.536 -2.0873 -0.7000  1.6394
  992THF     O112884   1.968   0.999   0.107  0.5819  0.3759 -0.2688
  992THF     C212885   2.065   1.051   0.198  0.2516  0.3343  0.3594
  992THF     C312886   2.016   0.883   0.045  0.5139  0.1347  0.1868
  992THF     H412887   2.022   1.107   0.282 -1.1817  0.8294 -0.6695
  992THF     H512888   2.117   1.131   0.146 -0.7120  0.1000 -1.0189
  992THF     H612889   1.948   0.803   0.077 -0.3195  0.5911 -0.3868
  992THF     H712890   2.009   0.886  -0.064  0.3995  2.8979  0.1977
  992THF     C812891   2.158   0.859   0.100 -0.0862  0.4663  0.4125
  992THF     C912892   2.159   0.934   0.234  0.1514 -0.3346  0.0569
  992THF    H1012893   2.235   0.901   0.035 -0.5887  0.6448 -0.0789
  992THF    H1112894   2.172   0.752   0.114 -0.7433  0.3882  0.4684
  992THF    H1212895   2.110   0.873   0.310  0.8611 -1.9230 -0.7138
  992THF    H1312896   2.257   0.973   0.258  0.8603 -0.4791 -2.2987
  993THF     O112897   4.756   2.168   0.094 -0.0407 -0.0302  0.6255
  993THF     C212898   4.739   2.057   0.172 -0.0808 -0.0923 -0.7549
  993THF     C312899   4.658   2.166   0.002 -0.2999  0.0709 -0.2974
  993THF     H412900   4.656   2.086   0.236  0.5142 -0.9900  0.4695
  993THF     H512901   4.835   2.045   0.223 -0.4655  1.9467  0.5928
  993THF     H612902   4.557   2.179   0.041 -0.2088  0.7439 -0.2734
  993THF     H712903   4.679   2.233  -0.081  1.5101  1.0480  0.8872
  993THF     C812904   4.687   2.021  -0.050  0.3350 -0.6299 -0.2392
  993THF     C912905   4.701   1.945   0.079 -0.5347  0.2354 -0.4165
  993THF    H1012906   4.779   2.020  -0.107 -0.1183 -2.9605 -1.0335
  993THF    H1112907   4.612   1.971  -0.112 -2.2508  2.2722  0.2718
  993THF    H1212908   4.606   1.897   0.098 -1.0968  0.1279 -3.1022
  993THF    H1312909   4.776   1.865   0.085 -0.0606  0.7557  0.9510
  994THF     O112910   0.040   2.894   4.776  0.1679 -0.3053  0.6916
  994THF     C212911  -0.015   3.000   4.707 -0.1761  0.1572  0.3859
  994THF     C312912   0.073   2.788   4.686  1.1707 -0.6270  0.5155
  994THF     H412913   0.067   3.049   4.655  0.4634 -0.0351  1.1976
  994THF     H512914  -0.080   3.044   4.782 -2.7218 -1.6628 -0.5747
  994THF     H612915   0.154   2.828   4.624 -1.2729  2.1025 -1.2078
  994THF     H712916   0.092   2.689   4.727 -0.5156 -0.8362  0.8383
  994THF     C812917  -0.039   2.785   4.590 -0.1739  0.4459  0.8978
  994THF     C912918  -0.093   2.930   4.594 -0.2374 -0.6418 -0.4441
  994THF    H1012919  -0.119   2.714   4.613 -1.6601  1.9347  0.5226
  994THF    H1112920  -0.007   2.760   4.489 -3.0892  1.2343 -0.3243
  994THF    H1212921  -0.101   2.977   4.496 -0.4402  1.1957  0.4252
  994THF    H1312922  -0.195   2.925   4.632 -0.2502 -0.5462 -0.4662
  995THF     O112923   1.080   2.317   3.569  0.0494 -0.4650  0.4681
  995THF     C212924   1.032   2.441   3.524  0.4607  0.1227  0.8613
  995THF     C312925   0.964   2.248   3.614  0.2002 -0.3013  0.3698
  995THF     H412926   1.097   2.475   3.443  1.8329  0.5846  2.1299
  995THF     H512927   1.031   2.524   3.594 -0.6009  2.1075 -1.3691
  995THF     H612928   0.973   2.139   3.608  0.3777 -0.3403  1.1775
  995THF     H712929   0.945   2.270   3.720 -1.5399  2.2657 -0.3764
  995THF     C812930   0.846   2.292   3.522 -0.2275 -0.9186 -0.3550
  995THF     C912931   0.889   2.428   3.474 -0.0429 -0.5735  0.9166
  995THF    H1012932   0.757   2.297   3.586  0.0979 -1.5701  0.1618
  995THF    H1112933   0.831   2.225   3.437  1.2524  0.6544 -1.9151
  995THF    H1212934   0.874   2.432   3.366  0.0307  0.1330  0.9287
  995THF    H1312935   0.818   2.500   3.514 -1.9645 -1.3311 -0.9271
  996THF     O112936   3.093   2.934   0.159  0.0692 -0.1562  0.5420
  996THF     C212937   3.011   3.007   0.252 -0.2783 -0.6596  0.0957
  996THF     C312938   3.180   3.028   0.095 -0.4277  0.5857 -0.2991
  996THF     H412939   3.002   2.966   0.352 -0.6996 -0.2172  0.2431
  996THF     H512940   2.910   2.994   0.215 -0.9084  0.1157  1.4753
  996THF     H612941   3.277   3.040   0.143  0.8180 -3.0554 -1.5962
  996THF     H712942   3.196   3.000  -0.009  0.6289 -2.0199  0.4891
  996THF     C812943   3.105   3.156   0.114 -0.2332 -0.1956 -0.0293
  996THF     C912944   3.056   3.152   0.252  0.5083 -0.1353 -0.1842
  996THF    H1012945   3.017   3.157   0.050 -0.3633 -0.3860  0.1435
  996THF    H1112946   3.165   3.244   0.092  1.8428 -0.9139  2.2240
  996THF    H1212947   3.145   3.172   0.313  1.5893  0.7294 -1.9550
  996THF    H1312948   2.975   3.224   0.260 -1.7506 -2.5352 -0.4058
  997THF     O112949   4.038   3.287   1.194 -0.1513  0.1506  0.8806
  997THF     C212950   3.915   3.338   1.234 -0.7111 -0.0764 -0.3164
  997THF     C312951   4.028   3.154   1.149 -0.0454  0.2443  0.5209
  997THF     H412952   3.893   3.435   1.189 -2.5364  0.1965  1.0498
  997THF     H512953   3.924   3.353   1.342  2.3831 -0.3618 -0.4402
  997THF     H612954   4.057   3.156   1.044 -1.0360 -0.6084  0.2068
  997THF     H712955   4.111   3.101   1.196 -0.5880  0.2543  1.5353
  997THF     C812956   3.890   3.107   1.178  0.1279 -0.5556  0.3906
  997THF     C912957   3.814   3.234   1.196 -0.7240 -0.0887  0.0221
  997THF    H1012958   3.900   3.040   1.263  2.4020 -1.3477 -0.4218
  997THF    H1112959   3.847   3.053   1.094  0.3152  2.1990 -1.6234
  997THF    H1212960   3.756   3.248   1.104  1.2997 -3.9143 -2.0852
  997THF    H1312961   3.739   3.226   1.274 -0.6507 -0.7816  0.0272
  998THF     O112962   0.299   4.159   4.881 -0.0115  0.1940  0.4967
  998THF     C212963   0.236   4.036   4.834  0.3517 -0.4621  0.0574
  998THF     C312964   0.326   4.248   4.768 -0.3216 -0.0939  0.5730
  998THF     H412965   0.133   4.036   4.869 -0.3834  0.4532 -1.9829
  998THF     H512966   0.281   3.942   4.866  0.7889  0.1707  1.3833
  998THF     H612967   0.232   4.304   4.768 -1.4216 -1.8469 -0.5129
  998THF     H712968   0.406   4.321   4.785  0.6755 -0.4922 -1.9816
  998THF     C812969   0.346   4.156   4.654  0.5903  0.0743  0.3428
  998THF     C912970   0.242   4.050   4.681  0.2095 -0.1116 -0.0525
  998THF    H1012971   0.445   4.112   4.666  1.9145  3.0674  1.4808
  998THF    H1112972   0.324   4.201   4.557 -2.3518  1.5563  1.5712
  998THF    H1212973   0.141   4.082   4.654  0.4713  0.1231 -0.7726
  998THF    H1312974   0.253   3.951   4.637  0.3717 -0.3892  0.6026
  999THF     O112975   1.485   0.985   3.858  0.0720 -0.0208  0.3050
  999THF     C212976   1.526   0.874   3.776 -0.2176 -0.0868 -0.7224
  999THF     C312977   1.342   0.984   3.873 -0.3368  0.1501  0.5186
  999THF     H412978   1.530   0.785   3.839  3.0927  0.5090  0.1193
  999THF     H512979   1.623   0.886   3.729  0.9372 -1.0325  1.2641
  999THF     H612980   1.317   0.952   3.974  1.5970  1.9580  1.6399
  999THF     H712981   1.296   1.083   3.867 -0.5586 -0.0475 -2.0027
  999THF     C812982   1.287   0.895   3.758  0.2567 -0.5470  0.3372
  999THF     C912983   1.409   0.857   3.676  0.0616  0.0711 -0.1437
  999THF    H1012984   1.215   0.954   3.701  1.7748  1.0614 -0.0242
  999THF    H1112985   1.239   0.807   3.800  0.3940 -2.1836 -2.6667
  999THF    H1212986   1.402   0.753   3.642 -0.6701 -0.5420  1.7419
  999THF    H1312987   1.421   0.913   3.583  0.9622 -1.5478 -1.0574
 1000THF     O112988   5.148   2.527   0.741  0.1543 -0.2233  0.7177
 1000THF     C212989   5.139   2.392   0.786  0.6473  0.8866 -0.3505
 1000THF     C312990   5.199   2.524   0.609 -0.4202 -0.6519 -0.9448
 1000THF     H412991   5.055   2.350   0.731  0.6837  0.3525 -0.0008
 1000THF     H512992   5.103   2.380   0.888  1.1668  2.9994  0.1407
 1000THF     H612993   5.120   2.497   0.538 -1.5829  0.3786 -0.0964
 1000THF     H712994   5.233   2.620   0.572  0.7935 -1.4352 -1.9306
 1000THF     C812995   5.307   2.418   0.612 -0.2628 -0.6013 -1.3577
 1000THF     C912996   5.261   2.322   0.729  0.2096  1.0210  0.9567
 1000THF    H1012997   5.402   2.460   0.645 -0.5653 -1.8697  1.4373
 1000THF    H1112998   5.325   2.380   0.512  0.6551 -0.7334 -1.1506
 1000THF    H1212999   5.228   2.225   0.694 -1.1487  1.7243  0.2160
 1000THF    H1313000   5.346   2.309   0.797 -0.3677  1.4166  1.7719
 1001THF     O113001   4.612   1.426   3.781  0.1714  0.0222 -0.0086
 1001THF     C213002   4.677   1.302   3.807  0.0660  0.1838 -0.2246
 1001THF     C313003   4.477   1.403   3.794  0.1912  0.2093  0.1260
 1001THF     H413004   4.701   1.313   3.913  0.9460  4.5681 -0.6989
 1001THF     H513005   4.769   1.305   3.749 -0.3733  2.4362 -0.8775
 1001THF     H613006   4.439   1.393   3.895  1.0861 -0.1160  0.4403
 1001THF     H713007   4.415   1.476   3.742 -0.2117 -0.0267  0.2712
 1001THF     C813008   4.458   1.262   3.729 -0.6583  0.4084 -0.1778
 1001THF     C913009   4.582   1.188   3.777 -0.4869 -0.4820 -0.0648
 1001THF    H1013010   4.463   1.279   3.621 -0.1298 -0.4276 -0.2951
 1001THF    H1113011   4.359   1.226   3.758 -1.0157  1.5407  0.0569
 1001THF    H1213012   4.549   1.142   3.870 -0.7735 -1.0673 -0.4502
 1001THF    H1313013   4.616   1.113   3.706  1.0132  0.4993 -0.4283
 1002THF     O113014   4.407   2.013   2.787 -0.5423 -0.2283  0.2913
 1002THF     C213015   4.541   2.028   2.813 -0.3719  0.7524 -0.8042
 1002THF     C313016   4.336   1.997   2.901 -0.3032  0.4240 -0.6744
 1002THF     H413017   4.578   2.128   2.838 -0.1699  0.0427  2.0951
 1002THF     H513018   4.601   1.989   2.731  1.8114 -1.1115  1.5048
 1002THF     H613019   4.341   2.091   2.957  0.4124  1.2078 -2.0119
 1002THF     H713020   4.238   1.949   2.898 -0.3222  0.2615  1.2771
 1002THF     C813021   4.431   1.889   2.960  0.1918  0.1784  0.0847
 1002THF     C913022   4.572   1.938   2.932  0.0683 -0.3757 -0.3522
 1002THF    H1013023   4.418   1.791   2.916  0.7250 -0.8846  2.1283
 1002THF    H1113024   4.413   1.880   3.067  0.7878 -1.2123  0.0894
 1002THF    H1213025   4.598   1.998   3.019  0.4006 -1.2819  0.1806
 1002THF    H1313026   4.647   1.863   2.912 -1.0650 -1.1491 -1.8814
 1003THF     O113027   2.902   1.785   4.001 -0.3945  0.2514 -0.2910
 1003THF     C213028   3.003   1.858   4.072 -0.1441  0.3527 -0.2497
 1003THF     C313029   2.831   1.882   3.935  0.0445  0.4201  0.7145
 1003THF     H413030   3.094   1.884   4.019  0.1015  0.3001  0.1445
 1003THF     H513031   3.044   1.799   4.154  0.1523  1.2544  0.2558
 1003THF     H613032   2.877   1.903   3.838 -0.1677  1.6540  0.8746
 1003THF     H713033   2.736   1.846   3.895  0.7145  0.9036 -1.4893
 1003THF     C813034   2.820   2.002   4.023  0.5247 -0.3551  0.6688
 1003THF     C913035   2.936   1.983   4.120  0.2275 -0.0580  0.5020
 1003THF    H1013036   2.725   2.010   4.077 -1.6941  1.3590 -3.0837
 1003THF    H1113037   2.825   2.095   3.967 -3.3583 -0.9817 -1.0506
 1003THF    H1213038   3.002   2.069   4.108 -0.6587  0.3907 -1.5956
 1003THF    H1313039   2.915   1.981   4.227 -3.2836  0.1676 -0.0562
 1004THF     O113040   5.292   4.716   3.950  0.2860  0.5254 -0.0214
 1004THF     C213041   5.200   4.683   4.057 -0.1539  0.2034  0.2751
 1004THF     C313042   5.265   4.854   3.910  0.5254  0.1389 -0.3156
 1004THF     H413043   5.243   4.719   4.150  2.3352  3.9327 -2.0566
 1004THF     H513044   5.185   4.575   4.069 -0.1294  0.2175  0.4247
 1004THF     H613045   5.312   4.921   3.981 -0.7070  0.7685 -0.0592
 1004THF     H713046   5.301   4.857   3.807 -0.4888  1.8488 -0.6458
 1004THF     C813047   5.106   4.868   3.928 -0.9105 -0.2342 -0.1911
 1004THF     C913048   5.067   4.765   4.030 -0.6734  0.3531  0.2167
 1004THF    H1013049   5.058   4.843   3.833 -1.7158  0.3563  0.0476
 1004THF    H1113050   5.082   4.967   3.967 -1.6322  0.0721 -1.3791
 1004THF    H1213051   5.024   4.807   4.121 -0.5822  0.1594  0.3501
 1004THF    H1313052   5.000   4.696   3.980  0.9964 -0.6483 -0.7264
 1005THF     O113053   3.831   1.844   1.267  0.1686 -0.3486  0.0262
 1005THF     C213054   3.796   1.948   1.179  0.9447  0.5954  0.2200
 1005THF     C313055   3.734   1.734   1.250  0.3204  0.0920  0.2015
 1005THF     H413056   3.828   1.929   1.076 -0.7930  0.0271 -0.2638
 1005THF     H513057   3.847   2.038   1.212  1.0167  0.9082 -0.7127
 1005THF     H613058   3.758   1.669   1.165 -3.2246 -1.1516 -0.0023
 1005THF     H713059   3.723   1.681   1.345  0.2893 -2.7561 -1.2696
 1005THF     C813060   3.599   1.808   1.220 -0.1400  0.8452 -0.2535
 1005THF     C913061   3.641   1.946   1.181 -0.5670 -0.2387  0.1723
 1005THF    H1013062   3.534   1.812   1.308 -0.3309 -1.2313 -0.2498
 1005THF    H1113063   3.550   1.760   1.136  1.6974  0.1757 -0.9817
 1005THF    H1213064   3.604   1.985   1.086 -1.5832 -0.8468  0.2981
 1005THF    H1313065   3.619   2.025   1.254 -1.2409  0.8860 -1.1999
 1006THF     O113066   0.153   2.837   3.663 -0.0684 -0.3608  0.4180
 1006THF     C213067   0.151   2.981   3.629  1.0614  0.1180 -0.1920
 1006THF     C313068   0.153   2.833   3.801 -0.7910  0.1674 -0.9101
 1006THF     H413069   0.115   2.989   3.527 -0.3289  1.7324  0.3713
 1006THF     H513070   0.250   3.024   3.645  1.8150 -1.5262 -0.2367
 1006THF     H613071   0.110   2.739   3.838  1.0191  0.3430  1.9707
 1006THF     H713072   0.254   2.845   3.839 -1.0030  1.2408 -0.6542
 1006THF     C813073   0.073   2.952   3.847  0.0365 -0.2598 -0.5425
 1006THF     C913074   0.045   3.042   3.725  0.2895 -0.3960 -0.3239
 1006THF    H1013075   0.136   2.997   3.924 -0.1244 -0.8056 -0.0853
 1006THF    H1113076  -0.019   2.926   3.898 -0.2007  0.9932 -0.2803
 1006THF    H1213077  -0.051   3.018   3.680  0.8609 -0.9640 -1.2918
 1006THF    H1313078   0.066   3.147   3.740 -1.3672 -0.2727  1.5284
 1007THF     O113079   3.994   2.400   2.650 -0.0211 -0.4490 -0.1693
 1007THF     C213080   4.111   2.423   2.725 -0.2057  0.7885 -0.6285
 1007THF     C313081   4.015   2.272   2.598 -0.1641 -0.4607  0.8256
 1007THF     H413082   4.114   2.370   2.820 -0.2066  0.6203 -0.7206
 1007THF     H513083   4.112   2.528   2.752 -0.0323  1.1071 -1.8121
 1007THF     H613084   3.977   2.201   2.671 -0.6138  0.1623  1.2058
 1007THF     H713085   3.971   2.260   2.499  0.8960 -0.3990  0.3256
 1007THF     C813086   4.162   2.264   2.566 -0.0838 -1.0235  0.5095
 1007THF     C913087   4.220   2.382   2.639 -0.7980  0.0153  0.0629
 1007THF    H1013088   4.191   2.267   2.461 -0.9462 -1.9611  0.2383
 1007THF    H1113089   4.202   2.169   2.600  0.1906 -1.7508 -1.6991
 1007THF    H1213090   4.303   2.361   2.706 -0.9377 -1.9109 -0.3279
 1007THF    H1313091   4.243   2.465   2.572  0.1772 -0.4464 -0.1849
 1008THF     O113092   1.122   2.789   5.431  0.3142  0.4740 -0.8870
 1008THF     C213093   1.143   2.650   5.430 -0.0421 -0.0577 -0.1049
 1008THF     C313094   1.054   2.823   5.307  0.2970  0.0512 -0.6725
 1008THF     H413095   1.044   2.611   5.455 -0.9327  1.4160 -1.2051
 1008THF     H513096   1.210   2.602   5.502 -1.7279 -1.8609  0.3592
 1008THF     H613097   0.958   2.771   5.304 -0.7066  1.3506  3.1991
 1008THF     H713098   1.048   2.931   5.297  0.5443  0.1272 -0.0918
 1008THF     C813099   1.146   2.747   5.204  0.0525  0.0911 -0.1218
 1008THF     C913100   1.198   2.627   5.293 -0.0293  0.0227  0.2043
 1008THF    H1013101   1.225   2.811   5.167 -0.5007  0.2653 -1.0338
 1008THF    H1113102   1.086   2.712   5.120  1.6657 -0.7340 -0.9694
 1008THF    H1213103   1.167   2.527   5.262  1.0945 -0.1961 -0.2370
 1008THF    H1313104   1.306   2.629   5.305 -0.1097  0.7646  0.9268
 1009THF     O113105   0.212   1.858   2.313 -0.2725 -0.1145  0.0297
 1009THF     C213106   0.267   1.950   2.415  0.8119  0.0846  0.2125
 1009THF     C313107   0.293   1.741   2.308  0.0564  0.1214  0.3268
 1009THF     H413108   0.194   1.965   2.493 -0.5639  2.3819 -1.3871
 1009THF     H513109   0.289   2.050   2.375 -0.0198 -0.8540 -2.8622
 1009THF     H613110   0.262   1.677   2.391  2.5946  0.4120  1.5806
 1009THF     H713111   0.295   1.687   2.213  1.7100  0.0765  0.3664
 1009THF     C813112   0.433   1.792   2.348 -0.3413  0.2093 -0.4575
 1009THF     C913113   0.399   1.880   2.463 -0.0566  0.3855 -0.1375
 1009THF    H1013114   0.484   1.835   2.262  2.1165 -0.4272  0.5881
 1009THF    H1113115   0.500   1.712   2.379  1.0970  1.4362 -0.3079
 1009THF    H1213116   0.381   1.828   2.557  0.1554 -0.7139 -0.6907
 1009THF    H1313117   0.472   1.960   2.475 -0.3439  0.8523 -1.3291
 1010THF     O113118   4.273   4.637   1.843 -0.3508  0.1425  0.7078
 1010THF     C213119   4.298   4.738   1.741 -0.1566  0.0442  1.0462
 1010THF     C313120   4.396   4.579   1.886  0.6493 -0.4645  0.3538
 1010THF     H413121   4.305   4.833   1.794 -1.4351  0.8334 -0.1231
 1010THF     H513122   4.229   4.745   1.657 -0.1855 -0.5852  1.0114
 1010THF     H613123   4.403   4.595   1.994 -0.3841  2.0256  0.1175
 1010THF     H713124   4.394   4.472   1.865 -0.9494 -0.4260  0.1740
 1010THF     C813125   4.506   4.657   1.808  0.1786  0.3271 -0.3020
 1010THF     C913126   4.432   4.713   1.687  0.7753 -0.0480 -0.7011
 1010THF    H1013127   4.592   4.597   1.777  0.3427 -0.0119  0.7711
 1010THF    H1113128   4.547   4.741   1.865  2.7763 -1.8082  1.2348
 1010THF    H1213129   4.475   4.806   1.648 -2.0101  1.6258 -0.0583
 1010THF    H1313130   4.423   4.635   1.612 -0.1287 -0.5693 -0.0755
 1011THF     O113131   3.178   4.138   2.993  0.1859  0.0919 -0.5054
 1011THF     C213132   3.218   4.261   2.927  0.6265  0.0630 -0.1143
 1011THF     C313133   3.240   4.140   3.120 -0.4351 -0.6299  0.6191
 1011THF     H413134   3.155   4.285   2.842 -0.5220 -0.2582  0.6128
 1011THF     H513135   3.320   4.250   2.891  0.3780  1.7649 -1.4272
 1011THF     H613136   3.192   4.074   3.193 -1.4325  0.3074  0.8438
 1011THF     H713137   3.346   4.117   3.112 -0.2830  0.5618 -1.3502
 1011THF     C813138   3.220   4.286   3.162  0.4262 -0.6980  0.7982
 1011THF     C913139   3.215   4.370   3.034  0.0130  0.2579 -0.3881
 1011THF    H1013140   3.293   4.322   3.234  1.3040  1.3118 -1.0121
 1011THF    H1113141   3.121   4.305   3.205  0.4640 -0.4590  0.7770
 1011THF    H1213142   3.124   4.428   3.025 -0.1964 -0.0053 -0.0228
 1011THF    H1313143   3.305   4.431   3.042  0.1037 -0.0137  1.0450
 1012THF     O113144   5.153   1.028   0.060  0.8973 -0.3412 -0.2539
 1012THF     C213145   5.212   1.152   0.103 -0.0046  0.3699  0.5328
 1012THF     C313146   5.010   1.045   0.064 -0.7663 -0.6290  0.5251
 1012THF     H413147   5.286   1.181   0.029 -0.3593  0.7938  0.3424
 1012THF     H513148   5.268   1.141   0.196  1.1694 -1.1501 -0.3153
 1012THF     H613149   4.968   1.050  -0.036  0.1241 -0.0843  0.1644
 1012THF     H713150   4.977   0.955   0.117  2.1054 -1.8615  0.4486
 1012THF     C813151   4.983   1.166   0.142  0.3174 -0.0340  0.1762
 1012THF     C913152   5.098   1.252   0.112  0.5248 -0.3331 -0.1936
 1012THF    H1013153   4.977   1.141   0.248 -3.0333  0.1852  0.1740
 1012THF    H1113154   4.882   1.207   0.134  1.0771  1.5616 -3.7379
 1012THF    H1213155   5.090   1.293   0.011  1.6237  0.1412 -0.1034
 1012THF    H1313156   5.108   1.340   0.175 -0.9569 -1.6786  2.0472
 1013THF     O113157   1.675   2.717   2.316  0.3750  0.3023 -0.2829
 1013THF     C213158   1.811   2.725   2.352  0.5422 -0.0008  0.3973
 1013THF     C313159   1.664   2.629   2.203 -0.5425  1.1373 -0.0520
 1013THF     H413160   1.813   2.707   2.459  1.7538 -1.6117  0.1491
 1013THF     H513161   1.845   2.826   2.333 -0.5048  0.2982  0.0344
 1013THF     H613162   1.562   2.598   2.182 -0.2705  0.3913 -0.2727
 1013THF     H713163   1.691   2.685   2.113  0.9559  2.4893  1.1523
 1013THF     C813164   1.767   2.517   2.241  0.0444  0.5943  0.3189
 1013THF     C913165   1.883   2.603   2.280 -0.0203 -0.0385 -0.2177
 1013THF    H1013166   1.791   2.443   2.165 -1.2150  1.5216 -1.0423
 1013THF    H1113167   1.724   2.456   2.320 -0.0552  0.4778  0.1768
 1013THF    H1213168   1.938   2.557   2.362 -0.0653  1.9129  0.9716
 1013THF    H1313169   1.943   2.638   2.196  0.4040 -1.2848 -0.4496
 1014THF     O113170   0.968   0.763   1.419  0.0655  0.3632  0.3942
 1014THF     C213171   0.898   0.857   1.501 -0.3543 -0.3608 -0.3870
 1014THF     C313172   0.898   0.638   1.446 -0.6873 -0.0292 -0.0926
 1014THF     H413173   0.919   0.957   1.463  2.7370 -0.2423  1.2849
 1014THF     H513174   0.938   0.872   1.601  0.9245  2.2795 -1.2132
 1014THF     H613175   0.923   0.553   1.382 -1.5870 -0.3468 -0.0395
 1014THF     H713176   0.931   0.617   1.548  1.2147  1.1223 -0.4246
 1014THF     C813177   0.751   0.672   1.441 -0.4406 -0.3658  0.0021
 1014THF     C913178   0.746   0.817   1.490 -0.2436 -0.7223  0.4300
 1014THF    H1013179   0.702   0.611   1.517  2.1674 -0.8788  1.3933
 1014THF    H1113180   0.704   0.658   1.343 -0.2933  0.1382 -0.1399
 1014THF    H1213181   0.698   0.889   1.424  4.1591  2.4355  0.2226
 1014THF    H1313182   0.702   0.837   1.588 -1.1763 -0.9587  0.0670
 1015THF     O113183   1.625   0.908   0.196 -0.5258 -0.0369 -0.5992
 1015THF     C213184   1.566   0.946   0.322  0.0350 -0.8531 -0.2542
 1015THF     C313185   1.597   0.770   0.194  0.4106 -0.5119  0.1450
 1015THF     H413186   1.574   1.053   0.340  0.6707 -1.1732  1.6502
 1015THF     H513187   1.614   0.892   0.404 -0.9242 -2.0474 -0.4618
 1015THF     H613188   1.608   0.728   0.094  1.8467  0.0753  0.0227
 1015THF     H713189   1.661   0.709   0.258  0.9305  1.2465  1.3757
 1015THF     C813190   1.450   0.766   0.245 -0.3354  0.1692 -0.0204
 1015THF     C913191   1.424   0.904   0.295  0.0920  0.3388  0.2756
 1015THF    H1013192   1.414   0.691   0.315 -0.6595  1.2173  0.9744
 1015THF    H1113193   1.381   0.763   0.160  0.2477  1.9966 -0.6136
 1015THF    H1213194   1.384   0.966   0.214  0.6954  0.8116  0.3302
 1015THF    H1313195   1.357   0.917   0.379  0.8828  0.1194  0.9503
 1016THF     O113196   0.174   2.789   1.341  0.4576 -0.5152  0.0783
 1016THF     C213197   0.255   2.900   1.380  0.1864  0.2353  0.3746
 1016THF     C313198   0.119   2.831   1.216 -0.6166  0.0408 -0.7898
 1016THF     H413199   0.324   2.881   1.462  1.1192 -0.7459 -0.5929
 1016THF     H513200   0.203   2.992   1.405  0.8430  1.5997 -2.7739
 1016THF     H613201   0.092   2.742   1.160  2.2485 -1.2598 -0.2920
 1016THF     H713202   0.025   2.886   1.217 -1.4741 -1.3900  0.0922
 1016THF     C813203   0.224   2.906   1.139 -0.3581  0.0006 -0.4140
 1016THF     C913204   0.332   2.927   1.246  0.4544 -0.0879 -0.3629
 1016THF    H1013205   0.168   2.993   1.106 -2.2946 -1.1780 -0.4374
 1016THF    H1113206   0.267   2.848   1.057  0.4196  0.0378 -0.0438
 1016THF    H1213207   0.405   2.848   1.226 -0.5059 -0.9339 -0.6151
 1016THF    H1313208   0.380   3.024   1.235 -0.1719 -0.0147 -3.2931
 1017THF     O113209   2.418   5.314   5.498 -0.3711 -0.8059 -0.0927
 1017THF     C213210   2.449   5.424   5.406 -0.1207 -0.3617  0.5565
 1017THF     C313211   2.341   5.217   5.437  0.2713 -0.5822  0.4104
 1017THF     H413212   2.552   5.438   5.374 -1.1662  2.8591 -1.9831
 1017THF     H513213   2.422   5.521   5.449 -2.2402 -0.7528  0.2193
 1017THF     H613214   2.364   5.113   5.462 -2.2135 -1.1917  0.4412
 1017THF     H713215   2.236   5.234   5.460  0.0422  0.8694 -1.5376
 1017THF     C813216   2.364   5.240   5.292  0.0178  0.3561  0.0839
 1017THF     C913217   2.374   5.386   5.277 -0.0232 -0.7395 -0.0465
 1017THF    H1013218   2.278   5.197   5.241  1.1566 -0.8480 -0.9168
 1017THF    H1113219   2.452   5.190   5.250  0.7101  2.3848 -1.0383
 1017THF    H1213220   2.436   5.409   5.190  0.1075 -2.7737 -0.5501
 1017THF    H1313221   2.280   5.439   5.261  0.9513  0.3613 -2.7824
 1018THF     O113222   4.106   4.414   0.326 -0.0238 -0.6652  0.2665
 1018THF     C213223   4.145   4.544   0.345  0.1496  0.0121  0.4221
 1018THF     C313224   4.029   4.370   0.432  0.3450 -0.0687  0.3407
 1018THF     H413225   4.169   4.591   0.250 -0.0318  2.7376  1.6198
 1018THF     H513226   4.231   4.549   0.412  0.2959 -1.1983  0.3399
 1018THF     H613227   3.969   4.285   0.401  1.2705 -0.7444  0.3663
 1018THF     H713228   4.081   4.350   0.526  1.6376  2.0723  0.1523
 1018THF     C813229   3.939   4.492   0.461 -0.7517 -1.0903  0.1984
 1018THF     C913230   4.020   4.611   0.408 -0.0217 -0.3997 -0.6447
 1018THF    H1013231   3.919   4.513   0.566 -0.8133  1.2924 -0.2286
 1018THF    H1113232   3.846   4.487   0.405 -0.8836 -1.1023  0.4171
 1018THF    H1213233   3.971   4.660   0.324  2.3445 -0.1843 -1.9862
 1018THF    H1313234   4.044   4.685   0.484  1.7388 -2.3399  0.8137
 1019THF     O113235   3.964   3.231   3.112 -0.5316 -0.1945 -0.0298
 1019THF     C213236   4.017   3.221   3.243  0.6653  0.3348 -0.6165
 1019THF     C313237   3.856   3.139   3.100  0.0189  0.1256  0.5810
 1019THF     H413238   4.063   3.314   3.278  0.7784 -0.1021  0.4449
 1019THF     H513239   4.088   3.139   3.254 -0.3535 -0.8112 -2.2701
 1019THF     H613240   3.800   3.152   3.008 -0.9629 -0.7696  1.0227
 1019THF     H713241   3.898   3.038   3.098  0.6240  0.3733  0.5946
 1019THF     C813242   3.782   3.152   3.229  0.5473 -0.1808  0.7100
 1019THF     C913243   3.883   3.207   3.327  0.4957  0.1310  0.0030
 1019THF    H1013244   3.727   3.066   3.266 -0.8708 -0.5507 -2.0260
 1019THF    H1113245   3.699   3.223   3.224 -0.4684 -1.2641  1.7615
 1019THF    H1213246   3.851   3.300   3.375  0.3136  0.6178 -1.0415
 1019THF    H1313247   3.898   3.132   3.405 -1.0186 -1.9639 -1.6010
 1020THF     O113248   0.628   1.702   4.545  0.0583 -0.0344  0.2756
 1020THF     C213249   0.697   1.794   4.463 -0.3806 -0.2391 -0.6670
 1020THF     C313250   0.513   1.761   4.586  1.1362  0.1860  0.4534
 1020THF     H413251   0.746   1.729   4.390 -0.1465 -0.5746 -0.2191
 1020THF     H513252   0.778   1.846   4.514 -0.6472 -1.1377  0.7229
 1020THF     H613253   0.444   1.688   4.629  2.4024 -1.4643 -0.1769
 1020THF     H713254   0.541   1.824   4.670  1.6853  0.2638  0.2117
 1020THF     C813255   0.465   1.839   4.469 -0.6776 -0.1000  0.3094
 1020THF     C913256   0.595   1.894   4.412 -0.4682  0.4041  0.5278
 1020THF    H1013257   0.393   1.912   4.505 -1.6906 -1.0042  0.1907
 1020THF    H1113258   0.427   1.761   4.402 -0.6442  0.3169 -0.2045
 1020THF    H1213259   0.583   1.906   4.304  1.0623  0.1592  0.3141
 1020THF    H1313260   0.599   1.998   4.444 -1.7606  1.6535 -2.8862
 1021THF     O113261   1.279   4.918   1.224  0.5850 -0.1737  0.6217
 1021THF     C213262   1.266   4.839   1.331 -0.0951 -0.0180 -0.4080
 1021THF     C313263   1.393   5.002   1.242 -0.1284  0.1670  0.1303
 1021THF     H413264   1.202   4.751   1.326 -0.4241  0.0324  1.8430
 1021THF     H513265   1.226   4.904   1.409  0.7565  1.5601 -1.2221
 1021THF     H613266   1.416   5.046   1.146 -1.8340 -1.4105 -1.0695
 1021THF     H713267   1.364   5.084   1.309 -2.2023 -1.1885  1.0190
 1021THF     C813268   1.497   4.908   1.299 -0.5323 -0.2115 -0.5304
 1021THF     C913269   1.413   4.797   1.354  0.3280  0.3998 -0.6731
 1021THF    H1013270   1.554   4.965   1.372  1.5875 -1.4996 -1.0945
 1021THF    H1113271   1.563   4.868   1.222 -0.7780 -1.4884 -0.1021
 1021THF    H1213272   1.430   4.705   1.298  2.1931 -1.4270  2.5920
 1021THF    H1313273   1.422   4.784   1.462 -1.7185  1.3084 -0.3299
 1022THF     O113274   4.895   3.374   2.972  0.0364 -0.6716  0.1725
 1022THF     C213275   5.025   3.312   3.015  1.0996 -0.2321 -0.3566
 1022THF     C313276   4.792   3.293   3.034 -0.1895 -0.0860 -0.1420
 1022THF     H413277   5.038   3.345   3.118  1.1372 -1.7085  0.1354
 1022THF     H513278   5.103   3.344   2.946 -0.0811  1.0092 -1.1421
 1022THF     H613279   4.785   3.334   3.135  0.3692  0.1768 -0.2087
 1022THF     H713280   4.699   3.306   2.978  0.4666  4.7310 -0.5179
 1022THF     C813281   4.853   3.150   3.050  0.2382  0.5642  0.6218
 1022THF     C913282   4.996   3.164   2.998  0.2268 -0.2393 -0.9326
 1022THF    H1013283   4.797   3.076   2.993  1.0736 -0.3288  0.9398
 1022THF    H1113284   4.856   3.103   3.148  0.0138 -0.6575  0.0599
 1022THF    H1213285   5.070   3.105   3.051 -1.0016 -1.2958 -0.3407
 1022THF    H1313286   5.006   3.145   2.891 -0.1498  0.7578 -1.1560
 1023THF     O113287   2.157   3.813   0.996  0.0863  0.0186  0.1880
 1023THF     C213288   2.182   3.952   0.972 -0.0482  0.3833 -0.4053
 1023THF     C313289   2.026   3.810   1.060 -0.3873  0.1497  0.1579
 1023THF     H413290   2.153   3.965   0.868 -1.4357  0.8559  0.0179
 1023THF     H513291   2.289   3.971   0.980  0.1533 -1.3802  2.1772
 1023THF     H613292   1.942   3.823   0.992  1.0211  0.5431 -1.5989
 1023THF     H713293   2.019   3.722   1.123 -0.2153  0.9182  1.2838
 1023THF     C813294   2.033   3.936   1.151 -0.1461 -0.3667 -0.7443
 1023THF     C913295   2.091   4.033   1.055  0.3282 -0.4359  0.4841
 1023THF    H1013296   2.089   3.920   1.244 -0.4542  0.9536 -0.3099
 1023THF    H1113297   1.932   3.966   1.179  0.2155  1.1815 -1.0286
 1023THF    H1213298   2.021   4.090   0.994  0.9784  0.3562  0.4520
 1023THF    H1313299   2.153   4.106   1.108 -0.3026 -0.4963  1.3189
 1024THF     O113300   1.806   0.735   1.124  0.0202 -0.6314 -0.6096
 1024THF     C213301   1.687   0.816   1.140 -0.3683  0.2580 -0.1428
 1024THF     C313302   1.904   0.798   1.204 -0.3438 -0.0238 -0.3351
 1024THF     H413303   1.600   0.756   1.113 -1.2662  1.9557 -1.1925
 1024THF     H513304   1.688   0.915   1.096  0.2986  2.0844  3.5696
 1024THF     H613305   1.959   0.723   1.261 -0.0763  1.4121  1.3904
 1024THF     H713306   1.979   0.858   1.152  0.0744  1.2227  1.5985
 1024THF     C813307   1.836   0.882   1.307 -0.3122 -0.0312 -0.2505
 1024THF     C913308   1.688   0.840   1.293 -0.0376  0.3099  0.1591
 1024THF    H1013309   1.843   0.982   1.264 -0.2201  0.1967  0.2848
 1024THF    H1113310   1.890   0.887   1.402  0.8553  0.8931 -0.9542
 1024THF    H1213311   1.677   0.752   1.357 -1.8956  0.5769  0.2421
 1024THF    H1313312   1.609   0.911   1.317 -0.9467 -0.5471 -0.2319
 1025THF     O113313   4.478   0.857   0.039  0.2786  0.0198  0.0291
 1025THF     C213314   4.518   0.720   0.076  0.2753  0.2558  0.8423
 1025THF     C313315   4.542   0.937   0.136 -0.9257  0.2242 -0.0045
 1025THF     H413316   4.501   0.652  -0.008  2.1297 -1.2025  1.5762
 1025THF     H513317   4.461   0.679   0.159  2.7075  1.1956  3.1126
 1025THF     H613318   4.544   1.043   0.113  1.2624 -0.0715 -1.5120
 1025THF     H713319   4.498   0.912   0.232  0.7898 -1.6677  0.3509
 1025THF     C813320   4.690   0.885   0.136  0.0011  0.5351 -0.3663
 1025THF     C913321   4.661   0.734   0.120  0.0355 -0.1120  0.3053
 1025THF    H1013322   4.744   0.899   0.229  1.5286  1.3108 -1.3296
 1025THF    H1113323   4.751   0.922   0.053 -0.2388  1.8041  0.0031
 1025THF    H1213324   4.731   0.685   0.052 -0.6252 -0.2110 -0.3195
 1025THF    H1313325   4.668   0.684   0.216 -2.5251 -0.3318  0.4405
 1026THF     O113326   4.211   0.514   3.747  0.0534  0.0888  0.1556
 1026THF     C213327   4.161   0.610   3.836 -0.1759 -0.3021 -1.1692
 1026THF     C313328   4.292   0.415   3.818 -0.5283 -0.3383 -0.2629
 1026THF     H413329   4.052   0.611   3.833 -0.1709 -0.5098 -1.4257
 1026THF     H513330   4.193   0.712   3.813 -1.0407 -0.0065 -1.1035
 1026THF     H613331   4.300   0.320   3.765  2.5366  0.2134 -0.9705
 1026THF     H713332   4.394   0.445   3.839 -1.2788  1.2921  1.3585
 1026THF     C813333   4.222   0.416   3.947 -0.4120 -0.2999 -0.4712
 1026THF     C913334   4.204   0.565   3.972  0.3324 -0.1657  0.3817
 1026THF    H1013335   4.274   0.358   4.024  0.4744  0.6364 -0.3519
 1026THF    H1113336   4.127   0.363   3.955 -0.6316  0.1565  0.0128
 1026THF    H1213337   4.136   0.588   4.054 -1.8755  1.9758 -1.9092
 1026THF    H1313338   4.303   0.604   3.994  0.9527 -0.9573 -0.9074
 1027THF     O113339   1.556   1.669   2.084 -0.3948 -0.0741  0.0888
 1027THF     C213340   1.600   1.803   2.090  0.1774 -0.0588 -0.8057
 1027THF     C313341   1.674   1.586   2.096  0.1688  0.0322 -0.3733
 1027THF     H413342   1.523   1.866   2.134 -0.3107 -0.3609 -1.2145
 1027THF     H513343   1.636   1.844   1.996  0.9504  1.9472  0.2874
 1027THF     H613344   1.640   1.483   2.086 -0.3534  0.3542 -2.3659
 1027THF     H713345   1.749   1.581   2.017 -1.0392 -1.4654 -1.4794
 1027THF     C813346   1.741   1.651   2.210  0.2260 -0.3131 -0.4943
 1027THF     C913347   1.717   1.801   2.190 -0.7235  0.7251 -0.0725
 1027THF    H1013348   1.849   1.636   2.221  0.6077  1.2235 -1.7928
 1027THF    H1113349   1.699   1.627   2.308  1.2152  1.8075  0.5214
 1027THF    H1213350   1.705   1.848   2.287  2.0054 -2.6250  2.1265
 1027THF    H1313351   1.797   1.863   2.149 -0.7187  0.8190  0.0782
 1028THF     O113352   0.044   4.725   3.156 -0.1643 -0.3711  0.1011
 1028THF     C213353   0.042   4.854   3.221  0.7169  0.3894  0.3624
 1028THF     C313354  -0.088   4.682   3.131  0.4984 -0.8977 -0.8223
 1028THF     H413355   0.141   4.900   3.225 -0.4878  3.2938 -0.6573
 1028THF     H513356  -0.007   4.853   3.318 -1.6067  1.0549 -0.7426
 1028THF     H613357  -0.087   4.598   3.062 -0.1928 -0.4678 -1.3649
 1028THF     H713358  -0.142   4.661   3.223 -0.2708  0.3006 -0.9813
 1028THF     C813359  -0.147   4.815   3.072  0.2233 -0.1009 -0.0367
 1028THF     C913360  -0.043   4.923   3.114 -0.1963 -0.4626 -0.3062
 1028THF    H1013361  -0.246   4.845   3.108  1.1101  1.7434  0.9780
 1028THF    H1113362  -0.138   4.808   2.963  0.3487  0.7491 -0.0828
 1028THF    H1213363   0.019   4.953   3.030  0.0515 -1.4324 -0.4817
 1028THF    H1313364  -0.089   5.016   3.149  1.0267 -0.1948  0.6338
 1029THF     O113365   2.577   1.613   3.136 -0.0858  0.1662  0.6240
 1029THF     C213366   2.692   1.626   3.045  0.4156  0.2449  0.0014
 1029THF     C313367   2.595   1.714   3.238 -0.3170 -0.2991  1.0592
 1029THF     H413368   2.651   1.700   2.977 -1.1379  1.1844  1.8682
 1029THF     H513369   2.709   1.529   2.997  1.3199  0.6992 -0.6124
 1029THF     H613370   2.560   1.816   3.225  2.4570  0.7331  0.9972
 1029THF     H713371   2.544   1.683   3.329 -0.0439 -0.2583  1.2253
 1029THF     C813372   2.742   1.706   3.265 -0.2961 -0.4044  0.4154
 1029THF     C913373   2.805   1.669   3.134 -0.6122 -0.8390 -0.1249
 1029THF    H1013374   2.765   1.635   3.345 -0.7233  0.5270  1.4006
 1029THF    H1113375   2.783   1.804   3.293 -0.0938  0.0811 -1.4764
 1029THF    H1213376   2.853   1.752   3.082 -0.4661 -1.0127 -0.2669
 1029THF    H1313377   2.880   1.594   3.159  1.3175  0.3774 -1.9877
 1030THF     O113378   4.835   5.379   4.709  0.3716  0.0914  0.2705
 1030THF     C213379   4.839   5.282   4.601  0.3190 -0.3727  0.0590
 1030THF     C313380   4.895   5.327   4.824  0.0113 -0.2759  0.0890
 1030THF     H413381   4.913   5.305   4.524  0.5689  1.6931  0.8618
 1030THF     H513382   4.744   5.268   4.549 -0.4862 -1.3768  1.7093
 1030THF     H613383   4.983   5.386   4.849 -0.6228  0.8273 -0.2065
 1030THF     H713384   4.836   5.342   4.915  1.1130  0.5327  0.6931
 1030THF     C813385   4.933   5.179   4.808 -0.3254 -0.3776  0.8055
 1030THF     C913386   4.864   5.153   4.666 -0.2091  0.1258 -0.7999
 1030THF    H1013387   4.890   5.118   4.887 -2.5849 -0.8757 -0.7168
 1030THF    H1113388   5.041   5.169   4.799 -0.3321  0.0789  0.1207
 1030THF    H1213389   4.913   5.076   4.606  2.5327 -0.1237  1.5279
 1030THF    H1313390   4.773   5.098   4.689 -0.2765  1.1188  1.5617
 1031THF     O113391   4.122   5.102   3.833 -0.3633 -0.4841 -0.1070
 1031THF     C213392   4.210   5.075   3.940 -0.0139 -0.7163 -0.3782
 1031THF     C313393   4.158   5.010   3.729 -0.4186 -0.1062  0.3253
 1031THF     H413394   4.173   4.992   4.000  1.6423 -0.7866  0.5814
 1031THF     H513395   4.210   5.162   4.005 -2.4655 -1.0424  0.1686
 1031THF     H613396   4.118   4.909   3.738  1.0117 -0.8024 -0.7122
 1031THF     H713397   4.135   5.042   3.627 -0.2920  0.9069  0.6020
 1031THF     C813398   4.310   5.012   3.739  0.1278  0.3125  1.1139
 1031THF     C913399   4.339   5.025   3.887 -0.2550 -0.9717  1.0719
 1031THF    H1013400   4.346   5.104   3.692  0.0771  0.5765  1.5821
 1031THF    H1113401   4.341   4.923   3.685 -1.0610  0.5391  0.0148
 1031THF    H1213402   4.355   4.925   3.927 -0.8818 -0.1086  3.6926
 1031THF    H1313403   4.430   5.084   3.895  1.3519 -3.0108 -0.9614
 1032THF     O113404   3.076   3.882   4.071 -0.3087  0.6481 -0.1885
 1032THF     C213405   2.951   3.853   4.124 -0.3893 -0.0057  0.2925
 1032THF     C313406   3.071   3.974   3.963 -0.0404 -0.0546  1.3474
 1032THF     H413407   2.950   3.884   4.228 -1.0139  1.0355 -0.0145
 1032THF     H513408   2.934   3.746   4.134  1.4732 -0.2253  1.7025
 1032THF     H613409   3.119   4.064   4.000  1.7645 -0.8376  1.0155
 1032THF     H713410   3.131   3.949   3.875 -1.0084  0.6409  0.4535
 1032THF     C813411   2.923   3.995   3.932 -0.3226 -0.3924  0.1376
 1032THF     C913412   2.849   3.939   4.056  0.0453  0.0308  0.8976
 1032THF    H1013413   2.886   3.927   3.855 -3.3596 -1.8116  2.6182
 1032THF    H1113414   2.908   4.100   3.906  0.7550 -0.4577 -0.8329
 1032THF    H1213415   2.833   4.023   4.124 -1.1404  0.0079  0.6815
 1032THF    H1313416   2.746   3.902   4.050 -0.3650  1.2592 -0.1206
 1033THF     O113417   1.496   1.871   1.462 -0.2440  0.3723  0.1343
 1033THF     C213418   1.597   1.801   1.381  0.2311 -0.0307 -0.2942
 1033THF     C313419   1.561   1.955   1.553 -0.7082  0.5942 -0.1986
 1033THF     H413420   1.553   1.768   1.288 -1.1449  0.1495  0.2699
 1033THF     H513421   1.644   1.722   1.440  2.2551  1.4977  0.2831
 1033THF     H613422   1.488   2.030   1.583 -0.6579 -0.1457  2.0226
 1033THF     H713423   1.612   1.903   1.634 -0.8686  0.6514 -0.0602
 1033THF     C813424   1.677   2.020   1.472  0.0345 -0.4200  0.4293
 1033THF     C913425   1.708   1.913   1.370  0.2534 -0.7521  0.1233
 1033THF    H1013426   1.768   2.039   1.528 -0.6092 -1.5046  1.9179
 1033THF    H1113427   1.636   2.111   1.428  1.0790  0.5806  1.4514
 1033THF    H1213428   1.716   1.954   1.270  1.3379 -0.3388  0.3705
 1033THF    H1313429   1.802   1.866   1.397  0.2091 -1.1387 -0.3818
 1034THF     O113430   2.641   5.291   1.328  0.6000 -0.3127 -0.1342
 1034THF     C213431   2.701   5.396   1.402  0.2052  0.7244 -0.2558
 1034THF     C313432   2.527   5.251   1.401  0.1212  0.3660  0.0964
 1034THF     H413433   2.646   5.485   1.369  0.2689  0.4485 -1.1273
 1034THF     H513434   2.806   5.409   1.378  0.8850 -0.2215  1.9559
 1034THF     H613435   2.456   5.333   1.389  0.3136  0.4550 -0.4731
 1034THF     H713436   2.474   5.163   1.363 -2.2665  1.3442  0.9527
 1034THF     C813437   2.577   5.249   1.550  0.3096 -0.1358  0.0314
 1034THF     C913438   2.678   5.356   1.544  0.0246  0.1475  0.1399
 1034THF    H1013439   2.633   5.159   1.575  1.9026  0.6926 -0.4036
 1034THF    H1113440   2.498   5.272   1.621  1.3524  1.6501  0.6755
 1034THF    H1213441   2.644   5.447   1.593  1.0953 -0.7160  2.6971
 1034THF    H1313442   2.775   5.324   1.584  0.0736 -1.0007 -0.8495
 1035THF     O113443   4.350   3.269   1.625  0.4859 -0.0704 -0.0563
 1035THF     C213444   4.394   3.276   1.492  0.3290 -0.6772  0.0958
 1035THF     C313445   4.468   3.288   1.704 -0.6843 -0.0371  0.5093
 1035THF     H413446   4.414   3.381   1.468 -2.1066 -0.2176 -0.1502
 1035THF     H513447   4.320   3.228   1.428  1.4666 -1.8122 -0.4070
 1035THF     H613448   4.479   3.395   1.693  0.5882 -0.1903  0.1970
 1035THF     H713449   4.461   3.279   1.812  0.9245  2.1265  0.8471
 1035THF     C813450   4.569   3.197   1.639 -0.6919 -0.3327 -0.0741
 1035THF     C913451   4.525   3.194   1.494  0.7777 -0.2923  0.7353
 1035THF    H1013452   4.566   3.094   1.675 -1.7455 -0.6728 -1.0767
 1035THF    H1113453   4.673   3.228   1.653 -0.6275 -1.0448  1.2467
 1035THF    H1213454   4.596   3.247   1.430 -1.3151  0.5483 -1.0350
 1035THF    H1313455   4.511   3.091   1.460 -1.7104  0.0536  0.5040
 1036THF     O113456   0.969   5.425   5.414  0.0172  0.4483  0.3779
 1036THF     C213457   0.968   5.495   5.294  0.4152  0.3218  0.0700
 1036THF     C313458   0.849   5.357   5.418  0.6645 -0.0731 -0.4367
 1036THF     H413459   0.971   5.424   5.211  0.6575 -2.5665  2.3645
 1036THF     H513460   1.055   5.560   5.288  0.0603  0.7998  0.0684
 1036THF     H613461   0.837   5.274   5.348 -2.5279  1.4201 -1.8882
 1036THF     H713462   0.839   5.322   5.521 -0.1568  0.3188 -0.3823
 1036THF     C813463   0.752   5.453   5.365  0.5431  0.0089  0.3768
 1036THF     C913464   0.832   5.553   5.286 -0.4150 -0.2883 -0.1156
 1036THF    H1013465   0.709   5.494   5.457  1.8799 -0.9468  1.4660
 1036THF    H1113466   0.681   5.390   5.312 -2.6151  1.0869  2.9761
 1036THF    H1213467   0.795   5.564   5.183  0.1623 -3.3645 -0.7396
 1036THF    H1313468   0.824   5.654   5.325 -2.5013 -0.2623 -0.4858
 1037THF     O113469   3.254   0.544   2.468  0.2049  0.1611  0.0888
 1037THF     C213470   3.284   0.506   2.603 -0.5364  0.7908 -0.6102
 1037THF     C313471   3.356   0.634   2.429  0.5883  0.5682  0.2674
 1037THF     H413472   3.353   0.423   2.615  0.0783  1.5862  2.1642
 1037THF     H513473   3.198   0.468   2.659  0.9064 -0.4560  0.8416
 1037THF     H613474   3.438   0.569   2.400  0.0154  0.4293 -1.0953
 1037THF     H713475   3.335   0.699   2.344  4.7044 -0.3326 -1.6842
 1037THF     C813476   3.390   0.713   2.555 -0.3474 -0.1409 -0.5005
 1037THF     C913477   3.341   0.633   2.673 -0.2084 -0.8189  0.1177
 1037THF    H1013478   3.342   0.811   2.561 -0.0229  0.0821 -1.3369
 1037THF    H1113479   3.497   0.729   2.569 -0.4228  1.6690 -1.6083
 1037THF    H1213480   3.423   0.609   2.741 -1.6803 -1.6334  1.6931
 1037THF    H1313481   3.266   0.695   2.721  0.2227  1.0325 -1.5093
 1038THF     O113482   4.167   0.068   0.635  0.5827  0.0575 -0.5919
 1038THF     C213483   4.155   0.077   0.776  0.9409 -0.2255  0.3377
 1038THF     C313484   4.300   0.033   0.597  0.4135  0.7088  1.1559
 1038THF     H413485   4.135  -0.019   0.824  2.5811 -1.5015 -1.3945
 1038THF     H513486   4.073   0.147   0.796  1.6825  0.9762 -0.7050
 1038THF     H613487   4.307  -0.056   0.534  0.1941  0.1163  1.9598
 1038THF     H713488   4.334   0.116   0.535  0.3381  0.7329  1.1466
 1038THF     C813489   4.379   0.034   0.727 -0.1344 -0.6123 -0.2579
 1038THF     C913490   4.292   0.129   0.803 -0.3004  0.3529 -0.1463
 1038THF    H1013491   4.475   0.077   0.698 -0.7415  1.0203  0.0518
 1038THF    H1113492   4.393  -0.061   0.777  2.0953 -1.3296 -2.0545
 1038THF    H1213493   4.322   0.136   0.908 -3.4418  3.8163  0.7001
 1038THF    H1313494   4.303   0.228   0.759 -0.0026  0.8280  0.9505
 1039THF     O113495   2.566   2.208   4.731 -0.3866 -0.7818 -0.2333
 1039THF     C213496   2.490   2.324   4.727 -0.2663 -0.6883  0.2174
 1039THF     C313497   2.562   2.135   4.613  0.3644 -1.0967  0.3861
 1039THF     H413498   2.560   2.408   4.721  1.2551 -1.9641 -0.9689
 1039THF     H513499   2.425   2.344   4.812  1.5959  4.2627  0.8288
 1039THF     H613500   2.656   2.088   4.586 -0.4209 -2.5029  0.0170
 1039THF     H713501   2.484   2.059   4.619 -0.1293 -1.0036 -2.8834
 1039THF     C813502   2.512   2.241   4.511 -0.2144 -0.9282 -0.6891
 1039THF     C913503   2.409   2.316   4.592  0.8726 -0.1338  0.1294
 1039THF    H1013504   2.469   2.203   4.418  0.3214 -0.0190 -1.3308
 1039THF    H1113505   2.595   2.307   4.487  0.5090 -2.1625 -1.6932
 1039THF    H1213506   2.399   2.409   4.536  4.8679  0.1783 -0.3519
 1039THF    H1313507   2.320   2.254   4.603  1.1273 -0.2833  1.5056
 1040THF     O113508   2.747   0.061   1.121 -0.5302 -0.2496  0.3102
 1040THF     C213509   2.856   0.122   1.047 -0.4948 -0.3252  0.0788
 1040THF     C313510   2.631   0.115   1.065  0.4168 -0.1957  0.1231
 1040THF     H413511   2.862   0.067   0.953 -0.3292 -0.1024 -0.0417
 1040THF     H513512   2.950   0.101   1.096  0.2408  1.0804 -0.6618
 1040THF     H613513   2.620   0.085   0.961  0.2185 -0.8297  0.3164
 1040THF     H713514   2.550   0.089   1.134  0.3537 -1.4336 -0.3868
 1040THF     C813515   2.664   0.264   1.061 -0.0349  0.2626  0.3497
 1040THF     C913516   2.815   0.267   1.038 -0.3689 -0.5480 -0.1402
 1040THF    H1013517   2.635   0.324   1.148  1.1650  1.8247 -0.2787
 1040THF    H1113518   2.612   0.311   0.977  0.6202  0.4542  0.0434
 1040THF    H1213519   2.845   0.309   0.942  0.1358  0.0450  0.2740
 1040THF    H1313520   2.875   0.321   1.111 -0.3680 -0.7321 -0.0016
 1041THF     O113521   3.694   2.806   1.158 -0.4404  0.1224  0.2388
 1041THF     C213522   3.715   2.799   1.012 -0.4413 -0.1315  0.1961
 1041THF     C313523   3.561   2.852   1.182 -0.1975  0.6725 -0.2650
 1041THF     H413524   3.692   2.698   0.978 -1.0229 -0.1285  0.5701
 1041THF     H513525   3.822   2.813   0.996  0.2163  0.7722  4.2369
 1041THF     H613526   3.513   2.783   1.251 -0.7949 -0.0901 -1.4161
 1041THF     H713527   3.571   2.950   1.228  0.7171  0.7940 -0.6915
 1041THF     C813528   3.497   2.871   1.044 -0.2188 -0.2901 -0.3936
 1041THF     C913529   3.621   2.899   0.952  0.1677 -0.7350 -0.0637
 1041THF    H1013530   3.432   2.955   1.066  1.0534  0.4792  0.5538
 1041THF    H1113531   3.422   2.796   1.016  0.8807 -1.7404  0.4262
 1041THF    H1213532   3.602   2.884   0.846 -0.5022 -1.0730  0.1017
 1041THF    H1313533   3.651   3.001   0.979 -1.5290  0.1540 -1.3608
 1042THF     O113534   3.129   1.189   2.538 -0.2893  0.5586  0.3949
 1042THF     C213535   3.095   1.070   2.476 -0.1352 -0.7844 -0.2465
 1042THF     C313536   3.269   1.185   2.578  0.1368  0.2246 -0.0999
 1042THF     H413537   3.011   1.084   2.409  0.4396  1.3720 -0.5907
 1042THF     H513538   3.069   1.014   2.566 -0.3064 -0.0786  0.1444
 1042THF     H613539   3.317   1.282   2.586  2.8806 -0.7988 -2.4685
 1042THF     H713540   3.271   1.133   2.674 -1.9209 -0.9213 -0.6146
 1042THF     C813541   3.337   1.096   2.470  0.5185  0.2296 -0.1577
 1042THF     C913542   3.221   1.031   2.403  0.0527  0.0414  0.2999
 1042THF    H1013543   3.401   1.024   2.520 -0.9475  0.0356  1.5571
 1042THF    H1113544   3.397   1.152   2.399 -0.2707  0.5795 -0.5673
 1042THF    H1213545   3.212   1.079   2.305  0.9940  1.2502  0.7701
 1042THF    H1313546   3.236   0.926   2.381 -1.6616 -0.0648 -0.4782
 1043THF     O113547   4.870   2.208   3.467 -0.1464 -0.4048 -0.0737
 1043THF     C213548   4.850   2.288   3.354 -0.2310 -0.0674  0.6570
 1043THF     C313549   4.815   2.283   3.581 -0.1575 -0.5009  0.4684
 1043THF     H413550   4.820   2.226   3.269 -2.2662 -1.0760  2.0225
 1043THF     H513551   4.953   2.313   3.331 -0.1665 -1.4456 -0.7144
 1043THF     H613552   4.723   2.232   3.609 -0.3172 -0.8330 -0.6438
 1043THF     H713553   4.889   2.286   3.661  0.7127  0.1426 -0.3431
 1043THF     C813554   4.798   2.426   3.533  0.0073 -0.1378  0.1553
 1043THF     C913555   4.752   2.399   3.392  0.0248 -0.4019  0.1533
 1043THF    H1013556   4.887   2.489   3.528  1.2587 -1.9089 -2.5681
 1043THF    H1113557   4.722   2.481   3.589 -1.1091 -0.7969 -0.6797
 1043THF    H1213558   4.645   2.385   3.383 -0.2138  1.9101 -1.9639
 1043THF    H1313559   4.770   2.487   3.329  0.8394  0.0469  0.9839
 1044THF     O113560   1.124   5.067   4.227  0.1551 -0.1931  0.4648
 1044THF     C213561   1.150   4.926   4.229  0.3816  0.3333  0.2589
 1044THF     C313562   1.114   5.119   4.361  1.2963  0.3832 -0.0670
 1044THF     H413563   1.204   4.894   4.139  0.9570  0.9877  0.3663
 1044THF     H513564   1.064   4.861   4.241 -0.0751  1.0206  0.7561
 1044THF     H613565   1.169   5.213   4.371  1.1503  0.4036  0.5866
 1044THF     H713566   1.008   5.140   4.377  1.4259  1.3903 -0.4353
 1044THF     C813567   1.154   5.008   4.454 -0.1209  0.6961  0.2997
 1044THF     C913568   1.234   4.921   4.359 -0.0322  0.0870  0.5254
 1044THF    H1013569   1.064   4.954   4.484  0.5217  0.9513  2.9728
 1044THF    H1113570   1.205   5.054   4.539  0.7853 -0.7727  0.5785
 1044THF    H1213571   1.336   4.958   4.351  0.2522 -0.6610  0.5828
 1044THF    H1313572   1.234   4.816   4.391 -1.2399  0.3062  1.3123
 1045THF     O113573   5.145   0.023   3.762  0.4475  0.1239  0.2149
 1045THF     C213574   5.281   0.068   3.785  0.0074 -0.1870  0.1639
 1045THF     C313575   5.134  -0.111   3.816  0.5754  0.6298  0.0106
 1045THF     H413576   5.272   0.154   3.852  1.5934  0.2998 -0.1892
 1045THF     H513577   5.336   0.099   3.696  1.0873 -1.1836  0.4658
 1045THF     H613578   5.034  -0.111   3.860  0.6293 -1.1100  0.1802
 1045THF     H713579   5.127  -0.181   3.733  0.6161  0.4750  0.1361
 1045THF     C813580   5.258  -0.131   3.905 -0.6402 -0.1554  0.0110
 1045THF     C913581   5.368  -0.039   3.844 -0.2986 -0.0860  0.0061
 1045THF    H1013582   5.277  -0.238   3.917  1.5586  0.3125  1.0190
 1045THF    H1113583   5.218  -0.091   3.998 -1.9781  0.0361 -0.6097
 1045THF    H1213584   5.430   0.007   3.920 -0.7688 -0.0972  0.4057
 1045THF    H1313585   5.424  -0.098   3.772  0.8875  0.2164  0.6683
 1046THF     O113586   2.008   1.060   3.034  0.6383 -0.1598  0.0271
 1046THF     C213587   2.095   0.986   2.957  0.6204  0.3541  0.6725
 1046THF     C313588   1.952   0.976   3.139  0.6551  0.1185  0.3114
 1046THF     H413589   2.193   0.990   3.004  0.7383  3.0308  0.3702
 1046THF     H513590   2.096   1.043   2.864 -0.4900 -1.7128 -0.6903
 1046THF     H613591   2.025   0.943   3.212  1.5909  0.2846 -0.5364
 1046THF     H713592   1.863   1.018   3.187  2.0545  1.7422  1.5963
 1046THF     C813593   1.913   0.856   3.049 -0.1619  0.1647  0.6707
 1046THF     C913594   2.026   0.850   2.945  0.7135 -0.3513  0.2072
 1046THF    H1013595   1.822   0.863   2.989 -0.0422  0.5026  0.5274
 1046THF    H1113596   1.915   0.763   3.106  1.6185 -0.1463  0.1767
 1046THF    H1213597   2.099   0.773   2.970  2.7180  1.1755 -0.7218
 1046THF    H1313598   1.985   0.846   2.844 -0.6888  0.0118  0.7281
 1047THF     O113599   1.098   3.323   2.135  0.8199 -0.1289  0.1484
 1047THF     C213600   1.088   3.454   2.187 -0.1132  0.0625 -0.2406
 1047THF     C313601   1.204   3.259   2.208  0.3076  0.2721  0.1046
 1047THF     H413602   0.990   3.496   2.163 -2.2649 -2.9145  2.5398
 1047THF     H513603   1.172   3.520   2.162  1.2692 -1.3733  0.4597
 1047THF     H613604   1.172   3.155   2.210 -1.7437  0.8145 -1.2329
 1047THF     H713605   1.305   3.258   2.167 -0.3303 -1.3304 -1.5525
 1047THF     C813606   1.197   3.328   2.345  0.4382  0.0248  0.1288
 1047THF     C913607   1.090   3.431   2.338  0.0762 -0.0460  0.6289
 1047THF    H1013608   1.295   3.371   2.366  0.2651  1.6550 -2.1316
 1047THF    H1113609   1.169   3.251   2.418 -2.5953  1.3088  0.4543
 1047THF    H1213610   0.997   3.383   2.370 -0.4144  0.8752  0.6311
 1047THF    H1313611   1.113   3.516   2.403 -0.5148  0.1792  0.5480
 1048THF     O113612   2.088   3.992   4.977 -0.4650 -0.7188 -0.3190
 1048THF     C213613   2.011   4.071   5.066  0.5839 -0.6176  0.2901
 1048THF     C313614   2.149   3.895   5.054 -0.3614  0.1443  0.0176
 1048THF     H413615   1.932   4.123   5.012  0.5352 -2.8583 -1.9985
 1048THF     H513616   2.074   4.148   5.111  1.3668  0.5804 -2.6103
 1048THF     H613617   2.185   3.816   4.989 -0.5533  0.1836 -0.1370
 1048THF     H713618   2.241   3.926   5.103  0.8070 -1.7194 -0.8796
 1048THF     C813619   2.043   3.843   5.150 -0.1952  0.3827  0.5791
 1048THF     C913620   1.960   3.973   5.167 -0.3354 -0.1688 -0.2113
 1048THF    H1013621   2.077   3.795   5.242  1.0126 -0.3801 -0.2305
 1048THF    H1113622   1.977   3.766   5.111  0.6192  1.2639 -2.8614
 1048THF    H1213623   1.857   3.941   5.151 -0.5661 -0.7744  2.1425
 1048THF    H1313624   1.969   4.010   5.269  0.8026 -0.0305 -0.3421
 1049THF     O113625   5.161   2.103   5.443 -0.3452  0.3003 -0.2222
 1049THF     C213626   5.081   1.990   5.464 -0.5933 -0.1324  0.5640
 1049THF     C313627   5.281   2.061   5.384 -0.1527  0.5547  0.7477
 1049THF     H413628   5.018   1.989   5.375 -0.3373  1.5698  0.3375
 1049THF     H513629   5.011   2.015   5.545 -0.3202  1.0559  0.4481
 1049THF     H613630   5.292   2.094   5.281  1.7530  2.3889  1.4742
 1049THF     H713631   5.361   2.119   5.429 -1.3418  2.7209  0.1985
 1049THF     C813632   5.292   1.911   5.404  0.2222 -0.0363 -0.3457
 1049THF     C913633   5.180   1.875   5.494  0.1014  1.0484  0.1819
 1049THF    H1013634   5.392   1.890   5.440  0.3269  1.0045  0.0166
 1049THF    H1113635   5.286   1.853   5.312  0.6857  3.3527 -2.6966
 1049THF    H1213636   5.149   1.773   5.476 -0.0631  0.2025  4.3686
 1049THF    H1313637   5.212   1.875   5.598  1.2308 -4.4131  0.1420
 1050THF     O113638   0.264   1.087   0.616 -0.5587 -0.3984  0.2203
 1050THF     C213639   0.194   1.032   0.505 -0.5673 -0.7047  0.1559
 1050THF     C313640   0.262   1.229   0.604  0.1502 -0.8928 -0.0376
 1050THF     H413641   0.176   0.928   0.533 -1.3753 -0.3824  0.9051
 1050THF     H513642   0.274   1.050   0.434  1.0383 -1.3744  1.7046
 1050THF     H613643   0.290   1.278   0.696  1.0054 -1.8012  0.2013
 1050THF     H713644   0.322   1.277   0.526 -1.9839  0.7298 -0.7900
 1050THF     C813645   0.120   1.256   0.561  0.0530 -0.3848 -0.0748
 1050THF     C913646   0.072   1.125   0.506  0.1645  0.3573  0.2217
 1050THF    H1013647   0.120   1.334   0.484  0.5633  0.9131  1.1966
 1050THF    H1113648   0.064   1.285   0.650  0.5765  0.4052  0.0104
 1050THF    H1213649  -0.007   1.085   0.568  0.5181  0.9732  1.0854
 1050THF    H1313650   0.035   1.152   0.406  0.9769 -0.5255 -0.3323
 1051THF     O113651   4.817   3.819   3.408  0.3447  0.1645 -0.0516
 1051THF     C213652   4.948   3.791   3.371 -0.5157  0.2278 -0.1791
 1051THF     C313653   4.731   3.712   3.352 -0.0532  0.1411  0.0700
 1051THF     H413654   4.991   3.718   3.440 -0.1172 -1.0334 -1.7055
 1051THF     H513655   5.009   3.881   3.376 -0.3078  0.1277 -0.8419
 1051THF     H613656   4.740   3.623   3.415 -1.8068 -0.2557 -0.1899
 1051THF     H713657   4.626   3.742   3.356 -0.1251  0.2168 -1.6254
 1051THF     C813658   4.785   3.686   3.215  0.2481  0.2623 -0.1697
 1051THF     C913659   4.935   3.725   3.231 -0.0092 -0.5646 -0.0187
 1051THF    H1013660   4.736   3.740   3.133  1.3369 -0.0720 -1.0813
 1051THF    H1113661   4.775   3.583   3.181 -0.2621  0.9824 -2.4295
 1051THF    H1213662   5.012   3.648   3.228 -0.6663 -1.1979 -1.3151
 1051THF    H1313663   4.961   3.791   3.148  0.0825 -0.3234  0.1979
 1052THF     O113664   5.088   0.548   0.641  0.5779  0.4558 -1.0048
 1052THF     C213665   5.089   0.611   0.773 -0.0121  0.3118 -0.1106
 1052THF     C313666   5.206   0.482   0.621 -0.4817 -0.0062 -0.6150
 1052THF     H413667   5.070   0.533   0.846 -1.9446 -0.0775 -0.9837
 1052THF     H513668   5.018   0.692   0.788  0.4276  0.9223 -1.1845
 1052THF     H613669   5.200   0.378   0.654  1.0814  0.5648  1.6220
 1052THF     H713670   5.232   0.465   0.516 -0.0370 -0.4355 -0.4419
 1052THF     C813671   5.320   0.561   0.696  0.2786 -0.2541  0.4504
 1052THF     C913672   5.242   0.651   0.792 -0.2425  0.0637  0.2297
 1052THF    H1013673   5.374   0.636   0.637 -0.1476 -0.1376  0.2068
 1052THF    H1113674   5.396   0.501   0.747 -0.4268 -1.2776  0.3090
 1052THF    H1213675   5.259   0.625   0.897 -2.4769  1.9707  1.1428
 1052THF    H1313676   5.261   0.754   0.762  1.7092 -0.4181 -0.3602
 1053THF     O113677   0.060   2.593   3.196  0.1156 -0.1457 -0.8198
 1053THF     C213678   0.153   2.677   3.126  0.4686  0.5397  0.6881
 1053THF     C313679  -0.045   2.554   3.114  0.0810  0.3481  0.5814
 1053THF     H413680   0.251   2.638   3.152 -0.1848  0.1332  2.6944
 1053THF     H513681   0.155   2.777   3.169  0.8728  1.4804 -1.3562
 1053THF     H613682  -0.076   2.451   3.130 -0.7489  0.5062  0.0489
 1053THF     H713683  -0.118   2.633   3.130 -1.8352 -0.6694 -2.1706
 1053THF     C813684   0.007   2.563   2.971 -0.1164 -0.0500 -1.5649
 1053THF     C913685   0.111   2.676   2.979  0.1130 -0.7245  0.1017
 1053THF    H1013686  -0.075   2.577   2.902 -0.3399  0.1129 -1.2713
 1053THF    H1113687   0.048   2.467   2.942 -0.9623 -0.5426 -1.1736
 1053THF    H1213688   0.193   2.665   2.907  0.4633  1.2737  0.1501
 1053THF    H1313689   0.059   2.769   2.955  1.4020 -0.0292 -0.0986
 1054THF     O113690   3.087   2.165   3.484 -0.0067 -0.3889  0.5752
 1054THF     C213691   3.046   2.064   3.397 -0.4502 -0.5985  0.3604
 1054THF     C313692   2.983   2.261   3.498  0.2481  0.2242 -0.8754
 1054THF     H413693   3.093   1.966   3.402 -0.1724 -0.4314  1.1776
 1054THF     H513694   3.048   2.106   3.297  0.2339 -2.1461 -0.3055
 1054THF     H613695   3.000   2.314   3.592 -0.8676 -1.3023  0.2097
 1054THF     H713696   2.994   2.321   3.407  3.0557  0.9388 -0.1972
 1054THF     C813697   2.857   2.169   3.492 -0.2139 -0.9038 -0.9393
 1054THF     C913698   2.905   2.034   3.441  0.0135 -0.4942 -0.7747
 1054THF    H1013699   2.785   2.209   3.421 -0.9634 -2.9502 -1.3972
 1054THF    H1113700   2.796   2.166   3.582  0.3136 -1.0843 -0.5828
 1054THF    H1213701   2.907   1.958   3.519 -1.3861  0.7701  0.5622
 1054THF    H1313702   2.846   1.999   3.356  1.4200  0.1023 -2.0351
 1055THF     O113703   4.124   1.451   5.077 -0.2123  0.0863 -0.7590
 1055THF     C213704   3.983   1.470   5.086  0.6046 -0.5442  0.3431
 1055THF     C313705   4.179   1.506   5.194  0.5397  0.2228 -0.0311
 1055THF     H413706   3.946   1.390   5.150  0.7801 -2.2493 -1.5778
 1055THF     H513707   3.937   1.462   4.987  0.4454  0.4211  0.3252
 1055THF     H613708   4.147   1.430   5.265  1.5436 -2.2933 -2.0962
 1055THF     H713709   4.288   1.498   5.198  0.5022 -1.0412 -0.9241
 1055THF     C813710   4.101   1.633   5.209 -1.3385 -0.2487 -0.0365
 1055THF     C913711   3.972   1.607   5.139  0.2466  0.8032  0.1616
 1055THF    H1013712   4.153   1.711   5.154 -0.8199 -0.5933 -0.0404
 1055THF    H1113713   4.086   1.659   5.314  1.1860  2.0378 -0.1524
 1055THF    H1213714   3.891   1.620   5.210 -0.2173  1.8408 -0.5322
 1055THF    H1313715   3.961   1.681   5.060  0.1889  1.1874  0.5252
 1056THF     O113716   0.357   0.190   2.613 -0.4775  0.0612  0.4130
 1056THF     C213717   0.438   0.225   2.497  0.3941 -0.3674 -0.5724
 1056THF     C313718   0.263   0.291   2.626  0.4039 -0.2298 -0.0446
 1056THF     H413719   0.504   0.151   2.452 -1.6694 -1.5178 -1.8654
 1056THF     H513720   0.501   0.313   2.501 -0.9040  1.0027 -4.9141
 1056THF     H613721   0.181   0.255   2.689  0.7327 -0.1492  0.4384
 1056THF     H713722   0.303   0.382   2.672  0.6037 -0.0070 -0.6556
 1056THF     C813723   0.217   0.307   2.477 -0.1455  0.6488  0.0152
 1056THF     C913724   0.330   0.244   2.398 -0.6397 -0.2015 -0.1588
 1056THF    H1013725   0.190   0.412   2.464 -0.1616  0.4714 -1.6659
 1056THF    H1113726   0.128   0.246   2.460  0.1202  0.6423 -1.5144
 1056THF    H1213727   0.300   0.143   2.368 -0.0112 -0.0363 -1.4225
 1056THF    H1313728   0.354   0.298   2.306 -0.0875  0.7255  0.5234
 1057THF     O113729   4.056   5.294   2.194 -0.2099 -0.1926  0.0781
 1057THF     C213730   4.176   5.354   2.146  0.1354  0.4184  0.1858
 1057THF     C313731   3.940   5.378   2.154 -0.1744 -0.4440 -0.5451
 1057THF     H413732   4.181   5.326   2.041  2.6504 -0.3458  0.4450
 1057THF     H513733   4.265   5.315   2.196 -0.7138 -0.9330  0.6732
 1057THF     H613734   3.912   5.353   2.051 -1.9661 -1.6676  0.1896
 1057THF     H713735   3.856   5.350   2.217 -1.1671  0.1704 -1.5578
 1057THF     C813736   3.990   5.520   2.140 -0.7940 -0.0570 -0.7460
 1057THF     C913737   4.135   5.502   2.161  0.0520 -0.4290 -0.1021
 1057THF    H1013738   3.943   5.591   2.208 -0.4260 -0.5688  0.0620
 1057THF    H1113739   3.973   5.560   2.040  2.9456  2.7931 -0.4673
 1057THF    H1213740   4.199   5.570   2.105  0.0773  1.2408  1.8547
 1057THF    H1313741   4.153   5.511   2.268 -2.2032 -0.1992  0.2991
 1058THF     O113742   3.659   0.477   3.715 -0.1220  0.1547 -0.3516
 1058THF     C213743   3.676   0.559   3.821 -0.5015 -0.0843  0.3365
 1058THF     C313744   3.647   0.339   3.757  0.0496 -0.9110 -0.4277
 1058THF     H413745   3.581   0.601   3.851 -0.8637 -0.4161 -0.3288
 1058THF     H513746   3.725   0.650   3.787 -2.2597  0.6190 -0.4093
 1058THF     H613747   3.546   0.298   3.749 -0.0298 -0.5963 -1.1005
 1058THF     H713748   3.716   0.272   3.707  2.7069  2.4176 -1.5546
 1058THF     C813749   3.663   0.340   3.909  0.0026 -0.1830 -0.4983
 1058THF     C913750   3.733   0.470   3.942  0.1004  0.2029  0.0450
 1058THF    H1013751   3.718   0.259   3.957 -0.9052  0.0375  0.9445
 1058THF    H1113752   3.570   0.337   3.965  0.7653 -0.4397  0.7969
 1058THF    H1213753   3.715   0.514   4.040  0.9044  0.6026  0.0244
 1058THF    H1313754   3.840   0.454   3.929  0.0436  1.4978 -2.7848
 1059THF     O113755   4.646   2.178   1.743  0.4426 -0.0549  0.2626
 1059THF     C213756   4.619   2.104   1.857  0.3557  0.0844  0.4156
 1059THF     C313757   4.783   2.203   1.741 -0.1025 -0.4003 -0.6084
 1059THF     H413758   4.531   2.040   1.847  0.9558 -0.6800 -0.0757
 1059THF     H513759   4.589   2.174   1.935  1.4488  1.1781 -0.1045
 1059THF     H613760   4.814   2.230   1.641 -1.2073 -0.1662 -0.9064
 1059THF     H713761   4.805   2.281   1.815 -0.2447  0.0094 -0.9947
 1059THF     C813762   4.841   2.066   1.771 -0.4488  0.3686 -0.4365
 1059THF     C913763   4.745   2.018   1.886  0.3373  0.8982 -0.8312
 1059THF    H1013764   4.946   2.064   1.800 -0.5852  1.1879  0.1581
 1059THF    H1113765   4.825   2.006   1.682  0.2766  0.4513 -0.6287
 1059THF    H1213766   4.728   1.910   1.879  0.6091  0.3152  4.0135
 1059THF    H1313767   4.775   2.045   1.987 -0.3603 -2.4428  0.3973
 1060THF     O113768   3.655   4.640   0.048 -0.5863  0.1099 -0.2773
 1060THF     C213769   3.604   4.557  -0.059  0.5433  0.2101  0.0731
 1060THF     C313770   3.771   4.573   0.099  0.2244 -0.1676 -0.1279
 1060THF     H413771   3.564   4.625  -0.135 -0.4168 -1.3737 -0.8946
 1060THF     H513772   3.523   4.497  -0.017 -1.1837  2.3952  0.0508
 1060THF     H613773   3.829   4.644   0.158  0.5911 -2.1207  2.0005
 1060THF     H713774   3.742   4.492   0.166 -0.0309  0.9462  1.1447
 1060THF     C813775   3.844   4.529  -0.024  0.0524  0.4173  0.9976
 1060THF     C913776   3.730   4.480  -0.106  0.2604 -0.2843  0.1007
 1060THF    H1013777   3.917   4.453   0.001 -1.2249 -1.3109 -0.2834
 1060THF    H1113778   3.898   4.616  -0.064  0.5988 -0.4804 -0.2931
 1060THF    H1213779   3.755   4.493  -0.211  0.4799  1.5910  0.3382
 1060THF    H1313780   3.710   4.376  -0.083 -0.1772 -0.3630 -0.6174
 1061THF     O113781   0.928   4.468   3.502  0.2586  0.0534 -0.1588
 1061THF     C213782   1.006   4.373   3.579  0.2800 -0.3271  0.3743
 1061THF     C313783   0.845   4.545   3.594 -0.1218  0.3236 -0.2967
 1061THF     H413784   1.097   4.327   3.540  1.7534  0.0458  3.1516
 1061THF     H513785   0.945   4.287   3.609  0.3529 -0.2764  0.6677
 1061THF     H613786   0.847   4.649   3.562  2.6030 -0.3786 -2.7925
 1061THF     H713787   0.745   4.503   3.602 -0.6034  1.6833  1.4298
 1061THF     C813788   0.910   4.540   3.727  0.2176 -0.4524 -0.8390
 1061THF     C913789   1.037   4.465   3.694 -0.0424  0.3183  1.1662
 1061THF    H1013790   0.851   4.490   3.803  1.3691  0.0071  0.4115
 1061THF    H1113791   0.933   4.640   3.765 -0.6324 -1.1083  1.5452
 1061THF    H1213792   1.117   4.530   3.659 -1.5610  1.7161  0.1174
 1061THF    H1313793   1.079   4.406   3.775  1.2129 -1.2125 -0.5053
 1062THF     O113794   1.559   2.987   5.466  0.4911  0.3279 -0.2834
 1062THF     C213795   1.685   2.928   5.506 -0.1555 -0.2166  0.3273
 1062THF     C313796   1.494   2.883   5.396 -0.2757  0.2802 -0.0526
 1062THF     H413797   1.732   2.979   5.591  0.7329 -0.1312 -0.2010
 1062THF     H513798   1.754   2.927   5.422 -2.6385 -1.1560 -1.8133
 1062THF     H613799   1.387   2.904   5.391  0.3896  4.1373 -1.4368
 1062THF     H713800   1.541   2.886   5.297  2.0817  0.6366  1.0052
 1062THF     C813801   1.533   2.749   5.463 -0.6411  0.0624 -0.1370
 1062THF     C913802   1.665   2.777   5.529 -0.5825 -0.0824 -0.0149
 1062THF    H1013803   1.543   2.658   5.405  0.9671 -0.0691  0.2761
 1062THF    H1113804   1.461   2.737   5.544 -0.1778 -1.6942  0.0587
 1062THF    H1213805   1.652   2.748   5.633 -0.0025 -1.9161 -0.4217
 1062THF    H1313806   1.747   2.716   5.493  0.0710  0.4920  0.4689
 1063THF     O113807   3.131   1.366   5.363 -0.0223 -0.2888 -0.5763
 1063THF     C213808   3.065   1.243   5.390 -0.1698 -0.1295  0.0864
 1063THF     C313809   3.251   1.364   5.436  0.1399 -0.0106 -0.5677
 1063THF     H413810   2.995   1.223   5.310 -0.8771  2.0839  0.0969
 1063THF     H513811   3.004   1.252   5.480 -2.0967 -0.0107 -1.1819
 1063THF     H613812   3.317   1.446   5.407  1.3339 -0.1099  1.6601
 1063THF     H713813   3.228   1.392   5.539 -1.4160  0.1333 -0.9323
 1063THF     C813814   3.304   1.220   5.406 -0.1403  0.4963  0.1579
 1063THF     C913815   3.177   1.136   5.408  0.2625 -0.0925  0.0377
 1063THF    H1013816   3.384   1.196   5.476 -0.3485  0.3693  0.3543
 1063THF    H1113817   3.345   1.220   5.305  1.1605  0.4373  0.6656
 1063THF    H1213818   3.171   1.053   5.338  0.1390 -0.5515  0.5786
 1063THF    H1313819   3.167   1.083   5.503 -0.0999 -1.1076 -0.5566
 1064THF     O113820   2.880   3.064   3.639  0.1094 -0.3070 -0.1731
 1064THF     C213821   2.818   2.993   3.745  0.6561  0.7961 -0.1019
 1064THF     C313822   2.869   2.996   3.516 -0.0202  0.8767  0.7953
 1064THF     H413823   2.774   3.065   3.814  1.6229  0.4485  0.9119
 1064THF     H513824   2.892   2.931   3.796 -0.8191 -0.5992  0.4148
 1064THF     H613825   2.827   3.062   3.440  1.5060 -0.8080 -1.6428
 1064THF     H713826   2.961   2.960   3.472 -1.2014 -0.7670 -0.4543
 1064THF     C813827   2.775   2.879   3.543  0.2982 -0.3920 -0.5606
 1064THF     C913828   2.706   2.920   3.675 -0.8781 -0.3833 -0.8643
 1064THF    H1013829   2.823   2.784   3.566  1.0210 -0.2260 -1.3742
 1064THF    H1113830   2.694   2.864   3.472 -2.0932 -0.5203  1.9872
 1064THF    H1213831   2.632   2.997   3.654  1.6405  1.9437 -1.8367
 1064THF    H1313832   2.659   2.842   3.735  0.3220 -0.5879 -0.1680
 1065THF     O113833   5.054   1.279   2.351  0.4655  0.2814  0.2671
 1065THF     C213834   5.024   1.334   2.474  0.0046  0.0055  0.9729
 1065THF     C313835   4.981   1.167   2.322  0.0577  0.3778 -0.4552
 1065THF     H413836   5.008   1.440   2.456  0.6487 -0.3792 -2.4095
 1065THF     H513837   5.113   1.335   2.537  0.5346  0.7813  0.2286
 1065THF     H613838   4.899   1.187   2.252 -1.1278 -0.6161  0.6181
 1065THF     H713839   5.047   1.087   2.289  0.4109 -0.8060  2.8188
 1065THF     C813840   4.905   1.136   2.453  0.1272  0.3017 -0.2678
 1065THF     C913841   4.897   1.270   2.526 -0.8624  0.6791 -0.1709
 1065THF    H1013842   4.953   1.059   2.514 -0.4738  0.2470  0.1397
 1065THF    H1113843   4.803   1.099   2.440  0.5176 -1.5269  1.4130
 1065THF    H1213844   4.809   1.325   2.492 -1.6748  0.2518  1.1546
 1065THF    H1313845   4.888   1.273   2.634 -2.6988 -0.0258 -0.2629
 1066THF     O113846   4.185   0.912   5.322 -0.0725 -0.3027  0.1483
 1066THF     C213847   4.194   0.811   5.226  0.3903 -0.1619 -0.6917
 1066THF     C313848   4.069   0.992   5.292  0.0013  0.4768 -0.9178
 1066THF     H413849   4.125   0.727   5.240 -0.8973  0.3435 -3.3336
 1066THF     H513850   4.296   0.773   5.217  1.1774  1.1610  1.7475
 1066THF     H613851   3.990   0.988   5.366  1.7854  0.7730  1.0963
 1066THF     H713852   4.108   1.093   5.278  4.0469 -0.8897 -0.9628
 1066THF     C813853   4.022   0.945   5.147  0.6153  0.4199 -0.4002
 1066THF     C913854   4.147   0.872   5.093 -0.1013 -0.5762 -0.5181
 1066THF    H1013855   3.978   1.023   5.085  1.8586  1.1103 -0.4482
 1066THF    H1113856   3.934   0.881   5.155  0.8437 -0.1499 -2.1411
 1066THF    H1213857   4.127   0.803   5.012 -0.0727  1.2638 -2.1645
 1066THF    H1313858   4.213   0.945   5.047  0.2514 -0.3717  0.2859
 1067THF     O113859   0.317   2.655   3.444  0.1057 -0.0833  0.6868
 1067THF     C213860   0.406   2.764   3.491  0.1982 -0.3009 -0.0622
 1067THF     C313861   0.372   2.539   3.499 -0.0412 -0.3896  0.1424
 1067THF     H413862   0.399   2.783   3.598 -3.4349  1.0102 -0.3786
 1067THF     H513863   0.400   2.863   3.445  1.8832  0.2204  0.7563
 1067THF     H613864   0.377   2.543   3.608  1.9840 -0.3436  0.0945
 1067THF     H713865   0.311   2.454   3.466 -1.2886  1.1587 -1.7570
 1067THF     C813866   0.525   2.552   3.469  0.2433 -0.3295  0.0447
 1067THF     C913867   0.548   2.697   3.453 -0.5832  0.6141 -0.0779
 1067THF    H1013868   0.567   2.488   3.392 -1.2038  0.4894 -1.5013
 1067THF    H1113869   0.566   2.513   3.563 -1.3253 -0.9600  0.5058
 1067THF    H1213870   0.626   2.728   3.521 -0.3019  1.0836 -0.6020
 1067THF    H1313871   0.572   2.730   3.352  1.9635  1.2579  0.6719
 1068THF     O113872   1.026   2.405   1.999 -0.3576 -0.1485  0.6422
 1068THF     C213873   0.888   2.449   1.986 -0.2300 -0.3134  0.1467
 1068THF     C313874   1.055   2.314   1.893 -0.6722  0.3963  0.1827
 1068THF     H413875   0.897   2.541   1.928  0.8957 -1.3948 -1.4653
 1068THF     H513876   0.840   2.491   2.074 -0.7060 -0.8243  0.1384
 1068THF     H613877   1.097   2.377   1.815  0.1130  0.3486  0.5572
 1068THF     H713878   1.132   2.240   1.914 -1.1973 -1.1800 -2.9009
 1068THF     C813879   0.923   2.255   1.854  0.8134  0.3338  0.7016
 1068THF     C913880   0.813   2.334   1.923  0.3216  0.3875  0.5816
 1068THF    H1013881   0.920   2.150   1.884  1.0289  0.8537  2.6773
 1068THF    H1113882   0.910   2.266   1.746 -2.6576  4.5500  1.2907
 1068THF    H1213883   0.737   2.365   1.852 -0.3410 -0.8465  0.7104
 1068THF    H1313884   0.759   2.277   1.999  3.8670 -3.3317  0.6792
 1069THF     O113885   4.904   3.433   3.812 -0.3447  0.1739 -1.2445
 1069THF     C213886   4.835   3.311   3.836 -0.3997  0.7222  1.6785
 1069THF     C313887   4.807   3.533   3.791  0.1129  0.1132  0.1099
 1069THF     H413888   4.792   3.310   3.936 -2.4980 -1.9265  0.8781
 1069THF     H513889   4.896   3.222   3.824 -0.5254  0.9459 -1.2953
 1069THF     H613890   4.776   3.580   3.884  3.5299  1.1425  0.8646
 1069THF     H713891   4.869   3.605   3.737  0.3523 -0.0090  0.2230
 1069THF     C813892   4.693   3.463   3.719 -0.1219  0.4933  0.2695
 1069THF     C913893   4.721   3.310   3.735 -0.6093  0.2898 -0.0813
 1069THF    H1013894   4.690   3.474   3.610 -1.2674  1.3486  0.3680
 1069THF    H1113895   4.597   3.485   3.765 -0.3433  0.2466 -0.0653
 1069THF    H1213896   4.638   3.253   3.777  0.3711 -0.7353  0.5246
 1069THF    H1313897   4.756   3.263   3.643 -3.4435  1.0581 -1.6754
 1070THF     O113898   5.170   0.803   0.283 -0.7703  0.3086  0.3329
 1070THF     C213899   5.046   0.743   0.315 -0.9542 -0.0140  0.5131
 1070THF     C313900   5.225   0.851   0.406 -0.9222 -0.3937  0.2191
 1070THF     H413901   5.082   0.644   0.343  1.7316  1.5480  3.3164
 1070THF     H513902   4.990   0.727   0.223 -0.6008 -2.3660  0.6562
 1070THF     H613903   5.266   0.761   0.453 -0.7179  0.3367  1.4815
 1070THF     H713904   5.306   0.922   0.389 -0.8803 -0.5343 -0.1869
 1070THF     C813905   5.104   0.902   0.485  0.5372  1.4088  0.2837
 1070THF     C913906   4.984   0.825   0.436  0.4812 -0.2175 -0.1716
 1070THF    H1013907   5.090   1.008   0.465 -2.9051  1.3658  1.6571
 1070THF    H1113908   5.122   0.894   0.592  0.6465  1.4584  0.2690
 1070THF    H1213909   4.928   0.761   0.503  0.5173  0.8261  0.8838
 1070THF    H1313910   4.912   0.903   0.411  1.4785  0.2552 -1.7588
 1071THF     O113911   3.500   2.670   5.209  0.1080  0.6450  0.5933
 1071THF     C213912   3.506   2.597   5.334  0.2556 -0.7714 -0.2596
 1071THF     C313913   3.359   2.657   5.169 -0.1273  0.1341 -0.7928
 1071THF     H413914   3.603   2.603   5.383  0.0342  1.6277 -0.0015
 1071THF     H513915   3.491   2.493   5.308 -0.7150 -0.7094  0.0273
 1071THF     H613916   3.314   2.710   5.085  1.8349  0.0025 -1.9960
 1071THF     H713917   3.351   2.550   5.151 -1.0903 -0.0593  0.6656
 1071THF     C813918   3.288   2.692   5.306 -0.2872  0.3063  0.0176
 1071THF     C913919   3.385   2.655   5.415  0.0161 -0.6792  0.0523
 1071THF    H1013920   3.198   2.633   5.319 -1.0979  0.9860 -2.0206
 1071THF    H1113921   3.260   2.798   5.313 -0.5086  0.3260 -1.0536
 1071THF    H1213922   3.417   2.744   5.468 -2.0060  1.1046 -1.5082
 1071THF    H1313923   3.341   2.589   5.490 -0.5073 -0.1727  0.1993
 1072THF     O113924   4.509   5.265   0.320  0.0980 -0.2849 -0.2168
 1072THF     C213925   4.629   5.206   0.285 -0.2843  0.6373 -0.2464
 1072THF     C313926   4.528   5.405   0.339  0.2128  0.0645 -0.4720
 1072THF     H413927   4.618   5.106   0.241 -2.8221  0.0864  1.4296
 1072THF     H513928   4.692   5.187   0.371  1.1767 -1.3623 -1.6634
 1072THF     H613929   4.429   5.452   0.341 -0.0291 -0.4053 -1.1233
 1072THF     H713930   4.581   5.419   0.433 -0.2102  0.9975 -0.3581
 1072THF     C813931   4.617   5.440   0.222 -0.5137 -0.2245  0.1524
 1072THF     C913932   4.701   5.319   0.202  0.2926 -0.9809  0.3132
 1072THF    H1013933   4.667   5.535   0.240 -1.9064  0.4712  0.4860
 1072THF    H1113934   4.566   5.447   0.126  1.6477  0.3144 -1.0275
 1072THF    H1213935   4.708   5.296   0.096  1.8311  0.1569  0.1387
 1072THF    H1313936   4.802   5.322   0.242  0.1379 -0.5523  0.6871
 1073THF     O113937   5.083   5.122   2.003 -0.2468 -0.2144  0.4422
 1073THF     C213938   5.076   5.228   2.086 -0.5970 -0.4299  0.1419
 1073THF     C313939   5.179   5.033   2.062  0.0157  0.2611 -0.9439
 1073THF     H413940   5.005   5.306   2.057  1.7963  0.5255 -3.7208
 1073THF     H513941   5.171   5.281   2.084  1.2206 -3.5222 -0.4664
 1073THF     H613942   5.153   4.933   2.030  0.7802 -0.2264 -0.0884
 1073THF     H713943   5.280   5.065   2.035  0.4078 -0.5754 -0.5043
 1073THF     C813944   5.155   5.045   2.218  0.1806 -0.0022 -0.0233
 1073THF     C913945   5.056   5.162   2.222  0.4012  0.0134 -0.6301
 1073THF    H1013946   5.252   5.063   2.265  1.0434 -0.4452 -1.5805
 1073THF    H1113947   5.123   4.950   2.262  2.0490 -0.4626  0.4445
 1073THF    H1213948   4.952   5.130   2.217  0.9536 -1.8624 -0.8751
 1073THF    H1313949   5.063   5.239   2.298  0.9537 -1.0979  0.4699
 1074THF     O113950   1.809   0.736   2.672 -0.7838  0.2767 -0.2633
 1074THF     C213951   1.735   0.859   2.667  1.3497 -0.2591 -0.0078
 1074THF     C313952   1.900   0.751   2.571 -0.6412  0.4653  0.0255
 1074THF     H413953   1.792   0.944   2.705 -1.0343  1.3629  0.1953
 1074THF     H513954   1.639   0.847   2.718  1.9548 -1.7243  0.8255
 1074THF     H613955   2.001   0.776   2.604 -0.2822  0.0847 -0.7667
 1074THF     H713956   1.902   0.653   2.524  1.6319 -0.1215  1.1944
 1074THF     C813957   1.845   0.845   2.464 -0.3307  0.1167  0.4551
 1074THF     C913958   1.714   0.881   2.519  0.2583 -0.1181  0.7603
 1074THF    H1013959   1.843   0.794   2.367  2.6948  1.9129 -0.6990
 1074THF    H1113960   1.906   0.933   2.444  0.5174 -0.9725 -2.3672
 1074THF    H1213961   1.705   0.987   2.495  0.7100 -0.6548 -2.1287
 1074THF    H1313962   1.630   0.819   2.489  0.3314  0.5252 -0.8625
 1075THF     O113963   5.052   4.278   4.995  0.2869  0.3091  0.4868
 1075THF     C213964   4.946   4.346   5.059 -0.4283 -0.5049 -0.2647
 1075THF     C313965   5.150   4.262   5.094 -0.3266 -0.0472 -0.6773
 1075THF     H413966   4.895   4.276   5.124  1.0581 -2.1468 -0.7807
 1075THF     H513967   4.872   4.400   5.000  0.7101  1.0687 -0.3436
 1075THF     H613968   5.131   4.174   5.156  0.7486  0.3585  0.2696
 1075THF     H713969   5.247   4.245   5.046 -1.1104  1.9671 -3.1525
 1075THF     C813970   5.162   4.396   5.159 -1.0012  0.2049  0.2305
 1075THF     C913971   5.026   4.453   5.138 -0.1601 -0.1935  0.9538
 1075THF    H1013972   5.235   4.452   5.102  0.1021 -0.8146  0.6095
 1075THF    H1113973   5.188   4.390   5.265  0.1143 -0.8592 -0.0808
 1075THF    H1213974   4.973   4.492   5.225 -2.8306  1.7000 -1.3188
 1075THF    H1313975   5.032   4.538   5.070 -0.7962 -1.2068 -0.4266
 1076THF     O113976   2.239   0.116   0.876  0.1742  0.0104  0.6417
 1076THF     C213977   2.143   0.014   0.871 -0.3018 -0.0239 -0.3549
 1076THF     C313978   2.239   0.150   1.009 -0.0386  0.5540 -0.4814
 1076THF     H413979   2.156  -0.045   0.780 -1.2919  1.3953 -1.4573
 1076THF     H513980   2.045   0.061   0.864 -1.1394 -1.7824 -0.9756
 1076THF     H613981   2.322   0.213   1.040 -1.5161  1.2000  2.4362
 1076THF     H713982   2.153   0.212   1.032 -0.6197 -1.0091  1.8465
 1076THF     C813983   2.223   0.024   1.098 -0.1046  0.6765  0.2690
 1076THF     C913984   2.155  -0.072   1.002  0.8810  0.2668  0.3546
 1076THF    H1013985   2.158   0.043   1.183 -0.2122  0.5550  0.2153
 1076THF    H1113986   2.318  -0.016   1.133  0.1306  1.6378  0.7490
 1076THF    H1213987   2.221  -0.156   0.977  0.6575  0.0325  0.5460
 1076THF    H1313988   2.066  -0.112   1.050  2.1355 -2.8179  0.4037
 1077THF     O113989   3.636   1.046   3.742  0.9022 -0.6617 -0.0102
 1077THF     C213990   3.635   0.964   3.631 -0.6456 -0.0790 -0.1655
 1077THF     C313991   3.759   1.035   3.815  0.1375 -0.1737  0.1244
 1077THF     H413992   3.581   1.030   3.564  2.6754  0.5630 -2.4398
 1077THF     H513993   3.573   0.877   3.651  0.4295 -0.7387  0.4353
 1077THF     H613994   3.769   1.120   3.882 -0.9353 -0.1004  0.2028
 1077THF     H713995   3.763   0.950   3.882  0.1518  0.8862  1.5041
 1077THF     C813996   3.861   1.019   3.700 -0.7169 -0.2307  0.2651
 1077THF     C913997   3.782   0.929   3.602 -0.0450 -0.0300  0.6823
 1077THF    H1013998   3.954   0.972   3.733 -1.1672 -1.1313  0.2820
 1077THF    H1113999   3.888   1.117   3.659 -1.2242  0.3348  1.2582
 1077THF    H1214000   3.797   0.954   3.496 -1.7002 -1.6893  0.0047
 1077THF    H1314001   3.807   0.824   3.614  1.1251  0.1669  0.1510
 1078THF     O114002   4.004   1.656   3.003 -0.1222  0.2012  0.2450
 1078THF     C214003   4.147   1.639   2.978 -0.0670 -0.2142 -0.0116
 1078THF     C314004   3.958   1.557   3.093 -0.3392 -0.2420 -0.1318
 1078THF     H414005   4.188   1.735   2.946  0.1160 -1.0536 -2.4972
 1078THF     H514006   4.148   1.579   2.887 -1.4987  2.1010 -1.6683
 1078THF     H614007   3.927   1.608   3.184 -0.1049 -1.5712  0.7135
 1078THF     H714008   3.873   1.501   3.055 -0.0779 -1.2952  0.7788
 1078THF     C814009   4.084   1.467   3.110  0.3642 -0.3444 -0.8891
 1078THF     C914010   4.211   1.554   3.086 -0.0188  0.4275  0.2368
 1078THF    H1014011   4.065   1.386   3.040 -2.2346 -1.2254  0.7033
 1078THF    H1114012   4.081   1.419   3.208 -0.4882 -0.2274 -0.8515
 1078THF    H1214013   4.255   1.604   3.173  1.1045 -1.6749  0.9537
 1078THF    H1314014   4.297   1.506   3.040  0.1276  1.7405 -0.9062
 1079THF     O114015   0.402   0.789   2.424  0.3756  0.1170 -0.4198
 1079THF     C214016   0.271   0.809   2.363 -0.6600 -0.8076 -1.0963
 1079THF     C314017   0.497   0.854   2.341 -0.6767 -0.8420  0.4317
 1079THF     H414018   0.185   0.794   2.428 -0.8962  0.0272 -1.2051
 1079THF     H514019   0.272   0.722   2.297 -2.9504 -1.7793  0.0269
 1079THF     H614020   0.593   0.870   2.390  0.0859  1.1429 -1.5267
 1079THF     H714021   0.519   0.780   2.264  1.5267 -0.4565  0.6186
 1079THF     C814022   0.431   0.977   2.285  0.6822  0.1067 -0.2636
 1079THF     C914023   0.283   0.945   2.288  0.5895  0.1416  0.0050
 1079THF    H1014024   0.469   0.997   2.185  1.4573  1.3959  0.2686
 1079THF    H1114025   0.454   1.060   2.351 -0.9940 -0.1866  0.7652
 1079THF    H1214026   0.228   1.025   2.339  2.2272  1.0018  0.4980
 1079THF    H1314027   0.236   0.943   2.190 -1.8084 -0.2295  1.0787
 1080THF     O114028   1.315   0.009   5.472 -0.0994  0.0757  0.1542
 1080THF     C214029   1.413   0.114   5.457 -0.0404  0.7958  0.3478
 1080THF     C314030   1.333  -0.083   5.367 -0.0211  0.1276 -0.1357
 1080THF     H414031   1.436   0.188   5.533  0.6762  0.8032  0.1284
 1080THF     H514032   1.384   0.169   5.368 -0.9044  0.4439  0.3954
 1080THF     H614033   1.312  -0.184   5.403  2.4189  0.1110  1.5099
 1080THF     H714034   1.289  -0.051   5.273 -0.8403  1.2702  0.6171
 1080THF     C814035   1.482  -0.089   5.351  0.1395 -0.4909 -0.2438
 1080THF     C914036   1.534   0.042   5.410 -0.6589 -0.5176 -0.4493
 1080THF    H1014037   1.500  -0.106   5.244  1.2916 -1.7534  0.1198
 1080THF    H1114038   1.528  -0.176   5.398 -0.9108 -0.1888  1.4184
 1080THF    H1214039   1.597   0.021   5.496 -2.5944 -1.2083  0.8546
 1080THF    H1314040   1.580   0.113   5.341 -1.0371 -0.4601 -0.6428
 1081THF     O114041   2.499   0.448   0.076  0.0427 -0.3716 -0.0564
 1081THF     C214042   2.417   0.342   0.126 -0.2687 -0.3747  0.1721
 1081THF     C314043   2.463   0.563   0.158  0.2292  0.4923 -0.3306
 1081THF     H414044   2.462   0.249   0.091  2.6711  0.7350  0.7206
 1081THF     H514045   2.317   0.353   0.085 -0.2138  0.1324  0.1651
 1081THF     H614046   2.536   0.644   0.159  0.9556 -0.1402  0.7747
 1081THF     H714047   2.367   0.596   0.120 -0.4244 -0.8843  0.0404
 1081THF     C814048   2.457   0.503   0.303 -0.0747 -0.0248 -0.3604
 1081THF     C914049   2.430   0.356   0.280  0.0389 -0.7343  0.2283
 1081THF    H1014050   2.378   0.555   0.356  1.2046  1.3699  0.2278
 1081THF    H1114051   2.556   0.515   0.347  0.2075 -0.9984 -0.6975
 1081THF    H1214052   2.510   0.286   0.303  1.1297  0.6645  0.8684
 1081THF    H1314053   2.339   0.318   0.326 -1.3902  0.2521 -1.6004
 1082THF     O114054   3.393   4.703   3.275  0.4250  0.2184  0.5092
 1082THF     C214055   3.497   4.778   3.323 -0.3681 -1.0487  0.1956
 1082THF     C314056   3.345   4.765   3.155  0.9444  0.0085  0.7022
 1082THF     H414057   3.589   4.744   3.275  0.7566  1.1103  0.7141
 1082THF     H514058   3.521   4.766   3.429  0.8677  1.0995  0.2197
 1082THF     H614059   3.421   4.763   3.077  2.2385  4.8148  1.5155
 1082THF     H714060   3.256   4.708   3.129  1.0842 -0.7583  1.8160
 1082THF     C814061   3.333   4.914   3.203 -0.2337 -0.2566  0.6255
 1082THF     C914062   3.462   4.927   3.282 -0.5010 -0.5590  0.1646
 1082THF    H1014063   3.246   4.913   3.268 -1.0120 -0.2024 -0.3932
 1082THF    H1114064   3.316   4.994   3.132 -0.9559 -0.9348  0.0072
 1082THF    H1214065   3.545   4.960   3.220 -0.6448 -1.0153 -0.2840
 1082THF    H1314066   3.453   4.993   3.368  0.6277 -0.9435  0.5877
 1083THF     O114067   1.553   0.746   4.818 -0.0920  0.2548  0.3768
 1083THF     C214068   1.638   0.677   4.899  0.2652 -0.6195  0.0542
 1083THF     C314069   1.432   0.776   4.884 -0.2343 -0.1145 -0.2304
 1083THF     H414070   1.708   0.757   4.925 -1.5165  0.2525  2.4947
 1083THF     H514071   1.694   0.602   4.843 -0.1195 -0.9900  0.1681
 1083THF     H614072   1.447   0.876   4.924  0.8587  0.2411 -1.4607
 1083THF     H714073   1.349   0.772   4.813 -1.8579 -0.3368  1.5845
 1083THF     C814074   1.416   0.676   5.002  0.2760 -0.4318  0.0797
 1083THF     C914075   1.557   0.621   5.017 -0.0917 -0.1959 -0.3569
 1083THF    H1014076   1.350   0.595   4.974 -0.1774 -0.7898  2.0246
 1083THF    H1114077   1.382   0.723   5.094  1.7431 -0.8505  0.8688
 1083THF    H1214078   1.594   0.634   5.119 -2.0541 -2.5031  0.7242
 1083THF    H1314079   1.556   0.515   4.995 -2.5571  0.0111 -1.5599
 1084THF     O114080   2.952   4.425   4.212  0.0251 -0.3483  0.3708
 1084THF     C214081   2.996   4.468   4.083  0.1073  0.8357 -0.5158
 1084THF     C314082   2.818   4.471   4.228 -0.3042 -0.6874  0.3815
 1084THF     H414083   3.053   4.387   4.036 -1.3581  0.1770 -1.2183
 1084THF     H514084   3.053   4.560   4.093  0.2330  0.5580  2.0196
 1084THF     H614085   2.765   4.410   4.300 -1.1228 -2.9106 -1.9728
 1084THF     H714086   2.819   4.575   4.262  2.7012 -0.0684 -1.1864
 1084THF     C814087   2.759   4.467   4.084 -0.6455  0.1597  0.5054
 1084THF     C914088   2.876   4.499   3.992  0.4882  0.6903 -0.1198
 1084THF    H1014089   2.674   4.534   4.075 -0.8333  0.0762  1.5832
 1084THF    H1114090   2.724   4.365   4.066 -0.7719  0.3394 -0.2847
 1084THF    H1214091   2.865   4.429   3.910 -2.7176  0.9205 -0.0201
 1084THF    H1314092   2.873   4.602   3.954  0.6688  0.3799 -0.9959
 1085THF     O114093   1.481   3.004   2.618 -0.1264  0.9045 -0.1612
 1085THF     C214094   1.522   2.967   2.478 -0.2844  0.1403  0.2475
 1085THF     C314095   1.377   2.920   2.658 -0.4944  0.1007 -0.3848
 1085THF     H414096   1.585   2.878   2.471 -0.0765  0.3126 -0.0931
 1085THF     H514097   1.574   3.048   2.428  0.1198 -0.2497  0.0244
 1085THF     H614098   1.409   2.822   2.693 -0.7693  1.1460  3.2713
 1085THF     H714099   1.319   2.966   2.738 -1.4653  1.3262 -1.7280
 1085THF     C814100   1.300   2.893   2.527 -0.2222  0.4937  0.1920
 1085THF     C914101   1.387   2.931   2.412  0.4948 -0.0802  0.2272
 1085THF    H1014102   1.210   2.950   2.506 -0.9490 -0.2001  1.2972
 1085THF    H1114103   1.272   2.789   2.513  0.0922  0.0831  2.2776
 1085THF    H1214104   1.388   2.845   2.346 -1.3722  0.0184  0.0171
 1085THF    H1314105   1.347   3.006   2.343  1.1318 -0.2724 -0.3673
 1086THF     O114106   2.619   0.788   5.396 -0.0445 -0.0894 -0.1721
 1086THF     C214107   2.669   0.917   5.390 -0.2995  0.4140 -0.8795
 1086THF     C314108   2.721   0.700   5.416  0.2045 -0.4796 -0.9538
 1086THF     H414109   2.597   0.990   5.427 -0.0905  1.0103 -1.6250
 1086THF     H514110   2.704   0.933   5.288 -0.1795 -0.4153 -0.9796
 1086THF     H614111   2.686   0.602   5.450 -0.4364  0.3222  0.8086
 1086THF     H714112   2.779   0.671   5.328  0.8678  0.4668 -0.8388
 1086THF     C814113   2.808   0.772   5.519  0.0947 -0.1072 -0.2558
 1086THF     C914114   2.801   0.915   5.469 -0.1307  0.0233  0.2753
 1086THF    H1014115   2.910   0.734   5.527  0.8335  1.2460 -2.3672
 1086THF    H1114116   2.764   0.748   5.615  1.7408  0.7157  0.7436
 1086THF    H1214117   2.796   0.984   5.553  0.1201  0.2851  0.0761
 1086THF    H1314118   2.883   0.944   5.403  1.3313 -0.6578  1.7179
 1087THF     O114119   2.579   2.469   4.124  0.3026 -0.1628 -0.1029
 1087THF     C214120   2.638   2.342   4.151  0.5090  0.2426 -0.2416
 1087THF     C314121   2.598   2.558   4.231 -0.0743  0.3719  0.1496
 1087THF     H414122   2.637   2.278   4.063 -1.1636  0.2159 -0.2306
 1087THF     H514123   2.577   2.292   4.227  0.1893  1.5319  0.3785
 1087THF     H614124   2.602   2.665   4.208  1.5724  0.4404  0.6545
 1087THF     H714125   2.518   2.542   4.303 -0.4691  0.9257 -0.1537
 1087THF     C814126   2.743   2.518   4.278 -0.0913 -0.5422 -0.2174
 1087THF     C914127   2.767   2.381   4.213 -0.0216 -0.6481 -0.0305
 1087THF    H1014128   2.764   2.529   4.384 -0.8770  1.6463 -0.2402
 1087THF    H1114129   2.804   2.591   4.225 -2.3485 -0.3304 -2.7042
 1087THF    H1214130   2.837   2.386   4.130 -1.0250 -2.1004 -1.0063
 1087THF    H1314131   2.801   2.312   4.291  1.3992  0.5032  0.4349
 1088THF     O114132   5.447   0.899   0.095 -0.5829  0.4669 -0.3661
 1088THF     C214133   5.563   0.856   0.160  0.4855  0.1244  0.3733
 1088THF     C314134   5.482   0.969  -0.020  0.1051 -0.3904 -0.3997
 1088THF     H414135   5.587   0.761   0.112 -0.0829 -0.4377  1.1836
 1088THF     H514136   5.543   0.832   0.264 -2.0839 -1.3783 -0.3765
 1088THF     H614137   5.502   0.907  -0.107  1.3427 -0.6618  0.0609
 1088THF     H714138   5.402   1.037  -0.048  0.0234  0.0794  0.8926
 1088THF     C814139   5.605   1.052   0.029  0.2850 -0.0060  0.0407
 1088THF     C914140   5.673   0.963   0.131 -0.1612 -0.5710 -0.8130
 1088THF    H1014141   5.553   1.140   0.066 -0.8052 -0.1375 -1.1471
 1088THF    H1114142   5.662   1.085  -0.057  0.1918 -0.4445 -0.1921
 1088THF    H1214143   5.769   0.930   0.091  0.7639  1.4319 -0.3390
 1088THF    H1314144   5.692   1.022   0.220 -1.1359 -0.5611 -0.5979
 1089THF     O114145   4.964   1.533   0.340  0.4701  0.4447  0.4153
 1089THF     C214146   4.837   1.577   0.293  0.3219 -0.7541 -0.0513
 1089THF     C314147   4.949   1.471   0.468 -0.2920  0.5878 -0.1798
 1089THF     H414148   4.838   1.587   0.184  0.2808  0.5078  0.0541
 1089THF     H514149   4.824   1.673   0.343 -0.0964  0.0553 -1.6457
 1089THF     H614150   5.044   1.422   0.489 -1.8900 -3.2594 -1.1847
 1089THF     H714151   4.928   1.548   0.543  2.0709 -0.9657  2.2920
 1089THF     C814152   4.822   1.386   0.446  0.2169 -0.0835 -0.1467
 1089THF     C914153   4.739   1.470   0.345  0.0626 -0.1336 -0.7984
 1089THF    H1014154   4.775   1.353   0.538 -0.2024 -1.1164 -0.7138
 1089THF    H1114155   4.848   1.291   0.401 -0.1953  0.2443 -1.0942
 1089THF    H1214156   4.693   1.405   0.271 -1.7300 -0.9281  0.9362
 1089THF    H1314157   4.649   1.509   0.391  1.2916  2.1407 -0.1323
 1090THF     O114158   3.753   1.228   4.365  0.0316  0.3527 -0.0782
 1090THF     C214159   3.639   1.219   4.443 -0.3654 -0.0980  0.9759
 1090THF     C314160   3.719   1.200   4.230 -0.1640  0.1969 -0.0743
 1090THF     H414161   3.580   1.306   4.414 -1.2265 -0.8183  0.5189
 1090THF     H514162   3.672   1.222   4.547 -0.1293 -0.1198  0.9010
 1090THF     H614163   3.707   1.301   4.191  0.0454  0.0527 -0.5217
 1090THF     H714164   3.783   1.158   4.152 -0.3862  0.2762 -0.3036
 1090THF     C814165   3.588   1.119   4.238 -0.2581 -0.2167 -0.0015
 1090THF     C914166   3.569   1.099   4.389 -0.8679  0.3806  0.0219
 1090THF    H1014167   3.593   1.025   4.183 -0.8893  0.2559 -0.8899
 1090THF    H1114168   3.502   1.165   4.188 -3.4452 -1.4276  3.8495
 1090THF    H1214169   3.464   1.107   4.416 -1.6311 -0.8491 -2.2728
 1090THF    H1314170   3.614   1.009   4.429 -2.1181 -0.6379 -0.7860
 1091THF     O114171   3.294   0.493   4.228 -0.7973 -0.5282 -0.6764
 1091THF     C214172   3.353   0.441   4.341  0.2366  0.5609 -0.1627
 1091THF     C314173   3.242   0.396   4.148 -0.2128  0.4537  0.1107
 1091THF     H414174   3.272   0.422   4.411  2.5486 -3.7696  1.7901
 1091THF     H514175   3.427   0.501   4.395  0.3962 -1.6567  2.2759
 1091THF     H614176   3.134   0.391   4.158 -0.3892  0.2268 -1.5327
 1091THF     H714177   3.259   0.405   4.040 -1.3173  2.4887  0.0745
 1091THF     C814178   3.301   0.269   4.202  0.0872  0.0911  0.5427
 1091THF     C914179   3.412   0.305   4.294 -0.6468 -0.3885  0.2200
 1091THF    H1014180   3.340   0.213   4.117 -2.4068 -0.4158 -0.3692
 1091THF    H1114181   3.226   0.201   4.242 -0.7051  0.4375 -0.3024
 1091THF    H1214182   3.446   0.230   4.366  2.6583  0.5623 -0.1855
 1091THF    H1314183   3.497   0.334   4.232 -1.3059 -1.5090 -1.2767
 1092THF     O114184   1.208   4.826   0.348  0.1167  0.3863  0.4135
 1092THF     C214185   1.319   4.754   0.289  0.0765 -0.2501 -0.2504
 1092THF     C314186   1.102   4.732   0.364 -0.2204 -0.7342  0.2211
 1092THF     H414187   1.380   4.709   0.367 -1.3331  1.6198  2.1229
 1092THF     H514188   1.380   4.821   0.228 -0.3331  1.6882  1.3454
 1092THF     H614189   1.123   4.674   0.454 -0.3538 -0.3211  0.5232
 1092THF     H714190   1.012   4.785   0.396  1.4079  0.8623  2.5139
 1092THF     C814191   1.103   4.662   0.228  0.4573 -0.4694 -0.2477
 1092THF     C914192   1.252   4.651   0.206  0.6757 -0.9881  0.1307
 1092THF    H1014193   1.060   4.729   0.153 -0.2468 -0.3760  0.2294
 1092THF    H1114194   1.055   4.564   0.226 -2.0302  0.6417  0.5570
 1092THF    H1214195   1.273   4.549   0.237 -1.7390 -1.3160  0.9168
 1092THF    H1314196   1.270   4.654   0.099  0.3251  2.5632  0.0653
 1093THF     O114197   5.214   5.148   4.484 -0.5051 -0.0415 -0.3869
 1093THF     C214198   5.158   5.174   4.360  0.5452 -0.6977 -0.4192
 1093THF     C314199   5.352   5.116   4.457 -0.3363 -0.3275  0.7775
 1093THF     H414200   5.065   5.229   4.365  0.4321 -1.0127  2.0314
 1093THF     H514201   5.140   5.082   4.305  2.5104 -0.9141 -0.7931
 1093THF     H614202   5.393   5.139   4.555  0.5713 -4.6759  1.6216
 1093THF     H714203   5.374   5.011   4.439  2.3678  0.4841 -1.4296
 1093THF     C814204   5.393   5.207   4.333  0.4840 -0.2926  0.0081
 1093THF     C914205   5.256   5.256   4.282 -0.6911 -0.3204  0.2400
 1093THF    H1014206   5.445   5.157   4.252 -2.5352 -1.8596 -1.1345
 1093THF    H1114207   5.451   5.292   4.368 -2.0634  2.5907 -2.1546
 1093THF    H1214208   5.237   5.361   4.305 -0.0673 -0.4135  1.2546
 1093THF    H1314209   5.251   5.239   4.174 -0.8536 -4.2502  0.7132
 1094THF     O114210   4.698   4.879   2.670  0.5223 -0.2360 -0.7749
 1094THF     C214211   4.778   4.802   2.581  0.3459  0.4685  0.3147
 1094THF     C314212   4.709   5.008   2.624  0.0450  0.3093  0.4131
 1094THF     H414213   4.718   4.780   2.493  1.2296 -0.7337 -0.0073
 1094THF     H514214   4.812   4.711   2.630 -0.1013 -0.1134 -0.4318
 1094THF     H614215   4.644   5.025   2.538 -0.7172 -0.6384  0.7976
 1094THF     H714216   4.682   5.089   2.692 -1.1384  1.1667 -1.0034
 1094THF     C814217   4.864   5.019   2.612 -0.8838  0.1722 -0.8361
 1094THF     C914218   4.901   4.881   2.560 -0.5207  0.4379 -0.2196
 1094THF    H1014219   4.911   5.033   2.709 -0.9386  1.7134 -1.0101
 1094THF    H1114220   4.914   5.092   2.549  0.3104 -1.3316 -1.7028
 1094THF    H1214221   4.939   4.872   2.459 -0.2678 -2.2927  0.0536
 1094THF    H1314222   4.985   4.843   2.619 -0.2077  0.3714 -0.7004
 1095THF     O114223   2.128   1.914   1.843 -0.0802 -0.3415  0.4327
 1095THF     C214224   2.046   1.830   1.751 -1.0146 -0.0764 -0.3635
 1095THF     C314225   2.173   1.841   1.954 -0.2151  0.1200 -0.3885
 1095THF     H414226   2.087   1.811   1.652 -1.8840  2.1543 -1.2138
 1095THF     H514227   1.961   1.896   1.731 -2.5740 -1.6134  0.9573
 1095THF     H614228   2.272   1.804   1.925 -0.7184 -2.7039  1.0819
 1095THF     H714229   2.196   1.896   2.045 -1.1704 -0.8328  0.4466
 1095THF     C814230   2.061   1.735   1.975  0.3703  0.0992 -0.5319
 1095THF     C914231   2.005   1.706   1.842 -0.1144  0.2765  0.6432
 1095THF    H1014232   1.984   1.776   2.041  0.3364  1.5241 -1.4058
 1095THF    H1114233   2.099   1.644   2.021 -0.9250 -1.0121 -1.5678
 1095THF    H1214234   2.027   1.611   1.792 -0.4752  0.7531 -0.4485
 1095THF    H1314235   1.897   1.709   1.857 -0.0806  0.6897  0.7997
 1096THF     O114236   2.824   0.655   4.490 -0.2047  0.0586 -0.4068
 1096THF     C214237   2.958   0.667   4.533 -0.8069  0.1119 -0.4077
 1096THF     C314238   2.816   0.573   4.373  1.0101 -0.1281 -0.0311
 1096THF     H414239   2.995   0.583   4.591  0.4905  2.2236  2.0753
 1096THF     H514240   2.980   0.753   4.597 -2.3369  0.6843 -0.5989
 1096THF     H614241   2.779   0.473   4.398  0.5455 -0.0665 -0.4421
 1096THF     H714242   2.750   0.619   4.299  0.5587  0.3030  0.6244
 1096THF     C814243   2.953   0.566   4.319  0.7066 -0.1667  0.7696
 1096THF     C914244   3.025   0.672   4.400 -0.3972  0.1336 -0.2552
 1096THF    H1014245   2.959   0.591   4.213 -0.3912  0.2059  0.7876
 1096THF    H1114246   2.994   0.467   4.338 -0.9305 -1.4732 -1.9689
 1096THF    H1214247   3.132   0.658   4.415 -0.1567  2.4303  0.4587
 1096THF    H1314248   3.010   0.766   4.348  0.5666 -0.1484 -1.0666
 1097THF     O114249   1.155   3.335   0.002  0.1786  0.2129 -0.0705
 1097THF     C214250   1.247   3.288   0.098  0.1338 -0.3135  0.1185
 1097THF     C314251   1.199   3.459  -0.053 -0.5540  0.3044 -0.5606
 1097THF     H414252   1.341   3.252   0.057  2.0066  2.0780  1.9911
 1097THF     H514253   1.198   3.211   0.158 -1.3527  0.9279  0.5847
 1097THF     H614254   1.272   3.444  -0.133  1.0059  0.7916  0.7219
 1097THF     H714255   1.119   3.527  -0.083  0.1711  1.4073 -0.0558
 1097THF     C814256   1.287   3.514   0.065 -0.6585  0.9359 -0.3847
 1097THF     C914257   1.264   3.414   0.175  0.3763  0.3333 -0.3601
 1097THF    H1014258   1.260   3.613   0.102  2.1657  1.2648  1.0910
 1097THF    H1114259   1.394   3.512   0.045 -1.0432 -0.5175 -2.7601
 1097THF    H1214260   1.343   3.411   0.250 -0.4213 -1.2784  0.4622
 1097THF    H1314261   1.179   3.446   0.235  0.6728  0.3170  0.0701
 1098THF     O114262   1.969   2.087   2.892 -0.2091  0.1338 -0.1807
 1098THF     C214263   1.871   2.017   2.824  0.0409  0.5586  0.3950
 1098THF     C314264   1.907   2.208   2.932  0.5549 -0.3418  0.1259
 1098THF     H414265   1.879   1.909   2.809 -3.7531  0.1344  0.5416
 1098THF     H514266   1.854   2.065   2.728  0.2648  0.9318  0.5408
 1098THF     H614267   1.985   2.250   2.997  0.2558  1.3503 -0.5473
 1098THF     H714268   1.902   2.275   2.846  0.2600 -0.0734  0.3520
 1098THF     C814269   1.782   2.153   2.997 -0.8925  0.3336  0.0816
 1098THF     C914270   1.745   2.038   2.909 -0.1620 -0.4190 -0.0960
 1098THF    H1014271   1.709   2.234   2.995 -1.1297  0.1287  0.4241
 1098THF    H1114272   1.804   2.133   3.102 -0.9506  0.3595  0.0988
 1098THF    H1214273   1.708   1.946   2.954  0.9119 -1.6445 -1.6249
 1098THF    H1314274   1.658   2.074   2.855  0.5436  1.0282 -0.3215
 1099THF     O114275   3.873   2.439   1.379  0.0888  0.4626 -0.0405
 1099THF     C214276   3.752   2.357   1.392 -0.2120  0.0084  0.1494
 1099THF     C314277   3.844   2.537   1.280  0.6046  0.0359  0.0497
 1099THF     H414278   3.681   2.402   1.461  0.5018  1.9870 -0.3533
 1099THF     H514279   3.778   2.258   1.429 -0.3908 -0.2671 -0.4453
 1099THF     H614280   3.820   2.634   1.323  0.2604  0.6763 -1.5219
 1099THF     H714281   3.930   2.546   1.214  0.8862  0.5307  0.4863
 1099THF     C814282   3.709   2.504   1.218  0.8835 -0.2578  0.5712
 1099THF     C914283   3.693   2.357   1.245 -0.0493  0.3258  0.0775
 1099THF    H1014284   3.703   2.526   1.112  0.4365  0.2364  0.6957
 1099THF    H1114285   3.633   2.564   1.268  0.1070 -1.4502  0.8709
 1099THF    H1214286   3.589   2.326   1.236 -0.0654  0.6484 -0.9284
 1099THF    H1314287   3.743   2.284   1.182 -1.8392 -0.4786 -0.4674
 1100THF     O114288   0.328   5.185   1.636  0.2192 -0.1801 -0.0729
 1100THF     C214289   0.258   5.162   1.755  0.5192 -0.4173 -0.3534
 1100THF     C314290   0.331   5.056   1.572 -0.4773  0.0223  0.0867
 1100THF     H414291   0.150   5.153   1.748  0.4226  0.7936 -0.5716
 1100THF     H514292   0.283   5.241   1.825  1.3016 -0.0989 -0.9835
 1100THF     H614293   0.252   5.041   1.498  0.1317  2.8453 -1.2795
 1100THF     H714294   0.428   5.037   1.527 -0.8114  1.9329 -1.6329
 1100THF     C814295   0.317   4.949   1.682  0.6489  0.4428 -0.1784
 1100THF     C914296   0.311   5.032   1.805 -0.0347 -0.3777 -0.0631
 1100THF    H1014297   0.397   4.876   1.694  0.2871  0.0958  0.1830
 1100THF    H1114298   0.223   4.895   1.667  0.9110  0.1741 -0.8965
 1100THF    H1214299   0.247   4.999   1.888  0.5834 -0.8609  0.2348
 1100THF    H1314300   0.410   5.059   1.840  1.0619  1.5591 -4.1070
 1101THF     O114301   4.946   0.368   3.634 -0.6534 -0.2223 -0.7887
 1101THF     C214302   4.891   0.431   3.513  0.3316 -0.3042  0.4161
 1101THF     C314303   5.032   0.460   3.708  0.5305  0.1996  0.1505
 1101THF     H414304   4.810   0.496   3.545 -0.3367 -0.3978 -1.0289
 1101THF     H514305   4.860   0.373   3.426 -1.2607 -1.0841  1.4589
 1101THF     H614306   4.960   0.525   3.756  0.8222  1.0126 -0.4694
 1101THF     H714307   5.089   0.415   3.789 -0.2659 -1.6621 -0.2754
 1101THF     C814308   5.115   0.519   3.594 -0.3047 -1.1425 -0.0928
 1101THF     C914309   5.005   0.523   3.476 -0.3786 -0.2589  0.5151
 1101THF    H1014310   5.199   0.462   3.556  1.0036  0.3955  0.3865
 1101THF    H1114311   5.165   0.613   3.617 -1.0776 -0.3429 -1.5612
 1101THF    H1214312   4.972   0.627   3.469 -0.3807 -0.2928 -0.0965
 1101THF    H1314313   5.053   0.504   3.380  1.5101 -0.6294  1.4907
 1102THF     O114314   4.122   0.402   4.676 -0.6622  0.1415  0.1562
 1102THF     C214315   4.041   0.518   4.645 -0.2206  0.2314 -0.1284
 1102THF     C314316   4.175   0.354   4.552  0.2866 -0.0637 -0.3431
 1102THF     H414317   4.025   0.588   4.727  1.8742  0.3461  0.2212
 1102THF     H514318   3.943   0.484   4.611  0.1681  0.8589 -1.9931
 1102THF     H614319   4.283   0.348   4.565  0.4851 -1.5240 -2.1289
 1102THF     H714320   4.134   0.255   4.532  1.5237 -0.6988  0.1566
 1102THF     C814321   4.157   0.466   4.448 -0.4545  0.5468 -0.3311
 1102THF     C914322   4.130   0.583   4.536  0.2337  0.3579 -0.3285
 1102THF    H1014323   4.079   0.439   4.377 -0.0444  2.3902 -1.5723
 1102THF    H1114324   4.246   0.488   4.388  0.4033 -0.6633  0.4715
 1102THF    H1214325   4.221   0.605   4.592  1.6514 -1.6712 -1.6742
 1102THF    H1314326   4.094   0.667   4.477 -0.1169 -0.4346 -1.2742
 1103THF     O114327   2.830   4.612   4.944 -0.1922  0.5895 -0.0939
 1103THF     C214328   2.728   4.575   4.846  0.1723  0.1022 -0.4558
 1103THF     C314329   2.781   4.718   5.028 -0.2369  0.4273  0.4625
 1103THF     H414330   2.753   4.476   4.807  1.4980  0.4805 -0.6139
 1103THF     H514331   2.721   4.640   4.759  0.6494  1.0557  0.1933
 1103THF     H614332   2.830   4.702   5.124  0.1408 -0.0749  0.1925
 1103THF     H714333   2.814   4.815   4.992  1.6622  0.5046  2.2297
 1103THF     C814334   2.628   4.687   5.039 -0.2429  0.1848  0.2443
 1103THF     C914335   2.602   4.576   4.935 -0.1989  0.5647  0.6441
 1103THF    H1014336   2.573   4.778   5.016  2.0132  1.5435 -0.1344
 1103THF    H1114337   2.602   4.666   5.143  0.2237  2.3291  0.8505
 1103THF    H1214338   2.597   4.484   4.993 -0.8220 -0.2396 -0.6399
 1103THF    H1314339   2.509   4.581   4.877 -0.0240  0.8478  0.3829
 1104THF     O114340   3.080   0.142   2.676 -0.5786  0.4126 -0.5979
 1104THF     C214341   3.024   0.029   2.620 -0.6324  0.1069 -0.1213
 1104THF     C314342   3.008   0.247   2.628  0.7288  0.3612 -0.0829
 1104THF     H414343   3.036  -0.057   2.685  0.1873  0.9846  0.9403
 1104THF     H514344   3.079   0.000   2.530 -0.5828  1.9112 -0.7171
 1104THF     H614345   3.028   0.328   2.698  2.0359 -1.0153  1.2198
 1104THF     H714346   3.044   0.270   2.528 -0.2996 -1.7849 -0.9981
 1104THF     C814347   2.865   0.202   2.643 -0.2703 -0.1879  0.5445
 1104THF     C914348   2.874   0.055   2.605  0.8709 -0.4120  0.0119
 1104THF    H1014349   2.801   0.260   2.576 -1.2847 -0.8373  0.9245
 1104THF    H1114350   2.831   0.209   2.747 -0.5607 -2.3296  0.6316
 1104THF    H1214351   2.816  -0.016   2.664  0.3969  0.3331  0.4557
 1104THF    H1314352   2.839   0.037   2.503 -2.9101 -0.5732  1.2013
 1105THF     O114353   3.812   0.067   4.145  0.2890  0.6045 -0.6723
 1105THF     C214354   3.932   0.142   4.123 -0.0681 -0.2889 -0.3881
 1105THF     C314355   3.747   0.123   4.262 -0.9706 -0.5300 -0.7716
 1105THF     H414356   3.923   0.179   4.021  0.0454  0.7432 -0.0301
 1105THF     H514357   4.022   0.085   4.142 -0.7757 -0.4682  3.0179
 1105THF     H614358   3.640   0.104   4.258 -1.1199  0.1038  0.0117
 1105THF     H714359   3.777   0.067   4.351 -3.4427 -0.6675  0.0604
 1105THF     C814360   3.787   0.272   4.272 -0.6200  0.6163  0.1825
 1105THF     C914361   3.929   0.248   4.232 -0.0565  0.1630 -0.0949
 1105THF    H1014362   3.780   0.307   4.375 -1.0646  0.1249  0.3244
 1105THF    H1114363   3.733   0.333   4.199  0.3683  0.6393 -0.5519
 1105THF    H1214364   3.988   0.336   4.205 -0.5188 -0.2830 -2.8344
 1105THF    H1314365   3.985   0.210   4.318 -0.8556 -0.1671  0.2855
 1106THF     O114366   2.198   1.870   2.350 -0.5261 -0.5550  0.4154
 1106THF     C214367   2.211   2.014   2.349 -0.4817  0.3355  0.5599
 1106THF     C314368   2.079   1.827   2.405  0.8121 -0.1705 -0.6511
 1106THF     H414369   2.241   2.059   2.255  2.1415  0.1291  1.2156
 1106THF     H514370   2.291   2.041   2.418  1.0751 -1.6641 -0.3482
 1106THF     H614371   2.006   1.814   2.326 -0.8285 -1.5381  1.0000
 1106THF     H714372   2.091   1.733   2.459  0.1340  0.4938  0.7023
 1106THF     C814373   2.037   1.942   2.490  0.0656  0.1422  0.2254
 1106THF     C914374   2.071   2.061   2.397 -0.1752  0.2707 -0.6917
 1106THF    H1014375   2.113   1.935   2.569  0.9290 -0.8143 -0.6537
 1106THF    H1114376   1.935   1.955   2.525  0.1351  0.8865  0.1542
 1106THF    H1214377   2.009   2.066   2.308 -2.1244 -1.5166  0.4731
 1106THF    H1314378   2.074   2.162   2.439 -2.8355 -0.0193  0.4496
 1107THF     O114379   1.815   2.117   1.799  0.9452 -0.1055 -0.0557
 1107THF     C214380   1.935   2.192   1.810  0.3601 -0.1844  0.5187
 1107THF     C314381   1.744   2.135   1.920  0.1454 -0.0289 -0.3169
 1107THF     H414382   1.936   2.286   1.755  0.8519  0.0699  0.9517
 1107THF     H514383   2.014   2.130   1.766 -0.4456 -0.2015 -0.9523
 1107THF     H614384   1.700   2.235   1.921 -2.5555 -1.0435 -2.4895
 1107THF     H714385   1.663   2.065   1.941 -0.4270  0.6743 -0.1361
 1107THF     C814386   1.856   2.134   2.027 -0.9489 -0.1451  0.1029
 1107THF     C914387   1.971   2.209   1.959  0.2333 -0.3070  0.2195
 1107THF    H1014388   1.864   2.028   2.051  0.5249 -0.4889 -1.6232
 1107THF    H1114389   1.832   2.179   2.123  0.1507  0.3416  0.1703
 1107THF    H1214390   1.969   2.315   1.986 -0.6656 -0.1496 -0.4271
 1107THF    H1314391   2.065   2.162   1.987  0.9597  0.9558 -0.0192
 1108THF     O114392   5.464   1.890   4.466  0.0588 -0.6173  0.4209
 1108THF     C214393   5.448   1.832   4.335  0.4857  0.1198  0.1615
 1108THF     C314394   5.596   1.921   4.480 -0.5359  0.1469  0.0941
 1108THF     H414395   5.352   1.856   4.290 -0.1542 -2.8523 -0.3000
 1108THF     H514396   5.468   1.725   4.344  1.9031  0.4048  0.8308
 1108THF     H614397   5.620   1.997   4.555  0.4870  0.1475 -0.2201
 1108THF     H714398   5.646   1.827   4.501  0.2871  0.4330 -0.5480
 1108THF     C814399   5.637   1.971   4.346  0.1644  0.6255  0.5772
 1108THF     C914400   5.563   1.887   4.250  0.0642 -0.1433 -1.1938
 1108THF    H1014401   5.745   1.961   4.337 -0.1200 -0.6804 -2.7102
 1108THF    H1114402   5.608   2.075   4.330 -0.3580  0.4410  0.3039
 1108THF    H1214403   5.541   1.950   4.164 -2.3746  1.9042  0.7830
 1108THF    H1314404   5.626   1.802   4.223  0.5617  0.1566 -0.9664
 1109THF     O114405   4.569   0.696   1.427 -0.3473  0.0784  0.3709
 1109THF     C214406   4.609   0.793   1.339  0.0074  0.3382 -0.2796
 1109THF     C314407   4.427   0.707   1.435 -0.1287 -0.3859 -0.5072
 1109THF     H414408   4.593   0.755   1.239  3.1121 -0.9403 -0.4268
 1109THF     H514409   4.716   0.814   1.353  0.4366 -1.4295 -0.6449
 1109THF     H614410   4.385   0.643   1.358 -1.0656 -0.2031 -0.1693
 1109THF     H714411   4.396   0.684   1.538 -3.7006  2.5405 -0.6894
 1109THF     C814412   4.391   0.858   1.415 -0.4070 -0.2014 -0.5509
 1109THF     C914413   4.527   0.918   1.372 -0.3289  0.1133 -0.0724
 1109THF    H1014414   4.352   0.901   1.508 -0.5518  0.9437 -1.1296
 1109THF    H1114415   4.316   0.867   1.336  1.1035 -0.2379 -2.0383
 1109THF    H1214416   4.517   0.976   1.280 -1.3166 -2.5365 -1.7503
 1109THF    H1314417   4.565   0.978   1.455 -2.3029 -0.7714  1.5521
 1110THF     O114418   3.187   4.199   2.026 -0.0625 -0.1654 -0.0373
 1110THF     C214419   3.231   4.074   2.086  0.7214 -0.2771 -0.1374
 1110THF     C314420   3.108   4.167   1.910  0.8448  0.1478  0.2931
 1110THF     H414421   3.205   4.076   2.192  1.9445  0.0683  0.1734
 1110THF     H514422   3.339   4.067   2.074  1.0287 -1.3692  2.4332
 1110THF     H614423   3.004   4.184   1.937  1.2610  2.5384  0.6538
 1110THF     H714424   3.134   4.216   1.816  1.9211 -0.4300  0.2815
 1110THF     C814425   3.134   4.025   1.878  0.7146 -0.5126 -0.3632
 1110THF     C914426   3.156   3.968   2.016  0.3395  0.2480  0.1169
 1110THF    H1014427   3.224   4.015   1.817  0.9334  0.6185 -0.2488
 1110THF    H1114428   3.044   3.986   1.832  0.5131 -1.5283  0.8444
 1110THF    H1214429   3.055   3.958   2.056  0.0867 -0.6325 -0.7230
 1110THF    H1314430   3.207   3.873   2.030  0.9110  0.7033  1.2398
 1111THF     O114431   2.756   1.887   1.271 -0.0514  0.4630 -0.3049
 1111THF     C214432   2.715   2.010   1.327  0.5986  0.0063  0.4308
 1111THF     C314433   2.637   1.811   1.260 -0.3057  0.3779 -0.0530
 1111THF     H414434   2.795   2.084   1.314  0.1976  0.4146  0.2723
 1111THF     H514435   2.698   1.996   1.434 -1.1576  0.5828  0.2585
 1111THF     H614436   2.643   1.722   1.198 -0.9983 -0.2620  0.7687
 1111THF     H714437   2.609   1.783   1.362  1.1994  0.8579  0.5215
 1111THF     C814438   2.532   1.908   1.205 -0.0700  0.8257  0.0700
 1111THF     C914439   2.583   2.041   1.263 -0.0191 -0.2672 -0.7191
 1111THF    H1014440   2.430   1.885   1.233  0.1058  0.3475  0.3227
 1111THF    H1114441   2.551   1.904   1.098  2.4462 -0.7480  0.4779
 1111THF    H1214442   2.584   2.121   1.189  0.3015  2.4946  2.0616
 1111THF    H1314443   2.506   2.076   1.331 -2.2585 -1.6173 -2.4101
 1112THF     O114444   1.361   4.545   3.136  0.3090  0.0631 -0.1915
 1112THF     C214445   1.443   4.441   3.089  0.6423 -0.4570  0.3064
 1112THF     C314446   1.248   4.486   3.199  0.1440 -0.6489 -0.0623
 1112THF     H414447   1.542   4.480   3.067 -0.6755  0.9216 -4.2514
 1112THF     H514448   1.404   4.399   2.996  1.0640  0.2509 -0.2004
 1112THF     H614449   1.229   4.550   3.285 -0.3193 -0.0785 -0.5798
 1112THF     H714450   1.165   4.480   3.129  2.3685 -1.2497 -2.8206
 1112THF     C814451   1.296   4.349   3.252  0.1281  0.8316  0.3895
 1112THF     C914452   1.436   4.345   3.208  0.0889 -0.4193  0.4163
 1112THF    H1014453   1.240   4.267   3.207  2.8724 -1.4641  0.9050
 1112THF    H1114454   1.285   4.339   3.360 -3.1584  0.3349  0.1072
 1112THF    H1214455   1.499   4.384   3.288  2.1576  0.4119 -1.4939
 1112THF    H1314456   1.471   4.248   3.173 -3.0247 -0.9428 -1.5953
 1113PF6-    P114457   3.789   3.843   1.522  0.1413  0.2409 -0.5330
 1113PF6-    F214458   3.824   3.960   1.426  0.7294  0.0470  0.3945
 1113PF6-    F314459   3.755   3.719   1.617  0.4860  0.2510 -0.1006
 1113PF6-    F414460   3.815   3.738   1.398  0.1475 -0.1312 -0.4510
 1113PF6-    F514461   3.762   3.944   1.646 -0.3370  0.3342  0.4189
 1113PF6-    F614462   3.629   3.856   1.486 -0.0448 -0.2241 -0.8954
 1113PF6-    F714463   3.945   3.826   1.568  0.0605  0.4042 -0.0746
 1114PF6-    P114464   4.194   2.931   0.230  0.4063 -0.3217  0.1328
 1114PF6-    F214465   4.226   2.999   0.373  0.2815  0.0807  0.1220
 1114PF6-    F314466   4.156   2.859   0.087  0.5917  0.5245 -0.6429
 1114PF6-    F414467   4.256   3.061   0.156 -0.2365  0.7690  0.2959
 1114PF6-    F514468   4.130   2.809   0.304  0.2277  0.7698 -0.1682
 1114PF6-    F614469   4.055   3.003   0.229  0.0547 -0.3472 -0.6410
 1114PF6-    F714470   4.341   2.864   0.242  0.5190  0.3057  0.8394
 1115PF6-    P114471   0.012   0.573   5.139 -0.4302  0.2604  0.2287
 1115PF6-    F214472   0.058   0.689   5.238 -0.0110 -0.1032  0.1025
 1115PF6-    F314473  -0.040   0.460   5.032 -0.1590 -0.0053 -0.3404
 1115PF6-    F414474   0.109   0.471   5.210 -0.2859 -0.0843  0.6986
 1115PF6-    F514475  -0.089   0.680   5.064  0.3750  0.4703  0.2759
 1115PF6-    F614476   0.133   0.613   5.039 -0.4474  0.3702 -0.4873
 1115PF6-    F714477  -0.104   0.524   5.235  0.0285  0.4820 -0.1574
 1116PF6-    P114478   1.808   0.781   4.483  0.6770 -0.2057  0.0759
 1116PF6-    F214479   1.728   0.679   4.390 -0.1741 -0.2165  0.1047
 1116PF6-    F314480   1.887   0.888   4.577  0.0552 -0.2844  0.6919
 1116PF6-    F414481   1.749   0.899   4.400  0.1103 -0.1434  0.3699
 1116PF6-    F514482   1.860   0.663   4.565 -0.0330  0.4131 -0.1065
 1116PF6-    F614483   1.932   0.772   4.381  0.0899 -0.1250  0.0035
 1116PF6-    F714484   1.677   0.791   4.576 -0.1118  0.1335 -0.1760
 1117PF6-    P114485   0.843   0.214   0.205 -0.5518  0.1355  0.1000
 1117PF6-    F214486   0.866   0.371   0.184 -0.1166  0.1714 -0.4369
 1117PF6-    F314487   0.823   0.059   0.215 -0.4373  0.4629 -0.6398
 1117PF6-    F414488   0.962   0.181   0.098  0.2623 -0.1323  0.3260
 1117PF6-    F514489   0.719   0.244   0.300  0.0007  0.2740  0.2224
 1117PF6-    F614490   0.744   0.219   0.075 -0.1297  0.4095 -0.1791
 1117PF6-    F714491   0.943   0.219   0.332  0.1655  0.3125  0.2256
 1118PF6-    P114492   5.072   3.972   3.784  0.5299  0.0753 -0.1967
 1118PF6-    F214493   5.010   4.039   3.921  0.3694 -0.1449  0.6351
 1118PF6-    F314494   5.130   3.904   3.655 -0.2017 -0.2180  0.5424
 1118PF6-    F414495   5.058   3.826   3.848  0.2401 -0.1354 -0.6753
 1118PF6-    F514496   5.086   4.117   3.718  0.2268 -0.2804 -0.0310
 1118PF6-    F614497   5.221   3.985   3.842 -0.2280 -0.0362 -0.6697
 1118PF6-    F714498   4.929   3.953   3.723  0.5513 -0.1888  0.3706
 1119PF6-    P114499   0.347   1.491   0.977  0.1459 -0.0995 -0.0451
 1119PF6-    F214500   0.404   1.636   0.997 -0.0662  0.0962  0.1698
 1119PF6-    F314501   0.282   1.341   0.959 -0.4183 -0.7196  0.4106
 1119PF6-    F414502   0.206   1.553   0.942 -0.1538  0.3937 -0.3022
 1119PF6-    F514503   0.486   1.432   1.016  0.3482 -0.1692 -0.2075
 1119PF6-    F614504   0.306   1.495   1.131 -0.0370 -0.2065 -0.2714
 1119PF6-    F714505   0.383   1.493   0.824  0.3140  0.3893 -0.1709
 1120PF6-    P114506   2.680   4.278   3.053  0.3910  0.0164 -0.0544
 1120PF6-    F214507   2.617   4.267   3.203 -0.4047  0.5452  0.2879
 1120PF6-    F314508   2.741   4.284   2.907  0.5208  0.3485 -0.0716
 1120PF6-    F414509   2.802   4.373   3.109  0.2484  0.6116  0.0613
 1120PF6-    F514510   2.566   4.176   3.003 -0.3695  0.0439 -0.4489
 1120PF6-    F614511   2.587   4.407   3.020  0.0259 -0.3590  0.0665
 1120PF6-    F714512   2.771   4.146   3.078  0.3626 -0.2123 -0.6418
 1121PF6-    P114513   0.050   5.003   5.198  0.4650  0.0282  0.0593
 1121PF6-    F214514   0.084   4.858   5.138 -0.1645 -0.0642  0.1055
 1121PF6-    F314515   0.012   5.154   5.255 -1.1716 -0.6550 -0.0883
 1121PF6-    F414516  -0.008   4.927   5.327 -0.3426  0.0968  0.0280
 1121PF6-    F514517   0.104   5.064   5.057 -0.0865 -0.6088  0.1362
 1121PF6-    F614518  -0.099   4.993   5.138 -0.4370 -0.1457  0.1681
 1121PF6-    F714519   0.198   5.014   5.258  0.4460 -0.1120 -0.4898
 1122PF6-    P114520   2.631   3.789   2.797  0.0952 -0.0949 -0.0943
 1122PF6-    F214521   2.584   3.678   2.913  0.4583 -0.5265  0.6311
 1122PF6-    F314522   2.672   3.898   2.688  0.0064 -0.1876  0.0817
 1122PF6-    F414523   2.500   3.878   2.829 -0.0792 -0.1916 -0.4866
 1122PF6-    F514524   2.759   3.699   2.763 -0.0372 -0.3387 -0.3927
 1122PF6-    F614525   2.550   3.708   2.689  0.3207 -0.6343  0.2683
 1122PF6-    F714526   2.714   3.869   2.908  0.0209  0.2072 -0.6028
 1123PF6-    P114527   3.923   0.461   5.105 -0.4590  0.0027  0.0926
 1123PF6-    F214528   3.973   0.406   5.246 -0.2018  0.3887  0.1530
 1123PF6-    F314529   3.870   0.511   4.960 -0.2324 -0.1884  0.0522
 1123PF6-    F414530   3.778   0.414   5.137 -0.2045  0.5235 -0.2226
 1123PF6-    F514531   4.076   0.501   5.069  0.2871  0.2711  0.3947
 1123PF6-    F614532   3.959   0.317   5.037 -0.0070  0.4959  0.1703
 1123PF6-    F714533   3.902   0.609   5.170 -0.1885  0.2339 -0.4356
 1124PF6-    P114534   4.861   4.186   4.544  0.3074 -0.1419  0.3798
 1124PF6-    F214535   4.936   4.086   4.438  0.0490 -0.2290 -0.1968
 1124PF6-    F314536   4.778   4.283   4.647 -0.4012 -0.6269  0.1330
 1124PF6-    F414537   4.925   4.111   4.669 -0.7931  0.0428 -0.3271
 1124PF6-    F514538   4.794   4.256   4.414 -0.4086 -0.2862 -0.2572
 1124PF6-    F614539   4.742   4.081   4.553 -0.2177  0.1423  0.0674
 1124PF6-    F714540   4.988   4.284   4.534 -0.0737  0.1682 -0.0626
 1125PF6-    P114541   2.340   4.048   2.002 -0.2822  0.2160  0.1087
 1125PF6-    F214542   2.184   4.086   1.985  0.0663 -0.1295 -0.0031
 1125PF6-    F314543   2.493   4.015   2.016  0.0122 -0.4118 -0.2667
 1125PF6-    F414544   2.300   3.974   2.136 -0.2747 -0.2852 -0.3646
 1125PF6-    F514545   2.380   4.127   1.869  0.1382  0.4853 -0.4347
 1125PF6-    F614546   2.359   4.183   2.087 -0.4532 -0.2410 -0.5721
 1125PF6-    F714547   2.311   3.921   1.905 -0.1166  0.1354 -0.0994
 1126PF6-    P114548   0.211   2.598   5.078  0.0751 -0.3567 -0.2467
 1126PF6-    F214549   0.266   2.723   4.991  0.6245 -0.2930  0.1971
 1126PF6-    F314550   0.159   2.468   5.163 -0.9226 -0.0092 -0.2416
 1126PF6-    F414551   0.283   2.500   4.971 -0.1680 -0.0149  0.0133
 1126PF6-    F514552   0.146   2.705   5.184 -0.0509  0.1175  0.5542
 1126PF6-    F614553   0.076   2.597   4.994 -0.1112  0.0425 -0.1866
 1126PF6-    F714554   0.345   2.603   5.160 -0.2077 -0.3244  0.1193
 1127PF6-    P114555   3.614   0.709   3.220  0.0355 -0.7444 -0.3533
 1127PF6-    F214556   3.603   0.556   3.252 -0.4495  0.7829 -0.2959
 1127PF6-    F314557   3.635   0.870   3.194  0.2387  0.2236 -0.2139
 1127PF6-    F414558   3.641   0.744   3.374 -0.9493  0.4562  0.1241
 1127PF6-    F514559   3.586   0.680   3.067  0.2895  0.9032 -0.3280
 1127PF6-    F614560   3.456   0.732   3.246  0.3987  0.2652 -0.3092
 1127PF6-    F714561   3.775   0.692   3.203  0.7620  0.0417 -0.0010
 1128PF6-    P114562   0.277   3.340   2.822  0.8240  0.1242  0.1616
 1128PF6-    F214563   0.429   3.285   2.814 -0.0510 -0.2840 -0.3825
 1128PF6-    F314564   0.123   3.383   2.840  0.0560  0.0197  0.5182
 1128PF6-    F414565   0.293   3.376   2.975  0.5446  0.3807  0.0119
 1128PF6-    F514566   0.265   3.300   2.670 -0.5232 -0.3314  0.5339
 1128PF6-    F614567   0.224   3.190   2.869 -0.5616 -0.1583 -0.3201
 1128PF6-    F714568   0.323   3.490   2.775 -0.9139  0.7254 -0.2194
 1129PF6-    P114569   3.601   1.926   0.005 -0.2182 -0.0633 -0.0607
 1129PF6-    F214570   3.709   2.028   0.067  0.1850  0.6304  0.2209
 1129PF6-    F314571   3.490   1.827  -0.045  0.2955 -0.3944 -0.0722
 1129PF6-    F414572   3.582   2.022  -0.121 -0.0436 -0.5180  0.4419
 1129PF6-    F514573   3.636   1.825   0.125  0.3011  0.1788  0.3479
 1129PF6-    F614574   3.488   1.997   0.091 -0.6583 -0.4032  0.0543
 1129PF6-    F714575   3.712   1.844  -0.083 -0.4741  0.3440  0.0620
 1130PF6-    P114576   3.398   4.996   4.092 -0.2441  0.2297 -0.0252
 1130PF6-    F214577   3.305   4.938   4.214 -0.0568 -0.2405 -0.3979
 1130PF6-    F314578   3.486   5.050   3.965  0.3426 -0.4038 -0.3609
 1130PF6-    F414579   3.397   4.855   4.028  0.0548  0.5485  0.8962
 1130PF6-    F514580   3.405   5.140   4.162  0.7015  0.0536  0.1286
 1130PF6-    F614581   3.531   4.955   4.169  0.6319 -0.7997 -0.0301
 1130PF6-    F714582   3.267   5.033   4.003 -0.1852 -0.2131 -0.2090
 1131PF6-    P114583   0.752   1.881   3.733 -0.0774 -0.3053 -0.2743
 1131PF6-    F214584   0.651   1.952   3.830 -0.1576 -0.0198 -0.1515
 1131PF6-    F314585   0.857   1.813   3.639 -0.0518 -0.2030  0.2401
 1131PF6-    F414586   0.813   1.791   3.854  0.4278 -0.6250  0.1095
 1131PF6-    F514587   0.695   1.966   3.604 -0.1918  0.3208 -0.0839
 1131PF6-    F614588   0.858   1.999   3.763 -0.1240  0.6309 -0.0984
 1131PF6-    F714589   0.640   1.764   3.702  0.1878  0.0315 -0.1533
 1132PF6-    P114590   3.465   3.485   1.126 -0.2320  0.6541 -0.4528
 1132PF6-    F214591   3.367   3.521   1.003  0.1494  0.2807  0.0777
 1132PF6-    F314592   3.557   3.450   1.255  0.4330 -0.9557 -0.5188
 1132PF6-    F414593   3.473   3.336   1.073  0.4024  0.2214 -0.5517
 1132PF6-    F514594   3.453   3.634   1.176 -0.5666 -0.1219 -0.1531
 1132PF6-    F614595   3.338   3.450   1.214 -0.1641 -0.0346  0.0080
 1132PF6-    F714596   3.594   3.527   1.037  0.4277 -0.1470 -0.3217
 1133PF6-    P114597   2.855   2.870   3.037  0.2300  0.4440  0.1308
 1133PF6-    F214598   2.830   2.931   2.890 -0.1000 -0.3542  0.0737
 1133PF6-    F314599   2.880   2.810   3.186  0.3611  0.2973 -0.1481
 1133PF6-    F414600   2.990   2.800   2.982 -0.3608 -0.2431  0.2927
 1133PF6-    F514601   2.719   2.941   3.083  0.1730  0.1257  0.3094
 1133PF6-    F614602   2.764   2.744   2.996 -0.1917 -1.0003  0.1557
 1133PF6-    F714603   2.939   3.006   3.078 -0.5641  0.1132 -0.2276
 1134PF6-    P114604   0.921   1.627   2.667  0.0229 -0.3772  0.3355
 1134PF6-    F214605   1.056   1.606   2.747  0.2525  0.4310 -0.1769
 1134PF6-    F314606   0.789   1.648   2.586 -0.0834  0.6469 -0.2173
 1134PF6-    F414607   0.962   1.495   2.583 -0.1133 -0.5976 -0.1868
 1134PF6-    F514608   0.877   1.754   2.754 -0.5803  0.3628  0.0916
 1134PF6-    F614609   1.001   1.714   2.562 -0.6576  0.0212 -0.5729
 1134PF6-    F714610   0.849   1.529   2.764  0.3136 -0.1299 -0.2998
 1135PF6-    P114611   2.355   0.057   3.526  0.2063 -0.0411 -0.1337
 1135PF6-    F214612   2.404   0.208   3.522 -0.8240 -0.7837  0.3447
 1135PF6-    F314613   2.309  -0.098   3.532  0.0502  0.3007  0.1362
 1135PF6-    F414614   2.311   0.073   3.378 -0.0209 -0.1966 -0.2120
 1135PF6-    F514615   2.404   0.038   3.679 -0.2730 -0.8032 -0.1192
 1135PF6-    F614616   2.211   0.099   3.578  0.1915 -0.2085  0.4210
 1135PF6-    F714617   2.499   0.013   3.482  0.2267  0.1743 -0.5552
 1136PF6-    P114618   3.764   4.197   4.725  0.2694  0.1031  0.3550
 1136PF6-    F214619   3.664   4.243   4.612 -0.2884  0.7717  0.6802
 1136PF6-    F314620   3.855   4.161   4.846  0.0298 -0.0901  0.1297
 1136PF6-    F414621   3.776   4.353   4.761 -0.0417  0.2071 -0.1679
 1136PF6-    F514622   3.748   4.041   4.675 -0.3594 -0.1574 -0.0525
 1136PF6-    F614623   3.890   4.209   4.625 -0.1153  0.2911 -0.6741
 1136PF6-    F714624   3.635   4.185   4.821 -0.3452 -0.4169  0.3074
 1137PF6-    P114625   1.621   5.253   1.806  0.0920  0.4447  0.2031
 1137PF6-    F214626   1.546   5.322   1.680  0.4729  0.1321 -0.0472
 1137PF6-    F314627   1.684   5.180   1.933 -0.2714  0.0242  0.1846
 1137PF6-    F414628   1.493   5.162   1.824 -0.1415 -0.5071 -0.1668
 1137PF6-    F514629   1.748   5.347   1.799  0.0601 -0.1059 -0.0713
 1137PF6-    F614630   1.552   5.364   1.903  0.1090  0.0004  0.0696
 1137PF6-    F714631   1.692   5.149   1.709 -0.6942  0.2334  0.1317
 1138PF6-    P114632   0.472   0.750   4.702 -0.1266  0.2066 -0.5248
 1138PF6-    F214633   0.522   0.788   4.558 -0.5255 -0.4703 -0.6412
 1138PF6-    F314634   0.412   0.716   4.849  0.1465 -0.0364 -0.3614
 1138PF6-    F414635   0.583   0.639   4.720 -0.1589 -0.0015 -0.0024
 1138PF6-    F514636   0.355   0.859   4.680 -0.0441 -0.1622 -0.1090
 1138PF6-    F614637   0.379   0.637   4.638  0.0497  1.1871 -0.7374
 1138PF6-    F714638   0.574   0.854   4.769 -0.0363 -0.0848  0.3741
 1139PF6-    P114639   2.875   1.657   0.831  0.0122  0.0961  0.1164
 1139PF6-    F214640   3.017   1.580   0.852 -0.1028  0.3721 -0.0520
 1139PF6-    F314641   2.736   1.732   0.805 -0.5381  0.1565  0.4824
 1139PF6-    F414642   2.799   1.538   0.912 -0.3898 -0.2480 -0.1576
 1139PF6-    F514643   2.940   1.776   0.744 -0.4630 -0.2103 -0.1346
 1139PF6-    F614644   2.859   1.573   0.694 -0.4385 -0.2753 -0.5528
 1139PF6-    F714645   2.888   1.740   0.974 -0.6497  0.1871  0.1818
 1140PF6-    P114646   0.024   2.062   0.319 -0.3779 -0.0740  0.0471
 1140PF6-    F214647   0.050   1.922   0.396  0.1413  0.1283  0.1547
 1140PF6-    F314648  -0.008   2.204   0.254  0.2678  0.0016  0.3467
 1140PF6-    F414649  -0.073   2.110   0.439  0.0499 -0.6036  0.2525
 1140PF6-    F514650   0.126   2.027   0.206 -0.2241 -0.7371 -0.2280
 1140PF6-    F614651  -0.100   1.995   0.243 -0.1830  0.0475 -1.1386
 1140PF6-    F714652   0.151   2.125   0.395  0.6332  0.1724  0.9279
 1141PF6-    P114653   0.061   0.116   4.187 -0.1938 -0.0125  0.4179
 1141PF6-    F214654  -0.003   0.135   4.332 -0.0322  0.1238  0.0599
 1141PF6-    F314655   0.122   0.081   4.048  0.2362 -0.7369  0.2848
 1141PF6-    F414656  -0.056   0.200   4.114  0.1613  0.8300 -0.8034
 1141PF6-    F514657   0.184   0.042   4.251 -0.5228  0.7624 -0.3446
 1141PF6-    F614658  -0.016  -0.019   4.173  0.6637  0.2765  0.1713
 1141PF6-    F714659   0.138   0.255   4.207 -0.4306  0.0688  0.1206
 1142PF6-    P114660   4.295   4.692   2.802  0.3348 -0.0880  0.1664
 1142PF6-    F214661   4.230   4.601   2.918  0.2794 -0.6025  0.1946
 1142PF6-    F314662   4.358   4.782   2.686 -0.0720  0.5484  0.0463
 1142PF6-    F414663   4.440   4.630   2.817 -0.3488 -0.4577 -0.3205
 1142PF6-    F514664   4.158   4.764   2.774 -0.2991  0.7305 -0.2861
 1142PF6-    F614665   4.335   4.812   2.905  0.1311 -0.1314 -0.0395
 1142PF6-    F714666   4.262   4.579   2.690 -0.2617 -0.2509  0.1498
 1143PF6-    P114667   0.299   3.134   4.958  0.4200  0.0168  0.1957
 1143PF6-    F214668   0.170   3.047   4.994  0.3341  0.1967  0.2223
 1143PF6-    F314669   0.424   3.223   4.925  0.5979  0.1836  0.3108
 1143PF6-    F414670   0.395   3.023   5.028 -0.0790  0.3466 -0.1786
 1143PF6-    F514671   0.207   3.246   4.880 -0.3098  0.2807 -0.0635
 1143PF6-    F614672   0.282   3.219   5.094 -0.8678 -0.2222 -0.0005
 1143PF6-    F714673   0.313   3.061   4.808 -0.0072 -0.3868 -0.2193
 1144PF6-    P114674   5.500   4.782   2.197  0.2246  0.1313  0.2274
 1144PF6-    F214675   5.364   4.836   2.264 -0.4000  0.2568  0.4066
 1144PF6-    F314676   5.635   4.715   2.143  0.3438  0.5020  0.2008
 1144PF6-    F414677   5.437   4.639   2.205  0.0955  0.6158  0.1811
 1144PF6-    F514678   5.564   4.932   2.186  0.0541  0.4041 -0.2197
 1144PF6-    F614679   5.570   4.772   2.340  0.4782 -0.6691 -0.0184
 1144PF6-    F714680   5.439   4.797   2.050  0.1670  0.3088 -0.4737
 1145PF6-    P114681   3.970   4.711   2.270  0.2971 -0.1480  0.1027
 1145PF6-    F214682   4.114   4.646   2.233  0.0849 -0.3958  0.1460
 1145PF6-    F314683   3.833   4.781   2.304  0.8842  0.5543 -0.0325
 1145PF6-    F414684   3.964   4.781   2.127 -0.2985  0.5176  0.5689
 1145PF6-    F514685   3.981   4.642   2.412 -0.1606 -0.5496  0.5895
 1145PF6-    F614686   4.049   4.841   2.326  0.1402 -0.2271 -0.9860
 1145PF6-    F714687   3.897   4.577   2.218  0.0366 -0.1088 -0.2265
 1146PF6-    P114688   4.714   3.398   0.118 -0.0034  0.1416 -0.1244
 1146PF6-    F214689   4.695   3.475   0.259 -0.4813  0.0404 -0.3721
 1146PF6-    F314690   4.733   3.320  -0.016 -0.6880  0.1345  0.1919
 1146PF6-    F414691   4.711   3.535   0.034  0.2868 -0.6252 -0.1065
 1146PF6-    F514692   4.708   3.261   0.204 -0.0720  0.1927  0.5992
 1146PF6-    F614693   4.556   3.391   0.099  0.1926 -0.3003  0.0620
 1146PF6-    F714694   4.873   3.396   0.125 -0.7377  0.2052 -0.1567
 1147PF6-    P114695   2.171   3.370   5.376 -0.3847 -0.2984 -0.0035
 1147PF6-    F214696   2.009   3.382   5.413  0.1692 -0.3414  0.1261
 1147PF6-    F314697   2.328   3.357   5.342 -0.4328  0.2147 -0.0867
 1147PF6-    F414698   2.141   3.251   5.268 -0.2128  0.2145 -0.2532
 1147PF6-    F514699   2.203   3.491   5.472  0.3254 -0.4715  0.5222
 1147PF6-    F614700   2.196   3.267   5.487 -0.1101 -0.0344 -0.4669
 1147PF6-    F714701   2.158   3.478   5.258 -0.0596 -0.0176 -0.4835
 1148PF6-    P114702   3.114   5.291   0.572 -0.0226 -0.3133  0.1283
 1148PF6-    F214703   2.986   5.196   0.579 -0.9792 -0.2328  0.2430
 1148PF6-    F314704   3.245   5.385   0.570  0.8422  0.3307 -0.5641
 1148PF6-    F414705   3.172   5.215   0.699 -0.0536 -0.1267 -0.2819
 1148PF6-    F514706   3.049   5.366   0.442  0.1759 -0.1909  0.0265
 1148PF6-    F614707   3.041   5.397   0.675 -0.5709 -0.1909  0.1912
 1148PF6-    F714708   3.190   5.191   0.477 -0.0358  0.0680  0.4205
 1149PF6-    P114709   1.708   4.286   1.858 -0.2509 -0.0581 -0.1170
 1149PF6-    F214710   1.739   4.297   1.696 -0.0228 -0.1564  0.0897
 1149PF6-    F314711   1.673   4.272   2.014  0.0194 -0.0251  0.6339
 1149PF6-    F414712   1.775   4.433   1.885 -0.0577 -0.5736  0.1510
 1149PF6-    F514713   1.645   4.141   1.833 -0.0721 -0.4039 -0.1704
 1149PF6-    F614714   1.851   4.221   1.878  0.2299 -0.1136  0.3437
 1149PF6-    F714715   1.563   4.358   1.827 -0.7759 -0.0342 -0.1697
 1150PF6-    P114716   3.108   1.566   1.253  0.0537 -0.1287 -0.0803
 1150PF6-    F214717   3.253   1.607   1.304 -0.5587  0.0662  0.2869
 1150PF6-    F314718   2.967   1.514   1.204  0.7382  0.2863 -0.2106
 1150PF6-    F414719   3.133   1.430   1.335 -0.2375  0.1835 -0.5103
 1150PF6-    F514720   3.097   1.701   1.170 -0.3917 -0.1755 -0.0812
 1150PF6-    F614721   3.169   1.499   1.122  0.0041 -0.0479  0.3413
 1150PF6-    F714722   3.044   1.640   1.380 -0.0933  0.2443  0.1940
 1151PF6-    P114723   4.401   5.445   4.742 -0.5470 -0.3719  0.3208
 1151PF6-    F214724   4.298   5.337   4.689 -0.0732  0.2164 -0.1838
 1151PF6-    F314725   4.510   5.548   4.795  0.2872 -0.5518 -0.1595
 1151PF6-    F414726   4.461   5.332   4.841  0.5201  0.0318  0.2613
 1151PF6-    F514727   4.342   5.552   4.639 -0.4742  0.2876 -0.4295
 1151PF6-    F614728   4.304   5.489   4.854  0.1390 -0.3339  0.6350
 1151PF6-    F714729   4.514   5.408   4.633  0.0879 -0.3521  0.1929
 1152PF6-    P114730   3.152   4.585   1.774 -0.3523  0.1894  0.1423
 1152PF6-    F214731   3.074   4.664   1.666 -0.5114 -0.3242 -0.0360
 1152PF6-    F314732   3.230   4.495   1.886 -0.0756 -0.1910  0.2186
 1152PF6-    F414733   3.293   4.613   1.702  0.4743  0.1387 -0.4477
 1152PF6-    F514734   3.014   4.561   1.862  0.0829 -0.2490  0.5360
 1152PF6-    F614735   3.128   4.453   1.689 -0.1759 -0.6095 -0.9035
 1152PF6-    F714736   3.174   4.716   1.867  0.0182 -0.4774 -0.0308
 1153PF6-    P114737   3.424   3.154   5.260  0.1400 -0.2683 -0.1863
 1153PF6-    F214738   3.335   3.284   5.286  0.1032 -0.0026 -0.0359
 1153PF6-    F314739   3.521   3.028   5.236  0.3865  0.0898  0.1667
 1153PF6-    F414740   3.550   3.243   5.281 -0.2196 -0.2382 -0.2743
 1153PF6-    F514741   3.298   3.061   5.249  0.1145  0.2536 -0.3519
 1153PF6-    F614742   3.426   3.188   5.104  0.0932 -0.2390 -0.0189
 1153PF6-    F714743   3.427   3.123   5.416 -0.6113  0.2405 -0.1341
 1154PF6-    P114744   0.440   1.013   1.802 -0.7643  0.3926 -0.4558
 1154PF6-    F214745   0.479   1.134   1.705  0.1313  0.1085 -0.8133
 1154PF6-    F314746   0.393   0.884   1.892 -0.5055  0.2261 -0.0532
 1154PF6-    F414747   0.454   1.104   1.933 -0.4067  0.3846  0.3956
 1154PF6-    F514748   0.437   0.914   1.676 -0.3075 -0.6520 -0.2063
 1154PF6-    F614749   0.594   0.973   1.823  0.3663 -0.1542 -0.3310
 1154PF6-    F714750   0.288   1.054   1.772 -0.1704 -0.0832 -0.1201
 1155PF6-    P114751   5.411   3.019   3.233 -0.4594 -0.3176 -0.8147
 1155PF6-    F214752   5.418   3.157   3.318 -0.0694  0.4039  0.1270
 1155PF6-    F314753   5.398   2.888   3.139 -0.2222  0.3492  0.1490
 1155PF6-    F414754   5.551   3.055   3.168  0.1546 -0.1266 -0.6282
 1155PF6-    F514755   5.269   2.983   3.297  0.2183  0.0787 -0.3861
 1155PF6-    F614756   5.337   3.099   3.113  0.0768  0.2614 -0.3152
 1155PF6-    F714757   5.489   2.930   3.352  0.2341  0.0694  0.0772
 1156PF6-    P114758   2.140   1.122   1.480  0.0427  0.3798 -0.2621
 1156PF6-    F214759   2.132   1.177   1.630  0.4115 -0.1574 -0.2825
 1156PF6-    F314760   2.160   1.062   1.331  0.7392  0.1197 -0.2950
 1156PF6-    F414761   1.982   1.150   1.459 -0.2836 -0.0818  0.7016
 1156PF6-    F514762   2.294   1.086   1.505  0.1612  0.3754  0.0547
 1156PF6-    F614763   2.109   0.974   1.535  0.1147 -0.2072  1.1561
 1156PF6-    F714764   2.184   1.262   1.426 -0.1885 -0.8157 -0.0615
 1157PF6-    P114765   0.321   0.406   1.855  0.0707 -0.3714  0.0989
 1157PF6-    F214766   0.396   0.546   1.814  0.4385 -0.0337 -0.0200
 1157PF6-    F314767   0.252   0.261   1.892 -0.1169  0.2439  0.6933
 1157PF6-    F414768   0.302   0.384   1.699  0.2181  0.7109  1.0638
 1157PF6-    F514769   0.344   0.431   2.008  0.1112 -0.0626  0.0299
 1157PF6-    F614770   0.183   0.482   1.854 -0.0413  0.0045 -0.0631
 1157PF6-    F714771   0.460   0.331   1.844  0.4284 -0.1610 -0.5131
 1158PF6-    P114772   1.142   1.308   4.104 -0.2198  0.1036  0.0475
 1158PF6-    F214773   1.211   1.176   4.162  0.2813 -0.5981  0.0666
 1158PF6-    F314774   1.069   1.435   4.037  0.4516  0.2719  0.3415
 1158PF6-    F414775   1.180   1.394   4.234  0.1296 -0.0691 -0.5366
 1158PF6-    F514776   1.106   1.224   3.967 -0.6897 -0.6703 -0.1787
 1158PF6-    F614777   0.998   1.265   4.162 -0.5976  0.2964  0.1508
 1158PF6-    F714778   1.282   1.356   4.038  0.5497 -0.0823  0.2427
 1159PF6-    P114779   0.902   3.070   2.703  0.1890 -0.1568 -0.1849
 1159PF6-    F214780   1.053   3.018   2.698 -0.0519 -0.3543 -0.0232
 1159PF6-    F314781   0.747   3.117   2.713  0.3494  0.0756  0.0730
 1159PF6-    F414782   0.881   3.054   2.542  0.4126  0.6751  0.1844
 1159PF6-    F514783   0.913   3.080   2.864 -0.0824  0.1309  0.1626
 1159PF6-    F614784   0.946   3.217   2.684 -0.3368 -0.4871 -0.1346
 1159PF6-    F714785   0.849   2.927   2.730  0.8151 -0.0308 -0.0127
 1160PF6-    P114786   3.675   4.078   2.109  0.0800 -0.1325  0.3227
 1160PF6-    F214787   3.659   4.025   1.955  0.1506 -0.2924 -0.0185
 1160PF6-    F314788   3.689   4.135   2.258  0.1549  0.2967 -0.2436
 1160PF6-    F414789   3.573   4.201   2.077 -0.1380  0.2021  0.2516
 1160PF6-    F514790   3.782   3.968   2.148  0.2736  0.6558 -0.1616
 1160PF6-    F614791   3.795   4.167   2.062 -0.3894 -0.2146 -0.0674
 1160PF6-    F714792   3.550   3.984   2.159  0.0030  0.1187  0.1076
 1161PF6-    P114793   0.529   5.233   2.989 -0.2163 -0.3036 -0.3996
 1161PF6-    F214794   0.661   5.250   2.899 -0.1920  0.2484  0.1363
 1161PF6-    F314795   0.392   5.219   3.079  0.3552  0.1342 -0.1119
 1161PF6-    F414796   0.468   5.366   2.912 -0.0014 -0.1549 -0.2988
 1161PF6-    F514797   0.596   5.104   3.059 -0.0198  0.4878  0.3826
 1161PF6-    F614798   0.591   5.328   3.098 -0.0751 -0.3494 -0.3610
 1161PF6-    F714799   0.468   5.143   2.872 -0.5593  0.2865 -0.1125
 1162PF6-    P114800   0.950   3.885   2.297  0.1282 -0.0752 -0.5938
 1162PF6-    F214801   0.925   3.943   2.443  0.4119  0.6780  0.1208
 1162PF6-    F314802   0.983   3.829   2.153  0.5521  0.1464  0.1643
 1162PF6-    F414803   1.030   4.017   2.263  0.6368  0.1231  0.3942
 1162PF6-    F514804   0.856   3.754   2.326  0.3998 -0.2617 -0.1766
 1162PF6-    F614805   0.812   3.951   2.235 -0.1360  0.6114 -0.0892
 1162PF6-    F714806   1.080   3.806   2.354  0.1438  0.5574 -0.1813
 1163PF6-    P114807   2.931   2.129   0.865 -0.0776 -0.2358 -0.3500
 1163PF6-    F214808   2.831   2.024   0.809 -0.3490  0.5969 -0.1674
 1163PF6-    F314809   3.035   2.233   0.932 -0.0651  0.0253 -0.5000
 1163PF6-    F414810   2.863   2.113   1.008  0.1296 -0.6158 -0.2943
 1163PF6-    F514811   3.006   2.144   0.731 -0.3130  0.0453 -0.0375
 1163PF6-    F614812   2.822   2.248   0.830  0.4868 -0.9777 -0.0429
 1163PF6-    F714813   3.033   2.008   0.902 -0.2312 -0.4824 -0.5587
 1164PF6-    P114814   0.257   4.483   1.704  0.0250  0.1959  0.0429
 1164PF6-    F214815   0.154   4.386   1.774  0.1096  0.0355 -0.5977
 1164PF6-    F314816   0.370   4.582   1.637  0.4041 -0.4132 -0.2501
 1164PF6-    F414817   0.306   4.531   1.843  0.2519  0.1440  0.1199
 1164PF6-    F514818   0.209   4.434   1.554  0.1794 -0.2989  0.6421
 1164PF6-    F614819   0.152   4.603   1.708  0.3351 -0.0894 -0.0950
 1164PF6-    F714820   0.363   4.357   1.702 -0.2654  0.3657 -0.0918
 1165PF6-    P114821   4.216   2.263   1.263 -0.2141 -0.0788 -0.2676
 1165PF6-    F214822   4.193   2.267   1.422 -0.3095  0.0303  0.1034
 1165PF6-    F314823   4.242   2.257   1.105  0.3658  0.7525 -0.2923
 1165PF6-    F414824   4.116   2.390   1.245 -0.3283 -0.1806 -0.2529
 1165PF6-    F514825   4.307   2.136   1.286  0.2263  0.1318  0.2110
 1165PF6-    F614826   4.089   2.171   1.244  0.2460 -0.0317 -0.4002
 1165PF6-    F714827   4.344   2.362   1.280  0.2993 -0.3714  0.4693
 1166PF6-    P114828   1.697   1.095   5.100  0.1438 -0.1373 -0.0200
 1166PF6-    F214829   1.570   1.150   5.177  0.0513  0.4965  0.1603
 1166PF6-    F314830   1.817   1.035   5.025 -0.4807 -0.0528  0.0731
 1166PF6-    F414831   1.692   0.958   5.183 -0.3735  0.1118  0.1183
 1166PF6-    F514832   1.712   1.232   5.012  0.2912  0.3070  0.5113
 1166PF6-    F614833   1.789   1.150   5.211 -0.1643  0.2870  0.2939
 1166PF6-    F714834   1.602   1.027   4.990 -1.0399  0.3383  0.5691
 1167PF6-    P114835   3.002   3.994   1.107  0.4815 -0.1342  0.3346
 1167PF6-    F214836   2.925   4.086   1.217  0.3163  0.1542 -0.1018
 1167PF6-    F314837   3.079   3.900   0.998 -0.7127 -0.2358  0.0333
 1167PF6-    F414838   3.143   4.023   1.182  0.2331 -0.2751  0.2628
 1167PF6-    F514839   2.856   3.969   1.040  0.3685  0.9345 -0.1854
 1167PF6-    F614840   3.024   4.118   1.015 -0.2022  0.0961  0.3293
 1167PF6-    F714841   2.987   3.861   1.194 -0.1312  0.1502  0.2372
 1168PF6-    P114842   3.122   1.026   1.217 -0.5461  0.3796  0.3123
 1168PF6-    F214843   2.969   0.973   1.207 -0.1583  0.3332 -0.0722
 1168PF6-    F314844   3.277   1.070   1.222 -0.2322 -0.6035  0.3618
 1168PF6-    F414845   3.169   0.886   1.274  0.3674 -0.2814  0.0679
 1168PF6-    F514846   3.073   1.170   1.169 -0.3162 -0.4315  0.0322
 1168PF6-    F614847   3.098   1.071   1.368  0.0779  0.3528 -0.2952
 1168PF6-    F714848   3.139   0.972   1.068 -0.2691 -0.1781 -0.0764
 1169PF6-    P114849   1.280   4.361   1.539 -0.2386  0.0254  0.0074
 1169PF6-    F214850   1.375   4.462   1.621  0.1754 -0.2303 -0.1085
 1169PF6-    F314851   1.191   4.248   1.456 -0.5552 -0.3041  0.7202
 1169PF6-    F414852   1.247   4.476   1.432 -0.9348  0.0044 -0.0687
 1169PF6-    F514853   1.312   4.245   1.653  0.2803 -0.3403 -0.0491
 1169PF6-    F614854   1.153   4.400   1.627  0.2148 -0.0672 -0.1520
 1169PF6-    F714855   1.413   4.321   1.453  0.0585 -0.2911 -0.1159
 1170PF6-    P114856   2.881   0.717   2.668 -0.3341 -0.3661 -0.1566
 1170PF6-    F214857   2.882   0.865   2.737  0.5349  0.3844  0.2361
 1170PF6-    F314858   2.888   0.573   2.605 -0.2908 -0.4281 -0.5512
 1170PF6-    F414859   2.962   0.656   2.792  0.0316  0.2181 -0.1099
 1170PF6-    F514860   2.805   0.775   2.546  0.5777 -0.1804 -0.2781
 1170PF6-    F614861   3.021   0.756   2.594 -0.5434  0.0324  0.2608
 1170PF6-    F714862   2.746   0.686   2.741  0.5566 -0.3418  0.5422
 1171PF6-    P114863   4.412   2.384   0.430  0.3561  0.5676 -0.2232
 1171PF6-    F214864   4.297   2.292   0.504 -0.0637  0.1124  0.1144
 1171PF6-    F314865   4.516   2.479   0.368  0.4517 -0.6156 -0.0902
 1171PF6-    F414866   4.294   2.462   0.357 -0.2831 -0.0373  0.2764
 1171PF6-    F514867   4.528   2.299   0.504 -0.0090  0.5499 -0.3721
 1171PF6-    F614868   4.413   2.287   0.302  0.6876 -0.5553 -0.3990
 1171PF6-    F714869   4.410   2.486   0.551  0.3581 -0.3324  0.7064
 1172PF6-    P114870   4.661   0.162   3.846  0.0737  0.0719 -0.4151
 1172PF6-    F214871   4.624   0.308   3.798 -0.3182  0.0282 -0.2006
 1172PF6-    F314872   4.694   0.010   3.892 -0.1309 -0.0798  0.1225
 1172PF6-    F414873   4.637   0.113   3.689 -0.2966 -0.7103 -0.3639
 1172PF6-    F514874   4.690   0.210   3.998 -0.4568  0.7964 -0.1700
 1172PF6-    F614875   4.507   0.143   3.888  0.0009  0.3263 -0.1117
 1172PF6-    F714876   4.814   0.184   3.816 -0.3208  0.2828 -0.7513
 1173PF6-    P114877   4.286   5.173   2.519  0.3908  0.0324  0.2741
 1173PF6-    F214878   4.302   5.212   2.677 -0.0577 -0.3969  0.8487
 1173PF6-    F314879   4.270   5.125   2.368  0.3921  0.3154  0.0005
 1173PF6-    F414880   4.307   5.020   2.562 -0.2499  0.1167  0.1113
 1173PF6-    F514881   4.262   5.324   2.479  0.4149  0.5463  0.1978
 1173PF6-    F614882   4.449   5.188   2.501  0.4508 -0.0300  0.3110
 1173PF6-    F714883   4.127   5.148   2.535  0.0379 -0.5200  0.4301
 1174PF6-    P114884   2.534   2.798   4.599 -0.2489  0.5178 -0.0800
 1174PF6-    F214885   2.627   2.813   4.723  0.2393  0.5505 -0.1879
 1174PF6-    F314886   2.432   2.787   4.476 -0.5904  0.5285  0.2029
 1174PF6-    F414887   2.406   2.829   4.689 -0.2866 -0.4840  0.0278
 1174PF6-    F514888   2.659   2.774   4.502 -0.0375 -0.0331 -0.0061
 1174PF6-    F614889   2.519   2.647   4.622  0.1724  0.4867 -0.1070
 1174PF6-    F714890   2.550   2.958   4.575 -0.2458 -0.6754 -0.3189
 1175PF6-    P114891   0.673   4.697   0.552  0.3245  0.5510  0.3567
 1175PF6-    F214892   0.519   4.709   0.519  0.1987 -0.0902 -0.1196
 1175PF6-    F314893   0.823   4.701   0.605 -0.1946  0.0209  0.3733
 1175PF6-    F414894   0.706   4.807   0.438 -0.8087 -0.2634 -0.3258
 1175PF6-    F514895   0.644   4.586   0.662 -0.0988  0.8517  0.3567
 1175PF6-    F614896   0.704   4.585   0.439 -0.1037  0.4806  0.1832
 1175PF6-    F714897   0.647   4.812   0.661 -0.2762 -0.3321  0.0173
 1176PF6-    P114898   4.657   4.235   1.930 -0.1329  0.0421  0.1901
 1176PF6-    F214899   4.752   4.238   2.059  0.1254  0.1129 -0.0497
 1176PF6-    F314900   4.562   4.226   1.801 -0.1177 -0.0700  0.1157
 1176PF6-    F414901   4.652   4.080   1.945 -0.5356  0.7494  0.2030
 1176PF6-    F514902   4.667   4.393   1.913  0.5732 -0.1404  0.1791
 1176PF6-    F614903   4.786   4.219   1.833 -0.0814  0.6589 -0.2839
 1176PF6-    F714904   4.536   4.256   2.028  0.0910  0.1679 -0.1995
 1177PF6-    P114905   3.223   3.739   1.500  0.0971  0.0341 -0.1715
 1177PF6-    F214906   3.239   3.621   1.603  0.3661  0.1352 -0.1533
 1177PF6-    F314907   3.211   3.863   1.393  0.1695 -0.1322 -0.1632
 1177PF6-    F414908   3.265   3.842   1.615 -0.0788  0.0476  0.2192
 1177PF6-    F514909   3.184   3.635   1.381  0.0823 -0.3684  0.9145
 1177PF6-    F614910   3.068   3.760   1.539  0.2768  0.5185  0.2099
 1177PF6-    F714911   3.378   3.719   1.460  0.3351  0.5099 -0.3685
 1178PF6-    P114912   0.008   3.307   0.726 -0.0062  0.3688 -0.1036
 1178PF6-    F214913  -0.085   3.206   0.645  0.4474  0.1583  0.0829
 1178PF6-    F314914   0.101   3.411   0.807 -0.4605  0.1443  0.1063
 1178PF6-    F414915   0.097   3.184   0.788  0.2532 -0.5689 -0.5650
 1178PF6-    F514916  -0.079   3.423   0.669  0.6924  0.0341  0.2837
 1178PF6-    F614917  -0.087   3.295   0.844 -0.1786 -0.0536  0.1437
 1178PF6-    F714918   0.109   3.317   0.602  0.4280 -0.0778 -0.2511
 1179PF6-    P114919   5.413   4.377   4.714  0.3477 -0.0430 -0.0607
 1179PF6-    F214920   5.416   4.239   4.798  0.2549 -0.1020 -0.4202
 1179PF6-    F314921   5.403   4.512   4.630 -0.7298  0.6526 -0.1325
 1179PF6-    F414922   5.517   4.446   4.812 -0.1223  0.0742 -0.3629
 1179PF6-    F514923   5.311   4.308   4.610 -0.7708 -0.1399 -0.8596
 1179PF6-    F614924   5.289   4.420   4.797 -0.0734  0.1646 -0.0257
 1179PF6-    F714925   5.537   4.324   4.624  0.8020 -0.3060 -0.4101
 1180PF6-    P114926   5.490   1.014   1.044 -0.3014 -0.3617 -0.1418
 1180PF6-    F214927   5.605   0.917   1.094 -0.0671  0.1080 -0.1365
 1180PF6-    F314928   5.367   1.112   1.008 -0.1315 -0.3063 -0.0304
 1180PF6-    F414929   5.573   1.142   1.099 -0.3298  0.2056 -0.1086
 1180PF6-    F514930   5.408   0.886   0.996 -0.1932 -0.0313 -0.3527
 1180PF6-    F614931   5.427   0.993   1.186  0.5522  0.1384 -0.0740
 1180PF6-    F714932   5.560   1.023   0.900  0.4630 -0.0882  0.3746
 1181PF6-    P114933   3.026   0.845   2.043 -0.0589  0.0868  0.2869
 1181PF6-    F214934   3.030   0.896   1.889 -0.1200  0.1589  0.3058
 1181PF6-    F314935   3.024   0.801   2.199 -0.4154 -0.3599 -0.3023
 1181PF6-    F414936   3.077   0.988   2.092 -0.0703  0.0181 -0.2840
 1181PF6-    F514937   2.983   0.704   1.999  0.2224  0.1879  0.1305
 1181PF6-    F614938   3.178   0.803   2.032  0.3841  0.7254  0.6677
 1181PF6-    F714939   2.872   0.885   2.056  0.8515  0.0583 -0.1581
 1182PF6-    P114940   2.501   3.790   1.252 -0.4015 -0.2155  0.6067
 1182PF6-    F214941   2.571   3.670   1.180  0.1983 -0.5459  0.3657
 1182PF6-    F314942   2.428   3.917   1.316  0.0231  0.0184  0.0692
 1182PF6-    F414943   2.457   3.692   1.372 -0.4475 -0.1020 -0.0826
 1182PF6-    F514944   2.559   3.877   1.124 -0.0202  0.3332  0.1602
 1182PF6-    F614945   2.368   3.751   1.176  0.1648  0.1465  0.3616
 1182PF6-    F714946   2.634   3.823   1.337  0.8101  0.3676 -0.3011
 1183PF6-    P114947   3.413   0.202   3.376 -0.0212  0.0517 -0.0418
 1183PF6-    F214948   3.458   0.047   3.385 -0.1709 -0.3005 -0.1754
 1183PF6-    F314949   3.372   0.356   3.362  0.0910  0.0463 -0.6060
 1183PF6-    F414950   3.323   0.190   3.501 -0.8777  0.0652 -0.1543
 1183PF6-    F514951   3.496   0.212   3.244  0.2267 -0.4277  0.0402
 1183PF6-    F614952   3.286   0.162   3.281 -0.3097  0.5738 -0.0734
 1183PF6-    F714953   3.536   0.245   3.471  0.1191 -0.4167  0.1180
 1184PF6-    P114954   5.137   4.563   2.738  0.2070 -0.1532  0.0876
 1184PF6-    F214955   5.178   4.513   2.884  0.0816  0.1286 -0.4778
 1184PF6-    F314956   5.099   4.616   2.589 -0.3289  0.0576 -0.0632
 1184PF6-    F414957   5.167   4.419   2.678 -0.0730  0.7852 -0.2210
 1184PF6-    F514958   5.107   4.708   2.797  0.3340 -0.5508  0.3896
 1184PF6-    F614959   5.289   4.621   2.715 -0.3934  0.2146 -0.1119
 1184PF6-    F714960   4.985   4.516   2.765 -0.3594  0.1143  0.2686
 1185PF6-    P114961   1.788   1.234   0.512 -0.0167 -0.3707  0.4832
 1185PF6-    F214962   1.775   1.082   0.517  0.6105 -0.2395  0.3656
 1185PF6-    F314963   1.807   1.392   0.507  0.5630  0.5468 -0.0912
 1185PF6-    F414964   1.801   1.226   0.352  0.0069 -0.5191  0.0060
 1185PF6-    F514965   1.773   1.242   0.674  0.4175  0.4628  0.4067
 1185PF6-    F614966   1.945   1.225   0.528  0.2051  0.1379 -0.0732
 1185PF6-    F714967   1.631   1.253   0.484  0.0506  0.0053  0.0082
 1186PF6-    P114968   5.287   0.195   3.313  0.3492  0.0665 -0.2430
 1186PF6-    F214969   5.203   0.321   3.262  0.2809 -0.1699 -0.0191
 1186PF6-    F314970   5.372   0.064   3.361  0.0196  0.1573  0.1327
 1186PF6-    F414971   5.364   0.291   3.417 -0.6148  0.1167  0.2927
 1186PF6-    F514972   5.203   0.106   3.209 -0.1183 -0.3337 -0.2377
 1186PF6-    F614973   5.392   0.225   3.195  0.2431 -0.4960  0.0856
 1186PF6-    F714974   5.172   0.165   3.427  0.7063  0.1448 -0.2456
 1187PF6-    P114975   2.908   1.646   4.700  0.1853 -0.0106 -0.1927
 1187PF6-    F214976   2.898   1.764   4.599 -0.3535 -0.0431  0.1761
 1187PF6-    F314977   2.914   1.523   4.808  0.0628  0.2683 -0.2069
 1187PF6-    F414978   3.062   1.676   4.740 -0.0115 -0.3685 -0.0288
 1187PF6-    F514979   2.760   1.609   4.669  0.5163  0.3787  0.2244
 1187PF6-    F614980   2.955   1.550   4.582  0.1394  0.2340  0.1490
 1187PF6-    F714981   2.865   1.747   4.823  0.3379  0.3048 -0.1920
 1188PF6-    P114982   2.176   1.274   3.397  0.0320  0.0887 -0.1398
 1188PF6-    F214983   2.225   1.257   3.551 -0.0953 -0.0377 -0.8180
 1188PF6-    F314984   2.128   1.286   3.249 -0.0138 -0.3438  0.3945
 1188PF6-    F414985   2.294   1.171   3.350 -0.1792  0.5731 -0.1583
 1188PF6-    F514986   2.060   1.371   3.443  0.4272 -0.2551 -0.4172
 1188PF6-    F614987   2.273   1.403   3.377  0.9015  0.0314  0.0139
 1188PF6-    F714988   2.076   1.153   3.418 -0.1400 -0.3345 -0.1569
 1189PF6-    P114989   4.457   1.832   1.495 -0.1416  0.3827  0.2719
 1189PF6-    F214990   4.441   1.987   1.475  0.0896 -0.0649 -0.1529
 1189PF6-    F314991   4.472   1.675   1.511 -0.5198 -0.1024  0.1475
 1189PF6-    F414992   4.313   1.814   1.425 -0.0247  0.1474  0.1234
 1189PF6-    F514993   4.609   1.843   1.562 -0.0238 -0.3874 -0.0723
 1189PF6-    F614994   4.387   1.846   1.637  0.1234  0.0398 -0.5312
 1189PF6-    F714995   4.520   1.825   1.348 -0.1458 -0.2889  0.2854
 1190PF6-    P114996   3.209   4.689   5.179  0.2993  0.1956 -0.0029
 1190PF6-    F214997   3.334   4.590   5.210  0.4117 -0.0829 -0.0470
 1190PF6-    F314998   3.088   4.788   5.143 -0.6465 -0.1963 -0.3375
 1190PF6-    F414999   3.312   4.794   5.110 -0.0816  0.4009 -0.1537
 1190PF6-    F515000   3.112   4.585   5.246  0.0703  0.1105  0.3380
 1190PF6-    F615001   3.225   4.767   5.316  0.0997  0.0841  0.1647
 1190PF6-    F715002   3.183   4.614   5.036 -0.9417  0.0370  0.3037
 1191PF6-    P115003   2.187   2.242   3.429 -0.2110  0.0133 -0.4275
 1191PF6-    F215004   2.305   2.294   3.345  0.4545 -0.4297 -0.0569
 1191PF6-    F315005   2.076   2.175   3.513  0.2819 -0.0811  0.1924
 1191PF6-    F415006   2.285   2.211   3.554  0.4687 -0.1318 -0.0688
 1191PF6-    F515007   2.091   2.265   3.301 -0.3615 -0.5853  0.4524
 1191PF6-    F615008   2.225   2.094   3.377 -0.5222  0.6496  0.0641
 1191PF6-    F715009   2.156   2.384   3.483 -0.1322  0.3918 -0.1537
 1192PF6-    P115010   0.657   2.278   0.471 -0.0879 -0.3810 -0.1209
 1192PF6-    F215011   0.687   2.401   0.569  0.4041  0.0369 -0.2299
 1192PF6-    F315012   0.623   2.156   0.375  0.5824 -0.2743 -0.4385
 1192PF6-    F415013   0.526   2.357   0.420 -0.0648  0.1660 -0.1483
 1192PF6-    F515014   0.785   2.204   0.529 -0.8487  0.5962  0.2738
 1192PF6-    F615015   0.571   2.210   0.589 -0.1821  0.1084 -0.0930
 1192PF6-    F715016   0.743   2.343   0.353 -0.0187  0.3070  0.4229
 1193PF6-    P115017   3.886   2.771   2.799  0.7900 -0.1647  0.1420
 1193PF6-    F215018   4.020   2.846   2.854  0.5003  0.7441  0.0471
 1193PF6-    F315019   3.752   2.706   2.737 -0.3496  0.4234 -0.2062
 1193PF6-    F415020   3.958   2.730   2.659 -0.3899  0.6471 -0.1501
 1193PF6-    F515021   3.801   2.815   2.930 -0.0656  0.5298 -0.1417
 1193PF6-    F615022   3.843   2.913   2.730  0.4351 -0.1074 -0.5333
 1193PF6-    F715023   3.924   2.631   2.867 -0.2648  0.0791  0.5536
 1194PF6-    P115024   1.396   2.220   2.244 -0.4586  0.1909 -0.3981
 1194PF6-    F215025   1.511   2.197   2.346 -0.1447 -0.1364 -0.1513
 1194PF6-    F315026   1.287   2.256   2.140 -0.2422 -0.3285 -0.7020
 1194PF6-    F415027   1.428   2.382   2.264  0.2991  0.1242  0.0647
 1194PF6-    F515028   1.372   2.063   2.230 -0.1829  0.2639 -0.3335
 1194PF6-    F615029   1.290   2.232   2.363  0.0539  0.2628  0.0746
 1194PF6-    F715030   1.507   2.219   2.127 -0.5475  0.0969  0.1471
 1195PF6-    P115031   4.461   3.995   3.595 -0.2274  0.0952  0.0793
 1195PF6-    F215032   4.397   3.857   3.569  0.0334  0.2098  0.4909
 1195PF6-    F315033   4.535   4.134   3.632  0.7616  0.3927  0.0304
 1195PF6-    F415034   4.352   4.073   3.506 -0.0713 -0.1017  0.2552
 1195PF6-    F515035   4.578   3.917   3.683  0.3530  0.5053  0.1599
 1195PF6-    F615036   4.550   3.977   3.466  0.3671  0.4757  0.3716
 1195PF6-    F715037   4.365   4.016   3.722 -0.4323  0.8170 -0.4133
 1196PF6-    P115038   1.041   0.183   1.695  0.7564 -0.0302 -0.0065
 1196PF6-    F215039   1.068   0.104   1.562  0.2345 -0.0714  0.2756
 1196PF6-    F315040   1.007   0.259   1.833  0.1069  0.0099  0.1960
 1196PF6-    F415041   1.150   0.293   1.659 -0.1498  0.0348  0.4921
 1196PF6-    F515042   0.923   0.077   1.732  0.2576 -0.5267  0.0240
 1196PF6-    F615043   1.143   0.098   1.772 -0.2197 -0.3290 -0.2128
 1196PF6-    F715044   0.937   0.268   1.617 -0.5334 -0.0818 -0.2553
 1197PF6-    P115045   1.194   2.034   5.086  0.0849  0.1041  0.4312
 1197PF6-    F215046   1.295   2.031   5.212 -0.1551 -0.7465 -0.4420
 1197PF6-    F315047   1.093   2.033   4.958 -0.1424 -0.6042  0.4142
 1197PF6-    F415048   1.270   2.154   5.005 -0.1464  0.3317  0.3735
 1197PF6-    F515049   1.112   1.911   5.149  0.3034  0.2157  0.0991
 1197PF6-    F615050   1.096   2.139   5.158  0.0157  0.0580 -0.3892
 1197PF6-    F715051   1.287   1.925   5.012  0.5861 -0.1480  0.1457
 1198PF6-    P115052   2.233   4.341   4.793 -0.1492 -0.1417  0.2266
 1198PF6-    F215053   2.194   4.496   4.824  0.0533 -0.8120 -0.1379
 1198PF6-    F315054   2.277   4.189   4.763  0.0403 -0.2331  0.3472
 1198PF6-    F415055   2.227   4.365   4.636  0.1348 -0.3246  0.2727
 1198PF6-    F515056   2.240   4.312   4.949  0.0381  0.3678  0.1375
 1198PF6-    F615057   2.075   4.309   4.786  0.5718  0.5871 -0.2327
 1198PF6-    F715058   2.390   4.388   4.787 -0.0107 -0.0091  0.2121
 1199PF6-    P115059   0.173   4.369   2.437 -0.1159 -0.2942 -0.2148
 1199PF6-    F215060   0.173   4.330   2.591 -0.2359  0.1890  0.4474
 1199PF6-    F315061   0.168   4.399   2.282 -0.2210 -0.4973 -0.5875
 1199PF6-    F415062   0.050   4.271   2.415 -0.0397  0.2843  0.2258
 1199PF6-    F515063   0.296   4.469   2.456  0.7239 -0.4964  0.0483
 1199PF6-    F615064   0.271   4.246   2.411  0.2550  0.2179  0.4595
 1199PF6-    F715065   0.071   4.487   2.468 -0.3142  0.2337  0.2861
 1200PF6-    P115066   4.292   2.389   1.814 -0.5131  0.4222 -0.2321
 1200PF6-    F215067   4.151   2.396   1.886 -0.6383  0.1937 -0.1956
 1200PF6-    F315068   4.435   2.382   1.746 -0.0063  0.3991  0.3576
 1200PF6-    F415069   4.235   2.485   1.698 -0.4416 -0.2073 -0.6786
 1200PF6-    F515070   4.355   2.290   1.931 -0.0038  0.3956 -0.0386
 1200PF6-    F615071   4.245   2.266   1.725 -0.3053 -0.3743 -0.3539
 1200PF6-    F715072   4.341   2.517   1.893 -0.5815 -0.5481  0.0112
 1201PF6-    P115073   1.873   1.282   2.632 -0.4066 -0.3708 -0.0306
 1201PF6-    F215074   1.934   1.142   2.590  0.2986 -0.7854  0.2259
 1201PF6-    F315075   1.815   1.427   2.674 -0.0447 -0.1141 -0.0229
 1201PF6-    F415076   1.806   1.305   2.490  0.7714  0.0943 -0.0780
 1201PF6-    F515077   1.942   1.270   2.777  0.3984  0.3273  0.1887
 1201PF6-    F615078   2.000   1.360   2.583  0.0892  0.0501  0.0343
 1201PF6-    F715079   1.743   1.207   2.684 -0.1550 -0.0941  0.1253
 1202PF6-    P115080   4.354   1.375   0.066  0.1332 -0.1475  0.1162
 1202PF6-    F215081   4.393   1.343  -0.091  0.6466 -0.4770 -0.4075
 1202PF6-    F315082   4.321   1.387   0.214 -0.0121 -0.2293  0.2485
 1202PF6-    F415083   4.236   1.477   0.020  0.4053 -0.1139  0.0176
 1202PF6-    F515084   4.469   1.270   0.115  0.3133  0.2137 -0.0070
 1202PF6-    F615085   4.456   1.496   0.069  0.1425  0.1108 -0.2242
 1202PF6-    F715086   4.249   1.251   0.057  0.3285 -0.1262 -0.5130
 1203PF6-    P115087   2.988   5.167   3.574 -0.3473 -0.0809  0.5213
 1203PF6-    F215088   3.071   5.277   3.484 -0.3711  0.3801 -0.1230
 1203PF6-    F315089   2.905   5.053   3.653  0.2896 -0.3942 -0.0967
 1203PF6-    F415090   2.906   5.128   3.439 -0.2753  0.4666  0.1534
 1203PF6-    F515091   3.070   5.210   3.706 -0.1438 -0.4094  0.1661
 1203PF6-    F615092   2.869   5.273   3.613  0.5687  0.1763  0.0760
 1203PF6-    F715093   3.104   5.061   3.537 -0.5781 -0.0622 -0.3238
 1204PF6-    P115094   2.698   3.297   2.354  0.2215 -0.3893  0.0611
 1204PF6-    F215095   2.677   3.196   2.472  0.0114  0.6126 -0.2692
 1204PF6-    F315096   2.721   3.404   2.234 -1.2737 -0.3950 -0.0122
 1204PF6-    F415097   2.702   3.170   2.250 -0.0306  0.0636 -0.1893
 1204PF6-    F515098   2.690   3.419   2.459  0.7086 -0.2971  0.5647
 1204PF6-    F615099   2.858   3.286   2.367  0.1963  0.1136 -0.4554
 1204PF6-    F715100   2.537   3.307   2.332 -0.5358  0.0631 -0.0591
 1205PF6-    P115101   1.687   3.865   2.784  0.3283 -0.0148 -0.0428
 1205PF6-    F215102   1.786   3.738   2.788  0.0262 -0.1771  0.1630
 1205PF6-    F315103   1.578   3.984   2.783  0.4786  0.1815 -0.2855
 1205PF6-    F415104   1.722   3.892   2.628  0.3125  0.6651 -0.3869
 1205PF6-    F515105   1.649   3.827   2.935 -0.0662  0.2268 -0.1088
 1205PF6-    F615106   1.806   3.967   2.836 -0.1958 -0.0850  0.6789
 1205PF6-    F715107   1.568   3.766   2.738  0.0944 -0.0862  0.0623
 1206PF6-    P115108   4.998   0.276   4.955 -0.0804  0.4091 -0.2578
 1206PF6-    F215109   4.938   0.378   4.850  0.4725  0.2436 -0.6263
 1206PF6-    F315110   5.058   0.172   5.063  0.1563 -0.3777  0.7508
 1206PF6-    F415111   5.033   0.174   4.836  0.4305  0.2235 -0.3256
 1206PF6-    F515112   4.963   0.381   5.068  0.5361  0.2885  0.8029
 1206PF6-    F615113   4.858   0.208   4.979 -0.0253 -0.5946 -0.2296
 1206PF6-    F715114   5.140   0.346   4.940 -0.4090  0.2948 -0.2019
 1207PF6-    P115115   2.126   3.945   4.371 -0.3567 -0.2541 -0.1311
 1207PF6-    F215116   2.071   3.835   4.260 -0.1449  0.3634  0.5046
 1207PF6-    F315117   2.177   4.053   4.477  0.3505 -0.7591 -0.3173
 1207PF6-    F415118   2.034   3.881   4.493 -0.2246  0.3770  0.4146
 1207PF6-    F515119   2.219   4.017   4.262 -0.9175 -0.0739  0.1243
 1207PF6-    F615120   2.011   4.043   4.318 -0.0781 -0.1460  0.1130
 1207PF6-    F715121   2.248   3.849   4.415 -0.2276 -0.0411 -0.0966
 1208PF6-    P115122   1.554   4.869   4.728  0.3099 -0.0228  0.1993
 1208PF6-    F215123   1.599   4.722   4.741 -0.3175 -0.0622  0.4756
 1208PF6-    F315124   1.500   5.024   4.729  0.6967 -0.0441 -0.1742
 1208PF6-    F415125   1.405   4.813   4.703 -0.0965 -0.2190 -0.2269
 1208PF6-    F515126   1.703   4.922   4.754  0.3192 -0.0243 -0.2352
 1208PF6-    F615127   1.585   4.866   4.568  0.2102 -0.0943  0.2485
 1208PF6-    F715128   1.527   4.860   4.888  0.6231 -0.3868 -0.0231
 1209PF6-    P115129   3.520   2.826   4.801  0.2293  0.1298  0.2568
 1209PF6-    F215130   3.437   2.958   4.787 -0.0084  0.3485  0.6886
 1209PF6-    F315131   3.606   2.694   4.816 -0.3402 -0.0349  0.1165
 1209PF6-    F415132   3.558   2.875   4.954 -0.5030  0.1882  0.8522
 1209PF6-    F515133   3.479   2.787   4.647 -0.3140 -0.0597  0.1936
 1209PF6-    F615134   3.654   2.902   4.742  0.0031  0.3390 -0.1532
 1209PF6-    F715135   3.389   2.752   4.860 -0.0874 -0.2528 -0.3935
 1210PF6-    P115136   2.481   3.725   0.707 -0.1946  0.2473  0.1467
 1210PF6-    F215137   2.645   3.715   0.677  0.0582  0.4633  0.4138
 1210PF6-    F315138   2.321   3.737   0.724 -0.4150  0.2551  0.4948
 1210PF6-    F415139   2.473   3.827   0.579 -0.0220 -0.2409 -0.3197
 1210PF6-    F515140   2.495   3.629   0.837 -0.1629  0.1918  0.1338
 1210PF6-    F615141   2.506   3.854   0.804  0.6256  0.1437 -0.3879
 1210PF6-    F715142   2.452   3.596   0.612 -0.4164  0.2373  0.5649
 1211PF6-    P115143   1.550   3.916   0.914 -0.1347 -0.0262  0.0801
 1211PF6-    F215144   1.420   3.917   0.814  0.3764  0.3690 -0.3388
 1211PF6-    F315145   1.675   3.918   1.008  0.0321  0.8480 -0.2077
 1211PF6-    F415146   1.601   4.052   0.847  0.0005  0.3386  0.9321
 1211PF6-    F515147   1.493   3.788   0.989 -0.5217  0.1756  0.2419
 1211PF6-    F615148   1.626   3.834   0.802  0.3103 -0.0652  0.0333
 1211PF6-    F715149   1.471   4.007   1.014 -0.0955 -0.0190 -0.6033
 1212PF6-    P115150   5.352   4.757   0.192  0.2499 -0.1127  0.3706
 1212PF6-    F215151   5.388   4.879   0.283 -0.0960 -0.4247 -0.3875
 1212PF6-    F315152   5.299   4.638   0.102 -0.1060  0.1765 -0.2329
 1212PF6-    F415153   5.453   4.665   0.271 -0.1223  0.3245  0.0943
 1212PF6-    F515154   5.252   4.854   0.118  0.2289 -0.0933  0.8024
 1212PF6-    F615155   5.464   4.792   0.084  0.5472  0.3311  0.1932
 1212PF6-    F715156   5.236   4.725   0.294 -0.0600  0.3175 -0.2228
 1213Na+     N115157   5.241   0.817   0.039 -0.1088 -0.3758 -0.2668
 1214Na+     N115158   1.454   4.565   1.844  0.0337 -0.0923  0.1301
 1215Na+     N115159   0.256   0.439   4.141 -0.0685  0.4048 -0.2405
 1216Na+     N115160   2.666   5.405   3.655 -0.9105  0.0657 -0.1211
 1217Na+     N115161   0.300   4.494   2.089 -0.3583 -0.0632  0.1465
 1218Na+     N115162   0.104   4.569   0.840 -0.2456  0.3972 -0.1225
 1219Na+     N115163   2.497   1.117   1.609  0.3023 -0.1050 -0.0262
 1220Na+     N115164   1.680   1.078   3.958 -0.1970  0.0723  0.4303
 1221Na+     N115165   2.967   1.900   1.122  0.0810  0.8841 -0.3857
 1222Na+     N115166   4.970   0.126   3.632  0.3463 -0.0288 -0.0990
 1223Na+     N115167   0.341   0.744   5.064 -0.2655 -0.1267  0.1134
 1224Na+     N115168   2.004   4.028   1.831 -0.0243 -0.3605  0.5508
 1225Na+     N115169   0.134   4.096   2.665 -0.3821 -0.1726  0.7625
 1226Na+     N115170   3.610   3.552   1.480 -0.5525  0.3691  0.0082
 1227Na+     N115171   4.474   4.976   2.764  0.1896  0.0136  0.2398
 1228Na+     N115172   1.254   1.880   0.345  0.1236 -0.2518  0.1566
 1229Na+     N115173   0.076   1.418   1.174  0.2406  0.5357 -0.2552
 1230Na+     N115174   0.713   0.208   1.809 -0.3074  0.0828  0.1363
 1231Na+     N115175   1.382   3.816   2.608  0.6775 -0.4240 -0.6302
 1232Na+     N115176   0.666   3.338   2.735  0.0611  0.0714  0.2080
 1233Na+     N115177   3.281   5.070   3.753 -0.1420  0.2327  0.0121
 1234Na+     N115178   2.287   2.898   4.907 -0.0031  0.6352  0.1444
 1235Na+     N115179   2.763   5.295   1.120  0.1591 -0.4587  0.1199
 1236Na+     N115180   2.057   1.282   2.979 -0.2572  0.1680 -0.1346
 1237Na+     N115181   3.888   4.009   1.838 -0.6142 -0.1695 -0.1803
 1238Na+     N115182   0.512   2.814   5.019  0.1939 -0.1514  0.1169
 1239Na+     N115183   3.022   4.440   4.967 -0.0473  0.1700  0.0569
 1240Na+     N115184   1.218   4.015   1.524  0.1924  0.1791 -0.2580
 1241Na+     N115185   3.410   4.838   4.788 -0.1015 -0.2860  0.0832
 1242Na+     N115186   3.224   3.741   1.151  0.3174  0.4039  0.2372
 1243Na+     N115187   0.052   4.642   4.938  0.0045 -0.7598  0.0438
 1244Na+     N115188   3.997   5.084   2.327  0.5424 -0.0046 -0.1112
 1245Na+     N115189   5.448   4.722   2.557  0.0011  0.0049  0.0096
 1246Na+     N115190   3.351   5.040   0.545  0.0912 -0.7935  0.1888
 1247Na+     N115191   1.020   1.725   2.988  0.1671  0.2808  0.1320
 1248Na+     N115192   4.228   4.593   2.443  0.0863 -0.0966  0.2971
 1249Na+     N115193   4.297   2.721   0.478  0.1284  0.2807  0.2842
 1250Na+     N115194   5.366   0.280   4.863  0.0018 -0.1219 -0.2200
 1251Na+     N115195   4.997   4.254   2.025  0.2774 -0.1421 -0.0400
 1252Na+     N115196   1.425   4.601   4.890 -0.5359  0.0575 -0.0112
 1253Na+     N115197   2.350   4.417   2.218 -0.0419 -0.1997 -0.1524
 1254Na+     N115198   0.079   2.704   3.429  0.4754 -0.1519 -0.1203
 1255Na+     N115199   4.347   1.039   5.479 -0.0964  0.4371  0.3043
 1256Na+     N115200   1.025   1.309   2.214 -0.3840  0.3974 -0.3641
 1257Na+     N115201   3.587   0.471   3.494 -0.2484 -0.1863 -0.2065
 1258Na+     N115202   3.448   0.254   3.004  0.0846  0.0909  0.0816
 1259Na+     N115203   5.194   3.448   0.527 -0.5686  0.4039 -0.1371
 1260Na+     N115204   0.297   1.058   0.872 -0.1423 -0.3606 -0.1557
 1261Na+     N115205   1.341   5.448   1.751  0.2011 -0.6985  0.5756
 1262Na+     N115206   4.092   3.399   2.951  0.2996 -0.3187 -0.2849
 1263Na+     N115207   2.928   4.049   2.924  0.1706  0.0075  0.4485
 1264Na+     N115208   1.672   3.690   0.552  0.4614  0.0289  0.0197
 1265Na+     N115209   4.487   2.217   1.564  0.1200  0.2186 -0.0738
 1266Na+     N115210   1.663   0.956   4.764  0.6979 -0.1888  0.3631
 1267Na+     N115211   0.906   1.565   3.913  0.2839  0.3295  0.1056
 1268Na+     N115212   4.297   3.296   0.097  0.1425 -0.6333  0.4111
 1269Na+     N115213   3.231   3.081   4.834 -0.0955  0.2847  0.2228
 1270Na+     N115214   0.817   5.099   3.231 -0.1458 -0.0863 -0.2879
 1271Na+     N115215   2.393   3.973   3.072  0.0966 -0.1982  0.0050
 1272Na+     N115216   4.797   4.029   3.521  0.2287 -0.2050 -0.3249
 1273Na+     N115217   2.760   3.072   2.681 -0.0806 -0.4672 -0.0529
 1274Na+     N115218   0.362   0.033   2.795 -0.0673 -0.0063  0.0872
 1275Na+     N115219   4.129   0.188   4.835 -0.0674  0.1527 -0.0368
 1276Na+     N115220   3.645   2.847   5.179 -0.0982 -0.1279  0.1246
 1277Na+     N115221   4.747   0.148   4.756 -0.1140  0.2250 -0.6158
 1278Na+     N115222   1.421   1.836   4.804  0.3724  0.1861  0.0756
 1279Na+     N115223   3.004   1.352   0.988  0.0917 -0.2594 -0.1096
 1280Na+     N115224   0.945   4.838   0.719 -0.8002 -0.9955 -0.1986
 1281Na+     N115225   0.609   2.362   0.801 -0.0474 -0.1500  0.3026
 1282Na+     N115226   3.228   1.931   4.800 -0.3107 -0.1136 -0.0559
 1283Na+     N115227   5.234   4.880   5.364 -0.1331 -0.6633 -0.0799
 1284Na+     N115228   2.864   3.886   1.444  0.1208 -0.3651  0.0463
 1285Na+     N115229   3.381   4.339   1.960  0.0447  0.1171  0.0122
 1286Na+     N115230   3.310   1.193   1.430 -0.1651  0.1175  0.4621
 1287Na+     N115231   2.066   4.019   4.733 -0.4225  0.1200  0.0575
 1288Na+     N115232   4.107   4.282   4.404 -0.2346 -0.3863 -0.0766
 1289Na+     N115233   2.521   3.412   5.499  0.0943  0.0970  0.5252
 1290Na+     N115234   2.859   1.013   2.934  0.1791 -0.1601 -0.0705
 1291Na+     N115235   3.824   2.521   2.555  0.3941 -0.0899  0.1598
 1292Na+     N115236   2.808   5.108   3.228 -0.2052  0.1671 -0.0860
 1293Na+     N115237   1.239   2.524   2.208  0.1680  0.0378  0.0561
 1294Na+     N115238   2.437   3.583   2.483  0.1119 -0.0196 -0.3878
 1295Na+     N115239   2.687   1.937   0.625 -0.0157  0.0516  0.7899
 1296Na+     N115240   4.957   2.323   0.036 -0.4050  0.6928 -0.0328
 1297Na+     N115241   1.109   5.496   0.103 -0.0428 -0.4603  0.2193
 1298Na+     N115242   5.123   4.214   4.748  0.2572 -0.0098  0.2260
 1299Na+     N115243   2.992   0.618   2.341 -0.2325  0.1099  0.2193
 1300Na+     N115244   4.058   2.493   1.537 -0.0687  0.1479 -0.0007
 1301Na+     N115245   2.667   3.988   0.917  0.3829 -0.0822 -0.0599
 1302Na+     N115246   0.264   0.742   1.715 -0.0995 -0.2536 -0.3700
 1303Na+     N115247   2.532   2.330   3.201 -0.2713 -0.1738 -0.0416
 1304Na+     N115248   3.871   1.874   0.238  0.2840  0.4008  0.2596
 1305Na+     N115249   1.757   1.091   0.127  0.0297  0.2537 -0.3252
 1306Na+     N115250   2.321   3.594   1.005 -0.0830  0.0378 -0.5079
 1307Na+     N115251   0.399   2.099   0.311  0.5121 -0.1115 -1.3143
 1308Na+     N115252   2.612   0.691   4.555 -0.2071 -0.4237  0.2407
 1309Na+     N115253   0.002   3.261   3.011  0.0430  0.0978  0.2166
 1310Na+     N115254   4.126   1.946   1.297 -0.2359 -0.0440 -0.3250
 1311Na+     N115255   5.473   2.848   5.014 -0.1088  0.2134  0.3115
 1312Na+     N115256   4.984   4.062   4.164 -0.5637  0.4570  0.3739
   5.50057   5.50057   5.50057
