[ atomtypes ]
;  name        mass      charge  ptype       V(sigma)     W(epsinal)
     O4    15.99943      -0.414      A   2.900000e-01   5.857600e-01
     C6    12.01078       0.141      A   3.500000e-01   2.761440e-01
     H6     1.00795       0.030      A   2.500000e-01   1.255200e-01
     C7    12.01078      -0.054      A   3.500000e-01   2.761440e-01
     H7     1.00795       0.030      A   2.500000e-01   1.255200e-01
      P    30.97376       1.537      A   3.740000e-01   8.368000e-01
     F1    18.99840      -0.386      A   3.118000e-01   2.552240e-01
     F2    18.99840      -0.386      A   3.118000e-01   2.552240e-01
     F3    18.99840      -0.386      A   3.118000e-01   2.552240e-01
     Na    22.98977       0.779      A   2.584000e-01   4.184000e-01

[ nonbond_params ]
;    i     j  func       V(sigma)     W(epsinal)
    O4    O4     1   2.900000e-01   5.857600e-01
    O4    C6     1   3.200000e-01   4.021870e-01
    O4    H6     1   2.700000e-01   2.711525e-01
    O4    C7     1   3.200000e-01   4.021870e-01
    O4    H7     1   2.700000e-01   2.711525e-01
    O4     P     1   3.320000e-01   7.001087e-01
    O4    F1     1   3.009000e-01   3.866518e-01
    O4    F2     1   3.009000e-01   3.866518e-01
    O4    F3     1   3.009000e-01   3.866518e-01
    O4    Na     1   2.742000e-01   4.950509e-01
    C6    C6     1   3.500000e-01   2.761440e-01
    C6    H6     1   3.000000e-01   1.861754e-01
    C6    C7     1   3.500000e-01   2.761440e-01
    C6    H7     1   3.000000e-01   1.861754e-01
    C6     P     1   3.620000e-01   4.806998e-01
    C6    F1     1   3.309000e-01   2.654790e-01
    C6    F2     1   3.309000e-01   2.654790e-01
    C6    F3     1   3.309000e-01   2.654790e-01
    C6    Na     1   3.042000e-01   3.399082e-01
    H6    H6     1   2.500000e-01   1.255200e-01
    H6    C7     1   3.000000e-01   1.861754e-01
    H6    H7     1   2.500000e-01   1.255200e-01
    H6     P     1   3.120000e-01   3.240926e-01
    H6    F1     1   2.809000e-01   1.789832e-01
    H6    F2     1   2.809000e-01   1.789832e-01
    H6    F3     1   2.809000e-01   1.789832e-01
    H6    Na     1   2.542000e-01   2.291660e-01
    C7    C7     1   3.500000e-01   2.761440e-01
    C7    H7     1   3.000000e-01   1.861754e-01
    C7     P     1   3.620000e-01   4.806998e-01
    C7    F1     1   3.309000e-01   2.654790e-01
    C7    F2     1   3.309000e-01   2.654790e-01
    C7    F3     1   3.309000e-01   2.654790e-01
    C7    Na     1   3.042000e-01   3.399082e-01
    H7    H7     1   2.500000e-01   1.255200e-01
    H7     P     1   3.120000e-01   3.240926e-01
    H7    F1     1   2.809000e-01   1.789832e-01
    H7    F2     1   2.809000e-01   1.789832e-01
    H7    F3     1   2.809000e-01   1.789832e-01
    H7    Na     1   2.542000e-01   2.291660e-01
     P     P     1   3.740000e-01   8.368000e-01
     P    F1     1   3.429000e-01   4.621228e-01
     P    F2     1   3.429000e-01   4.621228e-01
     P    F3     1   3.429000e-01   4.621228e-01
     P    Na     1   3.162000e-01   5.917013e-01
    F1    F1     1   3.118000e-01   2.552240e-01
    F1    F2     1   3.118000e-01   2.552240e-01
    F1    F3     1   3.118000e-01   2.552240e-01
    F1    Na     1   2.851000e-01   3.267788e-01
    F2    F2     1   3.118000e-01   2.552240e-01
    F2    F3     1   3.118000e-01   2.552240e-01
    F2    Na     1   2.851000e-01   3.267788e-01
    F3    F3     1   3.118000e-01   2.552240e-01
    F3    Na     1   2.851000e-01   3.267788e-01
    Na    Na     1   2.584000e-01   4.184000e-01
