THF-PF6-Na          Amber RESP
15256
    1THF     O1    1   3.146   1.541   4.890 -0.3147  0.3637  0.1561
    1THF     C2    2   3.232   1.603   4.789 -0.7738 -0.5800 -0.1515
    1THF     C3    3   3.195   1.577   5.019  0.5864  0.8494 -0.7358
    1THF     H4    4   3.181   1.692   4.753 -1.7054 -0.3609  1.5762
    1THF     H5    5   3.254   1.534   4.708  1.2675  0.0418 -0.1937
    1THF     H6    6   3.111   1.633   5.060  0.5047  0.5655 -0.5152
    1THF     H7    7   3.211   1.491   5.084 -2.5498  1.2873  0.8108
    1THF     C8    8   3.320   1.665   5.006 -0.8507  0.0945  0.2045
    1THF     C9    9   3.363   1.646   4.862  0.4129  0.3133  0.1416
    1THF    H10   10   3.403   1.651   5.076 -0.5375 -2.0307 -0.5181
    1THF    H11   11   3.286   1.769   5.013  0.0395  0.3676  0.7335
    1THF    H12   12   3.410   1.741   4.837 -0.0600  0.4760 -0.1356
    1THF    H13   13   3.448   1.578   4.851  0.6981  0.8248 -0.9177
    2THF     O1   14   4.193   0.971   3.360  0.3072  0.4618  0.1509
    2THF     C2   15   4.086   0.910   3.437  0.2788  0.1474 -0.2576
    2THF     C3   16   4.149   1.098   3.304 -0.0098 -0.1771  0.1703
    2THF     H4   17   4.115   0.954   3.532 -0.8834 -1.1336  0.7413
    2THF     H5   18   4.083   0.801   3.445  1.1098  0.1456  0.1285
    2THF     H6   19   4.169   1.181   3.371  0.8072  0.1448 -0.4612
    2THF     H7   20   4.182   1.126   3.204  2.8628  0.1121  1.1089
    2THF     C8   21   4.004   1.062   3.276  0.9866 -0.3587  0.4359
    2THF     C9   22   3.955   0.965   3.383  0.2021  0.4286 -0.3788
    2THF    H10   23   3.995   1.016   3.177 -0.6199  1.4319 -0.3306
    2THF    H11   24   3.929   1.141   3.275  1.6512  0.2892  0.8732
    2THF    H12   25   3.907   1.022   3.464  1.2417  0.4114  0.2652
    2THF    H13   26   3.884   0.886   3.355 -1.1313  1.5087 -0.1758
    3THF     O1   27   5.426   4.229   2.459  0.1880  0.1879 -0.5344
    3THF     C2   28   5.456   4.345   2.379 -0.3470  0.2723 -0.6368
    3THF     C3   29   5.396   4.262   2.593  0.2946 -0.2868 -0.4457
    3THF     H4   30   5.375   4.368   2.310  0.6145  0.6434 -1.6693
    3THF     H5   31   5.543   4.330   2.315  0.5208 -0.1357  0.5890
    3THF     H6   32   5.306   4.214   2.632 -1.2418  2.5905 -0.2075
    3THF     H7   33   5.480   4.238   2.658 -0.8451  1.0472  1.6441
    3THF     C8   34   5.389   4.412   2.592 -0.0920  0.0387  0.2460
    3THF     C9   35   5.477   4.455   2.477  0.0177 -0.1311 -0.1197
    3THF    H10   36   5.416   4.457   2.687 -1.5149  1.2535  0.0990
    3THF    H11   37   5.283   4.433   2.578 -0.0900 -0.6791 -0.9848
    3THF    H12   38   5.456   4.552   2.432  2.6795 -0.0592 -1.4080
    3THF    H13   39   5.576   4.452   2.522 -0.0263 -0.7414 -0.0592
    4THF     O1   40   2.691   2.440   1.638 -0.1757 -0.2923 -0.0264
    4THF     C2   41   2.565   2.513   1.633  0.0086 -0.1178 -0.3281
    4THF     C3   42   2.796   2.523   1.580 -0.0331  0.6141 -0.4299
    4THF     H4   43   2.535   2.549   1.732  0.7830  0.0199 -0.1402
    4THF     H5   44   2.483   2.444   1.609 -0.2100 -0.1091  0.3489
    4THF     H6   45   2.878   2.549   1.647  0.9557 -2.9530 -0.0548
    4THF     H7   46   2.838   2.463   1.500 -0.2943  0.3919 -0.4002
    4THF     C8   47   2.730   2.640   1.518 -0.1605 -0.4526 -0.0377
    4THF     C9   48   2.582   2.613   1.525  0.0160  0.2486  0.1280
    4THF    H10   49   2.767   2.656   1.417 -0.0722  2.4449  0.3695
    4THF    H11   50   2.762   2.730   1.569 -0.0935 -1.3529  1.5731
    4THF    H12   51   2.525   2.705   1.533 -0.2765  0.0539  0.2761
    4THF    H13   52   2.553   2.564   1.432 -0.7431 -1.0939  1.0518
    5THF     O1   53   0.547   0.378   0.936  0.2118  0.3335 -0.5411
    5THF     C2   54   0.595   0.430   0.813 -0.1466  0.1986  0.8994
    5THF     C3   55   0.446   0.282   0.896 -0.0240 -0.0773 -0.2305
    5THF     H4   56   0.662   0.357   0.768  0.1109  0.8857  0.1409
    5THF     H5   57   0.655   0.520   0.829 -1.0274  1.0328 -0.3159
    5THF     H6   58   0.507   0.200   0.859 -1.2776 -0.4726 -1.5306
    5THF     H7   59   0.378   0.249   0.975  1.1489 -2.2466 -0.0454
    5THF     C8   60   0.367   0.357   0.788  0.5322  0.2834  0.2558
    5THF     C9   61   0.471   0.456   0.735 -0.0357 -0.0041 -0.1605
    5THF    H10   62   0.289   0.398   0.852  1.8566 -1.1319  2.9674
    5THF    H11   63   0.336   0.279   0.718 -0.1944 -0.4036  1.3226
    5THF    H12   64   0.473   0.450   0.626 -1.7089  2.9944 -0.4774
    5THF    H13   65   0.454   0.562   0.754  1.3475 -0.0134  1.3068
    6THF     O1   66   2.260   2.446   0.591 -0.5774  0.6704 -0.0918
    6THF     C2   67   2.327   2.359   0.512 -0.0893  0.0206 -0.0886
    6THF     C3   68   2.262   2.394   0.723 -0.0096  0.1104 -0.5300
    6THF     H4   69   2.353   2.396   0.413 -0.7639 -0.6745 -0.5364
    6THF     H5   70   2.266   2.273   0.483  2.1666 -1.4975 -0.5789
    6THF     H6   71   2.241   2.453   0.812  2.0648 -0.0110  0.0991
    6THF     H7   72   2.199   2.306   0.715  1.2106 -0.8258 -0.1132
    6THF     C8   73   2.411   2.349   0.734 -0.2777  0.8351  0.1650
    6THF     C9   74   2.458   2.341   0.593 -0.3261  0.0791  0.1999
    6THF    H10   75   2.419   2.250   0.779 -0.6856 -0.2865 -2.0843
    6THF    H11   76   2.454   2.418   0.806  0.9144  0.2552  0.0383
    6THF    H12   77   2.535   2.413   0.564 -1.4975  0.4041 -2.3969
    6THF    H13   78   2.503   2.248   0.558 -0.3671  0.5264 -1.0896
    7THF     O1   79   5.445   5.296   3.717  0.9150 -0.3594 -0.2134
    7THF     C2   80   5.328   5.330   3.788  0.3682 -0.1065  0.0415
    7THF     C3   81   5.492   5.413   3.662  0.3592 -0.1264  0.0357
    7THF     H4   82   5.318   5.267   3.876  3.7790 -0.0776  0.5904
    7THF     H5   83   5.247   5.301   3.721 -0.4568 -1.3812  1.5255
    7THF     H6   84   5.599   5.416   3.640  0.0868 -1.1080 -1.5818
    7THF     H7   85   5.447   5.446   3.568 -2.4050 -2.3036  0.4883
    7THF     C8   86   5.459   5.521   3.758  0.5429 -0.5291 -0.9890
    7THF     C9   87   5.329   5.481   3.822  0.5608 -0.0928  0.0049
    7THF    H10   88   5.446   5.615   3.705 -0.8515 -0.6693 -0.9456
    7THF    H11   89   5.529   5.531   3.841 -2.2984 -0.1070  1.5538
    7THF    H12   90   5.331   5.504   3.928  1.7551 -0.6933  0.1277
    7THF    H13   91   5.245   5.540   3.784  2.7238  2.3960 -1.2406
    8THF     O1   92   0.736   2.778   1.592 -0.2820  0.3617  0.4686
    8THF     C2   93   0.682   2.891   1.522  0.2793 -0.4404 -0.4293
    8THF     C3   94   0.700   2.793   1.725 -0.0878  0.1941 -0.1057
    8THF     H4   95   0.574   2.875   1.511  0.2840 -0.6224 -0.2301
    8THF     H5   96   0.736   2.890   1.427  0.1174 -2.1460 -0.5469
    8THF     H6   97   0.593   2.794   1.745  0.3520 -0.5353  2.5880
    8THF     H7   98   0.752   2.730   1.797 -3.3531  1.4528  3.6995
    8THF     C8   99   0.740   2.936   1.742  0.3206  0.7310 -0.6643
    8THF     C9  100   0.716   3.007   1.606  0.5945  0.5897 -0.0812
    8THF    H10  101   0.847   2.938   1.761  0.0720 -0.2341  0.9942
    8THF    H11  102   0.692   2.972   1.832  2.5457 -0.0505  0.9147
    8THF    H12  103   0.629   3.071   1.621  1.4133  1.3655  1.6653
    8THF    H13  104   0.807   3.060   1.580  3.6797 -2.5796  3.1108
    9THF     O1  105   0.591   4.884   1.218 -0.5042 -0.4024  0.9704
    9THF     C2  106   0.500   4.933   1.122  1.1227 -0.0167  0.0453
    9THF     C3  107   0.514   4.774   1.279 -0.1633  0.1445  0.1713
    9THF     H4  108   0.499   4.862   1.039  0.8246 -1.3876  1.1865
    9THF     H5  109   0.520   5.034   1.087 -1.0722  0.0373 -1.2028
    9THF     H6  110   0.524   4.678   1.228 -1.3610 -0.2558  0.6410
    9THF     H7  111   0.532   4.764   1.386 -0.5697  2.8248  0.5669
    9THF     C8  112   0.367   4.820   1.277 -0.0171 -0.0807 -0.4273
    9THF     C9  113   0.366   4.942   1.189  0.5679 -0.2047 -0.4376
    9THF    H10  114   0.325   4.843   1.375  1.1334 -0.8855  0.2842
    9THF    H11  115   0.305   4.748   1.223  1.0305 -0.9300 -0.5348
    9THF    H12  116   0.292   4.927   1.110  0.2778  0.9379 -0.3970
    9THF    H13  117   0.337   5.037   1.234 -1.0459 -0.6812 -0.4042
   10THF     O1  118   2.385   1.586   4.435 -0.6701 -1.3848  0.5287
   10THF     C2  119   2.375   1.554   4.572  0.7097  0.6447  0.0812
   10THF     C3  120   2.470   1.702   4.424  0.1566 -0.0174 -0.2185
   10THF     H4  121   2.466   1.518   4.620 -1.2049 -2.0246  2.0952
   10THF     H5  122   2.301   1.474   4.584  1.4890  0.1801  2.6245
   10THF     H6  123   2.575   1.681   4.440  0.5210  2.0737  0.3882
   10THF     H7  124   2.467   1.743   4.323  2.3505  1.6715  0.3297
   10THF     C8  125   2.415   1.789   4.530  0.6784  0.1284  0.6067
   10THF     C9  126   2.344   1.696   4.624 -0.0801  0.3141  0.3971
   10THF    H10  127   2.341   1.852   4.481  0.9305 -0.0651 -0.0344
   10THF    H11  128   2.477   1.868   4.573  1.6042  0.4969 -1.3233
   10THF    H12  129   2.376   1.706   4.728  0.1803 -0.9105  0.4513
   10THF    H13  130   2.236   1.713   4.618  0.0241  0.6154 -0.9431
   11THF     O1  131   3.540   4.662   3.288 -0.0933 -0.2248  0.4368
   11THF     C2  132   3.600   4.561   3.210 -0.1622  0.0199 -0.2277
   11THF     C3  133   3.423   4.715   3.224  0.6759  0.2868  0.9693
   11THF     H4  134   3.659   4.488   3.265 -2.6681 -1.1730  1.0322
   11THF     H5  135   3.666   4.611   3.140 -1.1500 -0.4012 -1.5124
   11THF     H6  136   3.353   4.742   3.303 -0.9132  0.5783 -0.4959
   11THF     H7  137   3.437   4.803   3.162 -1.0275  0.6939  1.1308
   11THF     C8  138   3.365   4.589   3.154 -0.7149 -0.7564 -0.7121
   11THF     C9  139   3.475   4.486   3.172 -0.0383  0.1913  0.0437
   11THF    H10  140   3.342   4.611   3.050 -1.9370 -0.4270 -0.3913
   11THF    H11  141   3.270   4.556   3.197 -0.6299 -1.6324 -1.1605
   11THF    H12  142   3.448   4.428   3.260 -0.4567  1.4750  0.7823
   11THF    H13  143   3.490   4.416   3.089  0.9374  0.6818 -0.2080
   12THF     O1  144   2.595   3.940   3.534  0.7224 -0.6930  0.4969
   12THF     C2  145   2.576   4.081   3.518 -0.5840  0.0640  0.3208
   12THF     C3  146   2.726   3.898   3.506  0.1447  0.1130  0.4593
   12THF     H4  147   2.591   4.142   3.607  0.4142 -0.3632  0.4533
   12THF     H5  148   2.482   4.098   3.466 -0.4155  0.6047  0.1820
   12THF     H6  149   2.772   3.827   3.574  0.6070 -2.7764 -2.6028
   12THF     H7  150   2.707   3.842   3.414 -0.5521  1.0361  0.0234
   12THF     C8  151   2.808   4.025   3.481  0.1843 -0.1657  0.0493
   12THF     C9  152   2.700   4.127   3.437  0.1943  0.9114  0.4936
   12THF    H10  153   2.878   4.005   3.400  2.6429 -0.3906  2.1301
   12THF    H11  154   2.866   4.062   3.566  0.7753 -1.0707  0.0464
   12THF    H12  155   2.729   4.231   3.456  0.3472  0.8759  0.4566
   12THF    H13  156   2.674   4.113   3.332  0.0803 -2.4548  0.8908
   13THF     O1  157   3.219   0.002   1.686 -0.5820  0.0027 -0.4494
   13THF     C2  158   3.288   0.042   1.803 -0.0537  0.2138  0.2830
   13THF     C3  159   3.232   0.108   1.597 -0.1404  0.7124  0.2206
   13THF     H4  160   3.395   0.043   1.784 -0.0160  1.8581  0.4075
   13THF     H5  161   3.260  -0.006   1.897  1.4448  1.0178  1.1720
   13THF     H6  162   3.332   0.098   1.556 -0.0545  2.1800  0.0386
   13THF     H7  163   3.164   0.110   1.512  1.6258 -2.5871 -1.4609
   13THF     C8  164   3.222   0.232   1.682 -0.3730 -0.1525 -0.0504
   13THF     C9  165   3.237   0.190   1.824 -0.1103  0.3802 -0.2652
   13THF    H10  166   3.130   0.285   1.660  0.2171  1.2907  0.7995
   13THF    H11  167   3.293   0.313   1.662  0.5737 -0.2338  2.5467
   13THF    H12  168   3.316   0.233   1.885  0.2042  2.6167 -2.1070
   13THF    H13  169   3.136   0.190   1.865 -0.8895  1.5790 -2.0535
   14THF     O1  170   2.170   0.821   3.687 -0.9023  0.0961 -0.3446
   14THF     C2  171   2.219   0.883   3.805 -0.2214  0.0992  0.7010
   14THF     C3  172   2.268   0.849   3.591 -0.2944 -0.1033 -0.2016
   14THF     H4  173   2.171   0.830   3.887 -0.0573  0.5166  1.0689
   14THF     H5  174   2.187   0.987   3.805 -0.0875  0.1466  0.0039
   14THF     H6  175   2.265   0.787   3.501  2.3804 -3.2840  1.7080
   14THF     H7  176   2.247   0.949   3.552  1.1480  0.7348  1.0885
   14THF     C8  177   2.400   0.840   3.657  0.3607  0.7760  0.4844
   14THF     C9  178   2.368   0.868   3.803  0.2120  0.1514 -0.2923
   14THF    H10  179   2.478   0.905   3.617 -2.0744  3.1915 -0.6184
   14THF    H11  180   2.426   0.734   3.650  0.2718  0.7639  0.3325
   14THF    H12  181   2.396   0.784   3.867 -0.8812 -0.7891 -1.0173
   14THF    H13  182   2.417   0.957   3.844  1.1275 -0.7453  0.6534
   15THF     O1  183   1.855   1.486   1.829 -0.0008 -0.3621  0.3176
   15THF     C2  184   1.736   1.561   1.863  0.1719 -0.6794 -0.8366
   15THF     C3  185   1.866   1.377   1.911 -0.6834  0.7187  0.4737
   15THF     H4  186   1.643   1.514   1.833 -0.3811 -2.0976  2.6094
   15THF     H5  187   1.745   1.663   1.826 -2.0778 -0.8234 -1.9244
   15THF     H6  188   1.798   1.293   1.897 -0.7011  0.7274  0.5066
   15THF     H7  189   1.964   1.331   1.904 -0.9858 -0.4002  2.8216
   15THF     C8  190   1.844   1.440   2.050 -0.3800  0.6261 -0.0176
   15THF     C9  191   1.752   1.561   2.010 -1.1061  0.3209  0.1053
   15THF    H10  192   1.930   1.485   2.099 -0.9153 -0.2883  1.8462
   15THF    H11  193   1.796   1.374   2.122 -0.0421  1.0101  0.5623
   15THF    H12  194   1.656   1.552   2.062 -0.1312 -0.4500  1.8726
   15THF    H13  195   1.792   1.660   2.031 -2.2296  0.6509  0.7999
   16THF     O1  196   1.601   2.078   1.752  0.3854  0.1880  0.0050
   16THF     C2  197   1.678   1.997   1.663 -0.9687  0.7088 -0.4477
   16THF     C3  198   1.648   2.060   1.884  0.5693  0.4812  0.7474
   16THF     H4  199   1.686   2.055   1.571 -2.7024  0.6216 -0.6870
   16THF     H5  200   1.638   1.897   1.643  1.2899 -0.4623  0.5540
   16THF     H6  201   1.644   2.161   1.925 -0.4737  0.9558 -0.4426
   16THF     H7  202   1.597   1.988   1.948  1.9914 -1.6034 -0.3578
   16THF     C8  203   1.783   1.997   1.865 -0.1672 -0.3861 -0.4427
   16THF     C9  204   1.813   1.976   1.730 -0.5469  0.2898  0.2050
   16THF    H10  205   1.786   1.908   1.928  2.0226  1.3805  2.1861
   16THF    H11  206   1.850   2.068   1.915 -2.2835 -0.2610  2.4471
   16THF    H12  207   1.892   2.042   1.695 -1.2898  0.8871 -0.3859
   16THF    H13  208   1.862   1.879   1.719  1.1625  0.7760  2.7609
   17THF     O1  209   1.001   5.148   2.025  0.3615  0.2428 -0.3311
   17THF     C2  210   1.091   5.179   2.123 -0.5162  0.1383  0.3116
   17THF     C3  211   1.048   5.035   1.961 -0.1753 -0.0079 -0.3719
   17THF     H4  212   1.082   5.143   2.226 -0.4682  0.5405  0.4581
   17THF     H5  213   1.086   5.286   2.141 -1.2930 -0.0328  1.1974
   17THF     H6  214   1.016   4.948   2.020  0.6142 -0.3880 -0.4972
   17THF     H7  215   0.997   5.022   1.865  0.5269  1.0926 -0.9173
   17THF     C8  216   1.194   5.057   1.945 -0.1894  0.6395  0.0995
   17THF     C9  217   1.226   5.131   2.067 -0.2433  0.6524 -0.2383
   17THF    H10  218   1.229   5.123   1.865  0.2967 -1.2257 -1.2807
   17THF    H11  219   1.260   4.971   1.930 -0.5875  0.3887 -0.2086
   17THF    H12  220   1.281   5.069   2.138  0.6925  0.5361 -1.0489
   17THF    H13  221   1.287   5.218   2.041  0.4236  0.1070 -0.5291
   18THF     O1  222   3.564   2.985   0.684 -0.0979  0.0484  0.1650
   18THF     C2  223   3.452   3.066   0.719  1.0544  0.0112 -0.0264
   18THF     C3  224   3.667   3.083   0.678 -0.0676 -0.3973 -0.5391
   18THF     H4  225   3.435   3.080   0.825 -1.5773 -0.3531 -0.3381
   18THF     H5  226   3.365   3.015   0.677  0.4883  1.1496 -0.2595
   18THF     H6  227   3.706   3.108   0.776  2.0660 -1.0584 -1.1646
   18THF     H7  228   3.756   3.045   0.628  0.1387  1.1885 -1.4361
   18THF     C8  229   3.599   3.192   0.597  0.0192 -0.4624  0.6008
   18THF     C9  230   3.449   3.198   0.639  0.5695  0.5213 -0.6465
   18THF    H10  231   3.609   3.170   0.491  3.4499  2.2670  0.1743
   18THF    H11  232   3.655   3.285   0.584  1.3558 -1.1712  1.0635
   18THF    H12  233   3.410   3.284   0.693  1.2091  1.1608 -1.1875
   18THF    H13  234   3.390   3.193   0.548  0.0893 -0.4952 -0.2933
   19THF     O1  235   4.037   2.864   3.450  0.4415  0.3303 -0.4587
   19THF     C2  236   3.943   2.811   3.357  0.2133 -0.5302 -1.0908
   19THF     C3  237   4.174   2.847   3.403 -0.8005  0.6132  1.1359
   19THF     H4  238   3.910   2.885   3.284  1.1081 -1.1517 -2.1436
   19THF     H5  239   3.854   2.777   3.409 -0.0664 -0.1354 -1.2985
   19THF     H6  240   4.208   2.940   3.357  2.5589 -1.4357 -0.9796
   19THF     H7  241   4.232   2.839   3.494 -1.8808  2.7894  2.1005
   19THF     C8  242   4.167   2.721   3.319 -0.4760  0.3714  0.5281
   19THF     C9  243   4.017   2.696   3.286 -0.0392 -0.1158  0.2827
   19THF    H10  244   4.212   2.643   3.380 -0.9905 -1.2664 -1.0867
   19THF    H11  245   4.226   2.728   3.228 -1.3959 -0.3571 -0.1485
   19THF    H12  246   4.007   2.681   3.179 -0.7720 -3.7739  0.7346
   19THF    H13  247   3.975   2.605   3.328 -0.4294 -0.2024 -0.2985
   20THF     O1  248   0.798   1.088   3.878 -0.0331  0.1815  0.5147
   20THF     C2  249   0.806   0.962   3.937  0.4141 -0.5984 -0.6031
   20THF     C3  250   0.680   1.083   3.798  0.2223  0.1521  0.0315
   20THF     H4  251   0.738   0.951   4.022  4.1965 -1.8802  2.5162
   20THF     H5  252   0.906   0.948   3.977  0.2812  0.0334 -0.0415
   20THF     H6  253   0.594   1.117   3.857 -1.1486 -0.6368 -1.4230
   20THF     H7  254   0.682   1.149   3.711  0.6842  1.2969  0.8801
   20THF     C8  255   0.671   0.947   3.738 -0.1494  0.0787  0.5223
   20THF     C9  256   0.763   0.863   3.827  0.0366 -0.2148  0.7891
   20THF    H10  257   0.701   0.943   3.633  0.0524  0.5465  0.5598
   20THF    H11  258   0.569   0.915   3.758 -0.3238  1.4076  1.9373
   20THF    H12  259   0.715   0.772   3.861  0.3264 -0.3709  0.7814
   20THF    H13  260   0.858   0.847   3.776  0.9627  3.2144  1.1517
   21THF     O1  261   1.506   3.453   0.395 -0.1679 -0.4427 -0.9764
   21THF     C2  262   1.648   3.423   0.390 -0.3584  0.1096  1.0242
   21THF     C3  263   1.480   3.558   0.301  0.1091  0.2429 -0.0453
   21THF     H4  264   1.692   3.371   0.305  1.7915 -1.5652  3.0232
   21THF     H5  265   1.691   3.373   0.477  0.3660  0.4617  0.8751
   21THF     H6  266   1.480   3.524   0.197 -0.4980 -2.8599  0.8723
   21THF     H7  267   1.386   3.610   0.317 -0.3722 -0.2058 -1.2886
   21THF     C8  268   1.606   3.641   0.316  0.1767 -0.1593  0.5192
   21THF     C9  269   1.711   3.554   0.380 -0.2674 -0.5868 -0.2631
   21THF    H10  270   1.586   3.721   0.387 -1.9559  0.7032 -0.9544
   21THF    H11  271   1.639   3.697   0.229 -1.1887 -1.0979 -0.6472
   21THF    H12  272   1.812   3.554   0.340  0.0002  0.4259  0.3539
   21THF    H13  273   1.722   3.583   0.485 -0.9745 -2.3993  0.3671
   22THF     O1  274   2.169   0.252   3.445  0.1765  0.3199 -0.1353
   22THF     C2  275   2.094   0.306   3.544  0.2910 -0.0864 -0.5061
   22THF     C3  276   2.209   0.358   3.359  0.5504 -0.7230  0.0264
   22THF     H4  277   2.097   0.235   3.627  0.3865  0.4293 -0.0687
   22THF     H5  278   1.990   0.316   3.515  0.1300  1.8119  0.6105
   22THF     H6  279   2.291   0.343   3.289  0.4269  1.3580 -0.6451
   22THF     H7  280   2.125   0.372   3.291 -0.8625  0.1428  1.8806
   22THF     C8  281   2.219   0.487   3.452  0.1248 -0.0681  0.1907
   22THF     C9  282   2.157   0.439   3.583  0.3956  0.5488 -0.8931
   22THF    H10  283   2.179   0.574   3.401  1.1457  0.7584  0.7521
   22THF    H11  284   2.326   0.504   3.458  0.1042  0.6091 -1.1510
   22THF    H12  285   2.221   0.430   3.670  0.0700  0.4723 -0.6612
   22THF    H13  286   2.073   0.504   3.609 -0.4961 -0.4808 -1.1605
   23THF     O1  287   3.102   0.542   0.005  0.4498 -0.0480  0.1740
   23THF     C2  288   3.183   0.469   0.092 -0.2959 -0.0772  0.7793
   23THF     C3  289   3.037   0.451  -0.078  0.1218 -0.4282  0.1904
   23THF     H4  290   3.193   0.535   0.179  1.1684 -1.0774  1.4208
   23THF     H5  291   3.277   0.441   0.045 -1.0789 -2.0506  0.3229
   23THF     H6  292   2.946   0.493  -0.121  0.3296 -0.0694  0.1039
   23THF     H7  293   3.105   0.425  -0.159  0.9381  2.6233 -0.2292
   23THF     C8  294   3.008   0.333   0.013 -1.0548 -0.5148  0.0221
   23THF     C9  295   3.115   0.339   0.122  0.4461  0.5620  0.6543
   23THF    H10  296   3.018   0.238  -0.039  3.8433  0.0993 -0.6815
   23THF    H11  297   2.904   0.325   0.044 -0.8786 -2.9055  0.1456
   23THF    H12  298   3.073   0.347   0.223 -0.7510  2.4087  0.0769
   23THF    H13  299   3.187   0.257   0.119 -0.4525 -0.3982  2.8653
   24THF     O1  300   5.066   3.523   2.598  0.3790  0.4440 -0.1449
   24THF     C2  301   5.170   3.451   2.521  0.6708  0.1874  0.2271
   24THF     C3  302   4.983   3.429   2.659  0.2962 -0.2497 -0.1198
   24THF     H4  303   5.251   3.413   2.584 -1.4377  0.1294  3.0884
   24THF     H5  304   5.201   3.514   2.438 -0.5280 -1.5214 -1.6192
   24THF     H6  305   5.028   3.408   2.756 -0.6900  1.9787  0.8881
   24THF     H7  306   4.881   3.458   2.683  0.4057 -0.9158  1.2288
   24THF     C8  307   4.986   3.309   2.570  0.0481  0.4513  0.6528
   24THF     C9  308   5.084   3.340   2.454 -0.1329 -0.5502 -0.4078
   24THF    H10  309   4.888   3.284   2.530  0.2271  0.8520 -0.0517
   24THF    H11  310   5.019   3.223   2.628  1.5359 -0.6313 -1.6514
   24THF    H12  311   5.139   3.252   2.420 -0.2534 -1.0896  0.7594
   24THF    H13  312   5.034   3.382   2.366  3.1824 -0.7982 -2.6175
   25THF     O1  313   4.133   3.931   1.040 -0.5987 -0.0184  0.3814
   25THF     C2  314   4.078   3.825   1.117 -0.3601  0.2368 -0.1005
   25THF     C3  315   4.272   3.932   1.075  0.7483 -0.0269 -0.7362
   25THF     H4  316   3.985   3.788   1.074 -0.9439 -1.1591  2.1992
   25THF     H5  317   4.059   3.863   1.217  2.0089  0.7962  0.1930
   25THF     H6  318   4.337   4.005   1.026  1.6953 -2.0263 -2.6201
   25THF     H7  319   4.280   3.963   1.179  3.3653  1.4202 -1.2883
   25THF     C8  320   4.317   3.795   1.067 -0.4909 -0.0067  0.4280
   25THF     C9  321   4.194   3.724   1.114  0.2810  0.4093 -0.0149
   25THF    H10  322   4.406   3.766   1.121 -1.1556 -1.3328  0.8493
   25THF    H11  323   4.328   3.763   0.963  1.4158 -2.4867  1.3153
   25THF    H12  324   4.172   3.641   1.047 -0.7391 -0.1137  0.9278
   25THF    H13  325   4.196   3.672   1.211  0.3591  0.7734  0.1801
   26THF     O1  326   0.733   3.559   3.626 -0.2919  0.0183 -0.4495
   26THF     C2  327   0.714   3.677   3.552 -0.7737  0.4264  0.4684
   26THF     C3  328   0.854   3.497   3.584 -0.5085 -0.1287 -0.3051
   26THF     H4  329   0.780   3.758   3.584  1.2220 -1.2468  0.7732
   26THF     H5  330   0.609   3.706   3.552 -1.2036 -0.7081  3.6702
   26THF     H6  331   0.936   3.545   3.638 -1.6029  1.0900  0.3200
   26THF     H7  332   0.865   3.390   3.603 -0.7150 -0.4106 -1.6382
   26THF     C8  333   0.875   3.541   3.435  0.5450  0.0426 -0.4795
   26THF     C9  334   0.760   3.628   3.408  0.9433 -0.4118 -0.5362
   26THF    H10  335   0.876   3.461   3.360 -1.5591  0.7791 -1.3530
   26THF    H11  336   0.968   3.596   3.423 -0.6818  1.8928 -2.2008
   26THF    H12  337   0.771   3.710   3.336 -2.3180  3.1104  2.5266
   26THF    H13  338   0.689   3.557   3.365  1.7796 -1.6002 -0.0016
   27THF     O1  339   4.391   4.750   3.067 -0.0068  0.3071  0.4373
   27THF     C2  340   4.388   4.791   3.201 -0.0548  0.0025 -0.7597
   27THF     C3  341   4.327   4.844   2.985  0.6362 -0.2678 -0.2509
   27THF     H4  342   4.439   4.884   3.226 -0.9457 -0.0144  1.2645
   27THF     H5  343   4.428   4.713   3.266  2.0297  0.1815 -1.7192
   27THF     H6  344   4.372   4.944   2.988 -0.7195  0.3410  0.4431
   27THF     H7  345   4.322   4.811   2.881 -1.4369  2.2712 -1.0660
   27THF     C8  346   4.193   4.851   3.060 -0.8331  0.5670 -0.2601
   27THF     C9  347   4.233   4.815   3.207 -0.3003  0.2491  0.2238
   27THF    H10  348   4.119   4.775   3.032 -1.3482  1.0934 -0.3339
   27THF    H11  349   4.146   4.949   3.054  0.1865  0.9675 -2.9283
   27THF    H12  350   4.219   4.903   3.271  1.9020  0.9400 -0.1406
   27THF    H13  351   4.182   4.724   3.237  1.2147 -0.2556  1.4272
   28THF     O1  352   3.684   0.244   1.337 -0.6246 -0.1152 -0.0084
   28THF     C2  353   3.795   0.298   1.420  0.1058  1.0935  0.5768
   28THF     C3  354   3.615   0.161   1.427 -0.0174 -0.1550 -0.8993
   28THF     H4  355   3.821   0.398   1.384 -0.6295  0.6912 -1.1614
   28THF     H5  356   3.880   0.232   1.405 -0.2550  0.7276  0.1255
   28THF     H6  357   3.519   0.118   1.399 -1.4324  0.0637  2.9626
   28THF     H7  358   3.681   0.076   1.440  2.0629  1.6615  1.5395
   28THF     C8  359   3.614   0.234   1.563  0.4468 -1.0499  0.0243
   28THF     C9  360   3.751   0.297   1.566  0.1317  0.8318 -0.9139
   28THF    H10  361   3.618   0.163   1.645 -0.1355 -0.0953  0.8943
   28THF    H11  362   3.535   0.309   1.565  2.3158  1.1030 -1.3863
   28THF    H12  363   3.750   0.399   1.604 -2.5401 -0.2570  2.5173
   28THF    H13  364   3.818   0.240   1.631 -1.6257  0.7210  0.8897
   29THF     O1  365   0.023   2.315   1.551  0.1826 -0.3561 -0.7926
   29THF     C2  366   0.021   2.232   1.667 -0.9488  0.2558  0.2368
   29THF     C3  367  -0.042   2.431   1.586 -0.0425 -0.3500 -0.0606
   29THF     H4  368   0.104   2.161   1.661 -1.6320 -0.4668 -1.2223
   29THF     H5  369  -0.070   2.172   1.668 -1.2309  0.6590 -0.3284
   29THF     H6  370  -0.030   2.518   1.521 -2.0261  0.7065  0.9012
   29THF     H7  371  -0.149   2.415   1.576 -0.2154  1.1657 -1.0210
   29THF     C8  372  -0.019   2.453   1.736  0.0187  0.1660 -0.7124
   29THF     C9  373   0.045   2.329   1.782  0.4418  0.4031  0.0194
   29THF    H10  374  -0.113   2.481   1.782 -0.4082 -0.7687 -1.0010
   29THF    H11  375   0.056   2.532   1.745 -1.2842  1.8971 -3.5485
   29THF    H12  376   0.152   2.346   1.794  0.2608  0.9236  0.9637
   29THF    H13  377   0.006   2.289   1.876 -1.3664 -0.1608 -0.9260
   30THF     O1  378   2.982   1.039   3.969  0.1422 -0.3668 -0.1192
   30THF     C2  379   3.114   1.000   3.925  0.3092  0.0088  0.5038
   30THF     C3  380   2.988   1.150   4.057 -0.5538  0.5648  1.1710
   30THF     H4  381   3.163   1.069   3.858  0.8903  0.2616  1.1762
   30THF     H5  382   3.099   0.904   3.875  1.8183  0.1634 -0.2916
   30THF     H6  383   2.994   1.240   3.996 -1.4646  0.0343  0.2770
   30THF     H7  384   2.902   1.143   4.124  0.0204  0.9841  1.9672
   30THF     C8  385   3.118   1.115   4.133 -0.3529  0.2479 -0.4293
   30THF     C9  386   3.182   0.997   4.065 -0.0110  0.5685  0.1857
   30THF    H10  387   3.095   1.092   4.237  2.4228  0.8766  0.4158
   30THF    H11  388   3.178   1.205   4.131 -1.3490  0.9253 -0.3710
   30THF    H12  389   3.289   0.979   4.071 -0.1780 -0.4007  0.4240
   30THF    H13  390   3.148   0.907   4.117  1.3713  0.2669  0.6157
   31THF     O1  391   4.994   3.993   0.386 -0.1290 -0.1770  0.5423
   31THF     C2  392   4.937   3.949   0.511  0.1300  0.5506 -0.2631
   31THF     C3  393   5.101   3.899   0.356 -0.0723  0.4146  0.1657
   31THF     H4  394   4.850   4.011   0.531  0.5905  1.3840 -0.7848
   31THF     H5  395   5.011   3.976   0.586  1.3423 -1.6999 -0.5592
   31THF     H6  396   5.126   3.910   0.250 -2.7986  0.4317 -0.5637
   31THF     H7  397   5.190   3.930   0.411  0.2763  1.6413 -1.0500
   31THF     C8  398   5.044   3.766   0.403  0.3208  0.3148 -0.4190
   31THF     C9  399   4.929   3.802   0.491  0.9228 -0.3936  0.0384
   31THF    H10  400   5.123   3.719   0.462  0.4266  1.5767  0.4921
   31THF    H11  401   5.022   3.709   0.313  1.5311  0.5529 -0.8816
   31THF    H12  402   4.837   3.777   0.438 -0.2794 -0.0876  1.8897
   31THF    H13  403   4.931   3.755   0.589  1.1321  0.7924  0.6111
   32THF     O1  404   2.132   2.574   3.701  0.2433  0.1406 -0.1008
   32THF     C2  405   2.078   2.697   3.747 -0.4787 -0.1559 -1.1779
   32THF     C3  406   2.106   2.479   3.800  0.2433 -0.6133 -0.2491
   32THF     H4  407   2.057   2.771   3.671 -0.0592  1.2053 -0.0090
   32THF     H5  408   2.151   2.738   3.817 -1.1060 -1.3129  0.2275
   32THF     H6  409   2.084   2.384   3.751 -2.3097  1.4168 -3.5208
   32THF     H7  410   2.200   2.467   3.854 -0.7271 -1.5246  1.3117
   32THF     C8  411   2.000   2.525   3.898 -0.1590  0.4312  1.0371
   32THF     C9  412   1.950   2.655   3.830 -0.1334 -0.2805 -0.4932
   32THF    H10  413   2.046   2.530   3.996  3.1130 -0.0369 -0.3729
   32THF    H11  414   1.918   2.453   3.903 -1.6758  1.8538 -1.1694
   32THF    H12  415   1.865   2.636   3.764 -1.3075  0.2640  0.7995
   32THF    H13  416   1.918   2.729   3.903 -0.0316 -0.5316 -0.1930
   33THF     O1  417   1.947   0.511   2.132  0.1985  0.1948 -0.0099
   33THF     C2  418   1.878   0.529   2.249  0.1531 -0.1947  0.2576
   33THF     C3  419   1.858   0.528   2.020  0.4327 -0.4960 -0.6646
   33THF     H4  420   1.942   0.545   2.336  0.3350 -3.4996  0.8896
   33THF     H5  421   1.815   0.441   2.262 -0.0046 -1.0273 -4.4617
   33THF     H6  422   1.931   0.540   1.940  1.4510 -3.1102 -0.2195
   33THF     H7  423   1.807   0.436   1.990 -2.7171  1.0781 -0.6066
   33THF     C8  424   1.763   0.634   2.065  0.4434 -0.7560  1.0620
   33THF     C9  425   1.801   0.656   2.214  0.0011 -0.4910  0.5130
   33THF    H10  426   1.664   0.588   2.055  0.7656 -0.9973 -1.6695
   33THF    H11  427   1.774   0.728   2.012  0.3623 -1.3031  0.0342
   33THF    H12  428   1.867   0.742   2.217  3.3941 -2.9029  1.0227
   33THF    H13  429   1.723   0.693   2.280  1.0848  2.5306  0.2295
   34THF     O1  430   4.998   4.498   3.789 -0.4473 -0.2532 -0.5679
   34THF     C2  431   4.911   4.401   3.841  0.1358 -0.0159 -0.4320
   34THF     C3  432   4.975   4.510   3.652 -0.3678  0.0884  0.0853
   34THF     H4  433   4.822   4.442   3.889 -0.8121 -0.7425 -1.5098
   34THF     H5  434   4.963   4.346   3.920 -0.3898 -2.1027 -1.4522
   34THF     H6  435   4.892   4.576   3.628  0.7564  0.4910 -3.2741
   34THF     H7  436   5.056   4.561   3.600  0.2554 -0.2154  0.7307
   34THF     C8  437   4.950   4.364   3.615  0.6173 -0.3556  0.3428
   34THF     C9  438   4.875   4.303   3.730  0.6190  0.0447  0.8763
   34THF    H10  439   5.043   4.309   3.605 -0.3458 -1.6678 -2.1262
   34THF    H11  440   4.908   4.356   3.515  1.4848  1.4086 -0.2119
   34THF    H12  441   4.768   4.306   3.713  0.7389  2.0783  0.2449
   34THF    H13  442   4.908   4.199   3.742  1.9907  0.6479  3.0462
   35THF     O1  443   0.604   3.036   1.263  0.8143  0.3424 -0.9661
   35THF     C2  444   0.639   3.128   1.157 -0.0725 -0.2244 -0.1391
   35THF     C3  445   0.463   3.023   1.267 -0.2849 -0.0053 -0.3866
   35THF     H4  446   0.608   3.074   1.068 -1.5322  1.9419 -1.0241
   35THF     H5  447   0.743   3.158   1.144  0.6663 -1.6106  2.1383
   35THF     H6  448   0.446   2.963   1.177 -0.2000  0.6522 -0.8554
   35THF     H7  449   0.435   2.986   1.365  1.7401 -2.2947 -0.5752
   35THF     C8  450   0.419   3.164   1.241  0.4086 -0.7444  0.6350
   35THF     C9  451   0.536   3.242   1.177  0.4663 -0.2329  0.4276
   35THF    H10  452   0.383   3.224   1.325 -0.4525 -0.3209 -0.0209
   35THF    H11  453   0.337   3.156   1.170  0.6689  0.8363  0.1298
   35THF    H12  454   0.510   3.294   1.085  1.0417 -1.4055 -0.4113
   35THF    H13  455   0.569   3.315   1.251 -2.0340  0.7037  0.7186
   36THF     O1  456   4.917   4.763   0.523 -0.1868 -0.0679  0.1165
   36THF     C2  457   4.855   4.741   0.650  0.4139  0.3717 -1.3678
   36THF     C3  458   5.049   4.806   0.542 -0.2227  0.5611 -0.3376
   36THF     H4  459   4.873   4.639   0.682 -0.5891 -0.3913 -3.0700
   36THF     H5  460   4.747   4.747   0.634  0.1189 -1.5276 -0.3029
   36THF     H6  461   5.119   4.737   0.495 -1.2722 -0.5801 -0.2713
   36THF     H7  462   5.068   4.893   0.479 -0.2582  1.2200  0.5476
   36THF     C8  463   5.062   4.836   0.695  0.7091 -0.0177  0.3018
   36THF     C9  464   4.917   4.842   0.745  0.1573 -0.0670  0.3952
   36THF    H10  465   5.128   4.919   0.721  2.2360 -0.9404 -0.4920
   36THF    H11  466   5.106   4.747   0.740  0.2675 -0.4426 -0.1023
   36THF    H12  467   4.915   4.814   0.850 -0.8247  1.9416  0.9645
   36THF    H13  468   4.866   4.936   0.724 -0.0496 -0.4757 -1.1050
   37THF     O1  469   3.409   3.634   4.907  0.0028 -0.0508 -0.0765
   37THF     C2  470   3.445   3.615   4.774  0.0240 -0.4851  0.4603
   37THF     C3  471   3.465   3.515   4.976  0.6881 -0.6095 -0.0623
   37THF     H4  472   3.433   3.711   4.726 -1.0870 -1.5060 -1.4266
   37THF     H5  473   3.370   3.548   4.731 -2.7787  3.1893 -0.8478
   37THF     H6  474   3.474   3.546   5.080  2.0307  0.9243 -0.5872
   37THF     H7  475   3.394   3.432   4.973  2.0727 -1.8361 -0.0954
   37THF     C8  476   3.604   3.497   4.909  0.3877 -0.1048 -0.0347
   37THF     C9  477   3.586   3.554   4.768  0.6645 -0.5157 -0.0169
   37THF    H10  478   3.626   3.390   4.906 -0.7382 -0.3348 -0.4379
   37THF    H11  479   3.689   3.549   4.954 -0.7585  0.8780  1.0918
   37THF    H12  480   3.659   3.630   4.741  2.8590 -2.7066 -0.6897
   37THF    H13  481   3.590   3.480   4.688 -0.1201 -0.1359 -0.4096
   38THF     O1  482   4.990   2.149   1.654  0.0998  0.0926 -0.1252
   38THF     C2  483   5.060   2.259   1.600 -0.5531  0.3190 -0.5841
   38THF     C3  484   5.061   2.030   1.624  0.7040  0.1027 -0.5298
   38THF     H4  485   5.138   2.290   1.669  0.9130 -1.1944 -1.4987
   38THF     H5  486   4.996   2.344   1.574 -1.0742 -0.0052 -0.3703
   38THF     H6  487   5.136   2.025   1.703 -0.7300  1.4071  0.9859
   38THF     H7  488   5.008   1.934   1.624 -0.6953  0.8275  0.7069
   38THF     C8  489   5.118   2.054   1.488  0.3392 -0.5101  0.1384
   38THF     C9  490   5.132   2.208   1.478  0.3396  0.6345  0.4867
   38THF    H10  491   5.055   2.008   1.412  1.2371 -0.6671 -0.5301
   38THF    H11  492   5.211   1.998   1.481  0.3990 -0.6618  1.7302
   38THF    H12  493   5.238   2.230   1.462  0.4013  0.1043  0.1375
   38THF    H13  494   5.075   2.226   1.387 -0.3220 -1.6133  0.4033
   39THF     O1  495   2.614   1.391   2.473  0.1473  0.3555  0.5774
   39THF     C2  496   2.679   1.274   2.423 -0.3564  0.2928  0.0458
   39THF     C3  497   2.473   1.360   2.491 -0.6771  0.1747 -0.1481
   39THF     H4  498   2.787   1.275   2.440 -0.2112 -0.4433 -0.7823
   39THF     H5  499   2.654   1.262   2.318 -0.0625  0.2722 -0.0210
   39THF     H6  500   2.426   1.419   2.570 -0.3888  0.5895 -0.2817
   39THF     H7  501   2.426   1.395   2.399 -1.9299  0.8288  0.7114
   39THF     C8  502   2.472   1.214   2.525  0.3675  0.0865  0.4410
   39THF     C9  503   2.617   1.170   2.519 -1.0769  0.5878 -0.2908
   39THF    H10  504   2.405   1.164   2.455 -1.1669  0.9999  1.2049
   39THF    H11  505   2.429   1.193   2.623  0.1890 -0.3273  0.2755
   39THF    H12  506   2.674   1.174   2.612  1.6525 -0.4568 -1.7859
   39THF    H13  507   2.629   1.065   2.491  0.4398 -0.4076  3.4483
   40THF     O1  508   1.226   1.382   1.468  0.0797  0.4053  0.2535
   40THF     C2  509   1.272   1.299   1.578  0.5498 -0.1872  0.0055
   40THF     C3  510   1.318   1.480   1.443 -0.1590  0.1805 -0.3878
   40THF     H4  511   1.327   1.209   1.550 -0.3265 -0.5026 -0.7094
   40THF     H5  512   1.183   1.271   1.634 -0.4590 -1.6085 -2.1989
   40THF     H6  513   1.369   1.463   1.348 -1.4120 -1.1905 -0.8395
   40THF     H7  514   1.255   1.569   1.443 -0.4884 -0.0492 -1.0633
   40THF     C8  515   1.422   1.495   1.548 -0.0519  0.6592  0.5874
   40THF     C9  516   1.373   1.394   1.648  0.9178 -0.2042 -0.0133
   40THF    H10  517   1.421   1.595   1.590  1.4798 -0.0223  2.3925
   40THF    H11  518   1.520   1.470   1.508 -0.8963 -1.5739 -0.2325
   40THF    H12  519   1.439   1.351   1.723 -0.0115  0.5923  1.2990
   40THF    H13  520   1.316   1.452   1.720  2.8298  2.1312 -0.2573
   41THF     O1  521   3.424   0.134   0.710 -0.2873 -0.2753  0.1801
   41THF     C2  522   3.310   0.214   0.672 -0.4931 -0.1430  0.3379
   41THF     C3  523   3.540   0.216   0.733 -0.0199  0.1280  0.0410
   41THF     H4  524   3.233   0.203   0.748 -1.2538  1.4150 -0.1702
   41THF     H5  525   3.256   0.183   0.583 -0.7274  1.1343  0.0163
   41THF     H6  526   3.611   0.191   0.812 -0.3340 -0.3100  0.1888
   41THF     H7  527   3.590   0.223   0.637  0.5653 -3.1860  0.0033
   41THF     C8  528   3.484   0.352   0.762 -0.3708  0.1393  0.2623
   41THF     C9  529   3.359   0.358   0.678  0.4662 -0.3365  0.6267
   41THF    H10  530   3.561   0.427   0.744 -0.8711  0.2397 -1.7588
   41THF    H11  531   3.454   0.359   0.866 -0.2063 -3.3143  0.6519
   41THF    H12  532   3.281   0.422   0.718 -1.5814 -2.2790 -0.0623
   41THF    H13  533   3.379   0.382   0.573 -0.0654 -2.9365 -0.1574
   42THF     O1  534   1.210   4.748   2.442  0.2896 -0.1387  0.1918
   42THF     C2  535   1.225   4.812   2.312 -0.3086 -0.1189 -0.2918
   42THF     C3  536   1.268   4.627   2.434  0.2051 -0.3695 -0.2959
   42THF     H4  537   1.323   4.858   2.307 -1.1050  1.8538  0.9090
   42THF     H5  538   1.152   4.893   2.301 -1.9459 -1.3178  1.1422
   42THF     H6  539   1.376   4.641   2.428  0.2331  0.2688  1.3901
   42THF     H7  540   1.230   4.559   2.510 -2.0664  1.0672 -0.0511
   42THF     C8  541   1.213   4.578   2.299 -0.6408  0.0926  0.2015
   42THF     C9  542   1.198   4.703   2.210  0.7076 -0.6175  0.3247
   42THF    H10  543   1.114   4.532   2.300  0.0344 -1.4747 -1.3619
   42THF    H11  544   1.273   4.504   2.246 -0.5733  0.2749  0.0236
   42THF    H12  545   1.273   4.699   2.131  0.7670  2.7850  0.0830
   42THF    H13  546   1.100   4.710   2.163  0.3668  1.7275  1.2267
   43THF     O1  547   0.091   1.453   2.022 -0.0218  0.0011  0.2561
   43THF     C2  548   0.193   1.522   1.948  0.2427  0.3421 -0.2791
   43THF     C3  549   0.157   1.424   2.139  0.2899 -1.2591 -0.1981
   43THF     H4  550   0.214   1.621   1.990  3.2909 -0.6998  0.9056
   43THF     H5  551   0.172   1.524   1.841  2.3365  1.9449 -0.7301
   43THF     H6  552   0.192   1.512   2.194  1.1544 -1.6768 -0.0791
   43THF     H7  553   0.106   1.354   2.206  1.7511 -0.4354  1.8971
   43THF     C8  554   0.286   1.361   2.088 -0.1403 -0.6074  0.5498
   43THF     C9  555   0.312   1.437   1.962 -0.7150 -0.0768  0.5315
   43THF    H10  556   0.272   1.257   2.060 -3.3178 -0.1987  0.1800
   43THF    H11  557   0.365   1.375   2.162  0.3672 -2.0393  0.3140
   43THF    H12  558   0.404   1.497   1.961 -0.2227 -0.6417 -3.2284
   43THF    H13  559   0.317   1.368   1.878  2.1035  1.3078 -0.6020
   44THF     O1  560   3.592   0.770   2.589  0.3267  0.4421 -0.2704
   44THF     C2  561   3.695   0.703   2.663 -0.6324 -0.0940  0.3026
   44THF     C3  562   3.628   0.788   2.450 -0.3423 -0.3938  0.1953
   44THF     H4  563   3.662   0.610   2.709  0.1744 -0.8048 -0.5306
   44THF     H5  564   3.745   0.771   2.732  0.0477 -0.5178  0.2313
   44THF     H6  565   3.584   0.719   2.378  0.1205  0.2559 -0.7457
   44THF     H7  566   3.595   0.887   2.419  3.8143  0.7349 -1.3119
   44THF     C8  567   3.780   0.780   2.453 -0.8807  0.1896 -0.9968
   44THF     C9  568   3.800   0.669   2.553 -0.2156 -0.5203 -0.1169
   44THF    H10  569   3.818   0.872   2.496  2.6397 -1.4639 -0.1841
   44THF    H11  570   3.827   0.749   2.360 -2.0459  1.2992 -1.9934
   44THF    H12  571   3.780   0.577   2.498  0.2110 -1.2273  0.8845
   44THF    H13  572   3.901   0.680   2.594 -0.1123 -0.3094 -0.4208
   45THF     O1  573   2.198   1.266   4.183  0.0988  0.0977  0.9150
   45THF     C2  574   2.137   1.144   4.217 -0.7169  0.1189 -0.4728
   45THF     C3  575   2.317   1.276   4.260 -0.2602 -0.7754 -0.0901
   45THF     H4  576   2.183   1.063   4.160 -1.5124 -0.5421 -0.2007
   45THF     H5  577   2.036   1.143   4.175 -1.1363  2.7294  0.3278
   45THF     H6  578   2.396   1.211   4.222 -0.1366 -0.2368 -0.7737
   45THF     H7  579   2.347   1.380   4.270 -3.2365 -0.0084  2.2989
   45THF     C8  580   2.276   1.222   4.394  0.9590  0.9749 -0.0480
   45THF     C9  581   2.153   1.129   4.370  0.0324 -0.5591  0.0602
   45THF    H10  582   2.246   1.309   4.453  1.0118  1.2264 -0.3839
   45THF    H11  583   2.349   1.159   4.443  0.1236 -1.1343 -1.3494
   45THF    H12  584   2.167   1.024   4.397  0.3806  0.0025  2.2149
   45THF    H13  585   2.067   1.157   4.431 -1.0760 -2.5602 -0.4796
   46THF     O1  586   3.810   5.338   1.053 -0.4388  0.2841 -0.3114
   46THF     C2  587   3.817   5.462   1.131 -0.8599  0.0119  0.6953
   46THF     C3  588   3.933   5.267   1.052 -0.2948 -0.6150 -0.3287
   46THF     H4  589   3.799   5.454   1.238 -0.2485  1.3451  0.9167
   46THF     H5  590   3.752   5.541   1.091  2.5730  3.5851  1.4719
   46THF     H6  591   3.936   5.217   1.149  1.7786 -0.9564 -0.5190
   46THF     H7  592   3.932   5.193   0.973 -0.2376 -0.8568 -0.1040
   46THF     C8  593   4.036   5.376   1.044  0.0027 -0.5229 -0.0337
   46THF     C9  594   3.960   5.498   1.095 -0.1266  0.4606 -0.4885
   46THF    H10  595   4.074   5.379   0.942 -0.9248 -2.5028 -0.4921
   46THF    H11  596   4.118   5.343   1.107  1.0508  3.0106  0.6957
   46THF    H12  597   4.016   5.549   1.174 -2.1421 -1.8053  2.6537
   46THF    H13  598   3.943   5.572   1.017  0.3441  0.5133 -0.5440
   47THF     O1  599   4.256   0.971   2.362 -0.9228 -0.2143 -0.3382
   47THF     C2  600   4.288   0.938   2.229 -0.6282 -0.5265 -0.3038
   47THF     C3  601   4.131   0.915   2.388  0.4461  0.9396 -0.6543
   47THF     H4  602   4.397   0.935   2.232 -0.6402 -0.1118  2.2531
   47THF     H5  603   4.247   1.010   2.158 -2.2018 -0.9939  0.1007
   47THF     H6  604   4.132   0.906   2.496  2.5462 -1.0152 -0.7518
   47THF     H7  605   4.048   0.976   2.353 -0.1862  1.0409  0.9707
   47THF     C8  606   4.135   0.776   2.327  0.2104  0.6449  0.0436
   47THF     C9  607   4.236   0.793   2.214 -0.3754 -0.6543 -0.1048
   47THF    H10  608   4.036   0.745   2.295  0.7922  1.9855 -3.4282
   47THF    H11  609   4.168   0.704   2.402 -1.8946 -0.9152 -0.4743
   47THF    H12  610   4.314   0.722   2.240  0.8114  0.3329 -0.8553
   47THF    H13  611   4.201   0.759   2.117 -0.6029 -0.9930  0.0931
   48THF     O1  612   1.000   3.432   4.361 -0.2517 -0.2963 -0.5043
   48THF     C2  613   0.942   3.418   4.495 -0.3406 -0.4045 -0.0781
   48THF     C3  614   1.121   3.498   4.374 -1.3197 -0.1075 -0.0300
   48THF     H4  615   0.868   3.338   4.506 -1.0423  0.4354  1.7180
   48THF     H5  616   0.902   3.514   4.527 -3.0287 -1.0833 -1.0735
   48THF     H6  617   1.183   3.456   4.294 -0.4604 -1.9042  1.4857
   48THF     H7  618   1.113   3.606   4.363  1.8787  0.5897  2.6622
   48THF     C8  619   1.178   3.455   4.508 -0.1486 -0.0785 -0.1576
   48THF     C9  620   1.067   3.385   4.578  0.5964  1.0256  0.5052
   48THF    H10  621   1.214   3.546   4.556 -1.9106 -0.7582  2.6896
   48THF    H11  622   1.261   3.386   4.491  0.5263  1.1912 -2.4934
   48THF    H12  623   1.066   3.278   4.559 -3.1066  1.0875 -0.4798
   48THF    H13  624   1.057   3.405   4.684  0.2389  1.0405  0.4709
   49THF     O1  625   0.585   3.760   3.096  0.1433 -0.1034  0.1707
   49THF     C2  626   0.620   3.644   3.008  0.6180 -0.0912  0.1844
   49THF     C3  627   0.470   3.811   3.035 -0.6086 -0.2646  0.3667
   49THF     H4  628   0.541   3.570   3.024 -0.4777  1.4053  2.0722
   49THF     H5  629   0.712   3.601   3.048 -0.1602 -0.6875  1.3737
   49THF     H6  630   0.382   3.748   3.048  0.1496 -1.0832  1.8240
   49THF     H7  631   0.452   3.911   3.073  0.8744  0.9185 -1.8379
   49THF     C8  632   0.497   3.805   2.881  0.1814  0.2307 -0.6437
   49THF     C9  633   0.611   3.705   2.863  0.4134 -0.4295  0.3451
   49THF    H10  634   0.534   3.899   2.840  0.5939 -0.5394 -2.1368
   49THF    H11  635   0.407   3.765   2.833  0.6084 -0.9684 -0.4750
   49THF    H12  636   0.580   3.630   2.790  2.1078  0.0383 -0.9174
   49THF    H13  637   0.702   3.757   2.835  1.5156 -0.4107  3.5358
   50THF     O1  638   0.056   2.298   0.336 -0.1306 -0.4363 -0.3994
   50THF     C2  639   0.061   2.438   0.338 -0.2625  0.6088 -0.2994
   50THF     C3  640  -0.062   2.240   0.395 -0.3221  0.7010  0.3548
   50THF     H4  641   0.086   2.477   0.239  0.1150  2.2543  0.4088
   50THF     H5  642   0.144   2.471   0.399 -0.8275  0.5085  0.5504
   50THF     H6  643  -0.109   2.159   0.338  1.3246  1.3167 -2.0412
   50THF     H7  644  -0.037   2.207   0.495  1.3042  1.3431  0.1857
   50THF     C8  645  -0.162   2.350   0.405  0.3638  0.1143  0.0112
   50THF     C9  646  -0.077   2.474   0.402 -0.4087 -0.4799 -0.0536
   50THF    H10  647  -0.209   2.339   0.502  0.7703 -1.7330  0.0212
   50THF    H11  648  -0.244   2.345   0.334 -0.3362  3.5371  0.4143
   50THF    H12  649  -0.113   2.562   0.350  1.3556  1.2196  1.4484
   50THF    H13  650  -0.064   2.519   0.501  4.2351  0.1580 -0.7329
   51THF     O1  651   4.126   4.924   4.343 -0.6348  0.3818 -0.7309
   51THF     C2  652   4.255   4.975   4.305 -0.4242 -0.6530  0.6397
   51THF     C3  653   4.143   4.797   4.405 -0.3554 -0.0627  0.3126
   51THF     H4  654   4.268   5.082   4.321  0.5938 -0.2592 -2.2294
   51THF     H5  655   4.265   4.961   4.197  0.8811  0.8358  0.5297
   51THF     H6  656   4.120   4.814   4.510  1.0811  1.5671  0.4137
   51THF     H7  657   4.082   4.723   4.353  0.2385 -0.0456 -0.4303
   51THF     C8  658   4.290   4.762   4.395  0.7632 -0.3986 -0.1032
   51THF     C9  659   4.351   4.898   4.387 -0.1318  0.2336 -1.1095
   51THF    H10  660   4.316   4.701   4.308 -1.3044 -0.5735 -0.6518
   51THF    H11  661   4.329   4.710   4.483  0.4881 -1.6439 -0.6925
   51THF    H12  662   4.358   4.933   4.491  1.6424 -3.3047  0.0952
   51THF    H13  663   4.453   4.901   4.350  0.1864 -0.1730 -0.2954
   52THF     O1  664   4.630   4.804   1.347 -0.2478 -0.8606  0.3451
   52THF     C2  665   4.564   4.878   1.449  0.1966  0.4892  0.3198
   52THF     C3  666   4.624   4.895   1.236 -0.2360 -0.1352 -0.1729
   52THF     H4  667   4.586   4.835   1.547 -2.7963  0.1256  0.9564
   52THF     H5  668   4.457   4.879   1.425  0.3781 -1.7787 -0.8062
   52THF     H6  669   4.682   4.845   1.159 -0.0798 -1.3453  0.7016
   52THF     H7  670   4.524   4.915   1.196  0.2513 -1.6868 -2.3677
   52THF     C8  671   4.676   5.016   1.297 -0.3250  0.2664 -0.0594
   52THF     C9  672   4.617   5.022   1.438  0.1034  0.4495 -0.0057
   52THF    H10  673   4.652   5.104   1.237 -1.7034 -0.1764 -0.1902
   52THF    H11  674   4.783   4.999   1.293 -0.6681 -2.1642 -1.3291
   52THF    H12  675   4.695   5.027   1.514 -0.6269  1.6307  0.6735
   52THF    H13  676   4.547   5.104   1.442  1.2236  1.3872  1.7821
   53THF     O1  677   3.594   4.599   3.746 -0.2128 -0.3681 -0.1531
   53THF     C2  678   3.644   4.719   3.685 -0.1652 -0.3068  0.5124
   53THF     C3  679   3.463   4.618   3.801 -0.2312 -0.5723 -0.0323
   53THF     H4  680   3.731   4.705   3.621  1.4707  1.1827  2.2987
   53THF     H5  681   3.669   4.786   3.766  0.8973  0.5844 -0.5204
   53THF     H6  682   3.427   4.516   3.811  0.9969 -1.1724 -1.5041
   53THF     H7  683   3.471   4.656   3.903  0.8437  0.8764 -0.6296
   53THF     C8  684   3.401   4.715   3.704 -0.6981  0.2255 -0.1739
   53THF     C9  685   3.515   4.763   3.613  0.3365  0.4273  0.7348
   53THF    H10  686   3.358   4.802   3.754 -0.6790 -0.4056  0.9606
   53THF    H11  687   3.326   4.666   3.642 -0.1027 -0.9666  0.0310
   53THF    H12  688   3.509   4.699   3.524 -1.8234  2.0591 -0.4026
   53THF    H13  689   3.519   4.863   3.571 -0.1713  0.2111  0.1383
   54THF     O1  690   4.664   3.312   5.171 -0.1248  0.2976 -0.3427
   54THF     C2  691   4.618   3.430   5.101  0.6571 -0.5511 -0.5016
   54THF     C3  692   4.806   3.321   5.152 -0.1422 -0.5819 -0.9681
   54THF     H4  693   4.633   3.503   5.181 -0.8386 -1.1383  0.3626
   54THF     H5  694   4.513   3.420   5.074  0.0497 -1.1081  1.8470
   54THF     H6  695   4.845   3.405   5.209 -0.6417 -0.0309 -1.4126
   54THF     H7  696   4.860   3.231   5.182 -0.9845 -0.8809 -0.2941
   54THF     C8  697   4.821   3.355   5.011  0.7331  0.3640  0.2083
   54THF     C9  698   4.715   3.455   4.986  0.1176 -0.6920 -0.3535
   54THF    H10  699   4.800   3.271   4.944  1.6273  1.3295 -1.3461
   54THF    H11  700   4.920   3.391   4.984  0.4999  1.9608  1.3810
   54THF    H12  701   4.750   3.558   4.987 -3.3443  0.6394 -0.3337
   54THF    H13  702   4.669   3.432   4.889  0.3701  1.0366 -0.9152
   55THF     O1  703   5.484   1.251   0.519 -0.7321  0.8265  0.2788
   55THF     C2  704   5.357   1.262   0.583 -0.8316 -0.5624 -0.3231
   55THF     C3  705   5.508   1.105   0.506  0.2939  0.9475  0.2595
   55THF     H4  706   5.306   1.355   0.560  0.1327  0.3067  0.8774
   55THF     H5  707   5.379   1.255   0.690 -2.1902  0.4482  0.0549
   55THF     H6  708   5.579   1.079   0.428 -0.5311  0.6060 -0.3915
   55THF     H7  709   5.564   1.082   0.596  1.1765 -0.4808 -0.6227
   55THF     C8  710   5.374   1.035   0.499 -0.3244 -0.0845 -0.0387
   55THF     C9  711   5.276   1.142   0.541  0.5035  0.5133  0.0695
   55THF    H10  712   5.384   0.956   0.573  1.1740 -0.5574 -0.7088
   55THF    H11  713   5.349   0.992   0.402  0.7259 -3.1204  0.9105
   55THF    H12  714   5.210   1.160   0.456 -1.1039 -1.4287  0.8308
   55THF    H13  715   5.215   1.106   0.624  1.6385 -1.3554  0.1368
   56THF     O1  716   2.622   0.631   5.368  0.2750 -0.0894  0.2294
   56THF     C2  717   2.644   0.760   5.425 -1.3911  0.3025 -0.4076
   56THF     C3  718   2.572   0.551   5.480 -0.5407 -0.8782 -0.2802
   56THF     H4  719   2.546   0.798   5.454 -2.0430 -1.4455 -0.1818
   56THF     H5  720   2.679   0.832   5.351  1.3364  0.6956  1.1514
   56THF     H6  721   2.473   0.584   5.511 -0.1084  0.7179 -0.4818
   56THF     H7  722   2.581   0.445   5.455  2.1688 -0.4997 -1.2448
   56THF     C8  723   2.672   0.582   5.589 -0.8397  0.0475  0.2627
   56THF     C9  724   2.732   0.715   5.544  0.0116 -0.1745 -0.3231
   56THF    H10  725   2.752   0.513   5.563 -0.9043  1.1805 -3.7413
   56THF    H11  726   2.636   0.564   5.690  2.4434 -1.7811  1.2729
   56THF    H12  727   2.729   0.790   5.622 -0.5337 -1.1498  0.6164
   56THF    H13  728   2.837   0.709   5.515  0.1851 -0.0393  0.2772
   57THF     O1  729   4.162   5.065   4.828  0.4468  0.2804  0.5338
   57THF     C2  730   4.097   5.121   4.716 -0.2869 -0.2770 -0.0222
   57THF     C3  731   4.269   5.146   4.866 -0.0798  0.1120 -0.0880
   57THF     H4  732   3.996   5.083   4.699 -1.9657  3.3580  0.8695
   57THF     H5  733   4.148   5.098   4.623 -2.7130  0.7774 -1.7254
   57THF     H6  734   4.296   5.126   4.970  0.5468  0.8685 -0.0958
   57THF     H7  735   4.359   5.135   4.805  1.5380  0.2181  2.1140
   57THF     C8  736   4.215   5.289   4.840  0.8180 -0.4923 -0.0530
   57THF     C9  737   4.094   5.270   4.749 -0.0132 -0.8291  0.5154
   57THF    H10  738   4.290   5.360   4.804  0.7931 -1.0640 -1.2643
   57THF    H11  739   4.191   5.333   4.937  0.0978  0.4073 -0.6152
   57THF    H12  740   4.006   5.311   4.797  1.3101 -0.2135  2.5554
   57THF    H13  741   4.112   5.332   4.662  1.7301 -2.4532 -0.3674
   58THF     O1  742   4.735   2.545   2.272 -0.4923 -0.6465 -0.3177
   58THF     C2  743   4.742   2.678   2.311  0.0489 -0.2005 -0.2951
   58THF     C3  744   4.612   2.501   2.317 -0.4703 -0.3993 -0.3616
   58THF     H4  745   4.680   2.736   2.242  1.2194 -0.0370 -1.2405
   58THF     H5  746   4.845   2.709   2.297  0.1412 -1.0904 -1.8375
   58THF     H6  747   4.533   2.547   2.256 -0.9361  0.1871  0.6551
   58THF     H7  748   4.612   2.392   2.319 -1.7753 -0.4121  0.3318
   58THF     C8  749   4.596   2.555   2.458  0.4855  0.0576 -0.4019
   58THF     C9  750   4.690   2.671   2.451 -0.4630  0.3353 -0.1566
   58THF    H10  751   4.646   2.484   2.524  1.1214 -0.4241 -1.3783
   58THF    H11  752   4.492   2.566   2.488  1.0109 -1.5543  2.3450
   58THF    H12  753   4.651   2.767   2.484  0.3970  1.3600 -1.9693
   58THF    H13  754   4.779   2.659   2.513  0.7717  0.6641 -1.7952
   59THF     O1  755   4.678   4.004   0.986  0.1398  0.1318  0.5247
   59THF     C2  756   4.615   3.970   0.864  0.0268 -0.5518 -0.3537
   59THF     C3  757   4.771   3.915   1.036  0.0155 -0.0098  0.2912
   59THF     H4  758   4.675   4.029   0.794 -0.3862  0.4237  0.0890
   59THF     H5  759   4.512   4.007   0.865  1.1611  3.0287  0.3715
   59THF     H6  760   4.873   3.947   1.060  0.3819 -1.6338  1.0303
   59THF     H7  761   4.742   3.881   1.135 -0.8762  0.8319  0.3296
   59THF     C8  762   4.769   3.811   0.924 -0.1814 -0.1812  0.0836
   59THF     C9  763   4.629   3.817   0.860 -0.4479  0.4912  0.4171
   59THF    H10  764   4.801   3.715   0.963  0.5000  0.3169  0.7861
   59THF    H11  765   4.842   3.835   0.846  1.4672 -1.0466  1.3136
   59THF    H12  766   4.619   3.800   0.753 -0.3596  0.8684  0.3450
   59THF    H13  767   4.547   3.773   0.916  0.3209 -3.4030 -1.1983
   60THF     O1  768   4.332   3.406   0.110 -0.5613 -0.1027 -0.1478
   60THF     C2  769   4.438   3.503   0.117  0.1994  0.4979 -0.6887
   60THF     C3  770   4.211   3.468   0.065 -0.3528  0.5284 -0.1770
   60THF     H4  771   4.530   3.449   0.095  0.1645  0.4540 -0.7284
   60THF     H5  772   4.444   3.543   0.218  1.8057 -3.1764  0.8526
   60THF     H6  773   4.138   3.395   0.029  0.8396 -0.5013 -0.5874
   60THF     H7  774   4.167   3.518   0.150 -1.3314  0.9385 -0.9056
   60THF     C8  775   4.265   3.546  -0.051 -0.1675 -0.3570  0.2762
   60THF     C9  776   4.393   3.604   0.010  0.2708 -0.3974  0.3970
   60THF    H10  777   4.206   3.630  -0.087  1.2103  1.2030  1.4905
   60THF    H11  778   4.286   3.479  -0.134 -0.6844 -1.1827  0.7819
   60THF    H12  779   4.471   3.621  -0.064  0.1075 -1.4234 -0.0181
   60THF    H13  780   4.367   3.700   0.054  0.0440  0.2486 -1.0767
   61THF     O1  781   5.400   5.081   3.331 -0.4219 -0.2972  0.2365
   61THF     C2  782   5.272   5.143   3.336  0.0714 -0.5097  0.2825
   61THF     C3  783   5.488   5.192   3.329 -0.5044  0.6689  0.6392
   61THF     H4  784   5.253   5.192   3.431 -2.0795 -1.3875  0.3469
   61THF     H5  785   5.188   5.085   3.298 -0.9450 -0.0295  1.7105
   61THF     H6  786   5.494   5.243   3.425 -1.0101 -0.1596  1.1208
   61THF     H7  787   5.594   5.173   3.311 -0.3623  2.5413 -0.7980
   61THF     C8  788   5.434   5.278   3.211 -0.0407  0.1602  0.2372
   61THF     C9  789   5.289   5.244   3.221  0.0534 -0.2122 -0.6976
   61THF    H10  790   5.473   5.240   3.116  0.4314 -2.0102  1.2399
   61THF    H11  791   5.461   5.384   3.217 -0.6425  0.2246  2.3131
   61THF    H12  792   5.228   5.334   3.227  0.3932 -0.0952  1.8920
   61THF    H13  793   5.246   5.188   3.137 -4.5622  0.8575  0.6695
   62THF     O1  794   1.013   3.779   2.806  0.0783  0.1637  0.3488
   62THF     C2  795   0.991   3.736   2.942  0.5156  0.1031  0.8774
   62THF     C3  796   1.047   3.663   2.730  0.0015 -0.2014  0.0739
   62THF     H4  797   0.886   3.756   2.964 -0.0383  0.6217 -1.8845
   62THF     H5  798   1.045   3.804   3.008  0.2276  1.2709 -0.0609
   62THF     H6  799   0.963   3.615   2.679  1.1291 -0.7444 -1.3477
   62THF     H7  800   1.117   3.692   2.651  3.2174 -0.1249  2.7470
   62THF     C8  801   1.109   3.569   2.827 -0.6537  0.3873  0.3171
   62THF     C9  802   1.031   3.587   2.950 -0.0296 -0.4776 -0.7179
   62THF    H10  803   1.214   3.594   2.844  0.1241 -0.9058 -2.0719
   62THF    H11  804   1.107   3.468   2.784 -1.4961  0.7444 -0.5071
   62THF    H12  805   0.946   3.519   2.950 -0.1558 -0.3278 -0.1422
   62THF    H13  806   1.090   3.573   3.041  1.8433  2.8493 -1.2365
   63THF     O1  807   1.696   2.802   4.190  0.0322  0.4869  0.4132
   63THF     C2  808   1.589   2.801   4.287  0.8462  0.3736  0.3506
   63THF     C3  809   1.762   2.680   4.216 -0.2740  0.2495  0.0878
   63THF     H4  810   1.513   2.876   4.268  0.9171  0.4407  0.3340
   63THF     H5  811   1.613   2.824   4.390 -0.9217  3.4436  0.1899
   63THF     H6  812   1.834   2.645   4.142 -0.5664 -1.0746  0.4060
   63THF     H7  813   1.812   2.697   4.311  0.2285  1.6304 -0.3974
   63THF     C8  814   1.653   2.576   4.234  0.6429  0.3940  0.6294
   63THF     C9  815   1.533   2.660   4.274  0.2986  0.7024  0.2118
   63THF    H10  816   1.688   2.508   4.312  0.4645 -0.9864 -0.4605
   63THF    H11  817   1.650   2.530   4.136 -1.0638  1.3487  0.1931
   63THF    H12  818   1.453   2.661   4.200  0.3961  1.5146  0.1011
   63THF    H13  819   1.493   2.612   4.363  1.0300 -1.2654 -0.4626
   64THF     O1  820   2.012   0.823   4.225  0.0312 -0.6157  0.5800
   64THF     C2  821   2.127   0.747   4.251 -0.1377  0.3136  0.6988
   64THF     C3  822   1.907   0.768   4.301 -0.7732 -0.7133 -0.4701
   64THF     H4  823   2.204   0.801   4.307  3.0061 -0.5580 -2.4098
   64THF     H5  824   2.181   0.738   4.157  0.2464 -0.3293  0.9723
   64THF     H6  825   1.906   0.812   4.401 -3.1876  1.4151 -1.3223
   64THF     H7  826   1.812   0.808   4.266 -0.9529  0.8184  1.5277
   64THF     C8  827   1.928   0.613   4.294  0.3276 -0.4241 -0.3799
   64THF     C9  828   2.077   0.609   4.310 -0.4408  0.2912  0.4434
   64THF    H10  829   1.902   0.567   4.199  0.5468  0.5590 -0.9303
   64THF    H11  830   1.869   0.573   4.376  1.5196  2.7105  2.2645
   64THF    H12  831   2.108   0.595   4.413  0.0801 -0.3925  0.1966
   64THF    H13  832   2.098   0.513   4.263 -0.6693  0.5379 -0.1721
   65THF     O1  833   1.474   2.191   0.052  0.0185 -0.1120  0.2220
   65THF     C2  834   1.415   2.204   0.184  0.1803 -0.8069  0.2841
   65THF     C3  835   1.567   2.294   0.038 -0.7186  0.6210  0.2360
   65THF     H4  836   1.460   2.138   0.258 -1.4554  0.6207  2.6886
   65THF     H5  837   1.310   2.177   0.169  0.4883 -0.5747 -3.0358
   65THF     H6  838   1.668   2.281   0.078 -0.9073  0.0326  0.5311
   65THF     H7  839   1.582   2.312  -0.068 -2.2719 -0.7699 -0.2533
   65THF     C8  840   1.512   2.414   0.116  0.7525 -0.4418  0.3138
   65THF     C9  841   1.418   2.354   0.229 -0.3230  0.6415 -0.0703
   65THF    H10  842   1.443   2.476   0.059  2.7846  1.2796 -0.3877
   65THF    H11  843   1.592   2.477   0.156  1.0964 -0.5739 -0.1587
   65THF    H12  844   1.465   2.364   0.326  1.3151  0.0772 -0.7717
   65THF    H13  845   1.324   2.409   0.231  0.4911  2.0354  1.1310
   66THF     O1  846   0.051   3.695   5.344  0.1130 -0.0516  0.2096
   66THF     C2  847  -0.021   3.590   5.396 -0.3746  0.1748  0.2796
   66THF     C3  848   0.046   3.680   5.205 -0.1983 -0.0105 -0.5684
   66THF     H4  849  -0.049   3.601   5.501  2.4678 -2.5204  1.4804
   66THF     H5  850   0.042   3.501   5.402 -0.9207 -0.1929  0.8041
   66THF     H6  851   0.079   3.772   5.156  0.5655  0.0035 -0.0486
   66THF     H7  852   0.116   3.603   5.173  1.1884  1.0346 -0.1419
   66THF     C8  853  -0.089   3.630   5.182  0.2975  0.3172  0.1139
   66THF     C9  854  -0.143   3.575   5.311 -0.5136 -0.1504  0.3759
   66THF    H10  855  -0.103   3.564   5.096 -1.0869  0.0803  0.4941
   66THF    H11  856  -0.139   3.721   5.148 -2.8302 -1.4778 -0.5642
   66THF    H12  857  -0.226   3.642   5.337  0.3467  1.2656 -0.3956
   66THF    H13  858  -0.176   3.472   5.299  1.7728 -0.8816  0.0161
   67THF     O1  859   3.417   0.815   0.359 -0.3866 -0.1160 -0.3473
   67THF     C2  860   3.554   0.850   0.389 -0.5373  0.0791 -0.0087
   67THF     C3  861   3.406   0.677   0.338  0.1515  0.3963  0.1864
   67THF     H4  862   3.550   0.947   0.438 -3.6194 -0.3393  0.7836
   67THF     H5  863   3.611   0.856   0.296  0.3032  1.9685  0.5722
   67THF     H6  864   3.306   0.633   0.342  0.4909 -0.6384 -1.4658
   67THF     H7  865   3.441   0.644   0.240 -1.0444 -2.1438  0.5186
   67THF     C8  866   3.509   0.624   0.444 -0.1385 -0.0404  0.1344
   67THF     C9  867   3.606   0.735   0.469 -0.1097 -0.2164 -0.3851
   67THF    H10  868   3.553   0.532   0.405 -0.7248 -0.6679  0.9187
   67THF    H11  869   3.462   0.589   0.535 -2.0523 -0.4796 -0.9689
   67THF    H12  870   3.604   0.761   0.575  1.0875 -1.1351 -0.1170
   67THF    H13  871   3.709   0.715   0.438 -0.2460 -1.6894  0.0202
   68THF     O1  872   4.373   2.137   3.123  0.3956  0.4451 -0.1170
   68THF     C2  873   4.271   2.226   3.166 -0.3013  0.4827 -1.1535
   68THF     C3  874   4.482   2.220   3.078  0.7489  0.6266 -0.1596
   68THF     H4  875   4.193   2.184   3.229  0.1135  1.9482  0.4326
   68THF     H5  876   4.226   2.273   3.079  2.2319 -0.5685 -3.1690
   68THF     H6  877   4.570   2.155   3.081 -1.1479 -2.1134  2.0833
   68THF     H7  878   4.472   2.270   2.982  1.0013 -0.0423 -0.5419
   68THF     C8  879   4.495   2.322   3.187 -0.0679  0.0078 -0.8596
   68THF     C9  880   4.355   2.337   3.232  0.8774  0.2444 -0.4679
   68THF    H10  881   4.535   2.417   3.151 -0.5740  0.4060 -0.3836
   68THF    H11  882   4.554   2.285   3.271 -2.2557  0.1798  0.8570
   68THF    H12  883   4.344   2.328   3.340  0.2662 -0.7096 -0.5961
   68THF    H13  884   4.323   2.440   3.218  0.0052 -0.2953 -3.0512
   69THF     O1  885   3.137   3.499   1.151  0.1638  0.3636  0.1723
   69THF     C2  886   3.107   3.365   1.120 -0.4403  0.1186 -0.5984
   69THF     C3  887   3.169   3.507   1.289  0.4636  0.1336 -0.1180
   69THF     H4  888   3.104   3.347   1.013  1.5134  0.6501 -0.7797
   69THF     H5  889   3.010   3.346   1.166 -0.0381  0.1290  0.2785
   69THF     H6  890   3.220   3.601   1.308 -0.7583  0.9874 -0.9250
   69THF     H7  891   3.073   3.504   1.339  0.9583 -0.6771  0.8225
   69THF     C8  892   3.251   3.377   1.312 -0.6036  0.3535 -0.8367
   69THF     C9  893   3.225   3.287   1.187  0.0137  0.0006 -0.3749
   69THF    H10  894   3.215   3.326   1.401  2.6772 -0.0565  0.4241
   69THF    H11  895   3.358   3.399   1.322 -0.4109 -0.1187 -1.7861
   69THF    H12  896   3.312   3.292   1.121 -1.3445 -0.8503 -2.3180
   69THF    H13  897   3.194   3.187   1.216 -0.3280  0.0897 -0.4348
   70THF     O1  898   2.903   1.244   0.032  0.2539 -0.1213  0.1262
   70THF     C2  899   2.947   1.201  -0.095  0.4113 -0.9606  0.0354
   70THF     C3  900   2.912   1.126   0.113 -0.5011  0.1016 -0.1600
   70THF     H4  901   3.002   1.274  -0.154  1.5640 -1.8406  0.0018
   70THF     H5  902   2.856   1.169  -0.146  1.3568 -0.1863 -2.2756
   70THF     H6  903   2.919   1.153   0.219 -0.9839  2.3513 -0.6483
   70THF     H7  904   2.830   1.054   0.114 -0.3690 -0.0462 -0.0747
   70THF     C8  905   3.043   1.066   0.078 -0.1101  0.2866 -0.0535
   70THF     C9  906   3.040   1.085  -0.080 -0.0849  0.9464  0.1313
   70THF    H10  907   3.064   0.967   0.118  1.6397  0.6679  0.0738
   70THF    H11  908   3.131   1.120   0.114 -0.1271  0.0778  0.3107
   70THF    H12  909   3.136   1.100  -0.129 -2.3659  3.5975 -4.1563
   70THF    H13  910   2.995   0.993  -0.117  0.1902  0.0212  1.9620
   71THF     O1  911   4.598   3.019   3.807  0.4845 -0.3211 -0.2026
   71THF     C2  912   4.486   2.928   3.813 -0.5322  1.2455  0.5298
   71THF     C3  913   4.540   3.145   3.761 -0.8203  0.1256  0.5716
   71THF     H4  914   4.464   2.906   3.917  2.1113 -0.4284  0.8441
   71THF     H5  915   4.523   2.839   3.761  3.1412  2.3881  0.9044
   71THF     H6  916   4.574   3.232   3.818 -0.7808  2.5849 -2.8842
   71THF     H7  917   4.579   3.163   3.661  0.0473 -0.4460  0.7911
   71THF     C8  918   4.389   3.129   3.767  0.5595  0.1317  1.0671
   71THF     C9  919   4.367   2.982   3.746  0.0500 -0.2075 -0.2804
   71THF    H10  920   4.349   3.214   3.711  1.1207  0.8553  1.7376
   71THF    H11  921   4.366   3.158   3.869 -1.3436  3.1837 -0.0907
   71THF    H12  922   4.273   2.960   3.797  0.0773  1.5876  0.6254
   71THF    H13  923   4.364   2.964   3.638  3.0502  0.1023 -0.4880
   72THF     O1  924   1.479   2.945   0.456 -0.0434  0.0273 -0.1402
   72THF     C2  925   1.483   2.857   0.566 -1.0182 -0.1789  0.3455
   72THF     C3  926   1.407   2.889   0.349 -0.1060 -0.6392  0.2599
   72THF     H4  927   1.383   2.860   0.610 -0.8074  0.6318  0.7899
   72THF     H5  928   1.559   2.891   0.637 -0.0431 -1.4575 -0.0539
   72THF     H6  929   1.304   2.902   0.384  0.5731 -0.1946  2.2216
   72THF     H7  930   1.417   2.942   0.255  0.2347 -1.6142 -0.2676
   72THF     C8  931   1.454   2.741   0.357 -0.3245  0.0503 -0.4498
   72THF     C9  932   1.506   2.717   0.504  0.5639  0.2246  0.7144
   72THF    H10  933   1.525   2.706   0.282 -0.9005 -1.6344 -0.2340
   72THF    H11  934   1.366   2.682   0.336 -0.8064  1.3302 -2.3606
   72THF    H12  935   1.451   2.646   0.566  0.0938 -1.6407 -1.6862
   72THF    H13  936   1.611   2.690   0.491  0.0015 -1.5324 -0.4673
   73THF     O1  937   3.665   1.519   2.160  0.1902  0.0832  0.4730
   73THF     C2  938   3.524   1.547   2.188  0.0080  0.0567  0.2622
   73THF     C3  939   3.724   1.619   2.076  0.4141  0.8504 -0.6056
   73THF     H4  940   3.511   1.578   2.291  1.9529 -1.2795  0.9803
   73THF     H5  941   3.461   1.459   2.176 -2.9965  2.1186 -0.2530
   73THF     H6  942   3.821   1.651   2.114  0.5271  0.5363 -0.6323
   73THF     H7  943   3.731   1.570   1.979 -0.0529 -2.0624  0.7476
   73THF     C8  944   3.623   1.730   2.067  0.0545  0.0856 -0.3953
   73THF     C9  945   3.487   1.667   2.095  0.1524  0.2218  0.2793
   73THF    H10  946   3.613   1.777   1.969 -1.7426  2.1194  0.6617
   73THF    H11  947   3.639   1.815   2.134  0.1431 -0.7508  0.6802
   73THF    H12  948   3.404   1.731   2.125 -1.9956 -1.3811 -1.8873
   73THF    H13  949   3.452   1.622   2.002 -4.1571  0.2151  1.7152
   74THF     O1  950   5.044   2.235   3.638  0.2897 -0.3621  0.1419
   74THF     C2  951   4.969   2.264   3.755 -0.0475 -0.2060 -0.2728
   74THF     C3  952   5.006   2.107   3.585  0.3178  0.1966 -0.0459
   74THF     H4  953   4.884   2.323   3.722  2.0580  3.0570 -0.3494
   74THF     H5  954   5.038   2.310   3.826  0.3108 -2.0622  0.6538
   74THF     H6  955   4.969   2.114   3.482  0.4738  2.7551 -0.0009
   74THF     H7  956   5.096   2.045   3.581 -0.7623 -1.3866 -0.7322
   74THF     C8  957   4.899   2.055   3.685 -0.2114  0.4875  0.3450
   74THF     C9  958   4.919   2.130   3.810  0.4728 -0.3320  1.0181
   74THF    H10  959   4.925   1.950   3.701  0.5866  0.8590  1.6215
   74THF    H11  960   4.801   2.070   3.640  0.0566  1.9101  0.1965
   74THF    H12  961   4.824   2.132   3.863 -1.0000 -0.3918 -1.4878
   74THF    H13  962   4.988   2.077   3.876 -0.2240 -2.2636  0.2396
   75THF     O1  963   4.510   1.861   3.464 -0.5038  0.5434 -0.0659
   75THF     C2  964   4.542   1.981   3.391 -0.5380 -0.2349 -0.8322
   75THF     C3  965   4.624   1.823   3.531 -0.6375  0.1337  0.7938
   75THF     H4  966   4.526   2.066   3.457  0.6737 -1.6492  1.3795
   75THF     H5  967   4.476   1.978   3.304 -1.4198 -0.3465 -0.1783
   75THF     H6  968   4.637   1.878   3.624  0.9929 -0.2086  0.8033
   75THF     H7  969   4.616   1.717   3.552 -0.2970  0.2037  1.2823
   75THF     C8  970   4.741   1.846   3.429  0.1808  0.0500  0.1327
   75THF     C9  971   4.689   1.970   3.354 -0.1748 -0.4187 -0.6128
   75THF    H10  972   4.742   1.762   3.360 -1.1082  0.6352 -0.6487
   75THF    H11  973   4.833   1.853   3.485 -0.7996 -0.1652  1.8282
   75THF    H12  974   4.739   2.058   3.393  0.6934 -0.3948 -1.7169
   75THF    H13  975   4.707   1.951   3.248  1.0937 -3.2613 -0.0004
   76THF     O1  976   0.791   0.085   4.658 -0.2389 -0.3144 -0.0939
   76THF     C2  977   0.865   0.107   4.535  0.6490 -0.1273  0.0047
   76THF     C3  978   0.861   0.146   4.762  0.1090 -0.4233  0.2787
   76THF     H4  979   0.791   0.115   4.455  0.7187 -0.4326 -0.0894
   76THF     H5  980   0.942   0.034   4.509  1.9279  1.2920 -0.3735
   76THF     H6  981   0.784   0.165   4.836  0.4507 -0.4517  0.6456
   76THF     H7  982   0.934   0.087   4.818 -0.0786  1.1414  2.2928
   76THF     C8  983   0.932   0.267   4.707 -0.8667  0.3148  0.4453
   76THF     C9  984   0.908   0.253   4.559 -0.0166  0.2668 -0.5904
   76THF    H10  985   1.037   0.252   4.732 -1.1711  1.1010  2.4087
   76THF    H11  986   0.899   0.363   4.745 -0.4466  0.2015  1.1103
   76THF    H12  987   0.831   0.325   4.529  0.3301  1.3347  0.9803
   76THF    H13  988   0.996   0.272   4.498  0.7142 -0.3458  0.2730
   77THF     O1  989   2.825   4.700   1.077  0.2012 -0.4413 -0.1825
   77THF     C2  990   2.784   4.606   0.976 -0.0579  0.1404 -0.3890
   77THF     C3  991   2.727   4.711   1.183  0.2980  0.5832  0.0175
   77THF     H4  992   2.817   4.509   1.013 -1.6028 -0.4871 -0.5863
   77THF     H5  993   2.830   4.624   0.879  0.8094 -0.1183 -0.0391
   77THF     H6  994   2.743   4.632   1.256 -1.7630  0.6771  0.6441
   77THF     H7  995   2.734   4.806   1.237  1.8100  1.8872 -2.3013
   77THF     C8  996   2.592   4.689   1.117  0.1507 -0.5707  0.8177
   77THF     C9  997   2.628   4.632   0.977 -0.4481 -0.0445  0.4780
   77THF    H10  998   2.544   4.785   1.102  1.7014  0.1508  0.2111
   77THF    H11  999   2.516   4.626   1.162 -1.9786 -0.9720 -2.8984
   77THF    H12 1000   2.574   4.539   0.956 -0.0902 -0.6847  2.2222
   77THF    H13 1001   2.602   4.699   0.895  1.5247 -0.0350 -0.1815
   78THF     O1 1002   1.009   1.706   4.133  0.9871  0.2028  0.4860
   78THF     C2 1003   0.963   1.579   4.074  0.4378  0.5916  0.3269
   78THF     C3 1004   1.147   1.693   4.173 -0.6333  0.1787 -0.5342
   78THF     H4 1005   0.906   1.586   3.981  0.0116 -0.4136  0.4983
   78THF     H5 1006   0.899   1.532   4.148  1.8682  1.9852  2.5583
   78THF     H6 1007   1.205   1.744   4.096  2.8147 -2.1924  0.2510
   78THF     H7 1008   1.159   1.743   4.269 -0.8813 -3.7257  1.7620
   78THF     C8 1009   1.176   1.542   4.179 -0.3683  0.5665 -0.2672
   78THF     C9 1010   1.090   1.499   4.059 -0.0383  1.0993  0.4240
   78THF    H10 1011   1.133   1.494   4.267  2.6817  0.2231  1.1533
   78THF    H11 1012   1.282   1.525   4.160 -0.3933  1.1858 -1.0231
   78THF    H12 1013   1.138   1.527   3.965  0.4308 -1.0579 -0.0384
   78THF    H13 1014   1.073   1.391   4.065  1.5933  0.8450  0.9295
   79THF     O1 1015   0.069   0.129   0.545 -0.1442 -0.4983  0.2386
   79THF     C2 1016   0.037   0.260   0.494 -0.7749  0.4563 -0.4027
   79THF     C3 1017   0.048   0.143   0.680  0.2001  0.3539  0.1337
   79THF     H4 1018   0.025   0.255   0.386  0.2261  1.0243 -0.5469
   79THF     H5 1019   0.110   0.334   0.527  1.8999 -2.7256  1.3903
   79THF     H6 1020   0.051   0.044   0.725  0.4381  0.2781 -0.0520
   79THF     H7 1021   0.129   0.195   0.730 -1.4469  2.5405  0.6858
   79THF     C8 1022  -0.089   0.211   0.700 -0.0980  0.0609  0.0447
   79THF     C9 1023  -0.102   0.291   0.567 -1.0656 -0.1310  0.0422
   79THF    H10 1024  -0.096   0.276   0.787  2.2063 -0.3603  0.5949
   79THF    H11 1025  -0.164   0.132   0.709  1.0602 -1.0226  0.4534
   79THF    H12 1026  -0.185   0.267   0.500 -0.2367  1.2230 -1.5232
   79THF    H13 1027  -0.112   0.398   0.584 -2.4195 -0.0226 -1.2840
   80THF     O1 1028   1.905   4.851   0.432  1.1168 -0.3034 -0.6008
   80THF     C2 1029   1.914   4.993   0.463 -0.2384  0.5823 -0.1489
   80THF     C3 1030   1.914   4.829   0.293 -0.2903 -0.8024  0.3971
   80THF     H4 1031   1.981   5.017   0.546  0.9860 -1.6944 -0.3971
   80THF     H5 1032   1.817   5.036   0.488  0.5560  2.2545  0.1780
   80THF     H6 1033   2.010   4.780   0.276 -0.4386 -0.8973 -0.2061
   80THF     H7 1034   1.833   4.765   0.257 -1.0913 -0.4433  1.4985
   80THF     C8 1035   1.919   4.972   0.226 -0.3626 -0.3093 -0.0747
   80THF     C9 1036   1.977   5.057   0.342  0.6052  0.3007  0.2584
   80THF    H10 1037   1.820   5.015   0.208  0.1127  1.4024  1.0862
   80THF    H11 1038   1.953   4.980   0.123 -0.6407 -0.1363 -0.1548
   80THF    H12 1039   2.086   5.053   0.347  0.8037  2.7000 -0.6489
   80THF    H13 1040   1.955   5.162   0.319  1.4880  0.0126 -2.2038
   81THF     O1 1041   2.188   0.723   2.922  0.6926  0.0749 -0.5039
   81THF     C2 1042   2.301   0.641   2.892 -0.6407  0.2411 -0.1284
   81THF     C3 1043   2.082   0.630   2.895  0.2499 -0.0405 -0.3591
   81THF     H4 1044   2.392   0.698   2.915 -0.0139 -1.0897  0.8092
   81THF     H5 1045   2.304   0.619   2.785 -0.6454 -3.2123  0.4908
   81THF     H6 1046   1.989   0.675   2.931  1.7172  3.0907 -0.1649
   81THF     H7 1047   2.085   0.610   2.787 -1.0963  0.5383 -0.5204
   81THF     C8 1048   2.118   0.502   2.973 -0.3530  0.2965 -0.7261
   81THF     C9 1049   2.274   0.525   2.991  0.0871 -0.7777 -0.0145
   81THF    H10 1050   2.090   0.417   2.912  0.3703  0.8693 -1.8984
   81THF    H11 1051   2.056   0.500   3.063  0.5338  0.3337 -0.0886
   81THF    H12 1052   2.292   0.552   3.096 -1.3267 -0.3995  0.1524
   81THF    H13 1053   2.329   0.438   2.955  0.0374 -0.6183 -0.4813
   82THF     O1 1054   5.369   4.673   0.932 -0.2116  0.0154 -0.7280
   82THF     C2 1055   5.364   4.559   1.014 -0.3524 -0.5671 -0.3811
   82THF     C3 1056   5.455   4.771   0.992 -0.3587 -0.0122 -0.2468
   82THF     H4 1057   5.427   4.487   0.963 -0.8117 -1.3523  0.1381
   82THF     H5 1058   5.270   4.508   1.036 -0.7302  0.4788  0.5543
   82THF     H6 1059   5.533   4.810   0.925  1.2249  0.7513  1.9369
   82THF     H7 1060   5.408   4.858   1.037  0.5095 -0.0801  0.8388
   82THF     C8 1061   5.525   4.703   1.109 -1.0482  0.9218 -0.3929
   82THF     C9 1062   5.426   4.602   1.147 -0.0542  0.2120 -0.3846
   82THF    H10 1063   5.551   4.769   1.192 -2.2408  0.8067  0.0815
   82THF    H11 1064   5.610   4.640   1.082 -2.0947 -0.7331  0.0383
   82THF    H12 1065   5.472   4.513   1.190  0.5595  0.9663  0.5449
   82THF    H13 1066   5.347   4.639   1.211  0.5954 -0.7498  1.0089
   83THF     O1 1067   5.377   1.097   2.066  0.1414 -0.3888 -0.3418
   83THF     C2 1068   5.494   1.018   2.060 -0.4832 -0.6445  0.4896
   83THF     C3 1069   5.367   1.176   1.945 -0.0720 -0.2812 -0.1605
   83THF     H4 1070   5.492   0.930   2.123  1.7947 -0.6268  0.6642
   83THF     H5 1071   5.584   1.076   2.083 -1.4646  2.2642 -2.2720
   83THF     H6 1072   5.266   1.169   1.905 -0.4141 -1.6007  0.8586
   83THF     H7 1073   5.386   1.277   1.979 -2.7130  0.3110 -0.2100
   83THF     C8 1074   5.472   1.121   1.854 -0.6604 -0.0852  0.8204
   83THF     C9 1075   5.502   0.984   1.907 -0.1131 -0.4759  0.0401
   83THF    H10 1076   5.560   1.185   1.850 -0.9531  0.2873 -1.2849
   83THF    H11 1077   5.426   1.106   1.756  1.0477  0.0266 -0.0294
   83THF    H12 1078   5.421   0.918   1.878  0.1807 -0.1623 -1.6111
   83THF    H13 1079   5.593   0.937   1.870 -1.2750 -1.1845 -2.1061
   84THF     O1 1080   3.014   2.815   4.276 -0.5353 -0.4228 -0.6153
   84THF     C2 1081   3.119   2.819   4.370 -0.1168 -0.2701 -0.2634
   84THF     C3 1082   2.925   2.719   4.322  0.4106  0.2532 -0.3538
   84THF     H4 1083   3.174   2.912   4.365  0.0614 -0.3303  0.5448
   84THF     H5 1084   3.197   2.746   4.347  0.1977 -0.1472  0.4062
   84THF     H6 1085   2.835   2.727   4.262  0.6123  2.0884 -0.4544
   84THF     H7 1086   2.966   2.619   4.307  2.4678  1.1822 -1.2614
   84THF     C8 1087   2.915   2.759   4.475 -0.0071 -0.4090  0.2433
   84THF     C9 1088   3.058   2.795   4.507  0.1796 -0.1182 -0.3865
   84THF    H10 1089   2.858   2.685   4.532  1.4992  1.4608  4.6597
   84THF    H11 1090   2.847   2.844   4.485 -0.0979 -0.4798  0.2255
   84THF    H12 1091   3.048   2.885   4.568  0.3742 -0.7881  0.6559
   84THF    H13 1092   3.108   2.710   4.553  0.0470  0.8679  1.6791
   85THF     O1 1093   0.663   1.801   2.879 -1.2692  0.4066  0.0031
   85THF     C2 1094   0.632   1.840   2.745 -0.7684  0.1005 -0.2982
   85THF     C3 1095   0.535   1.826   2.950  0.0100  0.2469 -0.8572
   85THF     H4 1096   0.566   1.766   2.701  1.9760 -1.9335 -1.2438
   85THF     H5 1097   0.716   1.845   2.676  0.3620 -1.0748  0.9309
   85THF     H6 1098   0.460   1.761   2.905 -0.0704  0.8349 -1.6012
   85THF     H7 1099   0.523   1.821   3.058 -1.2357 -0.0453 -0.9983
   85THF     C8 1100   0.501   1.966   2.909 -0.3586  0.3059 -0.2556
   85THF     C9 1101   0.549   1.971   2.768 -0.1438 -0.0898 -0.4186
   85THF    H10 1102   0.565   2.033   2.966  0.6509  0.8480 -1.9470
   85THF    H11 1103   0.398   1.997   2.927  0.1990  2.0685  0.0599
   85THF    H12 1104   0.459   1.981   2.706 -1.0474  0.6329  0.9583
   85THF    H13 1105   0.592   2.068   2.744 -1.7401  1.2572  1.7342
   86THF     O1 1106   1.512   2.573   1.046  0.3076  0.0513 -0.5160
   86THF     C2 1107   1.493   2.654   1.161  0.0815  0.1808 -0.0538
   86THF     C3 1108   1.406   2.594   0.965 -0.1755  0.6316  0.7431
   86THF     H4 1109   1.591   2.686   1.196  0.4330 -0.1639 -0.7059
   86THF     H5 1110   1.453   2.595   1.243  0.3913  1.3481  0.9716
   86THF     H6 1111   1.429   2.570   0.862 -1.1035  0.5209  0.5488
   86THF     H7 1112   1.331   2.521   0.996 -0.3456 -0.3493 -1.7587
   86THF     C8 1113   1.371   2.743   0.981 -0.8207  1.3712 -0.0399
   86THF     C9 1114   1.417   2.782   1.128 -0.0310  0.0081  0.5598
   86THF    H10 1115   1.269   2.756   0.945 -0.3110  2.3855 -1.1885
   86THF    H11 1116   1.427   2.805   0.910  0.1848  0.1296 -0.3857
   86THF    H12 1117   1.474   2.872   1.147 -2.0259  2.0151 -2.2334
   86THF    H13 1118   1.329   2.802   1.189 -0.3270  0.0470  0.1272
   87THF     O1 1119   4.473   0.750   4.071 -0.6770  0.8158  0.3631
   87THF     C2 1120   4.404   0.628   4.059  0.0640  0.6296 -0.2158
   87THF     C3 1121   4.377   0.835   4.134 -0.3760 -0.6263 -0.6335
   87THF     H4 1122   4.392   0.566   4.149 -1.3558  0.1177 -0.7275
   87THF     H5 1123   4.448   0.565   3.982  1.0167  2.2231 -1.0222
   87THF     H6 1124   4.388   0.819   4.242  3.6603 -0.2070 -0.8303
   87THF     H7 1125   4.392   0.940   4.111  0.9797 -0.7715 -0.5192
   87THF     C8 1126   4.243   0.792   4.092  0.8620  0.3371  0.1861
   87THF     C9 1127   4.266   0.664   4.006  0.4852 -0.0947  0.3790
   87THF    H10 1128   4.200   0.872   4.031  2.5628 -0.0883 -1.6941
   87THF    H11 1129   4.178   0.775   4.177  0.8592  1.8035  0.5091
   87THF    H12 1130   4.190   0.589   4.026 -0.1818  0.4689  0.0240
   87THF    H13 1131   4.265   0.684   3.898 -1.7491 -1.4298  0.1001
   88THF     O1 1132   4.996   0.453   2.590 -0.4124  0.3204  0.2567
   88THF     C2 1133   5.102   0.547   2.593  0.3930  0.2467  0.5080
   88THF     C3 1134   4.962   0.425   2.723 -0.0111 -0.0297 -0.5629
   88THF     H4 1135   5.056   0.646   2.604 -2.3827 -1.1191  2.6880
   88THF     H5 1136   5.151   0.555   2.497  0.1421 -0.1137  0.3469
   88THF     H6 1137   4.872   0.485   2.735  1.4792  1.8327  2.0238
   88THF     H7 1138   4.933   0.321   2.740 -1.3756  0.3669 -0.3503
   88THF     C8 1139   5.079   0.467   2.813  0.4283 -0.2152  0.0451
   88THF     C9 1140   5.185   0.515   2.708  0.2076 -1.1992 -0.1808
   88THF    H10 1141   5.116   0.379   2.865  2.2243 -1.3606 -2.9020
   88THF    H11 1142   5.045   0.541   2.885  2.2020  0.5648  0.1517
   88THF    H12 1143   5.252   0.594   2.742 -0.3941  0.0222 -1.7335
   88THF    H13 1144   5.254   0.434   2.684  0.6877 -0.7356 -0.3853
   89THF     O1 1145   1.223   0.153   1.495  0.5464 -0.3722 -0.1022
   89THF     C2 1146   1.299   0.270   1.533 -0.5134 -0.5167 -0.0664
   89THF     C3 1147   1.306   0.089   1.411  0.1857  0.4507 -0.1418
   89THF     H4 1148   1.386   0.247   1.594 -1.6007  2.1391  2.7035
   89THF     H5 1149   1.242   0.344   1.588  0.7068 -0.2978  0.9497
   89THF     H6 1150   1.390   0.036   1.455 -0.0267 -2.3280 -2.7596
   89THF     H7 1151   1.248   0.017   1.353 -1.2065  2.0229 -0.8021
   89THF     C8 1152   1.358   0.190   1.319  0.4692 -0.1692 -0.2177
   89THF     C9 1153   1.334   0.323   1.393  0.1960  0.7902  0.2827
   89THF    H10 1154   1.295   0.196   1.230  0.7104 -0.2995 -0.3996
   89THF    H11 1155   1.451   0.168   1.266 -1.1362  0.0984 -3.3735
   89THF    H12 1156   1.421   0.387   1.412  0.6475  0.0863  0.6679
   89THF    H13 1157   1.245   0.369   1.351  0.3153  0.3929 -0.4159
   90THF     O1 1158   2.746   1.706   4.022  0.0059 -0.2302  0.1211
   90THF     C2 1159   2.832   1.622   3.944  0.8295 -0.5558  0.3142
   90THF     C3 1160   2.797   1.701   4.157  0.3632 -0.1074  0.1868
   90THF     H4 1161   2.929   1.672   3.937  1.2625 -1.4108 -0.1070
   90THF     H5 1162   2.789   1.604   3.845 -0.3633 -2.0549  1.0710
   90THF     H6 1163   2.888   1.760   4.172  0.4298 -0.5548  1.6437
   90THF     H7 1164   2.726   1.738   4.230 -0.0705 -2.4848  1.0564
   90THF     C8 1165   2.826   1.554   4.173  0.5475 -0.2706  0.3200
   90THF     C9 1166   2.847   1.501   4.027  0.0454 -0.3553 -0.2539
   90THF    H10 1167   2.747   1.508   4.231  0.1706  1.5206  1.3214
   90THF    H11 1168   2.914   1.542   4.237  1.2818  1.7703 -0.1912
   90THF    H12 1169   2.944   1.456   4.004 -1.4313 -2.9241 -1.9923
   90THF    H13 1170   2.788   1.411   4.010  2.5289 -2.3489  0.8516
   91THF     O1 1171   0.331   0.032   3.173 -0.0755  0.6229  0.0161
   91THF     C2 1172   0.245   0.136   3.128 -0.4103  0.7272 -0.4516
   91THF     C3 1173   0.268  -0.032   3.288  0.2348 -0.3686  0.6245
   91THF     H4 1174   0.190   0.092   3.045  0.0643 -1.2349  0.2112
   91THF     H5 1175   0.301   0.224   3.099  1.2542  0.3775  1.4955
   91THF     H6 1176   0.183  -0.094   3.259  1.6128 -2.2338  0.3280
   91THF     H7 1177   0.336  -0.098   3.342  2.3708  1.4543  0.2864
   91THF     C8 1178   0.218   0.091   3.361  0.4818  0.3619 -0.4513
   91THF     C9 1179   0.157   0.167   3.248  0.0982  0.6346 -0.2114
   91THF    H10 1180   0.304   0.145   3.400  0.8391  1.0377 -2.1021
   91THF    H11 1181   0.155   0.073   3.448  2.1675 -1.6344  0.4526
   91THF    H12 1182   0.054   0.142   3.226 -0.2678  0.2109  1.7886
   91THF    H13 1183   0.147   0.274   3.267  0.5169  0.3852  1.5620
   92THF     O1 1184   4.136   0.972   1.249 -0.2034  0.0004 -0.0596
   92THF     C2 1185   4.103   0.880   1.145 -0.0004 -0.2030 -0.2480
   92THF     C3 1186   4.115   1.102   1.189  0.6851  0.6123  0.2663
   92THF     H4 1187   4.003   0.848   1.174 -0.0730 -1.7823 -2.0572
   92THF     H5 1188   4.164   0.790   1.143 -1.3843 -1.1780 -0.1563
   92THF     H6 1189   4.011   1.125   1.163  1.5583  1.0134 -3.2694
   92THF     H7 1190   4.159   1.179   1.252  0.2771  0.6362  0.5341
   92THF     C8 1191   4.180   1.093   1.052  0.2591 -0.2405 -0.3148
   92THF     C9 1192   4.116   0.961   1.010 -0.3784 -0.2987 -1.0409
   92THF    H10 1193   4.288   1.099   1.065  0.0303  2.3566  0.9193
   92THF    H11 1194   4.158   1.165   0.973  0.6656  0.1984 -0.0339
   92THF    H12 1195   4.015   0.984   0.974 -1.4969  1.6848  2.8672
   92THF    H13 1196   4.175   0.911   0.933  0.8795  2.3464 -1.8864
   93THF     O1 1197   0.708   2.688   2.942 -0.2465  0.2989 -0.1937
   93THF     C2 1198   0.571   2.681   2.970 -0.7285  0.0893 -0.4280
   93THF     C3 1199   0.760   2.556   2.948  0.2537  0.3701  0.0388
   93THF     H4 1200   0.514   2.761   2.923  0.9804  0.5249 -1.8499
   93THF     H5 1201   0.565   2.682   3.079 -1.6830  0.1949 -0.4770
   93THF     H6 1202   0.833   2.555   2.867 -0.3112 -0.0881 -0.4720
   93THF     H7 1203   0.816   2.560   3.042 -1.3157  1.8226  0.9865
   93THF     C8 1204   0.655   2.446   2.954  0.1976 -0.0244 -0.3166
   93THF     C9 1205   0.531   2.537   2.933  0.0832  0.3373 -0.3386
   93THF    H10 1206   0.637   2.407   3.054  0.5640  1.0320  0.1839
   93THF    H11 1207   0.661   2.361   2.886  0.5750  0.7510 -1.2955
   93THF    H12 1208   0.505   2.543   2.827 -1.4548 -2.8179 -0.2731
   93THF    H13 1209   0.436   2.506   2.979 -1.8150  3.1884 -2.0539
   94THF     O1 1210   5.121   2.473   0.102  0.1578 -0.2650  0.5562
   94THF     C2 1211   5.070   2.355   0.159  0.1425 -0.4398 -0.5105
   94THF     C3 1212   5.082   2.478  -0.028  0.1111 -0.6158  0.2233
   94THF     H4 1213   5.057   2.368   0.266 -0.8465 -1.9146 -0.4212
   94THF     H5 1214   5.135   2.268   0.150 -2.5315 -2.6195 -0.2459
   94THF     H6 1215   5.083   2.582  -0.058  1.3986 -0.2191  1.5259
   94THF     H7 1216   5.158   2.425  -0.085  1.1797  1.0493  0.0415
   94THF     C8 1217   4.940   2.424  -0.029 -0.2718  0.2029 -0.0222
   94THF     C9 1218   4.935   2.336   0.097 -0.1892  0.0373 -0.2583
   94THF    H10 1219   4.928   2.361  -0.117  0.9373 -1.1691  0.7341
   94THF    H11 1220   4.867   2.504  -0.036  0.1575  0.6248  0.1729
   94THF    H12 1221   4.856   2.363   0.168 -1.0189 -1.3266 -0.6176
   94THF    H13 1222   4.923   2.230   0.073  2.7504 -0.2042 -1.0679
   95THF     O1 1223   4.639   0.589   1.765 -0.4553  0.9885  0.0230
   95THF     C2 1224   4.756   0.677   1.765  0.0121 -0.5007  0.2934
   95THF     C3 1225   4.518   0.668   1.772  0.1398 -0.4037  0.2242
   95THF     H4 1226   4.821   0.641   1.686 -2.8058 -0.0396 -2.4339
   95THF     H5 1227   4.815   0.664   1.856  1.4376  1.5337 -0.2811
   95THF     H6 1228   4.468   0.683   1.677  2.1681  2.8682 -0.4956
   95THF     H7 1229   4.445   0.631   1.844 -0.4845 -1.5715 -0.9787
   95THF     C8 1230   4.568   0.807   1.809  0.0998 -0.5394  0.1368
   95THF     C9 1231   4.710   0.817   1.751 -0.4166  0.3363  0.3764
   95THF    H10 1232   4.559   0.825   1.916  1.3509 -1.8086  0.4886
   95THF    H11 1233   4.493   0.877   1.771 -0.6247 -0.6400  1.3307
   95THF    H12 1234   4.713   0.857   1.650  0.7922 -1.4510 -0.3320
   95THF    H13 1235   4.769   0.876   1.822 -0.0880  0.8799 -0.3406
   96THF     O1 1236   2.753   2.494   2.536 -0.5113 -0.1451 -0.0960
   96THF     C2 1237   2.790   2.522   2.405  0.1195 -0.4093  0.4782
   96THF     C3 1238   2.867   2.466   2.617 -0.1024  0.1022 -0.2970
   96THF     H4 1239   2.731   2.606   2.370 -1.0053 -1.1403  0.5452
   96THF     H5 1240   2.770   2.428   2.353  1.5213  0.6190 -2.1150
   96THF     H6 1241   2.849   2.475   2.724 -3.0353  0.4499 -0.7085
   96THF     H7 1242   2.911   2.368   2.602  1.8381  0.8154  0.4693
   96THF     C8 1243   2.972   2.554   2.555 -0.0049  0.0275  0.3189
   96THF     C9 1244   2.937   2.556   2.407 -0.5055  0.3783 -0.4502
   96THF    H10 1245   3.074   2.529   2.584 -0.0819 -1.1614 -0.3727
   96THF    H11 1246   2.953   2.653   2.595  2.0227  1.5047 -2.0606
   96THF    H12 1247   2.962   2.654   2.367 -0.2944  1.1539  1.4893
   96THF    H13 1248   2.991   2.483   2.346 -0.4841  0.7945 -0.9398
   97THF     O1 1249   2.840   2.990   3.346 -0.0898 -0.0423 -0.2200
   97THF     C2 1250   2.713   3.042   3.309 -0.6433 -0.1533 -0.1496
   97THF     C3 1251   2.939   3.050   3.263 -0.2386  0.7567 -0.9118
   97THF     H4 1252   2.679   3.102   3.394 -0.5014 -0.3678  0.0587
   97THF     H5 1253   2.641   2.962   3.297  0.5634 -1.1898 -0.6807
   97THF     H6 1254   2.978   3.139   3.313 -0.2813 -0.3187  1.1228
   97THF     H7 1255   3.023   2.981   3.258  1.1619  2.3616 -0.2858
   97THF     C8 1256   2.866   3.078   3.133 -0.9488 -0.0200 -0.3242
   97THF     C9 1257   2.733   3.123   3.185  0.4887 -0.1556  0.4598
   97THF    H10 1258   2.843   2.982   3.086  1.0894  0.3616 -2.2874
   97THF    H11 1259   2.916   3.150   3.068 -2.8337  2.1945  0.5663
   97THF    H12 1260   2.737   3.227   3.218  0.7934  0.5162 -1.5424
   97THF    H13 1261   2.648   3.116   3.117 -0.3801 -2.2394  1.6796
   98THF     O1 1262   2.286   1.685   0.384  0.3146 -0.3510  0.2382
   98THF     C2 1263   2.178   1.707   0.484  0.4692  0.4195  0.4745
   98THF     C3 1264   2.332   1.815   0.364  0.1985  0.2182 -0.2967
   98THF     H4 1265   2.207   1.759   0.575  1.3792  2.2747 -0.8093
   98THF     H5 1266   2.117   1.617   0.497 -2.6076  2.4631  1.2041
   98THF     H6 1267   2.373   1.856   0.456  0.6745 -0.1025 -0.3600
   98THF     H7 1268   2.422   1.810   0.302 -0.6575  1.3254 -1.6804
   98THF     C8 1269   2.204   1.885   0.325 -0.7438  0.2817 -0.7863
   98THF     C9 1270   2.093   1.811   0.407 -0.2001  0.1896 -0.3479
   98THF    H10 1271   2.200   1.873   0.216  0.3102  0.0701 -0.8109
   98THF    H11 1272   2.205   1.993   0.343 -1.7241  0.0975  0.5152
   98THF    H12 1273   2.034   1.875   0.473  0.3204 -0.5097  0.8456
   98THF    H13 1274   2.023   1.761   0.341 -0.7537  1.1147 -0.4768
   99THF     O1 1275   2.259   5.432   1.659  0.0748 -0.1891 -0.4551
   99THF     C2 1276   2.393   5.405   1.671  0.1734 -0.1268  0.1501
   99THF     C3 1277   2.207   5.311   1.622  0.9422 -0.8360 -0.0850
   99THF     H4 1278   2.412   5.377   1.775  0.0545 -0.3381  0.1166
   99THF     H5 1279   2.437   5.505   1.668  1.9087 -0.8536 -0.2209
   99THF     H6 1280   2.200   5.244   1.707  0.0846 -1.7578 -0.8563
   99THF     H7 1281   2.106   5.326   1.582  0.5160 -0.7733  0.9723
   99THF     C8 1282   2.298   5.271   1.513 -0.0754  0.6536  0.0802
   99THF     C9 1283   2.434   5.317   1.556  0.4500 -0.4372  0.6521
   99THF    H10 1284   2.272   5.318   1.418  0.0725 -0.9549 -0.7944
   99THF    H11 1285   2.294   5.163   1.499  0.1651  0.5038  1.1193
   99THF    H12 1286   2.493   5.235   1.598  2.9049 -0.1325 -1.8868
   99THF    H13 1287   2.484   5.362   1.470 -0.0327  0.0172  0.6051
  100THF     O1 1288   1.901   2.281   4.132  0.5838 -0.0428  0.1358
  100THF     C2 1289   1.998   2.210   4.054  0.1550 -0.0477 -0.2265
  100THF     C3 1290   1.959   2.350   4.236 -0.3362  0.0795 -0.6419
  100THF     H4 1291   2.027   2.269   3.967 -0.5844 -0.0716 -0.5013
  100THF     H5 1292   1.950   2.115   4.032 -1.4328  0.2713  1.5689
  100THF     H6 1293   2.001   2.443   4.198  0.6748 -0.5224 -1.0391
  100THF     H7 1294   1.893   2.385   4.315  1.9759 -0.7028  1.8130
  100THF     C8 1295   2.065   2.253   4.277  0.5848  0.4339 -0.4256
  100THF     C9 1296   2.118   2.191   4.148  0.0388  0.0752  0.1667
  100THF    H10 1297   2.025   2.168   4.331 -1.4108  0.2999 -2.0057
  100THF    H11 1298   2.148   2.296   4.334  0.0021 -0.7689  1.3988
  100THF    H12 1299   2.199   2.254   4.110 -0.7356 -0.0580 -1.8338
  100THF    H13 1300   2.149   2.087   4.157 -0.7047 -0.1355  0.3577
  101THF     O1 1301   2.706   3.127   4.137  0.2989 -0.2392 -0.1432
  101THF     C2 1302   2.773   3.247   4.135  0.1442  0.2301 -0.5683
  101THF     C3 1303   2.799   3.031   4.184  0.0730  0.0831 -0.7078
  101THF     H4 1304   2.707   3.331   4.116  1.4967  2.0378  2.0217
  101THF     H5 1305   2.850   3.250   4.058 -1.0983  0.9233 -1.8266
  101THF     H6 1306   2.733   2.947   4.205  1.1605  0.0155  3.2246
  101THF     H7 1307   2.869   2.996   4.108  1.0691 -1.0626  0.6777
  101THF     C8 1308   2.854   3.101   4.306 -0.0889 -0.9430  0.5798
  101THF     C9 1309   2.845   3.243   4.266  0.4617  0.6009  0.4245
  101THF    H10 1310   2.957   3.067   4.318  0.1863 -0.8954 -1.3964
  101THF    H11 1311   2.800   3.080   4.398  0.0885 -1.1347  0.6417
  101THF    H12 1312   2.785   3.295   4.341 -0.3607  0.6014 -0.2233
  101THF    H13 1313   2.945   3.285   4.251  0.1945  0.8066 -0.8960
  102THF     O1 1314   5.395   3.067   4.503  0.1488  0.3675 -0.2705
  102THF     C2 1315   5.403   2.960   4.602 -0.2490 -0.1720 -0.4750
  102THF     C3 1316   5.453   3.182   4.559 -0.1353 -0.4614 -0.7301
  102THF     H4 1317   5.388   2.868   4.545 -0.1773  0.0517 -0.8602
  102THF     H5 1318   5.329   2.967   4.681  0.0064 -0.0113 -0.2455
  102THF     H6 1319   5.492   3.258   4.491 -0.8693  1.8443  1.2749
  102THF     H7 1320   5.379   3.239   4.615  1.8271 -0.4998  2.1417
  102THF     C8 1321   5.565   3.125   4.656  0.1474 -0.2915  0.4440
  102THF     C9 1322   5.545   2.982   4.662  0.1579  0.5058  0.2622
  102THF    H10 1323   5.556   3.158   4.759  1.2832 -3.7513  1.7750
  102THF    H11 1324   5.667   3.150   4.624  0.4000  1.8194  2.5705
  102THF    H12 1325   5.613   2.928   4.597 -2.0972 -0.8157 -1.1582
  102THF    H13 1326   5.558   2.945   4.764 -2.9911 -1.2733  0.1781
  103THF     O1 1327   2.233   4.321   5.313 -0.6072 -0.2275 -0.0249
  103THF     C2 1328   2.357   4.325   5.244  0.3916 -0.0337  0.1875
  103THF     C3 1329   2.137   4.268   5.220 -0.0626 -0.4808  0.2517
  103THF     H4 1330   2.391   4.223   5.224 -0.6234 -0.3250 -0.0898
  103THF     H5 1331   2.433   4.386   5.294  0.8433  0.8305 -1.4880
  103THF     H6 1332   2.104   4.166   5.242 -0.0472 -0.4180  0.5723
  103THF     H7 1333   2.051   4.333   5.233  0.4865  0.1671  0.7669
  103THF     C8 1334   2.200   4.292   5.087  0.4631 -0.3961 -0.4431
  103THF     C9 1335   2.318   4.383   5.107  0.2167  0.0142 -0.5096
  103THF    H10 1336   2.134   4.332   5.009  0.4951  1.4401  0.4299
  103THF    H11 1337   2.233   4.194   5.050 -1.9619 -0.6756 -2.0824
  103THF    H12 1338   2.390   4.387   5.025 -0.9422  0.9749 -1.5167
  103THF    H13 1339   2.277   4.483   5.121 -2.1048 -0.8937 -0.4844
  104THF     O1 1340   3.340   1.274   0.038 -0.1819 -0.1771 -0.0617
  104THF     C2 1341   3.377   1.189   0.151 -0.1457 -0.2744  0.2839
  104THF     C3 1342   3.426   1.242  -0.074  0.1870  0.0907  0.0248
  104THF     H4 1343   3.332   1.093   0.124 -2.1072  0.5041  0.6358
  104THF     H5 1344   3.334   1.223   0.245  0.8900 -0.9157  1.0140
  104THF     H6 1345   3.381   1.153  -0.117  2.4121 -0.3379 -1.5678
  104THF     H7 1346   3.428   1.318  -0.152  0.4534 -1.7549 -1.8475
  104THF     C8 1347   3.566   1.206  -0.011 -0.4889  0.3585  0.4846
  104THF     C9 1348   3.530   1.190   0.137  0.3003 -0.4354  0.4852
  104THF    H10 1349   3.634   1.289  -0.027  1.6464 -1.1071  1.4341
  104THF    H11 1350   3.611   1.112  -0.044  2.2073  0.4082  3.4694
  104THF    H12 1351   3.583   1.107   0.184  1.1255 -1.1763 -1.6543
  104THF    H13 1352   3.566   1.275   0.196 -1.4564  0.4243  0.3689
  105THF     O1 1353   4.917   4.365   0.092 -0.6796 -0.8867  0.5147
  105THF     C2 1354   5.030   4.449   0.120  0.2597 -0.0204 -0.5372
  105THF     C3 1355   4.833   4.373   0.204  0.4447  0.0858  0.8250
  105THF     H4 1356   5.076   4.487   0.029 -2.7034 -1.2047 -2.7146
  105THF     H5 1357   5.096   4.384   0.178  0.2304  0.4330  0.0166
  105THF     H6 1358   4.742   4.315   0.191  1.6745 -2.1178  1.4285
  105THF     H7 1359   4.882   4.322   0.287 -0.8581 -3.3650 -0.3677
  105THF     C8 1360   4.833   4.522   0.237 -0.3966 -0.1737  0.2256
  105THF     C9 1361   4.977   4.568   0.203  0.7249 -0.0684  0.5505
  105THF    H10 1362   4.818   4.541   0.343 -0.2990 -0.4064  0.2801
  105THF    H11 1363   4.757   4.572   0.176 -0.8666 -0.3287  0.6740
  105THF    H12 1364   4.979   4.655   0.138  1.4029  0.9620  1.8978
  105THF    H13 1365   5.039   4.591   0.290 -1.9514 -1.8409  3.1256
  106THF     O1 1366   1.075   0.127   5.084  0.2731  0.3057 -0.6891
  106THF     C2 1367   1.111   0.165   5.218  0.7367  0.0368  0.0482
  106THF     C3 1368   1.186   0.051   5.027  0.0963 -0.0243 -0.2414
  106THF     H4 1369   1.096   0.080   5.285  1.4286  1.8035  2.5788
  106THF     H5 1370   1.047   0.244   5.256  1.3640  0.4539  0.2496
  106THF     H6 1371   1.194  -0.055   5.049  1.6059  0.4320  1.6664
  106THF     H7 1372   1.189   0.071   4.920  0.0958  0.7325 -0.1055
  106THF     C8 1373   1.306   0.115   5.091 -0.8765 -0.4118  0.2685
  106THF     C9 1374   1.253   0.217   5.196  0.1624 -0.0176 -0.6170
  106THF    H10 1375   1.373   0.157   5.016 -0.0547 -1.8844  0.1375
  106THF    H11 1376   1.369   0.038   5.136  0.7189 -0.4799 -1.9169
  106THF    H12 1377   1.308   0.220   5.290 -0.2631  1.8125 -0.3888
  106THF    H13 1378   1.261   0.313   5.145 -0.4316  0.1336 -0.4315
  107THF     O1 1379   2.774   5.228   1.361 -0.8679  0.6427  0.5754
  107THF     C2 1380   2.800   5.354   1.422  0.2371 -0.1332 -0.0814
  107THF     C3 1381   2.895   5.178   1.298  0.3752 -0.8815  0.2058
  107THF     H4 1382   2.744   5.356   1.515  0.5670  1.3431  0.1069
  107THF     H5 1383   2.755   5.439   1.370 -2.2852 -0.8567  0.7454
  107THF     H6 1384   2.909   5.082   1.347 -0.6802 -0.7669  0.7486
  107THF     H7 1385   2.884   5.162   1.191 -0.5212  1.4604 -0.1267
  107THF     C8 1386   3.000   5.287   1.323  0.6080 -0.0013  0.6041
  107THF     C9 1387   2.950   5.368   1.439  0.7456  0.3113 -0.2782
  107THF    H10 1388   3.018   5.355   1.240 -1.8706  1.0346  0.8324
  107THF    H11 1389   3.099   5.264   1.364  2.1041  2.1046 -1.5198
  107THF    H12 1390   2.973   5.319   1.533  0.2203 -0.8704 -0.7427
  107THF    H13 1391   2.989   5.469   1.449  0.6847  0.3477 -0.4001
  108THF     O1 1392   1.071   4.479   2.815 -0.1214 -0.5188  0.3928
  108THF     C2 1393   0.938   4.538   2.804  0.0805 -0.0380  0.1638
  108THF     C3 1394   1.154   4.567   2.880 -0.8691  0.6058 -0.3947
  108THF     H4 1395   0.873   4.481   2.871  1.9619 -0.4642  1.6862
  108THF     H5 1396   0.898   4.543   2.703  0.8880 -3.3015 -0.4157
  108THF     H6 1397   1.152   4.543   2.987  2.1001  2.4008  0.1796
  108THF     H7 1398   1.258   4.566   2.848  0.1556  0.3939  2.5569
  108THF     C8 1399   1.084   4.699   2.852 -0.6968  0.8246 -0.7186
  108THF     C9 1400   0.946   4.677   2.864 -0.2312  0.3432 -0.1871
  108THF    H10 1401   1.097   4.735   2.749 -1.4132  1.7224 -0.5078
  108THF    H11 1402   1.113   4.777   2.922  3.3481 -1.4745  0.4704
  108THF    H12 1403   0.903   4.677   2.964  1.1571 -2.0846  0.4703
  108THF    H13 1404   0.885   4.745   2.803 -0.0540  0.1036 -0.6347
  109THF     O1 1405   0.800   4.030   1.884 -0.2170  0.3243  0.0320
  109THF     C2 1406   0.919   4.104   1.918  0.2430  0.9824 -0.1499
  109THF     C3 1407   0.772   3.923   1.969  1.3226  0.1338  1.6072
  109THF     H4 1408   0.899   4.208   1.946 -0.5040  1.2952 -1.7352
  109THF     H5 1409   1.000   4.083   1.849 -1.2621  1.4283 -2.1280
  109THF     H6 1410   0.710   3.956   2.052  2.0989  1.3923  1.7108
  109THF     H7 1411   0.728   3.836   1.920  1.0182  1.2225 -0.1330
  109THF     C8 1412   0.901   3.888   2.025 -0.1552 -0.8067  0.2319
  109THF     C9 1413   0.953   4.030   2.049 -0.2563  0.0649  0.7732
  109THF    H10 1414   0.961   3.842   1.947 -1.9943  0.0267 -1.7802
  109THF    H11 1415   0.893   3.826   2.114  0.1861 -1.9080 -0.4928
  109THF    H12 1416   0.906   4.068   2.140  0.9364 -1.1527  1.9403
  109THF    H13 1417   1.061   4.040   2.058 -0.0711  1.7636 -2.0214
  110THF     O1 1418   4.842   1.984   2.020  0.3028  0.3070  0.2674
  110THF     C2 1419   4.879   1.965   2.158  0.3393  0.4365  0.5593
  110THF     C3 1420   4.955   2.054   1.965  0.1639 -0.3282  0.0356
  110THF     H4 1421   4.913   1.862   2.169  1.4451  0.8054  0.7659
  110THF     H5 1422   4.797   1.984   2.227 -0.8190  0.4546 -0.8065
  110THF     H6 1423   5.001   1.992   1.889 -0.9918  0.7075 -1.5658
  110THF     H7 1424   4.914   2.141   1.914 -0.5378 -1.7206 -1.8642
  110THF     C8 1425   5.058   2.091   2.075  0.6955  0.4260  0.3159
  110THF     C9 1426   4.971   2.069   2.199 -0.4154 -0.2413  0.6150
  110THF    H10 1427   5.104   2.189   2.080 -1.0864  1.2430  1.6208
  110THF    H11 1428   5.137   2.015   2.071  1.3514  1.0096  1.5844
  110THF    H12 1429   5.023   2.050   2.293  1.6563  1.6994 -0.0610
  110THF    H13 1430   4.920   2.165   2.199 -1.0357 -0.5568 -0.6227
  111THF     O1 1431   1.609   5.212   1.088  0.8705 -0.0174 -0.3292
  111THF     C2 1432   1.614   5.273   1.216  0.4331  0.8522  0.3463
  111THF     C3 1433   1.696   5.271   0.999  0.0322  0.4568 -0.3012
  111THF     H4 1434   1.627   5.190   1.286  2.2358  0.3395 -0.5499
  111THF     H5 1435   1.525   5.317   1.263 -0.2624 -0.9709  0.8237
  111THF     H6 1436   1.718   5.197   0.922 -2.7453 -1.1433  0.3036
  111THF     H7 1437   1.645   5.358   0.957  0.8466  1.0881 -0.0116
  111THF     C8 1438   1.815   5.294   1.096  0.0665 -0.0559 -0.5652
  111THF     C9 1439   1.743   5.353   1.213  0.6346 -0.3668  0.9377
  111THF    H10 1440   1.890   5.365   1.060  1.5406 -0.9044  0.6757
  111THF    H11 1441   1.873   5.203   1.114  1.7658  0.9541 -0.6939
  111THF    H12 1442   1.806   5.346   1.301  0.4779 -1.2512  0.9848
  111THF    H13 1443   1.728   5.461   1.198 -0.9469 -0.3429  2.3554
  112THF     O1 1444   0.093   1.480   0.101 -0.0883  0.6262 -0.0476
  112THF     C2 1445   0.186   1.579   0.080 -0.0632 -0.2923  0.0325
  112THF     C3 1446  -0.005   1.490   0.005  0.2804  0.0421  0.2707
  112THF     H4 1447   0.263   1.544   0.011  1.0735  0.4521  0.8665
  112THF     H5 1448   0.242   1.592   0.173  0.9278 -0.9653 -0.4450
  112THF     H6 1449   0.038   1.451  -0.087 -1.1695 -0.9280 -0.0294
  112THF     H7 1450  -0.093   1.432   0.031  0.7072  0.1778  2.1588
  112THF     C8 1451  -0.027   1.643   0.011  0.2300 -0.2996  0.1874
  112THF     C9 1452   0.107   1.703   0.049 -0.8295 -0.6105  0.4067
  112THF    H10 1453  -0.101   1.652   0.090  1.3566 -1.7219  1.4598
  112THF    H11 1454  -0.068   1.685  -0.081  2.6909  1.9150 -0.0352
  112THF    H12 1455   0.162   1.759  -0.026  0.8882 -1.5843  0.8897
  112THF    H13 1456   0.095   1.759   0.142 -2.2234 -0.2192  0.0267
  113THF     O1 1457   3.148   2.398   1.146  0.3160  0.0514  0.6767
  113THF     C2 1458   3.004   2.411   1.154 -0.7084  0.2088  0.5953
  113THF     C3 1459   3.191   2.261   1.131  0.1268 -1.0067 -0.2275
  113THF     H4 1460   2.968   2.419   1.051 -1.1915 -2.3035  0.4940
  113THF     H5 1461   2.964   2.500   1.202 -0.2041  0.6968  0.1323
  113THF     H6 1462   3.188   2.228   1.027 -1.1310  0.7540 -0.8053
  113THF     H7 1463   3.292   2.240   1.164  0.6419 -0.9090 -1.6800
  113THF     C8 1464   3.086   2.191   1.222  0.0052  0.2476  0.1966
  113THF     C9 1465   2.962   2.283   1.231 -0.3714  0.1527 -0.8004
  113THF    H10 1466   3.129   2.189   1.322  2.5304 -1.9555 -0.8197
  113THF    H11 1467   3.068   2.097   1.171 -0.1557  0.4914 -0.2012
  113THF    H12 1468   2.866   2.250   1.191 -0.2075  0.9016 -1.8880
  113THF    H13 1469   2.945   2.313   1.334  0.2349 -1.8582 -0.0661
  114THF     O1 1470   4.944   1.090   3.981  0.2921  0.0474 -0.0171
  114THF     C2 1471   4.985   1.133   4.114 -0.1749 -0.8199  0.5222
  114THF     C3 1472   4.801   1.091   3.985 -0.4800 -0.7789 -0.4119
  114THF     H4 1473   4.981   1.241   4.131 -0.8860 -0.8807  0.7751
  114THF     H5 1474   5.086   1.095   4.128 -0.6034 -2.6240 -1.0006
  114THF     H6 1475   4.770   1.195   3.985  0.8423 -0.3629 -1.3691
  114THF     H7 1476   4.743   1.044   3.906 -0.0398 -0.6003 -0.8484
  114THF     C8 1477   4.770   1.032   4.125  0.4472 -0.6207  0.5244
  114THF     C9 1478   4.887   1.062   4.210 -0.1433  0.4883 -0.1143
  114THF    H10 1479   4.744   0.927   4.116  1.2288 -0.8257  0.5587
  114THF    H11 1480   4.677   1.080   4.157 -0.4086 -0.0911 -2.4826
  114THF    H12 1481   4.856   1.130   4.290 -0.2971 -1.6042  1.6813
  114THF    H13 1482   4.932   0.974   4.256  1.4451  0.4311 -1.6688
  115THF     O1 1483   1.119   5.256   4.147  0.6144 -0.6941 -0.2693
  115THF     C2 1484   0.987   5.232   4.084  0.2992 -1.2634  0.1086
  115THF     C3 1485   1.185   5.353   4.066  0.2625 -0.3547 -0.1460
  115THF     H4 1486   0.925   5.307   4.132  1.7797 -1.1919  2.0604
  115THF     H5 1487   0.944   5.134   4.103 -1.3153 -0.4338  0.8616
  115THF     H6 1488   1.153   5.453   4.093 -1.4370 -0.2086 -2.4076
  115THF     H7 1489   1.294   5.347   4.062  0.4620  2.1519  0.3424
  115THF     C8 1490   1.135   5.336   3.923 -0.1292  0.1083  0.5363
  115THF     C9 1491   1.002   5.264   3.927  0.2456  0.4107 -0.3103
  115THF    H10 1492   1.211   5.283   3.865  0.2259 -0.9184  1.8917
  115THF    H11 1493   1.129   5.430   3.869 -3.8215 -0.4085 -0.2140
  115THF    H12 1494   0.917   5.324   3.894 -0.8056 -1.5820 -1.3370
  115THF    H13 1495   1.004   5.169   3.875  0.4734 -1.3103  2.6360
  116THF     O1 1496   2.797   4.011   0.388  0.3829  0.0334 -0.0618
  116THF     C2 1497   2.706   3.919   0.320  0.5309 -0.8930  0.9397
  116THF     C3 1498   2.894   3.939   0.462  0.1249  0.7265  0.0099
  116THF     H4 1499   2.703   3.955   0.217 -0.2465 -0.5648  1.0685
  116THF     H5 1500   2.604   3.923   0.358 -0.1909 -2.4825 -0.6661
  116THF     H6 1501   2.980   3.934   0.396  0.5348 -2.0111  0.6210
  116THF     H7 1502   2.920   3.990   0.556  0.1905  0.6885  0.0120
  116THF     C8 1503   2.838   3.797   0.472 -0.7094  0.1882 -0.5942
  116THF     C9 1504   2.758   3.777   0.347 -0.0426  0.0219  0.5833
  116THF    H10 1505   2.771   3.796   0.558 -0.7196 -0.7738 -0.5995
  116THF    H11 1506   2.915   3.723   0.493 -0.7314  0.2947 -0.1350
  116THF    H12 1507   2.822   3.734   0.269 -1.4796 -0.3852 -0.4211
  116THF    H13 1508   2.681   3.701   0.353  0.5434 -0.8395 -1.6933
  117THF     O1 1509   4.574   3.306   0.812 -0.2337 -0.1205 -0.1724
  117THF     C2 1510   4.492   3.189   0.843 -0.3203 -0.5739  0.1037
  117THF     C3 1511   4.547   3.387   0.932  0.0972 -0.6812  0.1795
  117THF     H4 1512   4.527   3.105   0.782 -0.7398 -1.2523  0.7706
  117THF     H5 1513   4.386   3.193   0.819  0.1672  0.5120 -2.1523
  117THF     H6 1514   4.645   3.428   0.957 -0.4214  0.1544  0.9382
  117THF     H7 1515   4.479   3.472   0.920  0.6285 -0.5604 -2.3202
  117THF     C8 1516   4.487   3.299   1.042  0.4170  0.1965 -0.1723
  117THF     C9 1517   4.516   3.167   0.997  0.3747  0.2860  0.1199
  117THF    H10 1518   4.380   3.318   1.051  0.5327  1.1547 -0.6878
  117THF    H11 1519   4.528   3.330   1.139  0.9145 -1.5311  0.2065
  117THF    H12 1520   4.622   3.160   1.021 -0.0059  0.8178  2.2074
  117THF    H13 1521   4.465   3.079   1.035  0.5396 -0.5963 -1.5948
  118THF     O1 1522   2.941   0.448   3.962  0.4886  0.0079 -0.0534
  118THF     C2 1523   2.987   0.518   4.083  0.2501 -0.0516  0.0062
  118THF     C3 1524   2.910   0.538   3.862  0.1952 -0.7113  0.0862
  118THF     H4 1525   3.083   0.492   4.126  1.1456  1.2466 -1.1149
  118THF     H5 1526   2.909   0.508   4.158  1.0226  0.3628  0.8825
  118THF     H6 1527   2.992   0.548   3.790  0.2909  0.9377  0.3911
  118THF     H7 1528   2.819   0.500   3.816 -0.2593 -1.0756  1.2475
  118THF     C8 1529   2.889   0.670   3.933  0.4906 -0.0097  0.4050
  118THF     C9 1530   2.996   0.664   4.036 -0.0598 -0.0968 -0.0585
  118THF    H10 1531   2.793   0.668   3.984 -1.3774  1.1311 -2.7221
  118THF    H11 1532   2.899   0.761   3.873  2.1682  0.0575  0.7574
  118THF    H12 1533   3.096   0.683   3.999 -0.1706  0.3329 -0.1429
  118THF    H13 1534   2.979   0.727   4.124  0.8437 -2.1803  1.7077
  119THF     O1 1535   5.044   0.880   3.150 -0.0407 -0.2293  0.8894
  119THF     C2 1536   4.962   0.785   3.215  0.5888  0.1848  0.0042
  119THF     C3 1537   5.144   0.801   3.082  0.2548 -0.4376 -0.5357
  119THF     H4 1538   4.903   0.742   3.134  2.5156  1.1818 -2.0108
  119THF     H5 1539   4.884   0.828   3.277 -2.2801 -1.2701 -2.3305
  119THF     H6 1540   5.096   0.748   2.999 -2.1777  2.3366 -1.0763
  119THF     H7 1541   5.236   0.843   3.043  1.1926 -1.2311  0.7504
  119THF     C8 1542   5.178   0.709   3.202 -0.3961 -0.3254 -0.7709
  119THF     C9 1543   5.055   0.697   3.298 -0.4188 -0.6756 -0.5072
  119THF    H10 1544   5.263   0.735   3.265 -1.1476 -0.9490  0.5404
  119THF    H11 1545   5.200   0.605   3.176 -0.1897 -0.8418  1.3142
  119THF    H12 1546   5.022   0.593   3.305 -1.8125 -0.3319 -1.4991
  119THF    H13 1547   5.083   0.739   3.394 -0.3746  0.2290 -0.9072
  120THF     O1 1548   3.876   4.628   1.611  0.1215  0.5918 -0.6304
  120THF     C2 1549   3.889   4.749   1.536 -0.6156  0.7787 -0.9874
  120THF     C3 1550   3.776   4.653   1.711  0.0043 -0.1395  0.2821
  120THF     H4 1551   3.819   4.747   1.453 -1.5642 -1.0783 -0.2142
  120THF     H5 1552   3.991   4.736   1.498 -0.2550  0.3274  0.0957
  120THF     H6 1553   3.677   4.653   1.665  0.4682  0.5926 -0.7666
  120THF     H7 1554   3.779   4.589   1.799 -0.1278 -1.5096 -0.6797
  120THF     C8 1555   3.809   4.790   1.759 -0.2779 -0.0325  0.4918
  120THF     C9 1556   3.861   4.861   1.634 -0.0657  0.2263  0.3047
  120THF    H10 1557   3.883   4.774   1.838  0.7542  1.2730 -0.1777
  120THF    H11 1558   3.722   4.838   1.805 -1.3377 -1.8479  0.4669
  120THF    H12 1559   3.787   4.930   1.593 -0.7705 -0.3205  0.6446
  120THF    H13 1560   3.956   4.914   1.643  0.6046 -0.6266 -1.2831
  121THF     O1 1561   5.464   4.875   1.438  0.0565 -0.9246 -0.5506
  121THF     C2 1562   5.342   4.810   1.454 -0.5025  0.1785  0.2509
  121THF     C3 1563   5.558   4.832   1.536  0.4665  0.2359 -0.2560
  121THF     H4 1564   5.338   4.717   1.399  0.0022  1.0509 -1.3107
  121THF     H5 1565   5.267   4.876   1.411 -0.6931 -1.3547 -1.8916
  121THF     H6 1566   5.618   4.756   1.486  0.0301 -0.8265  0.7896
  121THF     H7 1567   5.616   4.921   1.563  1.9179 -0.8134  0.2321
  121THF     C8 1568   5.479   4.776   1.652  0.1364  0.4693 -0.6504
  121THF     C9 1569   5.331   4.793   1.604  0.2987 -0.3702  0.9055
  121THF    H10 1570   5.497   4.828   1.746  1.1976  0.7969 -1.0211
  121THF    H11 1571   5.489   4.668   1.665  1.1585  0.5770 -0.4634
  121THF    H12 1572   5.269   4.711   1.640 -0.7405  0.3147  0.7235
  121THF    H13 1573   5.287   4.890   1.626 -0.3100  0.1817 -2.3461
  122THF     O1 1574   3.090   4.743   3.094  0.7619 -0.5513  0.4137
  122THF     C2 1575   3.029   4.877   3.081  0.1882  0.2295 -0.1616
  122THF     C3 1576   3.034   4.663   2.991 -0.2939 -1.2912  1.1195
  122THF     H4 1577   3.077   4.917   2.991 -0.2414 -0.5024 -0.7372
  122THF     H5 1578   3.045   4.932   3.173  5.5877  0.9987 -1.2565
  122THF     H6 1579   3.073   4.687   2.892 -1.8840 -0.6197  0.6209
  122THF     H7 1580   3.060   4.559   3.007  1.3445 -1.0247  0.3344
  122THF     C8 1581   2.884   4.712   2.991 -0.0344  0.4985  0.8107
  122THF     C9 1582   2.887   4.847   3.053 -0.2904  0.7010 -0.3998
  122THF    H10 1583   2.822   4.640   3.044  0.3414 -0.7043 -0.3540
  122THF    H11 1584   2.850   4.716   2.888  3.8464  0.1833 -0.6285
  122THF    H12 1585   2.838   4.928   3.000 -0.0721 -0.6212 -2.7669
  122THF    H13 1586   2.841   4.829   3.151  1.1830  1.0766  0.3877
  123THF     O1 1587   1.688   0.801   4.626 -0.2766  0.2754 -0.2621
  123THF     C2 1588   1.658   0.921   4.561 -0.6897  0.1823 -0.1893
  123THF     C3 1589   1.638   0.801   4.756 -0.3604  0.2864 -0.9750
  123THF     H4 1590   1.590   0.895   4.479 -0.4937 -0.5705 -0.1190
  123THF     H5 1591   1.749   0.958   4.515 -0.4928  0.3401  0.3313
  123THF     H6 1592   1.607   0.699   4.780 -2.2221  0.2268 -3.3055
  123THF     H7 1593   1.709   0.839   4.829 -2.7511 -1.7046  2.6925
  123THF     C8 1594   1.530   0.905   4.755  0.3037 -0.0846  0.2844
  123THF     C9 1595   1.584   1.010   4.653 -0.2057  0.2709 -0.2824
  123THF    H10 1596   1.499   0.951   4.848 -1.9369  0.2593 -0.5781
  123THF    H11 1597   1.444   0.858   4.708 -0.4409  1.0034  0.5465
  123THF    H12 1598   1.495   1.060   4.614  0.9838  0.4895 -2.9496
  123THF    H13 1599   1.654   1.082   4.694  1.2289 -0.8318 -0.7083
  124THF     O1 1600   1.467   5.493   1.869 -0.3472 -0.0211 -0.1339
  124THF     C2 1601   1.454   5.619   1.935  0.2692 -0.6643 -0.0413
  124THF     C3 1602   1.337   5.453   1.835 -0.5512  0.0822 -0.1068
  124THF     H4 1603   1.484   5.710   1.882 -0.2811  0.4418  1.4670
  124THF     H5 1604   1.516   5.603   2.024  1.6759  0.4282 -0.7679
  124THF     H6 1605   1.305   5.502   1.743 -0.6467  0.1866 -0.0183
  124THF     H7 1606   1.344   5.345   1.831 -1.2582 -0.0456  1.5121
  124THF     C8 1607   1.253   5.496   1.961 -0.1378 -0.1849  0.5231
  124THF     C9 1608   1.309   5.639   1.967  0.2149 -0.0812 -0.5208
  124THF    H10 1609   1.275   5.452   2.058  1.0247 -0.3754  0.1878
  124THF    H11 1610   1.148   5.483   1.933 -0.0659  0.3942 -0.0456
  124THF    H12 1611   1.259   5.703   1.894 -0.4539  1.2682  1.0508
  124THF    H13 1612   1.287   5.688   2.061  1.0318 -1.9404  0.6955
  125THF     O1 1613   2.054   1.179   2.347 -0.3030 -0.0821 -0.3036
  125THF     C2 1614   1.958   1.086   2.294  0.2638  0.0778 -0.1580
  125THF     C3 1615   2.147   1.212   2.245  0.5873 -0.2776  0.8720
  125THF     H4 1616   1.864   1.138   2.277 -0.3342 -0.4168  1.4065
  125THF     H5 1617   1.921   1.011   2.364  0.6815  2.4716  2.8524
  125THF     H6 1618   2.130   1.317   2.220  0.0596 -0.6900 -0.6225
  125THF     H7 1619   2.251   1.211   2.277  1.1774  0.1483 -0.9043
  125THF     C8 1620   2.132   1.107   2.137  0.1203  0.4639 -0.3481
  125THF     C9 1621   2.019   1.014   2.175  0.0203  0.0894  0.5546
  125THF    H10 1622   2.224   1.048   2.140 -0.8977 -1.1633  0.9915
  125THF    H11 1623   2.113   1.167   2.049  2.4268  0.8506 -0.6538
  125THF    H12 1624   1.951   1.007   2.090 -0.1654 -0.4804  0.7429
  125THF    H13 1625   2.055   0.916   2.207  3.3734  0.8806 -0.3288
  126THF     O1 1626   5.307   4.238   1.860  0.1589 -0.0125  0.0801
  126THF     C2 1627   5.189   4.309   1.823 -0.5269  0.3989 -0.1374
  126THF     C3 1628   5.394   4.337   1.926 -0.1200  0.5119  0.0789
  126THF     H4 1629   5.123   4.318   1.910  0.1027  1.3835  0.2529
  126THF     H5 1630   5.125   4.273   1.742  0.5360 -0.9052 -0.4175
  126THF     H6 1631   5.403   4.318   2.033  0.3750 -1.3208 -0.2519
  126THF     H7 1632   5.494   4.304   1.896 -0.6538 -2.1749  0.9633
  126THF     C8 1633   5.339   4.468   1.881  0.5645  0.2768  0.2852
  126THF     C9 1634   5.241   4.441   1.771  0.1059 -0.0216  0.1607
  126THF    H10 1635   5.416   4.542   1.858  0.7091  0.8791  2.4656
  126THF    H11 1636   5.288   4.513   1.966 -0.7662  1.0103 -0.8562
  126THF    H12 1637   5.173   4.525   1.754 -1.1935 -1.1845 -0.5103
  126THF    H13 1638   5.290   4.412   1.678 -3.1659 -1.8523 -1.1374
  127THF     O1 1639   1.367   1.735   1.792  0.0193  0.3156 -0.3443
  127THF     C2 1640   1.228   1.719   1.802 -0.4317 -0.2920  0.1677
  127THF     C3 1641   1.418   1.759   1.917 -0.1264  0.7606  0.2145
  127THF     H4 1642   1.175   1.684   1.713 -0.7882  0.6148  0.0134
  127THF     H5 1643   1.190   1.816   1.832 -1.0703 -0.5965  0.3537
  127THF     H6 1644   1.526   1.746   1.921 -0.3146 -0.9222  0.5517
  127THF     H7 1645   1.403   1.866   1.927  0.3635  0.9483 -0.8821
  127THF     C8 1646   1.340   1.656   2.016  0.2953 -0.1063  0.0719
  127THF     C9 1647   1.218   1.636   1.930  0.5034 -0.1492 -0.2938
  127THF    H10 1648   1.318   1.683   2.120 -0.2760 -0.4868  0.0536
  127THF    H11 1649   1.396   1.562   2.025  0.2067 -0.2042 -0.4141
  127THF    H12 1650   1.219   1.531   1.900  0.5345 -0.2901  0.1993
  127THF    H13 1651   1.124   1.649   1.983  0.4054  1.0525 -0.7388
  128THF     O1 1652   1.090   4.123   3.253  0.2199  0.1521 -0.1260
  128THF     C2 1653   1.169   4.006   3.220  0.7528  0.2382  0.0840
  128THF     C3 1654   1.092   4.117   3.398  0.2819 -0.9087  0.0383
  128THF     H4 1655   1.272   4.026   3.249  0.2931  3.5521 -0.1211
  128THF     H5 1656   1.155   3.976   3.116 -1.2198  1.8383 -0.1809
  128THF     H6 1657   1.194   4.138   3.428 -0.4088 -0.3458  2.1873
  128THF     H7 1658   1.023   4.190   3.442  0.5790 -0.1455 -0.7334
  128THF     C8 1659   1.057   3.972   3.436  0.3621  0.2935 -0.6573
  128THF     C9 1660   1.121   3.898   3.316 -0.3424  0.1365 -0.1337
  128THF    H10 1661   0.951   3.947   3.437  0.5003 -0.6243 -2.8335
  128THF    H11 1662   1.104   3.956   3.533 -0.8688 -3.0611 -0.4936
  128THF    H12 1663   1.200   3.832   3.352 -1.2312 -0.9973 -0.2077
  128THF    H13 1664   1.048   3.835   3.267 -0.1033 -0.5463  0.3810
  129THF     O1 1665   1.376   0.179   2.881  0.7568  0.1766 -0.0414
  129THF     C2 1666   1.344   0.130   3.013 -0.0881  0.0244 -0.1512
  129THF     C3 1667   1.280   0.119   2.791 -0.3265 -0.1219 -0.1223
  129THF     H4 1668   1.281   0.209   3.055  1.0976  0.1759  1.4332
  129THF     H5 1669   1.432   0.133   3.077  0.6476 -1.1848 -1.0722
  129THF     H6 1670   1.180   0.157   2.810  1.1157  4.2236 -0.1742
  129THF     H7 1671   1.309   0.126   2.687  1.8961 -0.3390  0.4216
  129THF     C8 1672   1.294  -0.019   2.845 -0.0120  0.0900 -0.1849
  129THF     C9 1673   1.285  -0.006   2.994  0.1092  0.0691 -0.0560
  129THF    H10 1674   1.394  -0.041   2.809 -0.2783  1.0697 -1.6314
  129THF    H11 1675   1.208  -0.073   2.803 -2.0789  2.0841  1.2276
  129THF    H12 1676   1.182  -0.003   3.030  0.8277  0.9070  2.0686
  129THF    H13 1677   1.353  -0.075   3.043  0.0720 -1.1148 -1.5981
  130THF     O1 1678   5.094   5.380   4.466  0.5351  1.1084  0.6013
  130THF     C2 1679   4.974   5.436   4.524  0.1471  0.0995 -0.0809
  130THF     C3 1680   5.188   5.403   4.562  0.1039  0.5063 -0.0126
  130THF     H4 1681   4.881   5.404   4.477  0.1074 -0.2152  0.2020
  130THF     H5 1682   4.972   5.545   4.524 -3.8342  0.3601 -5.0222
  130THF     H6 1683   5.278   5.348   4.536 -0.6280 -0.7509  0.0359
  130THF     H7 1684   5.210   5.509   4.579 -0.4578  0.7839 -0.9264
  130THF     C8 1685   5.125   5.348   4.688  0.2239 -0.1943  0.1392
  130THF     C9 1686   4.967   5.385   4.670 -0.6474  0.8214  0.0846
  130THF    H10 1687   5.167   5.411   4.767 -3.8564  2.9864  0.1583
  130THF    H11 1688   5.148   5.243   4.705 -0.5757 -0.4981 -0.5529
  130THF    H12 1689   4.898   5.301   4.663  0.7475 -0.4912  1.1401
  130THF    H13 1690   4.928   5.464   4.734  1.0205  1.3225  0.5278
  131THF     O1 1691   3.389   5.074   2.683 -0.1793  0.2603 -0.1177
  131THF     C2 1692   3.344   5.001   2.792 -0.3683  0.2121  0.3719
  131THF     C3 1693   3.501   5.143   2.727 -0.3974 -0.5822 -0.2408
  131THF     H4 1694   3.404   4.911   2.795 -0.0063  0.4217 -0.2600
  131THF     H5 1695   3.242   4.966   2.773  0.4304 -1.7149 -0.5629
  131THF     H6 1696   3.583   5.072   2.724  0.5851  0.5249 -0.7505
  131THF     H7 1697   3.528   5.222   2.656 -1.3808  0.7334  0.8012
  131THF     C8 1698   3.474   5.178   2.870  0.0073 -0.0534  0.3284
  131THF     C9 1699   3.368   5.085   2.919  0.5129 -0.2588 -0.5570
  131THF    H10 1700   3.441   5.281   2.878 -0.3906 -0.2675  1.9110
  131THF    H11 1701   3.561   5.167   2.935  0.1152 -1.2551  0.0018
  131THF    H12 1702   3.398   5.024   3.004  1.6352  0.5842 -0.3193
  131THF    H13 1703   3.280   5.144   2.943 -0.4284 -1.5011 -0.8115
  132THF     O1 1704   2.140   1.072   2.759  0.3082  0.3776  0.2066
  132THF     C2 1705   2.030   1.007   2.703  0.6259 -0.5001  0.8661
  132THF     C3 1706   2.108   1.209   2.762 -0.6780 -0.3483  0.2976
  132THF     H4 1707   2.009   0.905   2.735  2.8532 -1.6229 -0.8532
  132THF     H5 1708   2.042   0.987   2.596 -1.5020  0.5215  0.4054
  132THF     H6 1709   2.101   1.229   2.869 -0.3907 -0.5231  0.3511
  132THF     H7 1710   2.189   1.275   2.730  1.1567 -2.3523  0.5837
  132THF     C8 1711   1.974   1.230   2.699  0.4669 -0.2685  0.7543
  132THF     C9 1712   1.915   1.099   2.728  0.4549 -0.3070  0.2300
  132THF    H10 1713   1.978   1.241   2.590 -0.0487  2.9435  0.9620
  132THF    H11 1714   1.928   1.320   2.740 -1.9423 -1.5123  0.9650
  132THF    H12 1715   1.882   1.085   2.830 -0.7552  0.1597 -0.0819
  132THF    H13 1716   1.838   1.062   2.661  0.4458 -1.4414  0.8425
  133THF     O1 1717   3.485   3.766   5.282 -0.2584 -0.3890  0.1153
  133THF     C2 1718   3.345   3.747   5.271 -0.4336  0.1494  1.1307
  133THF     C3 1719   3.522   3.878   5.357 -0.2686  0.2886 -0.4814
  133THF     H4 1720   3.316   3.642   5.274  2.2808 -0.7456 -0.4499
  133THF     H5 1721   3.303   3.783   5.176  0.9530 -0.8124  0.1114
  133THF     H6 1722   3.622   3.864   5.397 -0.6786  0.4179  0.6131
  133THF     H7 1723   3.525   3.968   5.296 -2.5379  0.8940  0.1926
  133THF     C8 1724   3.419   3.884   5.466  0.0375 -0.2024  0.1606
  133THF     C9 1725   3.303   3.835   5.385  0.1254 -0.1557  0.1864
  133THF    H10 1726   3.416   3.978   5.520  1.3937  0.6477 -1.1587
  133THF    H11 1727   3.443   3.811   5.544 -1.7570 -0.4215  0.5410
  133THF    H12 1728   3.227   3.795   5.453 -0.0636  1.7822  1.1962
  133THF    H13 1729   3.254   3.918   5.335  0.0536 -1.3235 -1.7647
  134THF     O1 1730   3.958   1.886   5.027  0.2608 -0.0740  0.2248
  134THF     C2 1731   3.955   1.756   4.986 -0.3392  0.9147 -0.2113
  134THF     C3 1732   3.829   1.893   5.092 -0.0812  0.5188  0.2249
  134THF     H4 1733   3.959   1.673   5.057  0.6556 -0.0237 -1.3269
  134THF     H5 1734   4.046   1.750   4.926  0.0225  1.8300  0.2312
  134THF     H6 1735   3.816   1.846   5.189 -0.9970 -0.0748 -0.1713
  134THF     H7 1736   3.808   1.999   5.107  0.7668  1.0398 -1.8747
  134THF     C8 1737   3.732   1.833   4.997 -0.1190  0.2102  0.2047
  134THF     C9 1738   3.826   1.746   4.903 -0.1987 -0.4069 -0.1053
  134THF    H10 1739   3.680   1.907   4.937 -2.0504 -0.4457  0.9928
  134THF    H11 1740   3.650   1.783   5.049 -0.6666 -0.0587 -0.8796
  134THF    H12 1741   3.797   1.642   4.893  0.5890 -0.6432  0.0414
  134THF    H13 1742   3.832   1.802   4.809  0.7486 -0.0214  0.1701
  135THF     O1 1743   0.506   3.184   0.333  0.2638 -0.2881  0.7877
  135THF     C2 1744   0.417   3.294   0.309 -0.4633 -0.1237  0.4774
  135THF     C3 1745   0.468   3.089   0.239 -0.1213  0.5384  0.1817
  135THF     H4 1746   0.447   3.361   0.229  1.2913  0.6185  1.6998
  135THF     H5 1747   0.416   3.354   0.400 -0.3474  0.4584  0.1030
  135THF     H6 1748   0.513   3.105   0.142 -1.0018  0.9948 -0.1555
  135THF     H7 1749   0.492   2.987   0.272 -2.7189 -0.1835  0.0882
  135THF     C8 1750   0.315   3.095   0.240  0.0509 -0.1169 -1.1147
  135THF     C9 1751   0.280   3.235   0.278  0.2599  0.3321  0.0370
  135THF    H10 1752   0.277   3.025   0.314  3.4005 -0.9592  0.0059
  135THF    H11 1753   0.279   3.055   0.144 -0.4814 -1.2370 -0.4732
  135THF    H12 1754   0.245   3.283   0.187  0.6456  1.5550  0.5188
  135THF    H13 1755   0.211   3.237   0.363  2.2454  1.9381  1.7135
  136THF     O1 1756   3.321   4.611   5.200  0.2801 -0.1076 -0.4583
  136THF     C2 1757   3.384   4.642   5.082 -0.5212  0.7305 -0.0989
  136THF     C3 1758   3.288   4.733   5.267  0.0997  0.0034  0.5228
  136THF     H4 1759   3.384   4.563   5.007 -0.0872 -0.3430  0.9948
  136THF     H5 1760   3.490   4.653   5.106 -0.9005 -0.3038  2.3439
  136THF     H6 1761   3.190   4.737   5.313 -0.3187 -0.6567 -0.2959
  136THF     H7 1762   3.349   4.734   5.357 -1.7300  0.0496  1.8082
  136THF     C8 1763   3.308   4.846   5.159  0.0463  0.7166 -0.1578
  136THF     C9 1764   3.318   4.770   5.037 -0.2578  0.4732  0.1341
  136THF    H10 1765   3.397   4.907   5.172  0.2812  0.9463 -2.4815
  136THF    H11 1766   3.214   4.900   5.150 -0.7085 -0.4767  0.2594
  136THF    H12 1767   3.217   4.753   4.999  0.1560  1.4869 -1.5257
  136THF    H13 1768   3.367   4.821   4.954  0.9923  1.2201  1.3029
  137THF     O1 1769   4.228   0.347   2.450  0.0374 -0.2939 -0.6867
  137THF     C2 1770   4.334   0.405   2.513  0.4511 -0.6502  0.5686
  137THF     C3 1771   4.208   0.388   2.316  0.1821 -1.3076 -0.4424
  137THF     H4 1772   4.370   0.332   2.586 -0.2221 -0.9594  0.5917
  137THF     H5 1773   4.294   0.496   2.556 -0.3397 -0.3405 -0.7849
  137THF     H6 1774   4.152   0.325   2.248  0.2103  0.0506 -1.7686
  137THF     H7 1775   4.172   0.491   2.311  0.5545 -1.1933 -0.7938
  137THF     C8 1776   4.349   0.403   2.264  1.1454  0.7165  0.1646
  137THF     C9 1777   4.428   0.443   2.390  0.2517 -0.2649 -0.1188
  137THF    H10 1778   4.350   0.461   2.172 -1.8065 -0.1984 -0.5577
  137THF    H11 1779   4.394   0.308   2.234  0.5878  0.1495  1.0874
  137THF    H12 1780   4.533   0.418   2.403 -0.0577 -1.8255 -0.4505
  137THF    H13 1781   4.416   0.551   2.393 -0.2835 -0.3366  0.7226
  138THF     O1 1782   2.576   5.035   0.826 -0.6742 -0.4525  0.4560
  138THF     C2 1783   2.674   5.042   0.927 -0.1743  0.4280 -0.2776
  138THF     C3 1784   2.653   5.050   0.707 -0.0191  0.2685  0.3784
  138THF     H4 1785   2.718   4.942   0.933  0.1094  0.4930 -1.1877
  138THF     H5 1786   2.636   5.070   1.025 -0.1335  1.1951 -0.4774
  138THF     H6 1787   2.655   4.953   0.658  1.4635  0.1632  0.5829
  138THF     H7 1788   2.600   5.105   0.630  1.4091  1.7125  0.3557
  138THF     C8 1789   2.788   5.113   0.736  0.1075  0.3070 -0.0382
  138THF     C9 1790   2.782   5.141   0.883 -0.2448  0.0127  0.3647
  138THF    H10 1791   2.805   5.203   0.678 -0.0893  0.7934  0.6462
  138THF    H11 1792   2.861   5.035   0.711  0.3381  0.3945  0.3551
  138THF    H12 1793   2.877   5.134   0.937 -0.9492  2.6957  2.1832
  138THF    H13 1794   2.752   5.243   0.907 -0.1422  0.3177 -0.7680
  139THF     O1 1795   2.016   4.161   3.743 -0.0171 -0.3208  0.6648
  139THF     C2 1796   1.964   4.287   3.693  0.1819  0.2943 -0.3142
  139THF     C3 1797   2.001   4.074   3.630 -0.4510 -0.2663 -0.1193
  139THF     H4 1798   2.012   4.366   3.751  0.7520  2.0675 -3.0246
  139THF     H5 1799   1.860   4.286   3.727 -0.0440 -1.9777 -0.9498
  139THF     H6 1800   2.049   3.976   3.637  0.1610 -0.0295 -0.8623
  139THF     H7 1801   1.897   4.045   3.622  0.0235 -1.6353 -1.7165
  139THF     C8 1802   2.055   4.155   3.514 -0.0972 -0.3124 -0.1873
  139THF     C9 1803   1.990   4.293   3.534 -0.1958 -0.1666 -0.4378
  139THF    H10 1804   2.030   4.117   3.415  0.3625  1.7233 -1.1290
  139THF    H11 1805   2.161   4.157   3.537  0.2259  0.2540 -1.6441
  139THF    H12 1806   2.058   4.374   3.506  1.3679 -0.9349  0.9939
  139THF    H13 1807   1.901   4.316   3.475 -0.7302  0.4158  0.5528
  140THF     O1 1808   0.814   1.281   0.382 -0.1817  0.2876 -0.3560
  140THF     C2 1809   0.807   1.338   0.510 -0.0362  0.3351  0.5870
  140THF     C3 1810   0.836   1.145   0.393  0.1416  0.6592  0.1104
  140THF     H4 1811   0.706   1.380   0.515 -0.3807 -0.2128 -0.9851
  140THF     H5 1812   0.869   1.423   0.538 -1.0345  1.5011 -0.6056
  140THF     H6 1813   0.787   1.086   0.316 -0.3270 -0.5975  1.3273
  140THF     H7 1814   0.944   1.128   0.389  0.1201  0.2379  1.0049
  140THF     C8 1815   0.792   1.089   0.523 -0.2433  0.4934 -0.5500
  140THF     C9 1816   0.807   1.220   0.605 -0.9150  0.0420  0.6347
  140THF    H10 1817   0.847   1.008   0.570 -1.7339  0.3413  1.0612
  140THF    H11 1818   0.685   1.067   0.517 -0.2290  0.3780 -0.3863
  140THF    H12 1819   0.729   1.228   0.680 -1.1399 -0.7067  0.4873
  140THF    H13 1820   0.901   1.209   0.660 -2.4249 -1.0058  3.1705
  141THF     O1 1821   0.331   5.342   2.311  0.0779  0.3103 -0.2515
  141THF     C2 1822   0.256   5.414   2.212  0.3392 -0.4358 -0.0340
  141THF     C3 1823   0.248   5.237   2.368 -0.1320  0.2052  0.3762
  141THF     H4 1824   0.308   5.423   2.117  0.0988 -1.7064 -0.3021
  141THF     H5 1825   0.238   5.512   2.255  1.3626  0.1489 -0.9142
  141THF     H6 1826   0.284   5.143   2.325 -0.4690 -0.6365  1.8604
  141THF     H7 1827   0.244   5.232   2.477 -0.0589 -2.1267  0.3206
  141THF     C8 1828   0.106   5.280   2.318  0.1597  0.6190 -0.3413
  141THF     C9 1829   0.125   5.346   2.185 -0.1430 -1.0405  0.3013
  141THF    H10 1830   0.062   5.364   2.372 -0.8282  0.6446 -1.1606
  141THF    H11 1831   0.036   5.198   2.303 -0.5290  1.2057 -0.3654
  141THF    H12 1832   0.146   5.284   2.098 -0.0930 -0.9014  0.2129
  141THF    H13 1833   0.045   5.413   2.155  1.0653  0.9325  1.2332
  142THF     O1 1834   3.534   1.421   4.693  0.2177  0.1783 -0.1895
  142THF     C2 1835   3.591   1.458   4.569 -0.0231  0.3601 -0.3362
  142THF     C3 1836   3.615   1.325   4.757  0.0489 -0.0052 -0.3790
  142THF     H4 1837   3.566   1.555   4.526  1.9849 -0.8185 -4.7092
  142THF     H5 1838   3.560   1.385   4.494 -0.2905 -0.0318  0.1530
  142THF     H6 1839   3.624   1.348   4.863 -1.4518  0.2205 -0.2842
  142THF     H7 1840   3.570   1.226   4.744 -0.5909  0.4350 -1.6853
  142THF     C8 1841   3.759   1.336   4.702  0.3618 -0.0362  0.2717
  142THF     C9 1842   3.745   1.433   4.582  0.4550 -0.7879  0.2188
  142THF    H10 1843   3.793   1.238   4.669 -2.2670 -0.5283 -1.2831
  142THF    H11 1844   3.836   1.367   4.772  2.1783 -1.7025 -0.8721
  142THF    H12 1845   3.799   1.523   4.611 -1.5699  0.0780  1.5145
  142THF    H13 1846   3.790   1.401   4.488  1.0197  1.8472 -0.4828
  143THF     O1 1847   4.119   5.395   3.890  0.2717 -0.5214  0.3192
  143THF     C2 1848   4.007   5.442   3.823  0.1243 -0.2347  0.1751
  143THF     C3 1849   4.106   5.418   4.030  0.2190  0.7757 -0.1461
  143THF     H4 1850   3.961   5.346   3.798 -0.0053  0.4392 -2.4568
  143THF     H5 1851   4.023   5.493   3.728  1.1895  0.2763  0.6069
  143THF     H6 1852   4.033   5.349   4.072  2.4208 -0.0304  2.6938
  143THF     H7 1853   4.200   5.404   4.083  0.4763  2.0520 -0.2342
  143THF     C8 1854   4.041   5.549   4.039  0.0192 -0.0754 -0.1699
  143THF     C9 1855   3.944   5.539   3.922 -0.1298 -0.1143 -0.2331
  143THF    H10 1856   4.107   5.636   4.032  1.8204 -0.9486  3.2889
  143THF    H11 1857   4.013   5.562   4.144 -1.2346 -0.1081 -0.4865
  143THF    H12 1858   3.845   5.499   3.945  0.0549 -0.6428 -0.3330
  143THF    H13 1859   3.938   5.641   3.886 -2.8621  0.5426  1.7772
  144THF     O1 1860   1.656   1.505   0.181 -0.2781  0.3259  0.3218
  144THF     C2 1861   1.576   1.627   0.184  0.1248 -0.0905 -0.0890
  144THF     C3 1862   1.572   1.408   0.108 -0.0284 -0.3977 -0.1869
  144THF     H4 1863   1.634   1.715   0.155  2.6360 -1.9914 -1.1754
  144THF     H5 1864   1.555   1.660   0.286 -0.5673  0.9110 -0.5330
  144THF     H6 1865   1.636   1.368   0.030  1.1533  2.6087 -0.8872
  144THF     H7 1866   1.509   1.341   0.167 -0.8361 -2.5107 -3.1559
  144THF     C8 1867   1.471   1.483   0.022 -0.0465  0.5851 -0.4303
  144THF     C9 1868   1.442   1.602   0.116  0.0363 -0.2198 -0.1192
  144THF    H10 1869   1.383   1.428  -0.011  0.4465  0.4865 -1.6084
  144THF    H11 1870   1.520   1.521  -0.067  0.4863  1.3831  0.1906
  144THF    H12 1871   1.398   1.689   0.068 -1.2899 -1.6934 -1.7094
  144THF    H13 1872   1.365   1.567   0.185 -0.4554 -0.4721 -0.7792
  145THF     O1 1873   3.998   2.248   4.720 -0.8018 -0.1477 -0.2602
  145THF     C2 1874   3.994   2.136   4.811  0.1172 -0.1916 -0.1520
  145THF     C3 1875   3.958   2.201   4.602  0.5132 -0.5434  0.4378
  145THF     H4 1876   3.890   2.115   4.835  0.0946  1.0655  1.0201
  145THF     H5 1877   4.038   2.167   4.906  0.8039  0.3410 -0.6291
  145THF     H6 1878   3.850   2.188   4.598  0.3120  1.1372 -0.9820
  145THF     H7 1879   3.989   2.264   4.519 -0.3799  0.4732  0.8406
  145THF     C8 1880   4.022   2.063   4.590 -1.1620  0.3459  0.6480
  145THF     C9 1881   4.065   2.026   4.728  0.5421 -0.0516 -1.2774
  145THF    H10 1882   4.117   2.080   4.540 -1.3407 -1.7617 -0.5202
  145THF    H11 1883   3.972   1.987   4.530 -1.7067  0.6323  0.7310
  145THF    H12 1884   4.025   1.925   4.740 -1.7456  0.7109 -1.9543
  145THF    H13 1885   4.173   2.028   4.743  0.4301  0.9279 -0.5574
  146THF     O1 1886   2.723   1.377   3.023  0.0529 -0.1957  0.4536
  146THF     C2 1887   2.591   1.362   2.972  0.8608 -0.0875  0.5724
  146THF     C3 1888   2.809   1.453   2.929 -0.7953 -0.2770 -0.6334
  146THF     H4 1889   2.517   1.388   3.047  0.5412  0.1164  0.1923
  146THF     H5 1890   2.569   1.262   2.935 -1.5044  0.8116 -0.7250
  146THF     H6 1891   2.885   1.509   2.984 -0.8796 -0.7228 -0.0450
  146THF     H7 1892   2.854   1.382   2.859  0.5536  0.7792 -0.8799
  146THF     C8 1893   2.710   1.542   2.862  0.1931  0.7159 -0.3173
  146THF     C9 1894   2.589   1.455   2.854  0.2726 -0.2708  0.6259
  146THF    H10 1895   2.728   1.572   2.759 -2.2674  3.2085 -0.1681
  146THF    H11 1896   2.680   1.621   2.932 -0.5022  1.7138 -1.6909
  146THF    H12 1897   2.497   1.514   2.852  1.0743  1.0497  1.2423
  146THF    H13 1898   2.595   1.396   2.762  0.7945 -0.7911  0.9876
  147THF     O1 1899   4.535   1.150   4.811 -0.0147 -0.0123 -0.4103
  147THF     C2 1900   4.606   1.256   4.882  0.0027  0.2490  0.2870
  147THF     C3 1901   4.621   1.036   4.830  0.2609 -0.2690  0.0672
  147THF     H4 1902   4.556   1.350   4.906  1.9297  1.2958  0.4004
  147THF     H5 1903   4.674   1.290   4.803  0.5347  1.8733  1.3808
  147THF     H6 1904   4.564   0.946   4.809 -0.4664  0.6831 -2.4125
  147THF     H7 1905   4.700   1.048   4.756  1.1743  0.3609  1.1097
  147THF     C8 1906   4.678   1.047   4.976  0.2514  0.2217  0.2808
  147THF     C9 1907   4.669   1.196   5.009 -0.3543  1.0497  0.9661
  147THF    H10 1908   4.782   1.012   4.975 -0.1479 -1.2406 -3.0028
  147THF    H11 1909   4.631   0.975   5.043 -0.7028  0.6645  0.0928
  147THF    H12 1910   4.596   1.212   5.088 -0.5603 -0.2613  1.0767
  147THF    H13 1911   4.769   1.227   5.038  0.8930 -1.1016 -0.6917
  148THF     O1 1912   1.097   0.345   5.491  0.4104 -0.0371  0.3002
  148THF     C2 1913   1.022   0.321   5.614 -0.3873  0.6090  0.1304
  148THF     C3 1914   1.216   0.416   5.522  0.2583 -0.2365 -0.3627
  148THF     H4 1915   1.053   0.231   5.667  0.3242  2.6260  3.4272
  148THF     H5 1916   0.918   0.308   5.585 -1.9086  2.2013  4.1979
  148THF     H6 1917   1.302   0.351   5.536  0.7998  0.5879  0.2228
  148THF     H7 1918   1.256   0.476   5.441 -0.0621  0.6082  0.0908
  148THF     C8 1919   1.193   0.480   5.656 -0.1031 -0.5143 -0.4969
  148THF     C9 1920   1.052   0.436   5.705 -0.5846 -0.0759  0.3755
  148THF    H10 1921   1.210   0.588   5.659 -1.0218 -0.3313 -1.2156
  148THF    H11 1922   1.268   0.447   5.727  0.1949  0.5162 -0.3240
  148THF    H12 1923   1.047   0.411   5.811 -0.7110  1.0788  0.6615
  148THF    H13 1924   0.974   0.509   5.682  0.1249  0.9938  1.2635
  149THF     O1 1925   2.527   0.417   3.942  0.1479 -0.4271 -0.1365
  149THF     C2 1926   2.446   0.519   3.900  0.7653  0.0707 -0.1542
  149THF     C3 1927   2.503   0.411   4.082 -0.0349 -0.0939  0.2787
  149THF     H4 1928   2.434   0.497   3.794  0.0794  0.2946 -0.1318
  149THF     H5 1929   2.500   0.611   3.920 -1.4559  1.7372 -1.3664
  149THF     H6 1930   2.537   0.321   4.133 -1.1208 -1.3747 -1.1585
  149THF     H7 1931   2.540   0.497   4.139 -1.0345  0.5880 -0.0753
  149THF     C8 1932   2.344   0.408   4.082 -0.5230 -0.2863  0.1316
  149THF     C9 1933   2.311   0.508   3.974  0.1603 -0.9357 -0.4084
  149THF    H10 1934   2.296   0.423   4.179  0.6635 -0.7315  0.8133
  149THF    H11 1935   2.334   0.302   4.056  1.1687 -1.4772  3.5339
  149THF    H12 1936   2.225   0.457   3.929 -0.3477 -0.1066 -0.3952
  149THF    H13 1937   2.282   0.606   4.012 -1.5641 -1.3973 -0.4309
  150THF     O1 1938   2.737   3.852   4.285  0.2213 -0.4544 -0.2964
  150THF     C2 1939   2.793   3.887   4.418  0.0332  0.5578 -0.3655
  150THF     C3 1940   2.604   3.812   4.309 -0.8540  0.5092  0.2866
  150THF     H4 1941   2.748   3.980   4.452 -1.0555  0.0340 -0.3051
  150THF     H5 1942   2.900   3.901   4.403  0.9044 -1.8114  2.6780
  150THF     H6 1943   2.540   3.897   4.333 -0.9239 -0.0383  2.2361
  150THF     H7 1944   2.559   3.758   4.226 -1.0489 -0.4825  1.0158
  150THF     C8 1945   2.626   3.718   4.430  0.2023  0.4974 -0.0548
  150THF     C9 1946   2.750   3.768   4.498  0.1588  0.3991 -0.3493
  150THF    H10 1947   2.621   3.613   4.400 -1.0707 -0.1803  2.3160
  150THF    H11 1948   2.552   3.727   4.510  0.0407 -0.5656 -0.0743
  150THF    H12 1949   2.738   3.798   4.602  1.6152 -0.8285  0.2145
  150THF    H13 1950   2.825   3.689   4.496  0.5093  0.7306 -0.3675
  151THF     O1 1951   4.718   4.864   4.693 -0.1894 -0.1552  0.3786
  151THF     C2 1952   4.761   4.742   4.752 -0.6627 -0.3102 -0.2061
  151THF     C3 1953   4.577   4.886   4.727 -0.1066  0.4724 -0.5702
  151THF     H4 1954   4.851   4.757   4.810  0.9110 -1.8681 -2.0796
  151THF     H5 1955   4.801   4.687   4.667  0.2306 -0.8105  0.5164
  151THF     H6 1956   4.552   4.956   4.807 -1.0207 -2.1174  1.5579
  151THF     H7 1957   4.523   4.908   4.634 -1.7118 -2.0451 -0.3356
  151THF     C8 1958   4.533   4.744   4.764 -0.3674  0.4348  0.1029
  151THF     C9 1959   4.645   4.683   4.841  0.0455 -0.4529 -0.2078
  151THF    H10 1960   4.519   4.688   4.672  1.5043 -0.0506  0.0623
  151THF    H11 1961   4.442   4.752   4.823 -1.0937 -0.4943 -0.8618
  151THF    H12 1962   4.652   4.724   4.942 -0.6541  1.7510 -0.9845
  151THF    H13 1963   4.638   4.575   4.837 -0.0842 -0.4434 -0.2420
  152THF     O1 1964   5.283   2.559   2.713  0.0901  0.0039  0.2958
  152THF     C2 1965   5.150   2.510   2.701  0.0800 -0.5529 -0.6022
  152THF     C3 1966   5.360   2.526   2.602  0.0127  0.6672 -0.3798
  152THF     H4 1967   5.079   2.585   2.736  0.2427  0.2334 -1.9074
  152THF     H5 1968   5.149   2.421   2.765  1.0804 -0.3363 -0.2703
  152THF     H6 1969   5.452   2.584   2.593  0.0015  0.5833 -1.0809
  152THF     H7 1970   5.389   2.422   2.617 -1.3763  0.3425  0.1803
  152THF     C8 1971   5.259   2.537   2.489  0.3953 -0.0533 -0.3734
  152THF     C9 1972   5.134   2.489   2.552 -0.1623  0.5326 -0.2581
  152THF    H10 1973   5.283   2.470   2.407 -0.4945 -0.6194 -0.1880
  152THF    H11 1974   5.254   2.643   2.460 -2.4576  0.2129  0.7443
  152THF    H12 1975   5.042   2.530   2.510 -1.3061 -1.5068  0.1324
  152THF    H13 1976   5.142   2.381   2.537 -0.2921  0.5793 -0.6818
  153THF     O1 1977   3.346   1.467   1.186  0.2087 -0.5949 -0.1887
  153THF     C2 1978   3.434   1.553   1.250  0.0135 -0.4410 -0.2796
  153THF     C3 1979   3.347   1.496   1.046  0.0944  0.1910 -0.1622
  153THF     H4 1980   3.496   1.498   1.320 -1.2645 -0.6766  0.7091
  153THF     H5 1981   3.392   1.629   1.316  3.8909 -0.0275  1.9831
  153THF     H6 1982   3.310   1.409   0.991 -0.4267 -0.2494  0.8609
  153THF     H7 1983   3.275   1.573   1.020  0.0768  0.1657 -0.1881
  153THF     C8 1984   3.494   1.544   1.019 -0.4123  0.1123  0.9168
  153THF     C9 1985   3.522   1.620   1.143 -0.7458 -0.1476 -0.1512
  153THF    H10 1986   3.507   1.602   0.928  0.3648  0.3721  1.1770
  153THF    H11 1987   3.557   1.455   1.020 -1.2675 -0.5984 -1.6943
  153THF    H12 1988   3.626   1.620   1.175 -1.1007 -2.5688  1.2063
  153THF    H13 1989   3.500   1.727   1.133 -1.8149 -0.3635 -0.1350
  154THF     O1 1990   4.151   5.096   1.334 -0.3189 -0.0494 -0.5746
  154THF     C2 1991   4.085   4.971   1.360 -0.1262 -0.2122  0.2092
  154THF     C3 1992   4.236   5.078   1.221  0.0601  0.5946  1.1027
  154THF     H4 1993   3.985   4.988   1.403 -0.2833 -2.1205  0.6815
  154THF     H5 1994   4.142   4.920   1.438 -1.1436 -2.3384 -0.3549
  154THF     H6 1995   4.248   5.166   1.159  1.4005 -0.1563  0.2492
  154THF     H7 1996   4.336   5.050   1.255  0.7594  0.4913 -0.9183
  154THF     C8 1997   4.170   4.958   1.134 -0.5726 -0.1095  0.2697
  154THF     C9 1998   4.080   4.885   1.235  0.4628  0.4136  0.3182
  154THF    H10 1999   4.246   4.884   1.111 -1.1462 -1.5533  2.6465
  154THF    H11 2000   4.099   4.995   1.059 -0.1625 -0.7840 -0.4683
  154THF    H12 2001   3.979   4.881   1.195  0.2560 -0.9473  0.9219
  154THF    H13 2002   4.107   4.781   1.252 -0.6836 -0.2471 -1.7049
  155THF     O1 2003   4.772   0.071   1.600  0.2092 -0.4214  0.1259
  155THF     C2 2004   4.640   0.042   1.548 -0.3852 -0.1999  0.0854
  155THF     C3 2005   4.779   0.211   1.612  0.0412 -0.0864  0.3426
  155THF     H4 2006   4.569   0.057   1.629  0.2247  1.2432  0.3918
  155THF     H5 2007   4.638  -0.061   1.513 -0.3078  0.3641 -1.6905
  155THF     H6 2008   4.743   0.241   1.711 -0.2425  0.4722  0.0697
  155THF     H7 2009   4.883   0.239   1.605 -0.3318  1.0811 -0.7669
  155THF     C8 2010   4.693   0.264   1.489 -0.0025 -0.1925  0.1411
  155THF     C9 2011   4.619   0.143   1.437  0.6344 -0.1172  0.4559
  155THF    H10 2012   4.753   0.320   1.417  0.6803 -0.2635  0.6464
  155THF    H11 2013   4.619   0.338   1.517  1.1245  0.7791  0.6572
  155THF    H12 2014   4.513   0.166   1.431 -0.0152 -2.2921  2.2806
  155THF    H13 2015   4.666   0.124   1.340  0.0084  1.5070 -0.1945
  156THF     O1 2016   1.826   3.656   1.531  0.5753  0.2532  0.3158
  156THF     C2 2017   1.960   3.642   1.581  0.1853  0.2216 -0.1451
  156THF     C3 2018   1.826   3.586   1.401 -0.2233 -0.0754 -0.4154
  156THF     H4 2019   1.973   3.536   1.601 -0.2209  0.3500  0.8813
  156THF     H5 2020   1.954   3.701   1.673  0.3895 -0.7451  0.5004
  156THF     H6 2021   1.806   3.479   1.410  0.5810 -0.1688  0.4939
  156THF     H7 2022   1.740   3.630   1.351 -1.0715 -1.1409  0.0736
  156THF     C8 2023   1.962   3.619   1.343  0.2010 -0.1094  0.1279
  156THF     C9 2024   2.037   3.694   1.460 -0.2488  0.1919  0.5816
  156THF    H10 2025   1.962   3.690   1.260  2.7250  0.5069  0.5709
  156THF    H11 2026   2.008   3.530   1.302  1.7614  0.3817  0.7456
  156THF    H12 2027   2.143   3.665   1.458 -0.3357 -0.1291  0.5373
  156THF    H13 2028   2.032   3.803   1.461 -0.9670  0.1625  1.6506
  157THF     O1 2029   0.920   3.654   1.745  0.1081 -0.0431  0.0813
  157THF     C2 2030   1.049   3.711   1.743  0.9874  0.3965 -0.1949
  157THF     C3 2031   0.892   3.633   1.608 -0.4457  0.0963 -0.5870
  157THF     H4 2032   1.105   3.706   1.836  0.5612  2.4382  0.2045
  157THF     H5 2033   1.042   3.814   1.708  4.4584  1.3805  1.5029
  157THF     H6 2034   0.801   3.575   1.591  0.7463 -2.1862  0.4939
  157THF     H7 2035   0.874   3.728   1.557  1.0731  0.8041  0.1196
  157THF     C8 2036   1.024   3.577   1.555 -0.3900  0.8461  0.0683
  157THF     C9 2037   1.131   3.627   1.652 -0.2301 -0.0941 -0.0594
  157THF    H10 2038   1.045   3.600   1.451 -2.5561 -0.2583 -0.6822
  157THF    H11 2039   1.010   3.469   1.560 -1.7250  0.9563 -0.7975
  157THF    H12 2040   1.180   3.541   1.698 -0.3376  0.5522  1.3085
  157THF    H13 2041   1.202   3.694   1.606  0.1188  0.5262  1.3453
  158THF     O1 2042   5.287   3.473   3.208  0.1949 -0.2300  0.2018
  158THF     C2 2043   5.171   3.491   3.132 -0.4777 -0.1183 -0.4948
  158THF     C3 2044   5.363   3.363   3.147  0.2675  0.1644 -0.8906
  158THF     H4 2045   5.175   3.583   3.073 -2.7805  0.7788  0.6461
  158THF     H5 2046   5.086   3.517   3.194 -0.3403 -2.4281  0.7803
  158THF     H6 2047   5.422   3.385   3.059  0.1284  0.0524 -1.0123
  158THF     H7 2048   5.427   3.314   3.221  0.7406  0.0373 -1.3831
  158THF     C8 2049   5.247   3.268   3.101  0.0209  0.3810 -0.0707
  158THF     C9 2050   5.150   3.370   3.046 -0.6777  0.5270  0.7609
  158THF    H10 2051   5.199   3.204   3.174 -2.1646  0.8550 -1.0057
  158THF    H11 2052   5.276   3.204   3.018 -2.2263 -0.8029 -0.0100
  158THF    H12 2053   5.167   3.398   2.942 -0.8951  1.5522  0.9902
  158THF    H13 2054   5.052   3.325   3.064 -0.8509 -0.2256 -1.6992
  159THF     O1 2055   2.159   5.064   3.725  0.3843 -0.3468 -0.8872
  159THF     C2 2056   2.139   4.934   3.779  0.1280 -0.1460  0.2454
  159THF     C3 2057   2.269   5.128   3.793  0.2202 -0.0132  0.3771
  159THF     H4 2058   2.173   4.864   3.703  0.0778  1.1271 -0.9941
  159THF     H5 2059   2.033   4.912   3.792  0.1473  0.2760  1.1535
  159THF     H6 2060   2.368   5.094   3.764  0.8132  2.1622 -0.3763
  159THF     H7 2061   2.271   5.237   3.800 -0.2353  0.1907 -1.8429
  159THF     C8 2062   2.259   5.074   3.938 -0.3100 -0.2876  0.4926
  159THF     C9 2063   2.214   4.931   3.912 -0.1690  0.5283 -0.2204
  159THF    H10 2064   2.181   5.127   3.994  0.5856  2.1206 -0.3947
  159THF    H11 2065   2.352   5.098   3.991 -0.5526  2.3105 -0.1000
  159THF    H12 2066   2.306   4.873   3.908  1.2595  2.7023 -0.4894
  159THF    H13 2067   2.170   4.880   3.997  2.4240  1.3453  1.7265
  160THF     O1 2068   0.712   2.514   4.093  0.2360 -0.3196 -0.9289
  160THF     C2 2069   0.812   2.420   4.101  0.6400  0.7850 -0.0967
  160THF     C3 2070   0.738   2.620   4.189 -0.3182 -0.2648  0.1576
  160THF     H4 2071   0.816   2.368   4.005 -0.2401  1.0401 -0.2836
  160THF     H5 2072   0.788   2.342   4.174  0.9937  1.2819  0.5626
  160THF     H6 2073   0.683   2.710   4.161  0.3193 -0.6816 -2.7353
  160THF     H7 2074   0.697   2.582   4.283 -2.0202  0.0632 -0.4087
  160THF     C8 2075   0.895   2.625   4.192  0.0465 -0.1865  0.6945
  160THF     C9 2076   0.941   2.494   4.129  0.6034 -0.2416 -0.1077
  160THF    H10 2077   0.934   2.635   4.293  0.4364 -0.4718  0.5739
  160THF    H11 2078   0.915   2.715   4.134 -1.7231  0.7544  1.4611
  160THF    H12 2079   0.977   2.530   4.032  0.7281  1.2864  0.4787
  160THF    H13 2080   1.015   2.440   4.188  3.5165  3.5516  0.0597
  161THF     O1 2081   1.289   2.389   5.012  0.0278 -0.4210  0.1225
  161THF     C2 2082   1.160   2.325   5.011  0.0498  0.3646  0.3389
  161THF     C3 2083   1.308   2.420   5.146 -0.1179 -0.4962  0.2064
  161THF     H4 2084   1.149   2.264   4.922  1.2552 -0.1152  0.4988
  161THF     H5 2085   1.081   2.399   5.027 -0.2704  0.5897 -1.9399
  161THF     H6 2086   1.412   2.446   5.168  1.3460 -3.0249 -2.8871
  161THF     H7 2087   1.238   2.497   5.179  2.1734  2.2649 -0.9024
  161THF     C8 2088   1.268   2.290   5.224  0.2395 -0.2402  0.4534
  161THF     C9 2089   1.174   2.230   5.128  0.4396  0.3452  0.3472
  161THF    H10 2090   1.219   2.310   5.320  0.2454 -0.4344  0.4960
  161THF    H11 2091   1.357   2.228   5.238 -0.0345 -0.9158 -0.6958
  161THF    H12 2092   1.214   2.134   5.095  1.5788  1.0236 -0.3146
  161THF    H13 2093   1.084   2.223   5.190  0.4374 -0.6664  0.2437
  162THF     O1 2094   1.077   0.240   1.145 -0.2033 -1.2088 -0.0311
  162THF     C2 2095   0.977   0.306   1.059 -0.0640 -0.1456 -0.4102
  162THF     C3 2096   1.006   0.219   1.267  0.0131 -0.0100  0.1928
  162THF     H4 2097   0.999   0.298   0.952  0.0136 -1.0375 -0.3326
  162THF     H5 2098   0.971   0.411   1.089 -0.2563 -0.4293  0.5696
  162THF     H6 2099   1.055   0.138   1.320  0.8587 -0.4639 -1.2439
  162THF     H7 2100   1.017   0.312   1.323  0.9307 -0.3535  0.5943
  162THF     C8 2101   0.860   0.199   1.239  0.0318 -0.1504 -0.1067
  162THF     C9 2102   0.847   0.237   1.094  0.7589 -0.0325 -0.8953
  162THF    H10 2103   0.796   0.237   1.319  0.3735 -3.0206  1.6865
  162THF    H11 2104   0.843   0.091   1.246  0.5876 -0.2948 -0.9061
  162THF    H12 2105   0.820   0.155   1.028  1.6286 -1.0983  0.0365
  162THF    H13 2106   0.763   0.305   1.086 -0.3138 -1.1205  0.6286
  163THF     O1 2107   0.382   4.689   3.427 -0.3126 -0.6231  0.0616
  163THF     C2 2108   0.331   4.569   3.486  0.2958 -0.3768  0.3750
  163THF     C3 2109   0.475   4.652   3.319  0.0194  0.0749  0.1700
  163THF     H4 2110   0.224   4.572   3.466  0.3727  0.6282  0.0783
  163THF     H5 2111   0.353   4.572   3.592  0.9786 -0.8198  0.2563
  163THF     H6 2112   0.422   4.634   3.225 -0.7733 -0.1970  0.6578
  163THF     H7 2113   0.559   4.721   3.319 -0.1968  0.3428  0.6940
  163THF     C8 2114   0.524   4.513   3.360  0.3766  0.3817  0.4631
  163THF     C9 2115   0.399   4.451   3.429  0.6653 -0.2886 -0.3748
  163THF    H10 2116   0.602   4.520   3.436  0.7985  3.3744 -0.1025
  163THF    H11 2117   0.556   4.442   3.284 -1.1072  0.1674 -0.0017
  163THF    H12 2118   0.322   4.422   3.358  0.9799 -2.6768  0.1441
  163THF    H13 2119   0.431   4.374   3.500  0.8869 -0.9102 -1.1327
  164THF     O1 2120   0.490   4.025   0.507 -0.0165  0.5719  0.0343
  164THF     C2 2121   0.560   4.070   0.623  0.3631  1.1662  0.1545
  164THF     C3 2122   0.472   4.132   0.416  0.0678  0.0772  0.4961
  164THF     H4 2123   0.591   3.983   0.681  0.7049 -0.3643 -2.1409
  164THF     H5 2124   0.478   4.113   0.680 -0.8116 -1.9323  1.0096
  164THF     H6 2125   0.474   4.101   0.312 -1.5768 -2.4670  1.1386
  164THF     H7 2126   0.379   4.188   0.431  0.0608  0.1797  0.0743
  164THF     C8 2127   0.592   4.220   0.451  0.2537 -0.2628 -0.0828
  164THF     C9 2128   0.663   4.160   0.569  0.7283 -0.2300  0.3488
  164THF    H10 2129   0.560   4.323   0.468  0.3411 -0.2860  0.2334
  164THF    H11 2130   0.654   4.228   0.362 -1.2468 -0.1692 -1.1713
  164THF    H12 2131   0.756   4.110   0.542 -0.1502 -1.7680  0.0149
  164THF    H13 2132   0.688   4.233   0.645 -0.6723  1.2317 -0.5343
  165THF     O1 2133   0.531   1.544   0.133 -0.0155  0.2908 -0.1003
  165THF     C2 2134   0.584   1.453   0.231  0.0905 -0.0427  0.3570
  165THF     C3 2135   0.570   1.492   0.007 -0.8486  0.3769  1.3875
  165THF     H4 2136   0.519   1.438   0.317  0.0533 -1.5385  0.0918
  165THF     H5 2137   0.662   1.493   0.295  0.3588 -1.8288  1.2096
  165THF     H6 2138   0.511   1.523  -0.079  0.8296  3.8871  1.2996
  165THF     H7 2139   0.665   1.535  -0.025 -1.6217  0.6377 -0.7195
  165THF     C8 2140   0.567   1.336   0.023 -0.0887 -0.5511 -0.1540
  165THF     C9 2141   0.637   1.327   0.151  0.2863 -0.2630  0.0127
  165THF    H10 2142   0.632   1.279  -0.044  0.9553  0.2547  0.1510
  165THF    H11 2143   0.465   1.298   0.024 -0.7918  1.2090 -1.2222
  165THF    H12 2144   0.609   1.233   0.200  0.4991  0.6022  1.9033
  165THF    H13 2145   0.745   1.321   0.144  0.2907 -2.9879  1.0795
  166THF     O1 2146   1.891   1.442   3.767 -0.0735 -0.0116  0.1372
  166THF     C2 2147   1.772   1.384   3.711 -0.0700  0.0489 -0.2086
  166THF     C3 2148   1.916   1.366   3.883 -0.2178 -0.1748 -0.1109
  166THF     H4 2149   1.801   1.286   3.672 -2.3104  0.0894 -2.2261
  166THF     H5 2150   1.722   1.432   3.626 -2.2619 -1.6407  0.0521
  166THF     H6 2151   1.949   1.266   3.854 -1.3612 -0.9070  1.0172
  166THF     H7 2152   2.003   1.400   3.938 -1.1633  2.5299 -0.1229
  166THF     C8 2153   1.780   1.359   3.949  0.4255 -0.7344  0.3882
  166THF     C9 2154   1.682   1.380   3.836  0.2645 -0.3729  0.0154
  166THF    H10 2155   1.777   1.432   4.030  0.2723 -0.3744  0.0561
  166THF    H11 2156   1.753   1.271   4.008  1.3518 -0.7197  0.8519
  166THF    H12 2157   1.597   1.311   3.829 -0.2465  0.3581 -1.4382
  166THF    H13 2158   1.639   1.479   3.833  0.3388 -0.2839  1.4111
  167THF     O1 2159   4.385   1.621   3.078 -0.0518  0.3108  0.7928
  167THF     C2 2160   4.463   1.654   3.197  0.4916 -0.0416 -0.3627
  167THF     C3 2161   4.355   1.481   3.083 -0.1346 -0.0206  0.0685
  167THF     H4 2162   4.401   1.730   3.244  0.8611 -0.2360  0.4462
  167THF     H5 2163   4.557   1.705   3.176  0.9424 -0.2282  1.1355
  167THF     H6 2164   4.267   1.446   3.029  0.0893 -2.4509  1.1731
  167THF     H7 2165   4.432   1.424   3.030 -1.2719 -0.9043 -0.6690
  167THF     C8 2166   4.345   1.448   3.232  0.2455  0.0772  0.1455
  167THF     C9 2167   4.470   1.526   3.279 -0.2445 -0.7059  0.4922
  167THF    H10 2168   4.350   1.340   3.243  1.7640 -0.0861 -1.5684
  167THF    H11 2169   4.257   1.490   3.280 -1.7339 -0.8153 -2.4597
  167THF    H12 2170   4.490   1.535   3.385  0.7981 -1.1184  0.3379
  167THF    H13 2171   4.553   1.472   3.234  0.6041 -1.9355  3.3071
  168THF     O1 2172   3.108   1.353   4.524 -0.1674 -0.3210  0.3605
  168THF     C2 2173   3.218   1.369   4.432 -0.4987  0.8200 -0.0291
  168THF     C3 2174   3.083   1.209   4.528  0.6924  0.3438 -0.2199
  168THF     H4 2175   3.272   1.463   4.427  2.4157 -0.7513 -0.3528
  168THF     H5 2176   3.180   1.351   4.332 -0.5509 -1.9063  0.3944
  168THF     H6 2177   3.032   1.169   4.616  0.7368 -2.4239 -1.3489
  168THF     H7 2178   3.034   1.173   4.438  1.1796  2.3902 -1.3426
  168THF     C8 2179   3.222   1.149   4.539 -0.5344 -1.0379 -0.3842
  168THF     C9 2180   3.311   1.253   4.474 -0.3206 -0.3493 -0.2370
  168THF    H10 2181   3.223   1.049   4.495 -0.4475 -2.1475  1.9687
  168THF    H11 2182   3.257   1.139   4.642 -0.5195  1.6529 -0.0509
  168THF    H12 2183   3.376   1.275   4.559  0.9117  0.6738 -1.3947
  168THF    H13 2184   3.373   1.218   4.391  0.6571  2.1966 -0.6582
  169THF     O1 2185   0.472   2.270   0.559 -0.0955  0.2507 -0.2158
  169THF     C2 2186   0.512   2.322   0.690  0.7424  0.3741 -0.2696
  169THF     C3 2187   0.568   2.175   0.509  0.7106 -0.0365  0.3488
  169THF     H4 2188   0.429   2.310   0.759  0.7794  2.2522  0.1452
  169THF     H5 2189   0.534   2.428   0.679 -4.0078  1.5543 -0.3138
  169THF     H6 2190   0.536   2.071   0.517  0.5825  0.0543  1.0936
  169THF     H7 2191   0.591   2.189   0.404  1.3164 -0.6467  0.3917
  169THF     C8 2192   0.690   2.202   0.594  0.2236  0.3564 -0.1291
  169THF     C9 2193   0.639   2.239   0.733 -0.3661 -0.0078  0.9934
  169THF    H10 2194   0.743   2.286   0.549  0.2066 -1.5053 -3.9640
  169THF    H11 2195   0.764   2.121   0.597  1.0054  0.9525  4.0957
  169THF    H12 2196   0.616   2.149   0.791  1.2835 -0.0742  1.5973
  169THF    H13 2197   0.710   2.287   0.800 -0.6804 -0.0032  1.3304
  170THF     O1 2198   4.070   0.669   3.142 -0.1205 -0.2480 -0.2743
  170THF     C2 2199   3.961   0.691   3.053  0.6413  0.4185 -0.3095
  170THF     C3 2200   4.079   0.526   3.162  0.4386  0.3115  0.0638
  170THF     H4 2201   4.001   0.662   2.956 -1.3462 -1.1348 -0.7394
  170THF     H5 2202   3.932   0.796   3.046 -0.3434  0.1782  0.0077
  170THF     H6 2203   4.126   0.468   3.082 -0.2788  0.5498 -0.5448
  170THF     H7 2204   4.128   0.485   3.251  0.0004 -1.2397 -0.3741
  170THF     C8 2205   3.930   0.496   3.177  0.0629 -0.5483 -0.2451
  170THF     C9 2206   3.852   0.593   3.102  0.7383  0.3899  0.0727
  170THF    H10 2207   3.897   0.496   3.281 -2.2790 -1.3269 -0.9087
  170THF    H11 2208   3.901   0.391   3.165 -0.8839 -0.5480  1.6558
  170THF    H12 2209   3.773   0.559   3.035 -0.3026  1.0864  0.8992
  170THF    H13 2210   3.804   0.648   3.183  1.1685 -0.1682  0.7172
  171THF     O1 2211   5.293   1.450   2.215  0.0741 -0.8422 -0.3232
  171THF     C2 2212   5.303   1.530   2.331  0.3198 -0.9073 -0.5104
  171THF     C3 2213   5.200   1.353   2.258  0.3178 -0.2047 -0.1470
  171THF     H4 2214   5.232   1.613   2.332 -0.6975 -1.7683 -0.3426
  171THF     H5 2215   5.399   1.581   2.335 -0.9790  1.6094  1.1169
  171THF     H6 2216   5.099   1.394   2.261  0.2615 -0.3262 -0.3756
  171THF     H7 2217   5.195   1.262   2.199  2.5954  0.2035 -1.0976
  171THF     C8 2218   5.247   1.318   2.396 -0.3715 -0.3706  0.7892
  171THF     C9 2219   5.286   1.449   2.456 -0.1453  0.2399 -0.0005
  171THF    H10 2220   5.330   1.248   2.387 -2.0546 -2.5901  1.6655
  171THF    H11 2221   5.180   1.260   2.459 -2.3374 -2.0212 -2.4877
  171THF    H12 2222   5.198   1.494   2.501 -0.0926 -0.1360  0.4785
  171THF    H13 2223   5.366   1.434   2.529 -0.4606 -0.6399  0.1739
  172THF     O1 2224   3.870   4.965   2.632 -0.4834 -0.5703  0.4856
  172THF     C2 2225   3.800   5.005   2.522  0.0357 -0.2322 -0.0298
  172THF     C3 2226   3.997   5.039   2.613  0.6923  1.0034  0.0414
  172THF     H4 2227   3.698   4.969   2.532  0.2100 -2.0563 -3.2274
  172THF     H5 2228   3.838   4.976   2.424 -1.6866  0.1704 -0.8607
  172THF     H6 2229   4.050   5.036   2.708 -0.4589 -1.2644  0.6585
  172THF     H7 2230   4.046   4.981   2.535 -0.0663 -1.0718  1.0237
  172THF     C8 2231   3.952   5.183   2.576 -0.0056 -0.0663  0.0334
  172THF     C9 2232   3.811   5.164   2.529 -0.0578  0.2905  0.4529
  172THF    H10 2233   4.019   5.222   2.499 -1.6355  0.7723 -1.0115
  172THF    H11 2234   3.946   5.248   2.662  1.4139 -1.1976  1.0440
  172THF    H12 2235   3.746   5.212   2.602  0.4588  0.1202  1.0372
  172THF    H13 2236   3.776   5.201   2.433 -0.0759 -0.8681 -0.0071
  173THF     O1 2237   4.354   4.262   4.220 -0.0729  0.2170 -0.0424
  173THF     C2 2238   4.280   4.376   4.186  0.2832 -0.1363  0.3061
  173THF     C3 2239   4.262   4.168   4.268  0.3394 -0.1123  0.1328
  173THF     H4 2240   4.203   4.357   4.111 -0.8313 -1.8647  1.7710
  173THF     H5 2241   4.338   4.461   4.154 -0.8879  0.2473 -0.8884
  173THF     H6 2242   4.205   4.127   4.185 -0.9973 -0.5720  1.2455
  173THF     H7 2243   4.308   4.082   4.317 -0.8016 -1.6708 -1.4032
  173THF     C8 2244   4.189   4.257   4.364  0.2376  0.4048  0.2928
  173THF     C9 2245   4.205   4.394   4.308 -0.6486  0.1235 -0.7359
  173THF    H10 2246   4.228   4.238   4.463  1.5474  0.1850 -0.2448
  173THF    H11 2247   4.087   4.217   4.363  0.1266  0.5120 -2.8575
  173THF    H12 2248   4.111   4.438   4.274 -1.1503 -1.4630 -1.4746
  173THF    H13 2249   4.263   4.455   4.378  1.2811  0.2581 -2.3869
  174THF     O1 2250   4.811   0.233   5.159  0.0138 -0.3766 -0.3938
  174THF     C2 2251   4.814   0.322   5.267  0.5043  0.0552 -0.4902
  174THF     C3 2252   4.772   0.301   5.040  0.3864  0.7625  0.3393
  174THF     H4 2253   4.905   0.381   5.266  0.2518  0.5201  1.0859
  174THF     H5 2254   4.798   0.275   5.365 -2.0534  0.6207 -0.5483
  174THF     H6 2255   4.852   0.300   4.967  0.1713 -2.6124 -0.0316
  174THF     H7 2256   4.696   0.235   4.997  0.3693  1.2080 -0.3251
  174THF     C8 2257   4.730   0.441   5.078 -0.1013  0.0521  0.6163
  174THF     C9 2258   4.706   0.424   5.230  0.1544 -0.7359  0.3341
  174THF    H10 2259   4.650   0.485   5.019  2.3183  0.4112 -2.7172
  174THF    H11 2260   4.812   0.510   5.057 -1.7092  1.8597  0.0792
  174THF    H12 2261   4.719   0.518   5.283  0.3805  0.8106 -2.2669
  174THF    H13 2262   4.605   0.387   5.250 -0.0837 -1.6894 -2.2149
  175THF     O1 2263   0.574   3.505   1.887 -0.6808 -0.3171 -0.5450
  175THF     C2 2264   0.692   3.439   1.843 -0.8101 -0.4989 -0.5426
  175THF     C3 2265   0.464   3.438   1.840  0.2969 -0.1645  0.3836
  175THF     H4 2266   0.729   3.375   1.924 -3.2181 -0.5612  0.5822
  175THF     H5 2267   0.770   3.513   1.825  1.4134 -2.7967 -1.0129
  175THF     H6 2268   0.446   3.352   1.904  2.2705 -0.0452  1.1534
  175THF     H7 2269   0.372   3.495   1.829  0.1433 -0.1644  1.5545
  175THF     C8 2270   0.504   3.383   1.703 -0.1631  0.0927 -0.1151
  175THF     C9 2271   0.647   3.346   1.734  0.6112  0.1388 -0.3851
  175THF    H10 2272   0.495   3.456   1.623  0.5809 -1.8583 -2.0647
  175THF    H11 2273   0.435   3.304   1.672 -2.2306  1.2478  1.2506
  175THF    H12 2274   0.646   3.241   1.762 -0.0491 -0.1608 -1.4856
  175THF    H13 2275   0.716   3.361   1.651  0.6297  1.0425 -0.2133
  176THF     O1 2276   5.211   3.042   2.725  0.0077 -0.4726 -0.0588
  176THF     C2 2277   5.331   3.121   2.703  0.4474  0.7913 -0.2777
  176THF     C3 2278   5.221   2.911   2.657 -0.0797  0.1011 -0.0342
  176THF     H4 2279   5.365   3.182   2.787  2.0491  1.7210 -1.5738
  176THF     H5 2280   5.307   3.189   2.622  1.4239  1.3387 -0.1164
  176THF     H6 2281   5.167   2.835   2.713  0.2795 -0.0047  0.1742
  176THF     H7 2282   5.192   2.906   2.552  0.4871  0.1649 -0.1997
  176THF     C8 2283   5.367   2.887   2.661  0.3855  0.1646 -0.2184
  176THF     C9 2284   5.435   3.019   2.659 -0.4253  0.6998  0.3690
  176THF    H10 2285   5.399   2.824   2.577  1.5359  0.7064 -0.2002
  176THF    H11 2286   5.399   2.848   2.757  3.3256 -0.3270 -1.2787
  176THF    H12 2287   5.509   3.021   2.738 -1.1580 -1.5318  1.1861
  176THF    H13 2288   5.479   3.047   2.563  2.0422  1.6946  1.7097
  177THF     O1 2289   3.806   1.633   0.138 -0.1393 -0.5603 -0.4115
  177THF     C2 2290   3.682   1.590   0.075  0.6768 -0.3666  1.0181
  177THF     C3 2291   3.911   1.611   0.040  0.7946  0.7410  0.1026
  177THF     H4 2292   3.594   1.631   0.124  1.1780  0.6527  1.0923
  177THF     H5 2293   3.675   1.482   0.072 -0.3934 -0.3041  0.4346
  177THF     H6 2294   4.006   1.653   0.072  3.3779 -4.3306  0.0456
  177THF     H7 2295   3.924   1.505   0.022 -2.2213  0.3559 -0.3432
  177THF     C8 2296   3.852   1.670  -0.084 -0.6029 -0.4618 -0.4640
  177THF     C9 2297   3.708   1.643  -0.070  0.1476  0.3089  0.4389
  177THF    H10 2298   3.898   1.629  -0.174  0.5158 -5.2065  1.9423
  177THF    H11 2299   3.873   1.776  -0.079  0.7363 -0.6928 -0.9556
  177THF    H12 2300   3.648   1.732  -0.087 -0.3710  0.3777  2.4516
  177THF    H13 2301   3.678   1.561  -0.135  0.3013  0.6597 -0.0826
  178THF     O1 2302   4.430   0.650   4.914 -0.4511 -0.0669 -0.1749
  178THF     C2 2303   4.391   0.707   5.040 -0.2168  0.9418  0.0981
  178THF     C3 2304   4.321   0.600   4.834  0.1734  0.3257 -0.4048
  178THF     H4 2305   4.454   0.791   5.069  1.2811 -0.8641  2.4467
  178THF     H5 2306   4.389   0.629   5.116 -2.7961  1.6796  0.9170
  178THF     H6 2307   4.313   0.653   4.739  0.7036 -2.5365 -2.1582
  178THF     H7 2308   4.339   0.496   4.806 -2.7325 -0.0665 -1.1831
  178THF     C8 2309   4.197   0.614   4.926  0.2933 -0.1493 -0.7393
  178THF     C9 2310   4.242   0.721   5.021  0.9135 -0.2039  0.5055
  178THF    H10 2311   4.191   0.520   4.981 -1.2234  0.9059  1.0029
  178THF    H11 2312   4.110   0.642   4.867 -0.0266 -1.0512 -0.7198
  178THF    H12 2313   4.231   0.804   4.952 -0.5934 -3.1237 -3.1390
  178THF    H13 2314   4.184   0.721   5.114 -1.1329  0.3424 -0.7026
  179THF     O1 2315   3.105   0.376   1.123 -0.1431  0.1011  0.0357
  179THF     C2 2316   3.166   0.334   1.002 -0.4511  0.2527 -0.1533
  179THF     C3 2317   3.098   0.263   1.205 -0.1218 -0.1113  0.0644
  179THF     H4 2318   3.182   0.415   0.932 -1.5224  0.5281 -0.0888
  179THF     H5 2319   3.100   0.260   0.956 -1.5119  0.7301  0.5602
  179THF     H6 2320   3.105   0.293   1.310 -0.5890 -0.6373  0.2534
  179THF     H7 2321   3.013   0.198   1.186 -0.8241  0.9387 -0.5046
  179THF     C8 2322   3.234   0.191   1.181 -0.0299 -0.1010 -0.3202
  179THF     C9 2323   3.290   0.259   1.057 -0.3529 -0.5072  0.0290
  179THF    H10 2324   3.211   0.085   1.167  1.1724 -0.3379 -0.6033
  179THF    H11 2325   3.310   0.204   1.258 -0.9665  0.9533  0.4511
  179THF    H12 2326   3.374   0.320   1.090 -1.0005 -0.1983  1.1507
  179THF    H13 2327   3.343   0.193   0.988 -0.9292  0.7164 -1.6667
  180THF     O1 2328   3.800   1.445   1.559 -0.0002  0.5317  0.0268
  180THF     C2 2329   3.827   1.340   1.661  0.2350 -0.2268  0.4230
  180THF     C3 2330   3.844   1.376   1.441  0.1920  0.2020 -0.2006
  180THF     H4 2331   3.768   1.248   1.660  0.4061 -0.3915  2.1728
  180THF     H5 2332   3.828   1.384   1.761 -0.8256 -2.1115  1.3184
  180THF     H6 2333   3.771   1.300   1.412  1.5356 -1.3440  0.3492
  180THF     H7 2334   3.853   1.442   1.354  0.3569  2.6755  1.5866
  180THF     C8 2335   3.971   1.297   1.475  0.1483 -0.1158  0.2627
  180THF     C9 2336   3.975   1.306   1.627  0.3425  0.1434 -0.1131
  180THF    H10 2337   4.053   1.343   1.420  0.6258 -1.1427  0.0928
  180THF    H11 2338   3.967   1.194   1.438  2.2797 -0.6119  1.2814
  180THF    H12 2339   4.026   1.218   1.664  0.8538 -0.4799 -2.1496
  180THF    H13 2340   4.030   1.394   1.660 -0.4556  0.0054  1.6908
  181THF     O1 2341   0.802   1.308   2.484 -0.1209 -0.1752 -0.0180
  181THF     C2 2342   0.922   1.309   2.556 -0.2238 -0.4611  0.1942
  181THF     C3 2343   0.833   1.241   2.362  0.6045 -0.2308 -0.0149
  181THF     H4 2344   0.942   1.205   2.584  1.8332 -0.2002 -0.1585
  181THF     H5 2345   0.929   1.376   2.641 -2.9668  0.0812  0.0819
  181THF     H6 2346   0.842   1.136   2.387  2.8045 -0.0616  0.1146
  181THF     H7 2347   0.747   1.249   2.295  0.4352  1.8898  0.3965
  181THF     C8 2348   0.962   1.312   2.314  0.7431  0.0343 -0.4494
  181THF     C9 2349   1.024   1.346   2.445  0.0348  0.0912  0.0659
  181THF    H10 2350   0.946   1.408   2.266 -0.6575 -0.3027 -0.6875
  181THF    H11 2351   1.022   1.245   2.252  0.3486  0.2093 -1.0146
  181THF    H12 2352   1.119   1.297   2.467  0.2678 -0.0165 -1.1441
  181THF    H13 2353   1.044   1.453   2.450  2.4409 -0.2071 -1.7739
  182THF     O1 2354   4.778   3.547   1.706  0.1550 -0.1915 -0.2880
  182THF     C2 2355   4.850   3.479   1.803  0.4961  0.5671 -0.0744
  182THF     C3 2356   4.804   3.484   1.582 -0.1697 -0.4098  0.3915
  182THF     H4 2357   4.796   3.386   1.817  0.0981  0.6683 -0.8524
  182THF     H5 2358   4.854   3.530   1.899  2.9905 -0.5653  0.5144
  182THF     H6 2359   4.745   3.398   1.550  0.3211 -0.6599  0.1419
  182THF     H7 2360   4.790   3.559   1.504  1.8082  0.1410  0.4989
  182THF     C8 2361   4.947   3.435   1.597 -0.0742  0.1267 -0.1807
  182THF     C9 2362   4.983   3.437   1.746 -0.8409 -0.1950  0.1071
  182THF    H10 2363   5.008   3.510   1.548  0.6483  0.6280  1.4279
  182THF    H11 2364   4.959   3.336   1.553 -0.1898  0.2336 -0.4552
  182THF    H12 2365   5.036   3.350   1.785  2.3233  1.2788 -0.6547
  182THF    H13 2366   5.061   3.511   1.761 -0.0548 -1.2857  1.8690
  183THF     O1 2367   1.911   4.328   4.195  0.4196 -0.0035 -0.0443
  183THF     C2 2368   1.930   4.446   4.260  0.1573 -0.5761  0.3125
  183THF     C3 2369   2.039   4.295   4.142  0.2376  0.1850  0.5636
  183THF     H4 2370   1.971   4.421   4.357  2.4484 -0.3916 -0.5443
  183THF     H5 2371   1.834   4.498   4.271  0.2294 -0.1241 -0.9803
  183THF     H6 2372   2.109   4.259   4.218  0.3082  1.0911  0.9536
  183THF     H7 2373   2.030   4.217   4.067 -0.0383  0.7932 -0.0462
  183THF     C8 2374   2.095   4.424   4.082  0.3402 -0.5738  0.1645
  183THF     C9 2375   2.030   4.528   4.176 -0.5883  0.0455  0.3810
  183THF    H10 2376   2.059   4.439   3.981 -2.9512 -1.1673  1.1129
  183THF    H11 2377   2.204   4.418   4.081  0.4366  0.8580  0.2605
  183THF    H12 2378   2.112   4.566   4.237  0.2105  2.4772 -2.0290
  183THF    H13 2379   1.989   4.607   4.114  1.6422 -0.2858 -1.6687
  184THF     O1 2380   3.758   1.774   4.191 -0.5096 -0.1575 -0.8472
  184THF     C2 2381   3.880   1.791   4.122 -0.4000  0.5797 -0.5750
  184THF     C3 2382   3.796   1.740   4.322  0.2185  0.5391 -0.1232
  184THF     H4 2383   3.945   1.871   4.155  1.1649 -1.3621  1.3864
  184THF     H5 2384   3.857   1.807   4.017 -3.1025 -0.7717 -0.2848
  184THF     H6 2385   3.851   1.814   4.381  3.1443 -0.6445 -1.1558
  184THF     H7 2386   3.717   1.705   4.388  0.2637 -2.9353 -1.7303
  184THF     C8 2387   3.894   1.633   4.295  0.1426  0.4920  0.1441
  184THF     C9 2388   3.943   1.661   4.159  0.2366 -0.1271  0.6050
  184THF    H10 2389   3.860   1.532   4.320 -0.5174  0.5945 -0.3206
  184THF    H11 2390   3.978   1.653   4.362  0.2529  0.2616  0.0783
  184THF    H12 2391   4.048   1.654   4.131 -0.0751  1.6981 -1.2360
  184THF    H13 2392   3.901   1.585   4.094  1.2788  0.8570 -1.2911
  185THF     O1 2393   5.496   2.619   5.082  0.5818 -0.6454  0.6755
  185THF     C2 2394   5.409   2.701   5.006  0.4829 -0.1617  0.0334
  185THF     C3 2395   5.446   2.487   5.077 -0.4472 -0.3171  0.4756
  185THF     H4 2396   5.408   2.671   4.901 -2.2469  0.2134 -0.1106
  185THF     H5 2397   5.437   2.805   5.021  1.9121 -0.2403 -1.7067
  185THF     H6 2398   5.457   2.432   4.984 -1.1876 -2.3467  1.5282
  185THF     H7 2399   5.488   2.432   5.162  1.1609 -0.0205 -0.0951
  185THF     C8 2400   5.297   2.518   5.104 -0.0826  0.0645 -1.0102
  185THF     C9 2401   5.279   2.663   5.060 -0.4737  0.6733 -0.2311
  185THF    H10 2402   5.284   2.510   5.212 -1.1574 -1.5378 -1.2186
  185THF    H11 2403   5.234   2.444   5.056 -2.8852  1.3915  0.4213
  185THF    H12 2404   5.195   2.674   4.992 -1.2813 -1.2934  0.3564
  185THF    H13 2405   5.256   2.723   5.148 -2.6768  1.2620 -1.1362
  186THF     O1 2406   2.781   2.500   0.163  0.1698 -0.0161 -0.2430
  186THF     C2 2407   2.857   2.596   0.237  0.1719 -0.6909  0.2608
  186THF     C3 2408   2.647   2.545   0.163 -0.4819  1.0334 -0.3573
  186THF     H4 2409   2.961   2.578   0.212 -0.5483 -0.5942 -3.2217
  186THF     H5 2410   2.834   2.584   0.343  1.0474  1.8126  0.8195
  186THF     H6 2411   2.581   2.494   0.092  1.0415 -0.7246 -0.5801
  186THF     H7 2412   2.600   2.548   0.261  0.1244  2.0317 -0.0813
  186THF     C8 2413   2.667   2.688   0.118 -1.0308 -0.2112  0.4408
  186THF     C9 2414   2.809   2.729   0.181 -0.4596 -0.1852  0.5423
  186THF    H10 2415   2.589   2.755   0.153 -0.9339  0.5524 -0.7616
  186THF    H11 2416   2.670   2.688   0.009 -0.9330 -0.9988  0.4372
  186THF    H12 2417   2.875   2.764   0.102 -0.2872 -1.9208 -0.1115
  186THF    H13 2418   2.804   2.815   0.249 -0.5643  2.1903 -2.2532
  187THF     O1 2419   0.046   4.131   4.927  0.7575  0.8635 -0.0898
  187THF     C2 2420   0.025   4.265   4.969 -0.2218 -0.8079 -0.0912
  187THF     C3 2421  -0.026   4.047   5.018  0.4997 -0.6809 -0.4915
  187THF     H4 2422  -0.075   4.306   4.954  0.3999  0.6118 -0.5315
  187THF     H5 2423   0.083   4.345   4.924 -1.2883  0.1472  0.1901
  187THF     H6 2424  -0.134   4.062   5.014  0.5690 -0.4225 -2.7839
  187THF     H7 2425  -0.034   3.938   5.011 -3.3232 -0.4921 -1.3099
  187THF     C8 2426   0.010   4.097   5.156  0.1250  0.0351  0.5092
  187THF     C9 2427   0.037   4.247   5.125 -0.7282  0.3131  0.3539
  187THF    H10 2428   0.111   4.056   5.168  0.6129  1.1284  0.3239
  187THF    H11 2429  -0.072   4.075   5.224 -1.6843  1.1089 -1.2180
  187THF    H12 2430  -0.044   4.295   5.180 -1.2745  0.2119 -0.3471
  187THF    H13 2431   0.129   4.284   5.170  0.4714 -1.5085 -0.4781
  188THF     O1 2432   3.688   3.133   1.950  0.1020  0.0993  0.3052
  188THF     C2 2433   3.565   3.209   1.963 -0.0169 -1.2252  0.3568
  188THF     C3 2434   3.745   3.115   2.079  0.3923  1.0878 -0.0868
  188THF     H4 2435   3.485   3.145   1.925 -0.8633  0.1656 -0.2763
  188THF     H5 2436   3.570   3.291   1.891  1.6853 -2.4464 -1.0085
  188THF     H6 2437   3.710   3.019   2.116  0.1228  0.5875 -1.6007
  188THF     H7 2438   3.853   3.127   2.081  0.3733  1.2163  0.3626
  188THF     C8 2439   3.686   3.221   2.171  0.0598  0.2355  0.0849
  188THF     C9 2440   3.552   3.252   2.111 -0.3636  0.4612  0.0048
  188THF    H10 2441   3.740   3.315   2.159 -3.8398  2.6905 -0.0187
  188THF    H11 2442   3.664   3.199   2.275 -1.6233  2.6619  0.2961
  188THF    H12 2443   3.467   3.204   2.160  0.2527  1.0866  1.7467
  188THF    H13 2444   3.527   3.358   2.120 -0.9003  0.2782  0.7991
  189THF     O1 2445   4.862   1.813   4.620  0.1779 -0.5463 -0.0761
  189THF     C2 2446   4.927   1.908   4.703 -0.0203 -0.2534  0.3102
  189THF     C3 2447   4.934   1.691   4.635 -0.2569  0.4491 -0.0768
  189THF     H4 2448   4.869   1.998   4.722  0.6215  0.6407 -1.6858
  189THF     H5 2449   5.017   1.937   4.649 -0.7356  1.0195 -0.2394
  189THF     H6 2450   4.875   1.602   4.616  1.1848 -1.1214  2.2456
  189THF     H7 2451   5.021   1.684   4.569 -0.6389 -0.2492 -0.5234
  189THF     C8 2452   4.979   1.690   4.778 -0.0101  0.4619 -0.0183
  189THF     C9 2453   4.965   1.828   4.834 -0.0816  0.3608  0.4240
  189THF    H10 2454   5.081   1.652   4.786 -0.1810 -0.4583 -1.6622
  189THF    H11 2455   4.901   1.630   4.826 -1.4853  1.2409 -1.3248
  189THF    H12 2456   4.891   1.834   4.913 -0.5746  2.1802 -0.1235
  189THF    H13 2457   5.058   1.861   4.880  0.2172  0.1132  0.0091
  190THF     O1 2458   2.183   2.989   2.515  0.2098  0.4106 -0.4356
  190THF     C2 2459   2.212   2.976   2.655  0.2258  0.1451  0.2537
  190THF     C3 2460   2.310   3.033   2.456 -0.0347 -0.6821  0.3373
  190THF     H4 2461   2.234   2.879   2.698 -1.2218 -0.2179  0.2328
  190THF     H5 2462   2.127   3.016   2.711 -0.3866 -2.3550  1.2123
  190THF     H6 2463   2.381   2.951   2.461 -1.2811 -1.9690 -1.8534
  190THF     H7 2464   2.304   3.067   2.353  0.1772 -0.1076  0.5044
  190THF     C8 2465   2.359   3.145   2.548  0.5993 -0.4129 -0.1288
  190THF     C9 2466   2.330   3.071   2.682 -0.5788 -0.3406  0.1731
  190THF    H10 2467   2.294   3.233   2.552 -0.4195 -1.0671 -1.3651
  190THF    H11 2468   2.466   3.162   2.533  0.7594  0.7369  1.9053
  190THF    H12 2469   2.424   3.030   2.718  0.1348 -0.2923 -1.5534
  190THF    H13 2470   2.299   3.140   2.761 -0.8794 -1.2517  0.8639
  191THF     O1 2471   0.071   3.144   1.254 -0.0243 -0.0162 -0.1749
  191THF     C2 2472  -0.053   3.201   1.223 -0.2146 -1.1340 -0.2049
  191THF     C3 2473   0.055   3.009   1.234 -0.0258 -0.0015 -0.8608
  191THF     H4 2474  -0.055   3.305   1.189  0.4623 -0.0974  2.6547
  191THF     H5 2475  -0.116   3.213   1.311 -0.9986  0.7054 -0.9668
  191THF     H6 2476   0.155   2.966   1.226 -0.4040 -1.5461  1.7158
  191THF     H7 2477   0.018   2.977   1.331  0.4890 -1.0072 -0.9906
  191THF     C8 2478  -0.036   3.002   1.115  1.2410  0.0667 -0.0439
  191THF     C9 2479  -0.124   3.117   1.120 -0.1862 -0.4722  0.5595
  191THF    H10 2480  -0.092   2.909   1.118  0.6065  0.4669  1.4699
  191THF    H11 2481   0.030   3.005   1.028  1.0268  2.2606 -0.1922
  191THF    H12 2482  -0.115   3.176   1.029 -0.1638 -0.3171  0.6622
  191THF    H13 2483  -0.230   3.098   1.136 -0.4782  0.2718 -0.4074
  192THF     O1 2484   2.271   0.557   1.201 -0.3497  0.3263 -0.7174
  192THF     C2 2485   2.258   0.695   1.169 -0.0574 -0.3032  0.0240
  192THF     C3 2486   2.228   0.479   1.090  0.1810  0.3750 -0.3791
  192THF     H4 2487   2.346   0.747   1.206  1.8667 -3.5270  0.3722
  192THF     H5 2488   2.179   0.749   1.221 -3.4574 -3.1193 -1.6950
  192THF     H6 2489   2.314   0.437   1.038  1.0269 -0.6356  1.6992
  192THF     H7 2490   2.152   0.405   1.119 -0.3787  0.8874 -0.5252
  192THF     C8 2491   2.162   0.579   0.988 -0.3493 -0.5221 -0.1631
  192THF     C9 2492   2.239   0.715   1.021  0.5349  0.7184  0.8248
  192THF    H10 2493   2.056   0.582   1.015 -0.7710 -1.5989 -1.5967
  192THF    H11 2494   2.167   0.536   0.888  0.1629 -1.6199  0.3291
  192THF    H12 2495   2.339   0.706   0.978  0.5909  0.5209  0.9925
  192THF    H13 2496   2.184   0.804   0.992  0.5892  0.8278  1.0598
  193THF     O1 2497   5.428   2.301   3.580  0.6793 -0.2829 -0.5396
  193THF     C2 2498   5.399   2.164   3.594 -0.8987  0.0919 -0.9068
  193THF     C3 2499   5.370   2.340   3.458 -0.6034  0.0230 -0.4286
  193THF     H4 2500   5.299   2.158   3.638 -0.1913  2.9706  1.4700
  193THF     H5 2501   5.451   2.112   3.675 -2.7584 -1.2176 -0.4820
  193THF     H6 2502   5.277   2.390   3.485  1.3151  2.1353  3.1521
  193THF     H7 2503   5.429   2.419   3.411 -0.5706 -0.1462 -0.6718
  193THF     C8 2504   5.333   2.228   3.378  0.3937  0.5206 -0.2591
  193THF     C9 2505   5.405   2.111   3.449  0.1531 -1.1035 -0.7951
  193THF    H10 2506   5.350   2.243   3.271 -1.3940  0.0885 -0.6293
  193THF    H11 2507   5.226   2.211   3.385  0.3700  0.7489 -0.1006
  193THF    H12 2508   5.364   2.011   3.432 -1.6648 -0.5466  0.0972
  193THF    H13 2509   5.513   2.110   3.434 -0.0579 -2.0136 -2.5168
  194THF     O1 2510   4.026   0.073   2.776  0.2077  0.0187  0.3407
  194THF     C2 2511   3.908   0.153   2.783  0.2800  0.5272  0.6363
  194THF     C3 2512   4.140   0.163   2.780  0.8150  0.0848  0.2644
  194THF     H4 2513   3.824   0.097   2.825  2.4252 -2.4277  1.3080
  194THF     H5 2514   3.866   0.186   2.688 -2.0681 -0.3058  1.3023
  194THF     H6 2515   4.236   0.117   2.805  1.2552  0.4240 -0.7307
  194THF     H7 2516   4.156   0.199   2.678  0.8030 -2.2765 -0.6358
  194THF     C8 2517   4.095   0.267   2.876 -0.1840  0.5866 -0.1268
  194THF     C9 2518   3.946   0.277   2.854  0.2637  0.1093  0.2222
  194THF    H10 2519   4.143   0.365   2.866  0.7855 -0.0382 -2.0865
  194THF    H11 2520   4.108   0.233   2.979 -0.5729  0.7023 -0.0390
  194THF    H12 2521   3.891   0.286   2.948 -2.9693 -1.5321 -1.3583
  194THF    H13 2522   3.905   0.367   2.807 -1.3062  0.6807  2.5179
  195THF     O1 2523   5.229   4.006   5.412  0.0663 -0.0912 -0.4755
  195THF     C2 2524   5.336   3.919   5.453 -0.3518 -0.8140  0.2902
  195THF     C3 2525   5.232   4.135   5.479  0.5079  0.4062  0.6354
  195THF     H4 2526   5.366   3.879   5.356 -2.1724  1.7977 -1.4890
  195THF     H5 2527   5.309   3.837   5.519  1.1878 -0.4733  1.4043
  195THF     H6 2528   5.181   4.224   5.441 -2.5969 -1.6708 -0.4807
  195THF     H7 2529   5.171   4.123   5.569 -1.9169 -0.7368 -1.0580
  195THF     C8 2530   5.386   4.148   5.507 -0.0922  0.5921  0.0810
  195THF     C9 2531   5.436   4.007   5.527  0.0537  0.4380 -0.0827
  195THF    H10 2532   5.410   4.215   5.590  3.8060  0.7722 -1.0266
  195THF    H11 2533   5.440   4.187   5.421  2.4998 -2.8769 -0.0483
  195THF    H12 2534   5.534   3.983   5.485  0.5290  0.5235  0.9503
  195THF    H13 2535   5.419   3.971   5.628 -1.2410  2.2649  0.4061
  196THF     O1 2536   3.116   5.244   3.703  0.1922  0.6091  0.2427
  196THF     C2 2537   3.063   5.299   3.821  0.0929  0.7052 -0.7836
  196THF     C3 2538   3.229   5.160   3.728 -0.3895 -0.2951  0.2769
  196THF     H4 2539   2.955   5.310   3.812 -0.0136 -0.3000 -0.8493
  196THF     H5 2540   3.107   5.398   3.824  0.5884  0.4844 -0.6302
  196THF     H6 2541   3.216   5.063   3.680  1.6038 -2.0103  2.9081
  196THF     H7 2542   3.316   5.200   3.676 -1.6732  0.5435 -1.3095
  196THF     C8 2543   3.261   5.169   3.884  0.0775 -1.0499 -0.9162
  196THF     C9 2544   3.122   5.213   3.935 -0.0713  0.0750  0.2509
  196THF    H10 2545   3.335   5.244   3.909  0.5273 -2.2044  1.4271
  196THF    H11 2546   3.310   5.084   3.931  1.5294  1.0853  1.6913
  196THF    H12 2547   3.046   5.138   3.954  0.8919 -0.2576  3.3990
  196THF    H13 2548   3.127   5.270   4.028  1.8237  1.5448 -0.6735
  197THF     O1 2549   2.476   0.343   4.990  0.3073  0.0351  0.2434
  197THF     C2 2550   2.470   0.206   4.954  0.0371  0.7997 -0.2490
  197THF     C3 2551   2.345   0.397   4.983 -0.1398  0.3818  1.0312
  197THF     H4 2552   2.557   0.143   4.965 -0.7007 -0.5288 -1.7054
  197THF     H5 2553   2.446   0.200   4.848  2.5035 -1.5336 -0.7837
  197THF     H6 2554   2.357   0.495   5.029 -0.6279 -0.0016  2.0087
  197THF     H7 2555   2.314   0.402   4.879  0.7672  1.5474  0.7954
  197THF     C8 2556   2.270   0.286   5.060 -0.0982  0.5931  0.3454
  197THF     C9 2557   2.345   0.158   5.032  0.0435  0.2186  0.3996
  197THF    H10 2558   2.166   0.272   5.033  0.6149 -0.6098 -2.0205
  197THF    H11 2559   2.280   0.298   5.168  1.5651  1.0569  0.1833
  197THF    H12 2560   2.372   0.105   5.123  2.1628  0.7122  0.1328
  197THF    H13 2561   2.276   0.086   4.989  2.1914 -2.0808  0.5810
  198THF     O1 2562   5.334   4.608   4.844  0.3256 -0.5622  0.0729
  198THF     C2 2563   5.362   4.744   4.871 -0.7305 -0.0558  0.0885
  198THF     C3 2564   5.257   4.598   4.729 -0.0264 -0.7994  0.0676
  198THF     H4 2565   5.432   4.786   4.798 -0.0592  2.1386  1.8788
  198THF     H5 2566   5.404   4.760   4.970  0.3147 -1.0830 -0.1710
  198THF     H6 2567   5.322   4.615   4.644  1.9487  1.2456  1.8343
  198THF     H7 2568   5.205   4.503   4.719 -0.6655 -0.2540 -2.2289
  198THF     C8 2569   5.156   4.716   4.745  0.2740 -0.1017  0.0845
  198THF     C9 2570   5.225   4.812   4.842  0.3702  0.7568  0.2816
  198THF    H10 2571   5.065   4.686   4.797  0.3342  1.5420  1.2332
  198THF    H11 2572   5.126   4.766   4.653  0.8376  1.3435  0.6595
  198THF    H12 2573   5.215   4.918   4.818  0.6939  0.5939 -0.6508
  198THF    H13 2574   5.162   4.797   4.929  0.7462 -0.5943  0.3390
  199THF     O1 2575   2.803   0.490   5.067 -0.0358  0.5374  0.3027
  199THF     C2 2576   2.873   0.610   5.044  0.6124 -0.2429 -0.4234
  199THF     C3 2577   2.882   0.382   5.032 -0.4670 -0.6152  0.0324
  199THF     H4 2578   2.941   0.628   5.127  1.1364 -0.3762 -0.8119
  199THF     H5 2579   2.803   0.693   5.040  0.4347 -0.2788  1.4402
  199THF     H6 2580   2.912   0.337   5.126  1.4464  1.0686  0.2804
  199THF     H7 2581   2.821   0.307   4.981 -0.0146 -0.5732 -0.5876
  199THF     C8 2582   3.002   0.438   4.959 -0.2405  0.2924 -0.0892
  199THF     C9 2583   2.958   0.580   4.922  0.0408  0.0269 -0.1059
  199THF    H10 2584   3.026   0.377   4.872  0.9702  0.9569 -0.2434
  199THF    H11 2585   3.083   0.439   5.033  2.3341  0.4025 -2.7392
  199THF    H12 2586   3.039   0.651   4.905  0.9782 -0.9627  0.1128
  199THF    H13 2587   2.897   0.579   4.832 -0.3576  0.2541  0.1589
  200THF     O1 2588   3.782   0.101   3.116 -0.3605  0.1395  0.3831
  200THF     C2 2589   3.716  -0.029   3.108  0.4249 -0.1954 -0.5750
  200THF     C3 2590   3.896   0.101   3.209  0.2642  0.0109 -0.4118
  200THF     H4 2591   3.727  -0.080   3.013 -0.1396 -2.3670  0.4524
  200THF     H5 2592   3.610  -0.021   3.134  0.5704 -0.2123  0.0458
  200THF     H6 2593   3.993   0.081   3.162  0.3995  0.0900 -0.1706
  200THF     H7 2594   3.899   0.198   3.257 -0.6061  0.7175 -1.7368
  200THF     C8 2595   3.849  -0.009   3.310 -0.3345  0.3371  0.2176
  200THF     C9 2596   3.791  -0.117   3.216 -0.0285 -0.6486 -0.3006
  200THF    H10 2597   3.773   0.027   3.379 -0.5471 -0.9399  0.6896
  200THF    H11 2598   3.927  -0.060   3.367  0.2248  2.3427  1.3039
  200THF    H12 2599   3.865  -0.171   3.157 -1.5797 -3.4507  0.1158
  200THF    H13 2600   3.736  -0.196   3.268  0.1063 -0.2633  0.4436
  201THF     O1 2601   0.033   0.499   4.753  0.2066 -0.0837 -0.2313
  201THF     C2 2602  -0.108   0.522   4.734 -0.4125  0.5832 -0.2544
  201THF     C3 2603   0.060   0.362   4.723 -0.4692 -0.1051 -0.1174
  201THF     H4 2604  -0.120   0.629   4.716 -1.6318  0.1453 -2.4293
  201THF     H5 2605  -0.174   0.482   4.811 -2.0393  2.8767 -0.3353
  201THF     H6 2606   0.156   0.340   4.677 -1.0175 -3.0962 -0.0575
  201THF     H7 2607   0.052   0.298   4.811 -1.5341  0.3630  0.1329
  201THF     C8 2608  -0.039   0.326   4.614  0.0079  0.2138  0.8236
  201THF     C9 2609  -0.122   0.448   4.603  0.3883 -0.5280  0.1824
  201THF    H10 2610  -0.088   0.231   4.630 -0.9884  0.1732 -1.9891
  201THF    H11 2611   0.002   0.306   4.515 -1.9676  1.0329 -0.2133
  201THF    H12 2612  -0.082   0.523   4.534 -0.7546  1.9496  2.0521
  201THF    H13 2613  -0.222   0.427   4.566 -0.1662  0.2941  1.1468
  202THF     O1 2614   0.399   2.188   2.117 -0.2618  0.1297  0.0586
  202THF     C2 2615   0.364   2.052   2.124 -0.2660  0.0115  0.1926
  202THF     C3 2616   0.462   2.209   1.994 -0.4228  0.3546 -0.6021
  202THF     H4 2617   0.292   2.038   2.206  1.0674  0.3399  1.4686
  202THF     H5 2618   0.451   1.988   2.136 -0.3616 -0.4738 -1.4805
  202THF     H6 2619   0.422   2.309   1.978  1.9507  1.1408 -2.2557
  202THF     H7 2620   0.571   2.218   1.989 -0.3571  0.8341  1.0554
  202THF     C8 2621   0.404   2.097   1.895 -0.2286  0.5942  0.8513
  202THF     C9 2622   0.305   2.029   1.985 -0.0705  0.5236  0.4408
  202THF    H10 2623   0.482   2.031   1.859 -1.0799 -0.4029  0.7913
  202THF    H11 2624   0.361   2.139   1.804  1.9239  0.1583 -0.4360
  202THF    H12 2625   0.205   2.074   1.985 -0.8005 -1.0069 -0.4473
  202THF    H13 2626   0.290   1.923   1.961 -2.7871  0.7803  0.5932
  203THF     O1 2627   2.296   1.341   4.808  0.8011  0.0267  0.3992
  203THF     C2 2628   2.323   1.362   4.948  0.1822 -0.6875  0.0881
  203THF     C3 2629   2.245   1.204   4.797 -0.0510 -0.1732  0.5631
  203THF     H4 2630   2.302   1.467   4.968  0.8085 -0.4628 -0.3986
  203THF     H5 2631   2.430   1.350   4.967  0.8910  1.0215 -2.3094
  203THF     H6 2632   2.142   1.215   4.763  0.3927  0.1561 -0.7275
  203THF     H7 2633   2.291   1.135   4.726  1.9489  1.3587  0.2768
  203THF     C8 2634   2.244   1.140   4.932 -0.2425 -0.4491  0.6216
  203THF     C9 2635   2.223   1.266   5.016 -0.6430 -0.2972  0.2145
  203THF    H10 2636   2.342   1.092   4.942 -0.6521 -1.3897  0.2735
  203THF    H11 2637   2.168   1.063   4.945 -0.8312 -0.0209 -0.1330
  203THF    H12 2638   2.121   1.305   5.007 -0.0317  1.1167 -0.8882
  203THF    H13 2639   2.242   1.249   5.122  0.6382 -0.7644 -0.0805
  204THF     O1 2640   3.957   1.857   2.885  0.2233 -0.5089  0.3090
  204THF     C2 2641   3.940   1.716   2.881  0.3003  0.3062  0.2029
  204THF     C3 2642   4.100   1.879   2.862  0.2726  0.0224 -0.1587
  204THF     H4 2643   3.904   1.701   2.780 -1.7902 -0.7651  1.0469
  204THF     H5 2644   3.847   1.687   2.930  0.1543 -0.3371 -0.4380
  204THF     H6 2645   4.107   1.930   2.766 -2.2868  0.2893 -0.2551
  204THF     H7 2646   4.145   1.929   2.948  0.0888  1.5133 -0.8970
  204THF     C8 2647   4.163   1.738   2.849 -0.6304 -0.3782 -0.5049
  204THF     C9 2648   4.069   1.638   2.910  0.1567  0.2445 -0.3553
  204THF    H10 2649   4.267   1.744   2.883 -1.0522 -1.4116  1.1116
  204THF    H11 2650   4.190   1.720   2.745 -0.2100  0.0423 -0.4728
  204THF    H12 2651   4.054   1.545   2.857  0.2046 -1.8188  2.9463
  204THF    H13 2652   4.083   1.628   3.018 -0.0773  2.8507  0.0041
  205THF     O1 2653   1.475   2.653   4.870  0.3466  0.3441  0.5122
  205THF     C2 2654   1.558   2.690   4.977 -0.3646  0.1286  0.1816
  205THF     C3 2655   1.531   2.712   4.750  0.2271  0.0230 -0.0047
  205THF     H4 2656   1.583   2.609   5.045  0.0160 -1.5248 -1.8282
  205THF     H5 2657   1.514   2.767   5.040  0.1539  0.4722  0.1380
  205THF     H6 2658   1.575   2.632   4.690  0.0670  0.2660 -0.4446
  205THF     H7 2659   1.450   2.749   4.689 -1.9172 -0.3925  2.4163
  205THF     C8 2660   1.637   2.801   4.789 -0.1405  0.0484 -0.7721
  205THF     C9 2661   1.687   2.739   4.916  0.0088  0.1927  0.2432
  205THF    H10 2662   1.592   2.897   4.816 -0.7989  0.0499 -1.8068
  205THF    H11 2663   1.695   2.839   4.704  0.7598 -0.1572 -0.2668
  205THF    H12 2664   1.747   2.655   4.882  3.0479  1.1962  2.6018
  205THF    H13 2665   1.742   2.814   4.975 -0.3009  0.0823  0.6767
  206THF     O1 2666   0.537   3.119   2.336 -0.1073  0.1694  0.0525
  206THF     C2 2667   0.456   3.098   2.219 -0.0563 -0.8250  0.0489
  206THF     C3 2668   0.664   3.057   2.305 -0.5577  0.0882 -0.3735
  206THF     H4 2669   0.390   3.183   2.232  1.9598  0.8316 -0.0584
  206THF     H5 2670   0.410   3.000   2.228 -0.9740 -0.2763  1.6965
  206THF     H6 2671   0.740   3.099   2.371  1.8267 -3.0134 -0.9014
  206THF     H7 2672   0.650   2.949   2.310 -1.5644  0.1863 -0.9416
  206THF     C8 2673   0.693   3.102   2.163  0.6216 -0.9023  0.1820
  206THF     C9 2674   0.556   3.121   2.102 -0.2254  1.1176  0.1265
  206THF    H10 2675   0.754   3.034   2.104  0.5271  1.4676 -2.9410
  206THF    H11 2676   0.742   3.199   2.173 -0.5480 -0.3646  0.9415
  206THF    H12 2677   0.533   3.216   2.053  0.0439  0.2854 -1.6684
  206THF    H13 2678   0.543   3.042   2.028  2.0799  0.5152  0.2930
  207THF     O1 2679   3.822   3.697   1.249  0.2338  0.2420 -0.1545
  207THF     C2 2680   3.907   3.604   1.317 -0.4345  0.2944 -0.0618
  207THF     C3 2681   3.714   3.716   1.344  0.0233 -0.4650  0.7092
  207THF     H4 2682   3.975   3.652   1.387 -0.2620 -0.2139  0.1240
  207THF     H5 2683   3.973   3.547   1.252  1.1343  1.0161  0.8531
  207THF     H6 2684   3.744   3.777   1.428  0.3166 -1.1729  1.1241
  207THF     H7 2685   3.626   3.762   1.299  1.2244 -0.1612 -1.4538
  207THF     C8 2686   3.684   3.573   1.385 -0.2704 -0.6819  0.2277
  207THF     C9 2687   3.816   3.500   1.382  0.3510  0.0907 -0.1684
  207THF    H10 2688   3.605   3.527   1.325  0.2108 -2.0722  0.6086
  207THF    H11 2689   3.639   3.566   1.484  0.5943  1.4231  0.8278
  207THF    H12 2690   3.859   3.476   1.479  2.1490 -0.8677 -1.1422
  207THF    H13 2691   3.814   3.410   1.321 -2.3885 -1.3436  1.8323
  208THF     O1 2692   1.389   1.376   5.251 -0.5950 -0.0471 -0.2906
  208THF     C2 2693   1.405   1.314   5.123 -0.3928 -0.0932 -0.8326
  208THF     C3 2694   1.291   1.479   5.236 -1.1418  0.2410  0.4443
  208THF     H4 2695   1.308   1.269   5.101 -0.5243  0.8166 -2.2056
  208THF     H5 2696   1.485   1.245   5.149 -0.8018 -0.4861 -0.6128
  208THF     H6 2697   1.194   1.429   5.245 -0.5473 -1.4682 -1.6946
  208THF     H7 2698   1.298   1.561   5.307  0.8225 -0.3481  0.9864
  208THF     C8 2699   1.313   1.527   5.098 -0.2268  0.4184  0.3714
  208THF     C9 2700   1.432   1.437   5.042  0.2052  0.0921 -0.2492
  208THF    H10 2701   1.315   1.636   5.092 -0.3938  0.3724 -0.6155
  208THF    H11 2702   1.232   1.502   5.030 -0.4788  3.0154 -0.4108
  208THF    H12 2703   1.425   1.399   4.940  1.6116 -1.0693  0.0546
  208THF    H13 2704   1.533   1.474   5.054  0.5411 -1.1920  1.0981
  209THF     O1 2705   5.245   0.975   1.128  0.4734 -0.1041  0.0203
  209THF     C2 2706   5.181   1.080   1.050 -0.1997 -0.6203  0.1354
  209THF     C3 2707   5.278   0.868   1.047 -0.2771  0.2796  0.8709
  209THF     H4 2708   5.216   1.181   1.070 -0.7214 -0.2247 -0.8615
  209THF     H5 2709   5.072   1.077   1.058 -0.1722 -0.2639  0.6796
  209THF     H6 2710   5.354   0.796   1.079 -0.6857  0.1052  1.4706
  209THF     H7 2711   5.192   0.811   1.011  0.1118 -0.7060  1.4578
  209THF     C8 2712   5.337   0.947   0.931 -0.9287  0.6983 -0.4695
  209THF     C9 2713   5.224   1.043   0.910  0.0494 -0.3386  0.1372
  209THF    H10 2714   5.352   0.885   0.843 -0.4308 -1.5325  1.1245
  209THF    H11 2715   5.432   0.992   0.959 -0.2889 -1.0968  0.3312
  209THF    H12 2716   5.273   1.125   0.857  2.3514 -1.4997  0.3246
  209THF    H13 2717   5.142   1.009   0.847  0.9526 -1.7234 -0.3485
  210THF     O1 2718   2.674   4.595   0.145  0.0342 -0.0141  0.1312
  210THF     C2 2719   2.575   4.507   0.197  0.1616 -0.0152 -0.4488
  210THF     C3 2720   2.793   4.530   0.139  0.1681 -0.0264  0.3478
  210THF     H4 2721   2.529   4.468   0.105  1.1813 -0.3490 -0.8310
  210THF     H5 2722   2.503   4.560   0.259 -0.5309 -2.2344  0.7674
  210THF     H6 2723   2.803   4.479   0.043 -0.3257 -1.6930  1.1537
  210THF     H7 2724   2.873   4.599   0.168  0.2998  1.1149 -2.3683
  210THF     C8 2725   2.782   4.409   0.234  0.0470 -0.3016  0.5164
  210THF     C9 2726   2.643   4.402   0.278  0.4120  0.5801  0.1889
  210THF    H10 2727   2.840   4.433   0.324  1.4424 -0.4938 -0.2980
  210THF    H11 2728   2.807   4.320   0.177  0.5139  0.2702 -0.1979
  210THF    H12 2729   2.597   4.306   0.251  1.3457  0.2017 -0.0831
  210THF    H13 2730   2.622   4.417   0.384 -1.4934 -0.3019 -0.0023
  211THF     O1 2731   2.677   5.475   0.238  0.4817  0.4515 -0.1633
  211THF     C2 2732   2.654   5.501   0.378  0.2272 -0.8010  0.4728
  211THF     C3 2733   2.808   5.530   0.207  0.0827  0.5004 -0.0896
  211THF     H4 2734   2.697   5.418   0.433  2.0675  0.6927  1.4133
  211THF     H5 2735   2.546   5.504   0.396  0.3020  0.7888  0.8840
  211THF     H6 2736   2.887   5.460   0.232  0.6379  0.9753 -0.4963
  211THF     H7 2737   2.819   5.561   0.103 -3.8587  0.1933 -0.7747
  211THF     C8 2738   2.809   5.660   0.289 -0.1006 -0.3136 -0.3460
  211THF     C9 2739   2.715   5.633   0.410  0.1006  0.2717 -0.2911
  211THF    H10 2740   2.757   5.728   0.220  1.9301 -0.2334 -1.8960
  211THF    H11 2741   2.908   5.702   0.307 -0.6449  0.6123  0.6004
  211THF    H12 2742   2.771   5.634   0.504 -1.1097 -0.0199  0.4606
  211THF    H13 2743   2.653   5.722   0.423  1.7019  1.3521  0.2939
  212THF     O1 2744   4.479   2.420   4.368  0.2530 -0.0249 -0.6441
  212THF     C2 2745   4.361   2.482   4.330  0.7813  0.0524 -0.8574
  212THF     C3 2746   4.466   2.278   4.358 -0.0290 -0.4561 -0.2389
  212THF     H4 2747   4.380   2.556   4.253  2.1309  1.2792  0.5688
  212THF     H5 2748   4.331   2.532   4.422 -0.6930 -2.1662 -0.0462
  212THF     H6 2749   4.499   2.232   4.264  0.9430 -2.4921  1.0186
  212THF     H7 2750   4.532   2.239   4.435 -1.8189 -2.3328  0.4104
  212THF     C8 2751   4.319   2.251   4.382  0.4871  0.0684  0.6938
  212THF     C9 2752   4.262   2.371   4.300 -0.7721 -0.1706 -0.0657
  212THF    H10 2753   4.294   2.257   4.488  1.9811 -0.5617  1.1018
  212THF    H11 2754   4.291   2.155   4.340 -2.2503  1.0040  0.1509
  212THF    H12 2755   4.270   2.329   4.200 -3.3108 -1.2756  0.0963
  212THF    H13 2756   4.160   2.401   4.324 -0.3089  0.1692  1.6027
  213THF     O1 2757   3.516   2.791   2.352  0.4622 -0.0072  0.2481
  213THF     C2 2758   3.481   2.928   2.345  0.2959 -0.4466  0.3769
  213THF     C3 2759   3.410   2.730   2.419  0.1097 -0.3924  0.2241
  213THF     H4 2760   3.532   2.981   2.265  0.4819  0.4374  1.0638
  213THF     H5 2761   3.504   2.978   2.439 -0.4450 -0.3689  0.5209
  213THF     H6 2762   3.419   2.621   2.419 -1.2609 -0.5275 -0.5993
  213THF     H7 2763   3.400   2.749   2.526 -2.1588 -1.2687  0.2246
  213THF     C8 2764   3.283   2.789   2.341  0.7379 -0.0896 -0.4356
  213THF     C9 2765   3.328   2.929   2.320  0.5374 -0.0322 -0.2439
  213THF    H10 2766   3.193   2.772   2.400  1.2225 -0.6126  0.1690
  213THF    H11 2767   3.272   2.734   2.247 -0.0549 -2.0974  0.7865
  213THF    H12 2768   3.297   2.968   2.224 -1.5988  0.5560  0.6394
  213THF    H13 2769   3.285   2.994   2.396  0.8269  0.8934 -0.8570
  214THF     O1 2770   1.538   4.660   0.683  0.3750  0.1581  0.1541
  214THF     C2 2771   1.655   4.699   0.617 -0.5027 -0.6650  0.4936
  214THF     C3 2772   1.562   4.535   0.756 -0.3375 -0.5049  0.1259
  214THF     H4 2773   1.690   4.798   0.648  3.0607 -1.2660 -1.0200
  214THF     H5 2774   1.617   4.703   0.515  0.2911  2.6883  0.2093
  214THF     H6 2775   1.502   4.542   0.847 -0.2884  1.6141  0.0381
  214THF     H7 2776   1.536   4.449   0.694  2.8642 -1.5572  0.0539
  214THF     C8 2777   1.713   4.536   0.778  0.6587  0.0949 -0.3315
  214THF     C9 2778   1.767   4.597   0.644  0.4654  0.8724  0.2024
  214THF    H10 2779   1.735   4.433   0.807 -1.2695 -0.1392  0.3939
  214THF    H11 2780   1.744   4.600   0.860 -0.7554 -0.3914  0.6045
  214THF    H12 2781   1.867   4.641   0.650  0.2377  1.3322  0.7138
  214THF    H13 2782   1.777   4.518   0.569  0.5778  1.4280 -0.3755
  215THF     O1 2783   5.405   0.870   4.202  0.3084 -0.3974 -0.2942
  215THF     C2 2784   5.335   0.972   4.265 -0.2705  0.3674  0.1196
  215THF     C3 2785   5.392   0.753   4.282  0.0728 -0.1789  0.4280
  215THF     H4 2786   5.276   1.027   4.191  1.0257 -1.0976 -2.1195
  215THF     H5 2787   5.414   1.038   4.301  3.2574 -2.9712 -0.7953
  215THF     H6 2788   5.330   0.682   4.227  2.2201 -0.2748 -2.0631
  215THF     H7 2789   5.493   0.714   4.291 -0.2178 -1.1874 -0.4293
  215THF     C8 2790   5.343   0.800   4.414  0.8021  0.0944 -0.3431
  215THF     C9 2791   5.258   0.921   4.387  1.4305  0.4841 -0.1866
  215THF    H10 2792   5.430   0.830   4.471  0.1156  0.2957  0.6206
  215THF    H11 2793   5.289   0.723   4.470  1.2816  0.0711  0.0866
  215THF    H12 2794   5.155   0.908   4.355  0.8509  1.3217  1.2659
  215THF    H13 2795   5.252   0.975   4.481  0.3054  0.2654 -0.1216
  216THF     O1 2796   4.976   4.439   4.614  0.4358  0.0479 -0.1689
  216THF     C2 2797   4.890   4.363   4.701 -0.0139  0.0998 -0.6165
  216THF     C3 2798   5.029   4.356   4.514  0.0729  0.0630 -0.3612
  216THF     H4 2799   4.792   4.359   4.654 -0.6769 -1.5398  0.8068
  216THF     H5 2800   4.883   4.410   4.800  1.1271 -0.7431 -0.1207
  216THF     H6 2801   5.003   4.386   4.413  0.4640 -0.7152 -0.7104
  216THF     H7 2802   5.136   4.379   4.513 -0.0395  0.7282  0.8643
  216THF     C8 2803   4.986   4.213   4.551  0.0669  0.4953  0.6351
  216THF     C9 2804   4.953   4.227   4.699 -0.6456 -0.3019  0.3048
  216THF    H10 2805   5.062   4.140   4.524  0.2653  0.6715  0.7057
  216THF    H11 2806   4.903   4.187   4.487  1.0780 -1.1497 -0.0760
  216THF    H12 2807   4.890   4.148   4.739 -0.0933 -0.6839  0.4265
  216THF    H13 2808   5.041   4.232   4.763  0.8427 -3.3832 -1.2822
  217THF     O1 2809   3.664   0.011   1.833 -0.1793 -0.0986  0.3478
  217THF     C2 2810   3.680  -0.120   1.886  0.0954  0.3319 -0.1316
  217THF     C3 2811   3.672   0.107   1.932 -0.8039  0.8716 -0.1296
  217THF     H4 2812   3.678  -0.202   1.815 -0.3731 -0.3588  0.6615
  217THF     H5 2813   3.592  -0.144   1.945 -0.5837  0.2676 -1.1680
  217THF     H6 2814   3.689   0.207   1.891  1.8107  0.6750  0.3403
  217THF     H7 2815   3.570   0.107   1.972 -0.6355 -2.0592  0.5080
  217THF     C8 2816   3.784   0.052   2.022 -0.3378 -0.6479  0.3120
  217THF     C9 2817   3.797  -0.105   1.983 -0.1782 -0.4577  0.1765
  217THF    H10 2818   3.749   0.068   2.124 -0.6691 -2.4121  0.5087
  217THF    H11 2819   3.874   0.112   2.008 -0.6704 -0.0408  0.7652
  217THF    H12 2820   3.887  -0.134   1.929 -1.5344  1.0132 -3.1482
  217THF    H13 2821   3.776  -0.171   2.067 -1.1100  0.3040  0.5580
  218THF     O1 2822   1.954   4.085   2.863 -0.2365 -0.0147 -0.2457
  218THF     C2 2823   1.931   3.969   2.786 -0.3749  0.2568 -0.2643
  218THF     C3 2824   2.005   4.188   2.778 -0.4385  0.6462  0.3523
  218THF     H4 2825   1.865   3.894   2.831 -1.0145  0.3013 -1.1062
  218THF     H5 2826   2.023   3.915   2.767 -1.4181 -0.9293 -2.2444
  218THF     H6 2827   1.997   4.284   2.830 -1.1227 -0.2325  1.9639
  218THF     H7 2828   2.100   4.165   2.730 -1.0953  0.4779 -0.9044
  218THF     C8 2829   1.908   4.181   2.663  0.5997  0.7982  0.2771
  218THF     C9 2830   1.866   4.032   2.659  0.6287 -0.0602 -0.4700
  218THF    H10 2831   1.951   4.206   2.567 -0.4312 -2.6773 -1.2767
  218THF    H11 2832   1.817   4.240   2.676 -0.8953 -1.1841 -0.4743
  218THF    H12 2833   1.758   4.042   2.662  0.5495 -1.0151  0.8767
  218THF    H13 2834   1.891   3.975   2.569  0.6618 -1.1690  0.2181
  219THF     O1 2835   2.287   5.373   5.485 -0.2162  0.2334  0.6809
  219THF     C2 2836   2.183   5.267   5.489  0.4853 -0.4979  0.3824
  219THF     C3 2837   2.317   5.410   5.351 -0.1385  0.7952  0.9133
  219THF     H4 2838   2.096   5.293   5.550  2.0937 -2.1939  3.6576
  219THF     H5 2839   2.225   5.176   5.530 -0.5706 -1.6359 -0.9717
  219THF     H6 2840   2.327   5.518   5.337 -0.1818  0.5926 -1.0921
  219THF     H7 2841   2.414   5.367   5.327  1.5099  3.6028  1.9875
  219THF     C8 2842   2.203   5.351   5.268  0.2308  0.3500 -0.1364
  219THF     C9 2843   2.155   5.226   5.350  0.5618 -0.6241  0.0596
  219THF    H10 2844   2.226   5.335   5.163  0.6909 -1.1834  0.1733
  219THF    H11 2845   2.120   5.422   5.268 -1.6092 -1.7097 -0.9452
  219THF    H12 2846   2.048   5.212   5.341  0.0799  1.8942  1.0864
  219THF    H13 2847   2.207   5.133   5.329 -1.5954 -1.8798  0.0399
  220THF     O1 2848   0.547   4.018   1.582  0.2597  0.0084 -0.0180
  220THF     C2 2849   0.507   3.887   1.627 -0.2999 -0.2214 -0.2843
  220THF     C3 2850   0.518   4.005   1.443  0.3950 -0.2705 -0.7090
  220THF     H4 2851   0.398   3.879   1.633 -0.2723 -0.3943 -0.0190
  220THF     H5 2852   0.543   3.865   1.728  0.5877  1.9460 -0.0711
  220THF     H6 2853   0.423   4.041   1.404  1.5153  3.9720 -0.0350
  220THF     H7 2854   0.582   4.078   1.394 -0.2645 -1.1678 -3.0210
  220THF     C8 2855   0.555   3.864   1.400  0.0178 -0.2586  0.7261
  220THF     C9 2856   0.563   3.784   1.525 -0.2151  0.3227  0.0379
  220THF    H10 2857   0.644   3.871   1.338 -0.9890 -2.6458 -1.1760
  220THF    H11 2858   0.474   3.825   1.338 -1.2117  1.3553  1.2730
  220THF    H12 2859   0.505   3.692   1.528  2.7405 -1.6683  1.5753
  220THF    H13 2860   0.663   3.744   1.543 -0.5039  0.3018  1.7983
  221THF     O1 2861   2.939   1.106   3.120  0.3630  0.1870  0.0052
  221THF     C2 2862   3.006   0.985   3.149 -0.0108 -0.1713 -0.1889
  221THF     C3 2863   3.021   1.183   3.025  0.0142  0.0225 -0.8002
  221THF     H4 2864   2.974   0.900   3.089 -1.5109 -0.8631  1.5103
  221THF     H5 2865   2.984   0.953   3.251  1.0209 -2.1230 -0.5207
  221THF     H6 2866   3.005   1.160   2.920 -2.2155  0.4905 -0.6180
  221THF     H7 2867   3.014   1.291   3.030  1.0707  0.1367 -1.4191
  221THF     C8 2868   3.165   1.139   3.065  0.0372 -0.0605  0.0989
  221THF     C9 2869   3.154   1.004   3.132  0.0599  0.7965 -0.0920
  221THF    H10 2870   3.218   1.211   3.128  0.4644 -0.1911 -0.1068
  221THF    H11 2871   3.216   1.148   2.969 -2.3509  1.8552 -1.0896
  221THF    H12 2872   3.198   0.929   3.066  0.5197  0.6022  0.4207
  221THF    H13 2873   3.209   0.992   3.225 -0.4523  3.1850  0.5847
  222THF     O1 2874   4.043   2.533   0.930 -0.4451 -0.4670 -0.0926
  222THF     C2 2875   3.989   2.464   0.822  0.2648  0.4014  0.1045
  222THF     C3 2876   3.951   2.523   1.042  0.1407  0.1230  0.7526
  222THF     H4 2877   4.071   2.430   0.760 -0.7390 -0.7802 -0.6069
  222THF     H5 2878   3.921   2.540   0.785  1.1475  0.6371 -1.1075
  222THF     H6 2879   3.995   2.520   1.142 -1.3334 -0.2706  1.4081
  222THF     H7 2880   3.878   2.604   1.042  0.9092  0.8740 -1.3183
  222THF     C8 2881   3.873   2.392   1.015  0.1549 -0.2810  0.3435
  222THF     C9 2882   3.915   2.350   0.878  0.1845  0.8072 -0.5016
  222THF    H10 2883   3.768   2.419   1.011  0.4140  0.6374 -0.8751
  222THF    H11 2884   3.896   2.328   1.100  1.5221  1.4658  1.3615
  222THF    H12 2885   3.982   2.265   0.884  0.4256  0.8794 -1.8690
  222THF    H13 2886   3.835   2.322   0.809 -0.1769  1.3179 -0.2988
  223THF     O1 2887   5.277   0.859   5.124 -0.3411 -0.0465 -0.4760
  223THF     C2 2888   5.283   0.905   5.263 -0.0953  0.4648 -0.2433
  223THF     C3 2889   5.350   0.737   5.125  0.6089  0.9034 -0.1031
  223THF     H4 2890   5.201   0.850   5.310  1.1248 -0.8772  0.3811
  223THF     H5 2891   5.257   1.011   5.263 -0.0192  0.5079 -1.7350
  223THF     H6 2892   5.276   0.675   5.176 -0.4462  0.4206 -2.0915
  223THF     H7 2893   5.379   0.708   5.024  1.7987  1.2964  0.1076
  223THF     C8 2894   5.471   0.764   5.209 -0.0735  0.1305 -0.7029
  223THF     C9 2895   5.420   0.853   5.319  0.0571  0.2285  0.3998
  223THF    H10 2896   5.552   0.825   5.170 -0.1124  1.0648  0.5863
  223THF    H11 2897   5.520   0.674   5.248  2.2436  0.6779 -2.2030
  223THF    H12 2898   5.407   0.784   5.403 -0.9462  0.7592  0.6842
  223THF    H13 2899   5.496   0.924   5.353 -0.0576 -0.1439  1.4948
  224THF     O1 2900   3.258   0.657   3.796  0.1266 -0.1347 -0.4226
  224THF     C2 2901   3.270   0.529   3.865  0.3082 -0.1490  0.3718
  224THF     C3 2902   3.378   0.732   3.797  0.1751  0.1356  0.3493
  224THF     H4 2903   3.292   0.462   3.782  1.2045 -1.5457  1.6939
  224THF     H5 2904   3.183   0.506   3.925  0.1668  1.7299  0.9573
  224THF     H6 2905   3.451   0.704   3.722  0.8845 -1.0236  1.4241
  224THF     H7 2906   3.363   0.840   3.793  0.4026  0.1366 -0.5552
  224THF     C8 2907   3.431   0.698   3.937  0.0581 -0.1969 -0.2265
  224THF     C9 2908   3.391   0.550   3.958  0.3260  1.0317  0.4177
  224THF    H10 2909   3.393   0.775   4.003 -0.2774  0.2740 -0.9578
  224THF    H11 2910   3.538   0.715   3.950 -0.1614  1.0634  0.0336
  224THF    H12 2911   3.470   0.476   3.949 -0.3762 -0.1343  3.1047
  224THF    H13 2912   3.363   0.538   4.063  0.4520  1.0644  0.4547
  225THF     O1 2913   3.674   2.574   0.438  0.4641  0.0100 -0.5616
  225THF     C2 2914   3.744   2.528   0.326  0.7094 -0.3924 -0.2456
  225THF     C3 2915   3.684   2.720   0.435  0.3115  0.7643 -0.3757
  225THF     H4 2916   3.688   2.538   0.233 -1.0519  0.8654  0.9009
  225THF     H5 2917   3.774   2.423   0.331 -2.7509 -1.4865  0.2528
  225THF     H6 2918   3.598   2.753   0.378 -1.0160 -0.1369  1.0239
  225THF     H7 2919   3.681   2.742   0.542  0.1125 -2.0468  0.2922
  225THF     C8 2920   3.822   2.751   0.379  0.6380  0.0349  0.1815
  225THF     C9 2921   3.868   2.620   0.329  0.4387  0.0177  0.3003
  225THF    H10 2922   3.897   2.780   0.453 -0.1015 -0.1473  1.0158
  225THF    H11 2923   3.815   2.814   0.290  0.0567 -0.5377 -0.1873
  225THF    H12 2924   3.925   2.631   0.237 -0.6047 -3.1089 -0.8622
  225THF    H13 2925   3.922   2.579   0.414  0.3696  0.4614  0.5595
  226THF     O1 2926   2.704   1.235   3.481 -0.0539 -0.2828  0.1274
  226THF     C2 2927   2.733   1.340   3.579 -0.0236 -0.0643  0.1711
  226THF     C3 2928   2.743   1.108   3.537  0.4710 -0.2696  0.0929
  226THF     H4 2929   2.665   1.421   3.553 -0.3297 -1.0814 -2.4768
  226THF     H5 2930   2.839   1.360   3.567 -0.1978  1.0366  0.3566
  226THF     H6 2931   2.688   1.027   3.490 -1.5124  0.6825  0.6692
  226THF     H7 2932   2.851   1.094   3.527  0.3202 -1.5542  0.0671
  226THF     C8 2933   2.702   1.126   3.686 -1.4177 -0.5455 -0.1404
  226THF     C9 2934   2.705   1.275   3.716 -0.1776 -0.8017 -0.3175
  226THF    H10 2935   2.766   1.068   3.752  2.0998  0.8240 -2.0794
  226THF    H11 2936   2.599   1.090   3.698 -1.7703 -0.1557 -1.7058
  226THF    H12 2937   2.600   1.298   3.735 -0.4621 -1.5765 -0.8894
  226THF    H13 2938   2.768   1.306   3.800  0.4231  0.1828 -1.1123
  227THF     O1 2939   1.786   3.013   1.131 -0.0725  0.4466  0.5946
  227THF     C2 2940   1.764   3.150   1.103  0.0989  0.5001 -0.2737
  227THF     C3 2941   1.763   2.933   1.015 -0.3979  0.4898 -0.9284
  227THF     H4 2942   1.856   3.188   1.057  0.9931 -2.6822 -1.3934
  227THF     H5 2943   1.745   3.212   1.190 -1.5908  1.2297 -1.1156
  227THF     H6 2944   1.860   2.898   0.980 -0.7863 -0.5025 -1.0545
  227THF     H7 2945   1.714   2.838   1.036 -0.2525  0.5345 -0.3753
  227THF     C8 2946   1.686   3.018   0.913 -0.1745  0.1483  0.8651
  227THF     C9 2947   1.658   3.146   0.997 -0.0984  0.7089 -1.0543
  227THF    H10 2948   1.595   2.966   0.883  0.6883 -0.6458 -0.4942
  227THF    H11 2949   1.745   3.052   0.827 -0.7922 -0.0480  0.3492
  227THF    H12 2950   1.630   3.228   0.931 -5.1317  1.5517  1.6448
  227THF    H13 2951   1.564   3.136   1.051 -0.5380 -1.3868 -2.1252
  228THF     O1 2952   0.985   0.728   4.186  0.0441  0.0735  0.0418
  228THF     C2 2953   0.999   0.808   4.297 -0.3598  0.0458 -0.2848
  228THF     C3 2954   1.073   0.617   4.208 -0.6535  0.3400  0.0908
  228THF     H4 2955   0.918   0.881   4.299 -0.1616  0.2988 -1.3340
  228THF     H5 2956   1.089   0.866   4.278  0.5623 -1.3700 -0.3537
  228THF     H6 2957   1.052   0.526   4.151 -0.3146  0.0344  0.4415
  228THF     H7 2958   1.166   0.653   4.165 -0.1145 -1.4307 -0.3106
  228THF     C8 2959   1.092   0.593   4.360  0.3046  0.7644 -0.1529
  228THF     C9 2960   1.029   0.720   4.422 -0.5431 -0.0891 -0.2426
  228THF    H10 2961   1.193   0.574   4.396  0.4204  2.6078  0.5828
  228THF    H11 2962   1.042   0.502   4.394  4.6190 -2.0745 -0.6640
  228THF    H12 2963   0.936   0.691   4.472  1.0930 -1.2036  2.3248
  228THF    H13 2964   1.089   0.768   4.499  1.5895 -2.0375 -0.5797
  229THF     O1 2965   2.447   3.444   3.609 -0.9580 -0.2481 -0.2121
  229THF     C2 2966   2.309   3.419   3.604 -0.2326 -0.2691 -0.1359
  229THF     C3 2967   2.504   3.359   3.702 -0.1912  0.0051 -0.2469
  229THF     H4 2968   2.282   3.413   3.499  1.3194  1.2278 -0.6555
  229THF     H5 2969   2.252   3.504   3.642  1.1883  0.0296  1.4768
  229THF     H6 2970   2.612   3.356   3.689 -0.0156  0.4473  1.0020
  229THF     H7 2971   2.487   3.391   3.805  1.3237  1.9534 -0.5528
  229THF     C8 2972   2.424   3.233   3.671 -0.3475  0.2182  0.5461
  229THF     C9 2973   2.282   3.287   3.666  0.0923 -0.3706  0.2117
  229THF    H10 2974   2.436   3.166   3.757 -1.3523 -0.0105  0.5242
  229THF    H11 2975   2.463   3.173   3.589 -1.9217 -0.2373  0.0861
  229THF    H12 2976   2.212   3.234   3.601 -1.3679  2.0426 -0.3015
  229THF    H13 2977   2.236   3.294   3.764 -0.3900  3.3443 -0.1540
  230THF     O1 2978   2.901   4.327   1.959  0.5557 -0.6278 -0.4005
  230THF     C2 2979   2.876   4.420   2.058 -0.1689  0.2052 -0.5787
  230THF     C3 2980   3.038   4.337   1.917 -0.0969  0.2251  0.6239
  230THF     H4 2981   2.788   4.392   2.116  0.6788 -1.8514 -0.1950
  230THF     H5 2982   2.860   4.521   2.020 -2.0377 -0.4823 -1.7508
  230THF     H6 2983   3.072   4.245   1.868  0.1322  0.0172  1.1703
  230THF     H7 2984   3.044   4.428   1.857 -1.4305  1.2247  1.9345
  230THF     C8 2985   3.105   4.356   2.048 -0.2539 -0.9736  0.5988
  230THF     C9 2986   2.994   4.406   2.144 -0.0651  0.1277  0.9962
  230THF    H10 2987   3.176   4.438   2.035 -0.8819 -0.3624  0.9888
  230THF    H11 2988   3.160   4.275   2.095  0.1620 -2.0541 -1.6425
  230THF    H12 2989   2.968   4.330   2.217  0.7208 -0.0539  1.0985
  230THF    H13 2990   3.035   4.489   2.201  1.7531 -1.5729  2.3000
  231THF     O1 2991   0.122   0.862   1.403  0.1268  0.0991 -0.2279
  231THF     C2 2992   0.012   0.928   1.471  0.4618  0.4951  0.5288
  231THF     C3 2993   0.117   0.725   1.427 -0.6013  0.1847  0.2958
  231THF     H4 2994  -0.060   0.980   1.408 -1.6997 -2.2916  0.4888
  231THF     H5 2995   0.055   0.996   1.545  1.9663 -0.1231  0.2615
  231THF     H6 2996   0.039   0.693   1.357 -0.7732 -0.8584  0.9570
  231THF     H7 2997   0.213   0.675   1.417 -1.7767 -2.1543  0.0974
  231THF     C8 2998   0.044   0.715   1.559 -0.2685 -0.3636 -0.1317
  231THF     C9 2999  -0.066   0.820   1.549  0.1542 -0.1886  0.2369
  231THF    H10 3000   0.112   0.746   1.638  0.3893 -1.1235 -0.3822
  231THF    H11 3001   0.002   0.617   1.581  0.9964 -1.0903 -0.8235
  231THF    H12 3002  -0.153   0.780   1.496  1.5294 -0.7803 -1.6897
  231THF    H13 3003  -0.085   0.850   1.652 -1.3889 -2.1912  0.6029
  232THF     O1 3004   2.894   1.518   0.685  0.0472 -0.0409  0.3074
  232THF     C2 3005   2.832   1.522   0.814  0.4721  0.1879  0.3397
  232THF     C3 3006   2.960   1.395   0.682  0.2937  0.3987  0.1422
  232THF     H4 3007   2.743   1.460   0.806 -0.0999  0.8304  1.3677
  232THF     H5 3008   2.802   1.624   0.841 -0.1020  0.1153 -0.0236
  232THF     H6 3009   2.887   1.317   0.668  2.9278 -2.0931 -0.6926
  232THF     H7 3010   3.024   1.397   0.593 -1.0223  0.5239 -0.8261
  232THF     C8 3011   3.036   1.389   0.813  0.0239 -0.5600 -0.5466
  232THF     C9 3012   2.944   1.471   0.908 -0.6912  0.2161  0.3975
  232THF    H10 3013   3.130   1.442   0.797 -0.7549  0.6971 -1.0220
  232THF    H11 3014   3.068   1.293   0.855 -0.4866  0.4769  2.4431
  232THF    H12 3015   2.900   1.417   0.992 -3.3653  0.4464 -0.7492
  232THF    H13 3016   3.002   1.559   0.936  0.3120  0.5605 -2.4159
  233THF     O1 3017   2.203   4.372   0.374  0.1816  0.2145  0.1851
  233THF     C2 3018   2.070   4.374   0.322 -0.0074 -0.9503  0.7704
  233THF     C3 3019   2.256   4.257   0.312  0.5480 -0.6109 -0.3760
  233THF     H4 3020   2.034   4.477   0.328  1.6260 -0.1247 -1.9731
  233THF     H5 3021   2.014   4.306   0.386 -0.7818  0.5390  1.7428
  233THF     H6 3022   2.363   4.236   0.317  0.3537 -1.3915  0.6936
  233THF     H7 3023   2.212   4.170   0.360  0.1782  0.5642  1.5159
  233THF     C8 3024   2.204   4.243   0.167 -0.0865 -0.1566  0.4102
  233THF     C9 3025   2.072   4.315   0.179  0.4135 -0.4716 -0.3221
  233THF    H10 3026   2.197   4.144   0.123  2.7056 -0.4237  0.3887
  233THF    H11 3027   2.261   4.292   0.088  0.6581 -1.6589 -0.0156
  233THF    H12 3028   2.057   4.384   0.096 -0.5744 -1.3155 -0.8599
  233THF    H13 3029   1.994   4.239   0.182  1.4751 -1.7098 -1.9930
  234THF     O1 3030   0.954   2.489   0.547 -0.5949 -0.2295 -0.4226
  234THF     C2 3031   1.010   2.475   0.680 -0.7163  0.1353  0.2614
  234THF     C3 3032   1.040   2.552   0.457  0.2906 -0.2378 -0.3401
  234THF     H4 3033   1.057   2.378   0.698 -1.7555 -0.2987  0.7342
  234THF     H5 3034   0.933   2.486   0.757 -1.5752 -0.5335 -0.4899
  234THF     H6 3035   1.114   2.480   0.422 -0.3216 -1.1218  0.1468
  234THF     H7 3036   0.987   2.594   0.372  1.1158 -0.0929 -0.7987
  234THF     C8 3037   1.116   2.652   0.543 -0.4672 -0.3435 -0.1419
  234THF     C9 3038   1.124   2.577   0.677 -0.0233 -0.8551 -0.5919
  234THF    H10 3039   1.072   2.751   0.557 -1.3375 -0.6843 -0.4076
  234THF    H11 3040   1.217   2.676   0.510 -0.6872 -0.7645 -1.1620
  234THF    H12 3041   1.220   2.525   0.673  1.4790  1.5723  0.7947
  234THF    H13 3042   1.140   2.646   0.760  0.6576 -0.9574 -0.6265
  235THF     O1 3043   5.279   2.155   4.842  0.1250  0.0950 -0.0020
  235THF     C2 3044   5.342   2.080   4.743 -0.0142  0.3496  0.2575
  235THF     C3 3045   5.354   2.146   4.964  0.3532  0.4057  0.3013
  235THF     H4 3046   5.430   2.134   4.706 -0.8192  1.1428 -0.5453
  235THF     H5 3047   5.274   2.066   4.659 -1.7885  0.5133  1.6242
  235THF     H6 3048   5.428   2.225   4.974  2.6781 -1.3361 -1.7682
  235THF     H7 3049   5.297   2.142   5.057 -1.5237 -2.2406 -0.8363
  235THF     C8 3050   5.432   2.010   4.954  0.1195  0.2480  0.8320
  235THF     C9 3051   5.383   1.951   4.821 -0.0239  0.0072  0.3356
  235THF    H10 3052   5.426   1.935   5.033 -0.7163 -3.9625 -2.8408
  235THF    H11 3053   5.540   2.020   4.944  0.5421 -2.6975  1.6396
  235THF    H12 3054   5.449   1.882   4.767 -1.5415 -1.6530  0.5047
  235THF    H13 3055   5.300   1.881   4.827 -0.2620  0.2291 -0.2884
  236THF     O1 3056   3.454   1.564   3.848 -0.1999  0.3961  0.1277
  236THF     C2 3057   3.316   1.569   3.891 -0.0791 -0.3287 -0.7911
  236THF     C3 3058   3.466   1.543   3.708  0.5251 -0.5171  0.6834
  236THF     H4 3059   3.268   1.667   3.890  1.7018  0.7941  2.7889
  236THF     H5 3060   3.320   1.529   3.992  0.1271 -0.9501 -1.0447
  236THF     H6 3061   3.507   1.632   3.659 -1.4478 -0.2175 -0.5306
  236THF     H7 3062   3.529   1.455   3.691  1.8784  0.3860  0.7985
  236THF     C8 3063   3.316   1.529   3.664  0.1313  0.5172  0.2933
  236THF     C9 3064   3.239   1.493   3.790 -0.4428  0.3241  1.2281
  236THF    H10 3065   3.292   1.476   3.573  0.2529  0.6537  0.1811
  236THF    H11 3066   3.302   1.631   3.628  0.0350  0.7107  0.8578
  236THF    H12 3067   3.133   1.518   3.783 -0.6863 -0.8244  0.4498
  236THF    H13 3068   3.257   1.388   3.813  1.6011  0.2129 -0.5615
  237THF     O1 3069   4.914   1.512   1.210 -0.1303 -0.5491 -0.6601
  237THF     C2 3070   5.052   1.516   1.178  0.1437 -0.5464  0.0505
  237THF     C3 3071   4.899   1.551   1.346 -0.2956  0.0200 -0.0829
  237THF     H4 3072   5.063   1.530   1.070 -2.0452  0.3615 -0.1063
  237THF     H5 3073   5.103   1.420   1.188  0.8951 -0.1467  0.1828
  237THF     H6 3074   4.792   1.569   1.361 -0.3487  0.6746 -1.1328
  237THF     H7 3075   4.945   1.480   1.414  0.6628  1.7714  1.1859
  237THF     C8 3076   4.991   1.671   1.342 -0.4271 -0.2869  0.0927
  237THF     C9 3077   5.104   1.645   1.247  0.3550 -0.0893 -0.1738
  237THF    H10 3078   5.017   1.689   1.447  1.7906 -0.1266 -0.4440
  237THF    H11 3079   4.933   1.752   1.297 -0.2110 -1.1976 -1.9137
  237THF    H12 3080   5.123   1.718   1.168  0.5400  0.0059 -0.0413
  237THF    H13 3081   5.200   1.625   1.295  1.5560 -1.5464 -2.9523
  238THF     O1 3082   0.162   1.118   0.222 -0.4040  0.0593  0.4274
  238THF     C2 3083   0.146   1.080   0.085 -0.3172 -0.2196  0.1397
  238THF     C3 3084   0.308   1.106   0.248  0.6671 -0.5515 -0.2271
  238THF     H4 3085   0.153   1.162   0.014  0.6644 -0.4848 -0.0851
  238THF     H5 3086   0.052   1.032   0.059 -1.1047  2.3178 -2.0898
  238THF     H6 3087   0.360   1.186   0.197 -1.1808  1.0438  0.2867
  238THF     H7 3088   0.324   1.098   0.356 -1.3953 -1.3774  0.0482
  238THF     C8 3089   0.343   0.971   0.181 -0.4955 -0.4834 -0.8221
  238THF     C9 3090   0.245   0.972   0.068 -0.0174  0.5347  0.3539
  238THF    H10 3091   0.323   0.890   0.251  1.1162 -2.2505 -2.2972
  238THF    H11 3092   0.450   0.966   0.160 -0.4220  0.6314 -0.7891
  238THF    H12 3093   0.295   1.004  -0.024  0.3737 -0.8765  0.0548
  238THF    H13 3094   0.197   0.875   0.053  1.6548 -0.0879 -1.4127
  239THF     O1 3095   1.869   0.092   4.893 -0.1290 -0.4794  0.6700
  239THF     C2 3096   1.750   0.053   4.962 -0.2659  0.3442  0.5435
  239THF     C3 3097   1.946  -0.024   4.876  0.0476 -0.6390  0.0731
  239THF     H4 3098   1.665   0.109   4.921  0.3638 -0.7646 -2.5933
  239THF     H5 3099   1.758   0.067   5.069 -1.0343 -3.6704  1.2711
  239THF     H6 3100   1.946  -0.037   4.768 -1.0815  3.5247 -0.6053
  239THF     H7 3101   2.049  -0.002   4.904  0.5962 -0.7239 -1.7755
  239THF     C8 3102   1.871  -0.148   4.939 -0.2719  0.0024  0.1158
  239THF     C9 3103   1.730  -0.098   4.932  0.3969 -0.6169  0.8403
  239THF    H10 3104   1.909  -0.160   5.041 -1.3800  0.4885  0.5947
  239THF    H11 3105   1.887  -0.251   4.906  0.4259 -0.1978  1.0361
  239THF    H12 3106   1.683  -0.109   4.834 -0.4273  2.4237  0.7847
  239THF    H13 3107   1.661  -0.148   5.001 -0.3860  0.8414  1.1389
  240THF     O1 3108   4.214   5.025   0.626  0.5379 -0.5694  0.1405
  240THF     C2 3109   4.083   5.008   0.666  0.0655 -0.1637  0.0031
  240THF     C3 3110   4.289   4.943   0.719 -0.3578 -0.6979 -0.0325
  240THF     H4 3111   4.012   5.046   0.593 -0.4431  0.9968  1.0510
  240THF     H5 3112   4.062   5.068   0.755  1.3174  1.6604 -0.8841
  240THF     H6 3113   4.370   4.888   0.672  0.2671 -2.6861  3.0737
  240THF     H7 3114   4.338   5.009   0.790 -2.3271 -0.5449  1.2800
  240THF     C8 3115   4.193   4.841   0.781  0.2628  0.0256  0.7351
  240THF     C9 3116   4.069   4.869   0.696  0.2939  0.3415 -0.3007
  240THF    H10 3117   4.174   4.866   0.886 -1.6933 -3.1868  1.2839
  240THF    H11 3118   4.228   4.738   0.772  0.3419  0.0307  0.9833
  240THF    H12 3119   4.073   4.819   0.599  1.6381 -1.1573  0.4795
  240THF    H13 3120   3.978   4.838   0.747 -1.5267  1.9559 -2.3915
  241THF     O1 3121   2.004   0.330   2.542  0.1243  0.8417 -0.2888
  241THF     C2 3122   2.024   0.196   2.597 -0.0308  0.5305  0.6009
  241THF     C3 3123   2.134   0.391   2.531  0.2853  0.6129 -0.2136
  241THF     H4 3124   2.040   0.125   2.515  1.1683  0.8338  0.5524
  241THF     H5 3125   1.930   0.185   2.652  0.2432 -0.6235  0.8667
  241THF     H6 3126   2.175   0.363   2.434  0.7429 -1.8181  0.6076
  241THF     H7 3127   2.128   0.499   2.543  0.4228  0.5978 -0.0105
  241THF     C8 3128   2.228   0.330   2.627 -1.1400  0.1980 -0.7367
  241THF     C9 3129   2.154   0.205   2.677 -0.6524  0.4837 -0.2699
  241THF    H10 3130   2.255   0.399   2.706 -0.9132 -1.0163  0.2734
  241THF    H11 3131   2.319   0.315   2.567  1.0857  0.4683  2.3389
  241THF    H12 3132   2.222   0.122   2.661 -1.0502  0.0732  0.1478
  241THF    H13 3133   2.142   0.213   2.785  1.4857 -2.4954  0.3110
  242THF     O1 3134   0.379   2.645   4.369  0.3891  0.7656 -0.1825
  242THF     C2 3135   0.413   2.770   4.425 -0.6588  0.1568  0.0027
  242THF     C3 3136   0.310   2.667   4.246 -0.6412  0.0463  0.5486
  242THF     H4 3137   0.500   2.762   4.490  0.9795  1.0288 -1.9730
  242THF     H5 3138   0.327   2.801   4.485 -0.7348 -1.4744  0.8105
  242THF     H6 3139   0.307   2.580   4.180 -2.3739  1.1606 -0.9454
  242THF     H7 3140   0.207   2.685   4.277 -1.2517 -1.1566 -0.6790
  242THF     C8 3141   0.383   2.776   4.184  0.8364  0.3632  0.2089
  242THF     C9 3142   0.441   2.850   4.299 -0.4796  0.0412  0.1480
  242THF    H10 3143   0.314   2.833   4.122 -0.3210 -1.9360 -0.7411
  242THF    H11 3144   0.465   2.739   4.124  1.3658 -0.2852  1.3067
  242THF    H12 3145   0.547   2.860   4.278 -0.1361 -0.4304  1.5544
  242THF    H13 3146   0.390   2.946   4.295  0.4836  0.5057 -2.5847
  243THF     O1 3147   4.275   3.764   0.549 -0.2401  0.9158  0.1880
  243THF     C2 3148   4.334   3.639   0.504  0.2157  0.4699  0.5570
  243THF     C3 3149   4.191   3.730   0.664 -0.4839  0.1874 -0.4058
  243THF     H4 3150   4.422   3.641   0.441  0.1297 -0.9931  0.3707
  243THF     H5 3151   4.257   3.602   0.436  0.0110 -0.9922  1.5421
  243THF     H6 3152   4.218   3.793   0.749 -2.9144 -0.1766  0.7283
  243THF     H7 3153   4.084   3.732   0.639 -0.9641 -2.6247  1.0249
  243THF     C8 3154   4.216   3.580   0.700  0.3517  0.3457 -0.1142
  243THF     C9 3155   4.341   3.547   0.625  0.0766 -0.2365  0.0887
  243THF    H10 3156   4.140   3.521   0.648  1.1482 -0.3184 -0.5469
  243THF    H11 3157   4.212   3.559   0.806  1.1718  2.0188  0.2945
  243THF    H12 3158   4.426   3.582   0.683 -0.6892 -1.3373  1.9781
  243THF    H13 3159   4.338   3.439   0.611 -1.6512 -0.3976  1.3420
  244THF     O1 3160   3.992   4.245   2.977 -0.3012  0.6218  0.4464
  244THF     C2 3161   3.928   4.353   3.044 -0.5067  0.5123 -0.4156
  244THF     C3 3162   3.978   4.255   2.832  0.6415  0.7017 -0.0438
  244THF     H4 3163   3.977   4.381   3.138  1.0644 -1.8209 -0.4536
  244THF     H5 3164   3.827   4.322   3.072 -0.2661  0.8094  0.8429
  244THF     H6 3165   4.078   4.249   2.789  1.6647 -1.0929  2.3536
  244THF     H7 3166   3.932   4.168   2.786  0.6017 -0.0736  1.3963
  244THF     C8 3167   3.894   4.383   2.811  0.1593 -0.0426 -0.7136
  244THF     C9 3168   3.922   4.459   2.936 -0.1445 -0.3106 -0.3521
  244THF    H10 3169   3.790   4.352   2.803  0.0640  0.2357 -0.5632
  244THF    H11 3170   3.935   4.426   2.721 -0.3068  2.2554  0.1073
  244THF    H12 3171   4.012   4.520   2.932 -0.9636  1.1988  2.1924
  244THF    H13 3172   3.847   4.535   2.956 -0.0953 -0.7550  1.7206
  245THF     O1 3173   5.407   3.431   0.184  0.3034  0.5289 -0.0464
  245THF     C2 3174   5.465   3.398   0.304  0.3453 -0.5421  0.3199
  245THF     C3 3175   5.432   3.324   0.095  0.4528  0.3771 -0.5893
  245THF     H4 3176   5.442   3.469   0.383  2.2552 -2.7249  3.0034
  245THF     H5 3177   5.573   3.388   0.289  0.1605 -0.8015 -0.9900
  245THF     H6 3178   5.377   3.325   0.001  0.5834  0.0388 -0.6684
  245THF     H7 3179   5.538   3.320   0.074  0.9162 -1.9766  1.6513
  245THF     C8 3180   5.408   3.201   0.186 -0.2967  0.3657 -0.8761
  245THF     C9 3181   5.415   3.256   0.333  0.0327  0.4860  0.1375
  245THF    H10 3182   5.484   3.125   0.166  0.1156  0.2670  0.9088
  245THF    H11 3183   5.314   3.150   0.162 -0.2265  0.1142 -0.6279
  245THF    H12 3184   5.316   3.240   0.377 -0.5878  3.0964 -0.1794
  245THF    H13 3185   5.485   3.195   0.391 -0.1340 -1.2242 -1.3630
  246THF     O1 3186   4.066   4.110   0.799 -0.3576 -0.0582  0.3839
  246THF     C2 3187   3.989   4.017   0.717  0.0578  0.4301  0.2945
  246THF     C3 3188   4.189   4.149   0.744 -0.6753 -0.2689 -0.1466
  246THF     H4 3189   3.882   4.037   0.710 -0.5999 -2.3477  1.3356
  246THF     H5 3190   4.002   3.913   0.743  1.3154 -0.1675 -2.3135
  246THF     H6 3191   4.188   4.257   0.726  1.6476 -0.2962 -0.7605
  246THF     H7 3192   4.278   4.135   0.804 -0.0379  1.1943 -0.6975
  246THF     C8 3193   4.197   4.091   0.603 -0.6541 -0.5776 -0.2407
  246THF     C9 3194   4.052   4.049   0.582 -0.6030  0.5077  0.0675
  246THF    H10 3195   4.256   3.999   0.606  1.5615  0.6872 -1.9683
  246THF    H11 3196   4.249   4.152   0.529  1.8729 -0.2919  1.6307
  246THF    H12 3197   3.996   4.132   0.539 -1.4176 -0.0121  0.1118
  246THF    H13 3198   4.039   3.963   0.517 -0.7943 -0.4590  1.3379
  247THF     O1 3199   3.267   0.033   5.289 -0.5092 -0.6650 -0.2177
  247THF     C2 3200   3.352   0.145   5.268 -0.5996 -0.1976  0.3272
  247THF     C3 3201   3.141   0.071   5.235  0.2359  0.6894 -0.4799
  247THF     H4 3202   3.454   0.110   5.257 -0.8340 -0.7264 -0.1958
  247THF     H5 3203   3.345   0.221   5.347  0.2117  0.5693 -0.3156
  247THF     H6 3204   3.090  -0.024   5.231  2.4265 -0.6573  1.0926
  247THF     H7 3205   3.087   0.145   5.294  1.2945  1.0594  0.0612
  247THF     C8 3206   3.182   0.114   5.102 -0.1464 -0.3000 -0.0313
  247THF     C9 3207   3.304   0.198   5.138 -0.3934 -0.2218 -0.2810
  247THF    H10 3208   3.098   0.166   5.055 -1.5127 -0.8408  1.7264
  247THF    H11 3209   3.217   0.030   5.042 -0.1593 -1.8810  2.1041
  247THF    H12 3210   3.383   0.190   5.064 -2.2966 -3.4574 -2.2411
  247THF    H13 3211   3.270   0.301   5.138 -1.2062 -0.3548 -3.5823
  248THF     O1 3212   3.518   3.969   1.769 -0.6575 -0.2591  0.2438
  248THF     C2 3213   3.627   3.875   1.794  0.2187 -0.2070  0.2176
  248THF     C3 3214   3.509   4.049   1.883 -0.7463 -0.8073  0.2720
  248THF     H4 3215   3.654   3.837   1.696 -0.3762 -0.4313  0.1326
  248THF     H5 3216   3.598   3.797   1.864 -2.7187  0.1173 -0.4889
  248THF     H6 3217   3.461   4.142   1.851 -3.0511 -2.6585 -2.0674
  248THF     H7 3218   3.440   4.009   1.956 -1.2941 -1.1494 -0.4201
  248THF     C8 3219   3.654   4.058   1.937 -0.3427 -0.1029 -0.1754
  248THF     C9 3220   3.729   3.961   1.853 -1.3463 -0.1905  0.8781
  248THF    H10 3221   3.665   4.036   2.043  0.7211 -2.1127 -0.6430
  248THF    H11 3222   3.692   4.157   1.913 -0.6447  0.2689  0.8271
  248THF    H12 3223   3.788   4.004   1.772  1.2176 -2.0720  1.6183
  248THF    H13 3224   3.803   3.898   1.903  0.9790  1.9125  0.2823
  249THF     O1 3225   3.576   4.310   3.633 -0.3046  0.7224  0.6824
  249THF     C2 3226   3.534   4.172   3.662 -0.3157 -0.7459 -0.3191
  249THF     C3 3227   3.475   4.346   3.538  0.2623  0.3089 -0.3262
  249THF     H4 3228   3.588   4.132   3.748  1.8624  3.4327  0.5638
  249THF     H5 3229   3.553   4.105   3.579  2.0472  1.1309 -1.4122
  249THF     H6 3230   3.463   4.455   3.534 -0.5224  0.3189  1.3722
  249THF     H7 3231   3.501   4.295   3.446 -1.1822 -2.9967  0.9610
  249THF     C8 3232   3.341   4.293   3.592  0.2942  0.0049  0.1117
  249THF     C9 3233   3.386   4.187   3.684 -0.0194 -0.0837  0.2335
  249THF    H10 3234   3.285   4.250   3.509 -0.8082 -0.0871  0.8833
  249THF    H11 3235   3.275   4.362   3.646  0.0947  0.9007 -1.2362
  249THF    H12 3236   3.365   4.223   3.785 -0.0416  0.2801  0.0995
  249THF    H13 3237   3.333   4.094   3.663 -0.2213  0.3508 -1.3188
  250THF     O1 3238   4.046   3.424   4.440  0.2213  0.4396  0.4612
  250THF     C2 3239   4.148   3.472   4.523  0.3173 -0.4215  0.2473
  250THF     C3 3240   3.934   3.388   4.520  0.7237 -0.4353 -0.0314
  250THF     H4 3241   4.187   3.566   4.483  1.7753 -0.8228  0.6595
  250THF     H5 3242   4.234   3.404   4.522  2.8347  2.5166 -1.5664
  250THF     H6 3243   3.862   3.471   4.516  0.7475 -0.3854  0.5977
  250THF     H7 3244   3.886   3.304   4.470  0.0524  1.3126 -2.5840
  250THF     C8 3245   3.986   3.380   4.666 -0.1332  0.3934  0.0375
  250THF     C9 3246   4.085   3.492   4.664  0.6239 -0.0739 -0.1888
  250THF    H10 3247   4.037   3.289   4.696  2.2771  1.2946 -1.1109
  250THF    H11 3248   3.916   3.403   4.747  0.6647  1.1773  0.5217
  250THF    H12 3249   4.028   3.584   4.659 -0.4927 -0.7987 -3.8291
  250THF    H13 3250   4.156   3.488   4.747  1.0760  2.0699 -0.4318
  251THF     O1 3251   1.786   0.633   0.838  0.1430 -0.8467 -0.3814
  251THF     C2 3252   1.645   0.653   0.849 -0.0233  0.8154 -0.3471
  251THF     C3 3253   1.827   0.731   0.738  0.0179 -0.1345 -0.1236
  251THF     H4 3254   1.613   0.616   0.947  0.5560  0.4931 -0.2750
  251THF     H5 3255   1.614   0.581   0.774 -1.0472 -1.0640  1.7660
  251THF     H6 3256   1.927   0.767   0.761  1.3917 -2.9284 -1.2140
  251THF     H7 3257   1.847   0.687   0.640  1.4478 -0.7296  0.4153
  251THF     C8 3258   1.715   0.830   0.713 -0.1336  0.0903  0.1039
  251THF     C9 3259   1.615   0.802   0.822 -0.0966 -0.3398 -0.0390
  251THF    H10 3260   1.669   0.812   0.616  0.4816 -0.2034 -0.1382
  251THF    H11 3261   1.758   0.930   0.723 -0.4444  0.2847 -0.4595
  251THF    H12 3262   1.647   0.870   0.902 -0.9951  0.7726 -0.5907
  251THF    H13 3263   1.513   0.824   0.790  1.1680  1.5965 -3.1916
  252THF     O1 3264   1.346   5.228   1.517 -0.4605 -0.2921  0.3086
  252THF     C2 3265   1.395   5.104   1.567 -0.7372  0.1677 -0.9536
  252THF     C3 3266   1.236   5.207   1.433 -0.3417  0.0147 -0.3587
  252THF     H4 3267   1.320   5.081   1.642  0.1432  1.2858  0.3402
  252THF     H5 3268   1.493   5.112   1.614 -0.2061 -1.5966 -1.6928
  252THF     H6 3269   1.150   5.174   1.491 -1.1712  2.4228 -0.0947
  252THF     H7 3270   1.229   5.282   1.354  1.5119 -0.5220 -1.1026
  252THF     C8 3271   1.289   5.087   1.357  0.4390  0.4199 -0.6153
  252THF     C9 3272   1.385   5.014   1.447  0.5087  0.0411 -0.3864
  252THF    H10 3273   1.343   5.121   1.269  0.4522  1.3880 -0.2453
  252THF    H11 3274   1.205   5.022   1.332 -0.3470  0.5957  1.3381
  252THF    H12 3275   1.362   4.911   1.475 -2.4819 -0.0064 -2.4923
  252THF    H13 3276   1.484   4.999   1.403 -0.2509 -2.5039 -1.4169
  253THF     O1 3277   1.109   4.924   5.070  0.8410  0.0024 -0.3768
  253THF     C2 3278   1.124   4.985   5.204 -0.3326  0.4206 -0.0813
  253THF     C3 3279   1.171   5.002   4.969 -0.6517  0.3815 -0.1149
  253THF     H4 3280   1.222   4.964   5.248 -1.1548 -1.0070  1.2019
  253THF     H5 3281   1.051   4.942   5.273  0.8771 -1.5162  0.0885
  253THF     H6 3282   1.262   4.960   4.927 -0.1907  0.4335  0.8167
  253THF     H7 3283   1.105   5.007   4.882 -1.9614 -0.9096  0.7677
  253THF     C8 3284   1.195   5.134   5.036  0.0958 -0.4457  0.2238
  253THF     C9 3285   1.104   5.121   5.162 -0.1739 -0.2464 -0.0307
  253THF    H10 3286   1.179   5.218   4.968  3.2263  0.9748  1.0666
  253THF    H11 3287   1.301   5.136   5.063 -0.1280  0.9050  1.1120
  253THF    H12 3288   1.141   5.184   5.243 -1.0258 -0.9946  0.9694
  253THF    H13 3289   0.997   5.128   5.142 -0.4096  0.9808  1.4615
  254THF     O1 3290   3.208   3.406   0.329 -0.3324 -0.2758 -0.7666
  254THF     C2 3291   3.105   3.339   0.255 -0.1938  0.0713  0.1340
  254THF     C3 3292   3.318   3.427   0.241  0.1666  0.5204  0.2045
  254THF     H4 3293   3.054   3.414   0.194  0.8400  1.8870  1.3833
  254THF     H5 3294   3.027   3.295   0.317 -1.3757  0.0985 -1.2752
  254THF     H6 3295   3.294   3.513   0.178 -0.3820  0.5705  0.4686
  254THF     H7 3296   3.414   3.433   0.291 -0.4751 -1.5642  1.8433
  254THF     C8 3297   3.322   3.294   0.171 -0.2687 -0.2695 -0.2474
  254THF     C9 3298   3.180   3.236   0.178 -0.0936  0.0683  0.1614
  254THF    H10 3299   3.379   3.212   0.216  0.4695 -0.7482 -1.9699
  254THF    H11 3300   3.355   3.314   0.069 -0.2816  1.3857  0.0450
  254THF    H12 3301   3.138   3.218   0.079 -1.7581 -0.2367  0.8913
  254THF    H13 3302   3.185   3.141   0.231 -0.4986  0.8464  1.6501
  255THF     O1 3303   3.660   3.890   0.619  0.2112  0.9803 -0.3297
  255THF     C2 3304   3.642   3.955   0.500 -0.3786 -0.0194 -0.4495
  255THF     C3 3305   3.717   3.763   0.600  0.0584 -0.0029  0.2204
  255THF     H4 3306   3.729   4.009   0.464 -0.1315 -0.7616 -0.9765
  255THF     H5 3307   3.567   4.033   0.509  1.2859  1.5742  0.3219
  255THF     H6 3308   3.826   3.761   0.603  0.0898 -2.9669  0.2908
  255THF     H7 3309   3.687   3.699   0.683 -1.4149  0.0384 -0.2422
  255THF     C8 3310   3.669   3.720   0.463  0.4615  0.1558 -0.3015
  255THF     C9 3311   3.617   3.844   0.400  0.4893  0.3340  0.1683
  255THF    H10 3312   3.584   3.652   0.457  0.6016 -0.3875  2.5477
  255THF    H11 3313   3.741   3.663   0.405 -0.4256 -0.1627 -1.1085
  255THF    H12 3314   3.667   3.865   0.305 -0.6871 -0.0129 -0.5513
  255THF    H13 3315   3.515   3.826   0.366  1.0372  0.2891 -1.5399
  256THF     O1 3316   1.348   0.746   3.782  0.0210 -0.0741 -0.2233
  256THF     C2 3317   1.329   0.637   3.876 -0.7966 -0.4742 -0.8664
  256THF     C3 3318   1.230   0.820   3.765  0.6106  0.0752 -0.2677
  256THF     H4 3319   1.346   0.671   3.978 -1.4610  2.4795 -1.6540
  256THF     H5 3320   1.397   0.558   3.846 -0.9968 -1.7365  1.6946
  256THF     H6 3321   1.229   0.922   3.801 -1.2873 -0.1694  0.5171
  256THF     H7 3322   1.211   0.825   3.658  0.7076  0.7616 -0.2517
  256THF     C8 3323   1.127   0.746   3.849  0.0831 -0.0906  0.1717
  256THF     C9 3324   1.182   0.605   3.861  0.3237 -0.3809 -0.1030
  256THF    H10 3325   1.030   0.746   3.798 -0.5162 -2.5355  1.1433
  256THF    H11 3326   1.114   0.806   3.939  0.8031  3.0786 -1.6737
  256THF    H12 3327   1.146   0.541   3.941  0.1633 -2.6100 -1.8354
  256THF    H13 3328   1.173   0.542   3.772  3.7085  1.4421 -1.9542
  257THF     O1 3329   4.670   2.406   1.965  0.1286 -0.4716 -0.1409
  257THF     C2 3330   4.624   2.271   1.996  0.3840 -0.2051  0.3507
  257THF     C3 3331   4.732   2.392   1.836 -0.1367  0.0849  0.1808
  257THF     H4 3332   4.535   2.264   2.059 -0.7595  1.6816 -0.9480
  257THF     H5 3333   4.703   2.230   2.059  0.0143 -0.6818  0.5112
  257THF     H6 3334   4.731   2.488   1.783  1.2707  0.0485  0.0355
  257THF     H7 3335   4.839   2.371   1.840  0.7673  3.7118 -0.9041
  257THF     C8 3336   4.643   2.291   1.762 -0.6145 -0.4132  0.5051
  257THF     C9 3337   4.606   2.189   1.869  0.8611  0.3830 -0.0753
  257THF    H10 3338   4.694   2.245   1.676 -1.6562  2.0559 -1.5777
  257THF    H11 3339   4.559   2.351   1.727  0.8787  2.4429  1.4686
  257THF    H12 3340   4.506   2.147   1.857  0.8941  0.7316 -1.7963
  257THF    H13 3341   4.671   2.102   1.863  0.5532  0.1956 -0.8090
  258THF     O1 3342   1.985   4.453   1.965 -0.1224 -0.0118  0.2397
  258THF     C2 3343   2.123   4.465   1.938  0.9104 -0.3440 -0.2310
  258THF     C3 3344   1.946   4.528   2.074 -0.7380  0.9166 -0.2208
  258THF     H4 3345   2.138   4.468   1.830  0.0479 -0.2962 -0.3587
  258THF     H5 3346   2.173   4.387   1.995 -1.4242 -1.2604  0.6743
  258THF     H6 3347   1.837   4.533   2.077 -0.7855 -0.3293  0.4787
  258THF     H7 3348   1.989   4.478   2.161 -1.3589 -2.1354 -1.5411
  258THF     C8 3349   2.023   4.661   2.038 -0.4200 -0.0295  0.4755
  258THF     C9 3350   2.158   4.606   1.986  0.3037  0.6048  0.6303
  258THF    H10 3351   2.024   4.736   2.116 -1.1866  1.4574 -0.8729
  258THF    H11 3352   1.989   4.709   1.946 -1.5719 -1.5658  0.0455
  258THF    H12 3353   2.210   4.666   1.911  1.3874 -2.0771 -0.9033
  258THF    H13 3354   2.228   4.614   2.070 -0.8040  2.6426  1.4552
  259THF     O1 3355   0.660   4.356   1.875 -0.1786  0.2616  0.0119
  259THF     C2 3356   0.559   4.362   1.972 -0.5638 -0.3584 -0.7045
  259THF     C3 3357   0.670   4.484   1.813 -0.1376 -0.2649  0.1903
  259THF     H4 3358   0.566   4.283   2.046  2.1483 -1.4259 -1.9498
  259THF     H5 3359   0.459   4.368   1.930 -0.3349  0.8623 -1.1465
  259THF     H6 3360   0.776   4.497   1.792  0.0148  0.3943  1.3257
  259THF     H7 3361   0.614   4.484   1.719  1.7064  3.3846 -1.1161
  259THF     C8 3362   0.629   4.581   1.913 -0.1547 -0.6881  0.3851
  259THF     C9 3363   0.591   4.502   2.038  0.7100 -0.2955  0.3266
  259THF    H10 3364   0.541   4.631   1.872 -0.0707  0.5359  1.6076
  259THF    H11 3365   0.707   4.654   1.935  2.1346 -2.7007 -0.5574
  259THF    H12 3366   0.683   4.493   2.096  2.6227 -1.7928 -2.6978
  259THF    H13 3367   0.522   4.552   2.105  1.5090  0.9311  0.2743
  260THF     O1 3368   2.277   0.319   0.808  0.1114  0.2769  0.2092
  260THF     C2 3369   2.311   0.187   0.797  0.1885 -0.3517  0.0357
  260THF     C3 3370   2.388   0.396   0.765 -0.1525 -0.8336 -0.0166
  260THF     H4 3371   2.221   0.130   0.820 -0.8799  0.7647 -1.2249
  260THF     H5 3372   2.387   0.173   0.874  0.7029  1.9589  0.0390
  260THF     H6 3373   2.375   0.504   0.758  1.5525 -0.7005 -1.9475
  260THF     H7 3374   2.457   0.401   0.849 -1.7138  0.5467  1.2384
  260THF     C8 3375   2.449   0.320   0.643  0.1240  0.1528 -0.2223
  260THF     C9 3376   2.380   0.179   0.661  0.3477 -1.0255  0.9165
  260THF    H10 3377   2.555   0.303   0.657  0.1340  0.5983  0.2770
  260THF    H11 3378   2.437   0.366   0.545 -0.2544  1.2001  0.3092
  260THF    H12 3379   2.323   0.144   0.574  0.7197  0.4209  0.0519
  260THF    H13 3380   2.463   0.110   0.667  2.0357  0.8841  0.7504
  261THF     O1 3381   0.011   5.393   0.333 -0.0077 -0.2884  0.5382
  261THF     C2 3382  -0.074   5.489   0.268  0.4696  0.3412 -0.5993
  261THF     C3 3383  -0.056   5.270   0.324 -0.1280  0.7708  0.3864
  261THF     H4 3384  -0.016   5.562   0.211  0.1005  1.1006 -0.0345
  261THF     H5 3385  -0.133   5.538   0.346  0.1662  0.3132 -0.8141
  261THF     H6 3386   0.010   5.185   0.337 -0.7388  0.2793  0.3539
  261THF     H7 3387  -0.146   5.268   0.385 -1.7764 -1.3680 -1.8889
  261THF     C8 3388  -0.114   5.274   0.180 -0.3588  0.2484 -0.2982
  261THF     C9 3389  -0.165   5.414   0.177  0.6825 -0.0772  0.1078
  261THF    H10 3390  -0.183   5.193   0.156  1.1300 -1.1528  0.0268
  261THF    H11 3391  -0.033   5.267   0.108 -2.2753  3.7537 -3.1143
  261THF    H12 3392  -0.172   5.461   0.079  0.9894  0.9577  0.5664
  261THF    H13 3393  -0.268   5.406   0.211  0.3694 -1.1729 -1.0618
  262THF     O1 3394   2.917   1.662   4.652 -0.5724  0.4469 -0.3745
  262THF     C2 3395   2.898   1.782   4.727  0.2736  0.6839 -0.9194
  262THF     C3 3396   2.897   1.682   4.511  0.3010  0.1130 -0.0157
  262THF     H4 3397   2.961   1.789   4.815  0.5721 -1.5186 -0.8938
  262THF     H5 3398   2.795   1.794   4.760  0.7104 -1.0147  1.3351
  262THF     H6 3399   2.981   1.643   4.454 -0.1695 -0.4593 -0.3229
  262THF     H7 3400   2.804   1.637   4.477 -1.2626  2.1920  1.2248
  262THF     C8 3401   2.896   1.833   4.494 -0.1807 -0.3343 -0.7435
  262THF     C9 3402   2.946   1.877   4.625 -0.0929 -0.2679  0.4162
  262THF    H10 3403   2.796   1.873   4.477  0.6211  2.6394  0.7491
  262THF    H11 3404   2.967   1.871   4.420  2.9441 -0.5023  1.9327
  262THF    H12 3405   3.054   1.884   4.633  0.4824 -4.4230 -1.3938
  262THF    H13 3406   2.910   1.978   4.647  0.7496  0.1270  0.0316
  263THF     O1 3407   1.355   4.019   4.620  0.1897  0.4407 -0.0798
  263THF     C2 3408   1.360   3.893   4.552 -0.7174  0.1921 -0.2755
  263THF     C3 3409   1.484   4.084   4.614  0.0580  0.3000  0.5408
  263THF     H4 3410   1.363   3.908   4.444  2.7132 -0.8391 -0.4333
  263THF     H5 3411   1.275   3.828   4.569 -0.8962  0.5911  0.4270
  263THF     H6 3412   1.498   4.119   4.512  1.2895  0.2414  0.6787
  263THF     H7 3413   1.481   4.174   4.675  1.8468 -0.2481  1.5025
  263THF     C8 3414   1.572   3.962   4.665 -0.6249 -0.0773 -0.2575
  263THF     C9 3415   1.494   3.840   4.606  0.2338 -0.0131 -0.5213
  263THF    H10 3416   1.575   3.956   4.773 -1.5670  0.7684 -0.1757
  263THF    H11 3417   1.678   3.974   4.640 -1.0535 -0.1151 -2.2943
  263THF    H12 3418   1.551   3.777   4.539 -0.0460 -1.4321  0.5331
  263THF    H13 3419   1.466   3.778   4.692 -3.2410  0.9612 -0.7894
  264THF     O1 3420   3.126   3.809   0.745  0.0019  0.0488  0.3573
  264THF     C2 3421   3.191   3.934   0.751  0.2682 -0.1537  0.4569
  264THF     C3 3422   3.223   3.706   0.725  0.1420  0.0006  0.5705
  264THF     H4 3423   3.252   3.948   0.840 -0.6109  0.6470  0.9529
  264THF     H5 3424   3.125   4.021   0.746 -1.0161 -1.1047  0.0742
  264THF     H6 3425   3.272   3.664   0.813 -0.9565  0.9568  1.6794
  264THF     H7 3426   3.198   3.623   0.660  4.2766 -2.0974  1.3186
  264THF     C8 3427   3.340   3.782   0.664  0.1871 -0.2516 -0.5202
  264THF     C9 3428   3.285   3.924   0.638 -0.1226 -0.0482 -0.6276
  264THF    H10 3429   3.373   3.733   0.572 -1.1289  0.0985 -1.2018
  264THF    H11 3430   3.424   3.790   0.733  0.3192  1.2699 -0.8251
  264THF    H12 3431   3.361   4.002   0.641  1.0758 -1.1178 -1.8279
  264THF    H13 3432   3.235   3.942   0.543  2.5329 -0.3945 -2.2121
  265THF     O1 3433   3.069   1.732   1.715 -0.2382 -0.1237  0.0832
  265THF     C2 3434   3.143   1.614   1.683  0.6859  0.6211  0.8091
  265THF     C3 3435   3.159   1.838   1.763 -0.1415  0.0448  0.4000
  265THF     H4 3436   3.187   1.602   1.584  0.9426 -1.5836  1.1559
  265THF     H5 3437   3.078   1.533   1.715  0.4970  0.7660  0.7942
  265THF     H6 3438   3.198   1.870   1.666 -2.0468  0.4921 -0.2574
  265THF     H7 3439   3.122   1.928   1.812  0.6371 -0.0895  1.2568
  265THF     C8 3440   3.261   1.755   1.842 -0.7390  0.0934 -0.3491
  265THF     C9 3441   3.273   1.631   1.762  1.2285 -0.4009  0.6093
  265THF    H10 3442   3.221   1.742   1.942 -0.7584 -0.1128 -0.3835
  265THF    H11 3443   3.360   1.800   1.850 -1.0097  0.5483  0.6043
  265THF    H12 3444   3.355   1.639   1.690 -1.4323 -0.0541 -2.6184
  265THF    H13 3445   3.290   1.548   1.830  1.4187 -0.2155  0.7909
  266THF     O1 3446   4.740   0.555   3.683 -0.3963  0.1668 -1.1052
  266THF     C2 3447   4.605   0.521   3.676  0.0987  0.3777  0.3617
  266THF     C3 3448   4.796   0.518   3.558  0.2245  0.6380 -0.6183
  266THF     H4 3449   4.550   0.597   3.621 -0.7856 -1.2998 -1.1767
  266THF     H5 3450   4.562   0.514   3.776 -1.1368 -0.4612 -0.2139
  266THF     H6 3451   4.778   0.588   3.477 -0.9943 -0.1942 -1.1059
  266THF     H7 3452   4.905   0.513   3.553  0.2086 -0.0750 -0.4671
  266THF     C8 3453   4.721   0.387   3.518 -0.2697  0.7056 -0.4056
  266THF     C9 3454   4.600   0.387   3.610 -0.0930  0.0805 -0.6536
  266THF    H10 3455   4.784   0.303   3.548  0.1756  1.4642  0.8453
  266THF    H11 3456   4.683   0.377   3.416 -2.4841 -2.9845  0.5790
  266THF    H12 3457   4.504   0.383   3.558  0.4360 -1.6001 -1.5709
  266THF    H13 3458   4.619   0.303   3.677 -2.5425 -1.2065 -1.4378
  267THF     O1 3459   3.475   3.480   2.631 -0.0680  0.5842 -0.0020
  267THF     C2 3460   3.414   3.435   2.741 -0.2449 -0.0847 -0.5395
  267THF     C3 3461   3.613   3.432   2.643 -0.4549 -0.3449  0.1727
  267THF     H4 3462   3.308   3.419   2.722 -0.6948  0.4933  1.2584
  267THF     H5 3463   3.427   3.485   2.837 -1.1896 -1.2208  0.2067
  267THF     H6 3464   3.662   3.438   2.546  2.9320 -0.9260  1.6825
  267THF     H7 3465   3.663   3.504   2.709 -0.1343  0.1769 -0.6213
  267THF     C8 3466   3.606   3.291   2.698  0.1571  0.9379 -0.0180
  267THF     C9 3467   3.466   3.290   2.766  0.6685  0.1371  0.0122
  267THF    H10 3468   3.688   3.264   2.765  0.1485  0.8704 -0.0347
  267THF    H11 3469   3.597   3.227   2.610 -0.7009  1.9035 -0.6540
  267THF    H12 3470   3.400   3.221   2.714 -0.1006  0.3319  0.7125
  267THF    H13 3471   3.465   3.251   2.868  1.2799  0.2576  0.0679
  268THF     O1 3472   0.603   2.722   0.352  0.3089  0.3104  0.1915
  268THF     C2 3473   0.565   2.626   0.450  0.4708 -0.0918  0.1094
  268THF     C3 3474   0.729   2.776   0.374  0.3927 -0.5109 -0.5153
  268THF     H4 3475   0.611   2.531   0.422 -0.3186  0.0718 -1.9632
  268THF     H5 3476   0.460   2.607   0.470  0.7286  0.6052  2.4252
  268THF     H6 3477   0.798   2.699   0.339  0.3985 -1.6431  1.7867
  268THF     H7 3478   0.737   2.869   0.319  1.4340 -0.0964  0.3118
  268THF     C8 3479   0.732   2.785   0.526 -0.1905 -0.5948  0.5399
  268THF     C9 3480   0.621   2.698   0.577  0.2532  0.2699  0.2847
  268THF    H10 3481   0.705   2.887   0.553 -0.5283 -0.4980 -0.1431
  268THF    H11 3482   0.835   2.770   0.557 -0.6882 -0.5180  2.3457
  268THF    H12 3483   0.659   2.637   0.660  0.0887  2.9802  2.4906
  268THF    H13 3484   0.544   2.758   0.625 -1.8461 -0.3440 -2.0965
  269THF     O1 3485   3.422   4.644   4.687  0.1904 -0.9098 -0.4877
  269THF     C2 3486   3.337   4.732   4.618  0.3596  0.1694  0.4169
  269THF     C3 3487   3.374   4.508   4.686  0.3249  0.1157  0.3871
  269THF     H4 3488   3.390   4.806   4.556  1.0897  2.1352  3.2132
  269THF     H5 3489   3.286   4.796   4.689  2.3711  0.4490  1.6879
  269THF     H6 3490   3.443   4.445   4.630 -0.4693  1.4018 -2.1488
  269THF     H7 3491   3.361   4.463   4.785 -1.5145  2.2490  1.1968
  269THF     C8 3492   3.244   4.508   4.603  0.2757  0.1601 -0.0362
  269THF     C9 3493   3.246   4.643   4.533 -0.2235 -0.1233  0.2175
  269THF    H10 3494   3.168   4.498   4.681  0.4256  1.6364  0.3252
  269THF    H11 3495   3.224   4.431   4.529 -2.5538  0.4490  0.2855
  269THF    H12 3496   3.302   4.618   4.443 -0.7472 -0.8824  0.0894
  269THF    H13 3497   3.149   4.683   4.503  0.2417 -0.1842 -1.5126
  270THF     O1 3498   4.378   0.630   0.828  0.2845 -0.1402 -0.3238
  270THF     C2 3499   4.464   0.640   0.941 -0.2993  0.0763 -0.1475
  270THF     C3 3500   4.453   0.615   0.704  0.3364 -0.3680 -0.0846
  270THF     H4 3501   4.430   0.585   1.029 -0.9495  1.0422  0.2209
  270THF     H5 3502   4.476   0.743   0.975  0.3318  0.3802 -1.2408
  270THF     H6 3503   4.408   0.556   0.624 -0.8300 -0.5081  0.6510
  270THF     H7 3504   4.468   0.716   0.665 -0.9635 -0.4924 -0.9893
  270THF     C8 3505   4.578   0.552   0.747 -0.7493 -0.0766 -0.0511
  270THF     C9 3506   4.606   0.606   0.889 -0.6344 -0.5021 -0.3371
  270THF    H10 3507   4.662   0.552   0.677 -0.4539 -4.1930  0.0460
  270THF    H11 3508   4.563   0.445   0.758 -0.2917 -0.2237 -0.8161
  270THF    H12 3509   4.665   0.543   0.956  0.6181 -0.0086 -0.9530
  270THF    H13 3510   4.652   0.704   0.884  0.2494 -0.8830  0.0004
  271THF     O1 3511   5.116   4.895   5.312 -0.0457  0.2445 -0.3436
  271THF     C2 3512   5.059   4.841   5.438  0.3411  0.7710 -0.8607
  271THF     C3 3513   5.016   4.882   5.208  0.4862  0.5999  0.5031
  271THF     H4 3514   5.111   4.884   5.523 -1.4312 -0.2553  0.8052
  271THF     H5 3515   5.077   4.734   5.440 -1.1077  0.5042 -0.9948
  271THF     H6 3516   5.014   4.975   5.151  1.0956  0.7061  0.6478
  271THF     H7 3517   5.022   4.808   5.128 -4.1206  0.1147  0.3231
  271THF     C8 3518   4.878   4.867   5.274  0.0977  0.3778  0.0714
  271THF     C9 3519   4.904   4.872   5.420  0.1603  0.8590 -0.6283
  271THF    H10 3520   4.842   4.770   5.239 -2.2140  1.1836  0.0513
  271THF    H11 3521   4.808   4.946   5.245 -2.1986 -0.3936  3.0216
  271THF    H12 3522   4.892   4.974   5.458 -0.1709  0.4337  0.4366
  271THF    H13 3523   4.828   4.816   5.475  1.0618 -1.6314 -1.7979
  272THF     O1 3524   0.756   1.485   1.506  0.0439 -0.2677  0.3864
  272THF     C2 3525   0.884   1.535   1.538 -0.2201 -0.0910 -0.2862
  272THF     C3 3526   0.698   1.582   1.414  0.4914 -0.6227 -0.5624
  272THF     H4 3527   0.955   1.489   1.469 -1.1540 -1.5069 -0.3386
  272THF     H5 3528   0.909   1.514   1.642  2.3881  0.0708 -0.8138
  272THF     H6 3529   0.738   1.565   1.314  0.8206  1.3951 -0.8283
  272THF     H7 3530   0.590   1.577   1.415  0.4182  0.0800  2.0638
  272THF     C8 3531   0.751   1.722   1.454  0.2645 -0.4990  0.2077
  272THF     C9 3532   0.891   1.679   1.512  0.1778 -0.7456  0.4756
  272THF    H10 3533   0.686   1.759   1.533  0.5926 -0.2934  0.3796
  272THF    H11 3534   0.757   1.793   1.372 -2.4195 -1.1471 -0.6847
  272THF    H12 3535   0.954   1.706   1.427 -0.9535  2.9109  0.6306
  272THF    H13 3536   0.917   1.726   1.607 -1.4992 -0.8019  0.9962
  273THF     O1 3537   0.009   5.432   4.400  0.4923  0.5517  0.1044
  273THF     C2 3538  -0.025   5.402   4.268  0.2694 -0.0925  0.5037
  273THF     C3 3539   0.121   5.513   4.415  0.5435  0.4757  0.3865
  273THF     H4 3540  -0.127   5.369   4.247  0.4623 -1.0389  1.0155
  273THF     H5 3541   0.045   5.331   4.226  0.1089 -1.1087  1.8862
  273THF     H6 3542   0.126   5.565   4.511  1.1373  0.6260  0.2742
  273THF     H7 3543   0.210   5.457   4.386 -0.5220 -0.3173 -1.5300
  273THF     C8 3544   0.086   5.613   4.299  0.2760  0.0425 -0.3511
  273THF     C9 3545   0.006   5.537   4.200 -0.1953 -1.1353 -0.3488
  273THF    H10 3546   0.171   5.666   4.256  1.2978 -0.8648  0.4743
  273THF    H11 3547   0.012   5.676   4.349  0.6328 -0.8483  1.3930
  273THF    H12 3548  -0.085   5.591   4.172 -0.0587  0.1446  1.4918
  273THF    H13 3549   0.057   5.520   4.105 -2.1658  0.3342 -1.7551
  274THF     O1 3550   3.992   2.338   1.615 -0.1517 -0.3313  0.0855
  274THF     C2 3551   4.073   2.363   1.494 -0.7282 -0.5126  0.1473
  274THF     C3 3552   4.081   2.359   1.723  0.3558  0.9242 -0.3939
  274THF     H4 3553   4.091   2.471   1.497 -1.1894 -0.4429  0.6280
  274THF     H5 3554   4.028   2.337   1.398  2.7733 -0.7333 -1.5741
  274THF     H6 3555   4.084   2.467   1.735 -1.8273  1.3508 -2.6355
  274THF     H7 3556   4.039   2.310   1.810  0.4598 -0.3536 -1.0414
  274THF     C8 3557   4.216   2.307   1.681 -0.7345  0.2435  0.3440
  274THF     C9 3558   4.210   2.303   1.526 -0.1618  0.1383  0.3684
  274THF    H10 3559   4.242   2.211   1.728 -2.3611 -0.7570 -0.7080
  274THF    H11 3560   4.296   2.376   1.708  0.4130 -0.9853  0.2314
  274THF    H12 3561   4.300   2.352   1.487  1.1455 -1.9679  0.5968
  274THF    H13 3562   4.211   2.198   1.499  1.6724  0.0911  0.4907
  275THF     O1 3563   2.291   0.831   2.375 -0.8506 -0.2015 -0.1959
  275THF     C2 3564   2.402   0.837   2.292 -0.4380 -0.0257 -0.4389
  275THF     C3 3565   2.225   0.714   2.363 -0.6166  0.2001  0.5735
  275THF     H4 3566   2.492   0.793   2.335 -1.1638 -0.2476  0.9149
  275THF     H5 3567   2.428   0.940   2.267 -0.4845  0.5304  1.6414
  275THF     H6 3568   2.272   0.642   2.431 -0.0274 -0.3489 -0.3797
  275THF     H7 3569   2.120   0.720   2.390 -0.8049  0.2593 -0.1547
  275THF     C8 3570   2.237   0.680   2.216 -0.3786  0.0003  0.1084
  275THF     C9 3571   2.358   0.757   2.169  0.0996  0.2126  0.7384
  275THF    H10 3572   2.152   0.700   2.151  0.1551  0.1971 -0.5525
  275THF    H11 3573   2.260   0.574   2.203  0.8215  0.5103 -2.9969
  275THF    H12 3574   2.437   0.692   2.131 -1.6124 -0.5772 -1.7120
  275THF    H13 3575   2.331   0.821   2.086  4.3201  0.7773 -0.4185
  276THF     O1 3576   5.307   2.185   1.145 -0.1540 -0.0712 -0.2256
  276THF     C2 3577   5.439   2.212   1.115  0.0209 -0.1828  0.1339
  276THF     C3 3578   5.302   2.045   1.171  0.0360  0.2053  0.4446
  276THF     H4 3579   5.475   2.315   1.125  1.8613 -0.9828  2.9801
  276THF     H5 3580   5.442   2.186   1.009  0.0504 -0.6091  0.2403
  276THF     H6 3581   5.220   2.004   1.230 -0.2913  1.4239  0.8664
  276THF     H7 3582   5.320   1.989   1.080  0.9326 -0.0115  0.7400
  276THF     C8 3583   5.423   2.033   1.266 -0.5727 -0.5228 -0.2245
  276THF     C9 3584   5.529   2.120   1.198 -0.1614 -0.0585 -0.0952
  276THF    H10 3585   5.451   1.928   1.276 -1.0927 -1.1304 -3.7713
  276THF    H11 3586   5.392   2.084   1.357  1.8783 -1.4036  1.2176
  276THF    H12 3587   5.602   2.173   1.259 -1.7236 -0.1588  1.9627
  276THF    H13 3588   5.579   2.052   1.128  1.7452  0.9739  0.1851
  277THF     O1 3589   1.504   2.080   3.364  0.3453  0.7559  0.5425
  277THF     C2 3590   1.371   2.110   3.415 -0.5344  0.2832  0.2522
  277THF     C3 3591   1.540   2.169   3.262  0.2348  0.5490  0.1688
  277THF     H4 3592   1.374   2.133   3.521  0.9333  0.3172  0.2299
  277THF     H5 3593   1.295   2.033   3.398  0.2179 -0.5476  0.5706
  277THF     H6 3594   1.644   2.202   3.263  0.0893  1.0691 -0.5827
  277THF     H7 3595   1.531   2.115   3.168  0.7016 -0.6942  0.8257
  277THF     C8 3596   1.446   2.283   3.260  0.4847 -0.0797  0.3391
  277THF     C9 3597   1.326   2.225   3.336 -0.5277 -0.6697  0.1682
  277THF    H10 3598   1.411   2.331   3.168 -0.0703  0.0013  0.5858
  277THF    H11 3599   1.490   2.367   3.314 -2.0123  1.2461  0.4843
  277THF    H12 3600   1.263   2.290   3.396  1.5494 -0.1533  1.9432
  277THF    H13 3601   1.263   2.178   3.261 -1.0063  2.5117 -1.5905
  278THF     O1 3602   5.098   2.071   3.028  0.7508  0.8504 -0.0299
  278THF     C2 3603   5.111   2.006   3.153 -0.6768  0.5512  0.5284
  278THF     C3 3604   5.171   1.994   2.927  0.1096  0.0710 -0.2436
  278THF     H4 3605   5.028   2.019   3.223 -1.1502 -0.7903  0.2379
  278THF     H5 3606   5.197   2.044   3.209 -0.5687  1.0442  0.0358
  278THF     H6 3607   5.106   2.003   2.839  2.0533  0.1851 -1.7294
  278THF     H7 3608   5.267   2.042   2.910 -1.0397  2.2429 -1.0507
  278THF     C8 3609   5.166   1.848   2.982 -0.1643  0.2689  0.2046
  278THF     C9 3610   5.143   1.858   3.130  0.2203  0.0045 -0.2652
  278THF    H10 3611   5.250   1.783   2.954 -1.9552 -1.5604 -1.2600
  278THF    H11 3612   5.083   1.786   2.950  0.6146 -1.8895  2.0490
  278THF    H12 3613   5.054   1.801   3.155 -0.1371  0.3002 -0.8426
  278THF    H13 3614   5.226   1.817   3.188 -1.5862 -0.5192  2.1210
  279THF     O1 3615   3.525   0.747   1.819  0.2513  0.5336  0.3820
  279THF     C2 3616   3.658   0.760   1.758  0.1288  0.2633 -0.5626
  279THF     C3 3617   3.436   0.843   1.753  0.0211  0.6178  0.4080
  279THF     H4 3618   3.716   0.668   1.760 -2.2206 -1.3464 -1.2250
  279THF     H5 3619   3.708   0.845   1.803  0.8145  0.9200 -2.4734
  279THF     H6 3620   3.329   0.824   1.767 -0.5068  2.4371 -0.7565
  279THF     H7 3621   3.468   0.945   1.775  0.9624 -0.1007  2.5760
  279THF     C8 3622   3.474   0.809   1.610  0.6123  0.1930 -0.2676
  279THF     C9 3623   3.628   0.796   1.613  0.4523  0.4710  0.0559
  279THF    H10 3624   3.430   0.871   1.531 -1.2909 -1.3671 -0.4973
  279THF    H11 3625   3.435   0.709   1.592  1.0707 -0.5565  2.5301
  279THF    H12 3626   3.667   0.722   1.544 -0.2669 -0.6313  0.8018
  279THF    H13 3627   3.664   0.897   1.590 -2.0065  1.4620  0.2743
  280THF     O1 3628   0.187   3.645   0.320 -0.1338  0.0423 -0.5011
  280THF     C2 3629   0.230   3.677   0.448 -0.0942  0.5482 -0.2109
  280THF     C3 3630   0.117   3.755   0.263 -0.0555  0.2570 -0.1295
  280THF     H4 3631   0.324   3.731   0.432 -0.5289  0.8860 -1.8773
  280THF     H5 3632   0.251   3.590   0.510  1.1171 -0.8388 -2.4381
  280THF     H6 3633   0.196   3.809   0.210  0.4168  1.3057  1.5602
  280THF     H7 3634   0.044   3.727   0.187 -1.1847  3.1122 -0.2286
  280THF     C8 3635   0.069   3.832   0.383  0.0470  0.1160 -0.2020
  280THF     C9 3636   0.124   3.759   0.509  0.1447  0.3687  0.3695
  280THF    H10 3637  -0.040   3.819   0.385  0.1912 -1.3291 -0.6065
  280THF    H11 3638   0.103   3.935   0.382  1.6425 -0.3792 -0.0009
  280THF    H12 3639   0.166   3.826   0.584 -1.2158  0.3779  1.1597
  280THF    H13 3640   0.042   3.705   0.557 -0.1878 -0.3174 -0.9389
  281THF     O1 3641   4.419   2.226   2.464  0.2974 -0.1642  0.3499
  281THF     C2 3642   4.316   2.262   2.558 -0.8510  0.5485 -0.2019
  281THF     C3 3643   4.423   2.078   2.453  0.2164  0.2311 -0.3667
  281THF     H4 3644   4.223   2.270   2.501 -0.2937 -2.6019 -1.7886
  281THF     H5 3645   4.328   2.364   2.594 -1.8472  0.8717 -0.7332
  281THF     H6 3646   4.406   2.050   2.349  1.8556 -2.4795 -0.0159
  281THF     H7 3647   4.526   2.044   2.467 -0.3200 -1.4625 -0.2056
  281THF     C8 3648   4.312   2.024   2.542  0.5493 -0.1441  0.3324
  281THF     C9 3649   4.292   2.141   2.649 -0.1207  0.8708 -0.0309
  281THF    H10 3650   4.349   1.935   2.593  0.3243  0.0307  0.8051
  281THF    H11 3651   4.228   1.987   2.483  0.7443  0.3702 -0.2790
  281THF    H12 3652   4.188   2.134   2.681  0.6254  0.6751  2.5568
  281THF    H13 3653   4.360   2.136   2.734  0.7622 -0.8410 -0.8015
  282THF     O1 3654   1.230   1.849   5.287  0.3173 -0.5308 -0.4571
  282THF     C2 3655   1.107   1.785   5.280 -0.1098  0.7446  0.0293
  282THF     C3 3656   1.200   1.966   5.372  0.4286  0.3257  0.3621
  282THF     H4 3657   1.120   1.689   5.229 -1.1445 -0.0405  1.1932
  282THF     H5 3658   1.036   1.841   5.219 -1.0072  0.7996  1.1026
  282THF     H6 3659   1.291   2.010   5.414  1.7000 -2.2356  0.4548
  282THF     H7 3660   1.131   2.032   5.321 -1.0851  1.1075  3.1833
  282THF     C8 3661   1.127   1.905   5.491  0.7714 -0.0257 -0.0749
  282THF     C9 3662   1.075   1.779   5.431 -0.9079  0.1245  0.5011
  282THF    H10 3663   1.046   1.968   5.527 -0.0372 -0.3477 -1.2988
  282THF    H11 3664   1.188   1.884   5.579  1.3897 -1.7151 -0.8764
  282THF    H12 3665   1.132   1.704   5.487  0.3030  1.6988  1.4631
  282THF    H13 3666   0.968   1.765   5.450 -1.1224  1.3678  0.2823
  283THF     O1 3667   4.469   4.264   3.029 -0.1413 -0.1876  0.2322
  283THF     C2 3668   4.450   4.287   3.163 -0.0378 -0.2830  0.3714
  283THF     C3 3669   4.349   4.318   2.970  0.3194 -0.9540 -0.0284
  283THF     H4 3670   4.540   4.271   3.222 -0.5542  2.0055  1.9150
  283THF     H5 3671   4.371   4.224   3.203 -0.1294  0.5384  1.5621
  283THF     H6 3672   4.370   4.340   2.865  2.3727  1.7562  0.8388
  283THF     H7 3673   4.268   4.246   2.983 -2.3080  1.4646 -1.8090
  283THF     C8 3674   4.315   4.444   3.054  0.2554  1.0104  0.4946
  283THF     C9 3675   4.422   4.435   3.165  0.1161 -0.3824 -0.1161
  283THF    H10 3676   4.215   4.441   3.099 -0.5465  0.0777 -1.2327
  283THF    H11 3677   4.340   4.536   3.002  1.3552 -0.1361 -1.0799
  283THF    H12 3678   4.515   4.483   3.136  0.1816 -0.7976 -0.6107
  283THF    H13 3679   4.394   4.471   3.264  1.2596 -1.4454  0.6267
  284THF     O1 3680   1.282   1.609   1.076 -0.0202  0.8399  0.2660
  284THF     C2 3681   1.221   1.476   1.055 -0.0415 -0.5324  0.5831
  284THF     C3 3682   1.180   1.706   1.095  0.0530  0.4503  0.2832
  284THF     H4 3683   1.225   1.414   1.145 -0.6241 -2.3522 -0.6106
  284THF     H5 3684   1.274   1.420   0.978  2.0458  1.3347  0.5617
  284THF     H6 3685   1.198   1.769   1.182 -0.8908 -0.8242  1.4361
  284THF     H7 3686   1.199   1.766   1.006 -0.2886 -1.4164 -1.1043
  284THF     C8 3687   1.055   1.632   1.091 -0.3106  0.4418  0.7857
  284THF     C9 3688   1.082   1.506   1.014 -0.1668 -0.0432 -0.0022
  284THF    H10 3689   0.973   1.690   1.050 -1.2636 -0.0964  1.8696
  284THF    H11 3690   1.005   1.596   1.181  1.1647 -1.4028  0.9441
  284THF    H12 3691   1.020   1.419   1.034 -0.3251  0.1952  0.5562
  284THF    H13 3692   1.078   1.533   0.908  0.0207 -1.3736 -0.3693
  285THF     O1 3693   1.612   0.554   2.978  0.1566 -0.5769 -0.1401
  285THF     C2 3694   1.592   0.697   2.981 -0.0718 -0.6285  0.3756
  285THF     C3 3695   1.479   0.501   2.938  0.1461 -0.1128 -0.4015
  285THF     H4 3696   1.598   0.744   2.883  0.7513 -1.4431  0.0148
  285THF     H5 3697   1.673   0.738   3.042  0.5024 -1.3764  0.1383
  285THF     H6 3698   1.476   0.485   2.830 -1.3880  0.7695 -0.5299
  285THF     H7 3699   1.459   0.412   2.997  0.3527  1.5482  2.3148
  285THF     C8 3700   1.373   0.606   2.956  0.2144 -0.7410 -0.2899
  285THF     C9 3701   1.448   0.716   3.025  0.3733 -0.1895  0.2076
  285THF    H10 3702   1.291   0.577   3.022 -0.3731 -0.4061 -0.8604
  285THF    H11 3703   1.327   0.627   2.859 -0.6539  2.1405  0.6367
  285THF    H12 3704   1.420   0.819   3.003 -0.3053 -0.1021  1.4228
  285THF    H13 3705   1.455   0.706   3.133  1.4083  1.8224  0.3792
  286THF     O1 3706   4.040   3.490   4.014  0.1578  0.4494 -0.2754
  286THF     C2 3707   4.161   3.423   4.035 -0.0906 -0.2826  0.0638
  286THF     C3 3708   3.987   3.434   3.891 -0.2796  0.7767  0.0463
  286THF     H4 3709   4.202   3.440   4.135  0.5153  0.8938 -0.3744
  286THF     H5 3710   4.226   3.446   3.951 -1.8216  1.4517 -0.8941
  286THF     H6 3711   3.879   3.449   3.882  0.0080  2.4294 -1.1833
  286THF     H7 3712   4.039   3.468   3.801  0.1170  0.4255  0.1454
  286THF     C8 3713   4.020   3.288   3.894 -0.1060 -0.4047 -0.9287
  286THF     C9 3714   4.108   3.280   4.022 -0.2523 -0.7620 -0.5134
  286THF    H10 3715   4.081   3.265   3.807  0.2229  0.9923 -1.0895
  286THF    H11 3716   3.925   3.234   3.889 -1.0374  1.0555  0.0833
  286THF    H12 3717   4.047   3.262   4.111 -0.8344 -0.1953 -0.7865
  286THF    H13 3718   4.192   3.211   4.022  0.9172  0.5866  1.1046
  287THF     O1 3719   2.211   4.851   5.500  0.0774  0.0875  0.3326
  287THF     C2 3720   2.297   4.858   5.389 -0.0567 -0.1544  0.0686
  287THF     C3 3721   2.152   4.717   5.504  0.2438 -0.7265  0.2309
  287THF     H4 3722   2.365   4.942   5.380 -0.3309  0.0738  0.1264
  287THF     H5 3723   2.232   4.853   5.302 -1.0907 -0.8906  0.8514
  287THF     H6 3724   2.139   4.689   5.608 -0.8861  1.1671  0.6329
  287THF     H7 3725   2.056   4.717   5.453  1.9694 -0.0456 -3.3399
  287THF     C8 3726   2.264   4.635   5.437 -0.6070  0.8319  0.2578
  287THF     C9 3727   2.373   4.734   5.404 -0.2251  0.2196 -0.1845
  287THF    H10 3728   2.231   4.590   5.343  1.3112 -3.3580  1.3487
  287THF    H11 3729   2.294   4.550   5.499  0.4245  1.2690  0.3728
  287THF    H12 3730   2.446   4.744   5.484  0.7308  0.6470 -1.0872
  287THF    H13 3731   2.416   4.708   5.307  0.5470  1.4575 -0.1974
  288THF     O1 3732   4.388   5.442   4.444  0.1536  0.8195  0.0113
  288THF     C2 3733   4.434   5.340   4.539 -0.1882  0.0205  0.5092
  288THF     C3 3734   4.461   5.439   4.324  0.0490 -0.4321 -0.6791
  288THF     H4 3735   4.347   5.298   4.590  0.1855  0.6382  1.6912
  288THF     H5 3736   4.503   5.384   4.611  0.1502 -0.6917  0.6314
  288THF     H6 3737   4.395   5.405   4.244 -0.6253  0.1056 -0.3691
  288THF     H7 3738   4.496   5.539   4.297 -1.1775  0.0360 -0.6030
  288THF     C8 3739   4.573   5.343   4.344 -0.1027  0.4234  0.3652
  288THF     C9 3740   4.519   5.249   4.455 -0.3625  0.2963  0.0737
  288THF    H10 3741   4.668   5.380   4.383 -1.0447  0.5346  2.6915
  288THF    H11 3742   4.592   5.292   4.249 -1.4256 -0.4732  0.5551
  288THF    H12 3743   4.457   5.166   4.418  0.1889 -0.0117 -0.1747
  288THF    H13 3744   4.600   5.201   4.510 -2.0132 -0.6391  1.8363
  289THF     O1 3745   1.890   3.900   2.092  0.1216  0.1817 -0.2536
  289THF     C2 3746   1.955   3.806   2.013  0.5484  0.1796 -0.2205
  289THF     C3 3747   1.950   4.027   2.085 -0.1207 -0.4463 -0.3045
  289THF     H4 3748   1.904   3.790   1.918 -0.7081 -0.1436  0.4898
  289THF     H5 3749   1.956   3.712   2.068 -1.6103 -0.4386 -1.1372
  289THF     H6 3750   1.914   4.077   1.995  0.7066 -2.4882 -1.8754
  289THF     H7 3751   1.929   4.089   2.172  0.0697 -0.4450 -0.2595
  289THF     C8 3752   2.098   3.987   2.064 -0.3972 -0.0931 -0.1946
  289THF     C9 3753   2.097   3.863   1.986 -0.9767 -0.2391 -0.0338
  289THF    H10 3754   2.146   3.972   2.160  0.1978 -0.1721 -0.4972
  289THF    H11 3755   2.154   4.070   2.021 -2.8267  3.3042  2.6580
  289THF    H12 3756   2.125   3.881   1.882  0.4070  0.5626  0.4627
  289THF    H13 3757   2.174   3.805   2.036  0.1573  1.7141  0.5520
  290THF     O1 3758   2.116   5.153   1.963  0.2096  0.0687 -0.2451
  290THF     C2 3759   2.110   5.008   1.973  0.2250 -0.5888  0.5449
  290THF     C3 3760   2.251   5.194   1.995  0.0538  0.6867 -0.4936
  290THF     H4 3761   2.021   4.970   1.923 -0.3215  0.2963  0.8179
  290THF     H5 3762   2.093   4.978   2.077  0.9747 -1.1981  0.4996
  290THF     H6 3763   2.280   5.293   1.960 -1.2373  1.2476 -0.0655
  290THF     H7 3764   2.272   5.182   2.101  2.4667 -0.6616 -1.0621
  290THF     C8 3765   2.337   5.088   1.920 -0.2856  0.6365  0.2455
  290THF     C9 3766   2.245   4.961   1.912 -0.0771 -0.4816  0.6948
  290THF    H10 3767   2.427   5.057   1.973  0.3004  2.3340  0.3114
  290THF    H11 3768   2.358   5.126   1.820 -2.9178  1.8536  0.0825
  290THF    H12 3769   2.219   4.943   1.807  0.0198 -1.0662  0.7721
  290THF    H13 3770   2.285   4.875   1.964 -0.0243  0.3717  2.1271
  291THF     O1 3771   3.566   0.358   3.447  0.9787 -0.1915  0.1877
  291THF     C2 3772   3.677   0.424   3.391 -0.1600 -0.5686 -0.6061
  291THF     C3 3773   3.504   0.445   3.539 -0.3532  0.4857 -0.1297
  291THF     H4 3774   3.640   0.507   3.331 -0.0092  0.0953  0.2168
  291THF     H5 3775   3.729   0.347   3.333 -0.7109 -0.9138 -0.6461
  291THF     H6 3776   3.449   0.524   3.488  1.5185  1.9870  0.0802
  291THF     H7 3777   3.452   0.371   3.600 -0.0672 -0.8577 -1.4688
  291THF     C8 3778   3.624   0.499   3.620  0.5090  0.2217 -0.2819
  291THF     C9 3779   3.738   0.464   3.521  0.1682 -0.2644 -0.2404
  291THF    H10 3780   3.635   0.439   3.710 -3.1911 -2.5813 -1.4497
  291THF    H11 3781   3.622   0.604   3.649  1.0574  0.0432  0.4120
  291THF    H12 3782   3.808   0.547   3.506  0.5028 -0.3473  0.7804
  291THF    H13 3783   3.799   0.383   3.561 -0.9957 -0.3988  1.3497
  292THF     O1 3784   2.732   0.861   1.892  0.7459 -0.3788 -0.2453
  292THF     C2 3785   2.586   0.844   1.891 -0.2376  0.2617  0.4705
  292THF     C3 3786   2.757   0.971   1.810 -0.2620  0.0701 -0.1193
  292THF     H4 3787   2.543   0.771   1.959  0.1754  0.4193  0.9087
  292THF     H5 3788   2.558   0.811   1.792  1.6299 -0.9054  0.2736
  292THF     H6 3789   2.856   1.010   1.833  0.1911 -1.0427 -0.1243
  292THF     H7 3790   2.754   0.939   1.705  0.6101  0.0310 -0.1415
  292THF     C8 3791   2.644   1.065   1.855  0.3488  0.0463 -0.2546
  292THF     C9 3792   2.545   0.977   1.931 -0.5493 -1.1079 -0.9893
  292THF    H10 3793   2.604   1.132   1.777 -2.9960  1.0834  2.1114
  292THF    H11 3794   2.691   1.124   1.933 -1.6417  1.7578 -0.2676
  292THF    H12 3795   2.560   0.980   2.039 -0.0413  0.7046 -1.0768
  292THF    H13 3796   2.445   1.005   1.899  0.0533  1.7248 -0.6678
  293THF     O1 3797   3.571   4.702   1.180  0.2872  0.3839  0.2931
  293THF     C2 3798   3.500   4.822   1.173 -0.0989  0.0474 -0.4603
  293THF     C3 3799   3.691   4.704   1.108 -0.4489  0.6794  0.2173
  293THF     H4 3800   3.456   4.858   1.265  1.4221 -2.3411  1.3418
  293THF     H5 3801   3.422   4.817   1.097 -0.7663 -2.2835  0.2938
  293THF     H6 3802   3.777   4.699   1.175 -1.1989 -0.9208  1.1119
  293THF     H7 3803   3.679   4.625   1.033 -1.6536  0.9452  0.1118
  293THF     C8 3804   3.693   4.838   1.048 -0.1934  0.2050 -0.0809
  293THF     C9 3805   3.601   4.926   1.131 -0.4953  0.1709  0.3464
  293THF    H10 3806   3.645   4.814   0.953  2.2878 -1.4363 -0.9977
  293THF    H11 3807   3.788   4.890   1.043 -0.5078  1.0911  2.2354
  293THF    H12 3808   3.655   4.960   1.220 -0.4324 -0.3184  0.4974
  293THF    H13 3809   3.555   5.009   1.077 -0.3407 -1.0908 -1.8022
  294THF     O1 3810   0.996   3.758   0.399 -0.5127 -0.1363 -0.0059
  294THF     C2 3811   1.054   3.656   0.479  0.3466 -0.1762  0.1203
  294THF     C3 3812   0.941   3.859   0.471  0.3961 -0.2094 -0.1822
  294THF     H4 3813   1.155   3.637   0.442  0.5721 -1.0089  1.1177
  294THF     H5 3814   0.997   3.563   0.471  1.1388 -0.6944  0.3831
  294THF     H6 3815   0.948   3.959   0.428  1.1781 -0.3070 -0.3006
  294THF     H7 3816   0.838   3.824   0.479  0.5699 -0.3281  2.5605
  294THF     C8 3817   1.022   3.862   0.605 -0.1139  0.3103  0.0546
  294THF     C9 3818   1.053   3.712   0.631 -0.1144  0.0272 -0.0595
  294THF    H10 3819   0.967   3.906   0.689  0.7397  2.3527 -0.3891
  294THF    H11 3820   1.114   3.920   0.596 -0.1918  0.4086 -0.1126
  294THF    H12 3821   1.144   3.699   0.689 -0.1917 -0.6718 -0.0836
  294THF    H13 3822   0.969   3.671   0.687 -1.6566  2.1968 -0.6265
  295THF     O1 3823   2.334   3.529   4.942 -0.2845  0.1219 -0.0002
  295THF     C2 3824   2.233   3.427   4.943 -0.4788  0.5086 -0.3498
  295THF     C3 3825   2.381   3.532   4.810  0.5387  0.8507  0.2252
  295THF     H4 3826   2.145   3.462   4.890  0.1181  2.5648 -0.0854
  295THF     H5 3827   2.207   3.391   5.043 -1.0330  0.0830 -0.6446
  295THF     H6 3828   2.321   3.596   4.745  0.5442  0.0575 -0.5748
  295THF     H7 3829   2.484   3.566   4.795  0.0098  2.6362  0.4083
  295THF     C8 3830   2.373   3.386   4.766  0.2449 -0.3050  0.0473
  295THF     C9 3831   2.293   3.310   4.861  0.1796  0.2183  0.0321
  295THF    H10 3832   2.472   3.340   4.773  0.7458  0.9011  1.4289
  295THF    H11 3833   2.344   3.379   4.662  1.0302 -0.8555 -0.1435
  295THF    H12 3834   2.212   3.256   4.813  0.5597  0.3527 -0.7833
  295THF    H13 3835   2.348   3.237   4.921 -3.5808 -1.2275  2.0207
  296THF     O1 3836   5.230   0.187   3.562 -0.4943  0.1689  0.0099
  296THF     C2 3837   5.128   0.275   3.592 -0.5936  0.0228 -0.1656
  296THF     C3 3838   5.304   0.238   3.455 -0.7015 -0.5703  0.7302
  296THF     H4 3839   5.068   0.255   3.682 -1.3053 -3.0427 -1.1746
  296THF     H5 3840   5.054   0.268   3.513  1.0333  1.2566 -1.8713
  296THF     H6 3841   5.408   0.207   3.459 -1.4606 -3.2160  3.1349
  296THF     H7 3842   5.270   0.194   3.361  1.8431 -1.3936  0.1369
  296THF     C8 3843   5.306   0.392   3.470  0.1244  0.2636 -0.3052
  296THF     C9 3844   5.192   0.416   3.575 -0.4718 -0.1798 -0.2810
  296THF    H10 3845   5.310   0.459   3.384  1.1187  2.0876  1.0888
  296THF    H11 3846   5.404   0.417   3.511  0.1894  0.5140 -0.6058
  296THF    H12 3847   5.225   0.463   3.668 -0.9382  1.3695 -0.8615
  296THF    H13 3848   5.129   0.497   3.539  1.9420  1.4484 -1.1109
  297THF     O1 3849   2.340   0.542   1.625  0.1207  0.3975  0.3585
  297THF     C2 3850   2.347   0.490   1.759  0.5903 -0.0200  0.1629
  297THF     C3 3851   2.215   0.607   1.607 -0.2820  0.6464  0.2723
  297THF     H4 3852   2.362   0.569   1.833  1.0180 -0.2655  0.3395
  297THF     H5 3853   2.427   0.417   1.764  0.8762 -0.0968 -3.3961
  297THF     H6 3854   2.224   0.705   1.653 -0.7190  0.8656 -0.0957
  297THF     H7 3855   2.208   0.630   1.500  0.8534 -0.4689 -0.0800
  297THF     C8 3856   2.110   0.514   1.678  0.1798 -0.8476  0.7465
  297THF     C9 3857   2.202   0.433   1.769  0.6874  0.4249  0.2764
  297THF    H10 3858   2.055   0.440   1.621  0.0364  1.2674 -2.0970
  297THF    H11 3859   2.053   0.586   1.736 -0.1604  0.7265 -1.3944
  297THF    H12 3860   2.158   0.414   1.867 -1.0303  0.2765 -0.4859
  297THF    H13 3861   2.212   0.332   1.729  0.0459 -0.5627  2.4725
  298THF     O1 3862   0.020   0.527   3.898  0.1485 -0.1800  0.4175
  298THF     C2 3863  -0.018   0.394   3.870 -0.5649  0.2903 -0.2266
  298THF     C3 3864   0.085   0.517   4.019  0.3139  0.4865 -0.1364
  298THF     H4 3865   0.062   0.347   3.813  0.6144  1.9555 -0.0008
  298THF     H5 3866  -0.105   0.371   3.809 -1.0207 -2.8042  1.3435
  298THF     H6 3867   0.191   0.498   4.000  0.7082  3.0284 -0.9741
  298THF     H7 3868   0.093   0.618   4.059  0.2256  1.3469 -2.1758
  298THF     C8 3869   0.017   0.402   4.107  0.4248  0.4456 -0.2569
  298THF     C9 3870  -0.033   0.317   4.001 -0.4749  0.1326  0.4965
  298THF    H10 3871  -0.081   0.427   4.149  0.2612 -3.4632  2.2179
  298THF    H11 3872   0.092   0.356   4.170  1.2854  0.2482 -1.4045
  298THF    H12 3873   0.023   0.223   3.996 -1.2360 -0.2669 -2.0776
  298THF    H13 3874  -0.136   0.285   4.014 -0.8905  0.9797 -0.4953
  299THF     O1 3875   2.308   0.241   1.325  0.6042  0.2109  0.6241
  299THF     C2 3876   2.343   0.129   1.244  0.4560  0.5280  0.1619
  299THF     C3 3877   2.199   0.197   1.403  0.0747  0.2611  0.4232
  299THF     H4 3878   2.386   0.049   1.305  0.3483  1.1489  1.0641
  299THF     H5 3879   2.404   0.163   1.161  1.1347  0.3244  0.5681
  299THF     H6 3880   2.235   0.129   1.480  0.1931 -0.5156 -0.3035
  299THF     H7 3881   2.142   0.274   1.455  0.4721  0.2274  0.9157
  299THF     C8 3882   2.107   0.114   1.310  0.0806  0.5587  0.1991
  299THF     C9 3883   2.201   0.095   1.194  0.1792  0.0143  0.6441
  299THF    H10 3884   2.018   0.170   1.282 -1.1271 -2.2569 -2.0510
  299THF    H11 3885   2.087   0.014   1.350  2.7555  0.0519  0.4764
  299THF    H12 3886   2.202  -0.006   1.154  0.2002 -0.5144  1.9366
  299THF    H13 3887   2.176   0.164   1.113 -0.4494  1.3524  1.9460
  300THF     O1 3888   5.404   2.306   3.989 -0.0630  0.0274 -0.5869
  300THF     C2 3889   5.277   2.242   3.980  0.6371  0.3129  0.4268
  300THF     C3 3890   5.404   2.351   4.123  0.0418 -0.1776  0.9498
  300THF     H4 3891   5.254   2.151   4.036 -2.0719  0.5233 -0.2544
  300THF     H5 3892   5.253   2.221   3.876 -0.8276  0.1752  0.7817
  300THF     H6 3893   5.434   2.275   4.195 -0.4756 -0.8201  0.4930
  300THF     H7 3894   5.482   2.426   4.139  0.8930 -1.0457  0.9510
  300THF     C8 3895   5.261   2.396   4.158  0.1627  0.2689 -0.0888
  300THF     C9 3896   5.176   2.340   4.049  0.9765 -0.3482 -0.3568
  300THF    H10 3897   5.241   2.503   4.170 -1.0694  0.1989 -1.3025
  300THF    H11 3898   5.236   2.358   4.257  1.3317  0.0744  0.1410
  300THF    H12 3899   5.083   2.296   4.085 -0.9563  2.7398 -1.1656
  300THF    H13 3900   5.156   2.427   3.987  1.0589  0.9327  1.3387
  301THF     O1 3901   0.165   1.879   1.456  0.2177  0.0325  0.5573
  301THF     C2 3902   0.283   1.935   1.510 -0.3162  0.7596 -0.2372
  301THF     C3 3903   0.131   1.764   1.535  0.0295 -0.2213 -0.0812
  301THF     H4 3904   0.263   1.994   1.600  2.2049  1.0221  0.2381
  301THF     H5 3905   0.344   2.000   1.448  0.1502  0.9012  0.3587
  301THF     H6 3906   0.043   1.775   1.600  0.7040 -1.7615  1.1667
  301THF     H7 3907   0.102   1.682   1.469 -1.3928 -0.9322  1.3328
  301THF     C8 3908   0.255   1.727   1.626 -0.2347 -0.6128  0.1819
  301THF     C9 3909   0.361   1.811   1.558 -0.1350  0.6156  0.1478
  301THF    H10 3910   0.268   1.619   1.631 -2.7490 -0.9525  0.6876
  301THF    H11 3911   0.238   1.754   1.730 -2.2712  1.5614 -0.6111
  301THF    H12 3912   0.438   1.844   1.628 -0.1343 -0.0483  0.4621
  301THF    H13 3913   0.407   1.766   1.470 -1.4872  1.1396 -0.8634
  302THF     O1 3914   3.352   0.322   3.224  0.0921 -0.0526  0.2831
  302THF     C2 3915   3.255   0.424   3.223  0.5130  0.4161 -0.4990
  302THF     C3 3916   3.346   0.254   3.094 -0.6899 -0.1138 -0.0230
  302THF     H4 3917   3.285   0.511   3.164 -1.3057  0.5475 -1.2846
  302THF     H5 3918   3.237   0.458   3.325  1.2612 -1.0397  0.1451
  302THF     H6 3919   3.395   0.305   3.012  4.2554 -0.9512  2.0381
  302THF     H7 3920   3.394   0.157   3.105 -0.2633 -0.0771 -1.3873
  302THF     C8 3921   3.195   0.254   3.066  0.5151  0.0694  0.2615
  302THF     C9 3922   3.137   0.357   3.161  0.0162 -0.2850  0.1855
  302THF    H10 3923   3.160   0.153   3.087  0.7487  0.1436  1.0415
  302THF    H11 3924   3.169   0.268   2.961  1.8622  0.1323 -0.0773
  302THF    H12 3925   3.072   0.430   3.113  0.2285 -1.7687 -2.5488
  302THF    H13 3926   3.064   0.314   3.230 -0.2972  2.0794  1.4582
  303THF     O1 3927   4.517   0.971   4.541  0.2913 -0.4676  0.1710
  303THF     C2 3928   4.491   0.836   4.561 -0.2736 -0.2423 -0.8722
  303THF     C3 3929   4.619   0.979   4.442  0.0433 -0.1373 -0.1493
  303THF     H4 3930   4.399   0.822   4.504 -0.5560  0.1520 -0.5165
  303THF     H5 3931   4.462   0.813   4.663  1.0970 -0.6982 -0.5521
  303THF     H6 3932   4.592   1.042   4.357 -2.1124 -1.1535 -0.2738
  303THF     H7 3933   4.711   1.016   4.488 -0.1055  0.9047 -0.6685
  303THF     C8 3934   4.651   0.838   4.400  0.1636 -0.4266 -0.0246
  303THF     C9 3935   4.611   0.755   4.517  0.1570 -0.3181  0.5777
  303THF    H10 3936   4.753   0.829   4.362 -0.6086  0.5869 -2.5546
  303THF    H11 3937   4.593   0.814   4.311  0.5534 -1.3240 -0.0477
  303THF    H12 3938   4.584   0.660   4.471  1.6440 -0.0092 -1.0415
  303THF    H13 3939   4.689   0.740   4.591 -0.0087 -1.8077  0.4676
  304THF     O1 3940   0.956   1.381   3.629  0.2665  0.1170  0.4492
  304THF     C2 3941   0.992   1.327   3.755 -0.8789 -0.6106 -0.3394
  304THF     C3 3942   0.925   1.278   3.536  0.3341  0.3774 -0.0242
  304THF     H4 3943   0.908   1.318   3.824 -0.6599  1.3073  0.2173
  304THF     H5 3944   1.070   1.383   3.805 -1.2979 -1.0350  0.8121
  304THF     H6 3945   0.818   1.260   3.547  0.1511  1.7730  0.7063
  304THF     H7 3946   0.946   1.291   3.430  2.5102 -1.0877  0.1657
  304THF     C8 3947   1.005   1.156   3.587 -0.0235  0.6553  1.5227
  304THF     C9 3948   1.060   1.190   3.724 -0.3163  0.4216  0.2575
  304THF    H10 3949   1.091   1.145   3.521 -1.4984  2.1460 -0.7759
  304THF    H11 3950   0.948   1.064   3.600  1.3671 -0.3332  0.8726
  304THF    H12 3951   1.049   1.115   3.802  1.7587 -0.0002  0.1900
  304THF    H13 3952   1.163   1.223   3.710 -0.1193 -0.3755 -0.1989
  305THF     O1 3953   2.187   2.724   1.281 -0.0492  0.1454  0.8239
  305THF     C2 3954   2.250   2.604   1.311 -0.7464  0.6349 -0.6752
  305THF     C3 3955   2.057   2.698   1.232  0.4305  0.6986  0.1693
  305THF     H4 3956   2.223   2.590   1.416 -0.8171 -0.3680 -0.8154
  305THF     H5 3957   2.358   2.604   1.298 -0.5075 -3.1049  0.1249
  305THF     H6 3958   1.984   2.683   1.312 -0.2170  3.8073  0.2914
  305THF     H7 3959   2.030   2.788   1.176 -0.9858  1.8084  2.4359
  305THF     C8 3960   2.083   2.576   1.140  0.2979 -0.0106 -0.4045
  305THF     C9 3961   2.190   2.501   1.220  1.4902 -0.1388  0.3854
  305THF    H10 3962   2.114   2.599   1.038 -1.2100  0.6096 -0.7547
  305THF    H11 3963   1.988   2.523   1.130 -0.1548  0.1993  2.1844
  305THF    H12 3964   2.137   2.426   1.279  2.3117  0.4715  1.9815
  305THF    H13 3965   2.251   2.451   1.146  2.0539  0.1559  0.6441
  306THF     O1 3966   0.973   1.852   0.805 -0.5102  0.0884  0.0772
  306THF     C2 3967   0.919   1.826   0.673 -0.2085 -0.3532 -0.2928
  306THF     C3 3968   0.872   1.913   0.874 -0.1537  0.5412  0.2803
  306THF     H4 3969   0.973   1.753   0.613  0.3900 -1.5269  1.5795
  306THF     H5 3970   0.929   1.915   0.611 -0.4201 -1.0134 -1.2950
  306THF     H6 3971   0.903   1.902   0.978 -2.6839  0.2669  1.0769
  306THF     H7 3972   0.865   2.020   0.851 -0.8793  0.1586 -1.4431
  306THF     C8 3973   0.745   1.835   0.839  0.5109  0.4636  0.0410
  306THF     C9 3974   0.780   1.775   0.703 -0.3464  0.2226  0.1391
  306THF    H10 3975   0.665   1.908   0.826 -3.2019 -3.3444 -0.6633
  306THF    H11 3976   0.718   1.761   0.915 -2.6422  0.8461 -0.5415
  306THF    H12 3977   0.781   1.666   0.716 -1.8572  0.1417 -0.2276
  306THF    H13 3978   0.700   1.797   0.632 -1.4716  0.4052  1.4361
  307THF     O1 3979   1.580   2.023   5.145  0.3313 -0.1392 -0.5238
  307THF     C2 3980   1.692   2.019   5.234 -0.0869  0.2752 -0.1271
  307THF     C3 3981   1.542   1.897   5.120  0.5144 -0.5439  0.0222
  307THF     H4 3982   1.702   2.114   5.287 -3.9341  1.1626 -0.6438
  307THF     H5 3983   1.785   2.006   5.178  0.7241  1.6210  0.8570
  307THF     H6 3984   1.438   1.881   5.090  0.3255 -2.2212  1.4544
  307THF     H7 3985   1.608   1.852   5.045  1.3148 -0.8506  0.8995
  307THF     C8 3986   1.553   1.823   5.251 -0.2982 -0.4696  0.0242
  307THF     C9 3987   1.668   1.900   5.323  0.2027  0.3384  0.1564
  307THF    H10 3988   1.570   1.715   5.248 -1.9902 -0.7590 -0.8182
  307THF    H11 3989   1.464   1.835   5.313 -0.0848 -2.4074  0.7717
  307THF    H12 3990   1.640   1.928   5.424 -0.5903 -0.3049  0.1268
  307THF    H13 3991   1.750   1.827   5.325  0.2389  0.3874  1.0742
  308THF     O1 3992   2.859   0.140   4.064 -0.0915  0.1390 -0.0308
  308THF     C2 3993   2.997   0.129   4.083 -0.1540  0.3386  0.0505
  308THF     C3 3994   2.785   0.093   4.173 -0.5164  0.1871 -0.5557
  308THF     H4 3995   3.053   0.201   4.024  0.6407  0.2280  0.6489
  308THF     H5 3996   3.022   0.026   4.058  0.4868  0.5670 -0.2435
  308THF     H6 3997   2.722   0.169   4.219  0.4954  0.2830  0.7547
  308THF     H7 3998   2.729   0.003   4.149  0.8995 -0.2880 -2.2961
  308THF     C8 3999   2.890   0.064   4.284 -0.0731  0.2254 -0.2387
  308THF     C9 4000   3.009   0.133   4.237  0.1675 -0.5850 -0.1985
  308THF    H10 4001   2.905  -0.044   4.274  0.9614  0.3496 -0.1547
  308THF    H11 4002   2.870   0.077   4.391 -0.8750  2.0361 -0.5826
  308THF    H12 4003   3.005   0.239   4.262  0.1221  0.6282 -4.5188
  308THF    H13 4004   3.102   0.085   4.268  1.9660  1.1499 -2.5366
  309THF     O1 4005   0.361   0.931   0.829  0.2457 -0.2400  0.2714
  309THF     C2 4006   0.331   0.834   0.920 -0.3473  0.2945 -0.4883
  309THF     C3 4007   0.360   0.863   0.705 -0.1275 -0.2298  0.1551
  309THF     H4 4008   0.309   0.875   1.018  1.3231 -0.6893  0.3480
  309THF     H5 4009   0.406   0.755   0.930 -1.4090 -0.7006 -0.2041
  309THF     H6 4010   0.365   0.934   0.622  0.6774 -0.7019 -0.2135
  309THF     H7 4011   0.454   0.809   0.692  0.6683  1.1237  0.0894
  309THF     C8 4012   0.238   0.767   0.711  0.4600  0.0119 -0.1794
  309THF     C9 4013   0.211   0.764   0.861  0.1900  0.0268  0.0960
  309THF    H10 4014   0.250   0.672   0.660 -1.2835  0.9997 -2.6037
  309THF    H11 4015   0.155   0.817   0.661  0.8423  1.4198  0.5396
  309THF    H12 4016   0.129   0.822   0.904 -0.0499 -1.2884  1.4934
  309THF    H13 4017   0.202   0.665   0.905 -2.6151  0.6564  1.1500
  310THF     O1 4018   0.308   4.867   5.008  0.7432  0.6206 -0.0057
  310THF     C2 4019   0.232   4.776   4.934 -0.2733 -1.2728  0.3094
  310THF     C3 4020   0.234   4.883   5.139 -0.0826  0.1950  1.0419
  310THF     H4 4021   0.278   4.761   4.837 -0.3693  2.4390 -0.4571
  310THF     H5 4022   0.138   4.826   4.913  0.3614  0.2016  0.7534
  310THF     H6 4023   0.305   4.925   5.211  0.4508  0.0344  0.6217
  310THF     H7 4024   0.151   4.951   5.124  0.2525  0.3331 -0.3066
  310THF     C8 4025   0.186   4.736   5.161 -0.0751  0.3556  0.1042
  310THF     C9 4026   0.217   4.659   5.032  0.1927  0.4791 -0.5464
  310THF    H10 4027   0.078   4.737   5.177 -0.2755 -2.3992 -0.4913
  310THF    H11 4028   0.231   4.672   5.237  0.2671 -0.7946 -1.0207
  310THF    H12 4029   0.316   4.615   5.034 -0.4787 -1.1028  1.4987
  310THF    H13 4030   0.145   4.587   4.992  0.4362  0.4030 -0.8491
  311THF     O1 4031   1.143   2.713   2.640 -0.6242  0.0378 -0.2001
  311THF     C2 4032   1.081   2.589   2.635  0.0406 -0.3596 -0.1711
  311THF     C3 4033   1.192   2.749   2.519  0.2296  0.0139 -0.2731
  311THF     H4 4034   0.974   2.608   2.628  0.0173 -0.3839  0.1121
  311THF     H5 4035   1.109   2.525   2.719  0.9871 -1.6422 -1.4175
  311THF     H6 4036   1.116   2.812   2.473  0.1825 -0.2950 -0.6181
  311THF     H7 4037   1.281   2.808   2.538  0.2692 -0.2878  0.5221
  311THF     C8 4038   1.231   2.623   2.451  0.4966  0.0135 -0.4131
  311THF     C9 4039   1.123   2.529   2.505 -0.2346  0.8539  0.7781
  311THF    H10 4040   1.331   2.594   2.482 -0.2728 -0.6084  1.7024
  311THF    H11 4041   1.205   2.637   2.346 -0.4617  0.4557 -0.1270
  311THF    H12 4042   1.038   2.519   2.438 -0.0321 -0.4827  0.6980
  311THF    H13 4043   1.161   2.429   2.528 -1.0563 -0.2559 -2.1657
  312THF     O1 4044   4.173   3.494   5.008  0.6496 -0.2016  0.6565
  312THF     C2 4045   4.066   3.585   5.031  0.0921 -0.1562  0.2271
  312THF     C3 4046   4.133   3.368   5.069 -0.6739 -0.3793  0.6338
  312THF     H4 4047   4.000   3.576   4.945  0.2194  2.1719 -0.1953
  312THF     H5 4048   4.099   3.688   5.015  2.1380 -0.4793  1.9136
  312THF     H6 4049   4.085   3.301   4.997 -0.4285  0.4366 -0.3204
  312THF     H7 4050   4.217   3.304   5.095  1.3742  1.7474 -0.4554
  312THF     C8 4051   4.036   3.400   5.185 -0.7327 -0.0232  0.2228
  312THF     C9 4052   4.009   3.545   5.168  0.0286 -0.6315 -0.3806
  312THF    H10 4053   4.091   3.373   5.276  2.1267 -0.8654 -1.6170
  312THF    H11 4054   3.943   3.347   5.165 -1.5650  1.6097 -0.3863
  312THF    H12 4055   3.909   3.586   5.175  0.1115 -0.6019  0.8694
  312THF    H13 4056   4.068   3.597   5.243 -0.1953  0.5397 -0.9891
  313THF     O1 4057   5.046   2.670   1.906 -0.4826  0.0928 -0.5179
  313THF     C2 4058   5.125   2.560   1.858  0.6686 -0.4668  0.7540
  313THF     C3 4059   4.979   2.601   2.019 -0.2032 -0.0686  0.3194
  313THF     H4 4060   5.215   2.603   1.814 -0.3421  0.4091 -0.5239
  313THF     H5 4061   5.063   2.518   1.778  2.1562 -2.9517  0.7926
  313THF     H6 4062   4.950   2.678   2.091  0.2695 -1.4653  2.0477
  313THF     H7 4063   4.889   2.549   1.987 -0.6842 -0.4609  2.2254
  313THF     C8 4064   5.072   2.510   2.079 -0.1245 -0.8972  0.5916
  313THF     C9 4065   5.151   2.462   1.960 -0.7514  0.7784 -0.5614
  313THF    H10 4066   5.018   2.428   2.127  0.1973 -0.4466  1.7674
  313THF    H11 4067   5.139   2.558   2.151 -1.4465 -0.1350  1.3447
  313THF    H12 4068   5.256   2.457   1.988 -0.8557 -1.0015 -0.3254
  313THF    H13 4069   5.124   2.361   1.928  0.8004  0.6996 -1.7200
  314THF     O1 4070   1.101   3.594   5.496  0.0125  0.2629  0.0132
  314THF     C2 4071   1.020   3.504   5.575  0.7047  0.0016  0.6565
  314THF     C3 4072   1.168   3.512   5.401 -0.7467  0.1545 -0.1143
  314THF     H4 4073   0.935   3.554   5.621  0.0860 -0.7403  0.3348
  314THF     H5 4074   1.085   3.453   5.646  0.4325  2.3289  2.7384
  314THF     H6 4075   1.212   3.577   5.325  0.5662 -0.3862  0.1618
  314THF     H7 4076   1.248   3.458   5.450 -0.9258  0.7237  0.8224
  314THF     C8 4077   1.055   3.429   5.346 -0.5177 -0.3404 -0.0305
  314THF     C9 4078   0.960   3.412   5.462  0.3485 -0.0732  0.0997
  314THF    H10 4079   1.101   3.341   5.300  3.5045  0.3156  2.2855
  314THF    H11 4080   1.003   3.489   5.271 -3.0073 -0.2151  1.6700
  314THF    H12 4081   0.865   3.456   5.431 -1.2406 -0.4074  3.9390
  314THF    H13 4082   0.940   3.308   5.488  1.4814 -0.6384 -1.1223
  315THF     O1 4083   0.175   2.828   2.555 -0.6403 -0.1322 -0.3637
  315THF     C2 4084   0.260   2.714   2.542 -0.8775  0.1511 -0.2319
  315THF     C3 4085   0.269   2.934   2.545 -0.3156  0.0769 -0.0903
  315THF     H4 4086   0.306   2.714   2.443  0.7054  0.2211  0.4754
  315THF     H5 4087   0.211   2.617   2.550  1.5741 -1.3027 -1.5598
  315THF     H6 4088   0.325   2.937   2.452 -1.6427  0.5894 -0.8964
  315THF     H7 4089   0.231   3.035   2.560  0.4654  0.2535  0.8367
  315THF     C8 4090   0.373   2.898   2.651 -0.9923 -0.2896 -0.5086
  315THF     C9 4091   0.379   2.744   2.634  0.1127 -0.5089 -0.0222
  315THF    H10 4092   0.334   2.920   2.750 -0.2846  0.0738 -0.3038
  315THF    H11 4093   0.470   2.942   2.630 -0.3241 -1.2718  0.4362
  315THF    H12 4094   0.474   2.699   2.603 -0.3716 -2.7591  1.5622
  315THF    H13 4095   0.347   2.702   2.729 -0.3570  1.4055  0.7177
  316THF     O1 4096   2.168   3.379   0.343  0.0669  0.0418 -0.3768
  316THF     C2 4097   2.307   3.415   0.327  0.7508  0.7317 -0.3848
  316THF     C3 4098   2.137   3.423   0.477 -0.0124  0.5374  0.0611
  316THF     H4 4099   2.315   3.517   0.291  1.4519  0.9688  0.4233
  316THF     H5 4100   2.337   3.343   0.250 -1.7669 -1.7809  0.7854
  316THF     H6 4101   2.140   3.532   0.476 -2.4821  0.6500  0.0868
  316THF     H7 4102   2.045   3.395   0.528  0.0421  0.3010  0.0313
  316THF     C8 4103   2.258   3.374   0.563 -0.4890 -0.2924 -0.0363
  316THF     C9 4104   2.376   3.399   0.465  0.3753 -0.0529  0.0240
  316THF    H10 4105   2.254   3.265   0.566 -0.0716 -0.3966 -1.8689
  316THF    H11 4106   2.269   3.420   0.661  0.2401 -0.0289 -0.2345
  316THF    H12 4107   2.439   3.488   0.473 -0.7330  0.8161 -0.5885
  316THF    H13 4108   2.431   3.305   0.471 -0.8016 -0.7097  0.8786
  317THF     O1 4109   4.571   0.770   2.428 -0.7473  0.1288 -0.6298
  317THF     C2 4110   4.711   0.774   2.453 -0.3115  0.0512 -1.0629
  317THF     C3 4111   4.514   0.804   2.552 -0.3435 -0.4271  0.0182
  317THF     H4 4112   4.760   0.871   2.447  0.9132 -0.6012 -1.9955
  317THF     H5 4113   4.770   0.723   2.377  2.3893  1.3848 -0.0266
  317THF     H6 4114   4.533   0.908   2.579  0.9939 -0.7094  0.2387
  317THF     H7 4115   4.406   0.793   2.546 -0.2890 -0.7642 -0.4648
  317THF     C8 4116   4.585   0.730   2.661  0.5225 -0.1685  0.1184
  317THF     C9 4117   4.715   0.704   2.590 -0.1044 -0.4278  0.3987
  317THF    H10 4118   4.539   0.644   2.710  0.0617  1.0322  1.8611
  317THF    H11 4119   4.605   0.798   2.744  0.7411  1.5466 -1.2847
  317THF    H12 4120   4.800   0.724   2.656 -1.6517  2.2534  1.7321
  317THF    H13 4121   4.709   0.597   2.568  1.0581 -0.0344 -2.1451
  318THF     O1 4122   0.578   5.282   1.950  0.1694  0.5974 -0.5905
  318THF     C2 4123   0.607   5.383   2.042 -0.9281 -0.0246  0.2037
  318THF     C3 4124   0.514   5.181   2.033  0.7773  0.0448  0.2354
  318THF     H4 4125   0.507   5.425   2.054 -1.6604 -1.1885 -1.4846
  318THF     H5 4126   0.672   5.447   1.983  0.1355 -1.2119  0.0505
  318THF     H6 4127   0.415   5.206   2.072 -0.5303 -3.1028 -0.6772
  318THF     H7 4128   0.516   5.088   1.976  1.3706  0.1843  0.0265
  318THF     C8 4129   0.616   5.170   2.146  0.1045  0.1354  0.7588
  318THF     C9 4130   0.669   5.310   2.164  0.5879  0.1485 -0.4097
  318THF    H10 4131   0.706   5.118   2.113 -0.0308 -1.0244  2.0933
  318THF    H11 4132   0.577   5.124   2.237  1.1225  1.0896  1.7021
  318THF    H12 4133   0.635   5.352   2.259 -2.5581  0.0456 -1.3742
  318THF    H13 4134   0.777   5.310   2.152  0.3704  1.9117 -3.2646
  319THF     O1 4135   0.450   4.052   1.966 -0.1255  0.7960  0.2547
  319THF     C2 4136   0.413   4.016   2.097  0.4882  0.5025 -0.4633
  319THF     C3 4137   0.328   4.098   1.907 -0.8321  0.0618 -0.3486
  319THF     H4 4138   0.390   4.104   2.157  1.7348  0.7069 -0.2568
  319THF     H5 4139   0.494   3.967   2.151 -0.1377  0.3714  0.3812
  319THF     H6 4140   0.296   4.196   1.940  0.1713  0.7483 -1.3461
  319THF     H7 4141   0.344   4.088   1.800 -2.0212 -0.4356 -0.4992
  319THF     C8 4142   0.227   3.981   1.940 -0.4873 -0.3787  0.5136
  319THF     C9 4143   0.282   3.933   2.067 -0.0625  0.0163  0.0215
  319THF    H10 4144   0.231   3.906   1.860  0.9990  0.8010 -0.5739
  319THF    H11 4145   0.122   4.006   1.953 -0.9930 -2.3876  0.7194
  319THF    H12 4146   0.216   3.952   2.152  1.0569  0.1550  0.8864
  319THF    H13 4147   0.294   3.825   2.058  1.2127  0.1657 -0.2676
  320THF     O1 4148   4.668   4.663   3.533  0.5836 -0.0064  0.8965
  320THF     C2 4149   4.610   4.543   3.480 -0.3286  0.2130  0.1487
  320THF     C3 4150   4.639   4.675   3.670 -0.4096  0.1368  0.2164
  320THF     H4 4151   4.692   4.471   3.480 -0.7818 -0.3562 -1.5351
  320THF     H5 4152   4.564   4.552   3.381  1.5526  0.7245 -0.7239
  320THF     H6 4153   4.715   4.627   3.732  0.4165  0.9385 -0.1642
  320THF     H7 4154   4.637   4.777   3.708  4.0560  0.6794 -0.5138
  320THF     C8 4155   4.517   4.582   3.698  0.2868 -0.4042 -0.7826
  320THF     C9 4156   4.490   4.514   3.571  0.1977 -0.6995 -0.4820
  320THF    H10 4157   4.434   4.636   3.743  0.2926 -1.3932  0.4809
  320THF    H11 4158   4.537   4.515   3.782  1.6640  1.1281  0.1765
  320THF    H12 4159   4.463   4.410   3.590  0.9970 -1.0296 -1.1529
  320THF    H13 4160   4.404   4.572   3.538  0.7488  1.0815  0.9905
  321THF     O1 4161   0.164   2.222   3.796  0.0510  0.3279 -0.1322
  321THF     C2 4162   0.156   2.105   3.879  0.0981 -0.3205  0.3575
  321THF     C3 4163   0.302   2.250   3.786  0.2264  0.1151 -0.7087
  321THF     H4 4164   0.065   2.046   3.885 -0.2959  0.4343  3.2500
  321THF     H5 4165   0.182   2.125   3.983  0.9592  2.2788 -0.2874
  321THF     H6 4166   0.333   2.301   3.695 -0.2412  2.8770  0.5616
  321THF     H7 4167   0.315   2.319   3.869 -0.6903 -1.2543  0.6178
  321THF     C8 4168   0.382   2.118   3.805 -0.4346  0.4576  0.4054
  321THF     C9 4169   0.273   2.019   3.821 -0.1416 -0.5788  0.0740
  321THF    H10 4170   0.460   2.109   3.881  1.1140  0.1454 -1.1589
  321THF    H11 4171   0.445   2.105   3.718 -1.3529  1.3182 -0.4159
  321THF    H12 4172   0.234   1.981   3.727 -1.0216 -0.2534  0.2998
  321THF    H13 4173   0.288   1.943   3.898  0.1980  1.2802  1.9207
  322THF     O1 4174   3.953   1.338   0.890 -0.3022 -0.3897 -0.3143
  322THF     C2 4175   4.031   1.442   0.947 -0.2031  0.1994  0.8238
  322THF     C3 4176   3.821   1.343   0.938 -0.3286  0.7816 -0.7241
  322THF     H4 4177   3.998   1.537   0.905  1.2391  1.1833  1.8640
  322THF     H5 4178   4.138   1.444   0.926  0.0312 -0.5645  1.8675
  322THF     H6 4179   3.775   1.410   0.866  0.8511  0.8184 -1.4732
  322THF     H7 4180   3.772   1.246   0.936  0.5760  0.2562  0.8878
  322THF     C8 4181   3.826   1.411   1.074  0.4602  0.1124 -0.3107
  322THF     C9 4182   3.974   1.437   1.086 -0.0573  0.1286 -0.4150
  322THF    H10 4183   3.775   1.353   1.150 -0.8461  0.3938 -0.9508
  322THF    H11 4184   3.776   1.508   1.075  0.2320  0.0190 -1.6651
  322THF    H12 4185   3.995   1.518   1.156 -0.6791 -0.3204  0.3000
  322THF    H13 4186   4.033   1.359   1.134  1.5339 -0.0940 -2.5462
  323THF     O1 4187   5.283   2.978   1.746 -0.5103  0.1991 -0.1155
  323THF     C2 4188   5.145   3.002   1.723  0.1689  0.8946  0.3401
  323THF     C3 4189   5.333   2.929   1.620 -0.7835  0.5575  0.7428
  323THF     H4 4190   5.113   3.104   1.700 -2.6694 -0.0317 -0.2472
  323THF     H5 4191   5.093   2.978   1.815 -0.8708  1.1881 -0.1549
  323THF     H6 4192   5.353   3.011   1.550  0.6953 -0.2898  0.1323
  323THF     H7 4193   5.419   2.862   1.625 -1.3817 -0.2068  0.8888
  323THF     C8 4194   5.220   2.849   1.550  0.2267  0.2998 -0.7224
  323THF     C9 4195   5.098   2.905   1.614  0.1817 -0.1651  0.0687
  323THF    H10 4196   5.225   2.741   1.564  1.2259  0.3839 -0.3286
  323THF    H11 4197   5.213   2.858   1.442 -1.6446  1.3084 -0.5605
  323THF    H12 4198   5.027   2.949   1.544 -0.2771 -2.3338 -0.8942
  323THF    H13 4199   5.044   2.818   1.650  1.6512 -0.6682  1.1794
  324THF     O1 4200   0.980   0.124   2.544  0.4386 -0.3745  0.2992
  324THF     C2 4201   0.842   0.144   2.568  0.1556  0.6982 -0.1830
  324THF     C3 4202   0.999  -0.016   2.534 -0.2265 -0.1263 -0.2746
  324THF     H4 4203   0.788   0.146   2.474 -1.9646  1.1906  0.9794
  324THF     H5 4204   0.830   0.238   2.622  1.6315  0.3578  0.8014
  324THF     H6 4205   0.937  -0.066   2.459  0.6680 -2.1305  0.2304
  324THF     H7 4206   1.101  -0.054   2.533 -0.4058 -0.7461  1.5279
  324THF     C8 4207   0.932  -0.053   2.670 -0.5132 -0.4259  0.0124
  324THF     C9 4208   0.806   0.042   2.675 -0.0260  0.1912 -0.0937
  324THF    H10 4209   1.002  -0.029   2.750  0.2090 -0.1966 -0.6732
  324THF    H11 4210   0.901  -0.157   2.684  0.2601 -0.2715  3.7345
  324THF    H12 4211   0.719  -0.016   2.645  0.0407  0.2581 -0.4210
  324THF    H13 4212   0.800   0.076   2.778  1.0311 -1.9252  0.7081
  325THF     O1 4213   4.963   1.578   2.602 -0.6539  0.0189  0.4735
  325THF     C2 4214   4.942   1.687   2.511 -0.5425  0.8485  0.1056
  325THF     C3 4215   4.857   1.490   2.584  0.1637  0.8444 -0.3061
  325THF     H4 4216   5.036   1.740   2.494  1.0789 -1.2889  1.8458
  325THF     H5 4217   4.865   1.753   2.551 -1.7040 -1.0298  1.0870
  325THF     H6 4218   4.868   1.400   2.644  0.1636  1.4089  0.5592
  325THF     H7 4219   4.765   1.541   2.614 -1.2037 -1.1165 -0.9409
  325THF     C8 4220   4.843   1.482   2.437  0.5706  0.9399 -0.0146
  325THF     C9 4221   4.886   1.622   2.383  0.4561  0.3418  0.1605
  325THF    H10 4222   4.746   1.451   2.399  0.8668 -1.5194  1.0243
  325THF    H11 4223   4.919   1.416   2.396 -0.6215  0.0879 -0.9303
  325THF    H12 4224   4.963   1.608   2.307 -0.5169  0.6205 -0.9053
  325THF    H13 4225   4.807   1.682   2.337  0.4306 -0.8936 -1.5255
  326THF     O1 4226   5.125   3.314   1.219  0.2045  0.6749  0.3776
  326THF     C2 4227   4.979   3.292   1.239 -0.3854 -0.1287  0.6702
  326THF     C3 4228   5.143   3.446   1.167 -0.0034 -0.4735 -0.3187
  326THF     H4 4229   4.965   3.266   1.344 -0.3256  2.4457  1.3904
  326THF     H5 4230   4.947   3.207   1.180  0.7335  0.4980 -0.9069
  326THF     H6 4231   5.234   3.495   1.204 -0.2583  0.1543 -0.5136
  326THF     H7 4232   5.151   3.443   1.058 -1.1234 -0.0223 -0.4186
  326THF     C8 4233   5.018   3.525   1.201 -0.0874 -0.2163  0.1557
  326THF     C9 4234   4.908   3.427   1.196 -0.8808  0.5199 -0.1343
  326THF    H10 4235   4.997   3.617   1.146  0.0437  0.6035  1.4077
  326THF    H11 4236   5.026   3.568   1.301  0.6891  2.3579 -0.9236
  326THF    H12 4237   4.830   3.456   1.267 -0.9613 -0.5743  0.2412
  326THF    H13 4238   4.868   3.417   1.095 -1.3624  2.8438 -0.2326
  327THF     O1 4239   0.603   2.138   1.258  0.2819  0.4248  0.1206
  327THF     C2 4240   0.546   2.263   1.211 -0.2853 -0.1556  0.1550
  327THF     C3 4241   0.548   2.028   1.189  0.1513 -0.3677  0.2291
  327THF     H4 4242   0.612   2.289   1.128  0.4394  1.6996  1.2643
  327THF     H5 4243   0.555   2.344   1.282 -0.0227  0.3642 -0.4622
  327THF     H6 4244   0.607   1.998   1.102 -0.3337 -1.7728  0.3619
  327THF     H7 4245   0.539   1.938   1.250 -0.8584 -1.9856 -2.1449
  327THF     C8 4246   0.408   2.075   1.153 -0.0976  0.2831 -0.8283
  327THF     C9 4247   0.400   2.226   1.182 -0.2737  0.2175  0.1434
  327THF    H10 4248   0.337   2.020   1.215 -0.2622  2.6054  1.1914
  327THF    H11 4249   0.396   2.044   1.049 -0.9948  1.7540 -1.1997
  327THF    H12 4250   0.359   2.287   1.101  0.4756  0.4650 -0.0593
  327THF    H13 4251   0.344   2.245   1.274  0.3160  1.7460  0.2118
  328THF     O1 4252   4.460   2.590   3.693  0.0333  0.2774  0.3073
  328THF     C2 4253   4.525   2.586   3.563 -0.1019 -0.6554  0.3764
  328THF     C3 4254   4.430   2.460   3.727 -0.0830 -0.0312 -0.7341
  328THF     H4 4255   4.600   2.665   3.571 -1.4075  0.9504 -2.0451
  328THF     H5 4256   4.458   2.598   3.478  0.6863 -2.3003 -0.5463
  328THF     H6 4257   4.385   2.454   3.826  2.1646 -1.3850  0.2707
  328THF     H7 4258   4.347   2.424   3.666 -0.5930 -2.8620  1.4090
  328THF     C8 4259   4.568   2.389   3.697 -0.1704 -0.2901 -0.3096
  328THF     C9 4260   4.594   2.451   3.554  0.8172 -0.2028 -0.4228
  328THF    H10 4261   4.554   2.281   3.694 -0.0115 -0.2948 -1.7401
  328THF    H11 4262   4.647   2.423   3.764 -1.5254  1.4650  0.4704
  328THF    H12 4263   4.698   2.462   3.525  1.6991  0.7189  2.7189
  328THF    H13 4264   4.552   2.382   3.481 -0.3734 -0.9264  0.8764
  329THF     O1 4265   1.662   0.732   3.721  0.3417  0.4748  0.1384
  329THF     C2 4266   1.718   0.848   3.782 -0.4410  0.5431 -0.2226
  329THF     C3 4267   1.725   0.623   3.792  0.1462  0.0441 -0.3269
  329THF     H4 4268   1.657   0.933   3.751 -0.2567  0.7451 -0.0307
  329THF     H5 4269   1.825   0.858   3.762 -0.2587  0.1873  0.5295
  329THF     H6 4270   1.676   0.526   3.782  0.1860 -0.2619  1.9677
  329THF     H7 4271   1.826   0.611   3.754  0.4612  3.2378 -0.7265
  329THF     C8 4272   1.721   0.671   3.937 -0.1913  0.4960 -0.4306
  329THF     C9 4273   1.699   0.822   3.936  0.1355 -0.5550 -0.6611
  329THF    H10 4274   1.803   0.633   3.998 -1.2619  0.7212  1.2057
  329THF    H11 4275   1.636   0.624   3.986  0.7121  0.6941  1.4111
  329THF    H12 4276   1.601   0.862   3.963  1.2724  2.4796 -0.6028
  329THF    H13 4277   1.772   0.875   3.997  1.1692 -1.4849 -1.0503
  330THF     O1 4278   0.286   0.919   3.991 -0.1438  0.4825  0.1309
  330THF     C2 4279   0.174   0.996   4.046 -0.0076  0.7934  0.1963
  330THF     C3 4280   0.254   0.865   3.858 -0.8495  0.3981  0.1006
  330THF     H4 4281   0.185   1.096   4.087 -0.2286  1.7755 -2.0452
  330THF     H5 4282   0.147   0.926   4.126 -0.0621 -1.1702 -1.4538
  330THF     H6 4283   0.282   0.926   3.772 -0.9796 -1.4654 -1.3392
  330THF     H7 4284   0.284   0.762   3.838 -1.0676  0.2809  0.3680
  330THF     C8 4285   0.105   0.871   3.857  0.7694  0.1885 -0.0067
  330THF     C9 4286   0.070   0.997   3.942  0.0835 -0.4135  0.4744
  330THF    H10 4287   0.053   0.785   3.899  0.4332 -0.1339 -1.0522
  330THF    H11 4288   0.071   0.894   3.756  1.5451  0.4733 -0.2085
  330THF    H12 4289   0.087   1.079   3.873 -0.4160  1.3102  2.3171
  330THF    H13 4290  -0.029   1.013   3.984 -0.2210  0.9070 -0.6592
  331THF     O1 4291   0.284   5.286   2.765  0.1997  0.1199  0.1544
  331THF     C2 4292   0.424   5.281   2.742  0.1008  0.7797  0.9577
  331THF     C3 4293   0.243   5.246   2.892 -0.7134 -0.5278  0.3461
  331THF     H4 4294   0.474   5.370   2.703  1.0085 -0.2563 -0.3740
  331THF     H5 4295   0.427   5.201   2.667  1.5234  0.1195  1.6747
  331THF     H6 4296   0.221   5.337   2.947  1.3250  2.2319 -2.9446
  331THF     H7 4297   0.154   5.183   2.893 -1.1721 -0.0068 -2.0401
  331THF     C8 4298   0.363   5.177   2.953  0.5294  0.5867 -0.2797
  331THF     C9 4299   0.478   5.214   2.864 -0.4027 -0.8169  0.1359
  331THF    H10 4300   0.341   5.070   2.942  0.7143  0.8053 -3.6554
  331THF    H11 4301   0.381   5.202   3.058  0.0718  0.0854 -0.0752
  331THF    H12 4302   0.544   5.288   2.909 -1.7807  0.4223  0.1857
  331THF    H13 4303   0.544   5.133   2.833  0.0454  0.0631 -1.3252
  332THF     O1 4304   3.900   1.202   0.424 -0.2169 -0.1681  0.8400
  332THF     C2 4305   3.850   1.098   0.354  0.3545  0.1455 -0.4127
  332THF     C3 4306   3.869   1.317   0.339 -0.5812  0.1685 -0.4835
  332THF     H4 4307   3.743   1.090   0.375 -0.0043  0.3178 -2.0725
  332THF     H5 4308   3.905   1.015   0.398 -1.0355 -0.4105  0.3414
  332THF     H6 4309   3.761   1.327   0.334 -1.3517 -3.6174  2.7885
  332THF     H7 4310   3.921   1.404   0.378 -0.8121  0.0379  0.1230
  332THF     C8 4311   3.919   1.276   0.201  0.7200 -1.0382 -0.5825
  332THF     C9 4312   3.890   1.126   0.210 -0.0269 -0.4251 -0.0738
  332THF    H10 4313   4.025   1.295   0.187  0.5970 -0.3182 -0.5771
  332THF    H11 4314   3.863   1.330   0.125  1.5237 -0.4073 -0.7360
  332THF    H12 4315   3.804   1.091   0.153 -1.3365  0.3840  1.3232
  332THF    H13 4316   3.978   1.064   0.194 -0.9946 -1.4372 -1.7965
  333THF     O1 4317   5.321   1.599   3.602 -0.1476 -0.4645 -0.2271
  333THF     C2 4318   5.262   1.664   3.723 -0.5419  0.4601 -0.1731
  333THF     C3 4319   5.277   1.655   3.484 -0.5455  0.0777  0.1820
  333THF     H4 4320   5.332   1.677   3.806 -2.4852  3.3299  1.2086
  333THF     H5 4321   5.181   1.605   3.766 -0.7971  0.9735  0.0601
  333THF     H6 4322   5.349   1.723   3.439 -1.6908  1.3384  0.1764
  333THF     H7 4323   5.250   1.584   3.406 -1.3083  2.4707 -1.8860
  333THF     C8 4324   5.158   1.747   3.523  0.0840 -0.5017 -0.2376
  333THF     C9 4325   5.200   1.785   3.663 -0.7057  0.2290  0.5191
  333THF    H10 4326   5.060   1.699   3.525 -0.1125 -0.1198 -0.5832
  333THF    H11 4327   5.166   1.832   3.455 -0.5138  0.5391  0.9666
  333THF    H12 4328   5.281   1.858   3.670  0.2926 -0.9238  1.5155
  333THF    H13 4329   5.115   1.824   3.720 -0.7467 -3.0764  3.0410
  334THF     O1 4330   2.891   4.018   3.956  0.2195 -0.4488 -0.7966
  334THF     C2 4331   2.995   4.071   3.877  0.1575 -0.0694  0.3055
  334THF     C3 4332   2.772   4.042   3.886  0.9118  0.6838  0.0918
  334THF     H4 4333   3.003   3.999   3.796  0.0472  0.8059 -0.4924
  334THF     H5 4334   3.094   4.071   3.923  0.6384 -2.9004 -0.5542
  334THF     H6 4335   2.774   3.965   3.809  0.3262  0.1794  0.5771
  334THF     H7 4336   2.692   4.035   3.958 -0.1072 -0.5368 -1.1150
  334THF     C8 4337   2.787   4.181   3.828  0.1871  0.1793  0.0072
  334THF     C9 4338   2.936   4.203   3.829  0.1287  0.0776 -0.5563
  334THF    H10 4339   2.757   4.261   3.896 -2.5318  1.1538 -2.1490
  334THF    H11 4340   2.755   4.196   3.725  1.4742 -1.9997 -0.7683
  334THF    H12 4341   2.974   4.228   3.730 -0.3623  1.0596 -0.5065
  334THF    H13 4342   2.966   4.280   3.901 -1.8156 -0.1191  0.5139
  335THF     O1 4343   4.096   0.470   1.262  0.1597  0.3126  0.5648
  335THF     C2 4344   4.107   0.570   1.369  0.3079  0.4484 -0.2090
  335THF     C3 4345   4.201   0.378   1.279  0.0838  0.8739  0.1005
  335THF     H4 4346   4.016   0.627   1.387  0.1838 -0.5643  3.1210
  335THF     H5 4347   4.187   0.636   1.337  0.9517 -0.9510 -1.5965
  335THF     H6 4348   4.156   0.283   1.253  0.4535  0.7861 -0.2225
  335THF     H7 4349   4.284   0.410   1.216  0.8811  0.6144  0.9888
  335THF     C8 4350   4.242   0.381   1.431 -0.5470 -0.4217  0.0502
  335THF     C9 4351   4.156   0.491   1.491 -0.1715  0.1565  0.3683
  335THF    H10 4352   4.349   0.400   1.437 -0.1933 -1.8875 -1.0568
  335THF    H11 4353   4.228   0.283   1.477 -1.0342  0.1091  1.0800
  335THF    H12 4354   4.073   0.432   1.530  0.3476 -2.3274 -1.9227
  335THF    H13 4355   4.201   0.554   1.568 -0.0193  0.8733 -0.3009
  336THF     O1 4356   2.197   4.391   2.406  0.3643 -0.4162  0.2412
  336THF     C2 4357   2.109   4.492   2.447  0.7136  0.3001  0.0883
  336THF     C3 4358   2.275   4.353   2.520 -0.9588 -0.2464 -0.3051
  336THF     H4 4359   2.021   4.431   2.465  0.5432  0.7203  0.7468
  336THF     H5 4360   2.080   4.556   2.364 -0.3453  0.1160  0.3007
  336THF     H6 4361   2.227   4.274   2.578 -0.5271 -0.5977 -0.4244
  336THF     H7 4362   2.376   4.332   2.487 -0.5275 -0.9799  1.3769
  336THF     C8 4363   2.293   4.477   2.597  0.3142 -0.5440  0.0119
  336THF     C9 4364   2.171   4.559   2.569 -0.5097 -0.3811 -0.6854
  336THF    H10 4365   2.369   4.539   2.549 -0.7091  0.7908  0.0574
  336THF    H11 4366   2.322   4.467   2.702  0.0367  1.3769  0.3063
  336THF    H12 4367   2.112   4.546   2.660  0.2995  1.1782  0.0995
  336THF    H13 4368   2.194   4.665   2.563 -2.7742  0.2307  0.2290
  337THF     O1 4369   0.542   3.600   0.656  0.7739 -1.0187  0.2638
  337THF     C2 4370   0.642   3.577   0.560 -0.6111 -0.1609 -0.0612
  337THF     C3 4371   0.485   3.477   0.696 -0.5425 -1.0796  0.3753
  337THF     H4 4372   0.700   3.661   0.522  1.2381 -1.3640 -0.0188
  337THF     H5 4373   0.587   3.546   0.471 -0.7182 -0.4228  0.0947
  337THF     H6 4374   0.425   3.466   0.787 -0.8814 -0.6166  0.2115
  337THF     H7 4375   0.420   3.437   0.618  0.8440 -0.2734 -1.2433
  337THF     C8 4376   0.607   3.382   0.691  0.4733 -0.0814  0.1404
  337THF     C9 4377   0.724   3.457   0.626  0.3309 -0.2957  0.0187
  337THF    H10 4378   0.581   3.292   0.635 -2.6001  0.7137  0.0673
  337THF    H11 4379   0.631   3.356   0.794 -1.9810  1.0083  1.0871
  337THF    H12 4380   0.782   3.489   0.712 -2.4109  2.2257  1.1108
  337THF    H13 4381   0.780   3.390   0.561 -1.3136 -1.9356  0.2050
  338THF     O1 4382   4.007   2.196   5.264 -0.1417  0.0708  0.2003
  338THF     C2 4383   3.992   2.092   5.364  0.3884  0.1524 -0.9518
  338THF     C3 4384   4.141   2.208   5.221 -0.5891 -0.0728 -0.2905
  338THF     H4 4385   3.892   2.052   5.372  1.6367 -3.6037 -2.2333
  338THF     H5 4386   4.009   2.148   5.456 -1.3431  0.0621 -0.5513
  338THF     H6 4387   4.150   2.252   5.121 -1.1586 -1.7323 -1.1218
  338THF     H7 4388   4.190   2.274   5.291 -0.8163  0.8350 -0.9726
  338THF     C8 4389   4.194   2.066   5.244  0.7452  0.0773 -0.5701
  338THF     C9 4390   4.096   1.988   5.338 -0.6732 -0.2881 -0.0143
  338THF    H10 4391   4.298   2.062   5.274  0.3652 -1.7683  0.6982
  338THF    H11 4392   4.202   2.009   5.151 -2.0904 -0.7537 -0.3984
  338THF    H12 4393   4.044   1.909   5.285 -0.2492 -0.9138  0.4905
  338THF    H13 4394   4.130   1.936   5.428  1.0670 -0.4217 -0.7233
  339THF     O1 4395   5.412   0.710   0.325  0.0767  0.6377 -0.4055
  339THF     C2 4396   5.480   0.619   0.411 -0.3910 -0.1189 -0.1228
  339THF     C3 4397   5.449   0.695   0.191 -0.3921 -0.0460 -0.3635
  339THF     H4 4398   5.419   0.542   0.459 -0.6131 -0.5175 -1.0192
  339THF     H5 4399   5.529   0.676   0.490  0.0801 -0.6420 -0.0307
  339THF     H6 4400   5.398   0.616   0.136 -1.4880  0.6710 -0.4015
  339THF     H7 4401   5.435   0.794   0.148  0.8739  0.7960  1.0382
  339THF     C8 4402   5.590   0.642   0.191  0.5252  0.3561  0.1589
  339THF     C9 4403   5.591   0.559   0.321 -0.0148  0.2308  0.0758
  339THF    H10 4404   5.648   0.731   0.216 -0.3070  0.5626  1.4877
  339THF    H11 4405   5.620   0.589   0.101 -1.2992 -0.2145 -0.1345
  339THF    H12 4406   5.562   0.457   0.298  1.9605 -0.2804 -0.3216
  339THF    H13 4407   5.695   0.547   0.352  0.6352 -1.3918 -2.4349
  340THF     O1 4408   3.036   4.799   4.728  0.1899 -0.1707 -0.0730
  340THF     C2 4409   2.982   4.711   4.829  0.2399 -0.3777  0.3672
  340THF     C3 4410   2.924   4.838   4.638 -0.1139  0.3301 -0.2164
  340THF     H4 4411   2.954   4.775   4.912 -0.9204 -0.3289 -0.0414
  340THF     H5 4412   3.063   4.644   4.857  0.8720 -0.4345 -1.4216
  340THF     H6 4413   2.896   4.941   4.660  0.5661 -0.1007  3.2522
  340THF     H7 4414   2.963   4.820   4.538 -1.7273 -0.9086 -0.6703
  340THF     C8 4415   2.795   4.748   4.665 -0.5284  0.7345 -0.7823
  340THF     C9 4416   2.862   4.642   4.754 -0.1899 -0.9890 -0.1460
  340THF    H10 4417   2.754   4.699   4.577 -0.5420  1.2244 -1.0512
  340THF    H11 4418   2.710   4.805   4.705 -0.5022  1.3005 -1.5093
  340THF    H12 4419   2.787   4.589   4.814 -1.5071  0.2781 -0.6387
  340THF    H13 4420   2.892   4.556   4.694  2.8096 -1.5832  1.9963
  341THF     O1 4421   0.131   0.981   4.732 -0.1735  0.2835  0.8686
  341THF     C2 4422   0.082   1.110   4.718  0.2962 -0.2313  0.2651
  341THF     C3 4423   0.046   0.909   4.817 -0.5630 -0.7231  0.1753
  341THF     H4 4424   0.111   1.161   4.626  1.5354 -0.3305  0.5856
  341THF     H5 4425   0.124   1.161   4.804  1.3210 -1.9690  0.8466
  341THF     H6 4426   0.072   0.804   4.799  1.1085 -0.1769 -0.8448
  341THF     H7 4427   0.066   0.920   4.923 -2.0016 -0.4554  0.4288
  341THF     C8 4428  -0.088   0.958   4.790  0.3164  0.0704 -0.2041
  341THF     C9 4429  -0.067   1.084   4.711 -0.2146 -0.2438 -0.7978
  341THF    H10 4430  -0.144   0.980   4.882 -0.7321  0.8423 -0.9969
  341THF    H11 4431  -0.144   0.886   4.730 -3.0553  3.5721 -1.7373
  341THF    H12 4432  -0.082   1.065   4.605 -2.6271 -1.6128 -0.3066
  341THF    H13 4433  -0.129   1.170   4.737 -2.1611 -1.8414  0.1071
  342THF     O1 4434   2.943   2.082   3.835  0.2809 -0.4360  0.6880
  342THF     C2 4435   3.061   2.125   3.774 -0.6752  0.1260  0.7073
  342THF     C3 4436   2.918   1.956   3.782 -0.8592  0.4520 -0.1431
  342THF     H4 4437   3.105   2.216   3.814  0.6753 -0.5553  0.8241
  342THF     H5 4438   3.029   2.159   3.675 -0.4744 -0.4792  0.4277
  342THF     H6 4439   2.840   1.912   3.845  0.7277 -0.6609  1.1205
  342THF     H7 4440   2.874   1.962   3.682 -0.5098 -1.0074 -0.4140
  342THF     C8 4441   3.063   1.886   3.777 -0.1057 -0.9097  0.0996
  342THF     C9 4442   3.153   2.006   3.778 -0.0043 -0.3631 -0.2325
  342THF    H10 4443   3.076   1.846   3.676  0.8325  1.5700 -0.8695
  342THF    H11 4444   3.089   1.824   3.862  0.6091 -1.4473 -0.4891
  342THF    H12 4445   3.208   2.000   3.872 -0.3779  1.0979  0.1011
  342THF    H13 4446   3.223   2.017   3.695  0.7988  1.5118  0.6248
  343THF     O1 4447   3.799   4.563   0.473 -0.3277 -0.3253 -0.0767
  343THF     C2 4448   3.735   4.643   0.570 -0.3862 -0.5958 -0.2348
  343THF     C3 4449   3.853   4.450   0.535  0.5379 -0.0429 -0.1231
  343THF     H4 4450   3.659   4.710   0.529 -1.6159 -1.5895  0.3502
  343THF     H5 4451   3.808   4.713   0.609 -1.4002  1.2232 -1.4754
  343THF     H6 4452   3.870   4.363   0.472  0.9635  0.8745 -1.3160
  343THF     H7 4453   3.956   4.471   0.564  0.3511  0.6784  0.0390
  343THF     C8 4454   3.753   4.410   0.649 -0.7170 -0.0583 -0.1822
  343THF     C9 4455   3.675   4.540   0.668  0.0069  0.1639  0.2790
  343THF    H10 4456   3.808   4.382   0.739  1.4479  0.7027 -1.2147
  343THF    H11 4457   3.683   4.333   0.618  2.6136 -3.5684  0.3621
  343THF    H12 4458   3.578   4.519   0.624 -0.1416  0.5079  0.4286
  343THF    H13 4459   3.673   4.568   0.774  2.6999 -0.7458  0.6492
  344THF     O1 4460   0.303   5.295   0.286  0.3140 -0.4357  0.1444
  344THF     C2 4461   0.313   5.238   0.156  0.0881 -0.3122 -0.1335
  344THF     C3 4462   0.396   5.222   0.370 -0.0473 -0.3250  0.4646
  344THF     H4 4463   0.406   5.261   0.104  1.2211 -1.2328  1.4037
  344THF     H5 4464   0.237   5.287   0.095  0.2181  0.4221  0.2789
  344THF     H6 4465   0.499   5.257   0.372 -0.3502  0.5599  1.0260
  344THF     H7 4466   0.359   5.206   0.471  2.0030  1.4104  1.5613
  344THF     C8 4467   0.414   5.089   0.298  0.0517 -0.0065 -0.4343
  344THF     C9 4468   0.320   5.085   0.179  0.5961  0.4798  0.0030
  344THF    H10 4469   0.393   4.999   0.356  0.7919  0.2989  0.3237
  344THF    H11 4470   0.516   5.097   0.258 -0.8021 -0.7231 -2.9665
  344THF    H12 4471   0.357   5.027   0.095 -2.5860 -2.3069  0.2866
  344THF    H13 4472   0.219   5.050   0.200  0.8597  0.2404  0.8891
  345THF     O1 4473   4.820   4.949   4.249  0.1189 -0.2917 -0.1558
  345THF     C2 4474   4.908   5.050   4.206  0.0247  0.0360  0.7980
  345THF     C3 4475   4.836   4.927   4.387 -0.3566 -0.3073 -0.9465
  345THF     H4 4476   4.848   5.137   4.180 -0.5899 -1.1643 -2.2617
  345THF     H5 4477   4.954   5.023   4.111  1.1277  1.7437  0.7889
  345THF     H6 4478   4.760   4.992   4.431 -0.6480  1.1850 -3.4537
  345THF     H7 4479   4.809   4.825   4.416 -0.1164 -0.9335 -2.8015
  345THF     C8 4480   4.976   4.983   4.427 -0.7434 -0.1444 -0.0734
  345THF     C9 4481   4.994   5.083   4.318 -0.1262 -0.0974 -0.1650
  345THF    H10 4482   5.046   4.901   4.418 -1.3381 -0.7765  0.8863
  345THF    H11 4483   4.981   5.026   4.527 -1.2071  0.0580 -0.1352
  345THF    H12 4484   4.970   5.180   4.362  0.8989 -0.4332  1.1757
  345THF    H13 4485   5.097   5.091   4.282  0.0483 -2.3070 -0.2506
  346THF     O1 4486   2.384   1.022   1.428  0.3592 -0.5269 -0.6350
  346THF     C2 4487   2.475   0.919   1.461  0.3320  0.1157 -0.2255
  346THF     C3 4488   2.450   1.143   1.481  0.0389  0.2695  0.2940
  346THF     H4 4489   2.453   0.823   1.414  2.1688 -0.3847 -0.1420
  346THF     H5 4490   2.463   0.892   1.565  0.6181 -0.0539 -0.2358
  346THF     H6 4491   2.417   1.238   1.437 -0.3673 -0.8701 -2.0189
  346THF     H7 4492   2.432   1.137   1.588  1.0900 -2.2207  0.4006
  346THF     C8 4493   2.590   1.122   1.447 -0.0986  0.7577  0.3826
  346THF     C9 4494   2.616   0.967   1.430 -0.0588  0.1173  0.4227
  346THF    H10 4495   2.649   1.163   1.529  0.6314 -0.4538  0.5017
  346THF    H11 4496   2.639   1.166   1.361  1.3151  0.2314  0.8717
  346THF    H12 4497   2.635   0.949   1.324  0.8787  0.9753  0.4285
  346THF    H13 4498   2.690   0.926   1.500 -0.0219 -0.2733  0.1588
  347THF     O1 4499   2.070   1.482   5.424  0.1550  0.1413 -0.2393
  347THF     C2 4500   2.134   1.579   5.341  0.4312  0.1663 -0.3845
  347THF     C3 4501   1.930   1.490   5.400  0.4197  0.0339 -0.3068
  347THF     H4 4502   2.220   1.544   5.285 -0.3376 -2.7982  0.0891
  347THF     H5 4503   2.164   1.671   5.391 -1.4770 -0.3808  2.0103
  347THF     H6 4504   1.864   1.411   5.437  1.2202  0.3484  2.0038
  347THF     H7 4505   1.881   1.581   5.436 -0.2499 -0.5395  0.2521
  347THF     C8 4506   1.919   1.511   5.255  0.8996  0.3980 -0.2260
  347THF     C9 4507   2.028   1.611   5.236 -0.0612  0.2841 -0.6031
  347THF    H10 4508   1.823   1.550   5.223  0.7745  1.7147  1.5813
  347THF    H11 4509   1.934   1.411   5.213 -1.5298  0.0201 -0.3550
  347THF    H12 4510   2.073   1.616   5.136  3.0494  1.5610  0.7231
  347THF    H13 4511   1.998   1.713   5.255  0.7369  0.5462 -0.6854
  348THF     O1 4512   4.007   5.474   1.463  0.5532  0.4014  0.1712
  348THF     C2 4513   4.000   5.328   1.450  0.2815  0.2246 -0.5600
  348THF     C3 4514   3.974   5.498   1.598 -0.2014 -0.1144 -0.1216
  348THF     H4 4515   4.058   5.299   1.363 -0.8498 -0.8580 -0.9831
  348THF     H5 4516   3.899   5.299   1.423  0.8550 -1.7023 -0.8053
  348THF     H6 4517   4.001   5.603   1.610  0.2985 -0.2969  0.3553
  348THF     H7 4518   3.867   5.477   1.600  0.4193 -3.7958  0.9360
  348THF     C8 4519   4.049   5.393   1.676 -0.3701 -0.3634  0.6473
  348THF     C9 4520   4.039   5.272   1.584  0.1015  0.2787 -0.8912
  348THF    H10 4521   4.009   5.369   1.775 -1.1814  1.5814  0.8209
  348THF    H11 4522   4.156   5.415   1.670 -0.4549 -0.2733 -3.5638
  348THF    H12 4523   4.130   5.212   1.584 -0.4071 -0.5544  0.4116
  348THF    H13 4524   3.960   5.206   1.619  0.4989 -0.3843 -1.2340
  349THF     O1 4525   3.320   5.167   5.007 -0.1745  0.7633 -0.4456
  349THF     C2 4526   3.214   5.181   5.103  0.5699 -0.5176 -0.1093
  349THF     C3 4527   3.271   5.169   4.876 -0.2266 -0.0876 -0.2267
  349THF     H4 4528   3.212   5.274   5.160  1.9180 -0.8955  0.5938
  349THF     H5 4529   3.226   5.109   5.184  0.5565  0.6075  0.9232
  349THF     H6 4530   3.255   5.269   4.837 -0.0509 -0.6619 -1.8400
  349THF     H7 4531   3.334   5.120   4.801 -0.0591 -2.4337  1.3313
  349THF     C8 4532   3.142   5.090   4.895 -0.9969 -0.0978 -0.1063
  349THF     C9 4533   3.088   5.158   5.021  0.1045  0.1139 -0.4791
  349THF    H10 4534   3.168   4.987   4.920  0.9071  0.0626 -1.2173
  349THF    H11 4535   3.073   5.100   4.811  1.7648  2.0049 -2.3418
  349THF    H12 4536   3.042   5.256   5.008  0.0555  0.4647  1.7896
  349THF    H13 4537   3.010   5.099   5.068  0.5259  0.4715  0.7298
  350THF     O1 4538   3.639   5.017   4.957  0.1836 -0.0187  0.2768
  350THF     C2 4539   3.740   4.946   4.883 -0.2604  0.1957 -0.2315
  350THF     C3 4540   3.647   5.150   4.911  0.2564  0.2706  0.7555
  350THF     H4 4541   3.732   4.840   4.907 -0.8126 -0.0006 -1.2004
  350THF     H5 4542   3.842   4.980   4.901 -0.0220  0.0722 -1.2555
  350THF     H6 4543   3.559   5.213   4.929  0.9889  2.1218 -1.5967
  350THF     H7 4544   3.731   5.203   4.957  0.4899  0.8346 -0.2971
  350THF     C8 4545   3.678   5.136   4.764 -0.0448  0.2256 -0.5498
  350THF     C9 4546   3.698   4.988   4.744  0.2776  0.2754  1.0676
  350THF    H10 4547   3.774   5.188   4.753  0.1034  0.2501  0.7341
  350THF    H11 4548   3.604   5.187   4.702 -0.8203 -0.2426 -0.0283
  350THF    H12 4549   3.608   4.942   4.703  0.1742  0.0055  1.5927
  350THF    H13 4550   3.774   4.959   4.671 -0.0325 -0.5485  1.0661
  351THF     O1 4551   1.565   3.434   1.752 -0.1018 -0.2838 -0.1663
  351THF     C2 4552   1.653   3.512   1.838 -0.1877 -0.5611  0.3352
  351THF     C3 4553   1.505   3.524   1.662  0.4364 -0.5523 -0.2793
  351THF     H4 4554   1.756   3.511   1.803  0.1243  1.0900  1.1050
  351THF     H5 4555   1.660   3.464   1.935 -0.6336 -0.3637  0.4643
  351THF     H6 4556   1.580   3.552   1.588 -0.9423  1.8665 -0.8580
  351THF     H7 4557   1.417   3.488   1.609  0.4200 -0.7101 -0.1472
  351THF     C8 4558   1.475   3.639   1.754 -0.4282  0.8858 -0.0078
  351THF     C9 4559   1.601   3.653   1.823 -0.2625 -0.5203 -0.3233
  351THF    H10 4560   1.395   3.613   1.824  1.5877 -0.7343  1.8446
  351THF    H11 4561   1.466   3.733   1.699  1.0054  0.5686 -0.8210
  351THF    H12 4562   1.665   3.718   1.763  0.4266 -2.4833 -1.8384
  351THF    H13 4563   1.588   3.710   1.915 -1.5321  2.5086 -2.1966
  352THF     O1 4564   3.545   0.665   4.484 -0.1198  0.0504 -0.2391
  352THF     C2 4565   3.517   0.532   4.442  0.4730 -0.3637 -0.6732
  352THF     C3 4566   3.689   0.678   4.507  0.6248 -0.3876 -0.1258
  352THF     H4 4567   3.533   0.526   4.334 -0.8946 -3.8381 -0.8436
  352THF     H5 4568   3.410   0.510   4.452 -0.8109  4.4932 -1.2464
  352THF     H6 4569   3.748   0.682   4.415 -0.6756  0.0104 -0.9634
  352THF     H7 4570   3.720   0.765   4.565 -1.2501  0.6966 -0.6730
  352THF     C8 4571   3.727   0.548   4.572  0.0855  0.1927 -0.5192
  352THF     C9 4572   3.610   0.449   4.523 -0.0108 -0.0945  0.3991
  352THF    H10 4573   3.732   0.557   4.680 -2.7863 -2.4242 -0.0012
  352THF    H11 4574   3.823   0.518   4.530  0.0194  0.7190 -1.0519
  352THF    H12 4575   3.669   0.375   4.469  0.3309  1.4091 -1.3935
  352THF    H13 4576   3.559   0.404   4.608  0.7128 -0.9081  0.4193
  353THF     O1 4577   4.194   4.699   2.464  0.0956 -0.2188  0.3717
  353THF     C2 4578   4.317   4.644   2.458 -0.1484  0.4342 -0.6056
  353THF     C3 4579   4.116   4.625   2.550 -0.3472  0.1793  0.0426
  353THF     H4 4580   4.390   4.714   2.419  1.5372 -0.4376  0.7995
  353THF     H5 4581   4.320   4.554   2.396  4.7717 -2.2943  2.8743
  353THF     H6 4582   4.024   4.679   2.573 -1.2526 -1.0102 -0.6885
  353THF     H7 4583   4.084   4.538   2.493 -1.7230  1.7437 -1.6892
  353THF     C8 4584   4.209   4.603   2.671  0.3097  0.0307 -0.6098
  353THF     C9 4585   4.347   4.616   2.607  0.3895 -0.0915 -0.0290
  353THF    H10 4586   4.181   4.506   2.712  2.4843 -0.2127  0.4323
  353THF    H11 4587   4.198   4.673   2.753  1.8283 -2.0643  1.5324
  353THF    H12 4588   4.401   4.695   2.658  1.0585 -1.2043  1.0339
  353THF    H13 4589   4.405   4.526   2.630  0.8327  0.3309  0.5328
  354THF     O1 4590   1.481   4.620   3.266 -0.6459 -0.4417 -0.1688
  354THF     C2 4591   1.490   4.510   3.355 -0.1214 -0.1671  0.1640
  354THF     C3 4592   1.366   4.602   3.186  0.2642  0.2701  0.0997
  354THF     H4 4593   1.457   4.544   3.453  0.6949  1.3181 -0.0509
  354THF     H5 4594   1.598   4.493   3.355  0.0738  0.6813  2.5334
  354THF     H6 4595   1.281   4.638   3.244  1.1684 -2.0717  3.1428
  354THF     H7 4596   1.377   4.659   3.093 -0.1393  0.3074  0.0761
  354THF     C8 4597   1.365   4.455   3.158  0.4729 -0.1011  0.3047
  354THF     C9 4598   1.402   4.401   3.296 -0.6405 -0.3593 -0.3250
  354THF    H10 4599   1.440   4.426   3.085 -0.3670 -1.4245 -0.0691
  354THF    H11 4600   1.271   4.417   3.120  0.8136 -1.5646  0.8416
  354THF    H12 4601   1.316   4.386   3.362 -0.2162 -0.1288  0.2814
  354THF    H13 4602   1.459   4.310   3.280  1.0580  0.6928 -0.4796
  355THF     O1 4603   0.177   2.197   5.113  0.1749  0.0910  0.4793
  355THF     C2 4604   0.192   2.078   5.192 -0.0835  0.2985  0.1763
  355THF     C3 4605   0.283   2.284   5.154 -0.5045  0.2088 -0.0061
  355THF     H4 4606   0.123   1.998   5.165 -0.3802  1.0001 -1.2228
  355THF     H5 4607   0.181   2.095   5.299  2.9461 -0.3163  0.6674
  355THF     H6 4608   0.306   2.352   5.072 -1.6593  0.4758 -0.1277
  355THF     H7 4609   0.255   2.326   5.251  3.5530 -1.5804  2.1674
  355THF     C8 4610   0.398   2.179   5.165 -0.0144 -0.8024  0.3029
  355THF     C9 4611   0.340   2.040   5.168  0.0543  0.0589 -0.6035
  355THF    H10 4612   0.469   2.191   5.247  0.8626 -1.4920 -0.3313
  355THF    H11 4613   0.461   2.186   5.076 -1.3822 -0.0536 -0.6391
  355THF    H12 4614   0.360   1.981   5.078  0.9981 -4.2085  2.1120
  355THF    H13 4615   0.390   1.978   5.241 -2.1918 -2.2012 -0.8471
  356THF     O1 4616   3.688   2.240   3.087  0.4271  0.5300 -0.2890
  356THF     C2 4617   3.767   2.143   3.023  0.5409 -0.3913 -0.4850
  356THF     C3 4618   3.777   2.289   3.189  0.7666 -0.3156  0.1411
  356THF     H4 4619   3.736   2.106   2.925 -1.7144 -1.8627  0.6913
  356THF     H5 4620   3.789   2.056   3.085  1.8762  0.1052 -0.2198
  356THF     H6 4621   3.740   2.387   3.219  1.1318 -0.5139  1.3018
  356THF     H7 4622   3.768   2.232   3.281 -1.2547  0.4954  0.4920
  356THF     C8 4623   3.919   2.293   3.131  0.0166 -0.4423  0.1152
  356THF     C9 4624   3.909   2.206   3.013  0.2557  0.4728 -0.2012
  356THF    H10 4625   3.999   2.250   3.190  0.5893 -1.5503 -1.4105
  356THF    H11 4626   3.933   2.397   3.102  1.1044 -0.8898 -1.0687
  356THF    H12 4627   3.928   2.261   2.921  4.6226  0.8931  0.7392
  356THF    H13 4628   3.991   2.134   3.017 -1.7630 -1.9786 -0.1707
  357THF     O1 4629   2.405   2.276   1.207 -0.1256  0.1518 -0.4357
  357THF     C2 4630   2.400   2.135   1.206  0.3676 -0.1286  0.7265
  357THF     C3 4631   2.514   2.317   1.282 -0.0307  0.5027 -0.5079
  357THF     H4 4632   2.353   2.080   1.125  0.5100 -0.8032  1.0833
  357THF     H5 4633   2.349   2.104   1.298 -0.3462 -2.5038 -0.3933
  357THF     H6 4634   2.578   2.384   1.224  0.5739  1.2081  0.9318
  357THF     H7 4635   2.466   2.374   1.362 -0.2968 -0.5565  0.1032
  357THF     C8 4636   2.586   2.201   1.342  0.6803  0.2664 -0.4859
  357THF     C9 4637   2.545   2.095   1.236 -0.6382 -0.0886 -0.1528
  357THF    H10 4638   2.557   2.171   1.442  1.3806 -0.9248 -0.6204
  357THF    H11 4639   2.694   2.198   1.357  0.6483 -3.0634 -0.1337
  357THF    H12 4640   2.609   2.114   1.150 -0.0548 -0.6748  0.1396
  357THF    H13 4641   2.539   1.996   1.281 -3.9098  0.8213  1.8193
  358THF     O1 4642   4.073   4.474   0.157 -0.1950 -0.2184 -0.4920
  358THF     C2 4643   4.185   4.411   0.229  0.2198  0.4302  0.2275
  358THF     C3 4644   4.078   4.443   0.019 -0.2779  0.8870  0.1240
  358THF     H4 4645   4.144   4.366   0.319 -1.5213 -0.4107 -0.9367
  358THF     H5 4646   4.256   4.489   0.256 -0.1658  1.0231 -0.4318
  358THF     H6 4647   3.978   4.442  -0.024 -0.4684 -0.9479  0.5114
  358THF     H7 4648   4.152   4.512  -0.023  0.0488  0.1984 -0.4602
  358THF     C8 4649   4.142   4.301   0.016  0.1600  0.3942 -0.8165
  358THF     C9 4650   4.239   4.305   0.131 -0.2165  0.0322  0.0648
  358THF    H10 4651   4.193   4.271  -0.075  0.7827 -1.0553 -0.0258
  358THF    H11 4652   4.066   4.226   0.042 -1.8384  3.3847  3.0654
  358THF    H12 4653   4.244   4.204   0.171  0.1720  0.2452  0.5503
  358THF    H13 4654   4.342   4.328   0.105 -0.3904 -0.1400 -0.8116
  359THF     O1 4655   2.082   1.935   2.727 -0.3604 -0.1249 -0.2334
  359THF     C2 4656   2.075   2.050   2.814  0.8682 -0.1925 -0.0212
  359THF     C3 4657   1.954   1.917   2.665  1.0477  0.0613  0.0141
  359THF     H4 4658   2.160   2.117   2.800  0.5992  0.8116  2.4743
  359THF     H5 4659   2.069   2.012   2.916  1.0095 -1.9679 -0.6392
  359THF     H6 4660   1.960   1.860   2.572 -2.5915 -0.1353 -0.2515
  359THF     H7 4661   1.893   1.859   2.735  0.6249  0.9007  0.3636
  359THF     C8 4662   1.910   2.063   2.655  0.4315 -0.2284  0.2079
  359THF     C9 4663   1.945   2.118   2.788 -0.3734 -0.3507 -0.2741
  359THF    H10 4664   1.802   2.071   2.636  0.6418  0.5857 -0.7256
  359THF    H11 4665   1.962   2.100   2.567  0.4723 -0.5494  0.0929
  359THF    H12 4666   1.947   2.226   2.798  1.2008 -0.2104 -1.6672
  359THF    H13 4667   1.871   2.084   2.861 -1.1778 -0.4931 -1.1345
  360THF     O1 4668   2.988   1.204   4.885  0.1643  0.4999  0.4742
  360THF     C2 4669   3.106   1.220   4.961 -0.5370 -0.0893  0.7517
  360THF     C3 4670   2.911   1.108   4.946 -0.6207  0.4511 -0.1578
  360THF     H4 4671   3.069   1.279   5.045  2.2191  1.6258  0.9212
  360THF     H5 4672   3.192   1.272   4.918 -0.7473  0.5702  1.1155
  360THF     H6 4673   2.860   1.148   5.033  0.0621  1.5264 -0.2340
  360THF     H7 4674   2.831   1.065   4.886 -0.2952  0.7092 -0.7849
  360THF     C8 4675   3.015   1.008   5.005 -0.0759 -1.0325 -0.1487
  360THF     C9 4676   3.146   1.080   5.003  0.7831  0.2063  0.2407
  360THF    H10 4677   3.020   0.925   4.934  0.0564 -0.9703 -0.2124
  360THF    H11 4678   2.985   0.969   5.102 -1.6543  0.2852 -0.0844
  360THF    H12 4679   3.176   1.073   5.108  0.9337 -2.2889  0.0878
  360THF    H13 4680   3.219   1.032   4.939 -1.2012 -0.9830 -1.2291
  361THF     O1 4681   1.755   2.568   5.345  0.1883  0.1986  0.6240
  361THF     C2 4682   1.871   2.512   5.291 -0.4390  0.3776  0.0318
  361THF     C3 4683   1.778   2.704   5.385  0.2801 -0.6492  0.8660
  361THF     H4 4684   1.861   2.424   5.227 -0.7381  2.5154 -3.1367
  361THF     H5 4685   1.939   2.484   5.371  1.2633  1.0242 -1.1243
  361THF     H6 4686   1.700   2.766   5.342 -1.3701 -2.8804  0.4138
  361THF     H7 4687   1.781   2.727   5.492  1.6510  0.1009  0.6777
  361THF     C8 4688   1.909   2.746   5.327 -0.1748 -0.0648  0.0578
  361THF     C9 4689   1.932   2.634   5.224  0.6667  0.0705 -0.5917
  361THF    H10 4690   1.980   2.736   5.410 -0.0770 -1.5801 -0.1756
  361THF    H11 4691   1.900   2.845   5.283 -0.7753 -0.3447 -0.4679
  361THF    H12 4692   1.882   2.659   5.131  0.4449  4.2811  0.4378
  361THF    H13 4693   2.040   2.619   5.223  1.1841  2.1692  3.0286
  362THF     O1 4694   3.756   4.923   4.304 -0.0143 -0.6635  0.6170
  362THF     C2 4695   3.804   4.809   4.240  0.3182 -0.0839  0.0578
  362THF     C3 4696   3.630   4.878   4.365  0.1625 -0.1746 -0.1323
  362THF     H4 4697   3.857   4.744   4.309  0.1663  0.4990  0.7298
  362THF     H5 4698   3.872   4.838   4.159 -0.0232  1.0258  0.1589
  362THF     H6 4699   3.634   4.805   4.446 -0.5083  0.5725  0.5995
  362THF     H7 4700   3.581   4.963   4.412  0.7528  0.6702 -0.9962
  362THF     C8 4701   3.561   4.804   4.250 -0.6745 -0.3170 -0.2378
  362THF     C9 4702   3.679   4.744   4.172 -0.1419  0.2090  0.1213
  362THF    H10 4703   3.517   4.876   4.182  1.0130  2.0258  0.9948
  362THF    H11 4704   3.481   4.735   4.277  0.2401 -1.2640  0.0991
  362THF    H12 4705   3.683   4.635   4.173  1.9201  0.2406 -0.4767
  362THF    H13 4706   3.667   4.783   4.070  3.0297  0.6468 -0.1713
  363THF     O1 4707   1.925   4.058   0.695 -0.5049 -0.4632  0.6011
  363THF     C2 4708   1.837   3.964   0.750  0.6321  0.6916 -0.4147
  363THF     C3 4709   1.865   4.112   0.577 -0.3099  0.1004  0.7432
  363THF     H4 4710   1.765   4.009   0.818  0.3565 -0.5385  0.1472
  363THF     H5 4711   1.898   3.901   0.815 -0.4370 -0.1782 -0.2208
  363THF     H6 4712   1.857   4.221   0.583 -2.3397  0.1366 -1.3455
  363THF     H7 4713   1.921   4.099   0.484  1.8702 -2.2306  2.2754
  363THF     C8 4714   1.737   4.038   0.566 -0.5939 -0.1732 -0.6802
  363THF     C9 4715   1.764   3.907   0.631 -0.1790 -0.3647 -0.1430
  363THF    H10 4716   1.703   4.017   0.464  2.2349 -0.8036 -1.5835
  363THF    H11 4717   1.656   4.087   0.620 -2.6716  0.5339 -4.0877
  363THF    H12 4718   1.674   3.855   0.666 -1.3221  2.4169  1.4304
  363THF    H13 4719   1.821   3.829   0.582  0.1858  0.3231 -0.8237
  364THF     O1 4720   2.809   0.457   0.548 -0.5343 -0.3093  0.1291
  364THF     C2 4721   2.911   0.485   0.449 -0.1485  0.2464  0.0981
  364THF     C3 4722   2.856   0.489   0.678 -0.7935 -0.2493 -0.2957
  364THF     H4 4723   2.918   0.594   0.444  2.3890  0.2941  2.4411
  364THF     H5 4724   2.888   0.450   0.349  0.1674 -1.2451  0.5285
  364THF     H6 4725   2.854   0.596   0.694 -0.2192 -0.6066  2.6413
  364THF     H7 4726   2.815   0.423   0.754  1.9165 -0.2795  1.2774
  364THF     C8 4727   3.005   0.446   0.670  0.0691 -0.3104  0.2466
  364THF     C9 4728   3.030   0.434   0.519 -0.1648  0.3233  0.5483
  364THF    H10 4729   3.033   0.349   0.711  0.3051  0.4131  1.8446
  364THF    H11 4730   3.068   0.525   0.711  0.0743 -0.3606  0.3349
  364THF    H12 4731   3.117   0.488   0.482 -2.4181  3.7282 -0.2444
  364THF    H13 4732   3.042   0.327   0.498 -0.9630  0.4017 -0.3431
  365THF     O1 4733   0.465   3.952   1.077  0.8880  0.0580 -0.1657
  365THF     C2 4734   0.339   3.980   1.132  0.0236 -0.7246  0.2893
  365THF     C3 4735   0.454   3.834   1.000  0.6049 -0.5351 -1.0584
  365THF     H4 4736   0.332   4.086   1.154  0.2192 -0.2223 -1.8520
  365THF     H5 4737   0.323   3.914   1.218 -0.1199 -1.7013 -0.4665
  365THF     H6 4738   0.526   3.833   0.919  0.9644  2.0022 -0.8520
  365THF     H7 4739   0.470   3.750   1.068  1.9269  0.2521 -0.3658
  365THF     C8 4740   0.307   3.842   0.942 -0.0836  0.4526 -0.1664
  365THF     C9 4741   0.233   3.945   1.023  0.1688 -0.6450  0.2306
  365THF    H10 4742   0.259   3.744   0.944  0.5933  0.1099 -0.3928
  365THF    H11 4743   0.292   3.872   0.838  1.7548 -1.3430 -1.0333
  365THF    H12 4744   0.211   4.028   0.955  0.8667 -0.3870  0.3148
  365THF    H13 4745   0.139   3.916   1.068  0.3210 -0.5635  0.6002
  366THF     O1 4746   2.678   5.369   2.028 -0.0180 -0.4813 -0.0386
  366THF     C2 4747   2.753   5.466   1.949 -0.6161  0.4057  0.3550
  366THF     C3 4748   2.707   5.241   1.982 -0.9800 -0.3680 -0.5166
  366THF     H4 4749   2.823   5.531   2.001  1.4424  0.3757 -2.1723
  366THF     H5 4750   2.686   5.528   1.890 -1.1553 -0.8065 -0.3542
  366THF     H6 4751   2.699   5.164   2.060 -0.9442  0.2294  0.0864
  366THF     H7 4752   2.626   5.221   1.913 -1.9176 -1.3321  0.8053
  366THF     C8 4753   2.833   5.240   1.897 -0.1063  0.2998 -0.5209
  366THF     C9 4754   2.838   5.386   1.851 -0.2929 -0.0887 -0.2852
  366THF    H10 4755   2.852   5.166   1.819  1.8619  0.0949  0.0920
  366THF    H11 4756   2.908   5.216   1.973 -1.6679 -1.3053  0.5679
  366THF    H12 4757   2.942   5.417   1.859 -0.8713  1.4782  2.7238
  366THF    H13 4758   2.805   5.391   1.748  0.0420 -2.0747 -0.5311
  367THF     O1 4759   1.905   2.285   1.045  0.4175  0.4125 -0.2161
  367THF     C2 4760   1.910   2.189   1.157  0.6852 -0.2850  0.6621
  367THF     C3 4761   2.009   2.255   0.955 -0.0536 -0.6603  0.9362
  367THF     H4 4762   1.815   2.137   1.168 -0.2609  1.3802  0.6482
  367THF     H5 4763   1.924   2.234   1.256  1.2707  0.4926  0.2413
  367THF     H6 4764   1.958   2.269   0.859 -0.8794 -0.9682  1.3151
  367THF     H7 4765   2.092   2.322   0.974 -0.6106  1.0402 -2.0342
  367THF     C8 4766   2.038   2.105   0.977  0.1915  0.5826 -0.1238
  367THF     C9 4767   2.021   2.092   1.124 -0.3092 -0.1025  0.0387
  367THF    H10 4768   2.141   2.084   0.949 -0.1814  0.7679 -1.7463
  367THF    H11 4769   1.976   2.034   0.922  0.9692 -0.4532  0.3056
  367THF    H12 4770   2.005   1.990   1.159 -1.9268 -0.1973 -0.8399
  367THF    H13 4771   2.116   2.124   1.166 -0.0318  0.6749 -1.1134
  368THF     O1 4772   0.287   1.637   1.252  0.1713  0.2152 -0.0579
  368THF     C2 4773   0.210   1.719   1.162 -0.5246  1.0837  0.4004
  368THF     C3 4774   0.406   1.588   1.190  0.1201 -0.4161 -0.2793
  368THF     H4 4775   0.210   1.826   1.182  0.7499  1.3080 -0.5667
  368THF     H5 4776   0.108   1.683   1.150 -0.4661  1.2731 -0.8722
  368THF     H6 4777   0.494   1.652   1.198  1.1155 -2.0010  3.0496
  368THF     H7 4778   0.438   1.487   1.212  1.6908  0.0891 -0.0972
  368THF     C8 4779   0.366   1.575   1.036 -0.2334 -0.8095 -0.1382
  368THF     C9 4780   0.286   1.702   1.024  0.5548  0.3387 -0.0889
  368THF    H10 4781   0.306   1.486   1.019  2.1003 -2.2576 -1.3114
  368THF    H11 4782   0.458   1.571   0.977 -0.7974 -0.0143 -1.0865
  368THF    H12 4783   0.365   1.776   1.016 -0.2758  1.1112 -1.5543
  368THF    H13 4784   0.238   1.723   0.928  0.2433 -1.9877 -0.5122
  369THF     O1 4785   3.312   4.061   5.102  0.4912 -0.6681 -0.2360
  369THF     C2 4786   3.407   4.154   5.155 -0.4315 -0.0742  0.1192
  369THF     C3 4787   3.181   4.118   5.121 -0.1848  0.2919  0.6577
  369THF     H4 4788   3.514   4.146   5.136  0.0195  2.2549  1.2638
  369THF     H5 4789   3.400   4.147   5.263  1.6210 -1.1256  0.2163
  369THF     H6 4790   3.108   4.102   5.042 -0.8295 -0.8779  1.4622
  369THF     H7 4791   3.126   4.091   5.211  0.6783 -0.0969  1.0813
  369THF     C8 4792   3.198   4.268   5.098 -0.1562  0.4577 -0.1809
  369THF     C9 4793   3.353   4.287   5.106 -0.6601 -0.1114 -0.8015
  369THF    H10 4794   3.158   4.340   5.170  0.7646  1.2185 -0.4068
  369THF    H11 4795   3.155   4.299   5.003 -0.6686 -0.5585 -0.2863
  369THF    H12 4796   3.391   4.312   5.008 -0.2717  2.0057 -0.1660
  369THF    H13 4797   3.380   4.365   5.177 -1.3595  0.3392 -1.0223
  370THF     O1 4798   4.738   3.055   2.098  0.2261  0.0935 -0.5651
  370THF     C2 4799   4.768   3.123   2.216  0.9599 -0.4282  0.6859
  370THF     C3 4800   4.863   3.012   2.040  0.0028  0.6284 -0.1470
  370THF     H4 4801   4.695   3.119   2.297  0.0434 -0.1345 -0.1111
  370THF     H5 4802   4.778   3.231   2.209 -0.1521 -0.3664 -0.2443
  370THF     H6 4803   4.843   2.929   1.973  0.6923 -0.7743  1.3213
  370THF     H7 4804   4.903   3.096   1.984 -0.8490  0.1750 -1.4750
  370THF     C8 4805   4.955   2.983   2.160 -0.1985  0.0006  1.2573
  370THF     C9 4806   4.890   3.049   2.278 -0.1362 -0.0625  0.6615
  370THF    H10 4807   5.051   3.027   2.136 -1.6632  2.1807 -1.1123
  370THF    H11 4808   4.963   2.876   2.177 -1.3417 -0.2356  0.4236
  370THF    H12 4809   4.864   2.979   2.357 -1.0260 -0.7454 -0.1924
  370THF    H13 4810   4.959   3.115   2.330 -0.5104  0.8589  0.0118
  371THF     O1 4811   2.257   4.424   1.047 -0.0423  0.0730 -0.6760
  371THF     C2 4812   2.263   4.365   0.921  0.2437 -0.1534 -0.3539
  371THF     C3 4813   2.214   4.556   1.028  0.0286  0.4131  0.5114
  371THF     H4 4814   2.258   4.256   0.923  0.5834 -0.1809 -0.8846
  371THF     H5 4815   2.349   4.402   0.866  0.4640  1.2865  0.9240
  371THF     H6 4816   2.197   4.609   1.122  1.1082  0.5735  0.6336
  371THF     H7 4817   2.286   4.617   0.972 -1.3031 -0.5703 -2.5095
  371THF     C8 4818   2.096   4.537   0.946 -1.1529 -0.5346  0.9277
  371THF     C9 4819   2.139   4.422   0.855  0.0847 -0.0988 -0.4230
  371THF    H10 4820   2.075   4.634   0.900 -1.7330 -1.7540 -1.5618
  371THF    H11 4821   2.005   4.508   0.998 -1.6033 -1.3173 -0.2448
  371THF    H12 4822   2.053   4.358   0.837 -0.6606  1.0382 -1.0392
  371THF    H13 4823   2.157   4.454   0.752  0.7233  1.9856  0.2788
  372THF     O1 4824   5.399   3.203   1.701 -0.0651  0.1859 -0.5389
  372THF     C2 4825   5.322   3.304   1.635  0.0273  0.6797  0.3794
  372THF     C3 4826   5.532   3.241   1.702 -0.3464 -0.4825  0.6556
  372THF     H4 4827   5.259   3.362   1.702 -0.3457  0.9949 -0.2300
  372THF     H5 4828   5.251   3.256   1.569  0.4957 -1.6341  1.4643
  372THF     H6 4829   5.549   3.320   1.775 -0.7161 -0.0049  0.2388
  372THF     H7 4830   5.608   3.163   1.710 -0.1907 -0.5038 -0.7700
  372THF     C8 4831   5.550   3.299   1.568 -0.9467 -0.4192  0.0792
  372THF     C9 4832   5.428   3.389   1.563 -0.1485 -0.3884  0.1472
  372THF    H10 4833   5.540   3.220   1.493 -0.0520 -1.3210  0.8960
  372THF    H11 4834   5.645   3.352   1.567 -0.0752 -1.8904  1.2925
  372THF    H12 4835   5.448   3.479   1.621 -0.6172  1.1426 -1.9329
  372THF    H13 4836   5.392   3.421   1.465  0.9483 -0.1522 -0.2029
  373THF     O1 4837   0.327   1.191   2.365  0.4420  0.1731 -0.5149
  373THF     C2 4838   0.287   1.170   2.506 -0.3254 -0.4273 -0.0137
  373THF     C3 4839   0.462   1.225   2.374 -0.2051  0.5637  0.1348
  373THF     H4 4840   0.186   1.130   2.517 -0.7561  0.8437  0.8517
  373THF     H5 4841   0.288   1.272   2.543  1.2902 -0.6635  0.6722
  373THF     H6 4842   0.507   1.218   2.275  1.3201  0.3820  0.8201
  373THF     H7 4843   0.476   1.329   2.402  1.5196 -0.1643  2.2644
  373THF     C8 4844   0.522   1.120   2.470 -0.6559  0.7152  0.8758
  373THF     C9 4845   0.407   1.079   2.550 -0.0318  0.3948 -0.2374
  373THF    H10 4846   0.594   1.175   2.532  1.9563  0.4203 -1.7022
  373THF    H11 4847   0.567   1.040   2.411 -0.1406  3.1505 -2.3236
  373THF    H12 4848   0.374   0.983   2.511  1.1506  0.8554 -2.5666
  373THF    H13 4849   0.419   1.091   2.657  0.3939 -0.4318 -0.1865
  374THF     O1 4850   0.032   3.546   1.286  0.4367  0.2772 -0.3029
  374THF     C2 4851   0.057   3.645   1.378 -1.2091 -0.7809  0.5467
  374THF     C3 4852   0.151   3.462   1.262  0.3287 -0.0024  0.2505
  374THF     H4 4853   0.061   3.604   1.479 -1.4793  2.0612  1.7965
  374THF     H5 4854  -0.007   3.733   1.374 -0.7902 -0.4716  0.5064
  374THF     H6 4855   0.150   3.382   1.336 -0.4220 -0.1926  0.0504
  374THF     H7 4856   0.166   3.429   1.159 -0.2591  2.5169 -0.7156
  374THF     C8 4857   0.269   3.551   1.291 -0.4732 -0.6597  0.5882
  374THF     C9 4858   0.199   3.677   1.338 -0.1948  0.3630  0.6100
  374THF    H10 4859   0.328   3.582   1.205 -1.4987 -0.4407 -0.0650
  374THF    H11 4860   0.337   3.525   1.372 -1.3705 -0.5868  1.3800
  374THF    H12 4861   0.259   3.742   1.400  0.8871  3.0096 -2.8599
  374THF    H13 4862   0.205   3.742   1.250  2.9431  0.0852  0.5143
  375THF     O1 4863   2.387   2.987   1.945  0.3995  0.6827 -0.1730
  375THF     C2 4864   2.306   2.995   1.830  0.1892 -0.1291  0.3391
  375THF     C3 4865   2.496   3.076   1.939  0.6324  0.1092  0.3427
  375THF     H4 4866   2.223   3.062   1.853 -0.1690  0.2484 -1.8714
  375THF     H5 4867   2.253   2.903   1.805  1.3925 -0.9916  0.8540
  375THF     H6 4868   2.464   3.179   1.954 -0.8733 -0.1521 -0.8775
  375THF     H7 4869   2.568   3.047   2.016 -0.8097 -0.5678  1.4923
  375THF     C8 4870   2.535   3.070   1.789 -0.6428 -0.0307 -0.2583
  375THF     C9 4871   2.398   3.050   1.723 -0.6772  0.7816  0.4715
  375THF    H10 4872   2.601   2.984   1.775  1.0039  0.7561  2.1216
  375THF    H11 4873   2.586   3.163   1.765 -0.9070  0.3961  0.7537
  375THF    H12 4874   2.353   3.137   1.675 -1.0478 -0.2972 -1.2358
  375THF    H13 4875   2.409   2.979   1.641 -3.1746  0.6893  0.1391
  376THF     O1 4876   4.368   5.466   0.296 -0.0676  0.5966  0.0796
  376THF     C2 4877   4.254   5.386   0.255  0.1227 -0.3224  0.0316
  376THF     C3 4878   4.391   5.559   0.199 -0.2207  0.4751 -0.7795
  376THF     H4 4879   4.154   5.420   0.280  0.6361  1.0474  0.3201
  376THF     H5 4880   4.264   5.285   0.296  1.7683  0.0627  0.6472
  376THF     H6 4881   4.316   5.636   0.217 -1.4339 -1.2297  2.2669
  376THF     H7 4882   4.491   5.603   0.192 -0.7983  2.0692  0.4066
  376THF     C8 4883   4.357   5.490   0.063 -0.4022 -0.4798  0.4630
  376THF     C9 4884   4.260   5.381   0.102  0.8228 -0.1986  0.7896
  376THF    H10 4885   4.441   5.440   0.014  0.2483  2.5599 -1.7661
  376THF    H11 4886   4.323   5.563  -0.010  0.7773 -0.2726  0.0901
  376THF    H12 4887   4.165   5.415   0.059  0.8522  0.5310  1.2788
  376THF    H13 4888   4.294   5.288   0.057  1.6485 -0.9727  2.8936
  377THF     O1 4889   0.460   4.679   4.099  0.1379 -0.0141 -0.5190
  377THF     C2 4890   0.365   4.610   4.018  0.3540 -0.3588  0.4812
  377THF     C3 4891   0.392   4.787   4.159 -0.2194  0.5138  0.6365
  377THF     H4 4892   0.396   4.520   3.965 -2.5326 -0.6205 -0.9962
  377THF     H5 4893   0.336   4.680   3.939 -1.2352  0.6849  1.9079
  377THF     H6 4894   0.438   4.843   4.240  0.9954  1.7512 -0.8522
  377THF     H7 4895   0.363   4.861   4.084  2.1015  0.5646 -0.2868
  377THF     C8 4896   0.259   4.723   4.204  0.1421  0.7531 -0.0534
  377THF     C9 4897   0.252   4.591   4.120 -0.3188  0.3635  0.6148
  377THF    H10 4898   0.165   4.776   4.189  0.3051  0.9380 -0.4266
  377THF    H11 4899   0.248   4.702   4.311  1.1512  1.3818  0.1844
  377THF    H12 4900   0.284   4.503   4.177 -0.2290 -0.1718 -0.2347
  377THF    H13 4901   0.150   4.573   4.086 -0.5537 -0.0148  1.4947
  378THF     O1 4902   3.439   0.328   4.190 -0.6564  0.0927 -0.6415
  378THF     C2 4903   3.540   0.248   4.132 -0.1374  0.4033  0.5748
  378THF     C3 4904   3.316   0.264   4.156  0.1117  0.3037  0.3476
  378THF     H4 4905   3.635   0.275   4.178  2.0438 -1.2711 -2.5756
  378THF     H5 4906   3.550   0.284   4.030  1.9202  2.2560  1.3375
  378THF     H6 4907   3.242   0.301   4.228 -0.5882  1.7821 -1.0523
  378THF     H7 4908   3.282   0.306   4.061  0.1265  1.2885  0.7662
  378THF     C8 4909   3.349   0.116   4.148 -0.3115  0.5347 -0.0461
  378THF     C9 4910   3.496   0.109   4.168 -0.0331 -0.3628 -0.4433
  378THF    H10 4911   3.321   0.066   4.055  0.9996 -1.7389  0.7001
  378THF    H11 4912   3.300   0.058   4.227 -3.2012  0.6423 -1.6074
  378THF    H12 4913   3.524   0.097   4.272  0.6166  2.8477 -0.1541
  378THF    H13 4914   3.537   0.023   4.114 -0.7000 -1.1529  0.2769
  379THF     O1 4915   4.469   5.048   4.041 -0.0286 -0.8025  0.3544
  379THF     C2 4916   4.427   5.140   3.942 -0.4646 -0.0801 -0.1171
  379THF     C3 4917   4.588   4.991   3.995  0.1630 -0.5343 -0.1317
  379THF     H4 4918   4.339   5.200   3.967 -1.2579  0.1798 -3.0652
  379THF     H5 4919   4.404   5.090   3.848 -0.6460 -1.0477  0.4322
  379THF     H6 4920   4.640   4.939   4.075 -0.1136  0.0391  0.4302
  379THF     H7 4921   4.567   4.927   3.909  0.5854 -0.1157 -0.5529
  379THF     C8 4922   4.664   5.110   3.936 -0.6668 -0.6080 -0.1441
  379THF     C9 4923   4.554   5.222   3.917 -0.0382 -0.4779  0.2385
  379THF    H10 4924   4.713   5.071   3.846  2.2085 -1.6154  1.7286
  379THF    H11 4925   4.740   5.154   4.001  0.1650 -1.5757 -0.4415
  379THF    H12 4926   4.554   5.297   3.996 -0.2478  0.3900 -0.5724
  379THF    H13 4927   4.544   5.269   3.819  3.5756  1.7607  0.7509
  380THF     O1 4928   1.206   5.352   4.400  0.0783  0.0426  0.0500
  380THF     C2 4929   1.180   5.353   4.539  0.1451  0.2177 -0.5029
  380THF     C3 4930   1.316   5.441   4.376 -0.1584  0.0537  0.3294
  380THF     H4 4931   1.185   5.257   4.589  4.5261  0.4743 -0.0811
  380THF     H5 4932   1.079   5.391   4.558  0.9001  2.3025 -0.3523
  380THF     H6 4933   1.412   5.392   4.393 -0.1937  0.4050  1.7161
  380THF     H7 4934   1.319   5.478   4.274  1.0431  0.0802  0.3631
  380THF     C8 4935   1.282   5.550   4.486  0.4769  0.2159 -0.0508
  380THF     C9 4936   1.258   5.463   4.605  0.3048  0.4878  0.0788
  380THF    H10 4937   1.198   5.615   4.459  2.3129  2.1732 -1.3818
  380THF    H11 4938   1.361   5.621   4.506  0.9047 -0.6118  1.2974
  380THF    H12 4939   1.347   5.425   4.657  0.4416 -1.5238 -1.5027
  380THF    H13 4940   1.208   5.510   4.690  0.1205 -0.0026  0.2516
  381THF     O1 4941   2.790   4.935   2.318  0.0701  0.2079 -0.5804
  381THF     C2 4942   2.811   4.885   2.187 -0.1124  0.4953  0.1639
  381THF     C3 4943   2.647   4.950   2.323 -0.0946  0.0861  0.2083
  381THF     H4 4944   2.910   4.840   2.183 -0.2222  0.2973 -0.3938
  381THF     H5 4945   2.810   4.966   2.114 -1.2718  2.1458  1.9125
  381THF     H6 4946   2.611   4.968   2.425  1.5180  1.6785  0.5466
  381THF     H7 4947   2.615   5.038   2.268 -1.1925 -0.2666  0.2619
  381THF     C8 4948   2.594   4.830   2.252 -0.3455  0.3937 -0.6041
  381THF     C9 4949   2.705   4.782   2.162 -0.1426  0.4982 -0.2558
  381THF    H10 4950   2.497   4.848   2.205 -1.9232 -0.6230  2.0193
  381THF    H11 4951   2.576   4.761   2.335  1.0589  1.0883  0.3195
  381THF    H12 4952   2.740   4.683   2.192  1.2568  1.1949  0.5371
  381THF    H13 4953   2.672   4.786   2.059 -0.5822  0.6087 -0.1144
  382THF     O1 4954   2.487   0.964   2.753  0.2494 -0.0820  0.4192
  382THF     C2 4955   2.622   0.963   2.803 -0.5013  0.1978 -0.6832
  382THF     C3 4956   2.478   0.851   2.662 -0.6867 -0.3034 -0.1483
  382THF     H4 4957   2.649   1.012   2.897  0.0176 -0.1875 -0.6302
  382THF     H5 4958   2.698   1.000   2.735 -0.1222  1.8948  0.5770
  382THF     H6 4959   2.377   0.812   2.654 -0.2006 -1.3551 -1.6142
  382THF     H7 4960   2.505   0.889   2.564 -1.3581 -1.5037 -0.8197
  382THF     C8 4961   2.586   0.754   2.703 -0.2501 -0.8415  0.4822
  382THF     C9 4962   2.653   0.818   2.822 -0.0653 -0.1642  0.3209
  382THF    H10 4963   2.650   0.751   2.615  0.9127  1.2711  1.1729
  382THF    H11 4964   2.553   0.651   2.716 -1.9907 -0.2703  0.9560
  382THF    H12 4965   2.609   0.777   2.913 -0.5752  0.9305  0.5796
  382THF    H13 4966   2.760   0.794   2.827  0.0443  0.3596  0.5605
  383THF     O1 4967   3.422   2.320   3.287 -0.3082  0.1511  0.3406
  383THF     C2 4968   3.278   2.336   3.291  0.4885  0.3311  0.2847
  383THF     C3 4969   3.472   2.379   3.406  0.0860 -0.7325  0.7223
  383THF     H4 4970   3.225   2.272   3.220  1.7230  1.7853 -2.0511
  383THF     H5 4971   3.249   2.434   3.253 -0.6457  0.5815  1.7140
  383THF     H6 4972   3.561   2.322   3.434 -0.7843 -2.8892 -0.6304
  383THF     H7 4973   3.490   2.481   3.372 -1.8365 -0.3481  0.7518
  383THF     C8 4974   3.355   2.369   3.512  0.5818 -0.3669 -0.2719
  383THF     C9 4975   3.240   2.300   3.432 -0.4965  0.3302 -0.0091
  383THF    H10 4976   3.322   2.466   3.551  0.0524 -1.5589  2.4272
  383THF    H11 4977   3.384   2.312   3.600  1.7921 -1.2059 -1.1771
  383THF    H12 4978   3.239   2.193   3.450  0.4485  0.3527  0.2493
  383THF    H13 4979   3.144   2.336   3.468  0.1563  0.4658  1.7460
  384THF     O1 4980   4.224   1.505   5.470 -0.9012  0.3974 -0.3029
  384THF     C2 4981   4.282   1.374   5.458 -0.2335  0.2891 -0.4180
  384THF     C3 4982   4.243   1.544   5.604  0.0049 -0.8059  0.1678
  384THF     H4 4983   4.288   1.337   5.355 -0.1841 -0.4845 -0.1483
  384THF     H5 4984   4.220   1.303   5.513 -0.9351  0.5921 -0.8034
  384THF     H6 4985   4.251   1.652   5.593  1.1242 -0.9989 -1.1006
  384THF     H7 4986   4.158   1.531   5.672  0.0537 -1.7629  0.0605
  384THF     C8 4987   4.377   1.478   5.646 -0.1707 -0.3138 -0.2105
  384THF     C9 4988   4.421   1.398   5.519  0.0803 -0.3072 -0.2078
  384THF    H10 4989   4.361   1.411   5.730  0.9090 -0.3158  0.0005
  384THF    H11 4990   4.453   1.555   5.659 -1.1122  0.4993  0.6660
  384THF    H12 4991   4.491   1.456   5.459 -0.3225 -1.5314 -1.9714
  384THF    H13 4992   4.475   1.304   5.534  0.4489 -0.1916 -0.7843
  385THF     O1 4993   1.642   5.278   3.386  0.0388 -0.2808 -0.4948
  385THF     C2 4994   1.514   5.343   3.406  0.0723 -0.1823  0.4923
  385THF     C3 4995   1.748   5.373   3.393  0.0872 -0.0993 -0.4420
  385THF     H4 4996   1.443   5.278   3.458  0.3379  0.3181  1.5036
  385THF     H5 4997   1.462   5.354   3.311  2.0303 -1.1780 -0.7552
  385THF     H6 4998   1.846   5.327   3.399 -0.5215 -1.2895  1.2931
  385THF     H7 4999   1.739   5.425   3.298 -0.1270 -0.1162 -0.4333
  385THF     C8 5000   1.702   5.476   3.495 -0.2770  0.2035 -0.0935
  385THF     C9 5001   1.549   5.465   3.481 -0.1896  0.1670 -0.7070
  385THF    H10 5002   1.747   5.572   3.470  0.4944  0.3162  1.6046
  385THF    H11 5003   1.732   5.448   3.596 -0.3536 -0.5765 -0.2742
  385THF    H12 5004   1.510   5.469   3.583  0.2308  1.0682 -0.5717
  385THF    H13 5005   1.518   5.550   3.420 -0.8653  1.0796  0.8602
  386THF     O1 5006   1.420   0.447   1.134  0.2722 -0.4366  0.2981
  386THF     C2 5007   1.356   0.439   1.008 -0.7671 -0.3584  0.2455
  386THF     C3 5008   1.414   0.582   1.182  0.7105 -0.0095 -0.2759
  386THF     H4 5009   1.270   0.374   1.024 -0.5903 -1.1423 -1.7354
  386THF     H5 5010   1.425   0.390   0.939 -3.1647  0.8429 -3.3028
  386THF     H6 5011   1.431   0.590   1.289  2.4249  0.6571 -0.5664
  386THF     H7 5012   1.499   0.634   1.138  0.7888 -0.6276 -0.8793
  386THF     C8 5013   1.293   0.645   1.113 -0.0550 -0.2885  0.2717
  386THF     C9 5014   1.305   0.585   0.970 -0.0967  0.3987  0.0355
  386THF    H10 5015   1.302   0.754   1.114  2.5726 -0.4399 -0.9768
  386THF    H11 5016   1.201   0.607   1.158 -2.4247  2.6667 -1.6572
  386THF    H12 5017   1.208   0.583   0.921 -0.6892  2.5250  1.0285
  386THF    H13 5018   1.382   0.639   0.916 -0.2160 -0.8011 -1.3959
  387THF     O1 5019   1.652   2.337   4.829 -0.6198 -0.2544 -0.2056
  387THF     C2 5020   1.702   2.329   4.961 -0.0929  0.9703  0.0040
  387THF     C3 5021   1.775   2.342   4.752 -0.0435  0.2444 -0.1321
  387THF     H4 5022   1.620   2.299   5.026 -0.9250  2.4814 -0.3015
  387THF     H5 5023   1.748   2.420   5.001  1.1184  0.0031  0.8792
  387THF     H6 5024   1.751   2.336   4.646 -2.0390  0.9964  0.2325
  387THF     H7 5025   1.815   2.441   4.772 -0.8163  1.5835 -4.3589
  387THF     C8 5026   1.869   2.237   4.814  0.2414  0.0738 -0.0020
  387THF     C9 5027   1.815   2.229   4.957 -0.0211  0.3361  0.5300
  387THF    H10 5028   1.974   2.266   4.805  1.2268 -2.8910  0.9254
  387THF    H11 5029   1.859   2.137   4.773  2.0824 -0.0257 -0.2891
  387THF    H12 5030   1.781   2.127   4.976  0.5960 -0.0664 -0.4317
  387THF    H13 5031   1.896   2.244   5.027 -0.2134 -2.2262  1.3793
  388THF     O1 5032   2.062   2.626   0.343 -0.2251 -0.3659  0.1356
  388THF     C2 5033   2.150   2.602   0.231  0.2266 -0.0293 -0.6459
  388THF     C3 5034   1.933   2.624   0.285 -0.1678  0.1360  0.2906
  388THF     H4 5035   2.246   2.556   0.253 -0.5711 -1.5403 -0.1980
  388THF     H5 5036   2.161   2.701   0.186 -2.2262  0.2801 -0.7007
  388THF     H6 5037   1.849   2.627   0.353 -1.3951 -0.2691 -1.1552
  388THF     H7 5038   1.927   2.719   0.232  0.5081 -0.5890 -1.1362
  388THF     C8 5039   1.928   2.496   0.198 -0.1542  0.5282 -0.4689
  388THF     C9 5040   2.074   2.484   0.156 -0.4140  0.1625  0.4542
  388THF    H10 5041   1.859   2.509   0.115  0.1628 -0.4490 -0.8999
  388THF    H11 5042   1.891   2.415   0.261 -0.8997  1.5085  0.3970
  388THF    H12 5043   2.124   2.395   0.195 -0.8181 -0.3710 -0.2287
  388THF    H13 5044   2.074   2.485   0.047  0.3172  1.2262  0.4540
  389THF     O1 5045   0.874   0.559   3.019 -0.3928 -0.1901  0.6183
  389THF     C2 5046   1.009   0.556   2.986  0.3231 -0.8678  0.6318
  389THF     C3 5047   0.838   0.431   3.069  0.5428 -1.0119 -0.3486
  389THF     H4 5048   1.072   0.566   3.074  3.5672  0.5916 -1.6453
  389THF     H5 5049   1.042   0.634   2.917  0.0395 -0.1860  1.2636
  389THF     H6 5050   0.874   0.414   3.170  0.0879 -2.3800 -0.3904
  389THF     H7 5051   0.730   0.415   3.073  0.5823 -1.2907 -0.3619
  389THF     C8 5052   0.911   0.334   2.977  0.5614  0.1558 -0.1337
  389THF     C9 5053   1.016   0.421   2.917  0.1925  0.2068 -0.0739
  389THF    H10 5054   0.845   0.287   2.904  0.3111 -0.8824  0.7494
  389THF    H11 5055   0.955   0.254   3.036 -0.9569 -0.8147 -0.2616
  389THF    H12 5056   1.119   0.387   2.930  0.1225  0.4913  1.5409
  389THF    H13 5057   0.991   0.431   2.812 -1.9075 -0.2507  0.3245
  390THF     O1 5058   0.900   4.249   3.939 -0.1808  0.2231 -0.4387
  390THF     C2 5059   1.025   4.223   3.999  0.5419 -0.4199 -0.4092
  390THF     C3 5060   0.893   4.181   3.818 -0.2014  0.4585 -0.2827
  390THF     H4 5061   1.039   4.124   4.041  1.9164 -0.7818 -1.6419
  390THF     H5 5062   1.031   4.295   4.081  0.4173  1.2587 -1.8197
  390THF     H6 5063   0.849   4.083   3.839 -0.2176  0.8357  1.5528
  390THF     H7 5064   0.824   4.237   3.754 -1.6026 -1.8475 -0.9336
  390THF     C8 5065   1.034   4.169   3.770  0.3231  0.0179  0.2045
  390THF     C9 5066   1.111   4.238   3.880 -0.5399  0.4046  0.0861
  390THF    H10 5067   1.053   4.215   3.673 -1.1426  0.0522 -0.0900
  390THF    H11 5068   1.056   4.064   3.751  2.8952  0.5036  0.0832
  390THF    H12 5069   1.202   4.179   3.891 -0.6671  0.2406  0.2647
  390THF    H13 5070   1.136   4.342   3.856  0.3746  0.3918  0.9052
  391THF     O1 5071   0.260   4.093   0.046 -0.1334 -0.2019 -0.5516
  391THF     C2 5072   0.308   4.021  -0.068 -0.2023 -0.4497 -0.7152
  391THF     C3 5073   0.328   4.216   0.064  0.4050 -0.0274  0.7861
  391THF     H4 5074   0.222   3.982  -0.123  0.1944 -0.6812 -1.1802
  391THF     H5 5075   0.374   3.939  -0.040  1.9946  1.4263 -0.1129
  391THF     H6 5076   0.264   4.278   0.126 -0.8092 -0.2993 -0.1491
  391THF     H7 5077   0.426   4.206   0.111  1.1309 -0.4591 -0.7288
  391THF     C8 5078   0.343   4.260  -0.086  0.4624  0.3155 -0.7860
  391THF     C9 5079   0.377   4.127  -0.154  0.4505  0.6480 -0.2416
  391THF    H10 5080   0.419   4.336  -0.104 -0.7132  1.7041 -0.1063
  391THF    H11 5081   0.250   4.305  -0.120 -0.2459  1.6362  2.5184
  391THF    H12 5082   0.356   4.120  -0.261 -2.1666 -0.1003  0.2568
  391THF    H13 5083   0.485   4.110  -0.149  0.1054 -2.0429 -0.7193
  392THF     O1 5084   3.487   0.647   3.118 -0.3966 -0.0573  0.7371
  392THF     C2 5085   3.441   0.677   2.989 -0.1164 -0.7104 -0.1446
  392THF     C3 5086   3.480   0.764   3.204 -0.2999  0.2931  0.1492
  392THF     H4 5087   3.332   0.673   2.976 -0.1489 -0.7904  0.1459
  392THF     H5 5088   3.474   0.620   2.902  0.2065  0.3399 -0.7269
  392THF     H6 5089   3.389   0.774   3.264  0.7439  2.6911  1.5017
  392THF     H7 5090   3.571   0.749   3.263 -0.1988 -2.3008 -0.5549
  392THF     C8 5091   3.506   0.878   3.106  0.1628  0.3951 -0.1475
  392THF     C9 5092   3.492   0.821   2.965  0.2060  0.3787 -0.0602
  392THF    H10 5093   3.611   0.907   3.113 -0.1333  1.7800 -1.2209
  392THF    H11 5094   3.439   0.959   3.134  0.1849  0.9304 -1.5749
  392THF    H12 5095   3.427   0.885   2.906  0.2135  1.0908  0.6849
  392THF    H13 5096   3.591   0.824   2.919  0.2967  0.1847  0.1151
  393THF     O1 5097   4.249   1.187   1.997 -0.0173  0.2560  0.1668
  393THF     C2 5098   4.233   1.289   2.094  0.6955  0.0961 -0.7784
  393THF     C3 5099   4.317   1.254   1.893 -0.8027  0.1557  0.3892
  393THF     H4 5100   4.201   1.261   2.194  1.2749  0.2360 -0.5483
  393THF     H5 5101   4.149   1.349   2.059  0.3211 -0.2317 -0.4496
  393THF     H6 5102   4.349   1.184   1.815 -0.7994 -0.7234  1.1555
  393THF     H7 5103   4.263   1.336   1.846 -0.4393  0.3119  0.2385
  393THF     C8 5104   4.428   1.316   1.965  0.4281  0.0655 -0.0285
  393THF     C9 5105   4.370   1.364   2.098 -0.1694 -0.0428  1.2681
  393THF    H10 5106   4.473   1.404   1.919  1.2054  0.6624  1.7437
  393THF    H11 5107   4.501   1.237   1.982 -0.3197 -0.5745  0.2518
  393THF    H12 5108   4.434   1.338   2.183  1.0600  0.4922  0.5191
  393THF    H13 5109   4.354   1.472   2.103 -0.5317 -0.0386  0.1767
  394THF     O1 5110   1.217   3.845   0.204 -0.0655  0.2480 -0.1035
  394THF     C2 5111   1.282   3.928   0.295  0.8232  0.5949 -1.3982
  394THF     C3 5112   1.287   3.841   0.084 -0.1228 -0.5337 -0.5395
  394THF     H4 5113   1.353   3.862   0.344  1.3332  1.1109 -1.4322
  394THF     H5 5114   1.219   3.961   0.378 -0.3003 -1.9961 -1.1307
  394THF     H6 5115   1.337   3.747   0.059 -0.0112 -0.8821  0.9083
  394THF     H7 5116   1.213   3.870   0.010 -0.2962 -2.5600 -1.2291
  394THF     C8 5117   1.405   3.939   0.103 -0.7208 -0.1703 -0.2429
  394THF     C9 5118   1.352   4.032   0.217  0.5123 -0.5766  0.3929
  394THF    H10 5119   1.432   3.990   0.011  1.2563  0.3906  0.6058
  394THF    H11 5120   1.494   3.885   0.137 -1.0033  0.6823  2.0860
  394THF    H12 5121   1.435   4.081   0.270  1.0333 -0.8692 -0.1446
  394THF    H13 5122   1.284   4.112   0.188  0.3097 -0.5989  0.8027
  395THF     O1 5123   1.347   2.122   1.592  0.2249  0.4264 -0.1253
  395THF     C2 5124   1.282   2.142   1.465 -0.6572 -0.1982 -0.0844
  395THF     C3 5125   1.292   2.009   1.646  0.9155  0.0561 -0.2330
  395THF     H4 5126   1.331   2.221   1.409 -3.6100 -0.3519 -3.2026
  395THF     H5 5127   1.175   2.163   1.475 -0.7888 -1.4469  1.5854
  395THF     H6 5128   1.347   1.970   1.732 -1.3902  0.8965  1.7132
  395THF     H7 5129   1.195   2.040   1.684 -0.0377 -2.7824 -0.0930
  395THF     C8 5130   1.263   1.921   1.526  0.0376  0.0221  0.3662
  395THF     C9 5131   1.294   2.005   1.404  0.2794 -0.6024  0.4613
  395THF    H10 5132   1.161   1.884   1.518  0.6971 -1.7477 -0.4260
  395THF    H11 5133   1.327   1.834   1.517  0.0627  0.1282 -0.5992
  395THF    H12 5134   1.396   2.003   1.363 -0.2778 -0.0335 -1.0367
  395THF    H13 5135   1.244   1.982   1.310  1.2601 -0.0243 -0.2245
  396THF     O1 5136   2.442   2.164   4.634 -0.0658 -0.0585  0.2819
  396THF     C2 5137   2.338   2.244   4.679 -0.1727  0.5203 -0.0749
  396THF     C3 5138   2.562   2.174   4.712 -0.0736  0.6296 -0.2029
  396THF     H4 5139   2.280   2.182   4.747  1.2311  1.2962  1.9336
  396THF     H5 5140   2.269   2.277   4.600 -0.1889  3.0362  0.8836
  396THF     H6 5141   2.585   2.084   4.769  0.5325 -1.1103 -3.0004
  396THF     H7 5142   2.640   2.206   4.642 -1.1306  1.5394 -1.0044
  396THF     C8 5143   2.525   2.279   4.816  0.0608 -0.0917  0.0944
  396THF     C9 5144   2.413   2.350   4.752  0.8559 -0.3077  0.1030
  396THF    H10 5145   2.605   2.349   4.837 -0.9533  1.0586  0.2371
  396THF    H11 5146   2.488   2.240   4.911  1.5158  0.7757  1.0488
  396THF    H12 5147   2.358   2.406   4.828  0.4521  0.3750 -0.6723
  396THF    H13 5148   2.459   2.407   4.671  3.6476 -1.0701  1.0550
  397THF     O1 5149   0.890   0.756   3.263 -0.1450  0.1086  0.0649
  397THF     C2 5150   0.794   0.776   3.365 -0.4402 -0.0088  0.0804
  397THF     C3 5151   1.021   0.759   3.326  0.3560 -0.6657  0.1127
  397THF     H4 5152   0.692   0.762   3.330 -0.7905  0.0981  1.0477
  397THF     H5 5153   0.792   0.873   3.414 -0.1530 -0.9353  2.0146
  397THF     H6 5154   1.069   0.670   3.285  1.4504  0.2221 -0.5907
  397THF     H7 5155   1.098   0.836   3.324  0.4665 -0.7324  1.3148
  397THF     C8 5156   0.983   0.726   3.473 -0.3675 -0.0441 -0.3786
  397THF     C9 5157   0.836   0.699   3.487 -0.2990  0.1610 -0.1532
  397THF    H10 5158   0.995   0.815   3.535 -2.6848  0.0663  0.0037
  397THF    H11 5159   1.045   0.648   3.518  0.5451 -0.8254 -2.7935
  397THF    H12 5160   0.805   0.595   3.480 -3.1243  0.9623 -1.1595
  397THF    H13 5161   0.785   0.726   3.579  2.1615  1.7956  0.8458
  398THF     O1 5162   1.574   4.777   1.751  0.4192 -0.5628  0.6174
  398THF     C2 5163   1.639   4.660   1.720 -0.6896  0.1403  0.0746
  398THF     C3 5164   1.573   4.785   1.894  0.3943 -0.5971 -0.3889
  398THF     H4 5165   1.746   4.675   1.733 -0.5176  1.2533 -2.1621
  398THF     H5 5166   1.626   4.647   1.613  2.8070  2.1807 -0.7549
  398THF     H6 5167   1.656   4.843   1.932  0.9837 -2.4499  1.2891
  398THF     H7 5168   1.477   4.833   1.916 -1.4988 -2.7195 -3.2602
  398THF     C8 5169   1.560   4.640   1.934 -0.1257 -0.2489 -0.3457
  398THF     C9 5170   1.580   4.557   1.812  0.0748 -0.5556  0.4806
  398THF    H10 5171   1.458   4.615   1.962  0.3686 -0.8357  0.9951
  398THF    H11 5172   1.637   4.617   2.007  2.6232  2.7886 -2.0053
  398THF    H12 5173   1.637   4.464   1.818  0.1963 -0.7512 -2.3707
  398THF    H13 5174   1.485   4.525   1.770  1.3812 -3.0678 -0.7954
  399THF     O1 5175   1.640   3.168   5.380 -0.1343 -0.2340  0.1542
  399THF     C2 5176   1.595   3.083   5.484 -0.7616  0.0944  0.3316
  399THF     C3 5177   1.569   3.131   5.268  0.5656  0.1436  0.0264
  399THF     H4 5178   1.631   3.131   5.574  0.4205 -1.6466  0.8323
  399THF     H5 5179   1.626   2.978   5.475 -0.0714  0.2901  0.3965
  399THF     H6 5180   1.573   3.200   5.184 -2.4014 -1.0535 -1.2447
  399THF     H7 5181   1.593   3.029   5.236  0.7620 -1.1667  3.7975
  399THF     C8 5182   1.429   3.125   5.319  0.2210 -0.4533 -0.6089
  399THF     C9 5183   1.444   3.078   5.464 -0.0094  0.2746 -0.3249
  399THF    H10 5184   1.364   3.057   5.264  0.4314 -2.6787  1.6905
  399THF    H11 5185   1.396   3.229   5.320  1.1455 -0.0665  2.7574
  399THF    H12 5186   1.398   3.149   5.532  0.2567  0.2814 -0.1492
  399THF    H13 5187   1.402   2.983   5.494 -0.7922  0.9974  0.9768
  400THF     O1 5188   0.682   2.247   4.706 -0.1244 -0.6072  0.4214
  400THF     C2 5189   0.796   2.305   4.645 -0.2942  0.1298 -0.4016
  400THF     C3 5190   0.567   2.326   4.665 -0.9022 -0.3517 -0.0947
  400THF     H4 5191   0.800   2.249   4.552 -0.5815  0.1136 -0.4044
  400THF     H5 5192   0.876   2.278   4.714 -2.0210 -1.2362  1.2027
  400THF     H6 5193   0.491   2.260   4.623  0.5700 -1.3763 -1.2448
  400THF     H7 5194   0.543   2.367   4.764  0.2205  1.1530 -0.3978
  400THF     C8 5195   0.627   2.444   4.582  0.0618 -0.0400 -0.6002
  400THF     C9 5196   0.769   2.458   4.616  0.1073 -0.7454 -0.5081
  400THF    H10 5197   0.578   2.538   4.604 -0.9835 -0.5750 -0.5759
  400THF    H11 5198   0.619   2.412   4.478 -2.7207 -4.5924  0.7305
  400THF    H12 5199   0.826   2.497   4.532 -0.0450 -1.2321 -0.8391
  400THF    H13 5200   0.797   2.511   4.707  1.7145 -3.9705  1.0658
  401THF     O1 5201   1.133   4.779   1.769 -0.1859  0.6913  0.0083
  401THF     C2 5202   1.090   4.719   1.649  0.2775  0.2291 -0.7789
  401THF     C3 5203   1.247   4.697   1.812  0.4321  0.1872  0.9022
  401THF     H4 5204   1.164   4.743   1.573 -1.1124 -1.4538 -2.7758
  401THF     H5 5205   0.994   4.748   1.608 -0.1683  0.7304  0.5672
  401THF     H6 5206   1.327   4.719   1.742  1.2525 -1.3967  1.3236
  401THF     H7 5207   1.269   4.730   1.913 -3.6138  1.4747  1.5557
  401THF     C8 5208   1.202   4.560   1.789  0.0528  0.4217  0.7166
  401THF     C9 5209   1.098   4.568   1.684  0.6050 -0.1429  0.3418
  401THF    H10 5210   1.163   4.511   1.878  0.6039 -0.0690  0.6960
  401THF    H11 5211   1.284   4.505   1.742  1.2650  3.2073 -0.6350
  401THF    H12 5212   1.102   4.507   1.594 -3.1561 -1.6561  1.0230
  401THF    H13 5213   1.005   4.538   1.733  0.0580  0.9950  0.0341
  402THF     O1 5214   1.467   3.223   2.735 -0.1501 -0.7930 -0.3814
  402THF     C2 5215   1.359   3.135   2.732  0.1802 -0.0304 -0.2701
  402THF     C3 5216   1.551   3.197   2.621 -0.8221  0.4235 -0.1420
  402THF     H4 5217   1.283   3.144   2.810  0.3765 -1.8172  0.1874
  402THF     H5 5218   1.399   3.038   2.763 -1.5357  0.5497  4.6174
  402THF     H6 5219   1.607   3.289   2.602  2.2395 -1.2627  0.0877
  402THF     H7 5220   1.618   3.116   2.649  0.6082  0.6906 -2.4911
  402THF     C8 5221   1.454   3.153   2.511  0.0961  0.0053 -0.5171
  402THF     C9 5222   1.319   3.123   2.588 -0.0443 -0.5667  0.2243
  402THF    H10 5223   1.497   3.064   2.467 -0.0106 -0.3241  0.0381
  402THF    H11 5224   1.448   3.235   2.440  0.1298  2.9942  2.6469
  402THF    H12 5225   1.238   3.194   2.568  0.6427  1.2998  3.3354
  402THF    H13 5226   1.286   3.026   2.551 -1.2050  0.0123 -0.3392
  403THF     O1 5227   0.165   1.401   3.659  0.2394 -0.0645 -0.1869
  403THF     C2 5228   0.167   1.462   3.791 -0.3923 -0.3888  0.1805
  403THF     C3 5229   0.238   1.483   3.577  0.6826 -0.6220  0.6689
  403THF     H4 5230   0.259   1.432   3.841 -0.0308 -0.7379 -0.6726
  403THF     H5 5231   0.089   1.422   3.857  0.6983 -0.5247  1.4166
  403THF     H6 5232   0.340   1.445   3.565  0.6960  0.0128 -1.8526
  403THF     H7 5233   0.203   1.489   3.474 -1.3734  1.1800  1.4035
  403THF     C8 5234   0.234   1.624   3.631  0.3647 -0.2211  0.4496
  403THF     C9 5235   0.169   1.614   3.761  0.1518 -0.6033 -0.0940
  403THF    H10 5236   0.194   1.697   3.561 -0.0633  1.3431  2.2415
  403THF    H11 5237   0.339   1.647   3.654  0.8745 -0.6579 -1.3248
  403THF    H12 5238   0.213   1.680   3.836 -3.2291  0.8622  0.8135
  403THF    H13 5239   0.067   1.651   3.755 -0.2106 -1.0828  2.0866
  404THF     O1 5240   0.172   2.650   4.654  0.1072  0.0610 -0.0363
  404THF     C2 5241   0.078   2.612   4.552  0.6525  0.1161  0.2990
  404THF     C3 5242   0.237   2.534   4.705  0.1347  0.0205 -1.1189
  404THF     H4 5243   0.114   2.660   4.461 -0.3845 -0.8069 -0.6284
  404THF     H5 5244  -0.026   2.642   4.562  0.5461 -0.5590  1.3690
  404THF     H6 5245   0.329   2.516   4.650 -0.9188 -1.3074 -2.5035
  404THF     H7 5246   0.254   2.551   4.812 -1.5390  0.0186 -0.8331
  404THF     C8 5247   0.140   2.426   4.673 -0.1609  0.6697  0.5627
  404THF     C9 5248   0.085   2.461   4.541 -0.7462 -0.2423  0.3710
  404THF    H10 5249   0.064   2.429   4.751  0.7781  0.6819  1.5027
  404THF    H11 5250   0.189   2.330   4.687  1.3147  1.5191  1.5652
  404THF    H12 5251   0.142   2.430   4.453 -1.4603 -0.1017 -0.1517
  404THF    H13 5252  -0.015   2.419   4.525 -0.8569  0.1540  0.0066
  405THF     O1 5253   0.335   5.238   1.723  0.1491 -0.7623 -0.3574
  405THF     C2 5254   0.245   5.340   1.696 -0.1172  0.7534  0.1754
  405THF     C3 5255   0.270   5.116   1.752 -0.3613  0.8720 -0.9920
  405THF     H4 5256   0.275   5.397   1.609  0.1073  2.5473  1.3686
  405THF     H5 5257   0.250   5.424   1.766  0.9183  0.3540  0.5944
  405THF     H6 5258   0.262   5.048   1.667 -0.0761 -1.4115  0.7091
  405THF     H7 5259   0.316   5.060   1.833 -0.3863  1.6021 -0.4577
  405THF     C8 5260   0.122   5.159   1.789  0.2176 -0.3169  0.8709
  405THF     C9 5261   0.111   5.280   1.702  0.0262 -0.6219  0.7243
  405THF    H10 5262   0.113   5.176   1.896 -0.9082  0.1231  0.7195
  405THF    H11 5263   0.045   5.088   1.758 -0.2154  1.1865 -1.8103
  405THF    H12 5264   0.075   5.243   1.606 -0.0171 -1.8594  1.2071
  405THF    H13 5265   0.035   5.347   1.744 -0.1493 -0.8428  0.7591
  406THF     O1 5266   3.266   4.371   0.375  0.4130  0.7589  0.3935
  406THF     C2 5267   3.378   4.337   0.454 -0.4022 -0.1237 -0.4919
  406THF     C3 5268   3.146   4.367   0.456 -0.1360 -0.4652  0.1352
  406THF     H4 5269   3.468   4.392   0.426 -2.1276  2.7480 -0.7961
  406THF     H5 5270   3.406   4.232   0.439  2.5740  0.3231  1.1290
  406THF     H6 5271   3.069   4.441   0.432  0.9188  0.6538  0.0586
  406THF     H7 5272   3.104   4.267   0.466  1.7184 -1.2103  0.9482
  406THF     C8 5273   3.199   4.416   0.588 -0.3081 -1.1634 -0.2867
  406THF     C9 5274   3.333   4.341   0.597  0.0160  0.3397 -0.7261
  406THF    H10 5275   3.134   4.393   0.672  0.3641 -2.4638 -0.1000
  406THF    H11 5276   3.209   4.523   0.570 -1.9683 -1.3516 -3.0312
  406THF    H12 5277   3.400   4.377   0.675  0.2184  0.7322 -1.0783
  406THF    H13 5278   3.308   4.242   0.637  0.5975 -0.4759 -2.3111
  407THF     O1 5279   4.726   3.905   1.869 -0.3702  0.5307 -0.2180
  407THF     C2 5280   4.872   3.922   1.883  0.2878  0.1589 -0.6957
  407THF     C3 5281   4.674   4.003   1.782 -0.1600  0.3075  0.0426
  407THF     H4 5282   4.930   3.837   1.847 -0.8539 -0.6228 -0.7372
  407THF     H5 5283   4.879   3.931   1.992 -3.0994  0.6640 -0.3956
  407THF     H6 5284   4.674   3.972   1.677  0.3461 -0.1039  0.1626
  407THF     H7 5285   4.571   4.021   1.813 -0.2779 -0.5645  0.1825
  407THF     C8 5286   4.762   4.121   1.807 -0.4739  0.1623 -0.3467
  407THF     C9 5287   4.901   4.062   1.828  0.0820  0.2616  0.8128
  407THF    H10 5288   4.730   4.171   1.898 -3.6134 -0.4590 -1.0115
  407THF    H11 5289   4.772   4.196   1.728 -1.7271  0.1405 -0.5448
  407THF    H12 5290   4.958   4.042   1.737 -1.5178 -1.7413  0.1873
  407THF    H13 5291   4.962   4.132   1.886 -0.7591  1.2792  0.4989
  408THF     O1 5292   3.502   0.026   3.581  0.2076  0.3078 -0.3918
  408THF     C2 5293   3.596  -0.078   3.622 -0.6494 -0.4508  0.0674
  408THF     C3 5294   3.446   0.083   3.703 -0.2441 -0.8062 -0.7036
  408THF     H4 5295   3.673  -0.104   3.550 -0.7621 -0.7418  0.0494
  408THF     H5 5296   3.533  -0.163   3.650  0.3818 -1.2313  0.0602
  408THF     H6 5297   3.400   0.180   3.684 -1.2398 -1.1424 -0.0696
  408THF     H7 5298   3.364   0.017   3.732 -0.4315 -0.4324 -0.3620
  408THF     C8 5299   3.575   0.088   3.788 -0.0283 -0.0139  0.0998
  408THF     C9 5300   3.669  -0.018   3.740  0.1201  0.0845  0.2749
  408THF    H10 5301   3.554   0.082   3.894  4.7851 -0.0298  1.2834
  408THF    H11 5302   3.623   0.185   3.773  2.7264 -0.9828  1.8130
  408THF    H12 5303   3.759   0.031   3.704  0.7120  0.7034  2.4753
  408THF    H13 5304   3.701  -0.093   3.812 -1.7810 -1.3284 -0.2700
  409THF     O1 5305   2.804   3.238   1.305  0.0942  0.3083  0.3998
  409THF     C2 5306   2.886   3.136   1.353  0.1673 -0.2732 -0.2911
  409THF     C3 5307   2.668   3.217   1.346 -0.4766 -0.1045 -0.4623
  409THF     H4 5308   2.982   3.172   1.390 -0.6064  0.0259  1.5195
  409THF     H5 5309   2.905   3.069   1.269 -0.2631 -2.3433  1.1743
  409THF     H6 5310   2.642   3.288   1.424 -1.8145 -0.2798 -0.7241
  409THF     H7 5311   2.602   3.231   1.260  0.9259 -1.0275 -1.7371
  409THF     C8 5312   2.665   3.078   1.401  0.6021  0.2560 -0.0558
  409THF     C9 5313   2.803   3.070   1.464 -0.5509  0.4769 -0.1418
  409THF    H10 5314   2.654   3.010   1.316 -1.9317 -0.5147  0.8018
  409THF    H11 5315   2.582   3.053   1.466  0.0909 -0.6273 -1.0079
  409THF    H12 5316   2.808   3.123   1.558  0.8565 -0.0153  0.0802
  409THF    H13 5317   2.837   2.966   1.471  0.6852  0.8692 -0.1378
  410THF     O1 5318   1.405   4.191   3.668  0.2964 -0.6610 -0.3519
  410THF     C2 5319   1.514   4.226   3.586 -0.3119 -0.2068 -0.0851
  410THF     C3 5320   1.421   4.051   3.689  0.3643 -0.1538  0.2614
  410THF     H4 5321   1.541   4.332   3.586 -0.1991 -0.2245  0.9278
  410THF     H5 5322   1.509   4.189   3.484 -0.2337 -0.8786  0.1518
  410THF     H6 5323   1.370   4.020   3.780 -1.9915 -0.0566 -0.9538
  410THF     H7 5324   1.379   4.008   3.599  0.7676 -1.1032  0.5156
  410THF     C8 5325   1.572   4.030   3.693 -0.4824 -0.1216  0.2311
  410THF     C9 5326   1.629   4.161   3.644 -0.9802 -0.1949  0.2657
  410THF    H10 5327   1.597   3.951   3.622  1.5710  1.6885 -1.2157
  410THF    H11 5328   1.604   3.997   3.792 -1.8280 -1.5948  0.2071
  410THF    H12 5329   1.652   4.232   3.723 -0.0804  0.4599 -0.5607
  410THF    H13 5330   1.710   4.145   3.572 -0.8837  0.9525  0.1143
  411THF     O1 5331   4.508   4.977   0.159  0.7361 -0.0377  0.0463
  411THF     C2 5332   4.529   5.071   0.265 -0.3140 -0.3067  0.0576
  411THF     C3 5333   4.593   4.867   0.170 -0.1707 -0.2426 -0.1769
  411THF     H4 5334   4.463   5.045   0.348 -0.3948 -1.5591 -0.3803
  411THF     H5 5335   4.510   5.172   0.230 -0.1621 -1.4493 -3.7019
  411THF     H6 5336   4.535   4.779   0.199 -1.1099  0.5046  0.2343
  411THF     H7 5337   4.634   4.844   0.072  1.7739 -1.8024  0.9121
  411THF     C8 5338   4.690   4.898   0.287  0.2872  1.2587  0.7202
  411THF     C9 5339   4.677   5.048   0.310  0.4768  0.1252  0.1936
  411THF    H10 5340   4.792   4.871   0.260 -0.4356 -1.7374  0.5228
  411THF    H11 5341   4.655   4.837   0.371 -1.4278  0.9053 -0.2016
  411THF    H12 5342   4.699   5.082   0.411 -2.6216  0.5760  0.8230
  411THF    H13 5343   4.741   5.105   0.243 -1.2110  1.3089 -0.4719
  412THF     O1 5344   5.404   3.135   5.135  0.4065 -0.3367  0.2061
  412THF     C2 5345   5.459   3.143   5.008 -0.3428  0.1711  0.0894
  412THF     C3 5346   5.510   3.158   5.224  0.2993  0.4813  0.5515
  412THF     H4 5347   5.476   3.247   4.979  0.5801 -0.3359 -1.2845
  412THF     H5 5348   5.396   3.096   4.932 -0.0483 -0.5911  0.3135
  412THF     H6 5349   5.536   3.264   5.223  1.2906  0.3681  3.5014
  412THF     H7 5350   5.488   3.119   5.323 -0.9921  0.2183  0.1697
  412THF     C8 5351   5.628   3.083   5.163 -0.5415  0.6451  0.3495
  412THF     C9 5352   5.587   3.070   5.015 -0.6807  0.5914 -0.4878
  412THF    H10 5353   5.634   2.985   5.210  2.0195  1.7461  2.5920
  412THF    H11 5354   5.717   3.141   5.188 -1.1193  1.3445  0.8367
  412THF    H12 5355   5.667   3.104   4.949  0.4340  1.9706  1.4768
  412THF    H13 5356   5.585   2.963   4.994 -0.3027  0.1850  1.3789
  413THF     O1 5357   5.104   0.864   3.819 -0.0137  0.0991  0.8377
  413THF     C2 5358   5.213   0.788   3.779  0.3183 -0.5664 -0.6495
  413THF     C3 5359   5.018   0.789   3.904  0.2875 -0.1279 -0.1431
  413THF     H4 5360   5.298   0.844   3.740  0.3153 -0.1399 -0.0631
  413THF     H5 5361   5.171   0.738   3.692 -0.8651  0.9971 -1.0275
  413THF     H6 5362   4.988   0.850   3.988 -1.4891 -0.5705 -0.4135
  413THF     H7 5363   4.938   0.743   3.846  0.2154 -1.7070  1.1547
  413THF     C8 5364   5.096   0.672   3.951 -0.6704  0.4411  0.2358
  413THF     C9 5365   5.230   0.706   3.903 -0.2521  0.3276  0.9566
  413THF    H10 5366   5.052   0.583   3.907 -1.1578 -0.7679  2.9666
  413THF    H11 5367   5.106   0.661   4.059  3.8312  1.2585  0.0829
  413THF    H12 5368   5.283   0.764   3.979 -2.1643  1.7705  1.2922
  413THF    H13 5369   5.275   0.610   3.882 -1.5435  0.0968 -1.0141
  414THF     O1 5370   4.157   3.705   4.222 -0.0313  0.0305 -0.1246
  414THF     C2 5371   4.287   3.759   4.234  0.6303 -0.6484  0.0464
  414THF     C3 5372   4.087   3.806   4.149  0.0181  0.2456  0.5811
  414THF     H4 5373   4.373   3.702   4.268  0.8817 -0.2825  0.0331
  414THF     H5 5374   4.281   3.842   4.305 -2.3296 -0.1156 -0.6933
  414THF     H6 5375   3.987   3.773   4.120 -0.8848  0.9134  2.7483
  414THF     H7 5376   4.067   3.891   4.215 -1.8084  0.4285 -0.1579
  414THF     C8 5377   4.175   3.839   4.033 -0.3262  0.1610  0.0498
  414THF     C9 5378   4.311   3.823   4.096 -0.6388 -0.1379 -0.1399
  414THF    H10 5379   4.162   3.942   3.999 -0.6183  0.7508  1.8167
  414THF    H11 5380   4.157   3.770   3.951 -0.1101 -1.4329  1.2837
  414THF    H12 5381   4.362   3.747   4.037 -0.6431 -1.0135  0.9379
  414THF    H13 5382   4.374   3.911   4.089 -0.3259 -0.3546 -0.0760
  415THF     O1 5383   0.888   1.958   5.005  0.4531  0.1878 -0.1899
  415THF     C2 5384   1.016   1.952   4.948  0.5018 -0.3561 -0.2064
  415THF     C3 5385   0.792   1.916   4.908  0.4223 -0.0780 -0.7828
  415THF     H4 5386   1.101   1.951   5.017 -0.5156  1.3853  1.1460
  415THF     H5 5387   1.026   2.037   4.880 -0.5078  0.9371  1.2195
  415THF     H6 5388   0.705   1.885   4.967  1.3474 -2.7806 -0.6806
  415THF     H7 5389   0.769   1.994   4.835  0.0240  0.9178  0.3744
  415THF     C8 5390   0.860   1.807   4.823  0.1854 -0.3391 -0.8909
  415THF     C9 5391   1.003   1.821   4.879  0.4809 -0.3064  0.0490
  415THF    H10 5392   0.865   1.825   4.716 -0.3984 -0.1260 -0.8825
  415THF    H11 5393   0.812   1.710   4.838 -0.8659  0.0309 -1.7478
  415THF    H12 5394   1.016   1.736   4.947 -3.9854 -1.4810 -0.2381
  415THF    H13 5395   1.079   1.812   4.801  0.8402 -2.1343  0.5420
  416THF     O1 5396   0.368   3.327   4.852 -1.0403 -0.3058  0.0658
  416THF     C2 5397   0.456   3.443   4.841 -0.6950  0.0370 -0.7435
  416THF     C3 5398   0.437   3.228   4.771 -0.3132  0.6600 -0.4688
  416THF     H4 5399   0.533   3.442   4.918 -1.7797  0.8856  0.4083
  416THF     H5 5400   0.403   3.537   4.854 -2.3961 -0.7718 -1.5319
  416THF     H6 5401   0.511   3.185   4.839  0.7220  1.3969 -1.0974
  416THF     H7 5402   0.374   3.141   4.753 -0.5040  0.7980 -0.4733
  416THF     C8 5403   0.498   3.297   4.648  0.8491  0.5007  0.2896
  416THF     C9 5404   0.506   3.441   4.698  0.2923 -0.2862  0.2210
  416THF    H10 5405   0.439   3.299   4.557 -2.2330  0.1823  2.1414
  416THF    H11 5406   0.599   3.256   4.634  1.7236  2.2697  1.0445
  416THF    H12 5407   0.609   3.476   4.694  0.0694  0.6857  1.9445
  416THF    H13 5408   0.440   3.504   4.638  0.6068 -0.5318 -0.3914
  417THF     O1 5409   1.007   3.249   0.278  0.9753  0.1556  0.2312
  417THF     C2 5410   1.063   3.122   0.228 -0.0074 -0.5615 -0.1743
  417THF     C3 5411   0.866   3.235   0.306 -0.6539  0.1959 -0.4869
  417THF     H4 5412   1.113   3.064   0.305  1.4559 -0.2009 -0.8159
  417THF     H5 5413   1.145   3.142   0.160 -1.4060  1.6862 -1.3249
  417THF     H6 5414   0.857   3.200   0.408  1.8481 -0.4807 -0.4239
  417THF     H7 5415   0.818   3.332   0.317  1.3236  1.0606  1.1794
  417THF     C8 5416   0.819   3.137   0.196 -0.8323 -0.3518 -0.7809
  417THF     C9 5417   0.937   3.051   0.163  0.1957 -0.3834 -0.3107
  417THF    H10 5418   0.801   3.202   0.110 -0.6869 -0.0148 -0.5570
  417THF    H11 5419   0.733   3.075   0.222  0.2429 -1.6829 -0.3046
  417THF    H12 5420   0.937   2.947   0.197  1.5758 -0.8654 -1.6759
  417THF    H13 5421   0.946   3.039   0.055  1.0747  1.0417 -0.4208
  418THF     O1 5422   0.735   3.696   0.181 -0.1340 -0.1271  0.0363
  418THF     C2 5423   0.676   3.819   0.217 -0.2177  0.3006  0.1362
  418THF     C3 5424   0.638   3.599   0.136 -0.7877 -0.8727  0.0555
  418THF     H4 5425   0.729   3.911   0.193  0.3879 -0.5769 -2.1535
  418THF     H5 5426   0.657   3.818   0.324 -0.9095 -2.7054  0.0942
  418THF     H6 5427   0.650   3.581   0.029 -0.1248 -0.2958  0.0206
  418THF     H7 5428   0.661   3.509   0.193  4.0267  0.5652  0.8698
  418THF     C8 5429   0.512   3.684   0.163  0.7472 -0.2925  0.6626
  418THF     C9 5430   0.549   3.823   0.137  0.2341 -0.0316  0.3862
  418THF    H10 5431   0.481   3.673   0.267  4.7023  1.1807  2.1694
  418THF    H11 5432   0.429   3.652   0.099  1.7715 -0.8769 -0.4034
  418THF    H12 5433   0.555   3.849   0.032 -0.3279 -1.1680  0.0455
  418THF    H13 5434   0.488   3.899   0.186  1.0027  1.1250 -0.4103
  419THF     O1 5435   1.868   3.243   3.260  0.2435 -0.7904 -0.1789
  419THF     C2 5436   1.964   3.346   3.290  0.6627  0.1489 -0.1276
  419THF     C3 5437   1.741   3.311   3.229 -0.0979 -0.0125 -0.6254
  419THF     H4 5438   2.045   3.361   3.219  2.0215  0.8642  1.5100
  419THF     H5 5439   2.026   3.331   3.378  1.0090  2.9288  0.1777
  419THF     H6 5440   1.728   3.348   3.127 -3.1693  3.6618  0.8789
  419THF     H7 5441   1.659   3.241   3.244 -0.0965 -0.5056 -2.6046
  419THF     C8 5442   1.745   3.428   3.326  0.6980 -0.0586 -0.0852
  419THF     C9 5443   1.887   3.477   3.304 -1.2176  0.5344  0.4352
  419THF    H10 5444   1.729   3.400   3.430 -0.9954 -0.1245 -0.3317
  419THF    H11 5445   1.660   3.494   3.310 -0.1112 -0.6580  1.4876
  419THF    H12 5446   1.901   3.543   3.218  1.4033  0.0004  0.3623
  419THF    H13 5447   1.939   3.533   3.381 -0.2833 -0.1027  0.2858
  420THF     O1 5448   0.618   5.216   4.904 -0.2540  0.1840  0.3471
  420THF     C2 5449   0.599   5.318   4.807 -0.0854  0.0063 -0.2581
  420THF     C3 5450   0.731   5.256   4.977 -0.1071  0.3150  0.3596
  420THF     H4 5451   0.499   5.295   4.771 -0.8878  1.7048  0.7478
  420THF     H5 5452   0.673   5.316   4.727 -1.7663  0.0454 -1.8723
  420THF     H6 5453   0.740   5.193   5.065  1.8132  0.5579  0.3917
  420THF     H7 5454   0.822   5.242   4.918 -0.8875  0.3758 -0.8888
  420THF     C8 5455   0.697   5.406   5.002  0.4077  0.0562 -0.0300
  420THF     C9 5456   0.596   5.441   4.892  0.6549  0.0139  0.3258
  420THF    H10 5457   0.791   5.461   5.002  0.3535  0.3388  3.5501
  420THF    H11 5458   0.660   5.428   5.102 -0.0079  0.8294 -0.3459
  420THF    H12 5459   0.494   5.448   4.930  0.7061 -2.7916  1.1924
  420THF    H13 5460   0.625   5.528   4.833 -4.2295  2.2223  0.7479
  421THF     O1 5461   4.165   5.083   1.970 -0.5084 -0.0938 -0.2066
  421THF     C2 5462   4.091   4.971   1.952 -0.1045  0.2060 -0.1837
  421THF     C3 5463   4.204   5.104   2.104 -0.1458 -0.0880  0.0725
  421THF     H4 5464   4.159   4.886   1.952 -0.5064 -0.1203  0.3836
  421THF     H5 5465   4.035   4.970   1.858 -1.7500 -1.4880  0.7594
  421THF     H6 5466   4.307   5.075   2.123  0.4447  2.8308  2.0378
  421THF     H7 5467   4.195   5.209   2.133  1.2206 -0.2560  1.2229
  421THF     C8 5468   4.100   5.025   2.184 -0.2618  0.3285 -0.9612
  421THF     C9 5469   4.002   4.981   2.079  0.0452  0.3818 -0.3737
  421THF    H10 5470   4.051   5.072   2.270 -0.3271  0.3756 -1.0239
  421THF    H11 5471   4.146   4.935   2.224 -0.0497  1.4265  1.4926
  421THF    H12 5472   3.946   4.889   2.093  0.3369 -0.0616 -1.8953
  421THF    H13 5473   3.936   5.068   2.075  0.4353  0.7469  0.7343
  422THF     O1 5474   5.492   3.787   3.491  0.2099 -0.0950  0.0189
  422THF     C2 5475   5.575   3.718   3.580  0.3302 -0.2823  0.2338
  422THF     C3 5476   5.574   3.801   3.377  0.3642 -0.2182 -0.0672
  422THF     H4 5477   5.523   3.631   3.622 -1.6461  1.6293  1.9755
  422THF     H5 5478   5.609   3.778   3.665  1.6716 -1.1560  0.3512
  422THF     H6 5479   5.511   3.807   3.289 -1.1623 -2.3878  0.7969
  422THF     H7 5480   5.640   3.887   3.386  0.9241 -0.2188 -3.1095
  422THF     C8 5481   5.649   3.668   3.362 -0.3027 -0.2324  0.2558
  422THF     C9 5482   5.692   3.654   3.503  0.3836  0.1294  0.3637
  422THF    H10 5483   5.730   3.667   3.289 -0.1537 -2.1207  0.4128
  422THF    H11 5484   5.585   3.590   3.322  1.5623 -0.9380 -1.5468
  422THF    H12 5485   5.710   3.548   3.523 -1.9764 -0.6063 -1.0710
  422THF    H13 5486   5.787   3.702   3.526 -0.3738  1.2030  1.4108
  423THF     O1 5487   1.203   3.962   2.338  0.1669 -0.6358 -0.0367
  423THF     C2 5488   1.189   4.070   2.429 -0.6665 -0.4678 -0.3642
  423THF     C3 5489   1.137   3.855   2.392  0.8707  0.3753  0.7122
  423THF     H4 5490   1.192   4.174   2.397 -0.2242 -0.2446  0.3634
  423THF     H5 5491   1.274   4.050   2.494  0.0049  1.3576 -0.6187
  423THF     H6 5492   1.121   3.778   2.317  0.3023  1.8295 -0.7176
  423THF     H7 5493   1.191   3.805   2.473 -0.3077 -2.5377 -0.1775
  423THF     C8 5494   0.998   3.920   2.426 -0.4027 -0.6626  0.1638
  423THF     C9 5495   1.050   4.044   2.495 -0.2368  0.4008 -0.3792
  423THF    H10 5496   0.945   3.856   2.497 -1.2432 -1.1652 -0.8923
  423THF    H11 5497   0.926   3.937   2.346 -0.1197  0.5896  0.1648
  423THF    H12 5498   0.969   4.117   2.487  0.5647  1.2935 -0.4915
  423THF    H13 5499   1.055   4.024   2.602  0.9347  0.2248 -0.4558
  424THF     O1 5500   5.422   4.011   4.422 -0.0039 -0.2019  0.3347
  424THF     C2 5501   5.324   4.079   4.350  0.6490 -0.2281  0.3517
  424THF     C3 5502   5.501   3.937   4.326  0.5251 -0.2651 -0.6576
  424THF     H4 5503   5.273   4.154   4.411 -0.9147  1.2777 -2.5568
  424THF     H5 5504   5.254   4.013   4.300  2.5888  0.0457 -3.0554
  424THF     H6 5505   5.597   3.900   4.361  1.3674  0.2189 -2.3432
  424THF     H7 5506   5.445   3.850   4.293 -2.5837  1.2955  0.1950
  424THF     C8 5507   5.516   4.032   4.208 -0.0408  0.8830 -0.1402
  424THF     C9 5508   5.412   4.150   4.245 -1.2499 -0.0484 -0.0178
  424THF    H10 5509   5.486   3.966   4.126  0.2769 -0.4972  0.8291
  424THF    H11 5510   5.620   4.058   4.187  0.1894 -0.8714 -1.4233
  424THF    H12 5511   5.471   4.226   4.296  0.7568 -1.6535  0.1568
  424THF    H13 5512   5.362   4.188   4.155 -0.9618 -1.7182 -0.9230
  425THF     O1 5513   5.288   4.126   3.788 -0.0981 -0.9163 -0.0603
  425THF     C2 5514   5.317   4.012   3.859  0.8959 -0.1121 -0.1481
  425THF     C3 5515   5.259   4.225   3.882 -0.3583 -0.6741  0.3953
  425THF     H4 5516   5.410   4.035   3.912  1.4105  1.1372 -1.5503
  425THF     H5 5517   5.318   3.915   3.808 -1.9130 -0.0885 -0.3874
  425THF     H6 5518   5.343   4.248   3.948 -1.7574  0.8869  1.6974
  425THF     H7 5519   5.231   4.317   3.831 -0.0903  0.0545  1.5322
  425THF     C8 5520   5.145   4.159   3.955  0.0020  0.1192 -0.8607
  425THF     C9 5521   5.193   4.011   3.957  0.2396  0.1232 -0.1362
  425THF    H10 5522   5.056   4.161   3.891 -0.5831  0.2013 -0.0600
  425THF    H11 5523   5.112   4.189   4.054 -1.9671 -0.3562 -1.3258
  425THF    H12 5524   5.203   3.978   4.060 -2.0002  2.2658  0.8974
  425THF    H13 5525   5.120   3.940   3.917 -0.2154  0.2069  0.5330
  426THF     O1 5526   3.187   3.026   3.913 -0.1720 -0.2850 -0.2647
  426THF     C2 5527   3.215   3.120   4.021  0.1620  0.7835  0.4392
  426THF     C3 5528   3.280   2.914   3.922  0.2128  0.4678  0.2761
  426THF     H4 5529   3.176   3.086   4.117  3.0938  0.7378  1.7279
  426THF     H5 5530   3.178   3.219   3.996  2.2239  1.3591 -0.5942
  426THF     H6 5531   3.239   2.833   3.981  0.5569 -0.3936 -0.6458
  426THF     H7 5532   3.317   2.884   3.824 -1.1628 -2.4814  0.5599
  426THF     C8 5533   3.403   2.967   3.987 -0.0073 -0.7497  0.1133
  426THF     C9 5534   3.373   3.108   4.012 -0.5743  0.3797 -0.0879
  426THF    H10 5535   3.498   2.959   3.935  0.2696  1.2327  0.2545
  426THF    H11 5536   3.427   2.917   4.081  3.7582  1.4654  0.4975
  426THF    H12 5537   3.415   3.148   4.104 -0.3340  1.7036 -0.7356
  426THF    H13 5538   3.403   3.168   3.926 -0.1096  0.6831  0.2813
  427THF     O1 5539   2.941   2.207   0.227  0.4752 -0.0235 -0.2669
  427THF     C2 5540   2.994   2.256   0.348 -0.8378 -0.4448  0.5928
  427THF     C3 5541   2.946   2.067   0.233  0.5558  0.7028  0.0250
  427THF     H4 5542   2.917   2.266   0.425 -0.3058  3.4627  0.8502
  427THF     H5 5543   3.042   2.353   0.334 -2.8312  0.8347  1.9113
  427THF     H6 5544   2.859   2.035   0.291  1.1710  0.8075  1.0482
  427THF     H7 5545   2.942   2.020   0.135  2.2174  0.9333 -0.1801
  427THF     C8 5546   3.066   2.026   0.308 -0.5071 -0.0047  0.1149
  427THF     C9 5547   3.096   2.153   0.388  0.2938  0.1498  0.3102
  427THF    H10 5548   3.150   2.017   0.239 -1.3277 -0.7307 -0.8224
  427THF    H11 5549   3.051   1.940   0.372 -0.0405 -0.5429 -0.4889
  427THF    H12 5550   3.089   2.132   0.494  0.5418 -4.0154 -0.3569
  427THF    H13 5551   3.196   2.189   0.364 -0.1011  0.4987 -0.8847
  428THF     O1 5552   4.373   5.130   3.488 -0.2298 -0.2129  0.7095
  428THF     C2 5553   4.446   5.012   3.529  0.5750 -0.5467 -0.5271
  428THF     C3 5554   4.269   5.164   3.575 -0.6753 -0.0950 -0.0310
  428THF     H4 5555   4.507   5.028   3.618 -2.1337  0.1040  1.3179
  428THF     H5 5556   4.510   4.978   3.448  3.6743 -1.8144  2.2281
  428THF     H6 5557   4.321   5.215   3.656  1.2813 -1.8580 -0.0818
  428THF     H7 5558   4.202   5.239   3.533  0.3209  0.6875 -0.2632
  428THF     C8 5559   4.225   5.021   3.625  0.4989  0.1714 -0.2120
  428THF     C9 5560   4.336   4.924   3.581 -0.5443  0.0518 -0.3067
  428THF    H10 5561   4.132   4.997   3.573  1.4730  0.2418 -2.1055
  428THF    H11 5562   4.201   5.018   3.731  3.6529  2.0871  0.6826
  428THF    H12 5563   4.369   4.870   3.669  0.7194 -2.1876 -2.0362
  428THF    H13 5564   4.317   4.863   3.492 -0.1872  2.3180 -2.0292
  429THF     O1 5565   2.675   3.112   0.905  0.0764  0.3975 -0.1475
  429THF     C2 5566   2.565   3.201   0.918  0.6659 -0.0704  0.5783
  429THF     C3 5567   2.791   3.174   0.968 -0.8791 -0.0813  0.0120
  429THF     H4 5568   2.531   3.210   1.021 -1.1962  0.8494 -0.0659
  429THF     H5 5569   2.480   3.163   0.861  1.1605 -0.1138 -0.1520
  429THF     H6 5570   2.808   3.142   1.070  2.0781  0.3125 -0.2684
  429THF     H7 5571   2.886   3.165   0.915  0.2193  2.4313  1.3682
  429THF     C8 5572   2.760   3.323   0.952 -0.3486 -0.4795 -0.0806
  429THF     C9 5573   2.621   3.336   0.885  0.0055 -0.3117 -0.1456
  429THF    H10 5574   2.849   3.366   0.905  1.1682 -2.0323  1.2484
  429THF    H11 5575   2.754   3.361   1.054 -2.3248 -0.7339 -0.0627
  429THF    H12 5576   2.566   3.418   0.930  0.1155 -0.4983  0.3313
  429THF    H13 5577   2.639   3.345   0.778  1.9793 -0.2521  0.1398
  430THF     O1 5578   1.937   5.094   1.626  0.0753 -0.0039 -0.1172
  430THF     C2 5579   1.813   5.039   1.676 -0.3334  0.8546 -0.2666
  430THF     C3 5580   1.939   5.085   1.483 -0.3357 -0.7626  0.1677
  430THF     H4 5581   1.731   5.111   1.662  0.2391  1.2821 -1.6185
  430THF     H5 5582   1.819   5.005   1.779 -0.2670 -0.2343 -0.6225
  430THF     H6 5583   1.934   5.183   1.436  1.5561 -1.1185 -0.8576
  430THF     H7 5584   2.036   5.047   1.451 -0.0345 -0.7628  1.0350
  430THF     C8 5585   1.834   4.984   1.446 -0.0580 -0.7048 -0.3538
  430THF     C9 5586   1.790   4.922   1.579 -0.3807 -0.5050 -0.0294
  430THF    H10 5587   1.868   4.905   1.379 -0.1929 -1.3622  0.3348
  430THF    H11 5588   1.744   5.028   1.402  0.4958 -0.4530 -1.2580
  430THF    H12 5589   1.689   4.883   1.564 -0.1810 -1.1262  0.2175
  430THF    H13 5590   1.855   4.837   1.599  0.3290 -0.4696 -1.9746
  431THF     O1 5591   5.383   5.243   1.002  0.1922  0.1076  0.7209
  431THF     C2 5592   5.299   5.148   1.056  0.7476 -0.3664  0.4728
  431THF     C3 5593   5.518   5.207   1.021  0.0310  0.1290  0.0028
  431THF     H4 5594   5.291   5.062   0.989 -0.1037 -0.0367  0.1397
  431THF     H5 5595   5.199   5.187   1.073  0.0713 -2.5256  1.8541
  431THF     H6 5596   5.558   5.134   0.951  2.1748  0.6011  0.6437
  431THF     H7 5597   5.576   5.300   1.020  0.6324 -0.2339 -1.7691
  431THF     C8 5598   5.523   5.130   1.159 -0.6084 -0.0859 -0.1375
  431THF     C9 5599   5.374   5.101   1.183 -0.4992 -0.0165 -0.1465
  431THF    H10 5600   5.570   5.185   1.240 -0.6853  0.3936 -0.4152
  431THF    H11 5601   5.571   5.034   1.141 -2.0175 -0.5274 -1.8165
  431THF    H12 5602   5.349   4.999   1.212  0.0450 -0.1041  0.0310
  431THF    H13 5603   5.340   5.172   1.260  1.7952  1.8237 -0.7128
  432THF     O1 5604   4.603   4.301   0.416  0.1964 -0.0594 -0.2290
  432THF     C2 5605   4.499   4.383   0.362  0.1723 -0.1081 -0.1638
  432THF     C3 5606   4.572   4.305   0.558 -0.0039 -0.5369  0.5862
  432THF     H4 5607   4.408   4.323   0.364 -1.9070  2.8327  0.5191
  432THF     H5 5608   4.527   4.418   0.263  1.1987  1.9946  0.8031
  432THF     H6 5609   4.483   4.246   0.580 -0.6956 -0.3108 -1.3702
  432THF     H7 5610   4.651   4.268   0.624  0.3396  0.3580  0.6908
  432THF     C8 5611   4.549   4.457   0.583 -0.3948 -0.7601  0.3279
  432THF     C9 5612   4.484   4.506   0.451  0.5521 -0.1416 -0.2817
  432THF    H10 5613   4.644   4.508   0.599 -0.1279 -1.1993  0.1421
  432THF    H11 5614   4.487   4.465   0.672 -0.0841  0.3703  0.4648
  432THF    H12 5615   4.377   4.519   0.463  0.3044 -0.0712 -2.2352
  432THF    H13 5616   4.540   4.592   0.415  1.7238 -0.8570 -0.2327
  433THF     O1 5617   4.422   5.488   3.372 -1.0455  0.0697 -0.1066
  433THF     C2 5618   4.489   5.574   3.280  0.0239  0.3780  0.1187
  433THF     C3 5619   4.347   5.564   3.463 -0.5381  0.3208  1.1049
  433THF     H4 5620   4.522   5.520   3.192  0.0851 -0.0073  0.3735
  433THF     H5 5621   4.564   5.645   3.316  0.6183  1.3218 -2.7182
  433THF     H6 5622   4.273   5.497   3.508  0.1576 -0.3771  1.2236
  433THF     H7 5623   4.401   5.600   3.550  1.3151 -0.1683  0.2071
  433THF     C8 5624   4.291   5.675   3.375  0.1343  0.9502 -0.3364
  433THF     C9 5625   4.373   5.660   3.247  0.5239 -0.2594 -0.5350
  433THF    H10 5626   4.307   5.774   3.417  0.6369 -0.0458  1.9389
  433THF    H11 5627   4.185   5.658   3.354  0.6621 -1.0871 -1.7089
  433THF    H12 5628   4.311   5.628   3.163 -0.0730  3.2973 -1.6144
  433THF    H13 5629   4.404   5.759   3.215 -1.3968  0.5392 -0.0523
  434THF     O1 5630   4.901   1.512   5.249  0.0131  0.1505 -0.1266
  434THF     C2 5631   5.001   1.431   5.292 -0.2936 -0.3362  0.1890
  434THF     C3 5632   4.951   1.613   5.169  0.5907 -0.1989 -0.0447
  434THF     H4 5633   5.032   1.358   5.218  0.9242 -0.9047  1.2227
  434THF     H5 5634   4.959   1.391   5.384 -0.3101  0.8949  0.7428
  434THF     H6 5635   4.941   1.599   5.061 -0.6836 -0.3296  0.0637
  434THF     H7 5636   4.873   1.688   5.182  0.3648 -0.5328  0.5469
  434THF     C8 5637   5.081   1.661   5.237 -1.0016  0.1428  0.0773
  434THF     C9 5638   5.121   1.533   5.320 -0.4043 -0.5658  0.2054
  434THF    H10 5639   5.069   1.751   5.298 -2.8775  0.3537 -0.5377
  434THF    H11 5640   5.159   1.686   5.166 -1.2512 -2.4793 -1.2165
  434THF    H12 5641   5.220   1.496   5.294 -0.3571  0.2850 -0.9533
  434THF    H13 5642   5.136   1.558   5.425  2.4663  3.0994 -0.8499
  435THF     O1 5643   4.031   4.786   0.272  0.2847 -0.1860 -0.0642
  435THF     C2 5644   4.145   4.812   0.194  0.2801  0.6981 -0.0215
  435THF     C3 5645   3.993   4.914   0.316 -0.1139  0.7831  0.2293
  435THF     H4 5646   4.171   4.723   0.137  1.2297 -0.7979  2.6021
  435THF     H5 5647   4.239   4.835   0.245 -0.3804  0.3155  1.4226
  435THF     H6 5648   3.895   4.923   0.362  0.3417 -0.1994  1.4275
  435THF     H7 5649   4.071   4.959   0.377 -0.8620  0.8635  1.1422
  435THF     C8 5650   3.989   4.976   0.180  0.7996 -0.2034  0.3541
  435THF     C9 5651   4.096   4.919   0.097 -1.4632 -0.1942  0.5822
  435THF    H10 5652   4.000   5.084   0.184 -0.2725 -0.1031  0.8269
  435THF    H11 5653   3.899   4.970   0.120  1.1230  1.4459 -0.3425
  435THF    H12 5654   4.059   4.880   0.002  1.8817  1.0666 -1.4137
  435THF    H13 5655   4.181   4.983   0.074 -1.6751 -0.2583 -0.4142
  436THF     O1 5656   0.577   4.536   0.101 -0.9230 -0.0758  0.7474
  436THF     C2 5657   0.608   4.647   0.182 -0.5129  0.1694  0.2835
  436THF     C3 5658   0.586   4.587  -0.032  0.1708  0.2146  0.1308
  436THF     H4 5659   0.715   4.664   0.181 -0.2790 -1.2130 -0.0561
  436THF     H5 5660   0.579   4.627   0.285  2.3633 -2.0490  0.7754
  436THF     H6 5661   0.692   4.608  -0.049  0.1555 -0.8773 -1.4570
  436THF     H7 5662   0.544   4.519  -0.106  1.5752  1.7556 -2.2131
  436THF     C8 5663   0.506   4.712  -0.011 -1.0437 -0.0814  0.0858
  436THF     C9 5664   0.518   4.754   0.132 -0.5732 -0.5752  0.5644
  436THF    H10 5665   0.401   4.697  -0.034 -0.6652 -0.9352 -1.2098
  436THF    H11 5666   0.553   4.796  -0.063 -0.3163  0.4097  1.4858
  436THF    H12 5667   0.555   4.851   0.164 -2.0745 -0.3751  1.8414
  436THF    H13 5668   0.425   4.748   0.190 -1.3383 -1.4012 -0.7003
  437THF     O1 5669   0.446   3.094   0.853  0.3562  0.3953  0.2024
  437THF     C2 5670   0.306   3.107   0.843  0.2240 -0.0850  1.0343
  437THF     C3 5671   0.486   2.985   0.768 -0.8726 -0.8865 -0.2362
  437THF     H4 5672   0.270   3.191   0.903 -0.2291 -0.0301  0.6880
  437THF     H5 5673   0.262   3.025   0.900 -0.5223  0.9130  1.9325
  437THF     H6 5674   0.591   2.987   0.741 -0.7331  0.0986  0.3177
  437THF     H7 5675   0.458   2.892   0.817  0.2145 -0.5959  0.9777
  437THF     C8 5676   0.402   3.020   0.640  0.2443  0.4808  0.3269
  437THF     C9 5677   0.286   3.116   0.689 -0.0368  0.2760 -0.1647
  437THF    H10 5678   0.362   2.925   0.604  3.0252  0.1955 -2.3278
  437THF    H11 5679   0.445   3.063   0.550 -2.2136 -1.4959 -1.9909
  437THF    H12 5680   0.313   3.216   0.655  2.3235 -0.4036 -0.4618
  437THF    H13 5681   0.188   3.084   0.653  0.1418  1.6013 -1.9469
  438THF     O1 5682   1.530   4.444   1.087 -0.0983  0.0906  0.0156
  438THF     C2 5683   1.604   4.373   1.182 -0.3008  1.0362  0.5310
  438THF     C3 5684   1.495   4.578   1.143  0.1179  0.2335  0.8997
  438THF     H4 5685   1.708   4.406   1.185  0.4385 -0.9503 -1.0072
  438THF     H5 5686   1.620   4.268   1.160  1.7006  1.5684 -0.8799
  438THF     H6 5687   1.574   4.645   1.109 -0.6787  0.5747 -0.3718
  438THF     H7 5688   1.402   4.616   1.100  0.7627  0.8395 -0.0033
  438THF     C8 5689   1.469   4.549   1.293 -0.0582  0.4458  0.6142
  438THF     C9 5690   1.515   4.409   1.304 -0.4361  0.4411 -0.4956
  438THF    H10 5691   1.361   4.551   1.307 -0.1945 -1.6629  0.1405
  438THF    H11 5692   1.524   4.616   1.359 -0.5732  1.4929  0.0132
  438THF    H12 5693   1.555   4.393   1.404 -2.0352 -0.0945  0.0890
  438THF    H13 5694   1.431   4.340   1.297 -0.3030  0.0999  0.9124
  439THF     O1 5695   0.240   2.495   2.313 -0.0474 -0.4585  0.2113
  439THF     C2 5696   0.114   2.443   2.337 -0.1265 -0.4568 -0.0551
  439THF     C3 5697   0.236   2.540   2.178 -0.2866 -0.6676  0.4278
  439THF     H4 5698   0.038   2.520   2.350 -0.4810 -0.8803  0.4209
  439THF     H5 5699   0.117   2.380   2.426 -1.6598  0.8524  0.9876
  439THF     H6 5700   0.194   2.640   2.160 -1.2262 -1.2061 -0.4709
  439THF     H7 5701   0.341   2.536   2.149  0.2012  0.8725  1.8106
  439THF     C8 5702   0.142   2.450   2.105  0.6810  0.4020  0.3448
  439THF     C9 5703   0.076   2.359   2.216  0.2141 -0.1172 -0.1983
  439THF    H10 5704   0.185   2.376   2.037 -0.9363 -1.0074  0.7684
  439THF    H11 5705   0.071   2.510   2.049  0.3380  0.5366  0.9185
  439THF    H12 5706  -0.033   2.355   2.206  0.1424  0.5052  0.2228
  439THF    H13 5707   0.121   2.260   2.220  0.3118 -0.0516  0.5357
  440THF     O1 5708   5.428   1.619   4.452 -0.2592 -0.5091 -0.5940
  440THF     C2 5709   5.389   1.600   4.586  0.8966 -0.0500 -0.2149
  440THF     C3 5710   5.475   1.500   4.389 -0.1763  0.2234 -0.1524
  440THF     H4 5711   5.289   1.558   4.585  0.2050  1.3026  2.1204
  440THF     H5 5712   5.382   1.697   4.636  0.9667 -0.4835  0.6581
  440THF     H6 5713   5.387   1.442   4.362  1.1452 -2.1218  0.2989
  440THF     H7 5714   5.540   1.518   4.303  3.3254 -3.5902  1.3679
  440THF     C8 5715   5.544   1.435   4.515  0.4235  0.0683  0.2977
  440THF     C9 5716   5.494   1.510   4.635  0.0064  0.7276  0.7706
  440THF    H10 5717   5.652   1.451   4.515  0.9812 -3.0380  1.1201
  440THF    H11 5718   5.529   1.327   4.522  0.0443 -0.2264 -3.0693
  440THF    H12 5719   5.452   1.445   4.712  1.2513 -0.6031  0.3761
  440THF    H13 5720   5.578   1.559   4.685  0.3132  0.1131  0.8697
  441THF     O1 5721   4.219   2.846   0.472  0.4809  0.0766 -0.4974
  441THF     C2 5722   4.210   2.789   0.338 -0.0322  0.0503 -0.1711
  441THF     C3 5723   4.341   2.796   0.533  0.4524  0.3613 -0.0125
  441THF     H4 5724   4.162   2.861   0.272 -0.5149  0.7185  0.8913
  441THF     H5 5725   4.154   2.696   0.341 -0.2393  0.1981  0.9598
  441THF     H6 5726   4.417   2.873   0.546  3.1811 -1.7050 -2.4698
  441THF     H7 5727   4.334   2.755   0.634  1.2014  1.3814  0.4775
  441THF     C8 5728   4.404   2.703   0.429  0.1070  0.1961  0.0806
  441THF     C9 5729   4.350   2.766   0.299  0.0412 -0.4577 -0.4308
  441THF    H10 5730   4.354   2.606   0.424 -2.3844  1.4901 -2.3611
  441THF    H11 5731   4.512   2.688   0.427  0.2228  0.6076  1.5043
  441THF    H12 5732   4.402   2.859   0.277  0.1786 -0.2620  0.6689
  441THF    H13 5733   4.358   2.700   0.213 -0.3163 -0.2307 -0.6443
  442THF     O1 5734   2.054   1.942   5.424 -0.6305 -0.4007 -0.6779
  442THF     C2 5735   2.173   2.019   5.415 -0.0102  0.0721 -0.1021
  442THF     C3 5736   1.958   2.025   5.488 -0.3810  0.2826 -0.7184
  442THF     H4 5737   2.239   2.006   5.330 -0.1834  0.2701 -0.2689
  442THF     H5 5738   2.237   1.994   5.500  2.5055 -1.5463 -2.2949
  442THF     H6 5739   1.857   1.991   5.465 -2.0831  3.1953  1.6853
  442THF     H7 5740   1.979   2.017   5.594 -3.0164  0.7096 -0.0783
  442THF     C8 5741   1.982   2.169   5.435  0.3431  0.4177 -0.1134
  442THF     C9 5742   2.136   2.164   5.412  0.5848  0.1882 -0.1365
  442THF    H10 5743   1.963   2.242   5.514 -1.5841  1.3694 -1.3775
  442THF    H11 5744   1.924   2.192   5.346 -0.0348  1.1009  0.2970
  442THF    H12 5745   2.154   2.211   5.316 -0.5445 -0.2354 -0.5634
  442THF    H13 5746   2.193   2.229   5.479  1.6992  0.9585 -1.7638
  443THF     O1 5747   2.752   4.010   5.403  0.0450 -0.4184 -0.1608
  443THF     C2 5748   2.757   4.133   5.333  0.0270  0.6422  0.0876
  443THF     C3 5749   2.669   3.919   5.333  0.2103 -0.1443 -0.0203
  443THF     H4 5750   2.857   4.176   5.337  0.6519 -0.7744  0.2613
  443THF     H5 5751   2.689   4.203   5.382  0.0586 -0.6517  2.0851
  443THF     H6 5752   2.719   3.828   5.299  0.0931  0.5491 -2.2471
  443THF     H7 5753   2.588   3.873   5.388 -0.5120 -0.0581 -0.9856
  443THF     C8 5754   2.613   3.991   5.208  0.0963  0.0376  0.8862
  443THF     C9 5755   2.711   4.107   5.189 -0.2971  0.0115 -0.2641
  443THF    H10 5756   2.515   4.032   5.234 -0.0731 -0.9075  1.8286
  443THF    H11 5757   2.602   3.930   5.119 -0.0464  1.2098  0.0835
  443THF    H12 5758   2.800   4.066   5.142 -0.1561 -0.2460  0.2245
  443THF    H13 5759   2.667   4.187   5.129 -1.4625 -1.6204 -1.7048
  444THF     O1 5760   4.842   1.745   4.204 -0.5077 -0.2057  0.0284
  444THF     C2 5761   4.917   1.624   4.190  0.4578 -0.6528 -0.5805
  444THF     C3 5762   4.816   1.794   4.074 -0.2385  0.4064 -0.9420
  444THF     H4 5763   4.849   1.539   4.198  1.2683 -1.2169  0.6433
  444THF     H5 5764   4.991   1.623   4.269 -0.7636  2.1842  0.7055
  444THF     H6 5765   4.740   1.735   4.023 -2.1784  1.2807  0.8005
  444THF     H7 5766   4.784   1.898   4.076  0.6938  0.7334 -2.2097
  444THF     C8 5767   4.946   1.767   4.006  0.3109  0.2698 -0.9415
  444THF     C9 5768   4.980   1.625   4.052 -0.0332 -0.5171 -0.0385
  444THF    H10 5769   5.018   1.842   4.036  0.5956 -0.6818  0.8568
  444THF    H11 5770   4.941   1.760   3.897 -4.3319 -0.4816 -0.8808
  444THF    H12 5771   4.939   1.536   4.003 -0.0048 -0.7908  0.4264
  444THF    H13 5772   5.087   1.608   4.066  0.1037  1.0615  1.0740
  445THF     O1 5773   2.456   1.621   0.875  0.4432  0.2257  0.0184
  445THF     C2 5774   2.354   1.698   0.824 -0.4963  0.3364 -0.0539
  445THF     C3 5775   2.444   1.621   1.018  0.3091  0.1448  0.5930
  445THF     H4 5776   2.263   1.642   0.845  1.0062 -3.0307 -1.6837
  445THF     H5 5777   2.377   1.710   0.718 -0.0143 -0.3814 -0.0408
  445THF     H6 5778   2.374   1.547   1.056  0.6593  0.5672  2.1622
  445THF     H7 5779   2.537   1.596   1.069  2.1757 -0.9370 -3.0099
  445THF     C8 5780   2.416   1.764   1.049 -0.1986  0.3192 -0.4618
  445THF     C9 5781   2.365   1.819   0.916  0.1133  0.0367  0.2374
  445THF    H10 5782   2.513   1.813   1.060  0.2673 -0.6707 -0.0069
  445THF    H11 5783   2.347   1.776   1.132 -0.3248  0.7692 -0.6259
  445THF    H12 5784   2.266   1.864   0.923  0.3656  0.4256  1.4690
  445THF    H13 5785   2.421   1.902   0.875 -2.3045  1.0751 -1.1773
  446THF     O1 5786   3.610   1.839   3.863  0.3426  0.5464  0.5419
  446THF     C2 5787   3.511   1.928   3.842  1.1912 -1.1686  0.1277
  446THF     C3 5788   3.709   1.859   3.756 -0.4146  0.4124  0.1156
  446THF     H4 5789   3.457   1.956   3.932 -1.1039 -0.1426 -1.4649
  446THF     H5 5790   3.447   1.875   3.771  2.0532 -1.9714 -0.0787
  446THF     H6 5791   3.813   1.835   3.779 -0.1301 -1.0424 -2.2651
  446THF     H7 5792   3.679   1.799   3.670  0.7784  0.9097 -0.6785
  446THF     C8 5793   3.696   2.005   3.718  0.6950  0.3121 -0.1131
  446THF     C9 5794   3.572   2.048   3.783  0.0681 -0.6545  0.4616
  446THF    H10 5795   3.690   1.996   3.609 -1.6371  0.0883 -0.0080
  446THF    H11 5796   3.782   2.070   3.735  1.8254 -1.6297  2.0661
  446THF    H12 5797   3.586   2.121   3.863 -1.1403 -2.2604  2.2124
  446THF    H13 5798   3.507   2.100   3.713 -2.0495 -0.8939  2.1689
  447THF     O1 5799   1.849   1.453   4.855 -0.4987  0.2015 -0.3456
  447THF     C2 5800   1.744   1.552   4.858  0.6896 -0.2605 -0.5600
  447THF     C3 5801   1.979   1.511   4.840 -0.2280  0.3316 -0.7945
  447THF     H4 5802   1.705   1.537   4.959 -0.0211 -0.4391 -0.8512
  447THF     H5 5803   1.663   1.527   4.788 -0.7918 -1.8191  1.5661
  447THF     H6 5804   2.026   1.516   4.938 -1.0628 -1.6113 -0.2314
  447THF     H7 5805   2.048   1.458   4.775 -0.7840  0.8217 -1.8116
  447THF     C8 5806   1.942   1.641   4.775 -0.2715 -0.4296 -0.3130
  447THF     C9 5807   1.809   1.680   4.834  0.2642  0.2305 -0.1706
  447THF    H10 5808   1.928   1.622   4.669 -0.0551  0.3607 -0.4852
  447THF    H11 5809   2.017   1.719   4.785  0.5052 -1.3502  1.5996
  447THF    H12 5810   1.825   1.724   4.932 -0.7281 -2.3998  1.2948
  447THF    H13 5811   1.746   1.746   4.775  0.7079  2.2118  1.4919
  448THF     O1 5812   4.384   0.056   1.260 -0.0872 -0.1916 -0.1830
  448THF     C2 5813   4.420  -0.044   1.163  0.3911 -0.5394 -0.6746
  448THF     C3 5814   4.310  -0.009   1.356  0.4362 -0.7366  0.0169
  448THF     H4 5815   4.508  -0.021   1.104  2.1486  1.2696  2.3912
  448THF     H5 5816   4.332  -0.055   1.099 -1.7393  1.5529  1.6900
  448THF     H6 5817   4.308   0.056   1.443  1.4104  0.0177 -0.5021
  448THF     H7 5818   4.210  -0.021   1.314  0.5211  0.3012 -0.5251
  448THF     C8 5819   4.378  -0.135   1.382  0.0424  0.0759 -0.5258
  448THF     C9 5820   4.451  -0.155   1.259  0.1084 -0.7507  0.1317
  448THF    H10 5821   4.314  -0.218   1.412 -0.1540  0.9158  1.5088
  448THF    H11 5822   4.443  -0.118   1.468  0.1994 -2.0149 -0.1803
  448THF    H12 5823   4.558  -0.171   1.268  0.3674  0.7506 -0.0048
  448THF    H13 5824   4.440  -0.251   1.208 -0.6254  0.0347 -1.2619
  449THF     O1 5825   1.699   0.970   5.196 -0.1942 -0.3619  0.6570
  449THF     C2 5826   1.799   0.880   5.146 -0.2061 -0.0694 -0.1793
  449THF     C3 5827   1.766   1.090   5.235 -0.1262  0.2146 -0.6855
  449THF     H4 5828   1.766   0.808   5.072  2.3013 -1.3067 -0.1912
  449THF     H5 5829   1.819   0.814   5.230  2.4168 -0.8609 -1.3305
  449THF     H6 5830   1.730   1.175   5.176 -0.7064 -0.3820 -1.1995
  449THF     H7 5831   1.735   1.111   5.337 -2.2539 -2.6579 -0.6202
  449THF     C8 5832   1.918   1.073   5.222 -0.1755  0.1891 -0.2711
  449THF     C9 5833   1.914   0.976   5.102  0.1403  0.2219 -0.8218
  449THF    H10 5834   1.963   1.031   5.311 -1.2114  2.6274  1.5174
  449THF    H11 5835   1.981   1.159   5.197 -0.8486  0.5040 -0.9322
  449THF    H12 5836   1.886   1.023   5.008 -0.1223 -0.4497 -1.0831
  449THF    H13 5837   2.011   0.929   5.084 -0.6551 -1.4637 -0.9262
  450THF     O1 5838   1.809   4.288   1.626  0.0433 -0.1119  0.5554
  450THF     C2 5839   1.722   4.208   1.558  0.4006 -0.2701  0.1137
  450THF     C3 5840   1.875   4.218   1.722 -0.5963  0.5090 -0.5913
  450THF     H4 5841   1.750   4.228   1.454  0.0460 -1.1395 -0.1642
  450THF     H5 5842   1.619   4.243   1.563  0.5690  0.0462  1.9550
  450THF     H6 5843   1.968   4.274   1.730 -1.1629  1.2463  1.8435
  450THF     H7 5844   1.820   4.232   1.815 -1.2677  1.1141 -1.0770
  450THF     C8 5845   1.881   4.078   1.664  0.0313  0.5564 -0.3218
  450THF     C9 5846   1.747   4.069   1.599  0.5425  0.0682  0.6188
  450THF    H10 5847   1.912   4.009   1.742  0.3040  0.5732 -0.4141
  450THF    H11 5848   1.961   4.073   1.591 -0.0334  1.0721 -0.4324
  450THF    H12 5849   1.765   4.001   1.516 -3.7136 -2.2461  1.3010
  450THF    H13 5850   1.670   4.022   1.660 -0.1330  0.7209  0.2826
  451THF     O1 5851   1.751   3.518   3.793  0.3250  0.1252  1.1117
  451THF     C2 5852   1.813   3.585   3.904 -0.0461  0.3725 -0.3968
  451THF     C3 5853   1.818   3.563   3.674  0.5551  0.0781 -0.7744
  451THF     H4 5854   1.900   3.523   3.925  0.8939  1.4500 -0.9027
  451THF     H5 5855   1.736   3.588   3.981 -0.2047 -1.5173 -0.4434
  451THF     H6 5856   1.906   3.505   3.646  0.5973  0.0280 -0.5369
  451THF     H7 5857   1.747   3.561   3.591  0.3121 -0.5494 -0.5552
  451THF     C8 5858   1.851   3.709   3.689 -0.1760  0.5254 -0.1354
  451THF     C9 5859   1.857   3.721   3.845  0.1048 -0.0174  0.0648
  451THF    H10 5860   1.772   3.777   3.658  0.5648  1.3931 -0.1582
  451THF    H11 5861   1.940   3.748   3.640  0.7846  0.3504  1.3838
  451THF    H12 5862   1.952   3.752   3.889 -0.9984  0.2905  2.3693
  451THF    H13 5863   1.798   3.806   3.878  0.4907  0.9649 -1.6311
  452THF     O1 5864   2.649   4.166   4.817 -0.1356  0.7956  0.1124
  452THF     C2 5865   2.740   4.058   4.824 -0.2344  0.6539 -0.9303
  452THF     C3 5866   2.718   4.289   4.795  0.6863  0.2962  0.1174
  452THF     H4 5867   2.699   3.978   4.763 -0.4613  0.1103 -0.0845
  452THF     H5 5868   2.753   4.019   4.925 -0.8014  1.8572 -0.3707
  452THF     H6 5869   2.714   4.306   4.687  1.1934  1.8606  0.3150
  452THF     H7 5870   2.681   4.373   4.853  0.5559 -0.3399  0.9570
  452THF     C8 5871   2.866   4.259   4.810  0.0079  0.5226 -0.8940
  452THF     C9 5872   2.873   4.114   4.768 -1.1718 -0.5837  0.0131
  452THF    H10 5873   2.894   4.267   4.915  0.1135 -1.0713 -0.7844
  452THF    H11 5874   2.935   4.321   4.753  2.5511  0.7007  2.1038
  452THF    H12 5875   2.885   4.113   4.659 -1.0557 -1.4818  0.0288
  452THF    H13 5876   2.960   4.060   4.804 -1.1925 -0.2048  0.6413
  453THF     O1 5877   1.633   0.549   2.526  0.1170 -0.4664 -0.5606
  453THF     C2 5878   1.631   0.675   2.588 -0.0657 -0.3564  0.9788
  453THF     C3 5879   1.713   0.464   2.606 -0.7071 -0.5553 -1.0756
  453THF     H4 5880   1.564   0.687   2.673 -2.7566  2.3375 -1.2979
  453THF     H5 5881   1.610   0.754   2.516  2.2975  1.1114  1.7917
  453THF     H6 5882   1.647   0.406   2.670 -1.3087 -0.1343 -1.3051
  453THF     H7 5883   1.761   0.382   2.552  1.9575  0.6853 -0.7777
  453THF     C8 5884   1.814   0.562   2.680 -0.7102  0.0981  0.0252
  453THF     C9 5885   1.785   0.693   2.623  0.1716 -0.4061  0.3961
  453THF    H10 5886   1.920   0.538   2.665 -1.2574 -1.9804 -0.9808
  453THF    H11 5887   1.787   0.564   2.785  0.6572  1.5381  0.3868
  453THF    H12 5888   1.806   0.781   2.684  0.6749 -0.1075 -0.1983
  453THF    H13 5889   1.837   0.715   2.530 -0.8885 -0.5266 -0.2486
  454THF     O1 5890   1.944   2.937   0.461  0.3195  0.5393  0.5027
  454THF     C2 5891   1.821   2.974   0.522 -0.1792 -0.0715  0.7211
  454THF     C3 5892   1.936   2.986   0.325  0.5366  0.3666 -0.3556
  454THF     H4 5893   1.810   2.962   0.629 -0.3472  0.1630  0.7296
  454THF     H5 5894   1.746   2.908   0.478 -0.5037  0.1144  1.0022
  454THF     H6 5895   2.033   2.979   0.275  0.3536 -0.0859 -0.6492
  454THF     H7 5896   1.854   2.934   0.276 -1.1066  0.6645  1.9410
  454THF     C8 5897   1.899   3.134   0.354  0.1844  0.5009  0.3138
  454THF     C9 5898   1.808   3.120   0.479  0.2989  0.0181 -0.2092
  454THF    H10 5899   1.858   3.190   0.269  0.5789 -2.1570 -1.7863
  454THF    H11 5900   1.992   3.185   0.378  1.4844 -1.7277  0.3211
  454THF    H12 5901   1.844   3.181   0.562 -1.6394  0.5252  0.3115
  454THF    H13 5902   1.709   3.160   0.453  0.0955  0.9810  1.8521
  455THF     O1 5903   1.047   4.032   4.595 -0.1523 -0.0740  0.3500
  455THF     C2 5904   0.968   3.933   4.670 -0.1591  0.2850 -0.4024
  455THF     C3 5905   1.012   4.007   4.459 -0.6743  0.2799 -0.3524
  455THF     H4 5906   0.862   3.959   4.663 -0.6437 -1.2290  0.8775
  455THF     H5 5907   0.986   3.916   4.776 -1.5212  0.5562 -0.1069
  455THF     H6 5908   0.913   4.051   4.442 -0.7325  0.4597  0.4064
  455THF     H7 5909   1.075   4.062   4.390 -1.6642  2.0929  0.1219
  455THF     C8 5910   1.023   3.853   4.447  0.0659 -0.1151 -0.0635
  455THF     C9 5911   0.975   3.806   4.587  0.5739 -0.2850 -0.0867
  455THF    H10 5912   1.126   3.825   4.422  0.4078 -0.4982  1.6678
  455THF    H11 5913   0.958   3.821   4.366  0.3003 -0.7523 -0.0078
  455THF    H12 5914   0.879   3.757   4.579  0.6213 -0.7416  1.7092
  455THF    H13 5915   1.040   3.743   4.647 -0.6142 -0.7797  0.7067
  456THF     O1 5916   2.243   1.947   1.977  0.2569 -0.2003 -0.4572
  456THF     C2 5917   2.164   1.901   1.871 -0.0314  0.0384 -0.2643
  456THF     C3 5918   2.278   1.841   2.059 -0.4875 -0.0046 -0.2597
  456THF     H4 5919   2.216   1.856   1.787  0.4533 -0.0400  0.0785
  456THF     H5 5920   2.106   1.984   1.829 -0.4277  0.7999  1.6835
  456THF     H6 5921   2.364   1.797   2.009 -0.6061 -1.3193  0.6333
  456THF     H7 5922   2.314   1.880   2.154 -2.1919 -0.6997  0.7261
  456THF     C8 5923   2.173   1.733   2.042 -0.2719  0.2686 -0.2751
  456THF     C9 5924   2.078   1.791   1.940  0.1601  0.3167 -0.3089
  456THF    H10 5925   2.115   1.721   2.134  0.4766 -0.4834  0.1187
  456THF    H11 5926   2.205   1.633   2.012 -1.0315 -0.1984  0.3965
  456THF    H12 5927   2.031   1.721   1.871  0.1170 -1.2892  1.3014
  456THF    H13 5928   1.989   1.828   1.991 -1.2399 -1.4424 -1.3460
  457THF     O1 5929   0.691   0.676   1.686 -0.4219 -0.4490 -0.2443
  457THF     C2 5930   0.568   0.713   1.753 -0.4084  0.5408 -0.4236
  457THF     C3 5931   0.663   0.652   1.544  0.7472 -0.3543 -0.3576
  457THF     H4 5932   0.565   0.820   1.776 -2.6017  0.3924  0.2204
  457THF     H5 5933   0.540   0.658   1.842  2.0268 -0.5286 -0.2456
  457THF     H6 5934   0.738   0.685   1.473  0.6724 -1.6684 -1.0797
  457THF     H7 5935   0.641   0.545   1.537  0.4291 -0.2867 -0.3730
  457THF     C8 5936   0.524   0.717   1.518 -0.5186  0.4686  0.4255
  457THF     C9 5937   0.454   0.693   1.647 -0.7927 -0.7189  0.8975
  457THF    H10 5938   0.470   0.664   1.439 -1.2025  0.6053  0.7905
  457THF    H11 5939   0.527   0.825   1.499  1.9553  0.7934  2.2106
  457THF    H12 5940   0.367   0.757   1.661 -0.8764  0.0896 -2.5034
  457THF    H13 5941   0.410   0.593   1.637  1.9496 -1.9863  0.6246
  458THF     O1 5942   2.974   3.180   2.004  0.1305 -0.1178 -0.7628
  458THF     C2 5943   2.949   3.265   1.901  0.2528 -0.5454 -0.6074
  458THF     C3 5944   3.112   3.154   1.996 -0.3146  0.4905 -0.0107
  458THF     H4 5945   2.984   3.365   1.928 -1.5149 -0.6175  2.3853
  458THF     H5 5946   2.842   3.275   1.888 -0.0146 -0.6351  1.2499
  458THF     H6 5947   3.165   3.241   2.035  1.0795 -0.6499  0.7181
  458THF     H7 5948   3.135   3.061   2.048  0.7562  0.0023 -1.3001
  458THF     C8 5949   3.150   3.157   1.847  0.4229 -0.0311  1.1811
  458THF     C9 5950   3.023   3.204   1.785 -0.5718 -0.9758 -0.1140
  458THF    H10 5951   3.183   3.060   1.808  0.2393  0.0408  0.8419
  458THF    H11 5952   3.224   3.236   1.832  1.4705 -1.2621 -0.6129
  458THF    H12 5953   3.035   3.258   1.691  1.1058 -0.8382  0.1604
  458THF    H13 5954   2.978   3.110   1.751 -0.7367 -1.6676  1.8970
  459THF     O1 5955   1.566   0.350   5.004 -0.6142 -0.9450 -0.0304
  459THF     C2 5956   1.643   0.422   4.902 -0.0361 -0.0047  0.4910
  459THF     C3 5957   1.538   0.442   5.113  0.3034 -0.6463 -0.0323
  459THF     H4 5958   1.574   0.488   4.850  1.0580  0.9853  0.2740
  459THF     H5 5959   1.693   0.354   4.834  0.6588 -1.3662  2.2614
  459THF     H6 5960   1.447   0.496   5.089  0.2389  0.3133  2.1015
  459THF     H7 5961   1.523   0.390   5.208  3.2564 -1.2818  0.2062
  459THF     C8 5962   1.676   0.514   5.122  0.5671 -0.4014 -0.7236
  459THF     C9 5963   1.737   0.514   4.981 -0.3576  0.2037 -1.6972
  459THF    H10 5964   1.743   0.455   5.185  2.3197  0.7547 -1.4214
  459THF    H11 5965   1.653   0.609   5.170  0.4437 -0.9059  0.2418
  459THF    H12 5966   1.761   0.607   4.929  0.6713  1.0996  0.2802
  459THF    H13 5967   1.839   0.479   4.996 -0.9306 -0.8895 -0.1000
  460THF     O1 5968   1.460   0.714   0.158 -0.0259 -0.1577  0.4285
  460THF     C2 5969   1.533   0.784   0.263  0.3583  0.0225 -0.1558
  460THF     C3 5970   1.513   0.747   0.021  0.0786 -0.1566  0.7053
  460THF     H4 5971   1.624   0.736   0.298  0.2896  0.8248  1.2187
  460THF     H5 5972   1.464   0.790   0.347  1.2183  1.1872  0.4966
  460THF     H6 5973   1.563   0.662  -0.025  1.4693  0.9987 -0.0165
  460THF     H7 5974   1.435   0.781  -0.048  0.1583 -0.4168  0.4854
  460THF     C8 5975   1.616   0.868   0.055  0.2242  0.3664  0.0566
  460THF     C9 5976   1.574   0.912   0.188  0.2028  0.0958  0.1702
  460THF    H10 5977   1.605   0.951  -0.015 -1.0390  0.9535  0.9069
  460THF    H11 5978   1.723   0.851   0.053  0.6791  2.9396 -0.8595
  460THF    H12 5979   1.662   0.955   0.236  1.3394 -0.0183 -1.7062
  460THF    H13 5980   1.483   0.972   0.183 -0.9719 -1.6686 -0.5742
  461THF     O1 5981   5.475   1.881   4.093 -0.0801 -0.2653  0.2800
  461THF     C2 5982   5.547   1.912   4.211 -0.1188 -0.0181 -0.2677
  461THF     C3 5983   5.352   1.823   4.124 -1.0324  0.0474 -0.0749
  461THF     H4 5984   5.621   1.990   4.195 -0.7535  0.4979 -0.7514
  461THF     H5 5985   5.585   1.820   4.256 -0.4358 -0.1838 -0.3381
  461THF     H6 5986   5.273   1.820   4.049 -1.3735 -1.5440  0.2993
  461THF     H7 5987   5.378   1.719   4.147  1.2831  1.0641  2.4447
  461THF     C8 5988   5.314   1.882   4.262  0.3343 -0.4193 -0.3257
  461THF     C9 5989   5.435   1.967   4.299 -0.0656 -0.1104 -0.3750
  461THF    H10 5990   5.282   1.808   4.334 -3.5502  1.5917  0.2723
  461THF    H11 5991   5.227   1.947   4.260 -1.4436 -2.6843 -2.2835
  461THF    H12 5992   5.411   2.067   4.261  1.3293 -0.0365 -1.1417
  461THF    H13 5993   5.454   1.981   4.405 -3.0283  0.7000  0.1223
  462THF     O1 5994   0.249   0.678   3.434  0.0680  0.9828 -0.1004
  462THF     C2 5995   0.333   0.762   3.511 -0.0987  0.0239 -0.1442
  462THF     C3 5996   0.196   0.573   3.511 -0.1369 -0.5820 -0.4379
  462THF     H4 5997   0.258   0.816   3.569  1.7508 -0.5298  3.0221
  462THF     H5 5998   0.396   0.831   3.456 -1.4040  1.8426  0.5274
  462THF     H6 5999   0.109   0.594   3.573  0.0904  0.0321 -0.3249
  462THF     H7 6000   0.180   0.481   3.455  1.0801 -1.3193  0.3827
  462THF     C8 6001   0.318   0.540   3.603 -0.0828  0.2382 -0.0985
  462THF     C9 6002   0.406   0.665   3.591 -0.5984  1.0699  0.4788
  462THF    H10 6003   0.372   0.454   3.562  2.5803  0.3708  2.8036
  462THF    H11 6004   0.286   0.524   3.706 -1.5308 -1.0530 -0.7057
  462THF    H12 6005   0.429   0.699   3.692 -2.4905  2.0472  0.6349
  462THF    H13 6006   0.497   0.637   3.538 -0.7946  1.7898 -0.2676
  463THF     O1 6007   0.494   1.343   4.242  0.2302  0.0029 -0.3723
  463THF     C2 6008   0.381   1.406   4.170  0.0810  0.3538  0.1026
  463THF     C3 6009   0.580   1.298   4.147 -1.1457  0.0799  0.6262
  463THF     H4 6010   0.318   1.460   4.241 -0.2525  1.2364 -0.8491
  463THF     H5 6011   0.309   1.336   4.127  0.9221 -0.2567 -0.3417
  463THF     H6 6012   0.677   1.273   4.189 -0.0586  0.7060 -1.3335
  463THF     H7 6013   0.542   1.218   4.084  1.7999  0.4963 -1.9452
  463THF     C8 6014   0.582   1.421   4.051  0.4436 -0.1380  0.3058
  463THF     C9 6015   0.455   1.496   4.075  0.4105 -0.0793 -1.2909
  463THF    H10 6016   0.616   1.396   3.951 -0.3948  0.9651 -0.2875
  463THF    H11 6017   0.659   1.488   4.087  1.4538 -1.0868 -0.0318
  463THF    H12 6018   0.469   1.587   4.132 -0.0644  1.1284 -3.0217
  463THF    H13 6019   0.399   1.523   3.985 -1.7205  0.0919  0.0081
  464THF     O1 6020   2.286   4.027   4.044 -0.9087 -0.5390  0.0061
  464THF     C2 6021   2.221   4.067   3.923 -0.0751  0.0687  0.1671
  464THF     C3 6022   2.416   3.984   4.010 -0.0222  0.2930  0.1401
  464THF     H4 6023   2.236   4.173   3.902  1.5161 -0.0983  0.3064
  464THF     H5 6024   2.114   4.049   3.932 -0.7538  3.7359  1.2342
  464THF     H6 6025   2.483   4.070   4.021  0.4180  0.0045 -0.2528
  464THF     H7 6026   2.453   3.916   4.086 -1.6726 -0.6326  0.1574
  464THF     C8 6027   2.419   3.943   3.867 -0.0460 -0.1511  0.1542
  464THF     C9 6028   2.288   3.976   3.813  0.2669  0.4762 -0.4505
  464THF    H10 6029   2.435   3.838   3.841  1.7043  0.8976 -3.8781
  464THF    H11 6030   2.486   4.005   3.807 -1.1345  0.1141 -0.8165
  464THF    H12 6031   2.308   4.029   3.720  3.2484 -0.4015 -0.4339
  464THF    H13 6032   2.234   3.888   3.778 -0.5059  0.3614  0.9434
  465THF     O1 6033   0.991   5.066   4.434  0.4532  0.7273 -0.1349
  465THF     C2 6034   0.903   5.172   4.419 -0.1377 -0.2014  0.5234
  465THF     C3 6035   0.950   4.993   4.555 -0.2796  1.3206 -0.2296
  465THF     H4 6036   0.835   5.154   4.335 -0.0216  1.3945  0.0679
  465THF     H5 6037   0.960   5.259   4.388  1.0704 -0.7515  1.1286
  465THF     H6 6038   0.876   4.918   4.526 -0.6079  0.5049  2.4433
  465THF     H7 6039   1.028   4.944   4.613 -1.9236 -0.5686  0.4900
  465THF     C8 6040   0.896   5.101   4.641 -0.4859 -0.6314 -0.1504
  465THF     C9 6041   0.831   5.197   4.544  0.4851 -0.3874 -0.1279
  465THF    H10 6042   0.981   5.147   4.692 -0.1468 -0.2048 -1.0828
  465THF    H11 6043   0.831   5.052   4.713 -2.4584 -2.1081 -2.7520
  465THF    H12 6044   0.728   5.165   4.529  0.6031 -0.0677 -1.7508
  465THF    H13 6045   0.825   5.301   4.575  0.5277 -0.5966  0.6137
  466THF     O1 6046   0.967   2.085   4.234 -0.1956 -0.4632  0.2840
  466THF     C2 6047   0.872   1.989   4.264  0.5489 -0.8343  0.2139
  466THF     C3 6048   0.994   2.158   4.355 -0.0045 -0.7492  0.9333
  466THF     H4 6049   0.886   1.903   4.199  2.0531 -1.9166  1.8679
  466THF     H5 6050   0.773   2.026   4.239  0.9945  2.0005  2.1228
  466THF     H6 6051   1.091   2.207   4.354  0.3803 -1.4467  1.9942
  466THF     H7 6052   0.909   2.226   4.361 -0.2551 -0.6637 -2.1188
  466THF     C8 6053   0.992   2.065   4.469 -0.2248 -0.2417 -0.5625
  466THF     C9 6054   0.893   1.959   4.418 -0.1661  0.3651 -0.2230
  466THF    H10 6055   0.967   2.102   4.569 -0.7450  1.5489 -1.3143
  466THF    H11 6056   1.088   2.014   4.473  0.1389  0.4926  1.5084
  466THF    H12 6057   0.932   1.859   4.435 -0.4862 -0.4304 -3.4351
  466THF    H13 6058   0.800   1.973   4.473 -0.1694  0.7893 -0.3303
  467THF     O1 6059   5.408   3.219   3.589  0.2672  0.5089  0.4955
  467THF     C2 6060   5.513   3.280   3.519 -0.0662  0.6314  0.0203
  467THF     C3 6061   5.356   3.111   3.513  0.3226  0.0941 -0.7168
  467THF     H4 6062   5.574   3.353   3.572 -1.0228  0.1150  1.9263
  467THF     H5 6063   5.462   3.343   3.445 -1.3018  1.4045  1.4611
  467THF     H6 6064   5.348   3.024   3.578  1.6861  0.4867  0.0175
  467THF     H7 6065   5.259   3.127   3.465  0.4524 -0.7482 -1.3017
  467THF     C8 6066   5.467   3.082   3.407  0.5392  0.3589 -0.7963
  467THF     C9 6067   5.582   3.157   3.461 -1.0317  0.0972  0.2851
  467THF    H10 6068   5.432   3.102   3.305  0.0822 -1.7196 -1.0940
  467THF    H11 6069   5.487   2.975   3.398 -0.5010  0.1372 -0.7065
  467THF    H12 6070   5.621   3.099   3.544 -0.4306 -2.1072 -1.4446
  467THF    H13 6071   5.668   3.183   3.400 -0.7133  0.2631  0.7984
  468THF     O1 6072   4.564   1.334   2.574 -0.1143 -0.2314  0.0747
  468THF     C2 6073   4.471   1.224   2.544 -0.1819  0.0010 -0.1916
  468THF     C3 6074   4.498   1.430   2.660  0.0836  0.6347  0.0993
  468THF     H4 6075   4.473   1.150   2.624 -0.9015  0.8286  0.6147
  468THF     H5 6076   4.496   1.166   2.455  0.1435 -3.4816  1.9978
  468THF     H6 6077   4.547   1.440   2.757  1.1906  1.6327 -0.5459
  468THF     H7 6078   4.513   1.528   2.616 -0.4736 -0.0856 -1.8060
  468THF     C8 6079   4.346   1.404   2.660 -0.3638  0.1821 -0.4306
  468THF     C9 6080   4.336   1.296   2.548 -0.0814  0.1515  0.1132
  468THF    H10 6081   4.284   1.490   2.635 -0.1650  0.8750  1.3031
  468THF    H11 6082   4.312   1.369   2.758  0.7581 -0.0043 -0.0918
  468THF    H12 6083   4.263   1.220   2.575  1.2609 -0.5608  1.9730
  468THF    H13 6084   4.324   1.335   2.447 -0.2332  1.0859  0.4757
  469THF     O1 6085   3.150   3.763   4.996  0.2381  0.4270 -0.1474
  469THF     C2 6086   3.043   3.774   5.094  0.9031 -0.0402  0.2707
  469THF     C3 6087   3.098   3.742   4.867 -0.3756  0.3453 -0.1027
  469THF     H4 6088   3.063   3.864   5.152  2.8573 -1.1419  1.3740
  469THF     H5 6089   3.041   3.680   5.149  0.0549  0.7324  1.6200
  469THF     H6 6090   3.121   3.837   4.819  1.3324  0.2430  0.4644
  469THF     H7 6091   3.143   3.669   4.800  0.6533  3.0533 -2.5766
  469THF     C8 6092   2.941   3.719   4.882 -0.1705 -0.1451 -0.3230
  469THF     C9 6093   2.922   3.802   5.002 -0.1660 -0.2152 -0.6641
  469THF    H10 6094   2.926   3.618   4.922  1.5740 -0.8404 -1.2958
  469THF    H11 6095   2.890   3.747   4.790 -0.0463  0.5921 -0.1712
  469THF    H12 6096   2.929   3.908   4.977  1.0164  0.1383  0.9998
  469THF    H13 6097   2.826   3.783   5.051 -1.2189  3.2181 -1.1357
  470THF     O1 6098   3.052   4.688   2.356  0.3432 -0.3374 -0.2027
  470THF     C2 6099   2.994   4.777   2.456  0.1316 -0.5335  0.5117
  470THF     C3 6100   3.156   4.621   2.424 -0.5152  0.2712  0.2925
  470THF     H4 6101   2.888   4.765   2.478  0.3236 -0.4920  1.4897
  470THF     H5 6102   3.007   4.880   2.422  2.5101 -1.1320 -0.6676
  470THF     H6 6103   3.169   4.526   2.374 -1.5787  0.7620 -0.9677
  470THF     H7 6104   3.255   4.666   2.428 -0.5540  0.3175  0.9706
  470THF     C8 6105   3.111   4.617   2.568  0.4668 -0.2531  0.0718
  470THF     C9 6106   3.055   4.749   2.588 -0.2270 -0.2476  0.4331
  470THF    H10 6107   3.186   4.595   2.644  0.7838 -0.4242 -0.2911
  470THF    H11 6108   3.029   4.546   2.584  0.9903 -0.9753 -0.4083
  470THF    H12 6109   2.981   4.769   2.665 -0.5050  2.8081 -0.5215
  470THF    H13 6110   3.130   4.823   2.616  0.6423 -0.5319 -0.9979
  471THF     O1 6111   1.736   4.681   5.411  0.6167  0.3638  0.3223
  471THF     C2 6112   1.803   4.571   5.353 -0.0593  0.0628 -0.5133
  471THF     C3 6113   1.629   4.630   5.498  0.2458 -0.6525  0.5642
  471THF     H4 6114   1.904   4.598   5.321 -0.1266 -0.3361 -1.0726
  471THF     H5 6115   1.750   4.517   5.275 -0.8990 -1.0704  0.8084
  471THF     H6 6116   1.581   4.696   5.571  0.2637  0.8143 -0.7095
  471THF     H7 6117   1.552   4.580   5.440  0.1396 -1.7140  1.5738
  471THF     C8 6118   1.699   4.514   5.562 -0.6618 -0.1378 -0.2351
  471THF     C9 6119   1.821   4.486   5.475  0.1806 -0.0462 -0.5121
  471THF    H10 6120   1.627   4.432   5.569 -1.9215  0.9392 -0.2421
  471THF    H11 6121   1.720   4.540   5.666 -1.4701  0.7272 -0.2799
  471THF    H12 6122   1.902   4.530   5.533 -0.0075 -1.0965  0.5846
  471THF    H13 6123   1.845   4.381   5.457  0.6432 -0.1900  0.8202
  472THF     O1 6124   4.007   3.701   0.184 -0.4219  0.2769 -0.2108
  472THF     C2 6125   3.888   3.708   0.109  0.5704 -0.6705 -0.1106
  472THF     C3 6126   4.002   3.805   0.276 -0.2960 -0.1527 -0.2688
  472THF     H4 6127   3.811   3.667   0.174  0.7756 -1.7258 -0.5178
  472THF     H5 6128   3.892   3.646   0.020 -0.1658 -2.2798  0.9403
  472THF     H6 6129   3.924   3.782   0.349  0.0087 -1.4147 -0.3226
  472THF     H7 6130   4.090   3.810   0.340 -1.1577  0.5636  0.8964
  472THF     C8 6131   3.964   3.922   0.186  0.1762  0.2064  0.2376
  472THF     C9 6132   3.870   3.857   0.086 -0.0910  0.3682 -0.7013
  472THF    H10 6133   4.059   3.945   0.140 -1.5338  2.7838 -2.3493
  472THF    H11 6134   3.921   4.009   0.237  1.4759  1.6903 -1.1003
  472THF    H12 6135   3.767   3.888   0.107  0.7980  1.6320  2.4353
  472THF    H13 6136   3.899   3.896  -0.011  1.4844 -0.0532 -0.4189
  473THF     O1 6137   0.633   5.090   3.793  0.5880 -0.8935 -0.4001
  473THF     C2 6138   0.701   5.087   3.673 -0.2854 -0.2610  0.0311
  473THF     C3 6139   0.496   5.142   3.764 -0.3325 -0.0575  0.0452
  473THF     H4 6140   0.778   5.010   3.675 -0.3606 -0.3215  1.0571
  473THF     H5 6141   0.733   5.191   3.664 -2.1582  0.2675 -1.0937
  473THF     H6 6142   0.415   5.105   3.827 -0.0027 -3.5158 -1.3580
  473THF     H7 6143   0.485   5.251   3.766  0.1053 -0.0154  0.3398
  473THF     C8 6144   0.458   5.094   3.630 -0.5416 -0.4833  0.2696
  473THF     C9 6145   0.592   5.065   3.568  0.6840  0.5295 -0.3897
  473THF    H10 6146   0.394   5.168   3.581 -1.4135 -0.3668  1.5394
  473THF    H11 6147   0.406   4.998   3.628 -2.7703  0.6559 -0.2807
  473THF    H12 6148   0.578   4.963   3.531 -2.4680  1.3482 -1.7694
  473THF    H13 6149   0.630   5.127   3.487 -0.2736 -0.7850 -1.9194
  474THF     O1 6150   2.326   1.385   2.067 -0.7384 -0.5119 -0.2128
  474THF     C2 6151   2.469   1.375   2.101  0.8508  0.3708 -0.1483
  474THF     C3 6152   2.312   1.339   1.938  0.4618  0.3358  0.3677
  474THF     H4 6153   2.476   1.268   2.121  0.2914  0.3006 -0.3048
  474THF     H5 6154   2.495   1.427   2.193  1.3051 -2.2540  1.3122
  474THF     H6 6155   2.335   1.232   1.940  0.6668  0.3862  1.0634
  474THF     H7 6156   2.217   1.352   1.887  0.8549  1.6428 -0.0560
  474THF     C8 6157   2.418   1.424   1.864 -0.4654 -0.0795 -0.3745
  474THF     C9 6158   2.527   1.434   1.975  0.6723  0.4860  0.1442
  474THF    H10 6159   2.380   1.516   1.818  1.5845  0.3052 -1.4071
  474THF    H11 6160   2.461   1.362   1.786  2.0412 -0.7317  1.4145
  474THF    H12 6161   2.618   1.379   1.949  0.1960  0.2580 -1.1145
  474THF    H13 6162   2.551   1.540   1.985  0.8951  0.2982  1.7817
  475THF     O1 6163   0.967   1.044   1.409  0.8003  0.2763  0.1129
  475THF     C2 6164   1.100   1.050   1.347  1.0791  0.3729  0.0301
  475THF     C3 6165   0.964   0.928   1.487 -0.4559 -0.0182  0.3376
  475THF     H4 6166   1.186   1.052   1.414  0.6157 -3.3534  0.9655
  475THF     H5 6167   1.109   1.127   1.271  0.4664  0.0607 -0.3674
  475THF     H6 6168   1.031   0.946   1.571 -1.7287 -0.4410  1.4880
  475THF     H7 6169   0.873   0.892   1.536  0.5171 -1.0344  1.4528
  475THF     C8 6170   1.021   0.824   1.393  0.1628  0.0521 -0.1775
  475THF     C9 6171   1.095   0.910   1.293  0.0889 -0.5203  0.1908
  475THF    H10 6172   0.952   0.766   1.332 -0.6242  0.5289  0.2448
  475THF    H11 6173   1.085   0.762   1.456 -1.3137  0.9671  2.3730
  475THF    H12 6174   1.191   0.866   1.268 -0.3238 -1.5422  0.3319
  475THF    H13 6175   1.046   0.911   1.196  2.1625 -0.0400 -0.9150
  476THF     O1 6176   5.485   1.735   3.223  0.0306 -0.0325  0.8081
  476THF     C2 6177   5.527   1.625   3.144  0.5865 -0.0982 -0.2885
  476THF     C3 6178   5.592   1.809   3.283 -0.3923  0.8988  0.8269
  476THF     H4 6179   5.462   1.616   3.057 -2.3173 -0.2063  1.7486
  476THF     H5 6180   5.501   1.538   3.205  1.1915 -0.8608 -1.0926
  476THF     H6 6181   5.610   1.899   3.224 -0.0160 -0.4112 -1.1571
  476THF     H7 6182   5.558   1.844   3.380 -0.4172  0.5327  0.9533
  476THF     C8 6183   5.714   1.718   3.258 -0.6455  0.1656 -0.6669
  476THF     C9 6184   5.672   1.655   3.123  0.1401 -0.4553  0.0050
  476THF    H10 6185   5.711   1.639   3.333  3.4212  1.8814  1.6236
  476THF    H11 6186   5.805   1.777   3.262  1.1850 -2.5328  0.0350
  476THF    H12 6187   5.682   1.715   3.033 -1.8053  0.1945  0.1812
  476THF    H13 6188   5.730   1.564   3.107  0.9559  0.0506  0.0499
  477THF     O1 6189   1.598   2.201   0.997 -0.0393  0.2386  0.4144
  477THF     C2 6190   1.602   2.096   0.907 -0.1171  0.1823 -0.5100
  477THF     C3 6191   1.481   2.185   1.065 -0.1828 -0.3288  0.7698
  477THF     H4 6192   1.706   2.070   0.888  0.1980  1.4356 -0.5555
  477THF     H5 6193   1.559   2.131   0.813  0.9473 -1.4450 -1.6665
  477THF     H6 6194   1.483   2.245   1.155 -2.9568  0.1291  0.6367
  477THF     H7 6195   1.409   2.230   0.997 -0.9821 -1.6558  0.6965
  477THF     C8 6196   1.475   2.035   1.102 -0.2473 -0.2062 -0.7730
  477THF     C9 6197   1.532   1.975   0.980 -0.0593 -0.0639  0.1524
  477THF    H10 6198   1.374   2.013   1.134  0.4114 -0.7929  1.0102
  477THF    H11 6199   1.537   2.016   1.190 -0.8361 -0.2104 -0.3551
  477THF    H12 6200   1.604   1.894   0.994 -1.6305 -1.2551  1.6500
  477THF    H13 6201   1.469   1.932   0.902  1.0221 -0.0887 -0.7481
  478THF     O1 6202   0.858   1.701   1.848 -0.2584  0.2324 -0.0410
  478THF     C2 6203   0.723   1.648   1.851 -0.3596  0.0710 -0.5122
  478THF     C3 6204   0.869   1.810   1.946 -0.3673  0.1066 -0.2572
  478THF     H4 6205   0.699   1.597   1.944 -1.5083  1.9921  0.2958
  478THF     H5 6206   0.691   1.590   1.764  1.9899 -0.7882 -0.8752
  478THF     H6 6207   0.912   1.793   2.044  0.0690  2.5149  0.0423
  478THF     H7 6208   0.944   1.876   1.901  1.1829 -0.9710  0.6446
  478THF     C8 6209   0.731   1.863   1.952 -0.2515 -0.5320  0.2018
  478THF     C9 6210   0.652   1.788   1.853  0.0549 -0.0319 -0.1686
  478THF    H10 6211   0.721   1.970   1.929 -0.6802 -0.3080  1.3703
  478THF    H11 6212   0.692   1.845   2.052 -0.7806  2.6403  0.6992
  478THF    H12 6213   0.546   1.789   1.877  0.4059  2.9585  1.8073
  478THF    H13 6214   0.666   1.836   1.756  0.8241 -0.0331 -0.0655
  479THF     O1 6215   1.487   4.491   0.279 -0.5847 -0.2483 -0.0979
  479THF     C2 6216   1.416   4.611   0.294  0.4764  0.8938  0.5291
  479THF     C3 6217   1.450   4.403   0.376 -0.1870  0.2615 -0.1476
  479THF     H4 6218   1.401   4.661   0.199 -0.4993 -0.8573 -0.2962
  479THF     H5 6219   1.468   4.687   0.352  1.5927  0.8658 -0.4125
  479THF     H6 6220   1.482   4.307   0.338 -2.3030  0.1860 -1.9320
  479THF     H7 6221   1.499   4.433   0.469  0.5894  2.1817 -1.1180
  479THF     C8 6222   1.295   4.420   0.384  0.2653 -0.0814 -0.2218
  479THF     C9 6223   1.279   4.568   0.345  0.4327  0.3617  0.1898
  479THF    H10 6224   1.247   4.395   0.478 -1.1576 -0.4108 -0.9908
  479THF    H11 6225   1.228   4.369   0.314  0.1328 -1.8706  1.1303
  479THF    H12 6226   1.198   4.581   0.273  0.0640  1.0392  0.7247
  479THF    H13 6227   1.259   4.624   0.436 -0.3558 -3.7377  2.8518
  480THF     O1 6228   4.145   2.832   0.902  0.3255  0.6618 -0.0133
  480THF     C2 6229   4.014   2.861   0.938  0.0114 -0.0735  0.2944
  480THF     C3 6230   4.206   2.955   0.884 -0.0614  0.5390  0.0991
  480THF     H4 6231   4.015   2.896   1.041 -0.1635 -0.8584  0.5685
  480THF     H5 6232   3.944   2.778   0.927 -0.8533  0.8894 -2.1675
  480THF     H6 6233   4.247   2.986   0.980 -0.1831 -2.7415  1.3487
  480THF     H7 6234   4.286   2.939   0.812  1.2137 -1.5911  1.8817
  480THF     C8 6235   4.100   3.040   0.821  0.3457 -0.2243  0.3714
  480THF     C9 6236   3.966   2.978   0.858 -0.1254 -0.5082  0.5519
  480THF    H10 6237   4.117   3.046   0.713 -0.4378 -0.7221  0.2149
  480THF    H11 6238   4.114   3.141   0.858 -1.8109 -0.9076  3.4274
  480THF    H12 6239   3.899   3.042   0.916  0.0208  0.0371  0.1300
  480THF    H13 6240   3.908   2.955   0.769 -0.3729  2.9131 -0.3280
  481THF     O1 6241   3.186   2.667   0.363  0.2311  0.6717  0.4171
  481THF     C2 6242   3.109   2.784   0.366  0.1730 -0.1536 -0.2324
  481THF     C3 6243   3.308   2.707   0.303  0.5500  0.5807 -0.4521
  481THF     H4 6244   3.022   2.759   0.427 -0.0373  1.1906  0.0593
  481THF     H5 6245   3.083   2.808   0.262 -0.1293 -0.5784 -0.2556
  481THF     H6 6246   3.386   2.634   0.325 -0.6768 -0.1508  1.8396
  481THF     H7 6247   3.317   2.721   0.196  2.7245 -0.0484 -0.4057
  481THF     C8 6248   3.342   2.844   0.367 -0.0037  0.0201 -0.7077
  481THF     C9 6249   3.208   2.891   0.422 -0.1894  0.1519 -0.8202
  481THF    H10 6250   3.375   2.918   0.294 -1.3571  0.5876 -0.7764
  481THF    H11 6251   3.424   2.842   0.439  0.9492 -0.8826 -1.7864
  481THF    H12 6252   3.205   2.885   0.530 -1.0221  0.9725 -0.7771
  481THF    H13 6253   3.182   2.995   0.398  0.6415  1.0837  2.0263
  482THF     O1 6254   2.044   5.059   5.076  0.2668 -0.5532  0.2496
  482THF     C2 6255   2.140   4.954   5.047 -0.5017 -1.0054 -0.4347
  482THF     C3 6256   1.913   5.009   5.040 -0.1878 -0.1469 -0.1059
  482THF     H4 6257   2.232   4.964   5.105  0.0307  2.5312 -1.6193
  482THF     H5 6258   2.173   4.975   4.946 -2.4890 -0.8487 -1.0964
  482THF     H6 6259   1.846   5.066   5.105  1.7427 -0.3882  2.2725
  482THF     H7 6260   1.885   5.003   4.935 -1.5282 -1.8126  0.2805
  482THF     C8 6261   1.929   4.864   5.102  0.4384 -0.7058 -0.4892
  482THF     C9 6262   2.066   4.815   5.066  0.3701 -0.1735  0.1065
  482THF    H10 6263   1.858   4.784   5.077  0.3853 -0.2683 -1.8244
  482THF    H11 6264   1.928   4.880   5.210 -1.7093  1.8095 -0.7789
  482THF    H12 6265   2.104   4.753   5.147  0.3268  0.6921  0.7988
  482THF    H13 6266   2.064   4.759   4.972  0.6144  0.4925 -0.3014
  483THF     O1 6267   4.422   3.730   2.017  0.4389 -0.1647 -0.0288
  483THF     C2 6268   4.280   3.705   2.016  0.8427  0.0056 -0.0166
  483THF     C3 6269   4.448   3.860   2.054  0.2662  0.4792  0.0212
  483THF     H4 6270   4.264   3.599   2.038 -1.0351  0.2477 -0.0561
  483THF     H5 6271   4.230   3.732   1.923  0.0656 -0.8802  0.1284
  483THF     H6 6272   4.555   3.876   2.068  0.4478 -1.5089  1.3278
  483THF     H7 6273   4.416   3.920   1.968  2.2441 -0.2582 -1.3143
  483THF     C8 6274   4.355   3.875   2.178 -0.1433 -0.5391  0.7675
  483THF     C9 6275   4.233   3.796   2.132  0.0275 -0.2332 -0.3592
  483THF    H10 6276   4.333   3.977   2.211  1.1667  0.3255 -0.8850
  483THF    H11 6277   4.399   3.829   2.266 -2.0429 -0.6281  1.7223
  483THF    H12 6278   4.202   3.742   2.221 -0.3581  0.3763 -0.1191
  483THF    H13 6279   4.151   3.858   2.096  0.1106  0.1233  0.0610
  484THF     O1 6280   4.886   1.170   2.144  0.0931  0.4974  0.2230
  484THF     C2 6281   4.885   1.044   2.072  0.2815 -0.0298 -0.6253
  484THF     C3 6282   4.749   1.200   2.187  0.8260 -0.4007  0.3981
  484THF     H4 6283   4.977   0.996   2.040  0.8663  0.0765  0.8065
  484THF     H5 6284   4.840   1.080   1.979 -0.7545  0.7246  0.1378
  484THF     H6 6285   4.742   1.258   2.280  0.6735 -1.5852  1.1447
  484THF     H7 6286   4.695   1.251   2.107  1.8022 -0.9655 -0.6436
  484THF     C8 6287   4.693   1.065   2.205  0.9152  0.2147  0.0474
  484THF     C9 6288   4.787   0.959   2.150 -0.2380 -0.2368 -0.2539
  484THF    H10 6289   4.598   1.056   2.151  0.3047 -1.6015  1.3359
  484THF    H11 6290   4.661   1.051   2.308 -2.3375  0.4419 -0.8140
  484THF    H12 6291   4.839   0.904   2.229 -2.6316  1.1986  2.5311
  484THF    H13 6292   4.727   0.904   2.077 -2.1825  2.4743 -0.8428
  485THF     O1 6293   1.428   0.487   4.245 -0.2131 -0.6637  0.0183
  485THF     C2 6294   1.517   0.585   4.297  0.1252  0.2950  0.3504
  485THF     C3 6295   1.463   0.363   4.293 -0.7976  0.6096 -1.4665
  485THF     H4 6296   1.476   0.686   4.301  1.5048  0.9679 -1.0619
  485THF     H5 6297   1.611   0.592   4.243 -0.0845  1.8929  0.1547
  485THF     H6 6298   1.381   0.292   4.285  0.5648 -1.2081 -0.0807
  485THF     H7 6299   1.554   0.312   4.261 -0.0484  1.3907 -0.6414
  485THF     C8 6300   1.485   0.403   4.442  0.5534 -0.7041  0.1397
  485THF     C9 6301   1.548   0.534   4.440  0.3582 -0.0426 -0.0278
  485THF    H10 6302   1.549   0.340   4.504 -0.3185 -0.3081  1.4879
  485THF    H11 6303   1.388   0.423   4.487 -0.5750  1.2075 -2.8706
  485THF    H12 6304   1.510   0.590   4.526 -1.0823 -0.1096 -0.6007
  485THF    H13 6305   1.656   0.536   4.459  0.5026 -0.6371 -0.7554
  486THF     O1 6306   5.099   1.165   4.575  0.6790 -0.0340 -0.0383
  486THF     C2 6307   4.954   1.160   4.599 -0.3093 -0.5211 -0.6289
  486THF     C3 6308   5.115   1.246   4.462  0.6572  0.0300 -0.2645
  486THF     H4 6309   4.919   1.127   4.697  0.1288  1.0661  0.0826
  486THF     H5 6310   4.917   1.081   4.532  1.4480 -1.7850 -0.1689
  486THF     H6 6311   5.214   1.290   4.454  0.0890  1.8347  1.6064
  486THF     H7 6312   5.093   1.202   4.365  1.2653  1.4278 -1.0774
  486THF     C8 6313   5.023   1.363   4.486  0.3064  0.7627 -0.7540
  486THF     C9 6314   4.904   1.297   4.554  0.5936 -0.5118  0.0750
  486THF    H10 6315   4.994   1.421   4.398 -1.5277  1.9377  0.5391
  486THF    H11 6316   5.081   1.429   4.550  2.3778 -0.7003 -1.0441
  486THF    H12 6317   4.870   1.349   4.644  0.9453  0.7199 -0.4676
  486THF    H13 6318   4.816   1.287   4.492  0.6840 -3.2611  0.2925
  487THF     O1 6319   3.955   4.148   1.291  0.0286  0.3034 -0.1735
  487THF     C2 6320   3.900   4.071   1.402  0.2580  0.0234 -0.0657
  487THF     C3 6321   3.986   4.275   1.337 -0.2005 -0.2889  0.6323
  487THF     H4 6322   3.978   4.044   1.474 -1.1808  1.1584  2.0209
  487THF     H5 6323   3.835   3.989   1.374 -0.7057 -0.6298  3.5822
  487THF     H6 6324   4.087   4.263   1.376 -0.0215 -1.3613 -0.0915
  487THF     H7 6325   3.987   4.331   1.244  0.4925  0.0112  0.8090
  487THF     C8 6326   3.877   4.302   1.440  0.0048  0.2684 -0.5320
  487THF     C9 6327   3.818   4.172   1.480  0.0143 -0.2028 -0.5877
  487THF    H10 6328   3.803   4.377   1.412  0.3247  0.1142 -1.8119
  487THF    H11 6329   3.928   4.345   1.527  0.5469 -1.5987  0.1228
  487THF    H12 6330   3.826   4.166   1.589 -0.1201  1.7400 -0.4423
  487THF    H13 6331   3.714   4.166   1.448 -0.1691  1.4198 -0.3613
  488THF     O1 6332   4.831   0.065   0.967 -0.2694 -0.1648  0.2233
  488THF     C2 6333   4.786   0.197   1.002 -0.5425  0.6178 -0.0243
  488THF     C3 6334   4.877   0.003   1.084  0.2415  0.6045 -0.2169
  488THF     H4 6335   4.681   0.201   1.031 -0.4701  0.3781  0.2777
  488THF     H5 6336   4.814   0.259   0.917 -0.5073  0.7257  0.0665
  488THF     H6 6337   4.798  -0.046   1.142  0.2377  3.7023  2.7737
  488THF     H7 6338   4.957  -0.068   1.063 -0.3031  0.2600 -1.1614
  488THF     C8 6339   4.916   0.108   1.183 -1.5405  0.5462 -0.1615
  488THF     C9 6340   4.876   0.238   1.117 -0.0431  0.6160 -0.3609
  488THF    H10 6341   5.021   0.095   1.208 -1.7079  0.1471  0.3654
  488THF    H11 6342   4.872   0.102   1.283  0.4332  2.5438  0.9357
  488THF    H12 6343   4.828   0.312   1.182 -0.1008 -1.2184  1.8021
  488THF    H13 6344   4.965   0.294   1.089 -0.0207  1.1113  0.6624
  489THF     O1 6345   0.574   4.862   0.528 -0.4761  0.2766 -0.6586
  489THF     C2 6346   0.554   4.737   0.602 -0.1713  0.0148  0.1590
  489THF     C3 6347   0.528   4.970   0.612  0.1783 -0.3151 -0.2845
  489THF     H4 6348   0.625   4.658   0.577 -0.4335 -0.2069  0.1163
  489THF     H5 6349   0.461   4.686   0.580 -0.2218 -0.0577  0.5345
  489THF     H6 6350   0.595   5.055   0.597 -1.1959  0.5433 -1.8183
  489THF     H7 6351   0.430   5.002   0.575  0.5153  0.9049 -0.1757
  489THF     C8 6352   0.515   4.912   0.755  0.3428 -0.4616  0.2582
  489THF     C9 6353   0.572   4.773   0.748 -0.2093  0.0960  1.0971
  489THF    H10 6354   0.413   4.904   0.793  1.0387  0.5101  2.4894
  489THF    H11 6355   0.567   4.975   0.827 -0.5511  1.2793 -0.5769
  489THF    H12 6356   0.677   4.780   0.776  0.0244 -0.0736  0.3040
  489THF    H13 6357   0.524   4.697   0.810  0.3665 -3.0090 -1.9167
  490THF     O1 6358   3.822   0.188   5.037 -0.4845  0.2396  0.4703
  490THF     C2 6359   3.741   0.073   5.048  0.5348  0.7589  0.4926
  490THF     C3 6360   3.892   0.163   4.919  0.5457 -0.1351  0.5366
  490THF     H4 6361   3.666   0.094   5.124  1.0268  1.8561  0.6902
  490THF     H5 6362   3.806  -0.009   5.080  1.4662  1.2226 -0.1691
  490THF     H6 6363   3.958   0.236   4.872 -0.8495 -1.5731 -4.2075
  490THF     H7 6364   3.958   0.082   4.951 -0.5526 -1.5529 -0.6428
  490THF     C8 6365   3.779   0.122   4.827 -0.3492  0.3087 -0.6233
  490THF     C9 6366   3.679   0.043   4.914 -0.1491 -0.1273 -0.1646
  490THF    H10 6367   3.808   0.063   4.739  0.4349  1.0244 -0.8591
  490THF    H11 6368   3.740   0.210   4.777 -0.2363  0.2723 -0.7795
  490THF    H12 6369   3.573   0.071   4.911 -0.2422 -0.5411 -0.6919
  490THF    H13 6370   3.693  -0.060   4.884  1.3351 -0.5646  1.8173
  491THF     O1 6371   1.812   2.665   2.522  0.2808 -0.4798  0.0183
  491THF     C2 6372   1.902   2.772   2.500 -0.5984 -0.1429 -0.2817
  491THF     C3 6373   1.699   2.674   2.433  0.0845 -0.0471  0.2130
  491THF     H4 6374   2.005   2.740   2.513 -0.5102 -0.2316 -1.1449
  491THF     H5 6375   1.880   2.848   2.575 -2.4490 -1.8080  0.9664
  491THF     H6 6376   1.696   2.583   2.374  1.4410  1.0866 -1.7026
  491THF     H7 6377   1.614   2.681   2.502  0.1934 -3.7690  0.9011
  491THF     C8 6378   1.733   2.785   2.339 -0.4545  0.1797  0.5710
  491THF     C9 6379   1.886   2.803   2.353 -0.0449  0.5898  0.5194
  491THF    H10 6380   1.692   2.877   2.381  3.1576  2.5459 -0.6368
  491THF    H11 6381   1.706   2.772   2.234 -0.4864  1.0648  0.4600
  491THF    H12 6382   1.933   2.719   2.303  0.3236 -0.0923  1.9614
  491THF    H13 6383   1.939   2.893   2.323 -0.7536  0.8875  0.1389
  492THF     O1 6384   2.278   5.342   0.653  0.1727 -0.2296  0.5125
  492THF     C2 6385   2.314   5.305   0.777 -0.8505  0.2033 -0.3036
  492THF     C3 6386   2.145   5.295   0.644 -0.3376  0.1875  0.0891
  492THF     H4 6387   2.400   5.368   0.800 -1.0233  0.7277 -1.0921
  492THF     H5 6388   2.339   5.199   0.780  0.9770  0.6327  0.7129
  492THF     H6 6389   2.101   5.335   0.553 -0.7180 -1.9304 -0.7194
  492THF     H7 6390   2.149   5.188   0.624 -0.2532  0.6181 -2.5691
  492THF     C8 6391   2.075   5.338   0.770  0.0292 -0.3105  0.5713
  492THF     C9 6392   2.188   5.325   0.868 -0.3964 -0.7152  0.0885
  492THF    H10 6393   1.994   5.270   0.794 -0.6193  0.4645  0.6233
  492THF    H11 6394   2.038   5.441   0.768 -1.2080 -0.7567 -0.9142
  492THF    H12 6395   2.178   5.421   0.919  1.2184  0.0535 -0.9595
  492THF    H13 6396   2.181   5.242   0.939  0.2915  0.4076  1.5446
  493THF     O1 6397   4.633   0.740   1.189 -0.2012  0.4596 -0.4837
  493THF     C2 6398   4.556   0.655   1.271  0.1826 -0.1866  0.0345
  493THF     C3 6399   4.773   0.732   1.220  0.2646 -0.1474  0.1724
  493THF     H4 6400   4.531   0.557   1.231 -0.7760 -0.4200  1.1281
  493THF     H5 6401   4.465   0.710   1.295  0.0883  0.7873 -2.3310
  493THF     H6 6402   4.818   0.642   1.176  1.3052  0.5364 -0.2095
  493THF     H7 6403   4.828   0.818   1.183  0.6089 -0.5915 -0.3659
  493THF     C8 6404   4.770   0.716   1.370 -0.5251 -0.0501 -0.8237
  493THF     C9 6405   4.649   0.637   1.395  0.6493  0.0006 -0.3373
  493THF    H10 6406   4.772   0.808   1.427  1.8443  1.2015 -2.7324
  493THF    H11 6407   4.857   0.656   1.399 -1.3372 -1.0326 -0.3412
  493THF    H12 6408   4.672   0.531   1.408 -0.3757 -0.2964 -0.8812
  493THF    H13 6409   4.601   0.689   1.478 -0.0205 -1.0622 -0.0423
  494THF     O1 6410   3.087   3.725   4.310  0.2326 -0.4393  0.7378
  494THF     C2 6411   3.053   3.583   4.320 -0.7122  0.0540 -0.5314
  494THF     C3 6412   3.227   3.732   4.355  0.2678 -0.1243 -0.7177
  494THF     H4 6413   3.112   3.519   4.254  0.0044 -3.8864  3.4043
  494THF     H5 6414   2.948   3.564   4.301 -1.1653  2.5388 -0.7812
  494THF     H6 6415   3.306   3.697   4.289  0.3580 -0.9968 -0.1616
  494THF     H7 6416   3.256   3.828   4.398  1.7274 -0.7914 -0.1423
  494THF     C8 6417   3.227   3.638   4.483  0.9837 -0.1142  0.2170
  494THF     C9 6418   3.096   3.555   4.464  1.0341 -0.0507  0.5600
  494THF    H10 6419   3.229   3.688   4.580  0.5272  1.2643 -0.4556
  494THF    H11 6420   3.312   3.569   4.485  0.2719 -0.9953  2.0362
  494THF    H12 6421   3.112   3.449   4.482  2.1480 -0.0424 -0.2771
  494THF    H13 6422   3.018   3.598   4.527  0.3318  1.9466 -1.5442
  495THF     O1 6423   4.475   1.876   4.403  0.0441  0.2865 -0.6483
  495THF     C2 6424   4.446   1.902   4.265  0.6412 -0.0172 -0.3883
  495THF     C3 6425   4.366   1.911   4.480 -0.2394  0.2876 -0.1426
  495THF     H4 6426   4.512   1.848   4.196  2.0048 -0.5078  1.2211
  495THF     H5 6427   4.460   2.009   4.250 -0.7011  0.3728  0.9193
  495THF     H6 6428   4.362   1.856   4.575  0.5189 -2.4832 -1.6006
  495THF     H7 6429   4.376   2.016   4.505  1.3299  0.5545 -1.7225
  495THF     C8 6430   4.248   1.867   4.388  0.1654 -0.5066 -0.6330
  495THF     C9 6431   4.301   1.852   4.252 -0.8465 -0.2091  0.1960
  495THF    H10 6432   4.177   1.949   4.384  0.4328 -0.2662 -0.4347
  495THF    H11 6433   4.198   1.777   4.425  0.3911  0.3628  1.9570
  495THF    H12 6434   4.297   1.746   4.223  0.1310  0.1132 -1.2288
  495THF    H13 6435   4.234   1.904   4.184  0.7087  3.9227  1.5665
  496THF     O1 6436   1.329   4.338   4.551  0.2037 -0.6055 -0.2580
  496THF     C2 6437   1.290   4.332   4.414 -0.5366 -0.3715 -0.0777
  496THF     C3 6438   1.429   4.440   4.577 -0.6597  0.0409  0.6307
  496THF     H4 6439   1.202   4.394   4.398 -1.4341 -2.0402 -2.1360
  496THF     H5 6440   1.261   4.233   4.379  0.4220 -1.5492  2.2535
  496THF     H6 6441   1.370   4.521   4.620 -0.0886  0.2895  0.9517
  496THF     H7 6442   1.499   4.414   4.656 -0.3081  1.7370  0.9235
  496THF     C8 6443   1.497   4.474   4.441  0.2240 -0.2865  0.5550
  496THF     C9 6444   1.416   4.387   4.337  0.3294 -0.7277 -0.2679
  496THF    H10 6445   1.603   4.450   4.436  0.2445 -0.1188  0.0975
  496THF    H11 6446   1.488   4.581   4.425 -1.0187 -0.2133  1.5951
  496THF    H12 6447   1.391   4.438   4.244  1.2733  1.1840  0.4830
  496THF    H13 6448   1.473   4.297   4.315 -0.7030 -0.6943 -3.5093
  497THF     O1 6449   1.428   1.731   2.885 -0.2365  0.1454  0.3321
  497THF     C2 6450   1.560   1.787   2.869 -0.6859  0.8484  0.0101
  497THF     C3 6451   1.347   1.825   2.954  0.4124  0.0869  0.2220
  497THF     H4 6452   1.602   1.753   2.774  0.7408 -0.0504  0.9267
  497THF     H5 6453   1.624   1.753   2.950 -2.0398 -1.1071  0.3406
  497THF     H6 6454   1.244   1.814   2.920  0.9028 -0.3542 -1.1779
  497THF     H7 6455   1.358   1.790   3.057 -0.9330 -1.3775 -0.0879
  497THF     C8 6456   1.404   1.963   2.925  0.1217  0.0138  0.7580
  497THF     C9 6457   1.544   1.937   2.874 -0.1178  0.4767 -0.5240
  497THF    H10 6458   1.384   2.041   2.998 -0.9599  1.7183 -1.2656
  497THF    H11 6459   1.349   1.992   2.836 -0.1326 -1.5679  0.3560
  497THF    H12 6460   1.560   1.972   2.772  0.9362 -0.9097 -0.8527
  497THF    H13 6461   1.618   1.980   2.942 -0.4792 -0.7705  0.7206
  498THF     O1 6462   4.584   0.144   2.547  0.4974 -0.6898 -0.3865
  498THF     C2 6463   4.544   0.047   2.643 -0.4882 -0.2930  0.0956
  498THF     C3 6464   4.666   0.236   2.621  0.2679  0.7597  0.5234
  498THF     H4 6465   4.590  -0.046   2.610  1.4956  0.8585 -0.5221
  498THF     H5 6466   4.436   0.037   2.656 -0.4304  0.3764  1.2514
  498THF     H6 6467   4.773   0.213   2.620 -0.4096 -3.0431  0.4588
  498THF     H7 6468   4.662   0.333   2.571 -0.7673 -0.6619 -2.3885
  498THF     C8 6469   4.606   0.238   2.758  0.0860  0.2725  0.4519
  498THF     C9 6470   4.596   0.091   2.777 -0.4679 -0.3564  0.3921
  498THF    H10 6471   4.509   0.286   2.752 -0.9446 -1.5903  1.2249
  498THF    H11 6472   4.661   0.276   2.844  1.8067 -0.4946 -0.2473
  498THF    H12 6473   4.695   0.047   2.795 -0.4339 -0.7003 -0.5816
  498THF    H13 6474   4.523   0.067   2.854 -1.0908 -1.6624 -0.5769
  499THF     O1 6475   0.963   3.569   2.299  0.2482  0.3606  0.1442
  499THF     C2 6476   1.023   3.503   2.185  0.0388  0.5828  0.4192
  499THF     C3 6477   0.914   3.468   2.390 -1.1327  0.1697 -0.0439
  499THF     H4 6478   1.106   3.554   2.136  0.2322 -0.8606 -0.8147
  499THF     H5 6479   0.954   3.510   2.101 -1.5353 -1.5629  1.4292
  499THF     H6 6480   0.903   3.498   2.494  0.9940  1.6241 -0.1482
  499THF     H7 6481   0.825   3.429   2.342 -0.2199 -0.3633 -1.3717
  499THF     C8 6482   1.020   3.356   2.376  0.1387  0.4429  0.4496
  499THF     C9 6483   1.050   3.358   2.222 -0.3513  0.2302  0.4551
  499THF    H10 6484   0.990   3.260   2.417 -1.3598  0.7245  0.0661
  499THF    H11 6485   1.111   3.387   2.429  0.2355 -0.1229  0.6184
  499THF    H12 6486   1.156   3.336   2.207 -0.1968 -0.2968  2.0912
  499THF    H13 6487   0.990   3.289   2.163  0.3807  0.0773 -0.1227
  500THF     O1 6488   3.333   1.150   2.534  0.1861 -0.1065 -0.1895
  500THF     C2 6489   3.397   1.274   2.522 -0.0176 -0.0485  0.0635
  500THF     C3 6490   3.414   1.072   2.623 -0.1518  0.4345 -0.6457
  500THF     H4 6491   3.395   1.326   2.618 -0.5943 -0.3040  0.1941
  500THF     H5 6492   3.355   1.338   2.445 -1.4086 -0.7274  0.2329
  500THF     H6 6493   3.375   1.080   2.725 -0.6749  1.7886 -0.9405
  500THF     H7 6494   3.413   0.968   2.589  0.5209 -0.3726  1.5892
  500THF     C8 6495   3.555   1.125   2.605 -0.4132 -0.1721 -0.1134
  500THF     C9 6496   3.547   1.231   2.501  0.4572  0.4367 -1.2644
  500THF    H10 6497   3.626   1.045   2.586  0.8206  0.3297  2.0290
  500THF    H11 6498   3.599   1.173   2.693 -1.4438 -0.6557  0.6837
  500THF    H12 6499   3.616   1.313   2.521  0.4577  0.2438 -0.3977
  500THF    H13 6500   3.566   1.180   2.407 -0.2496 -0.9083 -0.7116
  501THF     O1 6501   1.653   1.268   2.849  0.6997  0.0853  0.1521
  501THF     C2 6502   1.657   1.389   2.921 -0.0713  0.2371 -0.5659
  501THF     C3 6503   1.549   1.195   2.909  0.3883  0.5899 -0.4556
  501THF     H4 6504   1.726   1.462   2.878 -0.6661 -0.1261 -2.2203
  501THF     H5 6505   1.698   1.358   3.017 -0.2576  0.9436 -0.2536
  501THF     H6 6506   1.513   1.116   2.843  2.6100 -1.6003  0.7776
  501THF     H7 6507   1.592   1.141   2.993 -0.5278 -0.8690 -0.8830
  501THF     C8 6508   1.438   1.292   2.945  0.0270  0.5227 -0.1258
  501THF     C9 6509   1.513   1.417   2.943  0.6883 -0.8517  0.5000
  501THF    H10 6510   1.392   1.265   3.040  0.4669 -0.0148 -0.0543
  501THF    H11 6511   1.360   1.290   2.869  1.2743  1.3992 -1.4856
  501THF    H12 6512   1.472   1.480   2.864  0.2730  1.1668  2.2030
  501THF    H13 6513   1.499   1.472   3.036 -0.4108 -1.5315  0.7507
  502THF     O1 6514   1.510   2.380   3.836  0.0949  0.9412  0.2580
  502THF     C2 6515   1.622   2.300   3.887 -0.2026  0.5926  0.7352
  502THF     C3 6516   1.483   2.351   3.697 -0.5324  0.6954  0.4579
  502THF     H4 6517   1.600   2.214   3.949  0.2267  0.8851  1.3048
  502THF     H5 6518   1.673   2.371   3.953  1.1783 -1.3699  1.8983
  502THF     H6 6519   1.397   2.285   3.684  1.6166 -2.2246 -0.2055
  502THF     H7 6520   1.471   2.433   3.626 -0.6828  2.3789  2.3629
  502THF     C8 6521   1.610   2.272   3.659  0.2871 -0.7828  0.3389
  502THF     C9 6522   1.712   2.280   3.761  0.0636 -0.0600 -0.0161
  502THF    H10 6523   1.626   2.291   3.552 -0.8895 -2.7192 -0.2352
  502THF    H11 6524   1.583   2.167   3.659 -1.0835 -0.4592  0.6280
  502THF    H12 6525   1.774   2.190   3.758  1.5119  0.9344 -2.4186
  502THF    H13 6526   1.779   2.363   3.741 -0.0421 -0.3773 -1.8075
  503THF     O1 6527   2.116   2.370   2.932  0.1818 -0.2375  0.6067
  503THF     C2 6528   2.241   2.411   2.988  0.0831  0.2709  0.0465
  503THF     C3 6529   2.071   2.464   2.840  0.6840 -0.4456 -0.4701
  503THF     H4 6530   2.322   2.392   2.917 -1.3171 -0.8885 -1.2776
  503THF     H5 6531   2.253   2.366   3.087  0.8147  0.7302  0.1808
  503THF     H6 6532   2.076   2.426   2.738  0.0766 -0.8620 -0.3516
  503THF     H7 6533   1.968   2.492   2.864  0.6208  0.0542 -1.2667
  503THF     C8 6534   2.156   2.593   2.872  0.3191  0.1864  0.3115
  503THF     C9 6535   2.219   2.560   3.002 -0.8156  0.3776 -0.0568
  503THF    H10 6536   2.103   2.688   2.865 -0.9199 -0.5811 -1.5235
  503THF    H11 6537   2.237   2.599   2.800  0.2808  1.9670  0.3728
  503THF    H12 6538   2.311   2.617   3.012 -1.1386  0.9218 -0.1002
  503THF    H13 6539   2.162   2.592   3.089  1.9366 -1.3730  2.5623
  504THF     O1 6540   4.634   5.113   3.156  0.4411 -0.4488  0.2296
  504THF     C2 6541   4.705   5.151   3.037  1.1530 -0.0811  0.1334
  504THF     C3 6542   4.689   4.985   3.192 -0.1078  0.6847 -0.6198
  504THF     H4 6543   4.694   5.257   3.015 -2.7237 -0.5151 -0.8349
  504THF     H5 6544   4.672   5.095   2.950  1.1915  0.2904 -0.1185
  504THF     H6 6545   4.668   4.962   3.296 -1.4374 -0.8979 -1.1765
  504THF     H7 6546   4.643   4.899   3.142  0.3366  0.7809 -1.2072
  504THF     C8 6547   4.838   4.998   3.169  0.4740 -0.5557 -1.1077
  504THF     C9 6548   4.847   5.119   3.074 -0.7914  1.0884 -0.3544
  504THF    H10 6549   4.884   4.907   3.130  1.9800 -1.3348  2.1410
  504THF    H11 6550   4.902   5.007   3.257  1.1553 -2.8112 -1.3149
  504THF    H12 6551   4.889   5.182   3.153  1.0588  0.2361 -0.6166
  504THF    H13 6552   4.927   5.110   3.000 -1.4714  3.2330 -1.4382
  505THF     O1 6553   0.927   2.436   1.711 -0.0498  0.2916 -0.1328
  505THF     C2 6554   0.948   2.348   1.605  0.1831  0.2682 -0.4421
  505THF     C3 6555   0.802   2.392   1.781 -0.2840 -0.2404  0.1388
  505THF     H4 6556   1.050   2.346   1.566  0.4345  1.8829  0.0652
  505THF     H5 6557   0.894   2.388   1.519  1.5067 -2.6648 -2.8503
  505THF     H6 6558   0.797   2.421   1.886  1.5789  1.6628 -0.2308
  505THF     H7 6559   0.716   2.429   1.727  0.9158 -0.7472 -2.2450
  505THF     C8 6560   0.793   2.240   1.757 -0.1726  0.2082 -0.1207
  505THF     C9 6561   0.901   2.213   1.655  0.7612 -0.0158  0.2587
  505THF    H10 6562   0.694   2.207   1.726 -0.1505  0.4259 -0.4284
  505THF    H11 6563   0.819   2.187   1.849 -2.9141  0.5925  0.9884
  505THF    H12 6564   0.979   2.155   1.704 -2.2378 -0.0791  5.8117
  505THF    H13 6565   0.867   2.159   1.566 -0.9586 -0.5366  1.1716
  506THF     O1 6566   0.417   1.219   4.739  0.4839  0.2599  0.7996
  506THF     C2 6567   0.553   1.223   4.684  1.0705  0.0449  0.4595
  506THF     C3 6568   0.361   1.344   4.704  0.0707  0.7377 -0.3193
  506THF     H4 6569   0.577   1.132   4.630  2.0100  0.1331  0.7239
  506THF     H5 6570   0.633   1.232   4.757 -0.3262 -0.5428  2.1653
  506THF     H6 6571   0.253   1.348   4.719 -0.0882  0.6977 -1.3558
  506THF     H7 6572   0.395   1.419   4.776 -0.3144  0.1124  0.5324
  506THF     C8 6573   0.414   1.373   4.565  0.5305  0.3721 -0.2177
  506THF     C9 6574   0.556   1.336   4.585  0.3815 -0.3770 -0.2028
  506THF    H10 6575   0.399   1.480   4.554 -1.7939 -0.0604 -1.8500
  506THF    H11 6576   0.367   1.304   4.496  2.1905 -1.0054 -0.0424
  506THF    H12 6577   0.615   1.301   4.501 -0.5008 -1.9870 -0.1935
  506THF    H13 6578   0.598   1.428   4.626  1.1738 -0.2406 -1.2822
  507THF     O1 6579   5.458   4.542   3.767 -0.2659  0.1022 -0.2844
  507THF     C2 6580   5.508   4.674   3.798  0.0264  0.0588 -0.1644
  507THF     C3 6581   5.337   4.559   3.693  0.2808 -0.0524  0.4193
  507THF     H4 6582   5.615   4.668   3.816  0.0085 -2.1448 -0.4967
  507THF     H5 6583   5.464   4.724   3.884 -1.9130 -0.2333 -0.9223
  507THF     H6 6584   5.300   4.470   3.641 -1.5864  0.2602  1.1366
  507THF     H7 6585   5.250   4.601   3.743  0.9361 -0.0934  1.6359
  507THF     C8 6586   5.385   4.670   3.591 -0.3720 -0.0751 -0.0751
  507THF     C9 6587   5.491   4.762   3.665  0.1733  0.0291 -0.6066
  507THF    H10 6588   5.304   4.732   3.553  0.0775 -1.1412 -3.0709
  507THF    H11 6589   5.433   4.620   3.507  0.6730  0.2687  0.3027
  507THF    H12 6590   5.583   4.774   3.607  0.4794 -1.8229 -0.5654
  507THF    H13 6591   5.447   4.861   3.677  1.7812  0.5478  1.4099
  508THF     O1 6592   5.116   3.134   3.784 -0.1149  0.2197  0.0795
  508THF     C2 6593   4.990   3.091   3.833  0.0796  0.0137 -0.9059
  508THF     C3 6594   5.089   3.253   3.705 -0.7686  0.2097  0.4338
  508THF     H4 6595   5.001   3.057   3.936 -1.2349  1.2321 -0.3204
  508THF     H5 6596   4.949   3.006   3.779 -2.7592  0.6859  0.0157
  508THF     H6 6597   5.127   3.341   3.757 -0.5748  0.7038 -0.5215
  508THF     H7 6598   5.138   3.259   3.608 -0.9195  4.0645  0.4285
  508THF     C8 6599   4.939   3.273   3.690  0.3100  0.5714  0.4382
  508THF     C9 6600   4.894   3.206   3.817 -0.2245 -0.1072 -0.4264
  508THF    H10 6601   4.897   3.234   3.597 -2.0669 -0.4119  1.8465
  508THF    H11 6602   4.918   3.380   3.691  3.4117  1.4553 -3.2393
  508THF    H12 6603   4.905   3.276   3.899 -1.3418  2.3689 -2.2697
  508THF    H13 6604   4.791   3.171   3.829 -0.1624 -0.2959 -0.4405
  509THF     O1 6605   4.774   1.382   1.590 -0.6989  0.1064 -0.7401
  509THF     C2 6606   4.810   1.252   1.625  0.4235  0.5247 -0.7445
  509THF     C3 6607   4.642   1.380   1.543 -1.0325 -0.5977 -0.8884
  509THF     H4 6608   4.883   1.238   1.704  0.9761 -0.0668 -1.3343
  509THF     H5 6609   4.839   1.193   1.537  0.8586 -1.5445  0.6981
  509THF     H6 6610   4.592   1.474   1.562  1.8384  0.3745  3.1456
  509THF     H7 6611   4.660   1.377   1.435  1.8567  1.7045 -0.5951
  509THF     C8 6612   4.576   1.246   1.590 -0.6355  0.0530 -0.7801
  509THF     C9 6613   4.677   1.191   1.682  0.1773  0.5563 -0.4166
  509THF    H10 6614   4.541   1.191   1.503 -1.4064  0.1320 -0.5275
  509THF    H11 6615   4.491   1.266   1.654  1.3928  0.7315  1.9162
  509THF    H12 6616   4.665   1.241   1.778  0.5870 -3.7541  2.1253
  509THF    H13 6617   4.668   1.083   1.694  0.6228 -0.0530 -4.3404
  510THF     O1 6618   0.933   0.233   0.585 -0.0047 -0.2169  0.2767
  510THF     C2 6619   0.824   0.306   0.522 -0.1603 -0.3789  0.5803
  510THF     C3 6620   0.874   0.142   0.679  0.1433  0.2973  0.2509
  510THF     H4 6621   0.854   0.354   0.428 -0.9781  2.4906  1.6896
  510THF     H5 6622   0.810   0.393   0.586  1.7702  0.6112 -0.2519
  510THF     H6 6623   0.950   0.066   0.698  0.6079  0.9637  1.1331
  510THF     H7 6624   0.853   0.192   0.773 -1.0321 -0.2663  0.3015
  510THF     C8 6625   0.742   0.099   0.615  0.0762  0.1072 -0.1478
  510THF     C9 6626   0.717   0.201   0.506  0.1945 -0.9560  0.1962
  510THF    H10 6627   0.663   0.107   0.690 -0.5214  2.0956 -0.9134
  510THF    H11 6628   0.748   0.005   0.561  0.5121  0.5767 -0.9379
  510THF    H12 6629   0.739   0.151   0.412  2.1910 -3.4373  1.8343
  510THF    H13 6630   0.613   0.232   0.519  0.4957  1.0501 -1.7288
  511THF     O1 6631   0.917   1.830   3.403 -0.1895 -0.7437 -0.2458
  511THF     C2 6632   1.040   1.904   3.403  0.2208  0.0313 -0.2168
  511THF     C3 6633   0.805   1.918   3.363 -0.1378  0.1660 -0.8384
  511THF     H4 6634   1.126   1.839   3.387  0.4565 -0.1060  1.4408
  511THF     H5 6635   1.036   1.958   3.497 -1.7133  1.3421 -0.9932
  511THF     H6 6636   0.723   1.851   3.337  0.1920 -0.1484 -1.0718
  511THF     H7 6637   0.760   1.977   3.443  0.6722 -0.7287  0.3231
  511THF     C8 6638   0.868   2.004   3.255 -0.2095 -0.4210 -0.2228
  511THF     C9 6639   1.009   2.007   3.293 -0.0201 -0.0670 -0.1562
  511THF    H10 6640   0.819   2.097   3.227  0.3498  0.2286  0.8946
  511THF    H11 6641   0.866   1.943   3.164  1.8507  1.3778 -1.5788
  511THF    H12 6642   1.070   1.992   3.204  1.4092 -0.1693  0.8005
  511THF    H13 6643   1.031   2.104   3.337  0.2774 -0.2776  0.1715
  512THF     O1 6644   3.026   0.652   1.421  0.2414 -0.5551 -0.3884
  512THF     C2 6645   2.942   0.563   1.485  1.1433 -0.6051  0.1401
  512THF     C3 6646   3.108   0.712   1.520 -0.0074  0.4134 -0.4273
  512THF     H4 6647   2.993   0.468   1.501 -0.3751 -1.2632  1.2267
  512THF     H5 6648   2.854   0.551   1.422 -0.1569  0.3807  1.6999
  512THF     H6 6649   3.216   0.695   1.519 -0.0585  0.0114  0.5752
  512THF     H7 6650   3.113   0.820   1.502  0.5279  0.8357  1.9724
  512THF     C8 6651   3.058   0.667   1.656 -0.7552 -0.1930 -0.1819
  512THF     C9 6652   2.919   0.627   1.620  1.1241  0.0680  0.1049
  512THF    H10 6653   3.065   0.747   1.730 -0.4376 -0.1810 -0.2235
  512THF    H11 6654   3.120   0.582   1.684  1.5625  1.1550 -0.9557
  512THF    H12 6655   2.879   0.550   1.686 -1.6953  1.0036 -0.3366
  512THF    H13 6656   2.843   0.705   1.609  0.4447 -0.6978 -0.8011
  513THF     O1 6657   0.302   1.980   0.253 -0.6622  0.1330  0.8678
  513THF     C2 6658   0.334   1.869   0.327 -0.0216  0.5082  0.3655
  513THF     C3 6659   0.383   1.979   0.131  0.5341 -0.1311  0.1908
  513THF     H4 6660   0.273   1.786   0.290  1.1483 -0.2789  0.1314
  513THF     H5 6661   0.322   1.861   0.435  0.7937 -0.2493  0.4130
  513THF     H6 6662   0.320   1.973   0.042 -0.3504 -3.0031  0.9248
  513THF     H7 6663   0.448   2.067   0.119 -1.0805  1.2000  0.8052
  513THF     C8 6664   0.459   1.855   0.143 -0.4239 -0.5656  0.0706
  513THF     C9 6665   0.475   1.830   0.294 -0.2239 -0.4941  0.5671
  513THF    H10 6666   0.549   1.857   0.081  0.5227  2.9234  1.3105
  513THF    H11 6667   0.400   1.773   0.102  1.2592 -1.5829 -0.4233
  513THF    H12 6668   0.491   1.728   0.330 -0.7761 -0.3585  1.1935
  513THF    H13 6669   0.550   1.898   0.334  0.7455 -0.6514 -0.8764
  514THF     O1 6670   2.330   3.257   1.287  0.2398 -0.3498 -0.8880
  514THF     C2 6671   2.270   3.305   1.404 -0.0201  0.1149 -0.3076
  514THF     C3 6672   2.297   3.120   1.282  0.9626 -0.6939  0.3114
  514THF     H4 6673   2.261   3.414   1.411 -1.2718 -0.0376  1.2121
  514THF     H5 6674   2.329   3.284   1.494  2.0022  1.1810 -1.3285
  514THF     H6 6675   2.326   3.089   1.181  2.4663  1.1550  0.1113
  514THF     H7 6676   2.343   3.055   1.356 -0.7375 -3.8877 -1.1895
  514THF     C8 6677   2.145   3.118   1.307 -0.2898 -0.8216  0.5073
  514THF     C9 6678   2.126   3.239   1.407  0.6815  0.2790 -0.4567
  514THF    H10 6679   2.112   3.020   1.342 -1.1997 -1.2986 -1.5205
  514THF    H11 6680   2.093   3.135   1.213  0.6334 -1.1435 -0.0647
  514THF    H12 6681   2.047   3.301   1.364  1.6502  2.1859  0.3940
  514THF    H13 6682   2.105   3.214   1.511 -1.3188 -0.2323 -0.9323
  515THF     O1 6683   0.881   1.212   1.721 -0.2251 -0.1440 -0.0385
  515THF     C2 6684   0.791   1.255   1.818  0.1893 -0.2122 -0.0547
  515THF     C3 6685   0.976   1.127   1.787 -0.2648  0.5328 -0.4168
  515THF     H4 6686   0.711   1.183   1.830 -2.2616  1.9433 -2.2555
  515THF     H5 6687   0.747   1.348   1.782  0.3761 -0.0200  0.2132
  515THF     H6 6688   0.924   1.032   1.799 -2.0614  1.5172 -0.0056
  515THF     H7 6689   1.064   1.096   1.731 -0.1014  1.6037 -0.7901
  515THF     C8 6690   1.003   1.197   1.922  0.0713 -0.1188 -0.0850
  515THF     C9 6691   0.868   1.265   1.953  0.2047 -0.1861 -0.4254
  515THF    H10 6692   1.073   1.277   1.897  1.1160 -1.5174 -1.9325
  515THF    H11 6693   1.035   1.125   1.997 -1.8995 -1.1192 -0.1410
  515THF    H12 6694   0.807   1.218   2.030  0.0330  2.5859  1.2256
  515THF    H13 6695   0.883   1.367   1.988 -0.8657 -0.5848  1.2944
  516THF     O1 6696   2.398   0.143   0.140 -0.3645 -0.4269 -0.0418
  516THF     C2 6697   2.264   0.159   0.192 -0.3920  0.0494  0.1302
  516THF     C3 6698   2.434   0.271   0.101 -0.5149  0.1642 -0.3499
  516THF     H4 6699   2.226   0.096   0.272 -2.5687  1.4110  0.2488
  516THF     H5 6700   2.190   0.145   0.113  2.4845  1.1194 -2.9673
  516THF     H6 6701   2.543   0.271   0.106 -0.5407  1.1837  0.6230
  516THF     H7 6702   2.397   0.295   0.001 -2.6294 -1.3995  0.0017
  516THF     C8 6703   2.374   0.369   0.199  0.4144  0.1042  0.2835
  516THF     C9 6704   2.257   0.294   0.259  0.1753  0.0833 -0.1500
  516THF    H10 6705   2.349   0.460   0.145 -0.5193 -0.9490 -1.1162
  516THF    H11 6706   2.448   0.398   0.274  0.5400  0.5320 -0.0016
  516THF    H12 6707   2.292   0.288   0.362  0.3013  1.8358 -0.0452
  516THF    H13 6708   2.159   0.341   0.251  0.1467  0.7067  2.6461
  517THF     O1 6709   1.194   1.597   3.559  0.3323 -0.4341  0.5648
  517THF     C2 6710   1.243   1.694   3.652 -0.5610 -0.5557  0.0313
  517THF     C3 6711   1.276   1.481   3.551 -0.9403  0.1461 -0.3046
  517THF     H4 6712   1.169   1.708   3.731 -0.9109  1.4065 -0.5975
  517THF     H5 6713   1.250   1.785   3.593  0.6259 -1.6328 -1.5877
  517THF     H6 6714   1.218   1.389   3.544  1.7686 -1.6453 -0.3053
  517THF     H7 6715   1.346   1.486   3.469 -1.8398 -1.4951 -1.2245
  517THF     C8 6716   1.357   1.484   3.684 -0.1194  0.5844 -0.1124
  517THF     C9 6717   1.375   1.635   3.699  0.2491 -0.3178 -0.3774
  517THF    H10 6718   1.454   1.436   3.683 -0.8990 -1.0665  0.4008
  517THF    H11 6719   1.294   1.443   3.763 -0.3899 -0.9421 -1.0718
  517THF    H12 6720   1.380   1.660   3.805 -1.4306 -0.5485 -0.2086
  517THF    H13 6721   1.456   1.678   3.641  0.7838  1.0311  1.2721
  518THF     O1 6722   2.406   0.418   2.049  0.5550 -0.0840  0.9808
  518THF     C2 6723   2.353   0.295   2.105 -0.5722 -0.0444  0.8893
  518THF     C3 6724   2.548   0.406   2.040  0.8795  0.0610  0.3845
  518THF     H4 6725   2.255   0.295   2.058 -0.3363 -4.2852  0.0007
  518THF     H5 6726   2.347   0.320   2.211 -3.6251  0.0085  0.8004
  518THF     H6 6727   2.578   0.430   1.938 -2.3945 -0.5064 -0.8532
  518THF     H7 6728   2.602   0.474   2.105 -0.2961 -0.7595  2.3107
  518THF     C8 6729   2.584   0.266   2.072  0.2128  0.0661 -0.7186
  518THF     C9 6730   2.459   0.193   2.062  0.2273  0.0585  0.1629
  518THF    H10 6731   2.614   0.258   2.177 -0.3367  0.9878 -0.4819
  518THF    H11 6732   2.669   0.233   2.012  1.8181  1.8441  0.4584
  518THF    H12 6733   2.437   0.165   1.959  0.1500  3.7084 -0.9684
  518THF    H13 6734   2.471   0.107   2.127 -2.5680 -0.5294  0.0233
  519THF     O1 6735   5.038   5.331   1.370  0.8431 -0.1667 -0.1438
  519THF     C2 6736   5.067   5.428   1.472 -0.0162  0.4059  0.3869
  519THF     C3 6737   4.919   5.270   1.391  0.2171 -0.5884  0.1568
  519THF     H4 6738   5.006   5.519   1.470 -1.0838 -0.2789 -1.6675
  519THF     H5 6739   5.168   5.467   1.478  1.0034 -1.8780 -0.8959
  519THF     H6 6740   4.831   5.319   1.349  0.4998 -0.1674  0.0508
  519THF     H7 6741   4.923   5.173   1.341  0.1179  0.0402 -1.1057
  519THF     C8 6742   4.901   5.269   1.543  0.4117 -0.1886  0.3799
  519THF     C9 6743   5.031   5.339   1.589  0.0957 -0.0536 -0.7999
  519THF    H10 6744   4.889   5.174   1.596  1.5452  0.8984  2.7523
  519THF    H11 6745   4.809   5.320   1.569 -0.3490  0.7242 -3.4625
  519THF    H12 6746   5.011   5.389   1.684  2.3553 -3.2196  1.5558
  519THF    H13 6747   5.107   5.266   1.613  1.1149  0.7765 -1.4078
  520THF     O1 6748   2.340   4.910   1.132  0.0035  0.1223  0.4676
  520THF     C2 6749   2.332   4.853   1.262 -0.0423  0.6498 -0.3157
  520THF     C3 6750   2.350   5.051   1.139 -0.5003  0.1522  0.6333
  520THF     H4 6751   2.368   4.751   1.278 -1.5319  0.4105  2.1958
  520THF     H5 6752   2.229   4.860   1.299 -0.3515  0.5947 -1.1559
  520THF     H6 6753   2.395   5.092   1.048 -1.8413 -1.3243 -0.7513
  520THF     H7 6754   2.247   5.081   1.155 -0.9220 -0.2804 -1.0657
  520THF     C8 6755   2.438   5.069   1.265  0.0832  0.0829 -0.5933
  520THF     C9 6756   2.429   4.941   1.345 -0.6572 -0.4831  0.4414
  520THF    H10 6757   2.419   5.161   1.320 -0.7552  0.9027 -2.1631
  520THF    H11 6758   2.541   5.091   1.236  1.1042 -2.9841  0.3311
  520THF    H12 6759   2.524   4.889   1.358  0.7068  1.0826 -2.2371
  520THF    H13 6760   2.388   4.957   1.445 -0.4975 -0.2288  0.4653
  521THF     O1 6761   0.812   4.206   1.595  0.1644 -0.7384 -0.4800
  521THF     C2 6762   0.807   4.306   1.497  0.0908  0.2243 -0.0683
  521THF     C3 6763   0.900   4.097   1.556 -0.8323  0.5666  0.2002
  521THF     H4 6764   0.851   4.398   1.533 -0.7287  1.0230 -1.0322
  521THF     H5 6765   0.705   4.322   1.462 -0.3938 -1.1691  0.6315
  521THF     H6 6766   0.998   4.137   1.580 -0.3530 -0.0335 -0.7074
  521THF     H7 6767   0.871   4.005   1.607 -0.7648 -0.3868 -1.4390
  521THF     C8 6768   0.906   4.103   1.404  0.2912  0.5182 -0.5124
  521THF     C9 6769   0.892   4.254   1.381 -1.0246 -0.2672  0.5948
  521THF    H10 6770   0.818   4.061   1.354  0.2439  0.8094 -0.6776
  521THF    H11 6771   0.999   4.060   1.368 -0.0340  1.0466 -2.0517
  521THF    H12 6772   0.994   4.291   1.374  0.5064 -4.2713 -1.0651
  521THF    H13 6773   0.842   4.276   1.287  1.3546 -1.4267 -1.0093
  522THF     O1 6774   2.205   1.538   2.609  0.3908 -0.1256  0.3582
  522THF     C2 6775   2.082   1.529   2.536 -0.0612  0.4672  0.5369
  522THF     C3 6776   2.264   1.660   2.576 -0.0164  0.0286  0.3554
  522THF     H4 6777   2.000   1.584   2.582 -0.0184  0.8272  0.1953
  522THF     H5 6778   2.048   1.426   2.529  2.0967 -0.2320 -0.5351
  522THF     H6 6779   2.216   1.727   2.648  1.1796 -0.5389  1.7366
  522THF     H7 6780   2.371   1.672   2.596  0.3502  0.8407 -1.8661
  522THF     C8 6781   2.221   1.698   2.434 -0.3934  0.7371  0.2588
  522THF     C9 6782   2.108   1.601   2.401 -0.4388  0.1978 -0.0375
  522THF    H10 6783   2.301   1.697   2.359 -0.3595  1.4162  0.2863
  522THF    H11 6784   2.185   1.800   2.431  0.6425  1.1046 -0.1935
  522THF    H12 6785   2.027   1.655   2.351 -1.6549  1.2833  2.9219
  522THF    H13 6786   2.146   1.522   2.335  1.8448 -1.4657  2.9951
  523THF     O1 6787   4.907   0.043   0.207 -0.6143  0.2896 -0.3476
  523THF     C2 6788   4.991   0.072   0.097 -0.3425  0.0162 -0.4714
  523THF     C3 6789   4.923  -0.096   0.224  0.0851  0.0053 -0.4935
  523THF     H4 6790   5.097   0.075   0.125 -0.6682  0.2079  0.7914
  523THF     H5 6791   4.940   0.159   0.054  1.5697  1.1079 -0.6578
  523THF     H6 6792   5.020  -0.119   0.270  1.2945  0.1714 -2.8032
  523THF     H7 6793   4.843  -0.138   0.286  0.7911 -0.2784  0.2510
  523THF     C8 6794   4.924  -0.153   0.081 -0.0414  0.4242  0.5541
  523THF     C9 6795   4.951  -0.035  -0.009 -0.0885  0.9081  0.2802
  523THF    H10 6796   4.835  -0.209   0.051  0.2908 -0.3277  0.9376
  523THF    H11 6797   5.000  -0.231   0.073  0.9011  1.3551  0.2178
  523THF    H12 6798   5.035  -0.051  -0.075 -0.3312 -1.7914  0.5396
  523THF    H13 6799   4.860  -0.001  -0.060 -1.6690 -1.9862  0.9549
  524THF     O1 6800   2.972   4.087   4.227 -0.8751 -0.1884  0.2312
  524THF     C2 6801   2.874   4.192   4.235  0.2094  0.2366  0.6992
  524THF     C3 6802   3.097   4.141   4.277  0.3484  0.7018 -0.2274
  524THF     H4 6803   2.776   4.144   4.235  0.2893  0.0516 -0.4762
  524THF     H5 6804   2.884   4.263   4.153 -1.3444  0.8407  0.9977
  524THF     H6 6805   3.158   4.054   4.301 -0.8326 -0.3229 -0.8194
  524THF     H7 6806   3.154   4.192   4.199  2.4382 -0.9316  0.1412
  524THF     C8 6807   3.051   4.231   4.390  0.6032 -0.1078 -0.5900
  524THF     C9 6808   2.908   4.269   4.363 -0.1187  0.0920  0.0533
  524THF    H10 6809   3.121   4.313   4.408 -0.7212  1.0138 -0.4129
  524THF    H11 6810   3.044   4.166   4.477 -0.1926  0.7354  0.0004
  524THF    H12 6811   2.843   4.238   4.445 -0.4298  1.2343  0.2635
  524THF    H13 6812   2.888   4.375   4.344 -1.8981 -0.4994 -1.7410
  525THF     O1 6813   5.172   5.211   2.110 -0.6258  0.0237  0.4342
  525THF     C2 6814   5.275   5.118   2.128 -0.2303 -0.0894 -0.1820
  525THF     C3 6815   5.111   5.173   1.984  0.4687  0.4786 -0.1302
  525THF     H4 6816   5.303   5.123   2.233 -2.6687  0.0518  0.5270
  525THF     H5 6817   5.363   5.157   2.076 -0.0658  1.3449  1.1072
  525THF     H6 6818   5.018   5.224   1.960  0.9137  0.3901 -2.2968
  525THF     H7 6819   5.181   5.203   1.906  1.3842 -0.1435  0.4322
  525THF     C8 6820   5.112   5.026   1.986  0.8346  0.2896  0.0259
  525THF     C9 6821   5.222   4.981   2.079  0.7104  0.2013 -0.2493
  525THF    H10 6822   5.121   4.977   1.889 -0.4240  0.9764 -0.4637
  525THF    H11 6823   5.015   4.994   2.024  0.2771  0.4441 -1.2117
  525THF    H12 6824   5.178   4.916   2.154 -0.8349 -0.1122 -1.3742
  525THF    H13 6825   5.298   4.924   2.025 -0.6626  0.7548 -2.9373
  526THF     O1 6826   0.190   1.585   4.929  0.1855  0.4150  0.0575
  526THF     C2 6827   0.280   1.649   5.022 -0.3810 -0.5283 -0.4540
  526THF     C3 6828   0.063   1.620   4.970 -0.8249  0.2013 -0.4155
  526THF     H4 6829   0.287   1.753   4.992  0.8977 -0.8021 -1.1846
  526THF     H5 6830   0.382   1.613   5.014  0.5039  1.0822  2.3283
  526THF     H6 6831   0.028   1.714   4.925 -1.8741  0.0621  0.0731
  526THF     H7 6832  -0.010   1.542   4.947 -0.8273  0.1224 -0.1480
  526THF     C8 6833   0.074   1.627   5.125 -0.7928 -0.0606 -0.6813
  526THF     C9 6834   0.221   1.629   5.161  0.1081 -0.1257  0.1896
  526THF    H10 6835   0.021   1.542   5.168 -1.4312  0.5451 -0.2394
  526THF    H11 6836   0.016   1.714   5.158  0.2261  0.8593 -1.2365
  526THF    H12 6837   0.251   1.719   5.215 -0.3323  1.9480 -2.7810
  526THF    H13 6838   0.270   1.544   5.208  2.9585  1.6828  0.7301
  527THF     O1 6839   3.741   5.424   0.554 -0.0753 -0.0306 -0.8037
  527THF     C2 6840   3.806   5.472   0.674 -0.0023 -0.8400  1.0127
  527THF     C3 6841   3.832   5.448   0.447 -0.7715  1.0951 -0.7936
  527THF     H4 6842   3.769   5.411   0.757 -0.0055 -2.7313 -0.3191
  527THF     H5 6843   3.775   5.576   0.685 -2.1379 -1.0527 -1.9254
  527THF     H6 6844   3.817   5.379   0.364  1.2509 -0.5234  0.0990
  527THF     H7 6845   3.822   5.548   0.406 -0.0911  2.4329  2.0797
  527THF     C8 6846   3.978   5.429   0.504 -0.3306 -0.5641  0.4816
  527THF     C9 6847   3.954   5.437   0.654 -0.9428 -0.1931 -0.1657
  527THF    H10 6848   4.053   5.499   0.467 -1.2766 -0.4937 -1.4206
  527THF    H11 6849   4.017   5.333   0.473 -0.0377 -0.1349 -0.5254
  527THF    H12 6850   3.998   5.350   0.703 -0.7046 -0.8280 -1.4755
  527THF    H13 6851   4.010   5.521   0.696 -0.7417  0.9516 -2.5754
  528THF     O1 6852   0.675   4.395   4.288  0.1994  0.3653 -0.4843
  528THF     C2 6853   0.725   4.265   4.248  0.0788 -0.2469  0.1992
  528THF     C3 6854   0.554   4.361   4.350 -0.4743 -0.2218 -0.0830
  528THF     H4 6855   0.760   4.208   4.335  2.8354  2.1043  0.8000
  528THF     H5 6856   0.817   4.272   4.191  1.8318 -0.4385  2.8113
  528THF     H6 6857   0.575   4.314   4.446 -0.5048  0.3446  0.2021
  528THF     H7 6858   0.487   4.444   4.370 -1.3845 -1.1731  0.9970
  528THF     C8 6859   0.495   4.261   4.247  0.1816  0.7373  0.3253
  528THF     C9 6860   0.614   4.204   4.166 -0.3251 -0.1438  0.3301
  528THF    H10 6861   0.417   4.301   4.183  0.4324 -0.8983 -1.0885
  528THF    H11 6862   0.445   4.173   4.286 -0.0583  1.2136  1.1071
  528THF    H12 6863   0.631   4.096   4.162 -0.3848 -0.1959  1.1611
  528THF    H13 6864   0.606   4.239   4.064 -0.4905  0.2951  0.4925
  529THF     O1 6865   0.012   3.789   1.778 -0.0172  0.0595 -0.2522
  529THF     C2 6866  -0.067   3.894   1.730 -0.5013  0.3299  0.3469
  529THF     C3 6867  -0.078   3.707   1.856 -0.4890 -0.2182 -0.6434
  529THF     H4 6868  -0.125   3.867   1.642 -1.1319 -0.3490  0.9572
  529THF     H5 6869  -0.011   3.987   1.721 -2.0638  1.6496  2.9136
  529THF     H6 6870  -0.093   3.610   1.809 -2.4547 -0.8262  1.1097
  529THF     H7 6871  -0.036   3.687   1.955  0.4371  0.7518 -0.8243
  529THF     C8 6872  -0.212   3.777   1.874  0.0521 -0.6630 -0.5678
  529THF     C9 6873  -0.166   3.918   1.846 -0.3002  0.5430  0.0257
  529THF    H10 6874  -0.271   3.747   1.961 -0.2597 -1.4417 -1.0419
  529THF    H11 6875  -0.276   3.742   1.794  2.0959 -0.8423 -2.1976
  529THF    H12 6876  -0.246   3.978   1.803  0.4555  1.4038 -0.2078
  529THF    H13 6877  -0.121   3.963   1.934  0.5033  1.5100 -0.8510
  530THF     O1 6878   5.431   4.044   1.416  0.4267  0.0130 -0.4396
  530THF     C2 6879   5.389   4.160   1.484  0.0885 -0.3527  0.5317
  530THF     C3 6880   5.483   4.076   1.290 -0.0450  0.0718 -0.0540
  530THF     H4 6881   5.446   4.175   1.576 -0.8067  0.7657  0.9368
  530THF     H5 6882   5.287   4.148   1.523  0.2062 -0.6870  0.7362
  530THF     H6 6883   5.589   4.095   1.307  0.7722 -0.6943 -3.4797
  530THF     H7 6884   5.461   4.001   1.213 -0.2032 -0.0904  0.1463
  530THF     C8 6885   5.408   4.206   1.253  0.1913 -0.0612 -0.4771
  530THF     C9 6886   5.406   4.279   1.382  0.7759  0.3486  0.5587
  530THF    H10 6887   5.305   4.184   1.223  0.8064 -0.7959 -2.1355
  530THF    H11 6888   5.463   4.249   1.170 -0.0953 -0.4444 -0.8688
  530THF    H12 6889   5.500   4.327   1.408  1.2602 -0.7879  1.0052
  530THF    H13 6890   5.331   4.355   1.401 -2.4966 -2.6374  0.5682
  531THF     O1 6891   1.171   1.042   4.593  0.1022  0.1844 -0.0056
  531THF     C2 6892   1.057   1.090   4.525  0.1484 -0.1599 -0.0151
  531THF     C3 6893   1.136   1.012   4.727  1.0358  0.3594 -0.4509
  531THF     H4 6894   0.985   1.012   4.497  1.0423 -1.4177  1.0720
  531THF     H5 6895   1.071   1.135   4.427  0.1925 -2.3279 -1.0764
  531THF     H6 6896   1.080   0.918   4.732  2.3397 -0.3809  0.9057
  531THF     H7 6897   1.227   1.004   4.785  0.9786  0.9433 -0.2733
  531THF     C8 6898   1.056   1.137   4.758 -0.0351 -0.0869  0.4028
  531THF     C9 6899   1.000   1.191   4.626  0.4473 -0.6638 -0.1445
  531THF    H10 6900   1.112   1.211   4.815  0.3879 -0.2498  0.2005
  531THF    H11 6901   0.968   1.106   4.814 -0.1747 -1.8198 -0.6809
  531THF    H12 6902   0.891   1.197   4.623  0.4273  0.5988  1.5223
  531THF    H13 6903   1.023   1.298   4.624 -1.2186 -0.2158  1.5914
  532THF     O1 6904   5.385   4.221   3.305 -0.0834 -0.0126  0.9015
  532THF     C2 6905   5.374   4.135   3.415  0.0728 -0.8395 -0.0524
  532THF     C3 6906   5.248   4.269   3.264 -0.9640 -1.1013  0.4774
  532THF     H4 6907   5.358   4.197   3.504  1.1081  0.3164 -0.6453
  532THF     H5 6908   5.460   4.075   3.444  0.3908 -0.1248  0.5227
  532THF     H6 6909   5.228   4.367   3.306 -0.1216  0.1539 -1.8482
  532THF     H7 6910   5.248   4.290   3.157  1.3657 -4.3062 -0.2924
  532THF     C8 6911   5.159   4.156   3.307  0.8424  0.4924 -0.5095
  532THF     C9 6912   5.246   4.057   3.382 -0.9277  0.5603 -0.2855
  532THF    H10 6913   5.093   4.115   3.230 -1.5402 -0.4904  1.9117
  532THF    H11 6914   5.086   4.200   3.374 -0.2420 -0.7275 -0.8535
  532THF    H12 6915   5.201   4.022   3.475 -0.3364 -1.0679 -0.5806
  532THF    H13 6916   5.264   3.975   3.314 -3.2388 -0.7384  0.5438
  533THF     O1 6917   2.565   4.313   2.002 -0.7311 -0.2524 -0.1872
  533THF     C2 6918   2.492   4.431   2.015 -0.1581 -0.3731 -0.2660
  533THF     C3 6919   2.477   4.216   2.054  0.2826  0.2816  0.0614
  533THF     H4 6920   2.408   4.443   1.947  0.7936 -0.4059 -1.4975
  533THF     H5 6921   2.555   4.520   2.011 -1.6927  0.7912  0.5369
  533THF     H6 6922   2.401   4.181   1.984 -1.5767  0.5486  1.8398
  533THF     H7 6923   2.531   4.124   2.079  0.0498  0.0823 -0.1633
  533THF     C8 6924   2.422   4.285   2.181  0.3277 -0.2457 -0.2013
  533THF     C9 6925   2.441   4.431   2.157 -0.4047 -0.0725 -0.2904
  533THF    H10 6926   2.464   4.256   2.277  0.3752  0.4259 -0.0148
  533THF    H11 6927   2.316   4.264   2.170  0.1733 -0.0053  0.7748
  533THF    H12 6928   2.346   4.482   2.170  1.3977  3.2618  0.9898
  533THF    H13 6929   2.508   4.494   2.216  2.2729 -0.5906 -2.5464
  534THF     O1 6930   2.536   4.932   2.982 -0.3031  0.3169 -0.0604
  534THF     C2 6931   2.514   4.993   2.862  0.5421  0.5285  0.1420
  534THF     C3 6932   2.510   4.791   2.984 -0.1625 -0.1460 -0.2481
  534THF     H4 6933   2.598   5.049   2.822  0.9763 -0.2941 -0.1272
  534THF     H5 6934   2.428   5.060   2.858 -1.2716 -1.5647  1.4447
  534THF     H6 6935   2.587   4.741   3.043 -0.2781 -1.4377 -1.1641
  534THF     H7 6936   2.410   4.768   3.018 -0.3878 -0.2055 -0.9396
  534THF     C8 6937   2.528   4.760   2.833 -0.1785 -0.4330  0.2892
  534THF     C9 6938   2.475   4.880   2.762  0.3009 -0.3649 -0.1056
  534THF    H10 6939   2.478   4.672   2.793 -3.4897  1.8639 -1.0582
  534THF    H11 6940   2.637   4.762   2.825  0.3147 -3.1155  3.9361
  534THF    H12 6941   2.527   4.890   2.666 -0.9227 -1.9939 -0.9778
  534THF    H13 6942   2.367   4.886   2.748  0.5750  1.2782 -2.1086
  535THF     O1 6943   3.667   1.452   4.088  0.0785 -0.0146  1.0862
  535THF     C2 6944   3.726   1.373   3.982 -0.4158 -0.1740 -0.0207
  535THF     C3 6945   3.584   1.372   4.167 -0.0055  0.5493 -0.0089
  535THF     H4 6946   3.822   1.328   4.006  0.1429  1.3258  0.7213
  535THF     H5 6947   3.745   1.434   3.894 -1.0807  1.5128  0.9612
  535THF     H6 6948   3.624   1.317   4.253 -1.0941 -0.7320 -0.3019
  535THF     H7 6949   3.518   1.435   4.227 -0.5043  1.0231 -1.0365
  535THF     C8 6950   3.513   1.298   4.060 -0.2535 -0.7451 -1.0124
  535THF     C9 6951   3.615   1.269   3.957 -0.5170  0.2845 -0.5128
  535THF    H10 6952   3.434   1.362   4.021  1.0674  1.7532  0.1846
  535THF    H11 6953   3.457   1.214   4.101 -1.7660  0.6534 -0.1029
  535THF    H12 6954   3.657   1.171   3.978 -1.0967  0.3911  1.2540
  535THF    H13 6955   3.579   1.280   3.854 -3.5850  1.2393  0.5515
  536THF     O1 6956   0.469   2.425   1.639 -0.0977 -0.1549  0.0512
  536THF     C2 6957   0.389   2.533   1.680 -0.3838  0.3839 -0.4340
  536THF     C3 6958   0.392   2.351   1.553  0.0741  1.0104 -0.4208
  536THF     H4 6959   0.451   2.589   1.749  2.0280 -1.2629 -1.1566
  536THF     H5 6960   0.306   2.491   1.736  0.2025  0.4222  0.4736
  536THF     H6 6961   0.448   2.277   1.495  0.5276  1.9715 -1.2513
  536THF     H7 6962   0.317   2.294   1.607 -0.2908  2.1736  0.3301
  536THF     C8 6963   0.337   2.465   1.465 -0.5623  0.0833  0.1714
  536THF     C9 6964   0.348   2.597   1.550  0.0395  0.7372  0.3008
  536THF    H10 6965   0.238   2.446   1.424 -1.4645 -2.5360  3.2213
  536THF    H11 6966   0.404   2.471   1.379  0.9118  1.4578  1.3538
  536THF    H12 6967   0.419   2.668   1.509  0.6873  1.1969  2.1182
  536THF    H13 6968   0.249   2.640   1.564 -1.1708 -1.7817  0.1097
  537THF     O1 6969   3.587   3.456   0.093  0.3802 -0.0497  0.7129
  537THF     C2 6970   3.700   3.384   0.121  0.2678  0.8333  0.5801
  537THF     C3 6971   3.576   3.482  -0.045 -0.0800 -0.3718  0.5039
  537THF     H4 6972   3.692   3.325   0.213  0.8132  2.3585  1.6426
  537THF     H5 6973   3.786   3.449   0.137 -1.1019  2.6944  0.6285
  537THF     H6 6974   3.473   3.504  -0.069  0.0630 -1.4630 -1.2783
  537THF     H7 6975   3.635   3.572  -0.062 -0.7419  0.3641  1.8827
  537THF     C8 6976   3.631   3.354  -0.099  0.4973  0.4927  0.4029
  537THF     C9 6977   3.732   3.298   0.001  0.4518 -0.5517  0.1564
  537THF    H10 6978   3.669   3.368  -0.200 -0.7344 -2.0408 -0.4738
  537THF    H11 6979   3.554   3.278  -0.110  1.2374  0.0531 -2.5824
  537THF    H12 6980   3.712   3.192   0.017  1.7904 -0.9409 -0.6100
  537THF    H13 6981   3.838   3.316  -0.019 -0.0531  2.2933 -0.3703
  538THF     O1 6982   5.067   0.054   3.997 -0.2661 -0.0907 -0.3810
  538THF     C2 6983   4.943   0.013   3.931 -0.7121 -0.0942 -0.1764
  538THF     C3 6984   5.083  -0.021   4.115  0.4190  0.5715 -0.2530
  538THF     H4 6985   4.970  -0.037   3.837 -0.9949  2.3509 -1.6522
  538THF     H5 6986   4.871   0.092   3.911 -0.7136 -0.1394 -0.3578
  538THF     H6 6987   5.146  -0.108   4.097  1.6782  1.7203 -1.6391
  538THF     H7 6988   5.129   0.041   4.192  1.2343 -1.7351  1.2167
  538THF     C8 6989   4.944  -0.055   4.167  0.0528 -1.2137  0.0906
  538THF     C9 6990   4.886  -0.092   4.028  0.3936 -0.5783  0.3965
  538THF    H10 6991   4.888   0.032   4.200 -0.0164 -2.0090  2.2474
  538THF    H11 6992   4.938  -0.134   4.242  0.9327 -0.0523  1.4592
  538THF    H12 6993   4.925  -0.187   3.994  1.9659 -0.3706  1.5057
  538THF    H13 6994   4.777  -0.089   4.031  0.3266 -2.1942  0.5714
  539THF     O1 6995   0.931   3.013   0.917  0.2333  0.1267 -0.7648
  539THF     C2 6996   0.995   2.946   0.812  0.1106 -0.5463  0.6675
  539THF     C3 6997   0.878   3.137   0.867  0.1738 -0.6544  0.3077
  539THF     H4 6998   0.914   2.901   0.756 -1.2982 -0.0592  2.2249
  539THF     H5 6999   1.055   2.872   0.866  0.8663 -0.1231  0.4250
  539THF     H6 7000   0.769   3.131   0.860  0.0405  1.0064  0.4505
  539THF     H7 7001   0.912   3.202   0.948  0.2510  0.7685 -0.8194
  539THF     C8 7002   0.953   3.166   0.732  0.0653  0.2074 -0.0419
  539THF     C9 7003   1.066   3.062   0.739 -0.1552 -0.2944 -0.3308
  539THF    H10 7004   0.992   3.268   0.727 -0.0557  0.1737 -2.7990
  539THF    H11 7005   0.886   3.156   0.647 -0.3068  0.2171  0.2453
  539THF    H12 7006   1.106   3.035   0.641  1.6702 -1.8480  0.7753
  539THF    H13 7007   1.151   3.100   0.795 -1.1048  1.5754 -0.0745
  540THF     O1 7008   0.182   3.162   3.132  0.0806  0.1886 -0.4135
  540THF     C2 7009   0.200   3.104   3.006  0.2840 -0.3773 -0.1749
  540THF     C3 7010   0.265   3.277   3.145 -1.6742  0.0197  0.2476
  540THF     H4 7011   0.130   3.151   2.937  0.6916  2.1960  1.0373
  540THF     H5 7012   0.185   2.996   3.004 -0.3222 -0.4607  3.0868
  540THF     H6 7013   0.240   3.357   3.076  0.6792 -0.2309 -0.9846
  540THF     H7 7014   0.257   3.321   3.245 -1.0596 -0.0956  0.3551
  540THF     C8 7015   0.395   3.223   3.091  0.1296 -0.4092  0.5749
  540THF     C9 7016   0.351   3.135   2.973  0.0642  0.5631  0.1044
  540THF    H10 7017   0.437   3.155   3.164 -0.9980 -0.4740  1.1883
  540THF    H11 7018   0.473   3.292   3.061 -0.3978 -0.6435 -1.5050
  540THF    H12 7019   0.347   3.187   2.878 -0.6133 -1.3217 -0.9621
  540THF    H13 7020   0.412   3.044   2.972 -0.3619  0.2679  0.4136
  541THF     O1 7021   3.019   1.141   0.511  0.8788 -0.1198 -0.2779
  541THF     C2 7022   3.159   1.120   0.526  0.4524 -0.7636  0.7273
  541THF     C3 7023   2.954   1.010   0.504 -0.9022 -0.4983  0.0483
  541THF     H4 7024   3.172   1.114   0.635  1.1594  1.0021  0.7651
  541THF     H5 7025   3.218   1.206   0.496  0.6516 -1.2440 -0.3229
  541THF     H6 7026   2.912   0.997   0.603 -0.5365  1.8006  0.5551
  541THF     H7 7027   2.878   0.997   0.427 -0.3602 -1.5821 -0.3223
  541THF     C8 7028   3.066   0.916   0.484 -0.3313  0.3582 -0.4733
  541THF     C9 7029   3.183   0.996   0.444 -0.2718 -0.2469  0.2108
  541THF    H10 7030   3.047   0.842   0.406  0.0330 -0.2245 -0.0147
  541THF    H11 7031   3.084   0.857   0.574 -3.0473  0.7450  0.4071
  541THF    H12 7032   3.282   0.957   0.467 -0.2129  0.1298  0.6017
  541THF    H13 7033   3.186   1.024   0.339  0.9831  0.4811  0.4310
  542THF     O1 7034   0.347   0.232   4.518 -0.0467 -1.0229 -0.2665
  542THF     C2 7035   0.414   0.200   4.644 -0.0060 -0.0481 -0.6582
  542THF     C3 7036   0.422   0.341   4.465 -0.0664 -0.1967  0.1025
  542THF     H4 7037   0.487   0.122   4.626 -0.4367 -0.6415  0.1278
  542THF     H5 7038   0.336   0.161   4.710  0.1562  0.3622 -0.2174
  542THF     H6 7039   0.514   0.291   4.438  0.6281  0.0241  1.9054
  542THF     H7 7040   0.379   0.395   4.381 -0.8689  0.5413  0.9519
  542THF     C8 7041   0.455   0.434   4.589 -0.4092  0.1807  0.2382
  542THF     C9 7042   0.454   0.339   4.710  0.3132 -0.5975  0.1537
  542THF    H10 7043   0.390   0.518   4.614  1.5796  0.9639  3.3276
  542THF    H11 7044   0.552   0.483   4.575  0.2573 -0.0396  3.3473
  542THF    H12 7045   0.549   0.334   4.763 -2.0196 -0.1916  4.9053
  542THF    H13 7046   0.390   0.367   4.794 -0.5374  0.8047 -0.9232
  543THF     O1 7047   4.636   3.524   3.531  0.0194 -0.3993  0.5537
  543THF     C2 7048   4.618   3.638   3.445  0.0180 -0.1796 -0.3302
  543THF     C3 7049   4.520   3.448   3.499 -0.1704 -0.6460  0.5719
  543THF     H4 7050   4.677   3.636   3.354 -1.0657  2.0458 -1.1533
  543THF     H5 7051   4.659   3.724   3.499 -0.5650 -1.2404  1.9241
  543THF     H6 7052   4.530   3.397   3.403  0.8954 -2.1937  1.4512
  543THF     H7 7053   4.498   3.371   3.572 -1.0148 -0.7218  0.2548
  543THF     C8 7054   4.407   3.549   3.494 -0.0881 -0.0241 -0.4097
  543THF     C9 7055   4.473   3.670   3.425  0.0607  0.0413 -0.6445
  543THF    H10 7056   4.364   3.589   3.586  0.3749 -2.4248  0.9219
  543THF    H11 7057   4.326   3.520   3.427  2.6212 -4.1615 -2.2187
  543THF    H12 7058   4.458   3.656   3.318  1.3272  0.9337 -0.9558
  543THF    H13 7059   4.437   3.770   3.449 -1.3310 -1.1393  2.8848
  544THF     O1 7060   4.838   2.971   5.322  0.5522  0.0625 -0.0640
  544THF     C2 7061   4.872   3.072   5.419 -0.5014 -0.3832  0.7530
  544THF     C3 7062   4.895   2.852   5.370 -0.1630 -0.5446 -0.4531
  544THF     H4 7063   4.804   3.044   5.500 -2.0031 -1.6913 -0.8654
  544THF     H5 7064   4.856   3.175   5.388  2.8002  0.3834  1.2689
  544THF     H6 7065   4.824   2.824   5.448 -2.6888  1.1804 -1.9883
  544THF     H7 7066   4.889   2.765   5.305 -0.3616 -1.6352  0.9887
  544THF     C8 7067   5.027   2.894   5.432 -0.6957 -0.0072 -0.0335
  544THF     C9 7068   5.016   3.041   5.453  0.0875 -0.3026 -0.1503
  544THF    H10 7069   5.118   2.877   5.373  0.3904 -2.4475  2.1343
  544THF    H11 7070   5.043   2.848   5.529 -2.1664 -0.8382 -0.1610
  544THF    H12 7071   5.042   3.079   5.551 -1.4265 -1.7844  0.8772
  544THF    H13 7072   5.072   3.091   5.374 -0.6704 -0.5361 -0.8634
  545THF     O1 7073   0.360   0.550   1.265  0.0889 -0.6452 -0.0514
  545THF     C2 7074   0.295   0.547   1.139 -0.4296 -0.0340 -0.2047
  545THF     C3 7075   0.397   0.423   1.301  0.2586  0.2937  0.5555
  545THF     H4 7076   0.366   0.530   1.058 -0.6890  2.6874 -1.1134
  545THF     H5 7077   0.240   0.640   1.122 -1.7158 -0.9415 -1.1341
  545THF     H6 7078   0.470   0.380   1.232 -1.0866  0.9017 -1.3659
  545THF     H7 7079   0.423   0.404   1.405  2.7706  1.0455  0.1263
  545THF     C8 7080   0.262   0.348   1.279  0.2366  0.0858  0.5373
  545THF     C9 7081   0.206   0.427   1.154 -0.3932 -0.0480  0.9536
  545THF    H10 7082   0.201   0.359   1.369 -0.0410  2.3675  0.1433
  545THF    H11 7083   0.279   0.241   1.265  2.0413 -0.0256  2.9324
  545THF    H12 7084   0.212   0.368   1.062 -0.9015  1.0735  0.1718
  545THF    H13 7085   0.105   0.466   1.163  0.3711  2.2595  0.3113
  546THF     O1 7086   0.632   0.644   5.474 -0.0844  0.6284 -0.3588
  546THF     C2 7087   0.571   0.754   5.409 -0.1543  0.2199  0.6519
  546THF     C3 7088   0.766   0.687   5.518  0.7269  0.2244  0.5984
  546THF     H4 7089   0.501   0.805   5.475 -0.9323 -0.3179  0.2579
  546THF     H5 7090   0.507   0.721   5.328 -0.7732 -1.2878  1.7052
  546THF     H6 7091   0.801   0.652   5.615  0.9568 -0.4105  0.2926
  546THF     H7 7092   0.835   0.634   5.452  1.1382 -2.1261  2.7423
  546THF     C8 7093   0.771   0.837   5.494  1.0547 -0.8695  0.1522
  546THF     C9 7094   0.685   0.846   5.367  0.7092 -0.4288  0.6832
  546THF    H10 7095   0.873   0.874   5.483  0.6620  0.1311 -0.2303
  546THF    H11 7096   0.724   0.883   5.581  1.1320 -0.3831 -0.0611
  546THF    H12 7097   0.637   0.943   5.354  0.1914 -0.5987  1.3070
  546THF    H13 7098   0.742   0.807   5.283  2.5451  0.4583  1.4522
  547THF     O1 7099   0.031   2.646   1.126  0.1605 -0.5496  0.3388
  547THF     C2 7100   0.134   2.633   1.222  0.0284  0.5613  0.7155
  547THF     C3 7101   0.081   2.598   1.001 -0.4319  0.4725  0.1049
  547THF     H4 7102   0.139   2.529   1.252 -0.5765  0.8666  1.9741
  547THF     H5 7103   0.110   2.701   1.304  1.1683  3.0692 -0.8849
  547THF     H6 7104   0.063   2.491   0.998  3.0071 -0.3807  3.0753
  547THF     H7 7105   0.039   2.659   0.921 -0.9305 -0.6704 -0.5276
  547THF     C8 7106   0.229   2.632   1.001 -0.0613  0.8043 -0.6702
  547THF     C9 7107   0.256   2.678   1.147 -0.7648  0.0805  1.1407
  547THF    H10 7108   0.248   2.718   0.936 -0.8145  2.3608  1.0668
  547THF    H11 7109   0.293   2.547   0.980  1.9702  1.6070  1.7410
  547THF    H12 7110   0.346   2.632   1.187  0.4109  0.4541 -0.9376
  547THF    H13 7111   0.281   2.784   1.146  0.7275 -0.1667 -2.3049
  548THF     O1 7112   4.707   2.407   1.336  0.1582 -0.0589 -0.1483
  548THF     C2 7113   4.622   2.512   1.373  0.2966 -0.4398 -0.6965
  548THF     C3 7114   4.827   2.422   1.410  0.2390 -0.3477 -0.1443
  548THF     H4 7115   4.573   2.485   1.467  1.3540 -1.5234 -0.4268
  548THF     H5 7116   4.545   2.533   1.300 -0.1510  1.4447  0.2631
  548THF     H6 7117   4.797   2.369   1.500  1.5422  0.2844  0.6854
  548THF     H7 7118   4.906   2.389   1.343  0.7006  0.2738  0.0807
  548THF     C8 7119   4.844   2.572   1.441  0.4636  0.0937 -0.3250
  548THF     C9 7120   4.716   2.621   1.382  0.1142  0.2743 -0.4339
  548THF    H10 7121   4.929   2.627   1.399  1.5152 -0.6557  0.7611
  548THF    H11 7122   4.850   2.600   1.546  1.4362  1.0845 -0.6213
  548THF    H12 7123   4.681   2.701   1.446  1.2911  0.2624  0.2474
  548THF    H13 7124   4.733   2.657   1.280  1.1057 -0.6206 -0.6051
  549THF     O1 7125   0.496   0.592   4.264  0.1104  0.2888 -0.7151
  549THF     C2 7126   0.466   0.597   4.129 -0.3176  0.0177  0.5575
  549THF     C3 7127   0.627   0.541   4.283  0.3493 -0.2676  0.3653
  549THF     H4 7128   0.375   0.655   4.112 -0.6148 -0.5715  0.0640
  549THF     H5 7129   0.451   0.494   4.097  0.2286 -0.4794  1.8256
  549THF     H6 7130   0.661   0.571   4.382 -2.8885  1.7688  1.0255
  549THF     H7 7131   0.635   0.433   4.267 -0.7658 -0.4851  1.1570
  549THF     C8 7132   0.703   0.614   4.175 -0.9767 -0.6808 -0.2064
  549THF     C9 7133   0.594   0.652   4.073  0.2706  0.5499  0.7451
  549THF    H10 7134   0.783   0.547   4.142 -0.3780 -0.5038  0.8574
  549THF    H11 7135   0.748   0.703   4.218  0.3406 -0.9408 -0.9887
  549THF    H12 7136   0.599   0.760   4.058  0.7208  0.1938 -2.2793
  549THF    H13 7137   0.618   0.607   3.977  0.0307 -0.1887  1.0277
  550THF     O1 7138   1.493   4.463   4.025  0.1518 -0.1439 -0.1479
  550THF     C2 7139   1.630   4.412   4.030 -0.4033  0.2897  0.0725
  550THF     C3 7140   1.458   4.509   3.898 -0.4603  0.4166 -0.0869
  550THF     H4 7141   1.631   4.309   3.994 -1.1396 -0.5811  2.3832
  550THF     H5 7142   1.676   4.420   4.128  0.1966  2.3272 -0.3197
  550THF     H6 7143   1.413   4.438   3.828  0.9247  0.4504 -1.0499
  550THF     H7 7144   1.401   4.601   3.903  0.7242  1.1176  3.2805
  550THF     C8 7145   1.590   4.524   3.829 -0.3515  0.2394  0.3819
  550THF     C9 7146   1.701   4.495   3.930  0.5115  0.2672 -0.5362
  550THF    H10 7147   1.604   4.626   3.795 -0.8154  0.1531 -0.0820
  550THF    H11 7148   1.596   4.456   3.744  1.4626  1.8569 -0.8897
  550THF    H12 7149   1.784   4.445   3.881  0.0675 -1.4836  0.4435
  550THF    H13 7150   1.736   4.586   3.980  0.2108  1.7117 -2.8109
  551THF     O1 7151   1.644   4.584   4.865  0.1653  0.1296 -0.4422
  551THF     C2 7152   1.511   4.547   4.909 -0.4704 -0.1888  0.2776
  551THF     C3 7153   1.648   4.728   4.865 -0.1522  0.3446 -0.4208
  551THF     H4 7154   1.503   4.440   4.929  0.8763 -0.8181 -2.1333
  551THF     H5 7155   1.435   4.580   4.838 -0.2165 -0.0620  0.0663
  551THF     H6 7156   1.747   4.769   4.884  0.2634 -1.3446  1.4883
  551THF     H7 7157   1.592   4.764   4.778 -1.2440 -1.0835 -0.3599
  551THF     C8 7158   1.569   4.765   4.995 -0.4351 -0.0067  0.1634
  551THF     C9 7159   1.502   4.631   5.036  0.0467  0.1258  0.9182
  551THF    H10 7160   1.500   4.845   4.970 -2.8234 -1.1892  2.4448
  551THF    H11 7161   1.633   4.799   5.077 -0.4347 -0.7679  0.4940
  551THF    H12 7162   1.552   4.591   5.124 -0.6114 -0.4336  1.0428
  551THF    H13 7163   1.396   4.649   5.056 -0.2883  0.7951 -1.1872
  552THF     O1 7164   2.905   1.789   1.325 -0.1350 -0.3490 -0.5281
  552THF     C2 7165   2.845   1.865   1.215 -0.4055 -0.0337  0.2882
  552THF     C3 7166   3.043   1.802   1.302  0.1340  0.2934 -0.1872
  552THF     H4 7167   2.841   1.972   1.233 -2.4133  0.4906 -2.6182
  552THF     H5 7168   2.745   1.834   1.187 -0.3483  0.5722 -0.6699
  552THF     H6 7169   3.079   1.900   1.332 -1.6229  0.6721  0.8279
  552THF     H7 7170   3.101   1.734   1.365 -0.9877  0.9176  1.5837
  552THF     C8 7171   3.065   1.774   1.156  0.3220 -0.7761  0.9121
  552THF     C9 7172   2.934   1.831   1.098 -0.2465  0.0221  0.1176
  552THF    H10 7173   3.072   1.668   1.134 -0.6174 -0.8654  1.0081
  552THF    H11 7174   3.150   1.826   1.111  0.6637 -0.7285  1.6046
  552THF    H12 7175   2.952   1.927   1.050  0.2502  0.3586  0.9509
  552THF    H13 7176   2.881   1.775   1.020  1.3821 -1.1754 -0.1761
  553THF     O1 7177   5.051   3.529   0.073  0.5598 -0.2292  0.0479
  553THF     C2 7178   4.913   3.512   0.036 -0.1200 -0.2095 -0.5945
  553THF     C3 7179   5.091   3.404   0.132  0.3813 -0.2904  0.6526
  553THF     H4 7180   4.920   3.471  -0.065  1.3709  0.1914 -0.6833
  553THF     H5 7181   4.860   3.607   0.026  1.2096  0.6448  0.1466
  553THF     H6 7182   5.137   3.337   0.059 -2.4732 -1.3633 -0.2983
  553THF     H7 7183   5.168   3.431   0.205 -0.4462  1.8322  0.8166
  553THF     C8 7184   4.970   3.353   0.203 -0.3249 -0.1698 -0.2719
  553THF     C9 7185   4.845   3.423   0.147  0.3214 -0.3374  0.5133
  553THF    H10 7186   4.978   3.384   0.308 -0.7587  0.3468 -0.3876
  553THF    H11 7187   4.959   3.245   0.203  0.8221 -0.3406 -2.8718
  553THF    H12 7188   4.774   3.349   0.111 -1.4012  0.6262  1.7852
  553THF    H13 7189   4.801   3.491   0.220 -0.3014  2.4113 -2.2045
  554THF     O1 7190   0.632   4.313   2.363 -0.0599 -0.1822 -0.2411
  554THF     C2 7191   0.740   4.247   2.305 -0.3789 -0.2882 -0.1222
  554THF     C3 7192   0.669   4.389   2.475 -0.5520 -0.4308  0.0322
  554THF     H4 7193   0.717   4.252   2.198 -1.3587  2.5109  0.1325
  554THF     H5 7194   0.741   4.143   2.338  1.1875 -0.2693 -0.0178
  554THF     H6 7195   0.649   4.491   2.442  1.4198  1.1310  3.1423
  554THF     H7 7196   0.601   4.375   2.558  0.5239  1.8231  1.3957
  554THF     C8 7197   0.819   4.367   2.486 -0.7455 -0.9782  0.4252
  554THF     C9 7198   0.860   4.338   2.342 -0.7499  0.5548 -0.3439
  554THF    H10 7199   0.826   4.274   2.543  0.7330 -1.6247 -0.7449
  554THF    H11 7200   0.866   4.452   2.535 -1.1334 -1.2962  1.3804
  554THF    H12 7201   0.865   4.425   2.276  0.1752 -0.0397 -1.0946
  554THF    H13 7202   0.955   4.285   2.337  0.7048  2.8308  1.0682
  555THF     O1 7203   3.113   2.660   0.902  0.1852  0.0443 -0.0218
  555THF     C2 7204   3.015   2.751   0.952  0.2512 -0.6104  0.5362
  555THF     C3 7205   3.192   2.730   0.807 -0.0488  0.1680  0.0661
  555THF     H4 7206   2.956   2.710   1.034  1.6793  1.6110  2.8358
  555THF     H5 7207   2.946   2.771   0.870  0.6211 -1.6399 -0.0401
  555THF     H6 7208   3.281   2.676   0.775 -1.3086 -1.5328 -0.7216
  555THF     H7 7209   3.132   2.768   0.724 -0.7733  1.2438  1.0632
  555THF     C8 7210   3.222   2.854   0.895  0.6648  0.1417 -0.4767
  555THF     C9 7211   3.099   2.874   0.984 -0.5784 -0.0923 -0.8006
  555THF    H10 7212   3.260   2.943   0.844 -0.3944  0.4883 -0.6907
  555THF    H11 7213   3.309   2.834   0.958  0.0541  1.0043  0.6881
  555THF    H12 7214   3.128   2.882   1.089 -0.1185 -1.1666 -0.8353
  555THF    H13 7215   3.043   2.963   0.959  1.0652  1.3391  0.3079
  556THF     O1 7216   0.039   4.544   0.042  0.2923 -0.1303  0.3267
  556THF     C2 7217   0.061   4.648   0.138  0.0182  0.2801  0.1263
  556THF     C3 7218  -0.080   4.571  -0.018 -0.4738 -0.5209  0.4978
  556THF     H4 7219   0.160   4.645   0.183  0.4752 -1.8390 -0.9285
  556THF     H5 7220  -0.017   4.651   0.214 -2.3955 -2.5469 -2.0255
  556THF     H6 7221  -0.086   4.507  -0.105 -0.5124 -3.0601  2.2721
  556THF     H7 7222  -0.152   4.543   0.059  1.1633  0.3437  2.4476
  556THF     C8 7223  -0.076   4.724  -0.043 -0.8297  0.2929 -0.4360
  556THF     C9 7224   0.052   4.765   0.044 -0.1946 -0.3954  0.3793
  556THF    H10 7225  -0.164   4.775  -0.003 -0.8124 -0.6540  0.8659
  556THF    H11 7226  -0.053   4.753  -0.145 -2.3447 -1.3021 -1.2776
  556THF    H12 7227   0.143   4.777  -0.015 -0.1503  1.9638  0.8671
  556THF    H13 7228   0.043   4.863   0.090  0.6314 -0.4591  0.6996
  557THF     O1 7229   4.264   0.438   4.329  0.4611 -0.5303  0.2163
  557THF     C2 7230   4.279   0.301   4.351 -0.1564 -0.7838 -0.0655
  557THF     C3 7231   4.199   0.496   4.448 -0.6578  0.2384 -0.2907
  557THF     H4 7232   4.386   0.290   4.336  0.1535 -0.9508  2.0159
  557THF     H5 7233   4.227   0.250   4.270 -1.2145 -1.5729  1.0835
  557THF     H6 7234   4.219   0.600   4.472 -0.9485  0.3418 -0.4914
  557THF     H7 7235   4.091   0.485   4.434 -0.3593 -2.5855 -1.0475
  557THF     C8 7236   4.240   0.397   4.561 -0.5982 -0.2538  0.3183
  557THF     C9 7237   4.236   0.265   4.487 -0.3784  0.2440 -0.0367
  557THF    H10 7238   4.174   0.413   4.646 -0.5819  1.4507  0.0595
  557THF    H11 7239   4.339   0.424   4.598 -0.4237  1.3249 -1.1534
  557THF    H12 7240   4.303   0.196   4.537 -0.3618 -0.2466 -0.7309
  557THF    H13 7241   4.134   0.227   4.489 -0.0180 -0.7846 -0.7638
  558THF     O1 7242   0.268   0.193   3.884  0.1313  0.0674 -0.1805
  558THF     C2 7243   0.329   0.073   3.841 -0.4009  0.1877  0.1343
  558THF     C3 7244   0.344   0.245   3.999  0.0909  0.3494 -0.0144
  558THF     H4 7245   0.349   0.077   3.734 -0.2898  2.7516  0.1818
  558THF     H5 7246   0.273  -0.017   3.866  0.2263  0.1554  1.5600
  558THF     H6 7247   0.427   0.304   3.959  0.4278  1.2996  1.9546
  558THF     H7 7248   0.286   0.298   4.075 -1.9978  1.9009 -2.5006
  558THF     C8 7249   0.410   0.122   4.054  0.0595 -0.5375 -0.2068
  558THF     C9 7250   0.451   0.046   3.936 -0.3427  1.0486 -0.5869
  558THF    H10 7251   0.331   0.076   4.114 -1.0603 -0.4706 -1.5849
  558THF    H11 7252   0.498   0.141   4.116  0.0176  1.1659 -0.6010
  558THF    H12 7253   0.552   0.071   3.902  0.0395 -1.6456 -1.7415
  558THF    H13 7254   0.468  -0.059   3.961 -0.4358  1.5101  1.5884
  559THF     O1 7255   1.189   5.360   3.583  0.3673 -0.1048  0.0859
  559THF     C2 7256   1.074   5.271   3.574  0.1689 -0.2769 -0.6045
  559THF     C3 7257   1.170   5.449   3.476  0.2313  0.3558 -0.7439
  559THF     H4 7258   1.070   5.222   3.672 -0.4619  0.4752 -0.2386
  559THF     H5 7259   1.080   5.190   3.502  1.8718 -1.6409  0.9692
  559THF     H6 7260   1.231   5.538   3.489  0.5540  0.1403 -0.7810
  559THF     H7 7261   1.196   5.411   3.377 -2.4812  0.8294 -1.7360
  559THF     C8 7262   1.023   5.484   3.475  0.4241  0.4614 -0.4789
  559THF     C9 7263   0.951   5.368   3.548 -1.1028 -0.1676 -0.2851
  559THF    H10 7264   0.983   5.499   3.375  0.6470 -0.6590 -0.7581
  559THF    H11 7265   1.020   5.579   3.529  0.3460 -1.8614  4.1294
  559THF    H12 7266   0.914   5.404   3.644 -1.0011  1.0917 -0.7019
  559THF    H13 7267   0.869   5.324   3.491 -0.5349  0.6222 -1.7641
  560THF     O1 7268   2.803   3.387   4.823 -0.1285 -0.0153  0.6647
  560THF     C2 7269   2.913   3.397   4.747 -0.4241  0.3585  0.5355
  560THF     C3 7270   2.781   3.246   4.858 -0.5816  0.4559 -0.3348
  560THF     H4 7271   2.992   3.414   4.820 -0.6034  0.7820  0.6359
  560THF     H5 7272   2.903   3.487   4.687 -2.7479 -0.0649  0.1834
  560THF     H6 7273   2.832   3.217   4.950 -1.9772 -1.0139  0.0306
  560THF     H7 7274   2.678   3.219   4.879 -0.3115  0.8270  1.7094
  560THF     C8 7275   2.848   3.162   4.746 -0.0245  0.1063  0.1830
  560THF     C9 7276   2.910   3.270   4.661  0.6227 -0.6216 -0.2894
  560THF    H10 7277   2.772   3.109   4.689 -2.6735  2.1495  1.5761
  560THF    H11 7278   2.921   3.091   4.784  0.7764  0.7731 -0.0861
  560THF    H12 7279   2.998   3.230   4.610  1.2176 -0.5335  0.6588
  560THF    H13 7280   2.839   3.288   4.580 -0.0766 -2.5555 -0.1607
  561THF     O1 7281   5.406   0.177   1.033 -0.1574 -0.0509 -0.0324
  561THF     C2 7282   5.283   0.117   1.070  0.3858  0.0235  0.1214
  561THF     C3 7283   5.507   0.083   1.078  0.0309  0.4459  0.0935
  561THF     H4 7284   5.242   0.048   0.997 -0.6336  1.4873 -0.7400
  561THF     H5 7285   5.199   0.186   1.066 -0.2555 -0.6376  1.4186
  561THF     H6 7286   5.514   0.013   0.995  2.3606  1.2076 -0.4151
  561THF     H7 7287   5.591   0.152   1.089 -0.7237  1.1125  2.2270
  561THF     C8 7288   5.459   0.032   1.211  0.1459 -0.1315 -1.0725
  561THF     C9 7289   5.312   0.055   1.209 -0.0421  0.6093 -0.0941
  561THF    H10 7290   5.500   0.080   1.300 -0.5770 -0.4664 -0.5460
  561THF    H11 7291   5.481  -0.075   1.206 -0.9746 -0.4404  0.2215
  561THF    H12 7292   5.249  -0.028   1.241 -0.4141  1.6416  2.0014
  561THF    H13 7293   5.293   0.126   1.289  1.2615 -2.1407  2.8632
  562THF     O1 7294   0.522   0.737   0.424  0.0874  0.4294 -0.1998
  562THF     C2 7295   0.520   0.640   0.325 -0.7856 -0.0458  0.0014
  562THF     C3 7296   0.657   0.785   0.444 -0.1638  0.1873  0.2205
  562THF     H4 7297   0.520   0.696   0.232 -2.0714  0.1228  0.0814
  562THF     H5 7298   0.435   0.572   0.317  0.5369 -1.8974  0.7425
  562THF     H6 7299   0.686   0.847   0.359  0.2755 -1.8832 -1.2147
  562THF     H7 7300   0.663   0.842   0.537  0.3218  3.2855 -1.5484
  562THF     C8 7301   0.724   0.650   0.450  0.6696  0.1357 -0.0239
  562THF     C9 7302   0.649   0.562   0.353 -0.4366 -0.0073  0.5019
  562THF    H10 7303   0.699   0.616   0.550 -0.3480 -1.8569 -0.9095
  562THF    H11 7304   0.831   0.631   0.440  0.2659 -3.3524  0.9457
  562THF    H12 7305   0.716   0.547   0.269  0.1122  0.4955  0.8409
  562THF    H13 7306   0.620   0.459   0.375 -3.1347 -0.0062 -2.3584
  563THF     O1 7307   3.012   2.377   5.401 -0.3672  0.2712 -0.5380
  563THF     C2 7308   3.156   2.390   5.429 -0.1818 -0.1937 -0.0772
  563THF     C3 7309   2.995   2.480   5.304  0.6602  0.0443 -0.3612
  563THF     H4 7310   3.223   2.347   5.356 -1.0300 -0.5813 -0.6482
  563THF     H5 7311   3.167   2.347   5.528  0.3578 -2.5172 -1.0896
  563THF     H6 7312   3.052   2.470   5.212  0.7308  1.4172 -0.4757
  563THF     H7 7313   2.891   2.498   5.278  0.7524  0.8594 -0.1845
  563THF     C8 7314   3.062   2.592   5.375  0.1773  0.4216 -0.0173
  563THF     C9 7315   3.189   2.537   5.432 -0.0374 -0.7317 -0.0678
  563THF    H10 7316   2.998   2.631   5.455 -0.8841 -2.4386  0.6300
  563THF    H11 7317   3.074   2.680   5.312 -1.6042  1.3195  0.8218
  563THF    H12 7318   3.278   2.551   5.371 -0.3401 -0.9130 -0.5622
  563THF    H13 7319   3.214   2.575   5.531  0.5076  2.6972 -1.4066
  564THF     O1 7320   2.187   1.233   0.308  0.4686  0.0877 -0.5911
  564THF     C2 7321   2.108   1.343   0.268  0.0181  0.1475  0.0966
  564THF     C3 7322   2.141   1.117   0.239  0.0136  0.0017 -0.1631
  564THF     H4 7323   2.171   1.430   0.249  0.8435 -0.4244  0.1491
  564THF     H5 7324   2.053   1.367   0.359 -0.1202  1.2548 -0.2596
  564THF     H6 7325   2.195   1.106   0.144 -0.6829  2.7097 -0.9732
  564THF     H7 7326   2.158   1.029   0.300  3.1693 -0.2525 -1.2347
  564THF     C8 7327   1.994   1.146   0.214 -0.3687  0.0733  0.7044
  564THF     C9 7328   2.007   1.294   0.162  0.4949  0.2192 -0.4605
  564THF    H10 7329   1.928   1.136   0.300 -0.7408  0.0244  0.4187
  564THF    H11 7330   1.960   1.084   0.130 -3.0212  0.4913  1.4027
  564THF    H12 7331   2.047   1.310   0.062  1.3799  3.5498  0.2995
  564THF    H13 7332   1.920   1.357   0.182  0.2508  0.0076 -0.8429
  565THF     O1 7333   4.928   3.034   5.012  0.6939 -0.5766 -0.0985
  565THF     C2 7334   4.884   2.913   4.961  0.2309  0.1440 -0.1591
  565THF     C3 7335   5.066   3.045   5.003  0.1082 -0.5375 -0.1577
  565THF     H4 7336   4.777   2.912   4.937  0.4475  2.3118 -1.5533
  565THF     H5 7337   4.901   2.844   5.043 -0.7628  0.9093  0.7270
  565THF     H6 7338   5.089   3.150   5.018 -3.4867  1.3812 -5.3591
  565THF     H7 7339   5.108   2.978   5.078 -0.0580  0.5895  0.9799
  565THF     C8 7340   5.096   3.004   4.860 -0.0286 -0.7905  0.0411
  565THF     C9 7341   4.978   2.907   4.838  0.3705 -0.1972  0.4865
  565THF    H10 7342   5.196   2.961   4.851  0.9377  1.2691  0.3714
  565THF    H11 7343   5.092   3.082   4.784 -0.1801 -1.3910 -0.5815
  565THF    H12 7344   4.922   2.935   4.749 -0.5751 -1.9021  0.4943
  565THF    H13 7345   5.017   2.808   4.815 -1.9213 -0.9972 -0.2132
  566THF     O1 7346   4.864   0.775   0.235 -0.1217  0.5494  0.0460
  566THF     C2 7347   4.987   0.820   0.275 -0.2278  0.3361 -0.1650
  566THF     C3 7348   4.852   0.644   0.284 -0.5249 -0.1138  0.3519
  566THF     H4 7349   4.985   0.830   0.384 -0.0332 -1.0706 -0.0134
  566THF     H5 7350   5.028   0.911   0.232  0.7046 -0.0541 -0.1194
  566THF     H6 7351   4.842   0.638   0.393 -1.1042 -1.0558  0.2591
  566THF     H7 7352   4.770   0.592   0.234 -0.2652  0.0208 -0.2218
  566THF     C8 7353   4.988   0.586   0.241  0.0992 -0.6722 -0.0029
  566THF     C9 7354   5.082   0.704   0.248 -0.1225 -0.6240  0.2315
  566THF    H10 7355   4.989   0.557   0.135 -1.4040  1.1704 -0.5912
  566THF    H11 7356   5.020   0.507   0.309  1.6240  0.7250  0.9748
  566THF    H12 7357   5.148   0.679   0.331  0.3959 -0.1025 -0.0192
  566THF    H13 7358   5.150   0.727   0.167 -0.4529  2.2263  0.6713
  567THF     O1 7359   0.348   4.321   3.738  0.0900  0.0964  0.4409
  567THF     C2 7360   0.378   4.240   3.851  0.5356 -0.0303  0.0784
  567THF     C3 7361   0.217   4.290   3.688  0.3355 -0.0842  0.5251
  567THF     H4 7362   0.449   4.296   3.911 -0.1311  0.9734 -0.0422
  567THF     H5 7363   0.423   4.145   3.822  0.3719  0.6981 -2.8548
  567THF     H6 7364   0.175   4.372   3.630  0.0640 -2.2065 -2.5118
  567THF     H7 7365   0.227   4.210   3.614  3.1100  0.7580 -0.1597
  567THF     C8 7366   0.142   4.249   3.816  0.2596  0.0320 -0.1489
  567THF     C9 7367   0.247   4.212   3.917 -0.1095  0.0177 -0.1090
  567THF    H10 7368   0.063   4.175   3.803  0.1007 -0.4007  2.6071
  567THF    H11 7369   0.092   4.339   3.853  0.9696  0.4900 -0.2935
  567THF    H12 7370   0.234   4.287   3.994  1.0277 -1.4932  1.6392
  567THF    H13 7371   0.233   4.118   3.970  1.4357  0.0420  0.3921
  568THF     O1 7372   3.336   5.478   2.229 -0.2376  0.2280  0.2546
  568THF     C2 7373   3.216   5.489   2.305  0.9357 -0.0069  0.5445
  568THF     C3 7374   3.334   5.348   2.163 -0.4246 -0.0526  0.5539
  568THF     H4 7375   3.139   5.533   2.242  1.0053  0.0518  0.5010
  568THF     H5 7376   3.240   5.551   2.390 -0.9974  1.0319  0.3960
  568THF     H6 7377   3.337   5.348   2.055 -1.8735 -1.0267  0.4802
  568THF     H7 7378   3.425   5.295   2.190  0.6331  0.4180 -1.8588
  568THF     C8 7379   3.225   5.260   2.227  0.1948  0.3545  0.2451
  568THF     C9 7380   3.185   5.346   2.341  0.1918  0.3213 -0.1070
  568THF    H10 7381   3.252   5.158   2.253  2.0753  0.2978 -1.6322
  568THF    H11 7382   3.139   5.266   2.160  1.0574  2.9839 -0.7680
  568THF    H12 7383   3.087   5.320   2.380  0.6962 -0.6515  0.5600
  568THF    H13 7384   3.250   5.315   2.422 -1.9430  1.0369  1.9693
  569THF     O1 7385   2.974   2.273   4.680  0.2211 -0.7551 -0.7652
  569THF     C2 7386   3.028   2.393   4.739 -0.3847  0.4235  0.6686
  569THF     C3 7387   2.976   2.280   4.539 -0.0186 -0.4920  0.6583
  569THF     H4 7388   3.050   2.385   4.846  0.3079  1.0309  0.5835
  569THF     H5 7389   2.949   2.467   4.727 -2.0103 -1.5168 -1.3022
  569THF     H6 7390   3.000   2.182   4.498  0.2303  0.9358 -2.8895
  569THF     H7 7391   2.882   2.311   4.495 -0.2063  0.5026  1.6931
  569THF     C8 7392   3.096   2.380   4.512  0.2757  1.0030  0.2037
  569THF     C9 7393   3.145   2.416   4.649 -0.6202 -0.1946 -0.4105
  569THF    H10 7394   3.063   2.470   4.460  1.5844  1.0006 -0.6804
  569THF    H11 7395   3.168   2.343   4.439 -2.1513 -0.3824 -1.6357
  569THF    H12 7396   3.230   2.353   4.674 -2.0250 -1.4309  1.5432
  569THF    H13 7397   3.180   2.519   4.653 -2.1448  0.3483 -0.4190
  570THF     O1 7398   4.521   4.152   3.649  0.4063 -0.0748 -0.1108
  570THF     C2 7399   4.404   4.106   3.587  0.8064 -0.2212 -0.2482
  570THF     C3 7400   4.483   4.187   3.782 -0.1852  0.5580  0.1583
  570THF     H4 7401   4.414   4.016   3.526 -0.5176  0.3724 -1.3878
  570THF     H5 7402   4.369   4.188   3.525 -3.2963  0.0286  2.0689
  570THF     H6 7403   4.527   4.117   3.853  1.8384  3.4790  2.0374
  570THF     H7 7404   4.526   4.284   3.808 -0.7953  1.1100 -0.8377
  570THF     C8 7405   4.326   4.186   3.795 -0.2756  0.0678 -0.7064
  570THF     C9 7406   4.299   4.079   3.697 -0.0032  0.4254  0.8935
  570THF    H10 7407   4.289   4.281   3.756  1.5361  0.7320 -0.9090
  570THF    H11 7408   4.282   4.168   3.893  0.1448 -1.0233 -0.7066
  570THF    H12 7409   4.323   3.992   3.758 -3.9489 -0.2623  1.7428
  570THF    H13 7410   4.197   4.067   3.662  0.7085 -0.8319 -0.9197
  571THF     O1 7411   4.178   5.450   2.213  0.0997 -0.0875 -0.1649
  571THF     C2 7412   4.237   5.400   2.326 -0.2870  0.3704 -0.1144
  571THF     C3 7413   4.056   5.515   2.239  0.6445  0.6318 -0.3982
  571THF     H4 7414   4.345   5.407   2.313 -0.0116 -0.7624  1.4292
  571THF     H5 7415   4.215   5.296   2.349  0.6155  0.2199  0.0837
  571THF     H6 7416   4.057   5.612   2.190 -1.3839  0.6558 -0.4814
  571THF     H7 7417   3.966   5.456   2.222 -0.4164  1.1041  2.8294
  571THF     C8 7418   4.047   5.524   2.392  0.2119  0.4107  0.3521
  571THF     C9 7419   4.185   5.482   2.441  0.5452 -0.0307  0.0948
  571THF    H10 7420   3.968   5.476   2.451 -0.2362  1.0273  0.2646
  571THF    H11 7421   4.036   5.629   2.419 -0.5733  0.0621  1.4718
  571THF    H12 7422   4.237   5.577   2.449 -3.1358  2.4422 -2.3823
  571THF    H13 7423   4.189   5.424   2.533  1.2255 -0.4200 -0.1737
  572THF     O1 7424   4.877   2.653   4.075 -0.0016 -0.5081 -0.6925
  572THF     C2 7425   4.841   2.520   4.031  0.3043 -0.3838  0.4673
  572THF     C3 7426   4.769   2.737   4.034 -0.0458  0.1822  0.4680
  572THF     H4 7427   4.896   2.444   4.086  0.2162 -1.9638 -1.5184
  572THF     H5 7428   4.852   2.506   3.923  0.8161  2.0183  0.1314
  572THF     H6 7429   4.771   2.822   4.102  1.2374 -0.5858  1.4505
  572THF     H7 7430   4.775   2.776   3.933  0.5144 -0.5861  0.1945
  572THF     C8 7431   4.645   2.652   4.052  0.4555 -0.5059  0.6264
  572THF     C9 7432   4.693   2.512   4.075 -0.1465 -0.1693 -0.3318
  572THF    H10 7433   4.594   2.648   3.956  0.1160  2.4779  0.5845
  572THF    H11 7434   4.570   2.681   4.126  1.1562  1.2536  0.7024
  572THF    H12 7435   4.683   2.502   4.183 -0.2100  2.1880 -0.0564
  572THF    H13 7436   4.634   2.429   4.038 -0.2003 -0.5124  0.5001
  573THF     O1 7437   1.936   1.894   3.793 -0.0195  0.3480 -0.3230
  573THF     C2 7438   1.943   1.802   3.681  0.0474  0.0423 -0.1071
  573THF     C3 7439   1.828   1.856   3.875  0.1601 -0.5639  0.0377
  573THF     H4 7440   1.974   1.703   3.713  1.3030  0.1491 -0.9299
  573THF     H5 7441   2.004   1.851   3.604 -0.8938  0.3779 -0.6619
  573THF     H6 7442   1.856   1.769   3.934  1.3295  0.6324  1.3124
  573THF     H7 7443   1.798   1.932   3.948 -1.6244 -1.7932  0.6459
  573THF     C8 7444   1.721   1.824   3.774  0.1674 -0.5030  0.0019
  573THF     C9 7445   1.791   1.789   3.648  0.2316  0.6278 -0.1668
  573THF    H10 7446   1.653   1.907   3.757 -1.2764 -1.9290 -1.5186
  573THF    H11 7447   1.645   1.753   3.805 -2.3291  2.4415  1.0844
  573THF    H12 7448   1.773   1.690   3.606  1.1709  0.4079 -0.0767
  573THF    H13 7449   1.773   1.858   3.566 -0.2085 -1.4971 -1.9602
  574THF     O1 7450   1.669   2.462   2.032 -0.3207 -0.4477 -1.2274
  574THF     C2 7451   1.795   2.438   2.090  0.6118  0.3919  0.0744
  574THF     C3 7452   1.695   2.506   1.896  0.0428 -0.2211  0.5972
  574THF     H4 7453   1.789   2.352   2.157  0.7693  0.2136 -0.1412
  574THF     H5 7454   1.822   2.533   2.138 -0.5757  0.3640  0.8450
  574THF     H6 7455   1.600   2.489   1.845  0.2886  0.2038 -0.0102
  574THF     H7 7456   1.726   2.609   1.880 -1.4463  0.2686  0.6790
  574THF     C8 7457   1.805   2.407   1.850  1.2062 -0.2984  0.3189
  574THF     C9 7458   1.892   2.413   1.971 -0.0751  0.2866 -0.4271
  574THF    H10 7459   1.857   2.434   1.758  0.2016 -1.6018 -0.6740
  574THF    H11 7460   1.767   2.305   1.845  0.2668  0.0596 -0.0294
  574THF    H12 7461   1.938   2.316   1.991  1.5836  0.9887 -0.6295
  574THF    H13 7462   1.982   2.475   1.971  0.4591 -0.4797 -0.9479
  575THF     O1 7463   4.851   4.531   1.354  0.2506  0.0850  0.2542
  575THF     C2 7464   4.921   4.644   1.401 -0.3328 -0.1232 -0.4194
  575THF     C3 7465   4.954   4.436   1.334 -0.2712 -0.0584 -0.4911
  575THF     H4 7466   4.966   4.621   1.498  0.0025 -0.2587 -0.6057
  575THF     H5 7467   4.863   4.735   1.415  2.0137  1.2786  0.6285
  575THF     H6 7468   4.990   4.401   1.431 -2.1344 -0.8391 -0.0362
  575THF     H7 7469   4.920   4.351   1.276  1.0012 -1.9790  1.3998
  575THF     C8 7470   5.065   4.515   1.265 -0.2037  0.4531  0.6923
  575THF     C9 7471   5.027   4.663   1.293  0.1673  0.5889 -0.0506
  575THF    H10 7472   5.086   4.495   1.160  1.0715 -0.0374  1.0143
  575THF    H11 7473   5.163   4.491   1.306 -0.4305 -0.3066  0.8216
  575THF    H12 7474   5.112   4.727   1.314  1.1518 -0.4063 -0.9203
  575THF    H13 7475   4.995   4.701   1.196  1.3353 -1.1947 -1.1881
  576THF     O1 7476   1.487   4.961   3.127 -0.1670 -0.2280 -0.3687
  576THF     C2 7477   1.410   4.988   3.250  0.9698 -0.0102 -0.4490
  576THF     C3 7478   1.444   5.063   3.029 -0.0708  0.7102  0.1036
  576THF     H4 7479   1.467   5.053   3.316  1.8474 -0.3254 -0.8681
  576THF     H5 7480   1.398   4.891   3.298  2.3788  0.3542  0.6824
  576THF     H6 7481   1.498   5.157   3.043  3.7141 -1.1927 -0.4661
  576THF     H7 7482   1.458   5.035   2.924  1.5350 -0.5455  0.6198
  576THF     C8 7483   1.299   5.083   3.064  0.2368 -0.2912  0.7229
  576THF     C9 7484   1.279   5.049   3.207 -0.2973  0.0079 -0.3703
  576THF    H10 7485   1.257   5.009   2.996  1.5450  0.5062 -1.0552
  576THF    H11 7486   1.268   5.176   3.015  1.1455 -1.5246 -2.4472
  576THF    H12 7487   1.261   5.140   3.265  2.0208  0.5076 -0.3591
  576THF    H13 7488   1.194   4.984   3.229  0.3437 -0.9640 -0.7013
  577THF     O1 7489   4.315   4.622   3.935 -0.1060  0.4132  0.3010
  577THF     C2 7490   4.200   4.600   3.853  0.0058  0.0632  1.1683
  577THF     C3 7491   4.300   4.762   3.976  0.0770  0.4912  0.1973
  577THF     H4 7492   4.171   4.496   3.840 -2.7354  0.7894  0.9451
  577THF     H5 7493   4.221   4.648   3.757  1.9914 -1.6376  0.6689
  577THF     H6 7494   4.344   4.791   4.071 -0.6477  1.5303  0.2250
  577THF     H7 7495   4.343   4.827   3.900 -1.7784 -0.4799 -1.7958
  577THF     C8 7496   4.153   4.796   3.978  0.1608 -0.1475  0.0623
  577THF     C9 7497   4.093   4.669   3.933  0.2485  0.6406  0.6042
  577THF    H10 7498   4.117   4.872   3.909 -0.2671 -0.7520 -0.3806
  577THF    H11 7499   4.125   4.823   4.080  0.5095 -1.5061  0.5366
  577THF    H12 7500   4.070   4.598   4.012 -0.5776 -2.1732 -2.0105
  577THF    H13 7501   3.996   4.679   3.885  0.6201  0.5011 -0.1769
  578THF     O1 7502   0.050   2.744   0.660  0.1420  0.1756  0.0715
  578THF     C2 7503  -0.081   2.790   0.713 -0.1014  0.0906  0.2827
  578THF     C3 7504   0.074   2.808   0.531 -0.2206 -0.5785 -0.7332
  578THF     H4 7505  -0.054   2.864   0.787 -2.5709 -0.0416  1.3925
  578THF     H5 7506  -0.157   2.721   0.749 -0.6917 -0.4699 -1.8718
  578THF     H6 7507   0.172   2.855   0.523  0.6100 -2.3270 -1.2174
  578THF     H7 7508   0.066   2.737   0.449 -0.6201 -0.0967 -1.1137
  578THF     C8 7509  -0.036   2.912   0.514  0.3792 -0.5299 -0.0352
  578THF     C9 7510  -0.142   2.854   0.597  0.5706 -0.3832 -0.2093
  578THF    H10 7511  -0.066   2.951   0.417 -1.6019  1.1569  1.1715
  578THF    H11 7512   0.008   2.997   0.567 -2.9447  0.9931  0.5407
  578THF    H12 7513  -0.218   2.928   0.623  0.9798  0.0210 -0.1518
  578THF    H13 7514  -0.192   2.780   0.535  0.8905  0.3766 -1.4185
  579THF     O1 7515   3.764   4.325   4.608 -0.4344 -0.1520  0.2823
  579THF     C2 7516   3.733   4.416   4.506 -0.1748 -0.0013  0.2040
  579THF     C3 7517   3.901   4.346   4.642 -0.2513  0.2058  0.4736
  579THF     H4 7518   3.625   4.414   4.495 -0.0501  0.2072 -1.2092
  579THF     H5 7519   3.772   4.398   4.406 -0.1089 -1.4718  0.4667
  579THF     H6 7520   3.917   4.308   4.742 -0.2006  0.2058  0.4648
  579THF     H7 7521   3.957   4.283   4.573 -1.1571  0.4193 -0.4897
  579THF     C8 7522   3.915   4.501   4.628  0.1880 -0.0717  0.2552
  579THF     C9 7523   3.790   4.547   4.570 -0.1863 -0.7317  0.4933
  579THF    H10 7524   3.993   4.536   4.561  0.1102  1.6643  1.0358
  579THF    H11 7525   3.932   4.542   4.728 -2.2921 -1.8151  1.5186
  579THF    H12 7526   3.728   4.573   4.656  0.1035 -0.8597  0.7411
  579THF    H13 7527   3.800   4.634   4.506  0.1955 -0.0687  1.4344
  580THF     O1 7528   3.089   0.817   1.070 -0.3643  0.0511 -0.0702
  580THF     C2 7529   3.037   0.849   0.941  0.4832 -0.2592  0.7082
  580THF     C3 7530   3.055   0.915   1.161  0.7887 -0.0961  0.1009
  580THF     H4 7531   2.930   0.832   0.930  0.1710  0.9179  1.7462
  580THF     H5 7532   3.099   0.795   0.869  0.1397  1.3057 -0.8481
  580THF     H6 7533   2.956   0.895   1.201 -0.4511 -0.3635 -2.8229
  580THF     H7 7534   3.126   0.927   1.243  0.0945 -2.4376  1.1043
  580THF     C8 7535   3.044   1.049   1.082  0.5116  0.2720  0.9000
  580THF     C9 7536   3.060   1.004   0.929  0.0089 -0.1602  0.6600
  580THF    H10 7537   3.128   1.110   1.116  0.0739  1.8316 -0.6253
  580THF    H11 7538   2.944   1.086   1.105 -0.0994 -1.9962  2.1735
  580THF    H12 7539   2.990   1.062   0.869  0.1675  0.0561  0.6845
  580THF    H13 7540   3.158   1.028   0.887  1.7517 -0.7340  4.0276
  581THF     O1 7541   1.592   3.780   2.868 -0.2205 -0.1071 -0.4948
  581THF     C2 7542   1.628   3.658   2.934 -0.1758 -0.4832 -0.2505
  581THF     C3 7543   1.486   3.756   2.776  0.2949 -0.4461  0.3423
  581THF     H4 7544   1.550   3.635   3.007 -0.6423 -0.3493 -0.6999
  581THF     H5 7545   1.723   3.648   2.987 -0.6460 -4.2828  0.2166
  581THF     H6 7546   1.389   3.761   2.824  0.6893 -3.7419  1.7862
  581THF     H7 7547   1.504   3.830   2.697 -0.3366 -1.6578 -0.9893
  581THF     C8 7548   1.524   3.621   2.717  0.3877  0.1010  1.0341
  581THF     C9 7549   1.614   3.559   2.819 -0.1673  0.3399  0.6265
  581THF    H10 7550   1.575   3.631   2.622 -0.1651 -0.2373  0.6969
  581THF    H11 7551   1.432   3.566   2.694  1.0063  0.1289 -1.9209
  581THF    H12 7552   1.568   3.468   2.858 -0.8667  0.9811  1.3479
  581THF    H13 7553   1.708   3.525   2.777 -0.7752 -1.5593  0.7329
  582THF     O1 7554   0.754   2.340   3.415 -0.1505  0.0337  0.0828
  582THF     C2 7555   0.830   2.429   3.337 -0.0594 -0.3342 -0.6576
  582THF     C3 7556   0.766   2.360   3.551  0.1825  0.3225 -0.3887
  582THF     H4 7557   0.776   2.523   3.327  2.4913  1.1683 -0.9477
  582THF     H5 7558   0.845   2.390   3.236 -1.9582 -0.9942 -0.7261
  582THF     H6 7559   0.733   2.463   3.568 -1.0449 -0.4167  2.1561
  582THF     H7 7560   0.723   2.292   3.623  2.0040 -1.5007 -0.9395
  582THF     C8 7561   0.925   2.374   3.558 -0.2575  0.7598 -0.2738
  582THF     C9 7562   0.959   2.431   3.423  0.1721  0.4050  0.1968
  582THF    H10 7563   0.970   2.277   3.578 -0.7699  0.4727 -0.5043
  582THF    H11 7564   0.956   2.442   3.638  0.9994 -0.4023  0.2610
  582THF    H12 7565   1.015   2.524   3.431 -1.1983  1.1848  1.1575
  582THF    H13 7566   1.030   2.366   3.371 -0.2178  2.1336 -2.7838
  583THF     O1 7567   2.194   3.860   5.249  0.2066 -0.0934  0.2302
  583THF     C2 7568   2.069   3.812   5.228 -0.0241  0.5037  0.1812
  583THF     C3 7569   2.288   3.753   5.252  0.2069  0.3480  0.2773
  583THF     H4 7570   2.026   3.874   5.150 -1.5318  0.5465  1.0113
  583THF     H5 7571   2.017   3.818   5.324  2.7944 -2.2746  2.0935
  583THF     H6 7572   2.346   3.744   5.160 -0.4587 -0.4425 -0.0719
  583THF     H7 7573   2.364   3.763   5.330  0.6665  0.6193 -0.1952
  583THF     C8 7574   2.200   3.633   5.269  0.7105  0.7697 -0.2888
  583THF     C9 7575   2.078   3.663   5.188  0.1579 -0.7265 -0.0076
  583THF    H10 7576   2.185   3.631   5.377  0.8655  1.9061 -0.2341
  583THF    H11 7577   2.245   3.545   5.224 -1.3475 -0.4968  0.0154
  583THF    H12 7578   2.089   3.650   5.081 -0.6719  0.3252 -0.2369
  583THF    H13 7579   1.993   3.600   5.215  0.4611 -1.5356 -0.9039
  584THF     O1 7580   4.964   2.456   1.066  0.5175  0.0707  0.1581
  584THF     C2 7581   5.071   2.511   1.145  0.3377 -0.4404  0.6845
  584THF     C3 7582   5.022   2.383   0.962 -0.7718 -1.1155  0.2834
  584THF     H4 7583   5.120   2.438   1.209 -0.6465 -1.6940  0.0673
  584THF     H5 7584   5.034   2.587   1.214  0.7719  0.6071 -0.1965
  584THF     H6 7585   5.067   2.288   0.987  0.3557 -1.5009 -2.7391
  584THF     H7 7586   4.961   2.358   0.875  1.1037  0.7099 -1.6869
  584THF     C8 7587   5.130   2.481   0.913  0.2990 -0.5244  0.7061
  584THF     C9 7588   5.155   2.572   1.033 -0.2883 -0.3651 -0.3953
  584THF    H10 7589   5.084   2.548   0.840  1.4407 -1.9320 -1.4177
  584THF    H11 7590   5.221   2.433   0.878  0.3577  0.0430  0.0611
  584THF    H12 7591   5.261   2.580   1.054 -0.4339 -1.5928  0.9167
  584THF    H13 7592   5.119   2.672   1.010 -1.2140 -0.5211  0.2909
  585THF     O1 7593   1.185   2.694   3.636  0.6526  0.3839 -0.1029
  585THF     C2 7594   1.118   2.815   3.617  0.3657 -0.3093  0.9598
  585THF     C3 7595   1.290   2.691   3.534  0.7983  0.1820  0.3444
  585THF     H4 7596   1.113   2.862   3.715  2.2787  1.9271  0.0791
  585THF     H5 7597   1.013   2.805   3.592  0.2771 -0.2508  1.3035
  585THF     H6 7598   1.372   2.627   3.565  1.1290  0.4640  0.0645
  585THF     H7 7599   1.244   2.639   3.450 -2.8099  2.6086  0.5918
  585THF     C8 7600   1.323   2.826   3.495 -0.6406 -0.8726 -0.4479
  585THF     C9 7601   1.190   2.893   3.506 -0.2361 -0.1425  0.1783
  585THF    H10 7602   1.368   2.828   3.396  0.2348 -3.4856 -0.1804
  585THF    H11 7603   1.398   2.871   3.560  1.7232 -1.1196 -2.8426
  585THF    H12 7604   1.211   2.999   3.520  1.6242 -0.2634 -1.3857
  585THF    H13 7605   1.143   2.885   3.408 -1.4424 -0.1963  0.7396
  586THF     O1 7606   3.900   1.577   0.600  0.1547 -0.3266 -0.4866
  586THF     C2 7607   3.821   1.641   0.501 -0.1080 -0.8088  0.2871
  586THF     C3 7608   4.023   1.642   0.609  0.2152  0.5061 -0.1600
  586THF     H4 7609   3.719   1.601   0.495 -0.4311  0.0711 -0.3302
  586THF     H5 7610   3.863   1.615   0.403  0.9058 -1.3990  0.8668
  586THF     H6 7611   4.071   1.625   0.706 -0.0190 -1.8962 -0.3940
  586THF     H7 7612   4.098   1.613   0.536 -0.6958 -2.1173 -0.1972
  586THF     C8 7613   3.991   1.784   0.578  0.1521  0.7272  0.0563
  586THF     C9 7614   3.848   1.792   0.523 -0.0490  0.0150 -0.8168
  586THF    H10 7615   4.057   1.829   0.503 -0.6545  0.6824 -0.7032
  586THF    H11 7616   3.994   1.845   0.668 -2.6145  0.9642  0.0739
  586THF    H12 7617   3.787   1.845   0.596  0.2884  0.2778 -0.7222
  586THF    H13 7618   3.846   1.858   0.436 -2.6325  1.2697  0.0912
  587THF     O1 7619   0.892   3.590   4.056 -0.3157  0.0526  0.0660
  587THF     C2 7620   0.788   3.669   4.110  0.6806  0.0358 -0.1510
  587THF     C3 7621   0.987   3.664   3.980  0.2403  0.0051  1.1578
  587THF     H4 7622   0.757   3.641   4.211 -1.2007  0.9064 -0.4418
  587THF     H5 7623   0.693   3.655   4.058  1.4227 -1.3174 -1.1980
  587THF     H6 7624   1.077   3.685   4.039  0.0505 -0.5905  1.6633
  587THF     H7 7625   1.011   3.611   3.888 -2.6263 -0.5249  0.6257
  587THF     C8 7626   0.910   3.790   3.949 -0.3045  0.3258 -0.4208
  587THF     C9 7627   0.831   3.813   4.077 -0.1830 -0.1051  0.0671
  587THF    H10 7628   0.844   3.771   3.865 -0.2357  0.2933 -0.4671
  587THF    H11 7629   0.964   3.876   3.910  0.5386 -0.2276 -0.4984
  587THF    H12 7630   0.896   3.838   4.160 -1.4526 -0.8805  1.3316
  587THF    H13 7631   0.754   3.891   4.074 -0.2886 -0.1370  1.5366
  588THF     O1 7632   4.862   4.940   3.730 -0.5199  0.0783 -0.2277
  588THF     C2 7633   4.843   5.011   3.606 -0.3656  0.0087 -0.3719
  588THF     C3 7634   4.995   4.887   3.730  0.0312  0.1805 -0.5587
  588THF     H4 7635   4.763   5.084   3.611  0.7617  1.3334 -1.0917
  588THF     H5 7636   4.825   4.931   3.534  1.5630 -0.1661 -0.7067
  588THF     H6 7637   5.020   4.841   3.825 -1.8743  3.8739  1.9614
  588THF     H7 7638   5.000   4.810   3.653  1.1159 -1.2963  0.9043
  588THF     C8 7639   5.084   5.001   3.673  0.1144  0.2245 -0.0132
  588THF     C9 7640   4.986   5.072   3.576  0.5353 -0.2309  0.3001
  588THF    H10 7641   5.182   4.991   3.626  0.0876 -1.9478  0.2901
  588THF    H11 7642   5.109   5.060   3.761  1.1955  0.0416 -0.1790
  588THF    H12 7643   4.975   5.179   3.591 -1.4815 -0.1415 -1.3107
  588THF    H13 7644   5.032   5.049   3.480  0.5224  0.8975  0.0125
  589THF     O1 7645   5.270   2.960   4.082 -0.1407 -0.4764 -0.3435
  589THF     C2 7646   5.292   2.835   4.149 -0.4884 -0.1403  0.3298
  589THF     C3 7647   5.225   3.049   4.180  0.0369 -0.3822 -0.2205
  589THF     H4 7648   5.395   2.829   4.183 -0.3994  0.8021  0.2420
  589THF     H5 7649   5.282   2.750   4.082  0.0793  1.2113 -1.5583
  589THF     H6 7650   5.312   3.069   4.243  1.4163 -0.8995 -1.8936
  589THF     H7 7651   5.196   3.134   4.118  5.3194  0.2047 -2.4839
  589THF     C8 7652   5.124   2.969   4.261 -0.2119  0.4164 -0.1264
  589THF     C9 7653   5.200   2.834   4.267  0.1114  0.0366  0.1012
  589THF    H10 7654   5.023   2.963   4.223 -1.0387 -3.3373  2.1991
  589THF    H11 7655   5.120   3.008   4.363 -1.1729 -0.1820  0.0701
  589THF    H12 7656   5.264   2.813   4.352 -1.1168  0.7171  1.2323
  589THF    H13 7657   5.131   2.750   4.262 -0.5880  0.6437 -1.0140
  590THF     O1 7658   1.324   3.917   1.235 -0.6571  0.3773  0.3474
  590THF     C2 7659   1.434   4.001   1.236  0.1247 -0.2680  0.5196
  590THF     C3 7660   1.311   3.852   1.363 -0.3308 -0.2747 -0.6429
  590THF     H4 7661   1.402   4.084   1.299 -1.3819 -0.8234  0.5046
  590THF     H5 7662   1.455   4.037   1.136  1.2329  0.7301  1.0822
  590THF     H6 7663   1.253   3.912   1.433 -1.2258 -0.4421 -1.2180
  590THF     H7 7664   1.282   3.747   1.358  0.9998 -0.6130 -2.2787
  590THF     C8 7665   1.462   3.858   1.409 -0.7427 -0.1018  0.0520
  590THF     C9 7666   1.541   3.925   1.306  0.6789 -0.3692 -0.3362
  590THF    H10 7667   1.499   3.758   1.435  1.5923  0.8475  0.6276
  590THF    H11 7668   1.466   3.913   1.503  2.5904  0.8089 -0.4987
  590THF    H12 7669   1.613   3.988   1.357  0.5227 -0.4640  0.0025
  590THF    H13 7670   1.597   3.852   1.247  0.2852 -1.5002  0.6679
  591THF     O1 7671   4.713   4.293   2.821  0.1008 -0.0220  0.2075
  591THF     C2 7672   4.633   4.392   2.764  0.8296  0.2782 -0.1712
  591THF     C3 7673   4.816   4.260   2.727  0.1156 -0.1128 -0.0973
  591THF     H4 7674   4.586   4.444   2.848  2.3287  0.3465  0.6471
  591THF     H5 7675   4.571   4.353   2.683 -0.6647  0.4631  0.8205
  591THF     H6 7676   4.906   4.225   2.778  0.9852  2.7287  0.4788
  591THF     H7 7677   4.784   4.183   2.657  1.9075 -1.1620  0.1545
  591THF     C8 7678   4.841   4.395   2.663 -0.0383  0.1763 -0.9137
  591THF     C9 7679   4.730   4.488   2.699  0.6559  0.3005 -0.2045
  591THF    H10 7680   4.840   4.387   2.554 -2.3584  1.2806 -1.0353
  591THF    H11 7681   4.940   4.417   2.702 -0.1770 -0.0669 -0.4149
  591THF    H12 7682   4.770   4.569   2.761 -0.1517 -0.5690  1.5234
  591THF    H13 7683   4.687   4.535   2.611  0.5755  0.9123  0.1505
  592THF     O1 7684   0.296   0.108   5.260 -0.0133  0.4214 -0.7438
  592THF     C2 7685   0.175   0.039   5.281 -0.7126  0.1464 -0.4196
  592THF     C3 7686   0.293   0.160   5.133 -0.4883 -0.0817 -0.4140
  592THF     H4 7687   0.166   0.003   5.383  1.8867  1.4443  0.3351
  592THF     H5 7688   0.169  -0.050   5.219 -1.0086 -1.1097  1.3437
  592THF     H6 7689   0.372   0.233   5.117  1.0053 -1.6929 -0.5769
  592THF     H7 7690   0.295   0.078   5.062  1.5146  0.0423 -0.5580
  592THF     C8 7691   0.151   0.225   5.133 -0.2608 -0.5634 -0.2426
  592THF     C9 7692   0.076   0.138   5.230  0.0087  0.6047 -0.2989
  592THF    H10 7693   0.109   0.238   5.033  0.6973  0.3573 -0.5552
  592THF    H11 7694   0.166   0.326   5.173  1.6727 -0.1130 -1.9218
  592THF    H12 7695   0.026   0.187   5.313  0.7146 -0.0012  0.5044
  592THF    H13 7696  -0.009   0.087   5.184 -0.0920  2.1593 -1.9659
  593THF     O1 7697   1.538   5.462   2.473  0.0303 -0.3120  0.0507
  593THF     C2 7698   1.458   5.505   2.359 -0.3481 -0.3048  0.3829
  593THF     C3 7699   1.584   5.581   2.534 -0.6098  0.0418 -0.2278
  593THF     H4 7700   1.362   5.554   2.381  0.1997  0.7011  0.5919
  593THF     H5 7701   1.448   5.427   2.283  1.2240 -0.5944  0.4484
  593THF     H6 7702   1.500   5.624   2.587  0.7182  2.2466  0.2240
  593THF     H7 7703   1.662   5.569   2.610 -0.2319  0.5290 -0.5357
  593THF     C8 7704   1.615   5.680   2.422 -0.1405 -0.5593  0.1262
  593THF     C9 7705   1.550   5.620   2.305  0.4503 -0.1732  0.3921
  593THF    H10 7706   1.723   5.685   2.407 -0.3891  0.6250 -1.5890
  593THF    H11 7707   1.584   5.784   2.431 -1.3014 -0.8677 -0.1225
  593THF    H12 7708   1.505   5.690   2.234  1.8844 -1.9602 -2.5141
  593THF    H13 7709   1.623   5.574   2.238 -0.3608  1.2783 -1.5997
  594THF     O1 7710   2.088   3.041   0.020  0.0062 -0.1445  0.0746
  594THF     C2 7711   2.207   3.121   0.027  0.4824 -0.7936 -0.3154
  594THF     C3 7712   1.983   3.124  -0.041  0.3301 -0.5866  0.1349
  594THF     H4 7713   2.305   3.074   0.020  1.3095  0.1176  3.2618
  594THF     H5 7714   2.203   3.183   0.117  1.8443  0.5666 -1.1410
  594THF     H6 7715   1.950   3.073  -0.132 -1.0101 -0.6348  0.6171
  594THF     H7 7716   1.899   3.138   0.027  1.9816 -0.3368  2.2311
  594THF     C8 7717   2.049   3.247  -0.091 -0.1962 -0.1468  0.3048
  594THF     C9 7718   2.192   3.209  -0.096  0.1650 -0.3376  0.5175
  594THF    H10 7719   2.024   3.328  -0.022  0.0238  1.0709 -0.9991
  594THF    H11 7720   2.019   3.294  -0.184  0.8591  0.1513  0.0930
  594THF    H12 7721   2.209   3.150  -0.186 -0.4096 -1.8455  1.3527
  594THF    H13 7722   2.256   3.295  -0.109 -0.2353  0.1790  1.7346
  595THF     O1 7723   4.589   2.319   4.681 -0.2521 -0.5132  0.6495
  595THF     C2 7724   4.578   2.195   4.743  0.8859 -0.0958  0.3130
  595THF     C3 7725   4.540   2.424   4.762  0.4998  0.0936 -0.0370
  595THF     H4 7726   4.659   2.194   4.815  1.0749  0.3729  0.1140
  595THF     H5 7727   4.590   2.109   4.677  4.5202 -1.3207  2.3091
  595THF     H6 7728   4.616   2.441   4.838  1.4463 -1.3237 -0.6063
  595THF     H7 7729   4.525   2.509   4.695  0.1579 -1.0724 -1.4860
  595THF     C8 7730   4.416   2.351   4.816  0.0197 -0.2068  0.1540
  595THF     C9 7731   4.443   2.207   4.806 -0.6288  0.2127  0.1754
  595THF    H10 7732   4.324   2.374   4.763  0.3947 -2.0212 -1.3884
  595THF    H11 7733   4.395   2.382   4.919 -0.1701  0.3178 -0.0394
  595THF    H12 7734   4.425   2.156   4.901 -3.5853 -0.5783 -0.7003
  595THF    H13 7735   4.372   2.161   4.738  0.2470 -2.2234  0.8151
  596THF     O1 7736   2.537   5.401   2.463  0.1276  0.0007 -0.3640
  596THF     C2 7737   2.622   5.432   2.351 -0.1607 -0.0004  0.3558
  596THF     C3 7738   2.626   5.359   2.567 -0.4705 -0.3365 -0.5735
  596THF     H4 7739   2.637   5.539   2.341 -0.5284  0.1118  0.9903
  596THF     H5 7740   2.577   5.402   2.256  0.3556 -2.7157  0.8703
  596THF     H6 7741   2.673   5.453   2.598 -2.0211  0.1975  0.2559
  596THF     H7 7742   2.574   5.303   2.644 -0.1224  1.1633  0.8111
  596THF     C8 7743   2.720   5.261   2.493 -0.5397 -0.0100  0.5916
  596THF     C9 7744   2.749   5.345   2.366 -0.2986 -0.1098 -0.5197
  596THF    H10 7745   2.664   5.173   2.462 -1.7820  1.1989 -0.6772
  596THF    H11 7746   2.808   5.226   2.547 -0.2506 -0.5363 -0.2168
  596THF    H12 7747   2.835   5.405   2.396 -0.8274  1.3132 -1.7030
  596THF    H13 7748   2.778   5.288   2.278 -0.7450 -0.2747 -0.5626
  597THF     O1 7749   2.010   3.388   0.829 -0.0260 -0.0288 -0.0221
  597THF     C2 7750   1.889   3.449   0.790  0.2387 -0.0347  0.0212
  597THF     C3 7751   2.077   3.471   0.923  0.6197 -0.1513  0.1235
  597THF     H4 7752   1.803   3.417   0.849  0.1585  0.0289 -0.0615
  597THF     H5 7753   1.870   3.409   0.690  1.4233 -0.0386 -0.2111
  597THF     H6 7754   2.080   3.427   1.022 -0.3296 -1.8772 -0.5787
  597THF     H7 7755   2.183   3.473   0.897  0.8953  0.5184  1.2163
  597THF     C8 7756   2.001   3.609   0.917  0.1904  0.5645  0.0232
  597THF     C9 7757   1.908   3.603   0.801  0.5484  0.3008  0.5197
  597THF    H10 7758   2.062   3.699   0.907  2.3989 -0.9615 -1.3945
  597THF    H11 7759   1.942   3.612   1.008  0.7907 -0.4100  0.4644
  597THF    H12 7760   1.808   3.644   0.819  0.2727 -0.6781  1.2547
  597THF    H13 7761   1.953   3.645   0.711 -0.6068 -1.7354 -1.0968
  598THF     O1 7762   2.975   1.290   2.040 -0.3930  0.1751 -0.3976
  598THF     C2 7763   2.950   1.360   2.159 -0.5429 -0.3388  0.0306
  598THF     C3 7764   3.071   1.362   1.959 -0.4811 -0.3370 -0.1613
  598THF     H4 7765   2.898   1.291   2.224 -0.7110 -1.2640 -1.0642
  598THF     H5 7766   2.885   1.444   2.131  0.2545  0.1111 -0.5064
  598THF     H6 7767   3.125   1.293   1.894  0.9302 -1.5381  2.1410
  598THF     H7 7768   3.016   1.438   1.905 -1.7668  0.1491  1.7174
  598THF     C8 7769   3.170   1.407   2.065 -0.2169 -0.2855  0.3219
  598THF     C9 7770   3.093   1.401   2.202  0.0171  0.4082  0.3532
  598THF    H10 7771   3.203   1.508   2.042 -1.4659 -0.0133 -0.4187
  598THF    H11 7772   3.255   1.342   2.085 -0.5486 -0.3129  1.6779
  598THF    H12 7773   3.141   1.325   2.263  2.5955  0.2627 -1.7051
  598THF    H13 7774   3.109   1.499   2.248  1.5413  0.0451  0.6552
  599THF     O1 7775   3.561   2.570   4.712 -0.3370  0.7390  0.2366
  599THF     C2 7776   3.530   2.496   4.585 -0.4218 -0.7433 -0.3857
  599THF     C3 7777   3.551   2.709   4.675  0.6317 -0.7244  0.2699
  599THF     H4 7778   3.458   2.418   4.610  1.4807 -1.4350  3.8897
  599THF     H5 7779   3.626   2.461   4.548 -0.7848 -0.5881 -1.5043
  599THF     H6 7780   3.519   2.773   4.757 -0.2902 -0.2803 -0.4274
  599THF     H7 7781   3.652   2.745   4.653  0.1397  1.3521  1.2148
  599THF     C8 7782   3.452   2.714   4.552  0.4149  0.1945 -0.6019
  599THF     C9 7783   3.481   2.594   4.474 -0.3804  0.5074 -0.2510
  599THF    H10 7784   3.445   2.806   4.494 -1.0160 -0.3419 -1.3210
  599THF    H11 7785   3.353   2.718   4.597 -1.0542 -0.5345 -3.5574
  599THF    H12 7786   3.393   2.549   4.428 -0.0482 -1.0516  0.5403
  599THF    H13 7787   3.550   2.613   4.391 -1.9872  0.3730 -1.6689
  600THF     O1 7788   3.144   5.215   5.464  0.3198  0.0340  0.1891
  600THF     C2 7789   3.002   5.243   5.434  0.4528 -0.2182 -0.3188
  600THF     C3 7790   3.143   5.071   5.472  0.0144 -0.1633  0.1421
  600THF     H4 7791   2.980   5.233   5.327 -0.7365  0.0305 -0.1131
  600THF     H5 7792   2.976   5.343   5.467  0.0418 -0.2481 -0.5408
  600THF     H6 7793   3.165   5.037   5.371  0.9025  0.5484  0.0835
  600THF     H7 7794   3.230   5.040   5.529  0.5951  0.0995 -0.5873
  600THF     C8 7795   3.013   5.025   5.526 -0.2497 -0.0236 -0.8547
  600THF     C9 7796   2.923   5.144   5.512  0.1962 -0.4561 -0.9368
  600THF    H10 7797   3.014   5.003   5.633 -0.3914 -1.4768 -1.1354
  600THF    H11 7798   2.972   4.938   5.474  0.4243 -0.0528 -1.3453
  600THF    H12 7799   2.825   5.119   5.471 -1.9030  2.0661  2.0444
  600THF    H13 7800   2.912   5.191   5.610  0.8753  0.9256 -1.4846
  601THF     O1 7801   3.753   4.115   1.088  0.7675 -0.8659  0.3562
  601THF     C2 7802   3.660   4.186   1.010  0.4289  0.5681 -0.2822
  601THF     C3 7803   3.712   3.979   1.092  0.2441  0.7012 -0.4755
  601THF     H4 7804   3.698   4.280   0.972 -2.2775  1.6626 -0.5229
  601THF     H5 7805   3.569   4.196   1.070  0.6952 -0.6610  0.3663
  601THF     H6 7806   3.786   3.911   1.134 -2.2625 -1.4819  0.7122
  601THF     H7 7807   3.623   3.974   1.155  1.0440 -1.8716  0.5898
  601THF     C8 7808   3.692   3.953   0.944  0.1994 -0.4174 -0.4560
  601THF     C9 7809   3.649   4.089   0.891 -0.0492  0.6909  0.3216
  601THF    H10 7810   3.617   3.875   0.930 -2.3010  1.3080  2.1147
  601THF    H11 7811   3.785   3.926   0.893  0.4298  0.6001 -0.6118
  601THF    H12 7812   3.708   4.127   0.808  0.2552  1.8608  1.0438
  601THF    H13 7813   3.547   4.089   0.854 -0.6679  0.9328  1.9391
  602THF     O1 7814   0.276   0.757   4.973 -0.1350 -0.0758  0.0428
  602THF     C2 7815   0.345   0.644   4.921 -0.1444 -0.1729  0.7012
  602THF     C3 7816   0.319   0.751   5.109  0.2815  0.2647 -0.2264
  602THF     H4 7817   0.447   0.676   4.896 -0.3162 -0.4717 -0.4592
  602THF     H5 7818   0.306   0.616   4.823  2.1255  1.8633 -0.9349
  602THF     H6 7819   0.419   0.794   5.111  1.2772 -1.8844 -1.0368
  602THF     H7 7820   0.258   0.816   5.173  1.0917  1.4517 -0.6285
  602THF     C8 7821   0.311   0.600   5.154  0.8737 -0.5487  0.0926
  602THF     C9 7822   0.333   0.542   5.024 -0.3867 -0.3606 -0.3217
  602THF    H10 7823   0.212   0.572   5.190  1.2563 -0.8172  0.9584
  602THF    H11 7824   0.386   0.571   5.227  2.3837  1.6438 -0.5103
  602THF    H12 7825   0.412   0.468   5.026 -0.1784 -0.1255  1.6455
  602THF    H13 7826   0.239   0.491   5.004 -0.1492 -1.4197  1.1524
  603THF     O1 7827   4.936   1.996   0.559  0.3512 -0.6585  0.2371
  603THF     C2 7828   5.031   1.931   0.639  0.2785  0.5613  0.4287
  603THF     C3 7829   4.991   2.118   0.505  0.0754 -0.3520  0.3533
  603THF     H4 7830   5.088   1.863   0.575  0.0062 -0.8877  1.6562
  603THF     H5 7831   4.965   1.872   0.703 -0.5622  3.7178  2.7170
  603THF     H6 7832   5.025   2.091   0.405 -1.6828 -0.3939 -0.2570
  603THF     H7 7833   4.919   2.200   0.498 -1.8830 -2.0402 -0.0956
  603THF     C8 7834   5.121   2.139   0.586  0.4324 -0.6253  0.1099
  603THF     C9 7835   5.103   2.041   0.705 -0.3952  0.0509 -0.1984
  603THF    H10 7836   5.128   2.240   0.626 -1.6694 -0.8981  1.3334
  603THF    H11 7837   5.206   2.119   0.521  1.9077  1.3717  1.2865
  603THF    H12 7838   5.199   2.019   0.751 -1.2063  0.3954  1.7597
  603THF    H13 7839   5.038   2.082   0.782 -1.1776 -1.6246  0.0744
  604THF     O1 7840   4.814   1.130   3.116 -0.1737 -0.3309 -0.3809
  604THF     C2 7841   4.760   1.041   3.017 -0.0820  0.3103  0.6637
  604THF     C3 7842   4.745   1.255   3.115  0.1317  0.1804  0.2093
  604THF     H4 7843   4.659   1.006   3.040 -0.4588  0.5349 -0.5730
  604THF     H5 7844   4.818   0.950   3.003  0.3355  0.6860 -0.0821
  604THF     H6 7845   4.656   1.244   3.177  0.2012 -2.2091 -0.0411
  604THF     H7 7846   4.808   1.336   3.152 -1.8021  0.4478  3.3235
  604THF     C8 7847   4.704   1.273   2.968 -0.2289  0.2795 -0.7509
  604THF     C9 7848   4.752   1.145   2.905 -0.2340 -0.1774 -0.5899
  604THF    H10 7849   4.748   1.358   2.917 -1.3545  1.6292  0.4304
  604THF    H11 7850   4.596   1.285   2.963 -0.8521 -3.1774  1.1718
  604THF    H12 7851   4.692   1.123   2.817 -2.4588  2.9385 -0.0267
  604THF    H13 7852   4.849   1.161   2.858  0.7850 -0.4967  1.2894
  605THF     O1 7853   2.561   2.623   1.119 -0.3931  0.5626 -0.3508
  605THF     C2 7854   2.460   2.705   1.072  0.4041 -0.2523 -0.1529
  605THF     C3 7855   2.678   2.702   1.153 -0.3254 -0.1662  0.0977
  605THF     H4 7856   2.389   2.745   1.145  1.0428 -0.3255  0.5185
  605THF     H5 7857   2.402   2.656   0.994 -2.0569  0.8022  0.8863
  605THF     H6 7858   2.675   2.764   1.243  2.5221 -1.1382  0.9669
  605THF     H7 7859   2.771   2.647   1.168 -1.2136 -1.7096  0.1276
  605THF     C8 7860   2.682   2.802   1.043 -0.4938  0.1479  0.2939
  605THF     C9 7861   2.538   2.833   1.021  0.1295  0.2933  0.5420
  605THF    H10 7862   2.730   2.770   0.950  0.5862  2.1845  0.0939
  605THF    H11 7863   2.733   2.893   1.075 -1.4847 -0.3180  3.5135
  605THF    H12 7864   2.511   2.922   1.079  0.8814  0.3134  0.8678
  605THF    H13 7865   2.511   2.855   0.918 -0.9477  4.3973  1.5037
  606THF     O1 7866   2.616   4.074   1.282 -0.0035  0.1557  0.3315
  606THF     C2 7867   2.532   4.176   1.347 -0.7407  0.4354  0.5922
  606THF     C3 7868   2.699   4.133   1.189 -0.1062 -0.0592 -0.3508
  606THF     H4 7869   2.581   4.211   1.437  0.5792  1.5321 -0.4974
  606THF     H5 7870   2.440   4.118   1.355  0.0319 -1.1299 -0.9796
  606THF     H6 7871   2.785   4.167   1.248 -0.8635  1.0801  0.1295
  606THF     H7 7872   2.730   4.060   1.115  0.8864  0.8331 -0.8515
  606THF     C8 7873   2.623   4.252   1.133  0.0308  0.4754 -0.3052
  606THF     C9 7874   2.525   4.289   1.245 -0.0469 -0.1689 -0.1581
  606THF    H10 7875   2.556   4.214   1.056  0.0115  0.5033 -0.3024
  606THF    H11 7876   2.685   4.335   1.099 -0.4499  1.6324  1.4840
  606THF    H12 7877   2.563   4.367   1.312  0.4426  1.0830 -1.8313
  606THF    H13 7878   2.426   4.312   1.205 -0.3781 -1.4360 -0.1136
  607THF     O1 7879   0.396   4.156   4.887  0.1038 -0.9815 -0.5375
  607THF     C2 7880   0.469   4.053   4.951  0.7042 -0.5259 -0.1795
  607THF     C3 7881   0.386   4.263   4.976 -0.1677  0.5891 -0.3291
  607THF     H4 7882   0.495   3.988   4.868 -0.7015  1.9943 -2.7814
  607THF     H5 7883   0.410   3.993   5.021  3.8125 -2.7944  0.7401
  607THF     H6 7884   0.356   4.352   4.920  1.0088  0.0893 -1.8453
  607THF     H7 7885   0.320   4.235   5.058 -0.3893  1.0452 -0.3530
  607THF     C8 7886   0.527   4.280   5.031  0.3144 -0.2538  0.0287
  607THF     C9 7887   0.589   4.146   5.001  0.3349 -0.0591 -0.1280
  607THF    H10 7888   0.515   4.305   5.136  1.3567 -0.1432  0.1358
  607THF    H11 7889   0.576   4.365   4.983 -0.8627  1.5108  1.7995
  607THF    H12 7890   0.664   4.161   4.924 -0.3340  0.5192 -0.6852
  607THF    H13 7891   0.631   4.104   5.092 -1.1447 -0.3676  0.4510
  608THF     O1 7892   3.940   5.238   5.380 -1.2052  0.3047  0.2126
  608THF     C2 7893   3.973   5.360   5.316 -0.0923  0.1854 -0.4317
  608THF     C3 7894   3.977   5.136   5.285  0.4900 -1.0180  0.0501
  608THF     H4 7895   3.987   5.438   5.391 -1.1827 -0.8415  0.9049
  608THF     H5 7896   3.889   5.395   5.256  0.1147 -1.2838 -1.6540
  608THF     H6 7897   4.002   5.049   5.346 -0.3200 -0.6479  0.9356
  608THF     H7 7898   3.907   5.121   5.203 -0.2161  0.0981  0.4280
  608THF     C8 7899   4.112   5.185   5.233  0.2729  0.1328  0.1587
  608THF     C9 7900   4.093   5.330   5.224  0.2149  0.1085 -0.0530
  608THF    H10 7901   4.137   5.133   5.141 -0.2159  1.6004 -0.8536
  608THF    H11 7902   4.189   5.166   5.307  1.4981  1.5101 -0.7065
  608THF    H12 7903   4.184   5.380   5.258  0.0832  0.1600  0.2379
  608THF    H13 7904   4.058   5.365   5.127 -1.9612  0.5245  0.8101
  609THF     O1 7905   5.147   1.250   3.054 -0.4095  0.0758  0.3144
  609THF     C2 7906   5.156   1.392   3.044 -0.1300 -0.4678 -0.2760
  609THF     C3 7907   5.245   1.190   2.970 -0.8108 -0.2398 -1.0276
  609THF     H4 7908   5.229   1.426   3.118  0.1059 -0.4715 -0.5033
  609THF     H5 7909   5.058   1.437   3.061 -0.1134 -0.3188 -0.5684
  609THF     H6 7910   5.347   1.198   3.008 -1.2216 -0.4020  0.1721
  609THF     H7 7911   5.222   1.084   2.959 -0.4873 -0.3677 -0.5038
  609THF     C8 7912   5.231   1.261   2.840 -0.2844 -0.0926 -0.2480
  609THF     C9 7913   5.186   1.402   2.890  0.0854 -0.1065 -0.1088
  609THF    H10 7914   5.153   1.204   2.791 -1.6937  0.8475  0.8036
  609THF    H11 7915   5.327   1.251   2.789 -1.7794 -0.9868 -3.0878
  609THF    H12 7916   5.271   1.469   2.876  0.3247 -0.9037 -3.1151
  609THF    H13 7917   5.098   1.434   2.836 -1.5210 -0.9835  1.8456
  610THF     O1 7918   2.618   2.229   3.894  0.3208 -0.2351 -0.6010
  610THF     C2 7919   2.641   2.284   3.763  0.0125  0.1159  0.1594
  610THF     C3 7920   2.545   2.103   3.884 -0.1024 -0.7594  0.2294
  610THF     H4 7921   2.735   2.243   3.726 -1.8380 -0.9987 -3.7462
  610THF     H5 7922   2.651   2.392   3.764 -0.5970  0.2260 -2.0274
  610THF     H6 7923   2.606   2.017   3.857 -0.5617 -1.4903  1.4961
  610THF     H7 7924   2.493   2.085   3.978 -0.2646 -2.0501 -0.0890
  610THF     C8 7925   2.454   2.128   3.756 -0.3811  0.7576 -0.7548
  610THF     C9 7926   2.543   2.226   3.669  0.0399  0.3438 -0.2180
  610THF    H10 7927   2.369   2.189   3.787  1.3324  2.5055  0.7443
  610THF    H11 7928   2.428   2.034   3.708 -1.3968 -0.6699  2.3313
  610THF    H12 7929   2.584   2.180   3.579 -1.4757 -0.6855 -0.4266
  610THF    H13 7930   2.472   2.294   3.623 -0.3218  0.4057  0.4160
  611THF     O1 7931   1.538   0.972   2.441  0.4776 -0.5029 -0.1181
  611THF     C2 7932   1.409   0.955   2.374  0.0960  0.7947  0.2241
  611THF     C3 7933   1.503   1.019   2.577 -0.4319  0.5209  0.3004
  611THF     H4 7934   1.386   0.849   2.363  2.2715  0.0488  2.0938
  611THF     H5 7935   1.418   1.004   2.277  0.0434  1.2267  0.4338
  611THF     H6 7936   1.560   0.969   2.655  2.1506  3.1493  0.2556
  611THF     H7 7937   1.532   1.124   2.576  1.7443 -0.0228 -1.3306
  611THF     C8 7938   1.348   1.013   2.595  0.1862  0.0350 -0.3899
  611THF     C9 7939   1.307   1.032   2.451 -0.4782 -0.9634  0.4059
  611THF    H10 7940   1.309   1.086   2.666 -0.8641  0.3173 -1.2287
  611THF    H11 7941   1.321   0.920   2.644 -0.4659  0.8615  0.8699
  611THF    H12 7942   1.207   1.009   2.415 -0.1496 -0.4545 -0.8893
  611THF    H13 7943   1.318   1.139   2.430 -0.4133 -0.3581  3.1462
  612THF     O1 7944   5.085   2.929   0.759 -0.3713 -0.6189  0.3533
  612THF     C2 7945   4.944   2.947   0.766  0.1784  0.3329 -0.0323
  612THF     C3 7946   5.144   3.042   0.823 -0.0916 -0.5798 -0.0498
  612THF     H4 7947   4.910   2.854   0.811  0.3635 -0.0245 -0.6202
  612THF     H5 7948   4.897   2.957   0.667 -1.3942  0.5265  0.6926
  612THF     H6 7949   5.247   3.021   0.852 -0.1188 -1.2875 -0.4559
  612THF     H7 7950   5.137   3.126   0.754 -4.1469 -1.2310 -0.6419
  612THF     C8 7951   5.046   3.072   0.936  0.0840 -0.4069  0.0619
  612THF     C9 7952   4.913   3.060   0.864 -0.8067  0.4176 -0.6241
  612THF    H10 7953   5.064   3.174   0.969 -0.9889 -0.4418  0.7930
  612THF    H11 7954   5.060   2.996   1.013  0.3159  1.1708  1.6304
  612THF    H12 7955   4.827   3.057   0.931 -0.6723  2.9373 -0.2231
  612THF    H13 7956   4.904   3.154   0.810 -2.0176 -0.6724 -2.4063
  613THF     O1 7957   2.795   5.243   3.350 -0.1578 -0.0351  0.9091
  613THF     C2 7958   2.826   5.183   3.217 -0.2002 -0.0846  0.5353
  613THF     C3 7959   2.655   5.276   3.345 -0.0640  0.3071 -0.4615
  613THF     H4 7960   2.861   5.081   3.234  0.6706 -0.2531 -1.9228
  613THF     H5 7961   2.904   5.236   3.162 -1.8084 -0.3165 -2.1517
  613THF     H6 7962   2.600   5.208   3.410 -0.2637  1.5018  0.6664
  613THF     H7 7963   2.635   5.375   3.387  1.2099  1.2614 -2.0077
  613THF     C8 7964   2.611   5.284   3.198 -0.2296  0.0662 -0.1656
  613THF     C9 7965   2.699   5.191   3.126 -0.2612  0.2904 -0.3259
  613THF    H10 7966   2.632   5.387   3.167 -0.9975  0.0515 -0.7793
  613THF    H11 7967   2.503   5.274   3.189 -0.2276  0.3303 -0.5567
  613THF    H12 7968   2.646   5.096   3.117  0.1724 -0.2984  2.5101
  613THF    H13 7969   2.724   5.223   3.025 -1.3680 -2.4003 -1.5576
  614THF     O1 7970   1.831   0.378   1.336 -0.3503  0.2623  0.1705
  614THF     C2 7971   1.923   0.488   1.312 -0.4480  0.1238  0.0843
  614THF     C3 7972   1.700   0.437   1.325  0.1823  0.8268 -0.6405
  614THF     H4 7973   1.920   0.521   1.208 -1.4673  0.5081  0.2204
  614THF     H5 7974   2.027   0.474   1.342  0.6659  0.2380 -3.2987
  614THF     H6 7975   1.673   0.447   1.220  2.2892  0.4694 -1.2515
  614THF     H7 7976   1.621   0.379   1.374  0.4147 -0.5926 -1.8682
  614THF     C8 7977   1.706   0.576   1.385 -0.5405  0.2767  0.2320
  614THF     C9 7978   1.857   0.597   1.396 -0.0864  0.2603 -0.2872
  614THF    H10 7979   1.652   0.593   1.478  0.0396  2.9894  0.1711
  614THF    H11 7980   1.669   0.651   1.315 -0.5359  0.5342  0.5054
  614THF    H12 7981   1.891   0.693   1.358  2.2255 -1.0431 -1.7651
  614THF    H13 7982   1.880   0.587   1.502 -1.0262 -0.5788 -0.1495
  615THF     O1 7983   2.816   4.666   0.506  0.1512 -0.0375 -0.5424
  615THF     C2 7984   2.919   4.717   0.597 -0.3367 -0.2575  0.3222
  615THF     C3 7985   2.780   4.769   0.413  0.7199  0.6965  0.4432
  615THF     H4 7986   2.987   4.642   0.640  0.7442  0.9895  0.8603
  615THF     H5 7987   2.886   4.781   0.679 -1.3095 -0.4398  0.0840
  615THF     H6 7988   2.762   4.735   0.311 -0.6908  0.4283  0.7662
  615THF     H7 7989   2.687   4.812   0.451 -1.8618 -1.0864 -3.2208
  615THF     C8 7990   2.896   4.862   0.403 -0.4479  0.0544 -0.4736
  615THF     C9 7991   2.997   4.804   0.501 -0.2479 -0.4777 -0.7926
  615THF    H10 7992   2.887   4.969   0.424 -2.3789 -0.2432  0.3685
  615THF    H11 7993   2.935   4.857   0.301  1.0789  0.5372  0.0626
  615THF    H12 7994   3.065   4.739   0.447 -0.7574 -2.8145  1.2360
  615THF    H13 7995   3.052   4.887   0.548 -0.7551 -0.6914  0.2055
  616THF     O1 7996   1.691   0.121   5.427  0.0043 -0.4397  0.1837
  616THF     C2 7997   1.723   0.251   5.457 -0.5034 -0.4548 -0.0561
  616THF     C3 7998   1.808   0.048   5.418 -0.2910  0.5356 -0.1271
  616THF     H4 7999   1.702   0.277   5.561  2.1230 -1.2667  0.7509
  616THF     H5 8000   1.683   0.332   5.397  0.2406  0.6486  0.9107
  616THF     H6 8001   1.824   0.002   5.516 -2.9625 -1.3945 -0.4702
  616THF     H7 8002   1.792  -0.035   5.349  0.4425 -1.5993  2.0960
  616THF     C8 8003   1.923   0.127   5.373 -0.4283 -0.2360 -0.4246
  616THF     C9 8004   1.876   0.260   5.444  0.0961  0.4383 -0.3530
  616THF    H10 8005   1.932   0.134   5.265  1.1347  1.1637 -0.2512
  616THF    H11 8006   2.015   0.102   5.426  0.1188  1.6843 -0.3662
  616THF    H12 8007   1.913   0.251   5.546 -2.7161  1.8536  0.9277
  616THF    H13 8008   1.917   0.356   5.412 -1.0003  0.6396 -1.2089
  617THF     O1 8009   1.917   5.239   3.737  0.2534  0.1871  0.1219
  617THF     C2 8010   1.904   5.293   3.866 -0.5845  0.1717 -0.2517
  617THF     C3 8011   1.801   5.150   3.719 -0.4316  0.0681 -0.3006
  617THF     H4 8012   1.965   5.383   3.879  0.0802 -0.3465  0.2378
  617THF     H5 8013   1.949   5.227   3.940 -2.3141 -0.0504  0.6494
  617THF     H6 8014   1.777   5.120   3.617 -0.9966  0.2669 -0.2260
  617THF     H7 8015   1.814   5.061   3.780 -2.0139  0.4566  0.6435
  617THF     C8 8016   1.684   5.231   3.778 -0.0218 -0.0815 -0.0780
  617THF     C9 8017   1.749   5.316   3.888 -0.4378 -0.9257  0.0153
  617THF    H10 8018   1.617   5.162   3.831 -1.3478  1.5630  0.4898
  617THF    H11 8019   1.624   5.274   3.698  0.0432 -1.0233 -0.6404
  617THF    H12 8020   1.725   5.421   3.875  1.4294 -0.0030  2.8829
  617THF    H13 8021   1.718   5.290   3.990 -2.4432  1.5898  0.1235
  618THF     O1 8022   2.627   1.184   1.040 -0.2231  0.8892  0.5093
  618THF     C2 8023   2.683   1.088   0.947 -0.2524 -0.1374  0.2412
  618THF     C3 8024   2.499   1.223   0.982  0.7349 -0.4132 -0.3191
  618THF     H4 8025   2.748   1.021   1.003  0.5329  0.7820  0.4606
  618THF     H5 8026   2.741   1.127   0.863  0.6725 -0.1494  0.8596
  618THF     H6 8027   2.436   1.274   1.055  0.7506  0.9417 -1.2124
  618THF     H7 8028   2.513   1.296   0.903  0.5811  1.0880  0.9862
  618THF     C8 8029   2.439   1.093   0.942 -0.3947  0.1395  0.1403
  618THF     C9 8030   2.559   1.003   0.911  0.5435 -0.3660 -0.2792
  618THF    H10 8031   2.377   1.111   0.854 -1.1574 -0.0233  0.6319
  618THF    H11 8032   2.383   1.046   1.024 -2.2808 -0.6816 -1.5306
  618THF    H12 8033   2.573   0.909   0.965 -0.3006 -0.2294  0.1919
  618THF    H13 8034   2.557   0.971   0.807  0.9233 -1.0064 -0.0958
  619THF     O1 8035   0.980   1.132   5.464 -0.2251 -0.1898 -0.0069
  619THF     C2 8036   1.015   1.123   5.597 -0.3596  0.3090 -0.9056
  619THF     C3 8037   1.069   1.217   5.395  0.2973  0.4927 -0.8300
  619THF     H4 8038   0.986   1.033   5.652 -0.6055  0.8463 -0.1447
  619THF     H5 8039   0.975   1.207   5.653 -2.6127 -0.0669 -1.8568
  619THF     H6 8040   1.119   1.177   5.306  2.3528  2.0654 -0.4572
  619THF     H7 8041   1.016   1.305   5.360 -0.2445  0.7572  0.6050
  619THF     C8 8042   1.177   1.245   5.494  0.2224  0.2868  0.0045
  619THF     C9 8043   1.162   1.136   5.600  0.7355  0.2741 -0.2444
  619THF    H10 8044   1.166   1.344   5.537  0.7885  0.5260 -0.3813
  619THF    H11 8045   1.276   1.243   5.448  0.4664 -1.1134  0.5381
  619THF    H12 8046   1.220   1.044   5.596  0.0828 -0.1815  0.6776
  619THF    H13 8047   1.180   1.185   5.695  1.2627  0.4000 -0.4020
  620THF     O1 8048   1.670   2.978   1.697 -0.1814  0.2253  0.3676
  620THF     C2 8049   1.624   2.916   1.579 -0.4553 -0.2677  0.0070
  620THF     C3 8050   1.774   3.079   1.674  0.2081  0.5236 -0.2806
  620THF     H4 8051   1.518   2.897   1.595 -0.4970  0.3970  0.5598
  620THF     H5 8052   1.666   2.817   1.563  0.2194  0.2845 -1.8207
  620THF     H6 8053   1.756   3.170   1.730 -0.3477  1.1663 -1.4738
  620THF     H7 8054   1.874   3.036   1.687 -0.0297  0.4736  1.7716
  620THF     C8 8055   1.749   3.110   1.524 -0.6600 -0.7966 -0.7115
  620THF     C9 8056   1.645   3.013   1.464 -0.5343 -0.6513 -0.6496
  620THF    H10 8057   1.845   3.094   1.475 -0.9040  1.3104 -1.9863
  620THF    H11 8058   1.712   3.211   1.507  0.4928 -0.1834  0.2228
  620THF    H12 8059   1.549   3.057   1.436 -0.0572 -0.4130 -1.9616
  620THF    H13 8060   1.681   2.950   1.382 -1.0326 -2.5294  0.5025
  621THF     O1 8061   2.268   5.276   4.413 -0.4291  0.3190  0.6811
  621THF     C2 8062   2.336   5.374   4.333 -0.1057 -0.0955 -0.0174
  621THF     C3 8063   2.160   5.228   4.328 -0.0824 -0.2791  0.2204
  621THF     H4 8064   2.405   5.345   4.254 -0.5613  2.1007 -1.3115
  621THF     H5 8065   2.382   5.456   4.388  0.3167  0.9430 -1.8477
  621THF     H6 8066   2.202   5.163   4.251 -0.6018 -0.2665 -0.0801
  621THF     H7 8067   2.086   5.168   4.381  0.9264 -0.3240  1.6008
  621THF     C8 8068   2.112   5.357   4.266 -0.0715 -0.7831  0.3591
  621THF     C9 8069   2.226   5.449   4.255  0.2871  0.2315 -0.3413
  621THF    H10 8070   2.051   5.408   4.340 -0.7025 -1.1366  0.0913
  621THF    H11 8071   2.067   5.343   4.168  2.7624 -2.7107 -0.8239
  621THF    H12 8072   2.258   5.467   4.152  0.7148 -3.6396 -1.0509
  621THF    H13 8073   2.211   5.545   4.304 -0.6502 -2.6239  5.8651
  622THF     O1 8074   3.831   1.897   1.772 -0.2677 -0.2059  0.4626
  622THF     C2 8075   3.879   1.770   1.740 -0.2350 -0.1725 -0.3549
  622THF     C3 8076   3.950   1.972   1.782  0.4105 -0.4756 -0.0165
  622THF     H4 8077   3.905   1.777   1.635 -0.9366  0.3878 -0.5010
  622THF     H5 8078   3.801   1.696   1.760 -1.3693  0.6408 -1.6372
  622THF     H6 8079   3.998   2.007   1.691 -0.4277  1.9910  0.4231
  622THF     H7 8080   3.923   2.062   1.837 -1.4569 -2.0488  1.8137
  622THF     C8 8081   4.041   1.885   1.862 -0.0234  0.1000  0.3454
  622THF     C9 8082   4.012   1.744   1.812 -0.4429  0.2793 -0.0289
  622THF    H10 8083   4.020   1.898   1.968 -3.0347  0.4303 -0.2024
  622THF    H11 8084   4.144   1.920   1.852 -0.1986  1.2571  2.0231
  622THF    H12 8085   4.076   1.691   1.742  0.8839  0.7519  0.7706
  622THF    H13 8086   4.003   1.679   1.899  0.8894  1.0308  0.7079
  623THF     O1 8087   0.807   2.282   5.495 -0.3394  0.4461  0.1946
  623THF     C2 8088   0.813   2.171   5.400 -0.2085  0.1159 -0.3873
  623THF     C3 8089   0.875   2.245   5.611  0.1787 -0.0165 -0.2269
  623THF     H4 8090   0.916   2.171   5.366  0.0881 -1.6385  0.3915
  623THF     H5 8091   0.759   2.176   5.306  0.3098  1.5130 -0.6282
  623THF     H6 8092   0.983   2.238   5.601  0.3980 -1.2988  2.1185
  623THF     H7 8093   0.852   2.321   5.686  2.2963 -0.6938  1.2011
  623THF     C8 8094   0.812   2.109   5.633  0.1251  0.5279  0.3656
  623THF     C9 8095   0.789   2.058   5.496  1.0004  0.5516 -0.3764
  623THF    H10 8096   0.719   2.128   5.687 -0.2545  0.4631 -0.2592
  623THF    H11 8097   0.856   2.038   5.703  0.6191  1.9318  1.5476
  623THF    H12 8098   0.837   1.965   5.466  1.3438  0.1385  1.3367
  623THF    H13 8099   0.687   2.022   5.488  1.6417 -2.6887  3.1898
  624THF     O1 8100   0.034   4.701   0.456  0.0891 -0.1380 -0.2574
  624THF     C2 8101  -0.089   4.733   0.527  0.5752 -0.5522 -0.1536
  624THF     C3 8102   0.146   4.761   0.531  0.2660 -0.1156 -0.5809
  624THF     H4 8103  -0.116   4.658   0.602 -1.8652  0.3675 -0.0153
  624THF     H5 8104  -0.172   4.742   0.457  0.0507 -0.5403  0.4544
  624THF     H6 8105   0.157   4.717   0.631  0.5810  0.1536 -0.4955
  624THF     H7 8106   0.243   4.762   0.483  0.9320  2.1708  0.6496
  624THF     C8 8107   0.086   4.902   0.556  0.6583 -0.3385 -0.1085
  624THF     C9 8108  -0.063   4.874   0.586 -1.3610  0.3152  0.3785
  624THF    H10 8109   0.100   4.963   0.466 -0.8793 -0.3583 -0.3862
  624THF    H11 8110   0.133   4.939   0.647 -1.6707 -1.3404  1.5938
  624THF    H12 8111  -0.083   4.861   0.692 -2.6832 -2.6626 -0.1420
  624THF    H13 8112  -0.136   4.947   0.550 -0.9708  0.6586  0.2644
  625THF     O1 8113   2.626   2.835   2.701  0.0237  0.0940 -0.0302
  625THF     C2 8114   2.637   2.846   2.839  1.0441  0.2821 -0.5518
  625THF     C3 8115   2.544   2.721   2.667 -0.3903 -0.1995  0.9572
  625THF     H4 8116   2.628   2.950   2.872  1.9747  0.2629 -0.2095
  625THF     H5 8117   2.738   2.815   2.865  0.6481  0.0853  0.8286
  625THF     H6 8118   2.444   2.758   2.645  0.4053  1.6095  0.2274
  625THF     H7 8119   2.578   2.664   2.580 -0.4840  2.6506 -1.0966
  625THF     C8 8120   2.542   2.635   2.794 -0.0942 -0.4950 -0.3877
  625THF     C9 8121   2.543   2.745   2.900 -0.3530  0.6395  0.6250
  625THF    H10 8122   2.638   2.583   2.788  2.2985  3.5479 -0.9162
  625THF    H11 8123   2.458   2.567   2.809  3.0264 -4.9003 -0.7795
  625THF    H12 8124   2.441   2.776   2.925 -1.0720 -2.8795  2.6947
  625THF    H13 8125   2.565   2.703   2.998  0.6598  1.4423  0.7556
  626THF     O1 8126   1.753   1.551   2.486 -0.4059  0.0182  0.1561
  626THF     C2 8127   1.641   1.533   2.566 -0.0213  0.1811  0.1104
  626THF     C3 8128   1.755   1.422   2.422 -0.0819 -0.1667  0.0403
  626THF     H4 8129   1.606   1.634   2.591  3.3601  1.3253  0.7689
  626THF     H5 8130   1.678   1.492   2.659  1.6197  1.6599  0.1645
  626THF     H6 8131   1.833   1.414   2.346  0.0849  1.2018  0.0483
  626THF     H7 8132   1.778   1.351   2.500  1.0552  0.4297  0.2605
  626THF     C8 8133   1.617   1.402   2.362  0.2572  0.3514 -0.7196
  626THF     C9 8134   1.544   1.443   2.493 -0.0229  0.3296 -0.4248
  626THF    H10 8135   1.594   1.299   2.335  1.1036  0.4906 -2.0693
  626THF    H11 8136   1.598   1.469   2.279  0.6665  0.1973 -0.9389
  626THF    H12 8137   1.468   1.517   2.469  1.5279  2.4408  0.8158
  626THF    H13 8138   1.510   1.362   2.557 -0.1224  0.8433  0.1778
  627THF     O1 8139   1.328   2.512   1.651  0.0802 -0.6527  0.3579
  627THF     C2 8140   1.332   2.646   1.716  0.3972  0.1844  0.7620
  627THF     C3 8141   1.280   2.530   1.516 -0.0015  0.0131 -0.1669
  627THF     H4 8142   1.433   2.687   1.713  0.2187  0.5648 -0.9445
  627THF     H5 8143   1.296   2.650   1.819  2.1924  0.5333  1.4004
  627THF     H6 8144   1.361   2.560   1.449  3.1945 -2.1245  2.3954
  627THF     H7 8145   1.242   2.439   1.470 -0.7564  0.7716 -1.0983
  627THF     C8 8146   1.181   2.647   1.528 -0.4068  0.9457 -0.0174
  627THF     C9 8147   1.251   2.738   1.623  0.6283 -0.1076  0.1177
  627THF    H10 8148   1.091   2.606   1.573 -0.2742 -2.1470 -2.3071
  627THF    H11 8149   1.155   2.695   1.434 -0.1864  0.3965 -0.3597
  627THF    H12 8150   1.307   2.816   1.572  1.2636  0.2176  1.2627
  627THF    H13 8151   1.180   2.801   1.677  1.2649 -0.1013  0.9798
  628THF     O1 8152   3.893   2.790   4.037 -0.7303 -0.1166 -0.2263
  628THF     C2 8153   3.983   2.801   3.935  0.2636  0.0589  0.3632
  628THF     C3 8154   3.947   2.702   4.139  0.1734 -0.1050  0.3242
  628THF     H4 8155   3.962   2.881   3.865 -0.3045  0.5102  1.0280
  628THF     H5 8156   3.984   2.710   3.875  0.8656  0.5340 -0.3559
  628THF     H6 8157   3.908   2.710   4.240 -0.7271  1.0306 -0.0889
  628THF     H7 8158   3.932   2.603   4.094  1.1609  0.5672 -1.6280
  628THF     C8 8159   4.102   2.725   4.134  0.6899  1.2484 -0.2975
  628THF     C9 8160   4.115   2.819   4.014  0.5022 -0.3574  0.5852
  628THF    H10 8161   4.159   2.633   4.126 -1.6869 -0.4740  1.3092
  628THF    H11 8162   4.144   2.777   4.220  0.3023  1.8265 -0.4494
  628THF    H12 8163   4.129   2.923   4.044  1.0375 -0.6435  1.3439
  628THF    H13 8164   4.201   2.796   3.952 -1.2496 -0.1655 -2.1010
  629THF     O1 8165   3.381   4.549   1.554 -0.0984  0.4213 -0.1164
  629THF     C2 8166   3.450   4.608   1.445 -0.4100  0.5132 -0.5269
  629THF     C3 8167   3.368   4.408   1.524  0.9807 -0.2050  0.3037
  629THF     H4 8168   3.493   4.704   1.470 -1.4756  1.4352 -2.0174
  629THF     H5 8169   3.377   4.608   1.364  0.3258  1.0675 -1.2022
  629THF     H6 8170   3.345   4.349   1.613  1.5275  0.1879  0.7174
  629THF     H7 8171   3.277   4.405   1.464 -0.8693  0.5279  2.8390
  629THF     C8 8172   3.501   4.381   1.464  0.1722  0.2255  0.4137
  629THF     C9 8173   3.555   4.509   1.405  0.1430 -0.1965 -0.3696
  629THF    H10 8174   3.492   4.306   1.386  0.2494  0.7232 -0.0781
  629THF    H11 8175   3.573   4.341   1.535  1.0257  1.3124  0.1888
  629THF    H12 8176   3.641   4.540   1.464 -0.9644 -0.5023  1.4606
  629THF    H13 8177   3.562   4.513   1.296 -0.2804  0.2821 -0.3829
  630THF     O1 8178   2.233   2.436   1.759 -0.4027 -0.0168 -0.5931
  630THF     C2 8179   2.303   2.360   1.848 -0.5288 -0.1928  0.0621
  630THF     C3 8180   2.152   2.352   1.680 -0.1879 -0.8796 -1.4448
  630THF     H4 8181   2.228   2.326   1.920 -1.3545  0.1310 -0.6180
  630THF     H5 8182   2.390   2.407   1.892 -1.5488  0.5575  1.3523
  630THF     H6 8183   2.056   2.325   1.723 -0.2338  2.5842  1.0687
  630THF     H7 8184   2.137   2.403   1.584  1.0400 -1.2971 -1.8825
  630THF     C8 8185   2.235   2.218   1.665  0.7372  0.1096  0.3645
  630THF     C9 8186   2.343   2.231   1.774 -0.1391 -0.3883  0.8094
  630THF    H10 8187   2.273   2.208   1.564 -1.6060 -2.7964 -0.3562
  630THF    H11 8188   2.174   2.128   1.671  0.7638 -0.0003 -0.8267
  630THF    H12 8189   2.338   2.149   1.846  1.2876 -2.3178 -1.1766
  630THF    H13 8190   2.439   2.233   1.723  0.0456  1.4147  1.1378
  631THF     O1 8191   0.900   0.070   4.195  0.2441 -0.5094 -0.1386
  631THF     C2 8192   0.765   0.088   4.139  0.0541 -0.5585 -0.0199
  631THF     C3 8193   0.977   0.180   4.149 -0.4476 -0.5633  0.0033
  631THF     H4 8194   0.693   0.048   4.210  0.4963  1.4703  1.7045
  631THF     H5 8195   0.761   0.040   4.042  1.8240 -0.9574  0.0678
  631THF     H6 8196   1.055   0.211   4.218  1.4872  0.7204 -2.5499
  631THF     H7 8197   1.010   0.165   4.046 -0.0163 -0.2615  0.0952
  631THF     C8 8198   0.878   0.294   4.160 -0.5796 -0.0908  0.1383
  631THF     C9 8199   0.741   0.232   4.124  0.0533 -1.0725 -0.5363
  631THF    H10 8200   0.894   0.378   4.094  1.0399 -0.7340 -0.3253
  631THF    H11 8201   0.877   0.329   4.263  0.7062  0.4891 -0.0349
  631THF    H12 8202   0.658   0.260   4.188  1.0131  0.2389  0.1960
  631THF    H13 8203   0.709   0.268   4.026 -0.3042 -0.1923 -0.1151
  632THF     O1 8204   4.077   2.729   4.540 -0.3414  0.2897 -0.4391
  632THF     C2 8205   4.079   2.839   4.629 -0.7779 -0.3305 -0.4794
  632THF     C3 8206   4.104   2.611   4.607 -0.4720  0.4301 -0.4394
  632THF     H4 8207   3.977   2.856   4.662 -0.6917  0.3793 -0.5525
  632THF     H5 8208   4.103   2.932   4.577  1.1890 -1.9149 -2.6297
  632THF     H6 8209   4.009   2.582   4.651 -0.7503  0.7492 -0.8265
  632THF     H7 8210   4.135   2.531   4.540 -2.5090 -0.6027 -0.2239
  632THF     C8 8211   4.211   2.648   4.719 -0.8068 -0.2272 -0.5931
  632THF     C9 8212   4.184   2.798   4.733 -0.3376 -0.7217 -0.1215
  632THF    H10 8213   4.312   2.629   4.684 -0.7284  0.2723 -0.6504
  632THF    H11 8214   4.202   2.581   4.804  1.1256 -0.4222 -0.5099
  632THF    H12 8215   4.148   2.818   4.834  0.5048  0.8209 -0.1023
  632THF    H13 8216   4.286   2.833   4.715 -0.0335 -1.0231  0.9331
  633THF     O1 8217   0.939   0.641   1.085  0.0510 -0.4787  0.4546
  633THF     C2 8218   0.798   0.640   1.098 -0.2708 -0.9644  0.3505
  633THF     C3 8219   0.968   0.706   0.957 -0.3320 -0.0685 -0.2168
  633THF     H4 8220   0.784   0.631   1.206  1.9342  1.4591  0.9194
  633THF     H5 8221   0.754   0.555   1.045 -1.9184  0.8406 -1.3397
  633THF     H6 8222   1.053   0.773   0.967  0.0881 -0.7517  1.0329
  633THF     H7 8223   1.004   0.631   0.887 -0.3065  1.4458 -1.8792
  633THF     C8 8224   0.836   0.771   0.910 -0.1927 -0.1456 -0.6455
  633THF     C9 8225   0.755   0.770   1.036 -0.8498 -0.5411 -0.0521
  633THF    H10 8226   0.799   0.707   0.829  0.4937 -1.2673 -0.1035
  633THF    H11 8227   0.853   0.867   0.862  2.4810 -0.9115 -1.3958
  633THF    H12 8228   0.776   0.855   1.101 -1.2742 -1.7011  1.6890
  633THF    H13 8229   0.647   0.771   1.024 -1.1380 -0.5472  2.0585
  634THF     O1 8230   5.202   5.308   5.231  0.4190  0.1722 -0.5034
  634THF     C2 8231   5.269   5.265   5.110  0.3740 -0.1331  0.2016
  634THF     C3 8232   5.263   5.249   5.342 -0.0856 -0.0360 -0.8127
  634THF     H4 8233   5.275   5.330   5.022 -1.3586  0.8977  0.7804
  634THF     H5 8234   5.230   5.168   5.080  0.0898 -0.5370  1.7886
  634THF     H6 8235   5.230   5.296   5.435  0.2339 -1.1190 -0.1261
  634THF     H7 8236   5.242   5.144   5.364  0.3732  0.1974  0.8918
  634THF     C8 8237   5.418   5.255   5.313  0.5433 -0.1781  0.5188
  634THF     C9 8238   5.412   5.245   5.160 -0.2250  0.1999 -0.1084
  634THF    H10 8239   5.474   5.183   5.373 -0.1076 -0.8343  0.3509
  634THF    H11 8240   5.453   5.354   5.344 -1.5982  0.5703  0.6900
  634THF    H12 8241   5.488   5.299   5.103  1.3249 -0.2191  1.4771
  634THF    H13 8242   5.439   5.140   5.146  1.7784  0.8788 -1.8135
  635THF     O1 8243   3.224   3.475   1.681 -0.4798 -0.0877 -0.8907
  635THF     C2 8244   3.175   3.602   1.723  0.0450  0.1633  0.7293
  635THF     C3 8245   3.363   3.452   1.718 -0.0360 -0.0229 -1.0727
  635THF     H4 8246   3.105   3.587   1.805 -0.3349 -0.8868  0.2263
  635THF     H5 8247   3.120   3.644   1.639  1.5933 -1.4054 -1.1769
  635THF     H6 8248   3.371   3.355   1.768  0.0040  0.2040 -0.6406
  635THF     H7 8249   3.436   3.454   1.637 -1.0067  3.0728 -2.0219
  635THF     C8 8250   3.393   3.570   1.809  0.5879 -0.3518  0.9106
  635THF     C9 8251   3.298   3.682   1.760 -0.0641  0.3124  0.0728
  635THF    H10 8252   3.496   3.596   1.834  1.7987 -3.1352 -0.7557
  635THF    H11 8253   3.361   3.546   1.910  0.8781 -1.3847  0.7669
  635THF    H12 8254   3.273   3.752   1.839  0.4459 -1.4182  1.8414
  635THF    H13 8255   3.341   3.735   1.675  1.3197  1.6433  1.5739
  636THF     O1 8256   3.003   1.079   2.711 -0.0004 -0.1574  0.1128
  636THF     C2 8257   3.065   0.956   2.677  0.9132 -0.1919  0.6905
  636THF     C3 8258   2.997   1.158   2.592 -0.1825  0.5623  0.4388
  636THF     H4 8259   3.024   0.882   2.746  1.4027 -1.2800 -0.1620
  636THF     H5 8260   3.174   0.967   2.680  1.0746 -1.6708  1.0518
  636THF     H6 8261   2.928   1.242   2.598  0.4506  1.2846 -1.5413
  636THF     H7 8262   3.100   1.194   2.581 -0.4791  1.4841  0.6176
  636THF     C8 8263   2.974   1.060   2.477 -0.1092  0.3110 -0.2784
  636THF     C9 8264   3.024   0.926   2.538  1.0302  0.8912 -0.6141
  636THF    H10 8265   3.026   1.083   2.384  0.0039  0.2845 -0.2223
  636THF    H11 8266   2.868   1.053   2.451 -0.0235 -1.4910 -0.2651
  636THF    H12 8267   2.934   0.865   2.528  1.3889  0.3740 -0.7463
  636THF    H13 8268   3.107   0.881   2.483  2.2873  1.0638  1.0640
  637THF     O1 8269   1.437   1.907   4.195 -0.5702  0.0245 -0.2273
  637THF     C2 8270   1.496   2.038   4.194 -0.0588  0.9285 -0.1168
  637THF     C3 8271   1.547   1.819   4.184  0.0512  0.1679  0.0262
  637THF     H4 8272   1.437   2.110   4.250 -0.4838 -0.1025  0.7909
  637THF     H5 8273   1.501   2.073   4.091  0.3793 -2.4775 -1.3649
  637THF     H6 8274   1.524   1.723   4.229  1.1480 -0.0958  0.0575
  637THF     H7 8275   1.573   1.797   4.081 -0.2694 -0.8504  0.1547
  637THF     C8 8276   1.654   1.885   4.276 -0.5344  0.1017  0.7528
  637THF     C9 8277   1.629   2.033   4.259 -0.5782  0.0305  0.3380
  637THF    H10 8278   1.753   1.851   4.247 -1.6693 -1.5531 -1.4384
  637THF    H11 8279   1.637   1.849   4.377  1.9018 -1.3632  0.7123
  637THF    H12 8280   1.639   2.095   4.348  0.8989 -0.8906  0.8622
  637THF    H13 8281   1.702   2.077   4.191 -0.9400  0.2611  0.0930
  638THF     O1 8282   1.013   1.776   0.251 -0.5167  0.4206  0.2708
  638THF     C2 8283   1.110   1.689   0.290 -0.2260  0.1596 -0.5320
  638THF     C3 8284   0.894   1.695   0.220 -0.7282  0.2278  0.2792
  638THF     H4 8285   1.144   1.708   0.392  0.5647  1.8204 -1.0673
  638THF     H5 8286   1.193   1.703   0.220  0.7376 -0.9235  0.3644
  638THF     H6 8287   0.840   1.685   0.314 -0.2146 -3.7721  0.3305
  638THF     H7 8288   0.833   1.742   0.144  2.8764  3.7658 -0.7953
  638THF     C8 8289   0.940   1.554   0.184  0.1370 -0.1564 -0.2266
  638THF     C9 8290   1.064   1.546   0.271 -0.0267  0.6872 -0.6649
  638THF    H10 8291   0.955   1.537   0.077 -0.5090 -1.2506 -0.1606
  638THF    H11 8292   0.872   1.473   0.214  0.2150 -0.2636 -0.3373
  638THF    H12 8293   1.044   1.507   0.371 -1.4469 -0.2168 -1.2749
  638THF    H13 8294   1.148   1.490   0.229 -0.6993 -0.8543 -0.0682
  639THF     O1 8295   3.829   0.485   4.274 -0.2762  0.5621  0.4118
  639THF     C2 8296   3.931   0.399   4.225  0.3496 -0.0883  0.3978
  639THF     C3 8297   3.791   0.560   4.165  0.8518 -0.0097  0.6317
  639THF     H4 8298   3.923   0.312   4.290 -0.2370 -0.4202 -0.1060
  639THF     H5 8299   4.031   0.442   4.221 -0.3008  1.3822 -1.4028
  639THF     H6 8300   3.695   0.612   4.178  2.0790  2.6372 -0.1571
  639THF     H7 8301   3.853   0.649   4.164 -1.3889  1.6584 -0.1048
  639THF     C8 8302   3.797   0.475   4.035 -0.2306 -0.2677  0.0201
  639THF     C9 8303   3.895   0.369   4.090  0.9967  0.3689 -0.0726
  639THF    H10 8304   3.846   0.529   3.953  1.3746  0.8498  1.6188
  639THF    H11 8305   3.702   0.440   3.994 -0.7595  0.5617  0.5051
  639THF    H12 8306   3.859   0.266   4.088  1.1635  0.3012  0.3230
  639THF    H13 8307   3.985   0.383   4.029  0.5184 -0.0126 -0.8858
  640THF     O1 8308   3.462   0.420   1.992 -0.4263  0.5015 -0.3780
  640THF     C2 8309   3.425   0.550   2.036 -0.0699 -0.2317  0.1151
  640THF     C3 8310   3.459   0.330   2.105 -0.4354 -0.6434 -0.2507
  640THF     H4 8311   3.377   0.617   1.964  0.5902  0.3239  0.1857
  640THF     H5 8312   3.508   0.602   2.083 -1.8136  1.4115  1.5379
  640THF     H6 8313   3.421   0.232   2.078 -2.3786 -0.3372  1.1987
  640THF     H7 8314   3.558   0.325   2.151 -0.9924  0.9798  1.2130
  640THF     C8 8315   3.352   0.387   2.200  0.2340 -0.4771  0.4137
  640THF     C9 8316   3.310   0.517   2.131 -0.0106 -0.5335 -0.5072
  640THF    H10 8317   3.381   0.402   2.304 -0.9513 -1.3592  0.8916
  640THF    H11 8318   3.274   0.311   2.210  0.9790 -1.2593  0.4206
  640THF    H12 8319   3.219   0.508   2.071  0.1324  0.9699 -0.9987
  640THF    H13 8320   3.300   0.601   2.200  0.4916  0.7053 -1.9021
  641THF     O1 8321   2.564   0.648   5.007 -0.5342 -0.2271  0.0515
  641THF     C2 8322   2.581   0.635   4.867 -0.0447 -0.0932  0.5383
  641THF     C3 8323   2.535   0.778   5.043  0.5544 -0.0154 -0.3452
  641THF     H4 8324   2.482   0.612   4.829 -0.2827 -0.7770  1.5409
  641THF     H5 8325   2.648   0.554   4.839  1.5060  1.0857  0.7169
  641THF     H6 8326   2.427   0.785   5.050  0.2803 -2.1997 -1.6413
  641THF     H7 8327   2.575   0.812   5.138 -0.7760  1.3500 -0.2372
  641THF     C8 8328   2.584   0.870   4.927  0.5252 -0.0694 -0.2526
  641THF     C9 8329   2.639   0.770   4.831  0.1622  0.3861  0.9602
  641THF    H10 8330   2.674   0.927   4.950 -1.1253  1.8481  1.9416
  641THF    H11 8331   2.504   0.936   4.892 -0.1310 -1.1440 -0.8490
  641THF    H12 8332   2.613   0.800   4.730 -1.4912 -0.7915  0.9979
  641THF    H13 8333   2.748   0.767   4.824  0.1163  1.3040 -0.6219
  642THF     O1 8334   2.680   3.551   3.436  0.1699 -0.3557 -0.9796
  642THF     C2 8335   2.632   3.519   3.303  0.7267  0.5282  0.2967
  642THF     C3 8336   2.815   3.505   3.450  0.2210  0.0310 -0.3205
  642THF     H4 8337   2.557   3.594   3.277  0.7555  0.1786 -0.8327
  642THF     H5 8338   2.600   3.416   3.287  3.4463 -0.2536 -0.6708
  642THF     H6 8339   2.873   3.568   3.518 -2.9094  1.7355  0.9881
  642THF     H7 8340   2.813   3.401   3.482  0.4199 -0.3892 -1.6287
  642THF     C8 8341   2.875   3.513   3.311 -0.5087  0.0748 -0.1708
  642THF     C9 8342   2.754   3.549   3.221  0.4862 -0.0696 -0.2568
  642THF    H10 8343   2.925   3.418   3.290 -0.6125  0.0421 -0.2694
  642THF    H11 8344   2.952   3.589   3.304 -1.1394  0.6120 -1.5115
  642THF    H12 8345   2.762   3.656   3.201 -0.4740  0.0998  0.2147
  642THF    H13 8346   2.744   3.499   3.125 -3.4869  1.6577 -0.9274
  643THF     O1 8347   3.807   2.564   2.458  0.4038 -0.3976  0.4166
  643THF     C2 8348   3.942   2.528   2.473 -0.2337  0.7552 -0.7502
  643THF     C3 8349   3.723   2.454   2.497  0.0666  0.1983 -0.2721
  643THF     H4 8350   4.007   2.614   2.464  1.9150 -0.4884  1.5977
  643THF     H5 8351   3.962   2.463   2.387 -2.5333 -0.0660 -0.7431
  643THF     H6 8352   3.615   2.473   2.496 -0.0750 -0.5766 -0.3007
  643THF     H7 8353   3.735   2.379   2.419 -0.8999 -0.3164  0.0444
  643THF     C8 8354   3.788   2.422   2.629 -1.1096 -0.1360  0.7472
  643THF     C9 8355   3.938   2.452   2.603  0.2344  0.1151 -0.2047
  643THF    H10 8356   3.768   2.323   2.671 -0.4646 -0.2591  0.7769
  643THF    H11 8357   3.762   2.497   2.703 -0.9108  0.8091 -0.1264
  643THF    H12 8358   3.978   2.520   2.679 -1.7942  0.3929  0.7109
  643THF    H13 8359   3.996   2.361   2.594  0.0223  0.1850 -2.9010
  644THF     O1 8360   3.075   4.325   5.479 -0.2544  0.0606  0.4618
  644THF     C2 8361   3.100   4.246   5.596  0.1272 -0.1499  0.8541
  644THF     C3 8362   3.181   4.413   5.460 -0.1093 -0.0889  0.4911
  644THF     H4 8363   3.046   4.151   5.607 -1.6830  0.9553  2.0405
  644THF     H5 8364   3.083   4.300   5.689 -1.3672 -0.0143  0.5238
  644THF     H6 8365   3.199   4.437   5.356  1.3688 -1.2288  0.4545
  644THF     H7 8366   3.164   4.501   5.523  0.1917  0.5112 -0.2559
  644THF     C8 8367   3.304   4.341   5.514 -0.0763 -0.4847  0.3576
  644THF     C9 8368   3.251   4.224   5.583  0.8226 -0.1817  1.1420
  644THF    H10 8369   3.371   4.406   5.569 -0.7895  1.0010 -0.4659
  644THF    H11 8370   3.362   4.305   5.429  0.2348 -0.0996  0.4067
  644THF    H12 8371   3.269   4.133   5.527 -0.3870 -0.4819  1.2002
  644THF    H13 8372   3.298   4.201   5.678 -2.2828  0.4148  2.9724
  645THF     O1 8373   3.154   3.840   4.052 -0.7195  0.3482  0.6043
  645THF     C2 8374   3.290   3.901   4.064  0.0889 -0.4180 -0.3104
  645THF     C3 8375   3.156   3.733   3.956 -0.6194  0.1936 -0.2211
  645THF     H4 8376   3.331   3.884   4.164  0.7169  3.1008  0.1698
  645THF     H5 8377   3.279   4.009   4.053  0.2000 -0.4218 -0.4611
  645THF     H6 8378   3.105   3.642   3.989  1.1269 -0.7103  0.1437
  645THF     H7 8379   3.109   3.775   3.868 -1.3055  0.2066  0.1503
  645THF     C8 8380   3.309   3.712   3.946 -0.3039  0.5236 -0.3380
  645THF     C9 8381   3.376   3.843   3.957  0.0068 -0.7809 -0.2181
  645THF    H10 8382   3.330   3.680   3.844 -3.4479  0.8771 -1.1878
  645THF    H11 8383   3.351   3.650   4.026 -2.5957 -0.3694  0.2380
  645THF    H12 8384   3.477   3.838   3.998  0.1815 -0.2704 -0.5626
  645THF    H13 8385   3.377   3.901   3.865  0.4295  1.4397  1.1033
  646THF     O1 8386   5.498   3.242   0.644 -0.5763  0.1335 -0.2666
  646THF     C2 8387   5.537   3.370   0.613  0.4289 -0.0228 -0.3282
  646THF     C3 8388   5.439   3.241   0.774 -0.0482 -0.1079  0.5125
  646THF     H4 8389   5.443   3.413   0.580 -0.2514 -0.3973  1.0320
  646THF     H5 8390   5.611   3.377   0.533 -0.0487 -2.8309 -1.1384
  646THF     H6 8391   5.335   3.269   0.763  0.5096  1.6643 -0.6177
  646THF     H7 8392   5.449   3.137   0.807 -0.1634 -0.2369  0.1507
  646THF     C8 8393   5.509   3.340   0.861  0.4620 -0.7182 -0.2678
  646THF     C9 8394   5.584   3.419   0.757 -0.0007  0.2207  0.3178
  646THF    H10 8395   5.586   3.302   0.929  0.7468 -1.9385 -1.2233
  646THF    H11 8396   5.445   3.416   0.906  2.3276  1.0646 -0.4880
  646THF    H12 8397   5.582   3.528   0.764 -0.2352  0.1183  2.1885
  646THF    H13 8398   5.690   3.395   0.761 -0.5185 -2.1742  1.3693
  647THF     O1 8399   4.540   3.469   1.944 -0.5359 -0.1128 -0.5041
  647THF     C2 8400   4.528   3.411   2.068 -1.0500 -0.1289  0.0204
  647THF     C3 8401   4.482   3.388   1.843  0.3527 -0.3996  0.0224
  647THF     H4 8402   4.466   3.477   2.130  0.7160  2.2314 -0.5831
  647THF     H5 8403   4.622   3.412   2.123  0.4276 -1.6411 -2.3427
  647THF     H6 8404   4.376   3.408   1.830 -0.0716 -2.4634 -0.1144
  647THF     H7 8405   4.522   3.390   1.741  2.6290  2.0217  0.8355
  647THF     C8 8406   4.504   3.248   1.899  0.1095  0.0522 -0.9799
  647THF     C9 8407   4.479   3.269   2.046  0.1611  0.4395  0.0458
  647THF    H10 8408   4.605   3.210   1.884  0.6693  1.7629 -1.7403
  647THF    H11 8409   4.427   3.177   1.869  0.4293 -0.6901 -0.0939
  647THF    H12 8410   4.370   3.270   2.058 -0.1333 -1.8217 -1.6428
  647THF    H13 8411   4.519   3.192   2.112 -1.6125 -0.4247  0.1664
  648THF     O1 8412   2.787   4.223   2.687 -0.6744  0.1802  0.1436
  648THF     C2 8413   2.740   4.320   2.778 -0.4727  0.1636 -0.0303
  648THF     C3 8414   2.731   4.251   2.562 -0.0981 -0.1082  0.1231
  648THF     H4 8415   2.795   4.339   2.870 -1.0246  1.0719  0.1172
  648THF     H5 8416   2.641   4.280   2.798 -0.3556  0.2649  0.7968
  648THF     H6 8417   2.776   4.199   2.478  1.5967  2.2620 -0.5392
  648THF     H7 8418   2.624   4.232   2.563  0.1224 -1.5138 -0.7115
  648THF     C8 8419   2.760   4.401   2.548 -0.0874  1.2061  0.6444
  648THF     C9 8420   2.751   4.451   2.697  0.0706 -0.4084  0.5728
  648THF    H10 8421   2.700   4.460   2.479 -0.8732  1.3142  1.4191
  648THF    H11 8422   2.865   4.410   2.519  0.0108 -0.6929  0.2225
  648THF    H12 8423   2.846   4.504   2.710  0.1939 -0.1377 -1.1375
  648THF    H13 8424   2.668   4.521   2.703  0.1337 -0.3065  0.2881
  649THF     O1 8425   0.662   2.760   5.427 -0.1823  0.0843 -0.3045
  649THF     C2 8426   0.533   2.811   5.456  0.1266 -0.0383 -0.2563
  649THF     C3 8427   0.749   2.864   5.390  0.0937 -0.2988 -0.7141
  649THF     H4 8428   0.513   2.824   5.562  0.3204 -3.0542  0.2381
  649THF     H5 8429   0.456   2.739   5.427 -0.9166  0.8810  0.1553
  649THF     H6 8430   0.767   2.929   5.476 -2.4256  0.9878 -1.0651
  649THF     H7 8431   0.842   2.827   5.349 -0.2400 -0.8715 -0.9693
  649THF     C8 8432   0.660   2.950   5.297 -0.1088  0.7453  0.1063
  649THF     C9 8433   0.527   2.940   5.370  0.7218 -0.3443  0.4453
  649THF    H10 8434   0.659   2.898   5.201  1.5719 -2.0543  1.4782
  649THF    H11 8435   0.690   3.053   5.279 -0.0939  0.5348 -1.1392
  649THF    H12 8436   0.511   3.030   5.430  0.9240  0.8383 -1.2055
  649THF    H13 8437   0.442   2.939   5.302  2.4298  0.8235 -1.8737
  650THF     O1 8438   0.649   3.018   3.325  0.5652 -0.4440  0.4568
  650THF     C2 8439   0.640   2.899   3.256 -0.0205  0.3535 -0.6601
  650THF     C3 8440   0.782   3.066   3.302  0.9896 -0.3098  0.3425
  650THF     H4 8441   0.645   2.904   3.148 -2.1340 -2.2569 -0.9821
  650THF     H5 8442   0.540   2.855   3.265 -0.0151  0.2650 -1.0289
  650THF     H6 8443   0.785   3.096   3.197  1.0289  0.9446  0.6818
  650THF     H7 8444   0.792   3.154   3.366 -1.8939  1.6878 -1.6970
  650THF     C8 8445   0.852   2.938   3.343 -0.8453 -0.3986 -0.2597
  650THF     C9 8446   0.765   2.822   3.299 -0.4522 -0.3281  0.0113
  650THF    H10 8447   0.862   2.925   3.450  2.0516  0.0819 -0.3947
  650THF    H11 8448   0.954   2.939   3.303  0.3646 -1.5072  2.5653
  650THF    H12 8449   0.806   2.762   3.217 -0.3547 -0.3138  0.0495
  650THF    H13 8450   0.743   2.753   3.380  1.3607  0.9072  1.6523
  651THF     O1 8451   1.076   0.539   4.758  0.1405  0.4322  1.0003
  651THF     C2 8452   1.067   0.513   4.896  0.5463  0.0821 -0.2160
  651THF     C3 8453   1.217   0.543   4.724  1.0420 -0.9182  0.3132
  651THF     H4 8454   1.063   0.406   4.916  1.8293  0.1957  0.8364
  651THF     H5 8455   0.986   0.577   4.930  0.7275  0.5246 -0.5955
  651THF     H6 8456   1.249   0.464   4.656  0.3240  0.8869 -2.2966
  651THF     H7 8457   1.228   0.647   4.692  0.4307 -1.7034 -2.8037
  651THF     C8 8458   1.297   0.531   4.852  0.2627  0.8264  0.5619
  651THF     C9 8459   1.197   0.564   4.956  0.0349 -0.1932 -0.2521
  651THF    H10 8460   1.382   0.600   4.853  1.5411 -0.6202 -1.3015
  651THF    H11 8461   1.334   0.430   4.869  1.4848  1.1678  0.0436
  651THF    H12 8462   1.217   0.529   5.058  0.7447  1.6751  0.3013
  651THF    H13 8463   1.203   0.673   4.962 -0.0103 -0.2201  0.4401
  652THF     O1 8464   0.024   2.897   0.027  0.1136 -0.0688  0.4015
  652THF     C2 8465   0.128   2.810  -0.024  0.2029 -0.2137 -0.7487
  652THF     C3 8466  -0.104   2.850  -0.012  0.1429 -0.1457 -0.0850
  652THF     H4 8467   0.221   2.828   0.029 -0.6226  1.1735  0.3020
  652THF     H5 8468   0.161   2.815  -0.128  0.8177 -1.4275 -0.6275
  652THF     H6 8469  -0.156   2.854   0.084  0.4129  1.1668  0.0183
  652THF     H7 8470  -0.147   2.910  -0.093  2.4559 -0.1947 -1.4178
  652THF     C8 8471  -0.083   2.707  -0.050  0.3364 -0.1609 -0.0985
  652THF     C9 8472   0.058   2.676  -0.007  0.4490  0.0504  0.0337
  652THF    H10 8473  -0.103   2.696  -0.157 -3.3623 -2.7548  0.6574
  652THF    H11 8474  -0.158   2.649   0.003 -0.4661  0.0064 -1.0157
  652THF    H12 8475   0.058   2.656   0.101  0.5489  2.7504  0.5976
  652THF    H13 8476   0.101   2.597  -0.069  0.5006 -0.5960  0.8757
  653THF     O1 8477   2.789   0.351   2.810 -0.1091  0.2870  0.3893
  653THF     C2 8478   2.654   0.374   2.816 -0.5099 -0.5975 -0.0188
  653THF     C3 8479   2.815   0.234   2.883  0.0401 -0.5239  0.2011
  653THF     H4 8480   2.617   0.313   2.733 -1.4737 -0.4758  0.3153
  653THF     H5 8481   2.624   0.474   2.786 -0.5595 -0.1640  1.4469
  653THF     H6 8482   2.768   0.157   2.822 -1.1233  0.2499  0.0710
  653THF     H7 8483   2.920   0.213   2.899 -0.1294 -1.4614  0.1149
  653THF     C8 8484   2.732   0.254   3.007  0.5054 -0.1947  0.1350
  653THF     C9 8485   2.608   0.323   2.951 -1.0400 -0.0887  0.4319
  653THF    H10 8486   2.777   0.322   3.079  3.4056 -1.8930  0.0934
  653THF    H11 8487   2.703   0.160   3.056 -0.3462  0.0833  0.1864
  653THF    H12 8488   2.541   0.240   2.932 -0.9510 -0.4559  1.6841
  653THF    H13 8489   2.571   0.400   3.018 -0.4218 -0.0131  0.6931
  654THF     O1 8490   2.623   0.171   4.476 -0.9832  0.2812 -0.3125
  654THF     C2 8491   2.695   0.286   4.451  0.4707 -0.1708  0.2864
  654THF     C3 8492   2.492   0.217   4.499  0.4469  0.2599 -0.2288
  654THF     H4 8493   2.670   0.322   4.352 -0.3555  0.8851  0.8558
  654THF     H5 8494   2.803   0.271   4.464  0.7283  0.5035 -0.9793
  654THF     H6 8495   2.447   0.200   4.401 -0.3751 -1.7763  0.4531
  654THF     H7 8496   2.434   0.152   4.564  0.0390  2.0797  1.3312
  654THF     C8 8497   2.494   0.371   4.532  0.2242  0.6831 -0.8849
  654THF     C9 8498   2.647   0.400   4.537  0.0051  0.4788  0.1959
  654THF    H10 8499   2.432   0.398   4.617 -1.8363 -1.2473 -1.6699
  654THF    H11 8500   2.448   0.418   4.444  0.0923  1.8647 -0.2029
  654THF    H12 8501   2.672   0.501   4.504 -0.7643  0.9129  0.9064
  654THF    H13 8502   2.681   0.389   4.639 -0.9021 -0.3900  0.4209
  655THF     O1 8503   2.524   0.942   4.204 -0.0752  0.4694 -0.6745
  655THF     C2 8504   2.659   0.950   4.185 -0.9505 -0.7345 -0.6820
  655THF     C3 8505   2.499   0.902   4.343 -0.1038  0.2633  0.1461
  655THF     H4 8506   2.702   1.035   4.240  1.3379 -0.4411 -2.7303
  655THF     H5 8507   2.690   0.957   4.081  0.7710  2.0288 -0.1037
  655THF     H6 8508   2.478   0.994   4.398 -3.3080  0.7602 -1.6579
  655THF     H7 8509   2.405   0.848   4.352 -0.1004  0.2712  0.2290
  655THF     C8 8510   2.617   0.813   4.380 -0.6040  0.6601 -0.0999
  655THF     C9 8511   2.706   0.816   4.255  0.1830  0.0863 -0.7937
  655THF    H10 8512   2.582   0.711   4.398 -2.3631  1.2927  0.2189
  655THF    H11 8513   2.659   0.848   4.474 -2.2313  0.3416  0.7765
  655THF    H12 8514   2.807   0.805   4.294 -0.5218  0.1769  1.1734
  655THF    H13 8515   2.675   0.740   4.183 -0.2033  0.2979 -0.8535
  656THF     O1 8516   3.490   2.876   1.863 -0.3811 -0.0700 -0.2428
  656THF     C2 8517   3.445   2.805   1.980  0.7136 -0.0912  0.2421
  656THF     C3 8518   3.420   2.819   1.754  0.8865  0.0770 -0.9532
  656THF     H4 8519   3.357   2.854   2.021  1.0931 -0.4852  1.5665
  656THF     H5 8520   3.522   2.804   2.057  1.3450  1.1838 -0.3553
  656THF     H6 8521   3.322   2.867   1.746  0.2447 -1.0582 -0.0584
  656THF     H7 8522   3.470   2.823   1.657  0.6210  2.0967 -1.0617
  656THF     C8 8523   3.401   2.669   1.786 -0.1335 -0.1745  0.8389
  656THF     C9 8524   3.411   2.664   1.931  0.7035  0.2312 -0.4517
  656THF    H10 8525   3.487   2.630   1.732 -0.7369 -1.9435  1.0658
  656THF    H11 8526   3.307   2.625   1.753  0.4153 -0.3738 -0.5079
  656THF    H12 8527   3.322   2.624   1.979  0.2361  1.5183 -0.2120
  656THF    H13 8528   3.482   2.594   1.975 -0.3388 -0.4161  0.2306
  657THF     O1 8529   4.352   2.778   2.356  0.1209  0.1907 -0.0441
  657THF     C2 8530   4.210   2.791   2.338  0.1208  0.3334 -0.6260
  657THF     C3 8531   4.402   2.906   2.353 -0.5601 -0.3098  0.3663
  657THF     H4 8532   4.152   2.827   2.423  0.6243  0.2045 -0.2272
  657THF     H5 8533   4.181   2.690   2.307 -0.2128 -0.0798  0.9518
  657THF     H6 8534   4.379   2.965   2.442  0.8632 -1.0011  1.2350
  657THF     H7 8535   4.508   2.913   2.331 -0.3935 -1.8738  0.5644
  657THF     C8 8536   4.337   2.962   2.221  0.1023  0.1528  0.5888
  657THF     C9 8537   4.207   2.877   2.209  0.3902  0.3718  0.7396
  657THF    H10 8538   4.401   2.968   2.133  0.5339  0.4842  0.9234
  657THF    H11 8539   4.314   3.066   2.241  1.5643  1.1439 -2.3089
  657THF    H12 8540   4.128   2.951   2.214  0.0419  0.1931 -1.2144
  657THF    H13 8541   4.186   2.815   2.122 -1.9732  1.6310  0.3296
  658THF     O1 8542   4.772   3.683   4.085  0.1930  0.2316 -0.7969
  658THF     C2 8543   4.745   3.731   3.950  0.5518 -0.6739 -0.4486
  658THF     C3 8544   4.703   3.564   4.122  0.1997  0.4306  0.0178
  658THF     H4 8545   4.833   3.714   3.888  0.1762  0.7494 -1.4049
  658THF     H5 8546   4.706   3.833   3.954  1.2131 -0.3840 -1.1857
  658THF     H6 8547   4.766   3.494   4.177  0.3742  0.9940  0.5399
  658THF     H7 8548   4.606   3.583   4.168  0.3774  0.3300  0.4388
  658THF     C8 8549   4.661   3.507   3.981  0.3078 -0.4462  0.4395
  658THF     C9 8550   4.636   3.634   3.898 -0.0529 -0.2014 -0.0661
  658THF    H10 8551   4.585   3.429   3.974  0.0033 -0.0256 -1.1877
  658THF    H11 8552   4.744   3.452   3.938  1.0303 -0.8183  2.1980
  658THF    H12 8553   4.662   3.609   3.796  3.1376 -0.8362  0.8088
  658THF    H13 8554   4.532   3.658   3.921 -0.2106 -1.3969  0.5572
  659THF     O1 8555   0.629   3.781   2.210  0.2947 -0.1717 -0.0051
  659THF     C2 8556   0.597   3.648   2.176  0.6408  0.5083  0.0978
  659THF     C3 8557   0.641   3.778   2.350 -0.4004  0.0555 -0.0104
  659THF     H4 8558   0.685   3.587   2.194 -0.0381 -0.6726 -0.4553
  659THF     H5 8559   0.574   3.639   2.070  1.8539 -0.2722 -0.1179
  659THF     H6 8560   0.736   3.738   2.386 -1.0731 -1.0616  0.5846
  659THF     H7 8561   0.641   3.881   2.386  1.2399  0.0040  0.2162
  659THF     C8 8562   0.529   3.685   2.404 -1.0050 -0.4743  0.3478
  659THF     C9 8563   0.486   3.614   2.277  0.1058  0.3414 -0.7755
  659THF    H10 8564   0.451   3.748   2.446  0.8360  1.8398  0.5143
  659THF    H11 8565   0.574   3.613   2.472 -1.0759  0.5277  1.4749
  659THF    H12 8566   0.465   3.509   2.292 -0.3729  0.4792 -0.4423
  659THF    H13 8567   0.390   3.646   2.235  0.4180  0.5032 -1.3808
  660THF     O1 8568   2.249   4.216   3.065 -0.3476  0.1959 -0.6813
  660THF     C2 8569   2.303   4.238   3.200  0.3871  1.6589 -0.3986
  660THF     C3 8570   2.256   4.340   3.000  0.1272 -0.9570  0.5231
  660THF     H4 8571   2.340   4.144   3.241 -1.3139  1.0316 -0.1869
  660THF     H5 8572   2.220   4.272   3.262 -1.3505 -4.2128  1.1295
  660THF     H6 8573   2.275   4.326   2.893 -0.2448 -0.7609  0.4284
  660THF     H7 8574   2.152   4.372   3.004 -0.1662 -1.8866  0.5876
  660THF     C8 8575   2.354   4.433   3.070  0.4983  0.3941 -0.0874
  660THF     C9 8576   2.412   4.345   3.173 -0.1581  0.5400  0.0501
  660THF    H10 8577   2.295   4.519   3.103 -4.5867 -2.4372 -0.7351
  660THF    H11 8578   2.442   4.466   3.015  1.8019 -0.1825  1.5462
  660THF    H12 8579   2.500   4.303   3.124  0.4218  2.1177 -0.3035
  660THF    H13 8580   2.444   4.394   3.265 -1.6850  0.8990  0.4178
  661THF     O1 8581   4.979   3.841   3.521  0.4337  0.1215  0.3955
  661THF     C2 8582   5.059   3.817   3.641  0.1163 -0.3968  0.6086
  661THF     C3 8583   5.009   3.745   3.419 -0.0945  0.5872 -0.2740
  661THF     H4 8584   4.999   3.830   3.731 -1.1277  2.6766 -0.5222
  661THF     H5 8585   5.132   3.897   3.638 -2.3244  1.9755 -2.1775
  661THF     H6 8586   4.923   3.678   3.416 -0.9028  1.5656  0.5058
  661THF     H7 8587   5.033   3.780   3.318 -0.0790  0.3305 -0.3618
  661THF     C8 8588   5.137   3.674   3.474 -0.4704  0.1403 -0.3389
  661THF     C9 8589   5.120   3.676   3.618  0.1936 -0.4685  0.0505
  661THF    H10 8590   5.230   3.727   3.454 -1.2268  2.7682  2.4338
  661THF    H11 8591   5.146   3.573   3.432 -0.8871 -0.1531  0.2735
  661THF    H12 8592   5.046   3.600   3.645 -2.1989  1.7943  0.1981
  661THF    H13 8593   5.213   3.668   3.675  0.8558 -1.0894 -1.0763
  662THF     O1 8594   4.265   1.782   3.946  0.4992  0.3381 -0.9137
  662THF     C2 8595   4.283   1.696   3.833  0.5277  0.5812 -0.6219
  662THF     C3 8596   4.234   1.909   3.898 -0.9467 -0.4914 -0.4361
  662THF     H4 8597   4.195   1.679   3.772  0.5672 -0.8601 -0.3093
  662THF     H5 8598   4.327   1.599   3.854 -0.8210  0.8646  4.9850
  662THF     H6 8599   4.129   1.914   3.871 -1.1235 -2.2909 -0.1846
  662THF     H7 8600   4.265   1.979   3.976  0.4336 -2.6209  1.0556
  662THF     C8 8601   4.329   1.925   3.786 -0.1007 -0.1821 -0.7179
  662THF     C9 8602   4.365   1.783   3.746  0.0885 -0.5811  0.3195
  662THF    H10 8603   4.414   1.978   3.829 -1.4868  0.2570  1.6364
  662THF    H11 8604   4.284   1.980   3.703  1.6751 -2.2879 -3.2706
  662THF    H12 8605   4.352   1.766   3.640  1.5835  0.1609 -0.0003
  662THF    H13 8606   4.469   1.754   3.760  0.8825  1.5045 -0.9101
  663THF     O1 8607   2.739   3.256   0.285  0.3623  0.0272 -0.4051
  663THF     C2 8608   2.660   3.348   0.212  0.0677  0.8988  0.1804
  663THF     C3 8609   2.764   3.143   0.200 -0.5734 -0.3845 -0.2399
  663THF     H4 8610   2.729   3.409   0.153  0.0570  1.0545  0.3276
  663THF     H5 8611   2.601   3.409   0.280 -2.1055 -1.7996  0.8881
  663THF     H6 8612   2.866   3.147   0.162 -0.0905 -2.1289  0.7556
  663THF     H7 8613   2.756   3.048   0.252  0.5239 -0.9205 -1.0115
  663THF     C8 8614   2.662   3.158   0.080  0.2140  0.5044 -0.0321
  663THF     C9 8615   2.575   3.255   0.129  0.4956  0.2670  0.0725
  663THF    H10 8616   2.614   3.065   0.048  1.4830 -0.3332  0.3990
  663THF    H11 8617   2.717   3.189  -0.009  0.7399 -1.3435 -0.3948
  663THF    H12 8618   2.523   3.303   0.046  0.5283 -0.4878 -0.3946
  663THF    H13 8619   2.507   3.217   0.206 -0.2098  3.4795  1.2033
  664THF     O1 8620   3.953   3.058   1.774  0.0210 -0.1253 -0.2151
  664THF     C2 8621   4.061   3.021   1.861  0.1648  0.6280 -0.1110
  664THF     C3 8622   4.005   3.143   1.673 -0.7440  0.2365  0.7188
  664THF     H4 8623   4.112   2.947   1.798 -2.1080 -2.1110  1.0172
  664THF     H5 8624   4.011   2.972   1.945  0.0997 -0.7569 -0.9264
  664THF     H6 8625   4.025   3.083   1.584  2.4119  1.5325  0.3949
  664THF     H7 8626   3.933   3.219   1.644  0.6058  1.8157  1.3499
  664THF     C8 8627   4.144   3.193   1.730  0.1583 -0.0488  0.3669
  664THF     C9 8628   4.133   3.146   1.876  0.2247  0.0443 -0.7709
  664THF    H10 8629   4.141   3.302   1.725 -0.7138 -0.0455  0.8048
  664THF    H11 8630   4.236   3.174   1.676  1.1163  0.3684  1.7974
  664THF    H12 8631   4.232   3.150   1.921 -0.3778 -1.7080  0.8611
  664THF    H13 8632   4.078   3.218   1.937  2.4017  1.1212  0.0323
  665THF     O1 8633   3.135   2.154   1.709  0.0193 -0.7266 -0.1143
  665THF     C2 8634   3.126   2.266   1.622 -0.3986  0.2655  0.0962
  665THF     C3 8635   3.102   2.198   1.841 -0.0576 -0.6112 -0.1976
  665THF     H4 8636   3.021   2.282   1.599  0.1501  0.8541 -2.2121
  665THF     H5 8637   3.186   2.246   1.533 -1.1180  0.8088 -0.5155
  665THF     H6 8638   3.001   2.173   1.873  0.3963 -1.6946  0.4462
  665THF     H7 8639   3.167   2.168   1.923 -0.9936  2.3063  1.7844
  665THF     C8 8640   3.102   2.355   1.835 -0.1073 -0.1487  0.1118
  665THF     C9 8641   3.174   2.383   1.698 -0.3404 -0.2407  0.2371
  665THF    H10 8642   3.144   2.406   1.921  1.0405 -0.0148 -0.4932
  665THF    H11 8643   2.996   2.374   1.821 -0.2335 -0.8790  0.0230
  665THF    H12 8644   3.153   2.473   1.640  0.9955  0.8123  1.3447
  665THF    H13 8645   3.282   2.379   1.704 -0.2713 -0.8820 -1.0567
  666THF     O1 8646   2.538   5.196   0.150  0.1833 -0.0884 -0.7085
  666THF     C2 8647   2.551   5.066   0.114 -0.0633  0.3471 -0.5602
  666THF     C3 8648   2.470   5.203   0.272  0.0621 -0.1124  0.1595
  666THF     H4 8649   2.655   5.033   0.111  0.1248  0.6928  1.0953
  666THF     H5 8650   2.522   5.053   0.010  0.3679  0.6358 -0.7233
  666THF     H6 8651   2.547   5.219   0.347  1.6311  0.4227 -1.4973
  666THF     H7 8652   2.400   5.286   0.280  0.5772  0.1532  3.3822
  666THF     C8 8653   2.390   5.076   0.286  0.0422 -0.0970  0.1456
  666THF     C9 8654   2.485   4.981   0.218 -0.2588  0.7085 -0.0413
  666THF    H10 8655   2.310   5.063   0.213  0.1745 -1.2254  0.1869
  666THF    H11 8656   2.350   5.044   0.382 -1.3017 -1.4445 -0.8234
  666THF    H12 8657   2.561   4.937   0.283 -0.7112 -1.0430 -0.6306
  666THF    H13 8658   2.440   4.894   0.170  0.7667  0.2163 -0.1287
  667THF     O1 8659   1.014   2.193   2.942  0.0805  0.2946 -0.6799
  667THF     C2 8660   1.123   2.193   2.856 -0.2120  0.2500 -0.2350
  667THF     C3 8661   0.915   2.098   2.897 -0.0162  0.0653  1.0979
  667THF     H4 8662   1.196   2.123   2.895 -0.1144  1.1053  1.1477
  667THF     H5 8663   1.158   2.295   2.841 -0.4616  0.5032  0.8531
  667THF     H6 8664   0.943   2.001   2.938 -3.5229 -0.6099  2.3028
  667THF     H7 8665   0.821   2.123   2.946  0.0217  1.2654  0.5785
  667THF     C8 8666   0.913   2.116   2.748 -0.9675 -0.6560  0.2681
  667THF     C9 8667   1.058   2.157   2.723  0.9522 -0.3866 -0.1011
  667THF    H10 8668   0.841   2.197   2.736 -2.4566 -2.0651 -0.8180
  667THF    H11 8669   0.890   2.028   2.686 -0.7545  0.6205 -1.7133
  667THF    H12 8670   1.105   2.072   2.674  4.4004  0.7638  0.9762
  667THF    H13 8671   1.069   2.235   2.648  0.5119 -0.5496 -0.3393
  668THF     O1 8672   1.478   1.012   4.126 -0.4314  0.5664  0.0517
  668THF     C2 8673   1.362   0.997   4.196 -0.1115 -0.5058  0.2835
  668THF     C3 8674   1.481   1.141   4.075 -0.3082 -0.2372 -0.4662
  668THF     H4 8675   1.379   1.051   4.289  3.2098 -0.9092  0.0414
  668THF     H5 8676   1.330   0.895   4.217  0.8722 -0.8756  0.0557
  668THF     H6 8677   1.504   1.214   4.152  0.5425  1.0076 -1.8401
  668THF     H7 8678   1.550   1.163   3.993 -0.5881 -0.3382 -0.7319
  668THF     C8 8679   1.338   1.165   4.029 -0.0495 -0.1110 -0.0659
  668THF     C9 8680   1.265   1.058   4.100 -0.4892 -0.0428  0.6204
  668THF    H10 8681   1.345   1.154   3.921 -1.5105  1.2986 -0.3385
  668THF    H11 8682   1.311   1.268   4.054  1.6593 -0.2076  2.5974
  668THF    H12 8683   1.169   1.086   4.144  0.5894  2.0982  1.7738
  668THF    H13 8684   1.242   0.974   4.034  1.5213 -2.0206  2.2758
  669THF     O1 8685   2.488   2.220   3.166  0.0067 -0.0456 -0.7091
  669THF     C2 8686   2.578   2.240   3.057 -0.1884  0.0146  0.0754
  669THF     C3 8687   2.401   2.111   3.130 -0.6139 -0.6400  0.1223
  669THF     H4 8688   2.671   2.294   3.076 -1.0177  1.2846  0.6401
  669THF     H5 8689   2.521   2.280   2.974  0.6012 -2.0247 -1.5433
  669THF     H6 8690   2.370   2.056   3.218 -4.9379 -0.4151 -1.0309
  669THF     H7 8691   2.314   2.153   3.080  1.0188  2.6389 -0.2181
  669THF     C8 8692   2.483   2.028   3.035  0.0064  0.2705 -0.1158
  669THF     C9 8693   2.612   2.099   3.018 -0.2852 -0.0228 -0.0584
  669THF    H10 8694   2.424   2.037   2.944  0.3502  2.9227 -0.1670
  669THF    H11 8695   2.495   1.926   3.072 -0.7363  0.1364 -0.2153
  669THF    H12 8696   2.684   2.064   3.093 -2.9201  0.8642  3.1363
  669THF    H13 8697   2.634   2.095   2.912  1.8247  2.2950  0.1932
  670THF     O1 8698   4.674   3.204   1.352  0.4567  0.1561  0.0275
  670THF     C2 8699   4.687   3.065   1.377  0.3053  0.4579 -0.5530
  670THF     C3 8700   4.553   3.242   1.414 -0.7556  0.9912  0.4987
  670THF     H4 8701   4.790   3.031   1.366  0.6425  1.1340  0.3592
  670THF     H5 8702   4.631   2.998   1.313 -1.6688  2.2208 -0.7797
  670THF     H6 8703   4.545   3.350   1.412  1.4232  1.1899 -1.8691
  670THF     H7 8704   4.474   3.198   1.353  0.7928 -2.7288  0.9213
  670THF     C8 8705   4.563   3.170   1.553  0.3186  0.2836 -0.4810
  670THF     C9 8706   4.654   3.053   1.521  0.9609  0.0539  0.3138
  670THF    H10 8707   4.462   3.149   1.589 -0.1127  0.1258 -1.7262
  670THF    H11 8708   4.625   3.234   1.615  0.6981 -0.7771  0.2474
  670THF    H12 8709   4.749   3.054   1.575  1.7150 -2.3142 -0.8316
  670THF    H13 8710   4.600   2.961   1.542  0.8159  0.0076 -0.2419
  671THF     O1 8711   0.804   1.717   3.713 -0.3994  0.1496  0.2979
  671THF     C2 8712   0.853   1.834   3.776 -0.2061  0.0051  0.6612
  671THF     C3 8713   0.663   1.711   3.752  0.0616  0.0627  0.0634
  671THF     H4 8714   0.938   1.882   3.727 -0.0173 -1.1388 -0.1881
  671THF     H5 8715   0.877   1.807   3.878  0.5197 -3.8040 -0.3578
  671THF     H6 8716   0.604   1.643   3.690  0.6108 -0.9203  0.5919
  671THF     H7 8717   0.662   1.678   3.856 -1.1812  0.0134  0.0441
  671THF     C8 8718   0.616   1.852   3.741  0.1034  0.2263 -0.0716
  671THF     C9 8719   0.735   1.928   3.791  0.1369  0.0910 -0.3611
  671THF    H10 8720   0.525   1.872   3.798  0.6144 -0.4603  1.0025
  671THF    H11 8721   0.601   1.876   3.636 -0.4207 -1.2514 -0.3525
  671THF    H12 8722   0.742   2.010   3.719  0.9579 -1.0211 -1.5972
  671THF    H13 8723   0.714   1.953   3.895 -0.9681 -3.1358  0.2974
  672THF     O1 8724   3.155   4.918   1.367 -0.8507 -0.6236  0.2714
  672THF     C2 8725   3.167   4.888   1.499 -0.1048 -0.1545  0.3976
  672THF     C3 8726   3.117   4.803   1.290 -0.4965 -0.2983  0.6459
  672THF     H4 8727   3.113   4.952   1.569 -0.1613 -0.6596  0.8272
  672THF     H5 8728   3.274   4.884   1.524 -0.4474 -5.4536  2.1978
  672THF     H6 8729   3.042   4.842   1.221  0.8273  2.0581  0.4361
  672THF     H7 8730   3.195   4.766   1.224  0.5340  3.4276 -0.4908
  672THF     C8 8731   3.075   4.696   1.385  0.0184 -0.1227 -0.4749
  672THF     C9 8732   3.114   4.745   1.520  1.0790 -0.2766 -0.0159
  672THF    H10 8733   3.117   4.597   1.366 -1.8969 -0.8288 -1.3677
  672THF    H11 8734   2.968   4.677   1.381  0.3786 -2.3296 -0.6920
  672THF    H12 8735   3.032   4.735   1.592 -0.1666 -1.2075 -1.5072
  672THF    H13 8736   3.194   4.687   1.565 -0.3234 -0.8752  1.8512
  673THF     O1 8737   5.318   1.444   1.715 -0.0134  0.3066 -0.0270
  673THF     C2 8738   5.409   1.523   1.627 -0.4252  0.3130  0.1571
  673THF     C3 8739   5.245   1.358   1.638 -0.3632 -0.0717  1.1494
  673THF     H4 8740   5.505   1.504   1.675 -1.4060 -1.7423  1.4322
  673THF     H5 8741   5.382   1.629   1.630  2.1593  1.4423 -5.2499
  673THF     H6 8742   5.214   1.264   1.684 -2.0849  0.9479  2.1872
  673THF     H7 8743   5.156   1.415   1.611  1.1896  1.5243 -0.8862
  673THF     C8 8744   5.325   1.342   1.508 -0.2341  0.0872  0.1176
  673THF     C9 8745   5.383   1.478   1.488 -0.2310  0.1393  0.4260
  673THF    H10 8746   5.275   1.294   1.425  1.5300  0.8697 -1.4716
  673THF    H11 8747   5.400   1.270   1.540  0.6045  0.9558  0.1769
  673THF    H12 8748   5.464   1.497   1.417  0.3406  1.5397  1.4042
  673THF    H13 8749   5.303   1.540   1.448 -0.8254 -0.0309  1.3218
  674THF     O1 8750   0.215   1.139   1.062 -0.0858  0.1349 -0.2384
  674THF     C2 8751   0.116   1.235   1.031 -1.0503 -0.1059 -0.2747
  674THF     C3 8752   0.186   1.080   1.192 -0.1024  0.7924 -0.2771
  674THF     H4 8753   0.032   1.188   0.981  0.6113 -0.4911 -2.8635
  674THF     H5 8754   0.158   1.302   0.957 -0.4103 -2.4861 -2.2017
  674THF     H6 8755   0.147   0.979   1.175  1.5184 -0.0549  0.7922
  674THF     H7 8756   0.282   1.071   1.243 -0.4956 -0.4376  0.2847
  674THF     C8 8757   0.080   1.172   1.263  0.2513 -0.0567  0.1500
  674THF     C9 8758   0.073   1.294   1.167  0.0462 -0.0929  0.6495
  674THF    H10 8759   0.108   1.194   1.366 -2.2882 -0.9439  1.1151
  674THF    H11 8760  -0.012   1.115   1.260  0.8770 -1.0222 -2.2817
  674THF    H12 8761  -0.027   1.336   1.153 -0.0519  0.5946  3.0413
  674THF    H13 8762   0.148   1.358   1.212  1.2253  0.4366 -1.9016
  675THF     O1 8763   0.093   1.147   2.867  0.5520  0.0941 -0.4569
  675THF     C2 8764   0.141   1.111   2.995 -0.4506  0.1506 -0.0868
  675THF     C3 8765   0.147   1.264   2.818  0.0677 -0.3357  0.1568
  675THF     H4 8766   0.214   1.029   2.997 -2.1533 -1.4094  0.6601
  675THF     H5 8767   0.058   1.075   3.056  1.7792 -0.3592  2.9153
  675THF     H6 8768   0.244   1.240   2.775 -0.2794 -0.6320 -0.4668
  675THF     H7 8769   0.090   1.328   2.751  1.8264  0.2206 -0.8900
  675THF     C8 8770   0.161   1.341   2.944 -0.1483 -0.1593  0.7566
  675THF     C9 8771   0.202   1.238   3.053 -0.4238  0.7573 -0.7222
  675THF    H10 8772   0.063   1.377   2.975 -0.4824 -1.6797  1.6215
  675THF    H11 8773   0.224   1.428   2.928 -1.3715  0.7812  0.9430
  675THF    H12 8774   0.310   1.232   3.067 -0.1264 -2.6815 -3.3302
  675THF    H13 8775   0.163   1.267   3.150  0.8023 -1.6510  0.5675
  676THF     O1 8776   0.606   2.969   4.685  0.6867 -0.2254  0.2235
  676THF     C2 8777   0.711   2.952   4.592 -0.8848  0.0182 -0.2263
  676THF     C3 8778   0.584   2.849   4.756 -0.5303  0.1050  0.2243
  676THF     H4 8779   0.772   3.042   4.576  0.2680 -0.3097  1.8992
  676THF     H5 8780   0.670   2.914   4.499 -0.4798 -0.8411 -0.0651
  676THF     H6 8781   0.522   2.879   4.840 -3.1422 -1.9861 -0.8443
  676THF     H7 8782   0.528   2.777   4.696 -1.5485  0.8304  0.2894
  676THF     C8 8783   0.737   2.819   4.780  0.3298  0.6678  0.3649
  676THF     C9 8784   0.805   2.846   4.651 -0.1578  0.7225  0.2232
  676THF    H10 8785   0.770   2.720   4.813  1.3364  0.6617 -0.5745
  676THF    H11 8786   0.762   2.893   4.856  0.6948 -1.1912  2.1332
  676THF    H12 8787   0.907   2.886   4.660 -0.4169  1.8318 -1.3437
  676THF    H13 8788   0.800   2.756   4.589 -0.8422 -0.0117  1.3153
  677THF     O1 8789   3.288   1.498   2.915 -0.0872 -0.2196 -0.8215
  677THF     C2 8790   3.388   1.400   2.947  0.3868 -0.5594 -0.0949
  677THF     C3 8791   3.348   1.622   2.926 -0.4181  0.3503 -0.0650
  677THF     H4 8792   3.368   1.320   2.875  1.0985 -1.2298  0.4502
  677THF     H5 8793   3.388   1.356   3.046 -1.6121 -1.9128 -0.6306
  677THF     H6 8794   3.305   1.699   2.862  0.8470  2.5141  1.5521
  677THF     H7 8795   3.349   1.658   3.029  2.3344  0.6887 -0.1279
  677THF     C8 8796   3.495   1.615   2.891 -0.4748  0.1690 -0.4988
  677THF     C9 8797   3.522   1.468   2.924 -0.0958  0.1722  0.8175
  677THF    H10 8798   3.549   1.688   2.951 -2.0570  2.5896 -1.8692
  677THF    H11 8799   3.515   1.621   2.784  0.0255  0.1900 -0.4073
  677THF    H12 8800   3.555   1.417   2.834 -2.0492 -0.4788  0.4300
  677THF    H13 8801   3.598   1.461   3.002  0.1528 -0.0494  0.5549
  678THF     O1 8802   2.944   4.545   4.156  0.1639  0.2645 -0.1173
  678THF     C2 8803   2.994   4.539   4.024 -0.2877  0.0145  0.0202
  678THF     C3 8804   3.058   4.580   4.233  0.4577  0.1829  0.0076
  678THF     H4 8805   2.904   4.544   3.963  0.7751  1.3454 -1.5096
  678THF     H5 8806   3.055   4.452   3.998 -0.7883 -0.7928  1.3964
  678THF     H6 8807   3.013   4.627   4.320 -2.2842  0.2299 -1.3560
  678THF     H7 8808   3.121   4.493   4.253 -0.3466 -0.2465  0.7402
  678THF     C8 8809   3.134   4.684   4.150  0.2650 -0.7391 -0.2233
  678THF     C9 8810   3.085   4.658   4.008 -0.6094 -0.2894  0.2404
  678THF    H10 8811   3.241   4.671   4.164  0.3653 -0.1810 -0.4452
  678THF    H11 8812   3.117   4.785   4.186  0.0817 -0.6989 -0.4187
  678THF    H12 8813   3.029   4.750   3.989 -1.2038  0.0718  3.3192
  678THF    H13 8814   3.161   4.643   3.931 -0.6289  2.4952 -0.4403
  679THF     O1 8815   0.497   1.290   2.826 -0.6248  0.7328 -0.1643
  679THF     C2 8816   0.504   1.433   2.820  0.1158  0.3893 -0.2282
  679THF     C3 8817   0.613   1.240   2.892 -0.2792  0.0553 -0.0214
  679THF     H4 8818   0.494   1.477   2.919  2.6371 -1.0816  0.7853
  679THF     H5 8819   0.438   1.468   2.741  0.8800  2.5506  0.0431
  679THF     H6 8820   0.595   1.204   2.993  2.8244 -1.7427  0.0155
  679THF     H7 8821   0.645   1.150   2.840  1.8153  0.8531 -0.2075
  679THF     C8 8822   0.718   1.354   2.882  0.6289  0.0972  0.0539
  679THF     C9 8823   0.649   1.452   2.783 -0.6528  0.3541 -0.6069
  679THF    H10 8824   0.820   1.328   2.854  0.2403 -0.9034 -0.4767
  679THF    H11 8825   0.724   1.414   2.973 -0.0759 -1.4939  1.1879
  679THF    H12 8826   0.673   1.557   2.799 -0.5790  0.2765 -0.2071
  679THF    H13 8827   0.664   1.435   2.676  0.4467 -0.6724 -0.3186
  680THF     O1 8828   0.265   4.138   3.078  0.4680 -0.1615  0.4961
  680THF     C2 8829   0.321   4.249   3.009  0.4705 -0.4604  0.4455
  680THF     C3 8830   0.139   4.184   3.120 -0.0228  0.1665  0.3593
  680THF     H4 8831   0.408   4.215   2.954 -0.8436 -0.4091 -1.7876
  680THF     H5 8832   0.346   4.339   3.065 -0.4976  0.3826 -0.4232
  680THF     H6 8833   0.067   4.107   3.145 -2.1685  2.5155  1.9985
  680THF     H7 8834   0.136   4.253   3.205  0.2567 -0.3771  0.8165
  680THF     C8 8835   0.091   4.248   2.989 -0.9565 -0.1105 -0.0228
  680THF     C9 8836   0.216   4.286   2.908  0.0058 -0.4361 -0.4659
  680THF    H10 8837   0.020   4.328   3.007  2.2196  2.6903  1.0178
  680THF    H11 8838   0.039   4.180   2.921 -0.7043 -1.5586  1.1752
  680THF    H12 8839   0.240   4.233   2.816  0.1505  0.3965 -0.9271
  680THF    H13 8840   0.213   4.392   2.880  0.1491 -0.5671 -0.9816
  681THF     O1 8841   2.954   2.364   0.697  0.0180 -0.0574  0.3420
  681THF     C2 8842   2.947   2.478   0.610 -0.4439  0.7354 -0.0861
  681THF     C3 8843   2.831   2.343   0.762  0.1006 -0.2514  0.7570
  681THF     H4 8844   2.931   2.447   0.507 -0.8616 -2.2198  0.7845
  681THF     H5 8845   3.040   2.534   0.619  0.7722 -1.0916 -0.6657
  681THF     H6 8846   2.753   2.298   0.700  0.1229  2.2275 -1.2687
  681THF     H7 8847   2.842   2.307   0.864  4.0533  1.0520  0.9264
  681THF     C8 8848   2.784   2.485   0.778  0.2546  0.3267  0.4726
  681THF     C9 8849   2.838   2.563   0.655 -0.2635  0.3290  0.3023
  681THF    H10 8850   2.821   2.534   0.868 -1.3744  1.5028  0.5414
  681THF    H11 8851   2.677   2.493   0.794  0.3157  2.4587  0.0701
  681THF    H12 8852   2.755   2.552   0.585 -2.5192 -0.3792  2.8960
  681THF    H13 8853   2.863   2.667   0.676 -1.1821  0.0099  3.6130
  682THF     O1 8854   5.240   1.540   0.810 -0.5072  0.2762  0.7227
  682THF     C2 8855   5.207   1.668   0.783 -0.1748 -0.1888  0.1292
  682THF     C3 8856   5.364   1.534   0.876  0.5471  0.5262 -0.3594
  682THF     H4 8857   5.100   1.665   0.799  0.0202  0.5074  1.8030
  682THF     H5 8858   5.243   1.690   0.682  0.3669 -0.1648  0.3256
  682THF     H6 8859   5.378   1.447   0.940  0.1109 -1.2732 -2.5500
  682THF     H7 8860   5.433   1.532   0.791 -1.1652  0.7137 -1.8242
  682THF     C8 8861   5.373   1.660   0.965 -0.1494  0.2044 -0.8582
  682THF     C9 8862   5.282   1.750   0.887 -0.5108 -0.5847  0.5129
  682THF    H10 8863   5.475   1.693   0.987  0.1877 -0.2737 -1.6444
  682THF    H11 8864   5.315   1.649   1.057  0.6075  2.0728 -0.1027
  682THF    H12 8865   5.214   1.814   0.944  0.5186  0.3932  0.6837
  682THF    H13 8866   5.346   1.821   0.834  1.1511 -0.7146  2.2220
  683THF     O1 8867   3.757   4.728   0.021  0.5994  0.2275  0.3237
  683THF     C2 8868   3.622   4.693  -0.008 -0.5236 -0.4135  0.4254
  683THF     C3 8869   3.832   4.756  -0.099  0.3582 -0.7224  0.5362
  683THF     H4 8870   3.574   4.790   0.010 -2.9210 -1.2348 -1.0214
  683THF     H5 8871   3.594   4.614   0.061  2.9041 -2.3511 -0.1762
  683THF     H6 8872   3.841   4.858  -0.135 -0.3816 -0.8945 -0.1882
  683THF     H7 8873   3.931   4.718  -0.074  1.4234  2.7446  2.0782
  683THF     C8 8874   3.763   4.652  -0.202  0.0180 -0.5461 -0.4242
  683THF     C9 8875   3.621   4.655  -0.160 -0.3032  0.1110  0.1451
  683THF    H10 8876   3.796   4.550  -0.180 -0.6341 -0.2365  2.3081
  683THF    H11 8877   3.783   4.680  -0.306 -0.8605  0.8756 -0.2330
  683THF    H12 8878   3.576   4.736  -0.218  1.0681  0.3095 -0.7042
  683THF    H13 8879   3.555   4.571  -0.181 -2.2995  1.1507  1.8027
  684THF     O1 8880   3.515   5.201   0.624  0.5285  0.2542  0.4048
  684THF     C2 8881   3.533   5.091   0.531  0.0607  0.3731  0.0708
  684THF     C3 8882   3.589   5.169   0.737  0.6402 -0.4978 -0.2283
  684THF     H4 8883   3.504   5.110   0.428 -1.1569  1.3836  0.5747
  684THF     H5 8884   3.479   5.002   0.562 -1.1785  1.2991  0.6443
  684THF     H6 8885   3.634   5.252   0.791  0.6553 -0.1209 -0.8008
  684THF     H7 8886   3.533   5.120   0.816  3.1256 -0.3852  1.7270
  684THF     C8 8887   3.699   5.074   0.700 -0.8739 -0.6056  0.1261
  684THF     C9 8888   3.680   5.050   0.553  0.6300 -0.1494  0.5447
  684THF    H10 8889   3.690   4.974   0.743  1.0032 -2.0281 -2.4701
  684THF    H11 8890   3.801   5.109   0.718 -0.6430 -1.1665 -0.0505
  684THF    H12 8891   3.753   5.115   0.505 -0.2811  0.7719  0.3514
  684THF    H13 8892   3.683   4.947   0.519  0.4345  0.3527 -1.1054
  685THF     O1 8893   2.357   3.641   4.364  0.5546  0.1983 -0.4898
  685THF     C2 8894   2.233   3.622   4.434  0.2255  0.7640  0.8763
  685THF     C3 8895   2.319   3.635   4.227  0.3672  0.6480  0.1497
  685THF     H4 8896   2.187   3.720   4.419 -3.4804 -0.8913  0.4493
  685THF     H5 8897   2.243   3.600   4.541 -0.2383 -0.0639  0.7540
  685THF     H6 8898   2.258   3.719   4.194 -0.6194  0.1960  0.7582
  685THF     H7 8899   2.406   3.610   4.166  0.5426  1.5858 -0.0037
  685THF     C8 8900   2.228   3.512   4.220  0.8219 -0.2691 -0.2789
  685THF     C9 8901   2.164   3.505   4.354  0.3970 -0.8472 -0.3789
  685THF    H10 8902   2.291   3.423   4.210  0.3607 -0.6451  0.1163
  685THF    H11 8903   2.153   3.507   4.142  0.8660 -2.1927 -0.2561
  685THF    H12 8904   2.057   3.520   4.343  0.2557  1.8458  2.8496
  685THF    H13 8905   2.164   3.406   4.398 -0.9704 -0.4267  0.6461
  686THF     O1 8906   3.742   3.942   3.323  0.4333  0.6635 -0.6139
  686THF     C2 8907   3.684   3.853   3.229 -0.0248 -0.1691  0.1029
  686THF     C3 8908   3.754   4.071   3.264 -0.3206 -0.5866  0.4535
  686THF     H4 8909   3.622   3.773   3.268 -0.2578 -0.2293 -0.3810
  686THF     H5 8910   3.764   3.811   3.168  0.4394  2.4858 -1.2410
  686THF     H6 8911   3.753   4.154   3.334  0.3626 -0.4747  0.3391
  686THF     H7 8912   3.844   4.069   3.203 -1.0662  1.5134 -0.8104
  686THF     C8 8913   3.628   4.089   3.182  0.7157  0.6090  0.8242
  686THF     C9 8914   3.596   3.945   3.135 -0.2597 -0.7686 -0.0895
  686THF    H10 8915   3.645   4.142   3.089  1.1836 -0.0947  0.4975
  686THF    H11 8916   3.546   4.134   3.239 -0.2455  0.2162 -0.1995
  686THF    H12 8917   3.497   3.914   3.168 -0.7665  0.7503 -0.0920
  686THF    H13 8918   3.610   3.923   3.029 -0.1798 -0.1755 -0.2032
  687THF     O1 8919   4.686   4.058   3.154  0.1734  0.1365 -0.0752
  687THF     C2 8920   4.683   3.934   3.220 -0.6142  0.0189 -0.1793
  687THF     C3 8921   4.803   4.128   3.193 -0.0441  0.1849  0.4839
  687THF     H4 8922   4.766   3.871   3.190 -4.0283 -4.4587 -1.2506
  687THF     H5 8923   4.589   3.880   3.212 -0.2243 -0.9286  1.3125
  687THF     H6 8924   4.902   4.094   3.163  0.6064  0.8615  1.8001
  687THF     H7 8925   4.787   4.233   3.168  1.7032  0.4297  0.2917
  687THF     C8 8926   4.787   4.121   3.345  0.7000  0.8511 -1.1113
  687THF     C9 8927   4.704   3.993   3.360  0.0530  0.0332 -0.1514
  687THF    H10 8928   4.744   4.211   3.388  0.2937  0.2232 -0.1836
  687THF    H11 8929   4.889   4.105   3.380  0.4699 -3.0417 -1.7706
  687THF    H12 8930   4.748   3.921   3.428  0.6192  1.0132  0.5405
  687THF    H13 8931   4.603   4.022   3.390  0.6888  2.7629 -0.3394
  688THF     O1 8932   4.866   5.114   5.021  0.0659 -0.3480  0.1505
  688THF     C2 8933   4.750   5.118   4.952 -0.2377  0.2400 -0.2577
  688THF     C3 8934   4.899   5.248   5.063 -0.2155 -0.2162 -0.0758
  688THF     H4 8935   4.679   5.061   5.012  0.0950 -1.7200 -1.6207
  688THF     H5 8936   4.763   5.067   4.857  3.6803 -1.1583  0.8295
  688THF     H6 8937   4.920   5.240   5.170  3.5777 -2.5494 -0.7840
  688THF     H7 8938   4.986   5.291   5.014 -0.1345 -0.5541 -0.2327
  688THF     C8 8939   4.771   5.334   5.040 -0.5634 -0.7507 -0.1991
  688THF     C9 8940   4.716   5.262   4.931  0.3310  0.0635  0.9273
  688THF    H10 8941   4.792   5.439   5.019  0.2086 -0.7153  0.6881
  688THF    H11 8942   4.704   5.320   5.125 -0.3407 -3.9463 -0.4431
  688THF    H12 8943   4.607   5.273   4.926  0.4368  1.7033  1.6339
  688THF    H13 8944   4.756   5.291   4.833  0.2663 -2.3379  0.1293
  689THF     O1 8945   3.677   3.035   5.011  0.2192 -0.1286  0.5448
  689THF     C2 8946   3.722   3.132   5.106  1.2037 -0.2362  0.4576
  689THF     C3 8947   3.753   2.914   5.034 -0.7048 -0.3694 -1.1085
  689THF     H4 8948   3.681   3.116   5.206  0.8167  3.0336  0.9337
  689THF     H5 8949   3.701   3.235   5.077 -0.6592 -0.5791  0.4934
  689THF     H6 8950   3.725   2.871   5.130  2.9052 -1.2597 -0.3049
  689THF     H7 8951   3.740   2.837   4.958  2.0313 -1.5088 -0.5450
  689THF     C8 8952   3.895   2.966   5.061 -0.4815  0.1871  0.1527
  689THF     C9 8953   3.874   3.109   5.105  0.3087 -0.2751 -1.2402
  689THF    H10 8954   3.962   2.960   4.975 -0.5273  2.5895 -0.1128
  689THF    H11 8955   3.932   2.911   5.147 -0.0142  2.3832  1.4195
  689THF    H12 8956   3.902   3.116   5.210 -1.3577 -3.1542 -0.4943
  689THF    H13 8957   3.920   3.182   5.039 -0.3893  0.9772 -0.3947
  690THF     O1 8958   2.767   2.797   2.001  0.3653  0.2551 -0.2197
  690THF     C2 8959   2.808   2.661   1.999 -0.8035 -0.4131 -0.0830
  690THF     C3 8960   2.851   2.864   1.893  0.5431 -0.1037 -0.5333
  690THF     H4 8961   2.779   2.610   1.907  0.7417 -2.6896  0.6175
  690THF     H5 8962   2.771   2.593   2.075  0.9009 -2.5954 -1.0794
  690THF     H6 8963   2.810   2.840   1.795  1.0778 -0.7285 -0.6097
  690THF     H7 8964   2.851   2.972   1.908 -0.7908 -0.0858 -0.5628
  690THF     C8 8965   2.987   2.784   1.908 -0.0801 -0.6333  0.3034
  690THF     C9 8966   2.957   2.661   1.995 -0.2716 -0.0198 -0.3414
  690THF    H10 8967   3.066   2.853   1.938 -0.6028  1.0184 -1.8541
  690THF    H11 8968   3.027   2.749   1.813  1.7121  0.0137  0.7786
  690THF    H12 8969   3.008   2.570   1.965  0.6015  0.8295 -1.5637
  690THF    H13 8970   2.999   2.681   2.094 -1.0788 -0.9120  0.2034
  691THF     O1 8971   5.245   0.277   0.038 -0.0611  0.2170 -0.5515
  691THF     C2 8972   5.371   0.342   0.024  0.6520  0.0328 -0.0760
  691THF     C3 8973   5.154   0.329  -0.056  0.2935  0.2927  0.2738
  691THF     H4 8974   5.452   0.268   0.026 -1.4195 -2.4137  1.9145
  691THF     H5 8975   5.377   0.398   0.117 -1.6895 -0.5908  0.5079
  691THF     H6 8976   5.126   0.253  -0.129  1.7567 -0.6905  0.6962
  691THF     H7 8977   5.061   0.350  -0.002 -1.3714  0.3547 -2.4608
  691THF     C8 8978   5.210   0.464  -0.095  0.3623  0.1081 -0.7356
  691THF     C9 8979   5.363   0.442  -0.092  0.2087  0.1727 -0.0276
  691THF    H10 8980   5.187   0.532  -0.013 -0.2028  0.3778 -1.1111
  691THF    H11 8981   5.169   0.515  -0.181 -2.3330 -1.3984 -0.4894
  691THF    H12 8982   5.382   0.395  -0.189  0.2300  0.1078  0.0077
  691THF    H13 8983   5.439   0.517  -0.075  0.7008 -0.1310 -0.8571
  692THF     O1 8984   5.116   1.089   1.582  0.0265  0.3887  0.6318
  692THF     C2 8985   5.098   1.069   1.440 -0.4150  0.6121  0.0180
  692THF     C3 8986   5.079   0.972   1.653  0.1311  0.3145  0.2728
  692THF     H4 8987   5.199   1.058   1.398  0.5363  0.9320  2.0886
  692THF     H5 8988   5.050   1.152   1.387 -0.0113  1.4006  0.8527
  692THF     H6 8989   5.175   0.923   1.670  0.7797  1.6608  0.6759
  692THF     H7 8990   5.029   0.994   1.748 -2.5036 -2.2659 -0.4070
  692THF     C8 8991   4.980   0.902   1.559  0.0800 -0.2266 -0.2796
  692THF     C9 8992   5.037   0.931   1.416  0.0223 -0.1077  0.0856
  692THF    H10 8993   4.883   0.951   1.566 -0.0232 -0.3353 -0.8600
  692THF    H11 8994   4.972   0.795   1.577  1.2503 -0.3376 -0.3568
  692THF    H12 8995   5.115   0.856   1.396 -0.7361 -1.0559  0.6030
  692THF    H13 8996   4.953   0.925   1.348  1.1382 -1.2356 -1.2656
  693THF     O1 8997   2.070   4.940   4.457 -0.6016 -0.1419 -0.2015
  693THF     C2 8998   2.018   4.962   4.586  0.8511  0.1526 -0.3092
  693THF     C3 8999   2.010   4.823   4.404  0.1492  0.4367  0.3663
  693THF     H4 9000   2.031   5.063   4.625  0.5051  0.5671 -1.2395
  693THF     H5 9001   2.075   4.899   4.655  0.1540 -0.6919 -0.4959
  693THF     H6 9002   2.024   4.824   4.296  2.0716 -2.6420  0.4593
  693THF     H7 9003   2.057   4.730   4.437 -1.0600 -0.2996  0.0399
  693THF     C8 9004   1.862   4.821   4.460  0.0041  0.2443  0.6701
  693THF     C9 9005   1.868   4.910   4.584  0.0182 -0.6900 -0.4476
  693THF    H10 9006   1.827   4.721   4.487 -1.5684  0.8117  0.8100
  693THF    H11 9007   1.794   4.870   4.391  0.4943  3.0199  2.0183
  693THF    H12 9008   1.799   4.991   4.561  1.5383  1.0996  0.9634
  693THF    H13 9009   1.841   4.866   4.679  4.3860 -0.8213  0.9800
  694THF     O1 9010   0.421   4.010   2.611 -0.0436 -0.4511  0.8424
  694THF     C2 9011   0.297   3.949   2.632 -0.2247 -0.8310 -0.5585
  694THF     C3 9012   0.412   4.075   2.487 -0.1970  0.1474 -0.2103
  694THF     H4 9013   0.263   3.972   2.733 -1.1832  0.0878 -1.0645
  694THF     H5 9014   0.303   3.841   2.617 -0.2906 -0.9525  0.2457
  694THF     H6 9015   0.487   4.154   2.486  1.9825 -1.4919  4.6241
  694THF     H7 9016   0.430   4.004   2.406 -2.9806 -0.3705 -0.4695
  694THF     C8 9017   0.271   4.132   2.485 -0.3523 -0.0200 -0.0757
  694THF     C9 9018   0.195   4.012   2.531 -0.4255  0.1434  0.6481
  694THF    H10 9019   0.239   4.158   2.384 -0.7334 -1.4521 -0.3515
  694THF    H11 9020   0.271   4.216   2.555 -0.6703  1.1062 -1.3878
  694THF    H12 9021   0.094   4.039   2.565 -1.2473  0.9890 -2.1232
  694THF    H13 9022   0.173   3.953   2.442  2.3017 -1.3585  0.8669
  695THF     O1 9023   4.790   2.096   2.603 -0.0641  0.1953 -0.0691
  695THF     C2 9024   4.708   2.200   2.643  0.0601  0.1108  0.0976
  695THF     C3 9025   4.926   2.140   2.622  0.0853  0.2451 -0.5748
  695THF     H4 9026   4.610   2.160   2.669 -0.5209  0.5889 -1.2229
  695THF     H5 9027   4.695   2.278   2.567  0.7761 -0.0399 -0.1862
  695THF     H6 9028   4.998   2.058   2.622  0.5204  0.6082  0.4941
  695THF     H7 9029   4.951   2.216   2.548  0.2033  0.7112 -0.0601
  695THF     C8 9030   4.917   2.198   2.764 -0.5919  0.3012 -0.5347
  695THF     C9 9031   4.784   2.258   2.766 -0.5310 -0.0440 -0.0347
  695THF    H10 9032   5.005   2.254   2.793 -0.0815 -1.6232  2.0323
  695THF    H11 9033   4.924   2.116   2.836  1.8011  0.4262 -0.5547
  695THF    H12 9034   4.729   2.235   2.857 -0.1625  0.9110  0.4378
  695THF    H13 9035   4.777   2.366   2.755  0.5035  0.0785  0.4305
  696THF     O1 9036   2.081   2.929   0.751  0.0362 -0.2197  0.0189
  696THF     C2 9037   2.067   3.061   0.792 -0.0304 -0.1759 -0.0299
  696THF     C3 9038   2.144   2.855   0.860 -0.1498 -0.2283 -0.0235
  696THF     H4 9039   1.968   3.061   0.840  0.1567 -2.9632  0.5433
  696THF     H5 9040   2.065   3.122   0.702  2.5326  0.2982  0.1676
  696THF     H6 9041   2.067   2.788   0.899  0.1856 -0.0715  0.9320
  696THF     H7 9042   2.233   2.808   0.818  0.8768  1.8266 -0.2768
  696THF     C8 9043   2.184   2.953   0.969 -0.3265 -0.1725 -0.2152
  696THF     C9 9044   2.175   3.092   0.897 -1.0232  0.0385 -0.1971
  696THF    H10 9045   2.279   2.927   1.016  0.0935 -1.0611 -1.5031
  696THF    H11 9046   2.105   2.943   1.044 -1.9272 -0.3182 -1.8644
  696THF    H12 9047   2.150   3.168   0.970  0.2370 -2.2667  2.8242
  696THF    H13 9048   2.266   3.119   0.844 -1.0860  0.5820 -0.0324
  697THF     O1 9049   0.965   0.483   1.791 -0.2102  0.0331  0.3004
  697THF     C2 9050   0.991   0.358   1.733  0.0732  0.4975  0.6400
  697THF     C3 9051   1.000   0.579   1.699  0.7518  0.1903  0.6094
  697THF     H4 9052   0.947   0.276   1.791 -0.4006  1.2845  1.4190
  697THF     H5 9053   1.097   0.334   1.744 -0.3970 -1.8120  0.7144
  697THF     H6 9054   0.919   0.651   1.710 -1.0304 -1.3360 -1.5366
  697THF     H7 9055   1.091   0.640   1.705 -0.0794  1.6023 -0.3501
  697THF     C8 9056   0.990   0.508   1.564 -0.2934  0.3323  0.2850
  697THF     C9 9057   0.940   0.364   1.596  0.2139 -0.2820 -0.2007
  697THF    H10 9058   1.094   0.498   1.532  0.1549  0.1965  1.7279
  697THF    H11 9059   0.934   0.551   1.480 -1.2969  0.7214  1.1412
  697THF    H12 9060   0.831   0.364   1.590  0.2792 -0.9611 -1.7671
  697THF    H13 9061   0.968   0.275   1.540  0.9895 -0.6583  0.7566
  698THF     O1 9062   4.877   2.047   5.236  0.2008  0.0062  0.0237
  698THF     C2 9063   5.004   2.092   5.186  0.3155 -0.2022 -0.2534
  698THF     C3 9064   4.775   2.142   5.201  0.5225 -0.2829 -0.8835
  698THF     H4 9065   5.083   2.018   5.172  1.4269  0.5541  1.6067
  698THF     H5 9066   5.058   2.163   5.249  0.2631  0.1035 -0.5487
  698THF     H6 9067   4.677   2.094   5.198 -0.5175  1.3460  2.1961
  698THF     H7 9068   4.777   2.219   5.278  0.1472 -2.3269  1.2968
  698THF     C8 9069   4.818   2.172   5.051 -0.4521  0.3169 -0.1314
  698THF     C9 9070   4.972   2.159   5.056  0.1855  0.0531 -0.5494
  698THF    H10 9071   4.794   2.269   5.008 -0.2875  0.0636 -0.8130
  698THF    H11 9072   4.786   2.095   4.980  1.0768  1.1081 -1.7519
  698THF    H12 9073   5.003   2.101   4.969  3.0404  1.3228 -0.4956
  698THF    H13 9074   5.025   2.252   5.034  0.4186  0.1344  0.3003
  699THF     O1 9075   0.086   3.800   2.808 -0.2554  0.3427 -0.0117
  699THF     C2 9076  -0.005   3.697   2.758 -0.6521 -0.1592  0.0190
  699THF     C3 9077   0.068   3.815   2.948 -0.1372  0.0651 -0.0132
  699THF     H4 9078   0.020   3.660   2.658  2.1005  0.8734  0.2360
  699THF     H5 9079  -0.093   3.759   2.737  0.3260  1.3025  0.0959
  699THF     H6 9080   0.174   3.819   2.970  0.1879 -0.2286 -1.4125
  699THF     H7 9081   0.022   3.912   2.967 -0.7925 -0.5332  1.6638
  699THF     C8 9082  -0.011   3.692   2.996 -0.3922  0.4512  0.1437
  699THF     C9 9083  -0.030   3.600   2.874 -0.0424 -0.7525 -0.9267
  699THF    H10 9084  -0.112   3.719   3.024 -0.4419 -0.2078  0.6114
  699THF    H11 9085   0.022   3.647   3.089  0.0094 -2.3127 -1.2297
  699THF    H12 9086   0.049   3.525   2.867  1.6376  0.9652 -1.3413
  699THF    H13 9087  -0.122   3.543   2.874  0.6860 -2.1246  2.0630
  700THF     O1 9088   1.211   0.184   3.920  0.4927  0.2468 -0.1962
  700THF     C2 9089   1.312   0.238   4.003 -1.1474  0.1863 -0.3447
  700THF     C3 9090   1.241   0.220   3.786  0.3734  0.5709 -0.4683
  700THF     H4 9091   1.318   0.180   4.096 -2.8934  0.2703 -0.1336
  700THF     H5 9092   1.276   0.338   4.029 -1.7207 -0.6512  2.4834
  700THF     H6 9093   1.176   0.167   3.716  0.3274  0.6515 -0.4870
  700THF     H7 9094   1.221   0.327   3.774  1.4838  1.0452  1.4906
  700THF     C8 9095   1.396   0.202   3.785 -0.7685  0.1350  1.0076
  700THF     C9 9096   1.439   0.239   3.922  0.5545  0.1914  0.2906
  700THF    H10 9097   1.439   0.269   3.710  0.5904 -0.2993  1.3597
  700THF    H11 9098   1.419   0.102   3.747 -0.1057  0.4541  0.5381
  700THF    H12 9099   1.506   0.169   3.972  1.1766  1.0737  0.7167
  700THF    H13 9100   1.488   0.336   3.920  1.0987 -0.0502  1.3335
  701THF     O1 9101   5.084   1.524   1.894 -0.4496 -0.1970  0.8186
  701THF     C2 9102   4.990   1.432   1.946  0.6986  0.5396  0.2408
  701THF     C3 9103   5.014   1.607   1.804  0.5880  1.0109  0.7555
  701THF     H4 9104   5.018   1.388   2.042  1.4731 -0.8241 -0.5935
  701THF     H5 9105   4.980   1.349   1.876  1.9497 -1.2536  2.0658
  701THF     H6 9106   5.054   1.709   1.801 -0.8950  1.6622 -2.9378
  701THF     H7 9107   5.019   1.566   1.703  2.4419  1.5972  0.5713
  701THF     C8 9108   4.871   1.612   1.856  0.0177  0.4559  0.2037
  701THF     C9 9109   4.862   1.517   1.965 -0.0763  0.4340 -0.8109
  701THF    H10 9110   4.800   1.588   1.777 -0.2294 -0.6331  0.7414
  701THF    H11 9111   4.852   1.714   1.889 -1.3572  0.3622 -0.2469
  701THF    H12 9112   4.873   1.570   2.060 -2.1273 -1.0631  0.3524
  701THF    H13 9113   4.770   1.457   1.968 -0.7144  1.4128 -0.2864
  702THF     O1 9114   1.316   0.726   5.205 -1.0238  0.5663  0.2433
  702THF     C2 9115   1.355   0.837   5.129 -0.4100  0.2551 -0.4028
  702THF     C3 9116   1.200   0.762   5.280  0.1057 -0.3738  1.1942
  702THF     H4 9117   1.429   0.814   5.053  2.9575 -3.4023  3.4723
  702THF     H5 9118   1.406   0.909   5.192  0.9520 -0.5672 -0.5337
  702THF     H6 9119   1.149   0.675   5.320 -2.6982 -0.0149 -1.2587
  702THF     H7 9120   1.238   0.828   5.358  1.9800  2.1531 -1.6195
  702THF     C8 9121   1.119   0.846   5.179 -0.5365  0.2260  0.3143
  702THF     C9 9122   1.229   0.908   5.091  0.2886 -0.9055 -0.0304
  702THF    H10 9123   1.056   0.920   5.229  0.4394 -0.2374  2.3104
  702THF    H11 9124   1.056   0.776   5.123 -0.1408  0.6577 -0.6941
  702THF    H12 9125   1.209   0.889   4.985  1.6793  1.6286 -0.8313
  702THF    H13 9126   1.238   1.015   5.110  0.8740 -0.8234 -0.7073
  703THF     O1 9127   1.853   1.515   4.387  0.4821  0.2468 -0.0965
  703THF     C2 9128   1.715   1.476   4.410  0.5147 -0.1516  1.2168
  703THF     C3 9129   1.935   1.403   4.396 -0.5970  0.2212 -0.0980
  703THF     H4 9130   1.663   1.439   4.321  0.5940  1.4386  0.4758
  703THF     H5 9131   1.659   1.563   4.444 -1.4864  0.4827 -3.0534
  703THF     H6 9132   1.973   1.371   4.299  0.5923  1.1869  0.0149
  703THF     H7 9133   2.016   1.443   4.458  1.6698 -0.2868 -2.5652
  703THF     C8 9134   1.849   1.295   4.465 -0.1124  0.0872  0.8404
  703THF     C9 9135   1.725   1.364   4.510 -0.0965 -0.0554 -0.3162
  703THF    H10 9136   1.893   1.238   4.547 -1.7237  0.5118  2.0348
  703THF    H11 9137   1.824   1.227   4.384 -0.7182  1.2203  0.0570
  703THF    H12 9138   1.641   1.297   4.491 -2.1333  2.2934 -0.2073
  703THF    H13 9139   1.735   1.394   4.615 -2.1922 -0.1752 -0.0269
  704THF     O1 9140   1.886   2.170   3.272  0.1737  0.6540 -0.3352
  704THF     C2 9141   2.017   2.201   3.236 -0.5594  0.2199  0.5214
  704THF     C3 9142   1.866   2.093   3.388 -0.0781 -0.2301  0.7385
  704THF     H4 9143   2.020   2.310   3.230 -2.1570  0.3334  1.1873
  704THF     H5 9144   2.055   2.163   3.141  1.8565  0.2598  1.3997
  704THF     H6 9145   1.771   2.116   3.435 -0.7108 -1.4041  0.0809
  704THF     H7 9146   1.872   1.987   3.363 -1.6254 -0.1675  0.0305
  704THF     C8 9147   1.999   2.127   3.465  0.3612  0.4308 -1.5979
  704THF     C9 9148   2.099   2.145   3.346 -0.3042  0.1791  0.1559
  704THF    H10 9149   2.026   2.048   3.536  0.5037  0.6224 -1.4393
  704THF    H11 9150   1.985   2.221   3.517  0.2463 -0.4638  0.0558
  704THF    H12 9151   2.190   2.200   3.371  0.1854 -0.8724  0.7405
  704THF    H13 9152   2.132   2.047   3.311 -2.0423 -0.5627  0.5190
  705THF     O1 9153   2.904   2.072   5.304  0.4194  0.1121  0.1362
  705THF     C2 9154   3.011   2.062   5.212  0.4229 -0.0321  0.1709
  705THF     C3 9155   2.792   2.039   5.224 -0.7686 -0.6609 -0.1825
  705THF     H4 9156   3.028   1.958   5.184 -0.4912 -0.1663  0.0698
  705THF     H5 9157   3.100   2.113   5.248 -0.1939  1.4441 -0.3262
  705THF     H6 9158   2.806   1.933   5.199 -0.3210 -1.0525  1.5916
  705THF     H7 9159   2.702   2.054   5.283 -1.2326 -0.8957 -0.8094
  705THF     C8 9160   2.810   2.124   5.099  0.2722  0.2836 -0.3840
  705THF     C9 9161   2.959   2.135   5.083 -0.8209  0.3763  0.7640
  705THF    H10 9162   2.765   2.222   5.117  0.5495  0.1851  1.0279
  705THF    H11 9163   2.755   2.070   5.022 -0.9064  1.4252 -0.3694
  705THF    H12 9164   2.990   2.081   4.994 -0.0815 -1.3271  1.9975
  705THF    H13 9165   2.995   2.238   5.073  1.4524 -0.3847  0.6716
  706THF     O1 9166   5.204   3.863   4.715 -0.2001 -0.0882 -0.2939
  706THF     C2 9167   5.133   3.868   4.593 -0.2836 -0.1680  0.6389
  706THF     C3 9168   5.135   3.778   4.804  0.0025 -0.8568  0.1422
  706THF     H4 9169   5.185   3.905   4.505 -0.8964 -1.9763 -0.5199
  706THF     H5 9170   5.056   3.944   4.610 -0.9404 -0.4761 -0.8012
  706THF     H6 9171   5.214   3.746   4.872  1.6094  1.4378 -0.5428
  706THF     H7 9172   5.051   3.830   4.851  0.1128  0.6774 -1.2680
  706THF     C8 9173   5.083   3.664   4.718 -0.0667  0.1553 -0.0917
  706THF     C9 9174   5.068   3.728   4.582  0.0791  0.5436 -0.3964
  706THF    H10 9175   4.989   3.610   4.734 -0.4034  0.9888  0.9025
  706THF    H11 9176   5.160   3.587   4.724 -0.2612 -0.0097  0.3934
  706THF    H12 9177   5.119   3.669   4.506 -3.1103 -0.1261 -2.2162
  706THF    H13 9178   4.964   3.747   4.552  0.0828 -1.0590 -1.5257
  707THF     O1 9179   0.632   4.809   2.293 -0.6698 -0.3010  0.1759
  707THF     C2 9180   0.770   4.802   2.246  0.6686 -0.0639 -0.1030
  707THF     C3 9181   0.633   4.866   2.423 -0.0619  0.1712  0.2009
  707THF     H4 9182   0.803   4.902   2.219  0.0464 -0.0891 -1.0054
  707THF     H5 9183   0.771   4.727   2.167 -0.8230 -0.5769  0.3179
  707THF     H6 9184   0.642   4.974   2.421  0.6693  0.1029 -1.1527
  707THF     H7 9185   0.537   4.853   2.473 -0.6285 -2.1931 -1.3192
  707THF     C8 9186   0.738   4.782   2.486  0.2711  0.7407  0.5302
  707THF     C9 9187   0.825   4.740   2.371 -0.1428  0.1327 -0.3449
  707THF    H10 9188   0.693   4.694   2.531  1.8580  0.2246  1.1783
  707THF    H11 9189   0.786   4.835   2.569 -1.0345  3.9876 -0.6297
  707THF    H12 9190   0.928   4.775   2.381  1.1041 -2.2337 -3.2884
  707THF    H13 9191   0.837   4.632   2.362 -2.8428 -0.4911  2.2043
  708THF     O1 9192   4.743   0.830   5.426  0.2873 -0.0327  0.0564
  708THF     C2 9193   4.877   0.848   5.401 -0.5150 -0.1819  0.4968
  708THF     C3 9194   4.671   0.805   5.301  0.6992 -1.0153 -1.2584
  708THF     H4 9195   4.945   0.849   5.486 -1.0429 -1.4712  0.9506
  708THF     H5 9196   4.884   0.951   5.366 -1.3101  0.0559  1.0357
  708THF     H6 9197   4.606   0.719   5.317  1.8715 -1.9234 -1.2388
  708THF     H7 9198   4.619   0.897   5.273  1.9935  0.5545  1.1139
  708THF     C8 9199   4.780   0.779   5.193  0.6594 -0.4938 -0.3950
  708THF     C9 9200   4.902   0.758   5.283 -0.2379 -0.9373 -0.1075
  708THF    H10 9201   4.794   0.877   5.147  0.8725 -0.6429 -0.6449
  708THF    H11 9202   4.762   0.698   5.122 -0.4399  1.0462 -1.9547
  708THF    H12 9203   4.909   0.655   5.318 -1.6952 -0.3715  1.9913
  708THF    H13 9204   4.995   0.796   5.239 -0.6434  0.8082  0.4653
  709THF     O1 9205   4.845   3.413   4.554  0.2675 -0.7476 -0.5542
  709THF     C2 9206   4.733   3.351   4.500  0.6686  0.1660 -0.5853
  709THF     C3 9207   4.943   3.319   4.581 -0.1810 -0.1059  0.0099
  709THF     H4 9208   4.663   3.416   4.448  2.7606  1.5874 -1.7754
  709THF     H5 9209   4.684   3.303   4.584  2.0692 -0.1801  0.0624
  709THF     H6 9210   5.040   3.362   4.605 -0.1998 -0.6230  1.1073
  709THF     H7 9211   4.915   3.255   4.665  0.3757  0.5226  0.6960
  709THF     C8 9212   4.945   3.232   4.461  1.1371 -0.1319  0.3885
  709THF     C9 9213   4.805   3.254   4.407  0.0474 -0.3537  0.6518
  709THF    H10 9214   4.963   3.128   4.489  0.6272 -0.0748  0.9359
  709THF    H11 9215   5.013   3.263   4.382 -0.6318 -0.5679 -1.3890
  709THF    H12 9216   4.816   3.300   4.309  1.5034  1.6852  1.6679
  709THF    H13 9217   4.744   3.166   4.391 -2.3913  1.5274 -1.1979
  710THF     O1 9218   1.432   0.476   1.993 -0.3010  0.4811  0.1920
  710THF     C2 9219   1.331   0.552   1.930  0.2609 -0.1669  0.4060
  710THF     C3 9220   1.419   0.464   2.132  0.2330 -0.0889 -0.1756
  710THF     H4 9221   1.244   0.490   1.905  1.3555 -0.6983 -2.4333
  710THF     H5 9222   1.365   0.585   1.832  0.5787 -0.0768  0.5446
  710THF     H6 9223   1.377   0.368   2.164 -0.7415  0.8055  1.3621
  710THF     H7 9224   1.516   0.462   2.181 -0.3477  1.1059  1.1033
  710THF     C8 9225   1.333   0.588   2.169  0.4175 -0.2220 -0.2560
  710THF     C9 9226   1.315   0.657   2.039  0.1109 -0.1716 -1.1440
  710THF    H10 9227   1.394   0.661   2.222 -1.1875  0.0884  1.2431
  710THF    H11 9228   1.237   0.572   2.218  1.3981 -0.7833  1.5793
  710THF    H12 9229   1.222   0.713   2.034 -1.3333 -2.3990 -0.5857
  710THF    H13 9230   1.390   0.734   2.024 -1.1681  0.9642 -1.8335
  711THF     O1 9231   5.262   3.795   2.398  0.3134  0.1412  0.2337
  711THF     C2 9232   5.397   3.742   2.362  0.3884  0.2210 -0.1582
  711THF     C3 9233   5.243   3.917   2.323  0.3908 -0.1600 -0.2526
  711THF     H4 9234   5.399   3.634   2.348 -0.0137  0.2216 -0.2396
  711THF     H5 9235   5.460   3.762   2.449  0.9297 -0.6655 -0.3389
  711THF     H6 9236   5.178   3.894   2.239 -0.6666  1.9640 -0.1025
  711THF     H7 9237   5.200   3.981   2.401  0.4481 -1.0401  0.5157
  711THF     C8 9238   5.376   3.959   2.274  0.0541  0.3967 -0.4452
  711THF     C9 9239   5.429   3.822   2.239 -0.1812 -0.0014  0.1460
  711THF    H10 9240   5.436   4.001   2.356  1.1719  1.4519 -1.7636
  711THF    H11 9241   5.379   4.025   2.187  1.6636 -0.0743 -0.7715
  711THF    H12 9242   5.375   3.779   2.155 -2.0051 -0.3267  1.4255
  711THF    H13 9243   5.535   3.822   2.213 -0.5391  0.0944 -1.3851
  712THF     O1 9244   1.253   4.206   2.945  0.5611  0.1403  0.0295
  712THF     C2 9245   1.256   4.199   2.804 -0.3184  0.1193 -0.3243
  712THF     C3 9246   1.363   4.131   2.987  0.4329  0.7979 -0.1295
  712THF     H4 9247   1.192   4.275   2.760  0.8536  1.5555  0.3924
  712THF     H5 9248   1.212   4.102   2.777 -0.2152 -0.5533  1.7395
  712THF     H6 9249   1.378   4.145   3.094  0.3758  0.1961 -0.0432
  712THF     H7 9250   1.337   4.026   2.978  0.3730  0.7934  0.1016
  712THF     C8 9251   1.477   4.173   2.903  0.8094  0.2479  0.3286
  712THF     C9 9252   1.403   4.220   2.777 -0.2344 -0.1107 -0.4280
  712THF    H10 9253   1.539   4.086   2.881 -0.0077  0.1451 -1.8532
  712THF    H11 9254   1.534   4.250   2.954  0.6097 -0.9608  2.4891
  712THF    H12 9255   1.422   4.328   2.776  2.5062 -0.4753  1.4035
  712THF    H13 9256   1.432   4.174   2.683  0.0087 -1.1525  0.1439
  713THF     O1 9257   1.037   1.569   3.232 -0.5489  0.0550 -0.2922
  713THF     C2 9258   0.996   1.674   3.137 -0.0533  0.5983  0.3678
  713THF     C3 9259   1.151   1.512   3.181 -0.1090  0.0056 -0.2480
  713THF     H4 9260   1.049   1.770   3.137  1.4258 -0.1316 -1.8491
  713THF     H5 9261   0.891   1.703   3.139 -0.3428 -0.0909 -2.0158
  713THF     H6 9262   1.237   1.563   3.224 -0.8679  0.9795  0.1804
  713THF     H7 9263   1.145   1.407   3.208  2.9462 -0.2676 -0.3481
  713THF     C8 9264   1.134   1.528   3.027 -0.7366 -0.2465 -0.4265
  713THF     C9 9265   1.011   1.609   3.010 -0.0633 -0.4231 -0.4842
  713THF    H10 9266   1.135   1.424   2.994  0.9429 -1.0727  1.9647
  713THF    H11 9267   1.223   1.578   2.989 -0.8992 -0.3987 -1.0193
  713THF    H12 9268   1.019   1.669   2.919 -1.0666  0.8459  0.2366
  713THF    H13 9269   0.926   1.541   3.013  0.4919 -1.2156 -1.6259
  714THF     O1 9270   5.167   3.869   0.747 -0.0227 -0.8853 -0.6253
  714THF     C2 9271   5.289   3.950   0.749 -0.2054 -0.2841  0.2757
  714THF     C3 9272   5.197   3.742   0.796 -0.1033  0.4177 -0.1359
  714THF     H4 9273   5.260   4.051   0.780  0.0410 -0.4858  1.2131
  714THF     H5 9274   5.349   3.950   0.658 -0.4628 -3.6860 -0.0115
  714THF     H6 9275   5.129   3.712   0.875 -1.7306 -0.7484 -1.9064
  714THF     H7 9276   5.191   3.666   0.719 -0.0900 -1.1745  1.3700
  714THF     C8 9277   5.342   3.745   0.855  0.1494 -0.7459 -0.5787
  714THF     C9 9278   5.378   3.897   0.861 -0.1200  0.3363 -0.3700
  714THF    H10 9279   5.405   3.692   0.784  0.6680 -2.2980  0.9549
  714THF    H11 9280   5.356   3.690   0.949  0.6630 -1.0103 -0.8031
  714THF    H12 9281   5.352   3.939   0.958 -0.1450 -1.2320  0.3361
  714THF    H13 9282   5.485   3.908   0.848 -0.3683  1.8279 -1.2841
  715THF     O1 9283   1.976   2.228   2.248  0.1350  0.3321 -0.3708
  715THF     C2 9284   2.040   2.311   2.337 -0.0958 -0.7569 -0.5013
  715THF     C3 9285   2.079   2.140   2.191  0.1994 -0.3101 -0.1800
  715THF     H4 9286   1.987   2.307   2.432 -0.1923 -2.0227 -0.5837
  715THF     H5 9287   2.041   2.417   2.314 -2.2971 -0.9815 -1.9476
  715THF     H6 9288   2.040   2.049   2.146 -1.3269  0.0123  0.4578
  715THF     H7 9289   2.140   2.183   2.111 -0.1782  1.5532  0.5023
  715THF     C8 9290   2.173   2.110   2.304 -0.5585  0.2788 -0.0189
  715THF     C9 9291   2.182   2.250   2.357  0.3360  0.6109  0.1387
  715THF    H10 9292   2.268   2.060   2.283 -1.5059 -1.8245  0.4340
  715THF    H11 9293   2.108   2.051   2.369 -1.9102  0.4672 -1.1760
  715THF    H12 9294   2.211   2.257   2.462 -0.2526 -2.0729  0.5521
  715THF    H13 9295   2.249   2.302   2.288 -0.4095  0.3388 -0.8127
  716THF     O1 9296   3.385   2.376   0.888  0.5752  0.0126  0.5705
  716THF     C2 9297   3.294   2.372   0.779  0.0237  0.1208 -0.0032
  716THF     C3 9298   3.452   2.252   0.894  0.5326 -0.2198 -0.5902
  716THF     H4 9299   3.262   2.475   0.762  0.3484  0.1815 -0.2626
  716THF     H5 9300   3.198   2.328   0.805 -0.4177  0.4621 -1.0236
  716THF     H6 9301   3.541   2.275   0.953  0.5072 -0.1884 -0.5637
  716THF     H7 9302   3.386   2.176   0.938  0.6064 -0.2764 -0.5773
  716THF     C8 9303   3.462   2.208   0.747 -0.6271  0.2231 -0.7418
  716THF     C9 9304   3.373   2.298   0.667  0.4492  0.5773  0.3418
  716THF    H10 9305   3.443   2.102   0.728  0.4707 -0.1706  0.2015
  716THF    H11 9306   3.563   2.229   0.712 -1.1576  2.5663 -1.0352
  716THF    H12 9307   3.420   2.369   0.599  0.6493  1.0429  0.9598
  716THF    H13 9308   3.310   2.237   0.603 -1.1022  2.1571  0.2636
  717THF     O1 9309   2.666   3.399   2.287  0.3146  0.6481  0.7018
  717THF     C2 9310   2.681   3.396   2.145 -0.0666  0.0169  0.1008
  717THF     C3 9311   2.527   3.378   2.304  0.1025 -0.0899 -0.2889
  717THF     H4 9312   2.687   3.293   2.110  0.7831  0.2964 -0.6110
  717THF     H5 9313   2.778   3.436   2.115 -0.0367 -1.8221 -2.5102
  717THF     H6 9314   2.514   3.271   2.286  1.0624 -0.0738 -1.1514
  717THF     H7 9315   2.493   3.403   2.404 -0.6883 -1.7824 -0.0949
  717THF     C8 9316   2.464   3.478   2.212  0.4471 -0.0217 -0.3544
  717THF     C9 9317   2.567   3.470   2.089  0.2729 -1.2411  0.5922
  717THF    H10 9318   2.485   3.576   2.254  1.3490 -0.0821 -0.6376
  717THF    H11 9319   2.358   3.461   2.195 -0.1553 -1.2163  3.6901
  717THF    H12 9320   2.513   3.413   2.014 -0.4355 -2.8619  2.2555
  717THF    H13 9321   2.602   3.567   2.055 -0.4922 -1.4298 -0.8180
  718THF     O1 9322   3.582   3.577   0.901  0.2774 -0.6083  0.3375
  718THF     C2 9323   3.667   3.569   1.011 -0.0889 -0.2002 -0.0031
  718THF     C3 9324   3.516   3.444   0.888 -0.1204  0.2835 -0.2278
  718THF     H4 9325   3.611   3.588   1.103 -2.1847 -1.1861 -0.9976
  718THF     H5 9326   3.748   3.642   1.008 -0.9158  0.9303  2.3665
  718THF     H6 9327   3.438   3.420   0.961 -2.7636 -1.3373 -3.2935
  718THF     H7 9328   3.470   3.445   0.789  0.7775 -0.9152 -0.6781
  718THF     C8 9329   3.637   3.353   0.909  0.1139 -0.1336  0.3031
  718THF     C9 9330   3.723   3.430   1.003  0.1990  0.4975 -0.3156
  718THF    H10 9331   3.677   3.336   0.809 -0.3387  2.0688 -0.3024
  718THF    H11 9332   3.602   3.261   0.956  1.0114 -0.9780 -0.6291
  718THF    H12 9333   3.721   3.384   1.102 -0.9525  1.0302 -0.0825
  718THF    H13 9334   3.825   3.421   0.965  0.1990 -1.5038  0.0288
  719THF     O1 9335   1.305   3.209   2.008  0.0309  0.6217  0.3505
  719THF     C2 9336   1.447   3.219   1.989 -0.0306  0.5012  0.3343
  719THF     C3 9337   1.252   3.239   1.881 -0.1488  0.8070  0.1607
  719THF     H4 9338   1.490   3.170   2.076 -1.7791 -0.8664  0.5044
  719THF     H5 9339   1.485   3.321   1.990 -0.4670  0.7234  3.2103
  719THF     H6 9340   1.144   3.226   1.878  0.0878 -1.1897 -0.9567
  719THF     H7 9341   1.268   3.342   1.847 -0.6411  0.6884 -0.4486
  719THF     C8 9342   1.328   3.148   1.791 -0.5902  0.0742  0.6030
  719THF     C9 9343   1.467   3.144   1.853  0.1509 -0.4641  0.1784
  719THF    H10 9344   1.337   3.191   1.692  2.6880  1.3148  1.3129
  719THF    H11 9345   1.298   3.043   1.790  1.1454 -0.4996  2.6079
  719THF    H12 9346   1.504   3.042   1.858  1.2602 -0.0761  0.1697
  719THF    H13 9347   1.542   3.195   1.793 -0.8715  0.5134 -0.3111
  720THF     O1 9348   1.999   5.293   2.560  1.0446 -0.1912  0.0654
  720THF     C2 9349   1.989   5.158   2.599  0.1209  0.3281 -0.0193
  720THF     C3 9350   1.860   5.329   2.530 -0.1742 -0.2060  0.6644
  720THF     H4 9351   2.083   5.129   2.647  0.8959  2.7966  0.0702
  720THF     H5 9352   1.970   5.087   2.519  1.4602  0.5509 -0.5686
  720THF     H6 9353   1.853   5.437   2.521  2.2280 -0.1686 -2.2595
  720THF     H7 9354   1.834   5.288   2.433  0.0184 -1.5328  1.1464
  720THF     C8 9355   1.779   5.255   2.636 -0.2990 -0.5293 -0.4310
  720THF     C9 9356   1.868   5.147   2.693 -0.5563  0.4011 -0.2549
  720THF    H10 9357   1.690   5.208   2.592 -0.3382 -2.4649  1.5425
  720THF    H11 9358   1.731   5.306   2.719 -0.8305 -0.9074 -0.4944
  720THF    H12 9359   1.909   5.176   2.790 -0.7601  0.3049 -0.1403
  720THF    H13 9360   1.814   5.053   2.704 -1.3563  1.0375  1.6323
  721THF     O1 9361   3.259   1.184   1.717 -0.1484  0.4449  0.2982
  721THF     C2 9362   3.172   1.090   1.647  0.1763  0.5052  0.2661
  721THF     C3 9363   3.359   1.237   1.632 -0.7192 -0.3237  0.3684
  721THF     H4 9364   3.067   1.118   1.659 -0.1597 -0.6242  0.0307
  721THF     H5 9365   3.194   0.990   1.682  1.7720  1.1742  1.2641
  721THF     H6 9366   3.385   1.337   1.668 -2.2054  0.0247  0.5585
  721THF     H7 9367   3.437   1.162   1.627 -2.1587 -2.0023  1.7458
  721THF     C8 9368   3.289   1.246   1.495 -0.4591 -0.7816 -0.2492
  721THF     C9 9369   3.218   1.114   1.501  0.1142 -0.3136  0.1387
  721THF    H10 9370   3.357   1.249   1.410 -1.4096 -2.3642 -1.0976
  721THF    H11 9371   3.222   1.332   1.498 -0.4771 -0.8049  2.2068
  721THF    H12 9372   3.130   1.116   1.438  0.1309 -0.8533  0.1005
  721THF    H13 9373   3.294   1.040   1.477  2.3632  1.2978  1.7930
  722THF     O1 9374   2.595   2.664   3.419 -0.2209 -0.3244 -0.2577
  722THF     C2 9375   2.576   2.541   3.485  0.2203 -0.0303 -0.2055
  722THF     C3 9376   2.494   2.754   3.467 -1.0282  0.2853  0.3998
  722THF     H4 9377   2.644   2.543   3.570  1.2222  0.0151 -0.9905
  722THF     H5 9378   2.610   2.458   3.424 -0.3720 -0.1281 -0.4153
  722THF     H6 9379   2.524   2.790   3.566  2.0902  0.8905 -0.6585
  722THF     H7 9380   2.470   2.832   3.396  0.9989  0.3610 -0.2441
  722THF     C8 9381   2.372   2.664   3.475  0.2622 -0.3062 -0.2457
  722THF     C9 9382   2.427   2.529   3.517  0.1698 -0.0151  0.3827
  722THF    H10 9383   2.320   2.662   3.379 -1.4602  1.5097  0.5912
  722THF    H11 9384   2.309   2.696   3.557 -0.1312  1.6150 -1.2452
  722THF    H12 9385   2.414   2.510   3.624 -0.5499 -2.6780 -0.0916
  722THF    H13 9386   2.377   2.450   3.461 -0.6375 -0.3600  1.5574
  723THF     O1 9387   4.487   5.160   2.690  0.4884 -0.6725  0.1975
  723THF     C2 9388   4.412   5.194   2.570 -0.3045  0.3239 -0.0539
  723THF     C3 9389   4.562   5.044   2.684  0.9687  0.4942 -0.4462
  723THF     H4 9390   4.414   5.300   2.545 -0.6787  0.0303 -1.4217
  723THF     H5 9391   4.304   5.185   2.581 -0.3409 -0.5267 -1.0091
  723THF     H6 9392   4.666   5.065   2.662  1.1927 -0.7058 -0.5959
  723THF     H7 9393   4.551   4.977   2.770 -0.6443  0.5755 -0.5616
  723THF     C8 9394   4.511   4.978   2.555 -0.3028  0.6549  0.2556
  723THF     C9 9395   4.477   5.099   2.470  0.3091 -0.3575 -0.5229
  723THF    H10 9396   4.413   4.935   2.574 -0.4643  1.6667  1.9077
  723THF    H11 9397   4.579   4.903   2.515 -2.8387 -0.7680 -1.6529
  723THF    H12 9398   4.567   5.139   2.424  0.5816 -0.7985 -0.3797
  723THF    H13 9399   4.410   5.083   2.385 -0.0425 -1.1296 -0.1109
  724THF     O1 9400   4.528   1.640   1.988 -0.3639  0.3081 -0.5386
  724THF     C2 9401   4.485   1.697   1.860 -0.5889 -0.4702 -0.6119
  724THF     C3 9402   4.566   1.738   2.077  0.3561 -0.2430  0.2821
  724THF     H4 9403   4.433   1.619   1.806 -0.7474 -0.3389 -0.6480
  724THF     H5 9404   4.577   1.724   1.808  0.3142  0.7267  1.4292
  724THF     H6 9405   4.555   1.711   2.182 -0.1292  0.9478  0.5537
  724THF     H7 9406   4.674   1.754   2.068  0.3457  0.4706  1.2148
  724THF     C8 9407   4.490   1.863   2.031  0.0485  0.0954  0.4919
  724THF     C9 9408   4.402   1.813   1.918 -0.5426  1.0417  0.0369
  724THF    H10 9409   4.566   1.932   1.997 -0.3395  1.2377  1.8488
  724THF    H11 9410   4.437   1.921   2.106 -0.6024 -0.1809  0.2552
  724THF    H12 9411   4.307   1.780   1.962  0.1729 -0.8721  0.2478
  724THF    H13 9412   4.388   1.890   1.843  0.4690  2.4377  1.2426
  725THF     O1 9413   3.290   0.559   1.326 -0.2934  0.6883 -0.2300
  725THF     C2 9414   3.398   0.488   1.388 -0.1529 -0.2758 -0.6039
  725THF     C3 9415   3.343   0.645   1.223  0.2844 -0.1147 -0.3278
  725THF     H4 9416   3.376   0.383   1.408  0.2443  0.0286  1.7752
  725THF     H5 9417   3.426   0.533   1.484  2.0032 -0.0251 -1.3076
  725THF     H6 9418   3.291   0.617   1.132  0.2750 -0.5464 -0.1921
  725THF     H7 9419   3.320   0.749   1.247  1.2694  0.1020 -0.2403
  725THF     C8 9420   3.492   0.623   1.222 -0.1828 -0.1860 -0.4448
  725THF     C9 9421   3.521   0.492   1.293  0.1410 -0.0314  0.6383
  725THF    H10 9422   3.533   0.707   1.280  0.2918  0.2328 -1.3592
  725THF    H11 9423   3.536   0.623   1.122  1.2826 -0.1375  0.1806
  725THF    H12 9424   3.525   0.412   1.219  1.8764  0.4530  0.1606
  725THF    H13 9425   3.618   0.485   1.343 -0.2322 -1.9139  1.2107
  726THF     O1 9426   3.824   3.545   2.944  0.3741 -0.1450  0.4876
  726THF     C2 9427   3.707   3.481   3.002  0.4329  0.5839 -0.6990
  726THF     C3 9428   3.937   3.468   2.986 -0.7439  0.0823  0.1016
  726THF     H4 9429   3.688   3.391   2.944  0.8914 -0.3324  0.5315
  726THF     H5 9430   3.613   3.536   3.003  0.0488 -0.0543 -0.6689
  726THF     H6 9431   3.931   3.366   2.949 -1.9386  0.5017 -0.9223
  726THF     H7 9432   4.038   3.503   2.966  0.8827 -3.9523  0.3866
  726THF     C8 9433   3.911   3.449   3.135  0.1363 -1.0594 -0.2588
  726THF     C9 9434   3.760   3.436   3.146 -0.6270  0.6129 -0.0108
  726THF    H10 9435   3.949   3.532   3.193  0.3141 -1.3954  0.1076
  726THF    H11 9436   3.951   3.362   3.187  0.8955  0.6142  2.0990
  726THF    H12 9437   3.729   3.335   3.170  0.2627  0.6072  1.2051
  726THF    H13 9438   3.721   3.514   3.212  0.3472  0.4664  0.7490
  727THF     O1 9439   3.645   5.141   3.829 -0.0681 -0.5982  0.4020
  727THF     C2 9440   3.664   5.044   3.937 -0.3700 -0.2614 -0.2158
  727THF     C3 9441   3.724   5.099   3.712 -0.2504 -0.3575 -0.0816
  727THF     H4 9442   3.599   4.958   3.925  1.0424 -1.1563 -1.9055
  727THF     H5 9443   3.634   5.087   4.033  0.2944 -2.0074  0.8205
  727THF     H6 9444   3.668   5.025   3.655 -1.1442 -0.1378  0.4989
  727THF     H7 9445   3.758   5.184   3.653  1.0398  1.0250  2.4684
  727THF     C8 9446   3.839   5.017   3.760 -0.6418  0.9737  0.1621
  727THF     C9 9447   3.812   4.996   3.912 -0.8816 -0.1303 -0.1766
  727THF    H10 9448   3.933   5.065   3.733  0.5465 -0.9982  0.5455
  727THF    H11 9449   3.851   4.928   3.698 -0.6014  2.6953 -2.4643
  727THF    H12 9450   3.846   4.895   3.935  1.1512  0.5052 -0.1985
  727THF    H13 9451   3.871   5.063   3.975 -3.1937  0.2978  1.7085
  728THF     O1 9452   3.757   0.441   0.977  0.0409 -0.0163 -0.4055
  728THF     C2 9453   3.831   0.542   0.912 -0.1258  0.3117 -0.0406
  728THF     C3 9454   3.828   0.333   1.035  0.0731  0.0375 -0.4057
  728THF     H4 9455   3.863   0.617   0.984 -0.7114  1.3178 -0.8099
  728THF     H5 9456   3.777   0.588   0.830 -0.4610  0.3646  0.2062
  728THF     H6 9457   3.859   0.359   1.136  0.2076 -0.7529 -0.2329
  728THF     H7 9458   3.768   0.242   1.043  1.0617 -0.5775  0.3686
  728THF     C8 9459   3.952   0.327   0.944  0.0010  0.6743  0.8950
  728THF     C9 9460   3.955   0.458   0.867 -0.4387 -0.9874  0.7149
  728THF    H10 9461   3.955   0.248   0.869  3.4155  1.3034  0.2174
  728THF    H11 9462   4.043   0.318   1.003  0.5918 -3.3566 -0.3414
  728THF    H12 9463   4.039   0.522   0.894  0.2409 -2.5097  2.4555
  728THF    H13 9464   3.946   0.445   0.759  1.2221 -0.3630  0.4780
  729THF     O1 9465   3.529   0.996   4.431 -0.2712  0.2380  0.0450
  729THF     C2 9466   3.478   0.975   4.300 -0.0574 -0.2325  0.5689
  729THF     C3 9467   3.657   1.055   4.418 -0.4449  0.2850 -0.5882
  729THF     H4 9468   3.429   1.067   4.268  1.6892  0.7670  0.6174
  729THF     H5 9469   3.402   0.897   4.295  1.8256 -2.1316  0.3250
  729THF     H6 9470   3.651   1.162   4.438  0.8527  0.1153  1.0099
  729THF     H7 9471   3.724   1.021   4.498 -0.9079  0.6412 -0.0412
  729THF     C8 9472   3.710   1.028   4.282  0.4975  0.2923  0.3667
  729THF     C9 9473   3.604   0.945   4.213  0.6507 -0.4045  0.1731
  729THF    H10 9474   3.803   0.971   4.290 -0.2149 -1.0051 -0.3871
  729THF    H11 9475   3.737   1.118   4.227 -1.5011  0.8189  0.1843
  729THF    H12 9476   3.583   0.959   4.107  1.5157 -1.9128 -0.2359
  729THF    H13 9477   3.628   0.840   4.232 -2.0164 -1.1197 -0.0386
  730THF     O1 9478   4.364   5.235   3.099  0.0082  0.6994 -0.7886
  730THF     C2 9479   4.375   5.324   2.988 -0.2441  0.9216 -0.6586
  730THF     C3 9480   4.228   5.214   3.133 -0.0878  0.0054  0.9047
  730THF     H4 9481   4.447   5.284   2.917 -0.8867  0.1275 -0.8769
  730THF     H5 9482   4.411   5.425   3.008 -0.8122  0.8740  0.7068
  730THF     H6 9483   4.193   5.120   3.176 -1.1377 -0.2632 -0.4632
  730THF     H7 9484   4.206   5.295   3.202 -3.3159 -1.2156  1.4890
  730THF     C8 9485   4.162   5.228   2.998  0.5170  0.4227  0.0336
  730THF     C9 9486   4.238   5.330   2.922 -0.0417 -0.0368  0.6218
  730THF    H10 9487   4.058   5.253   3.017  0.6361  0.1614  1.1033
  730THF    H11 9488   4.181   5.133   2.948 -1.9906  0.7706 -1.7993
  730THF    H12 9489   4.249   5.298   2.818  1.8738 -0.7107  0.9967
  730THF    H13 9490   4.184   5.424   2.930  1.1787  1.0794 -2.5485
  731THF     O1 9491   5.000   4.487   3.186 -0.2986 -0.4034  0.0439
  731THF     C2 9492   4.968   4.522   3.047 -0.1137  0.4660 -0.9623
  731THF     C3 9493   4.883   4.503   3.269  0.6680 -0.0157 -0.5610
  731THF     H4 9494   4.949   4.435   2.983 -1.3276  0.1493 -0.2018
  731THF     H5 9495   5.053   4.583   3.017 -0.4891  1.2975 -0.3609
  731THF     H6 9496   4.829   4.409   3.265 -0.3076  0.4994  0.1186
  731THF     H7 9497   4.899   4.522   3.375  0.3486 -2.3473 -0.0417
  731THF     C8 9498   4.823   4.628   3.213  1.1400  0.3046  0.5343
  731THF     C9 9499   4.840   4.612   3.061 -0.7465 -0.8060  0.2229
  731THF    H10 9500   4.889   4.709   3.244 -0.1996  1.1026  1.4084
  731THF    H11 9501   4.719   4.639   3.243  0.5820  1.1726 -1.5076
  731THF    H12 9502   4.747   4.569   3.023 -1.0550  2.2384 -3.0295
  731THF    H13 9503   4.842   4.711   3.016  0.6454 -1.2336 -0.7393
  732THF     O1 9504   5.430   0.061   2.959  0.0231  0.3199  0.3005
  732THF     C2 9505   5.458   0.187   2.892 -0.1849 -0.7781  0.0140
  732THF     C3 9506   5.401  -0.041   2.861  0.3099 -0.2585 -0.0900
  732THF     H4 9507   5.559   0.210   2.924 -0.4128 -0.6207  0.6362
  732THF     H5 9508   5.387   0.261   2.930 -0.3471 -1.7040  1.6434
  732THF     H6 9509   5.437  -0.140   2.889  1.7503 -0.1567 -1.4676
  732THF     H7 9510   5.295  -0.032   2.838 -0.3398 -1.4261  2.1623
  732THF     C8 9511   5.480   0.002   2.738 -0.1339  0.0254 -0.9105
  732THF     C9 9512   5.460   0.152   2.745  0.0285  0.8353  0.5099
  732THF    H10 9513   5.434  -0.038   2.648 -2.3192  1.4397 -0.4982
  732THF    H11 9514   5.584  -0.030   2.745 -0.0946  0.4716  1.1953
  732THF    H12 9515   5.539   0.198   2.687  0.5171 -0.2886  0.2491
  732THF    H13 9516   5.370   0.181   2.690 -0.7923 -1.3734  0.5663
  733THF     O1 9517   0.970   3.235   3.950 -0.0472 -0.1088  0.2561
  733THF     C2 9518   1.091   3.255   3.872  0.5278  0.1995 -0.2604
  733THF     C3 9519   0.930   3.098   3.928 -0.0288 -0.7970 -0.3413
  733THF     H4 9520   1.177   3.207   3.918  2.3146 -0.0002 -3.4848
  733THF     H5 9521   1.098   3.363   3.859 -1.0559  0.3843  0.1962
  733THF     H6 9522   1.008   3.026   3.952 -0.2257 -1.1226 -0.6647
  733THF     H7 9523   0.839   3.059   3.973 -1.0043 -1.7951 -2.9546
  733THF     C8 9524   0.923   3.114   3.776  0.1468  0.8014  0.0284
  733THF     C9 9525   1.057   3.180   3.743 -0.1005  0.4748 -0.4494
  733THF    H10 9526   0.833   3.169   3.748 -0.8129 -0.5038  0.4777
  733THF    H11 9527   0.906   3.014   3.738 -1.0108  0.6370  0.9210
  733THF    H12 9528   1.122   3.098   3.713 -1.4109 -0.5146 -0.6812
  733THF    H13 9529   1.047   3.251   3.661 -0.7248  1.0000  0.0652
  734THF     O1 9530   1.707   0.679   3.389 -0.3130 -0.9087  0.0101
  734THF     C2 9531   1.696   0.559   3.317 -0.3183  0.3976  0.3030
  734THF     C3 9532   1.842   0.717   3.381 -1.2998 -0.3775 -0.4273
  734THF     H4 9533   1.626   0.583   3.236  0.4115  0.2031 -0.4015
  734THF     H5 9534   1.673   0.480   3.388 -0.6966  1.6215  1.5741
  734THF     H6 9535   1.857   0.825   3.387 -0.4689 -0.5205  0.1610
  734THF     H7 9536   1.886   0.679   3.473 -2.9744  0.3696  0.7303
  734THF     C8 9537   1.904   0.654   3.260 -0.3481  0.1187  0.2392
  734THF     C9 9538   1.834   0.520   3.257 -0.0357  0.3418 -0.5692
  734THF    H10 9539   2.012   0.643   3.271 -0.2768 -3.3989 -2.4311
  734THF    H11 9540   1.881   0.711   3.170 -1.3931 -2.0793 -0.9558
  734THF    H12 9541   1.816   0.492   3.154  0.6325  1.3826 -0.9819
  734THF    H13 9542   1.871   0.439   3.320 -0.7442  0.6538  0.2733
  735THF     O1 9543   0.805   5.410   1.730  0.8992 -0.5480 -0.0788
  735THF     C2 9544   0.902   5.347   1.819 -0.2201  0.0057 -0.0672
  735THF     C3 9545   0.876   5.466   1.618  0.7501 -0.2079  0.5219
  735THF     H4 9546   0.856   5.276   1.887  0.2794 -0.3708 -0.1219
  735THF     H5 9547   0.958   5.427   1.867 -0.1143  0.2126 -0.5221
  735THF     H6 9548   0.806   5.477   1.535  0.1421 -0.1479  1.0291
  735THF     H7 9549   0.917   5.566   1.630  0.9053 -0.1528 -0.4146
  735THF     C8 9550   0.979   5.370   1.585 -0.0611  0.6283  0.5937
  735THF     C9 9551   0.985   5.281   1.709  0.4947  0.2188  0.3660
  735THF    H10 9552   1.075   5.413   1.555  0.6388 -0.8984  0.5858
  735THF    H11 9553   0.958   5.313   1.495  0.0482 -1.2256  1.6880
  735THF    H12 9554   0.950   5.180   1.694 -0.3503  0.1708  2.3669
  735THF    H13 9555   1.088   5.259   1.738  0.3782 -0.6076  0.1656
  736THF     O1 9556   1.005   3.272   4.927 -0.5122  0.3448  0.2331
  736THF     C2 9557   0.955   3.140   4.908 -0.4825 -0.3687  0.6087
  736THF     C3 9558   0.893   3.355   4.960 -0.0833 -0.0741 -0.6078
  736THF     H4 9559   1.039   3.070   4.914 -0.4000 -0.5307 -1.6564
  736THF     H5 9560   0.898   3.132   4.815 -2.7320 -3.9900  2.0780
  736THF     H6 9561   0.927   3.452   4.997 -0.5391 -0.3643  0.6057
  736THF     H7 9562   0.837   3.361   4.866 -0.2514 -0.1376 -0.5106
  736THF     C8 9563   0.824   3.262   5.060 -0.5980  0.1352 -0.5101
  736THF     C9 9564   0.860   3.125   5.018  0.0208  0.1144 -0.9957
  736THF    H10 9565   0.722   3.290   5.084 -0.4952  0.4311 -0.4161
  736THF    H11 9566   0.882   3.270   5.152 -1.6420 -1.6943  0.3740
  736THF    H12 9567   0.916   3.076   5.097 -1.8216  1.6586  1.4386
  736THF    H13 9568   0.770   3.066   4.997 -0.8307  0.9201  0.2654
  737THF     O1 9569   3.941   4.258   3.865  0.2977 -0.4277 -0.4771
  737THF     C2 9570   3.907   4.121   3.851 -0.2846  0.9552  0.2228
  737THF     C3 9571   3.913   4.292   4.004 -0.8580  0.1164 -0.7065
  737THF     H4 9572   4.002   4.071   3.831 -0.5392  1.2075 -1.9238
  737THF     H5 9573   3.851   4.117   3.757 -1.5846  3.0806  0.8182
  737THF     H6 9574   3.989   4.359   4.043 -0.6516 -0.2802 -0.4237
  737THF     H7 9575   3.816   4.343   4.010 -0.4591  0.7526  1.6277
  737THF     C8 9576   3.912   4.156   4.079 -0.1904  0.0068  0.2128
  737THF     C9 9577   3.837   4.072   3.979  0.1224  0.7650  0.2786
  737THF    H10 9578   3.881   4.155   4.183 -0.7352  0.0760  0.0544
  737THF    H11 9579   4.012   4.115   4.090  0.3433  0.7575 -1.4523
  737THF    H12 9580   3.848   3.965   3.990 -0.3905  0.2679 -2.8851
  737THF    H13 9581   3.731   4.098   3.979  0.5800  2.7843  0.4559
  738THF     O1 9582   1.507   3.627   2.124  0.0550 -0.1818  0.5981
  738THF     C2 9583   1.631   3.670   2.187  0.2138 -0.2110  0.1272
  738THF     C3 9584   1.449   3.533   2.206  0.0414  0.0611 -0.4230
  738THF     H4 9585   1.672   3.767   2.160  0.0916 -0.1775  0.0575
  738THF     H5 9586   1.713   3.603   2.159 -0.0987 -1.1336  1.3087
  738THF     H6 9587   1.345   3.527   2.174 -0.1175  1.2429 -0.2053
  738THF     H7 9588   1.505   3.441   2.193  0.3395 -0.5568  3.7016
  738THF     C8 9589   1.488   3.570   2.351 -0.2870  0.0142  0.0998
  738THF     C9 9590   1.601   3.673   2.335 -0.1944 -0.1172  0.1334
  738THF    H10 9591   1.517   3.483   2.411  0.7979 -0.7533 -1.4560
  738THF    H11 9592   1.402   3.612   2.403  0.6135  1.3575  0.5445
  738THF    H12 9593   1.558   3.772   2.352  0.2394  0.0655  0.1834
  738THF    H13 9594   1.693   3.662   2.393  0.8115  0.8761 -1.1842
  739THF     O1 9595   2.793   4.213   0.826 -0.1423 -0.3093  0.4889
  739THF     C2 9596   2.684   4.165   0.751 -0.1452  0.6210 -0.4091
  739THF     C3 9597   2.890   4.262   0.738  0.3836 -0.5934 -0.1723
  739THF     H4 9598   2.592   4.164   0.809 -0.6410  0.8914 -1.1666
  739THF     H5 9599   2.711   4.066   0.714 -0.3831 -1.3282  4.1030
  739THF     H6 9600   2.928   4.356   0.780 -3.2832  0.4785  1.1413
  739THF     H7 9601   2.973   4.193   0.719  1.8982  1.6807 -2.5456
  739THF     C8 9602   2.816   4.292   0.605 -0.4123  0.0904 -0.3762
  739THF     C9 9603   2.675   4.259   0.633  0.4125  0.2738 -0.5459
  739THF    H10 9604   2.857   4.222   0.533 -0.0414  0.1298 -0.2025
  739THF    H11 9605   2.843   4.394   0.577  1.6623  0.0370  1.2311
  739THF    H12 9606   2.610   4.345   0.651  0.3596  0.0235  0.4622
  739THF    H13 9607   2.637   4.194   0.554  0.1693 -0.2689  0.0168
  740THF     O1 9608   2.175   3.387   1.702  0.4962 -0.6736  0.1402
  740THF     C2 9609   2.282   3.470   1.742  0.1039 -0.5792  0.2397
  740THF     C3 9610   2.093   3.357   1.812 -0.0713 -0.0528 -0.8381
  740THF     H4 9611   2.291   3.553   1.672 -1.6512  0.1122  0.7797
  740THF     H5 9612   2.372   3.409   1.748 -0.6790 -1.6921  0.9763
  740THF     H6 9613   2.000   3.413   1.797  1.9579  3.1985 -2.3383
  740THF     H7 9614   2.054   3.255   1.804 -1.1218  0.3316 -0.8468
  740THF     C8 9615   2.170   3.408   1.936  0.2073 -0.1141  0.1419
  740THF     C9 9616   2.251   3.524   1.883 -0.0760  0.3894 -0.3005
  740THF    H10 9617   2.232   3.328   1.976  1.1087  0.1336 -0.7171
  740THF    H11 9618   2.102   3.439   2.015 -0.9538 -1.5263 -0.2573
  740THF    H12 9619   2.190   3.613   1.871  0.0521  0.5130 -0.0401
  740THF    H13 9620   2.328   3.558   1.952  1.0184 -1.1252 -0.7112
  741THF     O1 9621   2.338   2.057   5.067  0.0093 -0.4287 -0.0600
  741THF     C2 9622   2.409   1.941   5.120 -0.1267 -0.1629  0.2142
  741THF     C3 9623   2.235   2.008   4.983 -0.6549 -0.7101 -0.0985
  741THF     H4 9624   2.450   1.955   5.220 -0.1762 -0.5192  0.2862
  741THF     H5 9625   2.492   1.935   5.050 -0.1037  1.8787  0.0184
  741THF     H6 9626   2.155   2.070   4.943  0.0411 -0.1330 -0.6116
  741THF     H7 9627   2.287   1.974   4.894  0.6068  2.2886 -0.6132
  741THF     C8 9628   2.182   1.886   5.056  0.0409  0.7868 -1.2403
  741THF     C9 9629   2.302   1.825   5.124  0.1536 -0.1415 -0.0085
  741THF    H10 9630   2.135   1.822   4.981  0.9270  0.5529 -1.6175
  741THF    H11 9631   2.112   1.916   5.133 -1.9482 -2.6358 -1.5127
  741THF    H12 9632   2.268   1.790   5.221  1.8309  0.7430  0.9594
  741THF    H13 9633   2.344   1.737   5.075 -2.5800 -1.9192  0.6602
  742THF     O1 9634   5.222   2.797   3.736 -0.2917  0.4938 -1.0825
  742THF     C2 9635   5.195   2.779   3.598 -0.0035 -0.0722 -0.0457
  742THF     C3 9636   5.141   2.702   3.813 -0.4817 -0.1267  0.2982
  742THF     H4 9637   5.282   2.808   3.540 -1.0340  0.6862 -1.2522
  742THF     H5 9638   5.108   2.841   3.574 -1.6266 -2.6353 -1.2670
  742THF     H6 9639   5.212   2.667   3.888  0.8842  0.5291 -0.6543
  742THF     H7 9640   5.051   2.746   3.855  0.2327  2.7567 -0.9604
  742THF     C8 9641   5.099   2.590   3.711 -0.4425 -0.6636 -0.2238
  742THF     C9 9642   5.175   2.628   3.582 -0.7347  0.1705 -0.4228
  742THF    H10 9643   4.994   2.607   3.685 -0.4407 -0.8803 -0.3667
  742THF    H11 9644   5.120   2.489   3.746 -1.3656  0.2018  3.3048
  742THF    H12 9645   5.272   2.578   3.584 -1.2763 -0.8821  0.6481
  742THF    H13 9646   5.129   2.594   3.489 -0.7151  1.1154 -0.7923
  743THF     O1 9647   4.121   0.461   0.330 -0.0913 -0.3804 -0.5468
  743THF     C2 9648   4.042   0.562   0.390  0.1144  0.3064  0.1379
  743THF     C3 9649   4.118   0.345   0.407 -0.2120  0.6924 -0.3862
  743THF     H4 9650   3.999   0.637   0.324 -2.2958 -0.7891  0.3296
  743THF     H5 9651   4.094   0.617   0.469 -1.6723 -0.8830  2.2676
  743THF     H6 9652   4.147   0.262   0.344  0.3765 -1.0576  2.0347
  743THF     H7 9653   4.197   0.353   0.482 -2.9888  1.5045  2.7414
  743THF     C8 9654   3.977   0.341   0.467 -0.3770 -0.1940  0.0912
  743THF     C9 9655   3.929   0.484   0.457 -0.4807  0.1235  0.3565
  743THF    H10 9656   3.986   0.304   0.569 -0.0883  0.1346  0.1856
  743THF    H11 9657   3.918   0.275   0.404  1.1624 -2.6725  1.0608
  743THF    H12 9658   3.841   0.494   0.393 -0.2619  0.6416  0.1317
  743THF    H13 9659   3.916   0.514   0.561  1.4073 -0.0061  0.6716
  744THF     O1 9660   2.677   4.954   1.820  0.1375  0.2128  0.9229
  744THF     C2 9661   2.595   4.971   1.699  0.0841 -0.5727  0.5657
  744THF     C3 9662   2.800   4.889   1.780  0.0094 -0.1955  0.3456
  744THF     H4 9663   2.539   5.059   1.730  0.7392  0.1058 -0.1162
  744THF     H5 9664   2.539   4.882   1.673  1.8924 -1.7629  0.5457
  744THF     H6 9665   2.869   4.915   1.861  1.5191 -1.3521 -0.5071
  744THF     H7 9666   2.790   4.780   1.779  3.0542 -0.6404  2.4204
  744THF     C8 9667   2.829   4.953   1.649  0.0187 -0.3506  0.1386
  744THF     C9 9668   2.698   5.007   1.595 -0.8117  0.5613  0.1722
  744THF    H10 9669   2.856   4.872   1.582 -1.1055  0.6899 -1.6511
  744THF    H11 9670   2.904   5.032   1.644  1.5476 -1.4424  3.0994
  744THF    H12 9671   2.704   5.114   1.577  0.3422  0.2007 -1.7770
  744THF    H13 9672   2.671   4.954   1.504  0.2241 -0.1007  0.2341
  745THF     O1 9673   2.676   2.100   2.038 -0.1188 -0.1122  0.0163
  745THF     C2 9674   2.699   2.210   1.954 -0.0705  0.3082 -0.8317
  745THF     C3 9675   2.571   2.130   2.124 -0.1783  0.4085 -1.0385
  745THF     H4 9676   2.636   2.195   1.866  0.4385 -1.3182 -0.9670
  745THF     H5 9677   2.799   2.221   1.911  0.4592  1.5996  0.6399
  745THF     H6 9678   2.479   2.094   2.077 -1.5406  1.0924  0.9442
  745THF     H7 9679   2.592   2.071   2.214 -1.4297  0.4232 -0.7158
  745THF     C8 9680   2.566   2.275   2.138 -0.5288 -0.8538  0.3712
  745THF     C9 9681   2.657   2.330   2.030 -0.7053 -0.6210  0.3278
  745THF    H10 9682   2.603   2.309   2.235  1.3835 -0.5453 -0.4193
  745THF    H11 9683   2.468   2.323   2.132  0.3085  0.9136  0.1237
  745THF    H12 9684   2.613   2.410   1.970 -3.4817 -2.5533 -0.4274
  745THF    H13 9685   2.749   2.369   2.073 -1.9705 -0.4358  3.0276
  746THF     O1 9686   2.394   2.959   4.568  0.0764  0.4975  0.1495
  746THF     C2 9687   2.463   3.069   4.615  1.0126  0.3548 -0.1149
  746THF     C3 9688   2.452   2.919   4.443  0.5099  0.2497 -0.1294
  746THF     H4 9689   2.568   3.053   4.639  0.0562 -2.1899  3.0841
  746THF     H5 9690   2.412   3.099   4.706 -1.9153  0.6476 -1.7077
  746THF     H6 9691   2.557   2.893   4.456  0.1573 -1.1869 -0.0715
  746THF     H7 9692   2.385   2.848   4.395 -0.9820  1.5317 -0.0119
  746THF     C8 9693   2.450   3.054   4.374  0.0422  0.0926 -0.2603
  746THF     C9 9694   2.429   3.156   4.488  0.3053  0.5479 -0.3921
  746THF    H10 9695   2.370   3.064   4.301  0.8774  3.3540 -0.8871
  746THF    H11 9696   2.541   3.070   4.317  0.2455 -1.6739 -0.5025
  746THF    H12 9697   2.485   3.249   4.483  0.4879  0.3693 -2.0252
  746THF    H13 9698   2.322   3.173   4.490  0.6527  3.0743  1.7251
  747THF     O1 9699   3.811   0.999   3.890  0.3011  0.0795  0.5907
  747THF     C2 9700   3.788   0.937   3.765  0.8178  0.3056 -0.3013
  747THF     C3 9701   3.936   0.948   3.941  0.3555 -0.6298 -0.8152
  747THF     H4 9702   3.822   1.004   3.686  0.1343 -2.2416 -2.9378
  747THF     H5 9703   3.682   0.918   3.745 -0.3246  1.7371  3.5964
  747THF     H6 9704   4.003   1.023   3.986 -0.7536 -0.9049  1.4619
  747THF     H7 9705   3.905   0.898   4.033  1.4638 -1.7591 -1.0251
  747THF     C8 9706   3.991   0.851   3.838 -0.3407 -0.8341 -0.1326
  747THF     C9 9707   3.869   0.808   3.765 -0.1760 -0.0065 -0.0587
  747THF    H10 9708   4.049   0.768   3.878 -1.7721 -2.5757 -1.5462
  747THF    H11 9709   4.051   0.908   3.767  0.3260  1.2135  1.9407
  747THF    H12 9710   3.899   0.790   3.662  0.5007  1.2400 -0.1087
  747THF    H13 9711   3.816   0.726   3.813  0.1384 -2.1989 -3.1658
  748THF     O1 9712   2.059   3.000   4.102  0.1098 -0.7533 -0.1002
  748THF     C2 9713   2.138   3.108   4.060 -0.4129 -0.4887  0.4564
  748THF     C3 9714   2.131   2.872   4.111  0.2905  0.5968  0.5219
  748THF     H4 9715   2.180   3.153   4.150 -1.4652  0.9437  0.2759
  748THF     H5 9716   2.077   3.181   4.007  2.2476  0.6411 -1.2284
  748THF     H6 9717   2.140   2.851   4.218  1.2983  0.6761  0.4629
  748THF     H7 9718   2.076   2.791   4.063  0.1230  1.1137 -0.1747
  748THF     C8 9719   2.269   2.910   4.053  0.0185  0.6190 -0.5328
  748THF     C9 9720   2.243   3.036   3.977  0.0441 -0.2207  0.4370
  748THF    H10 9721   2.304   2.838   3.979 -1.0190  0.7312 -1.1639
  748THF    H11 9722   2.346   2.925   4.128  0.4440 -0.8875 -0.6374
  748THF    H12 9723   2.333   3.095   3.963 -0.8260  0.8130 -1.0969
  748THF    H13 9724   2.209   3.020   3.874  2.5462 -0.1603 -0.4703
  749THF     O1 9725   2.433   2.186   2.675  0.3459  0.4075 -0.3675
  749THF     C2 9726   2.545   2.226   2.600  0.0841 -0.1507  0.3268
  749THF     C3 9727   2.383   2.061   2.619  0.2506 -0.0172 -1.0748
  749THF     H4 9728   2.613   2.287   2.659  0.0183 -1.4220  1.7653
  749THF     H5 9729   2.514   2.274   2.506  4.3352  0.5114 -0.9348
  749THF     H6 9730   2.320   2.017   2.697 -2.5284  1.1533 -2.5034
  749THF     H7 9731   2.326   2.064   2.527 -1.1974  1.0438 -0.1903
  749THF     C8 9732   2.505   1.989   2.603  0.5152 -0.0774 -0.0495
  749THF     C9 9733   2.612   2.092   2.558 -0.1601  0.1305 -0.2504
  749THF    H10 9734   2.488   1.900   2.543  1.1050 -0.8200  0.8498
  749THF    H11 9735   2.535   1.948   2.700  3.0571 -0.1065 -0.7738
  749THF    H12 9736   2.714   2.068   2.589 -0.9609 -3.2771  0.1503
  749THF    H13 9737   2.609   2.078   2.450  0.7901 -3.3447  0.0490
  750THF     O1 9738   4.929   2.454   4.587  0.1239  0.5062 -0.2061
  750THF     C2 9739   5.007   2.573   4.559  0.5528 -0.4347  0.0601
  750THF     C3 9740   5.005   2.371   4.677  0.5232 -1.4038  0.6146
  750THF     H4 9741   4.966   2.654   4.620  0.7197  0.0430 -0.4449
  750THF     H5 9742   4.993   2.613   4.458 -2.3033 -0.7517  0.2613
  750THF     H6 9743   4.941   2.326   4.753  0.0014  0.4505  1.3325
  750THF     H7 9744   5.051   2.289   4.623  1.3071 -0.0954 -0.7601
  750THF     C8 9745   5.122   2.459   4.724  0.7009  0.5555 -0.1642
  750THF     C9 9746   5.148   2.548   4.614  0.1656  0.3215  0.6647
  750THF    H10 9747   5.204   2.392   4.749 -1.1073 -1.5922  0.3257
  750THF    H11 9748   5.101   2.517   4.814  0.6083 -0.9492  0.8228
  750THF    H12 9749   5.216   2.629   4.638  0.1431  0.7385 -0.6010
  750THF    H13 9750   5.196   2.493   4.533  1.5886  2.5702 -0.1114
  751THF     O1 9751   1.773   1.595   1.349  0.3503 -0.0826  0.1134
  751THF     C2 9752   1.731   1.687   1.455 -0.0616  0.1420  0.5759
  751THF     C3 9753   1.668   1.575   1.254 -1.3499 -0.2035  0.2664
  751THF     H4 9754   1.821   1.747   1.469  0.2452  0.1441 -1.1471
  751THF     H5 9755   1.706   1.634   1.547 -1.5471  0.5362  0.4162
  751THF     H6 9756   1.716   1.538   1.163  0.8659  1.0671  0.8478
  751THF     H7 9757   1.599   1.496   1.286 -0.4459 -0.4618  1.6674
  751THF     C8 9758   1.599   1.714   1.247  0.0616  0.6330  0.1121
  751THF     C9 9759   1.616   1.760   1.390  0.3291 -0.5611 -0.2444
  751THF    H10 9760   1.494   1.721   1.218  0.3847 -0.1027 -1.3450
  751THF    H11 9761   1.648   1.779   1.175 -2.4373  0.0891 -2.2596
  751THF    H12 9762   1.630   1.868   1.379 -0.1371 -0.5771 -1.0606
  751THF    H13 9763   1.533   1.750   1.461  0.3365 -0.8957 -0.2807
  752THF     O1 9764   1.269   1.451   4.660 -0.2022  0.1055 -0.0464
  752THF     C2 9765   1.381   1.479   4.588 -0.5060  0.3453 -0.0841
  752THF     C3 9766   1.215   1.575   4.701  0.2046  0.1663 -0.5627
  752THF     H4 9767   1.362   1.437   4.490  0.4174  2.0336 -1.0283
  752THF     H5 9768   1.471   1.437   4.635  0.4070  1.2333 -0.9979
  752THF     H6 9769   1.109   1.565   4.724 -0.3621  1.8540 -2.1412
  752THF     H7 9770   1.272   1.606   4.789 -0.6123 -0.0498  0.0531
  752THF     C8 9771   1.251   1.681   4.606 -0.1499  0.0334 -0.1425
  752THF     C9 9772   1.389   1.630   4.571 -0.0447 -0.3344 -0.0787
  752THF    H10 9773   1.242   1.780   4.653 -0.0718 -0.5607  1.1864
  752THF    H11 9774   1.172   1.686   4.532 -0.5989  1.8799  0.4071
  752THF    H12 9775   1.417   1.651   4.468  0.5855 -2.4697 -0.3933
  752THF    H13 9776   1.457   1.678   4.641 -1.4469 -0.3585  1.3427
  753THF     O1 9777   4.932   2.557   0.520  0.1915 -0.1504  0.1575
  753THF     C2 9778   4.811   2.620   0.477  0.2908 -0.2223  0.3124
  753THF     C3 9779   5.043   2.649   0.523 -0.0613  0.6938 -0.6497
  753THF     H4 9780   4.773   2.678   0.561 -3.0687 -1.3090 -0.3134
  753THF     H5 9781   4.734   2.544   0.460  0.0653  0.1998 -0.5966
  753THF     H6 9782   5.055   2.713   0.610 -0.2613  0.2169 -0.2619
  753THF     H7 9783   5.130   2.585   0.510 -0.7878 -0.2009 -1.2574
  753THF     C8 9784   5.020   2.744   0.412 -0.5611  0.2238  0.3479
  753THF     C9 9785   4.876   2.697   0.355  0.1840  0.0395 -0.6990
  753THF    H10 9786   5.092   2.745   0.330 -2.1528  0.8723 -1.1322
  753THF    H11 9787   5.005   2.846   0.447 -0.5581 -0.0801  1.2642
  753THF    H12 9788   4.818   2.787   0.334 -0.5354  0.3112  2.0081
  753THF    H13 9789   4.889   2.636   0.265  0.3939 -0.5847 -0.2565
  754THF     O1 9790   0.656   2.582   3.750 -0.1357 -0.1911 -0.0652
  754THF     C2 9791   0.524   2.603   3.779  0.7292 -0.1923 -0.2848
  754THF     C3 9792   0.733   2.684   3.811 -0.4305 -0.9567 -0.0925
  754THF     H4 9793   0.500   2.562   3.877 -0.0963  1.2461  0.1533
  754THF     H5 9794   0.465   2.546   3.709  0.8462 -1.7942  0.8731
  754THF     H6 9795   0.757   2.662   3.915 -2.7252  1.1895  1.0071
  754THF     H7 9796   0.827   2.694   3.756 -0.5085  0.2828 -0.0257
  754THF     C8 9797   0.644   2.807   3.805 -0.3119 -0.3249  0.1484
  754THF     C9 9798   0.519   2.754   3.755 -0.1637 -0.0869 -0.0086
  754THF    H10 9799   0.682   2.887   3.741 -0.2936  0.2254  0.8461
  754THF    H11 9800   0.650   2.860   3.900 -0.3107 -1.0907  0.5806
  754THF    H12 9801   0.439   2.795   3.818 -0.7508  0.7085 -1.2464
  754THF    H13 9802   0.500   2.783   3.652  0.5141  0.9540  0.1444
  755THF     O1 9803   1.246   4.793   0.952 -0.8426  0.3265  0.4513
  755THF     C2 9804   1.313   4.894   1.022  0.4162  0.8271  0.0763
  755THF     C3 9805   1.250   4.833   0.814 -0.2442 -0.3260  0.4648
  755THF     H4 9806   1.329   4.855   1.122  0.0063  0.9858  0.2068
  755THF     H5 9807   1.235   4.971   1.027 -0.1346  0.4738 -1.9993
  755THF     H6 9808   1.264   4.742   0.754  1.1533 -0.9226  1.6313
  755THF     H7 9809   1.154   4.876   0.785  0.2136  0.1362 -0.4161
  755THF     C8 9810   1.354   4.935   0.787 -0.1645  0.2320 -0.6769
  755THF     C9 9811   1.421   4.933   0.924  0.3773  0.1962  0.0661
  755THF    H10 9812   1.321   5.033   0.753  1.7423  0.4133 -2.2184
  755THF    H11 9813   1.430   4.904   0.714  1.0482 -2.5978  1.5882
  755THF    H12 9814   1.495   4.853   0.930 -0.5780 -0.8914 -1.7462
  755THF    H13 9815   1.471   5.028   0.946  0.7749  0.5285 -2.0145
  756THF     O1 9816   3.777   1.259   5.066 -0.2812 -0.2213 -1.0479
  756THF     C2 9817   3.812   1.389   5.104 -0.0880 -0.1066 -0.0833
  756THF     C3 9818   3.898   1.178   5.080  0.1932 -0.0417 -0.0380
  756THF     H4 9819   3.727   1.449   5.134  0.3470  0.0072  0.9734
  756THF     H5 9820   3.869   1.444   5.029  2.4199 -0.5093  1.3862
  756THF     H6 9821   3.881   1.070   5.086 -1.0317  0.1613  0.3353
  756THF     H7 9822   3.953   1.200   4.989 -0.6175  1.3245 -0.2136
  756THF     C8 9823   3.969   1.226   5.207  0.7445 -0.2687 -0.5637
  756THF     C9 9824   3.904   1.365   5.230  0.9154  0.8844  0.6420
  756THF    H10 9825   4.074   1.231   5.179  0.5212 -2.0489 -1.9070
  756THF    H11 9826   3.957   1.157   5.291  0.6514 -1.0467 -1.2041
  756THF    H12 9827   3.835   1.368   5.315 -1.1576  3.4928 -0.9669
  756THF    H13 9828   3.984   1.438   5.242  0.0398  1.8526  0.7242
  757THF     O1 9829   3.966   1.479   3.778  0.2975  0.1305  0.8293
  757THF     C2 9830   3.938   1.473   3.632 -1.0118 -0.3003 -0.6318
  757THF     C3 9831   4.075   1.402   3.801 -0.0077  0.5334  0.1986
  757THF     H4 9832   4.012   1.529   3.575  0.6726 -1.3997  0.3899
  757THF     H5 9833   3.844   1.515   3.597 -0.8437 -0.3036 -1.0885
  757THF     H6 9834   4.174   1.448   3.802  1.4105 -2.3011 -0.0155
  757THF     H7 9835   4.065   1.368   3.904  2.9425 -0.5791  0.2150
  757THF     C8 9836   4.073   1.286   3.706  0.8211  0.0589 -0.0490
  757THF     C9 9837   3.955   1.324   3.615 -0.0751  0.0624 -0.2022
  757THF    H10 9838   4.049   1.195   3.759  0.5539 -0.9421 -1.8040
  757THF    H11 9839   4.168   1.268   3.657  0.1892  0.3133 -1.4330
  757THF    H12 9840   3.975   1.290   3.513 -1.4177 -0.0885 -0.4371
  757THF    H13 9841   3.874   1.269   3.662  0.7152 -0.8336  0.1299
  758THF     O1 9842   4.335   0.062   4.984 -0.7688 -0.4449 -0.3493
  758THF     C2 9843   4.267   0.155   5.059  0.5456 -0.0995 -0.1293
  758THF     C3 9844   4.448   0.018   5.052  0.4701 -0.7821  0.0656
  758THF     H4 9845   4.189   0.103   5.114  1.2762 -1.1182 -0.0206
  758THF     H5 9846   4.220   0.232   4.999  1.1262  1.0267  0.8030
  758THF     H6 9847   4.455  -0.090   5.051  2.2509 -0.6897  0.0873
  758THF     H7 9848   4.524   0.055   4.984  1.0882 -1.1801  0.5264
  758THF     C8 9849   4.460   0.081   5.184 -0.3798 -0.1285 -0.8125
  758THF     C9 9850   4.377   0.205   5.154  0.1859  0.1210  0.1308
  758THF    H10 9851   4.565   0.101   5.207 -0.9480  1.5711  0.5784
  758THF    H11 9852   4.408   0.031   5.265 -0.7946  0.4286 -0.7299
  758THF    H12 9853   4.354   0.250   5.251 -0.7804 -2.9725  1.4729
  758THF    H13 9854   4.434   0.275   5.095 -0.4339 -0.8468 -1.6820
  759THF     O1 9855   1.944   3.464   4.643  0.1982  0.4232  0.0912
  759THF     C2 9856   1.927   3.554   4.753  1.1426  0.2063 -0.1206
  759THF     C3 9857   1.817   3.392   4.630 -0.2336  0.2684 -1.0155
  759THF     H4 9858   2.009   3.625   4.756  0.6713  0.7592 -0.2295
  759THF     H5 9859   1.929   3.498   4.847 -0.5423 -0.0449 -0.2064
  759THF     H6 9860   1.810   3.327   4.543 -1.6812 -1.8257  0.5687
  759THF     H7 9861   1.831   3.326   4.716  0.5562 -1.2518 -2.2509
  759THF     C8 9862   1.722   3.506   4.633 -0.0772 -0.6045 -0.8391
  759THF     C9 9863   1.789   3.610   4.727 -0.3134  0.2424 -0.0519
  759THF    H10 9864   1.625   3.480   4.675  0.5553 -0.0256  1.0734
  759THF    H11 9865   1.709   3.561   4.540  1.2235  0.3289 -0.5019
  759THF    H12 9866   1.801   3.704   4.673  0.2527 -0.6395 -1.5233
  759THF    H13 9867   1.727   3.621   4.816 -0.7260  0.7692 -0.3961
  760THF     O1 9868   4.117   4.833   5.195  0.1287  0.1053  0.1931
  760THF     C2 9869   4.073   4.814   5.058 -0.7666 -0.6816 -0.2150
  760THF     C3 9870   4.183   4.717   5.225  0.4342  0.2600 -0.3294
  760THF     H4 9871   4.041   4.910   5.017  2.5259 -0.4271 -2.5116
  760THF     H5 9872   3.984   4.751   5.052 -3.6192  2.9698 -0.3227
  760THF     H6 9873   4.263   4.749   5.293 -1.6021  1.3488  1.7198
  760THF     H7 9874   4.129   4.635   5.272 -0.1195 -0.4872 -2.2035
  760THF     C8 9875   4.232   4.656   5.093  0.3904  0.3126 -0.0932
  760THF     C9 9876   4.191   4.751   4.992 -0.1782  0.2981  0.2996
  760THF    H10 9877   4.176   4.569   5.060 -1.1316  1.4179 -0.5568
  760THF    H11 9878   4.339   4.639   5.081  0.3039  1.1996 -3.3257
  760THF    H12 9879   4.264   4.830   4.977  0.3329 -0.2527 -0.1257
  760THF    H13 9880   4.159   4.713   4.895  2.4492  2.0259 -1.3714
  761THF     O1 9881   4.794   3.124   2.967  0.0542  0.3845 -0.9524
  761THF     C2 9882   4.668   3.129   2.898  0.2774 -0.4733  0.5919
  761THF     C3 9883   4.897   3.068   2.886 -0.9290 -0.3356 -0.1426
  761THF     H4 9884   4.627   3.230   2.901  0.9369 -0.1630 -0.2641
  761THF     H5 9885   4.587   3.063   2.931 -0.4494 -0.7672 -1.5929
  761THF     H6 9886   4.966   3.144   2.850  1.2734 -1.0633  2.2513
  761THF     H7 9887   4.954   2.999   2.948 -0.3834  0.9798  0.8609
  761THF     C8 9888   4.824   2.995   2.768  0.3431 -0.6648 -0.1854
  761THF     C9 9889   4.701   3.084   2.757  0.6352  0.5535 -0.1561
  761THF    H10 9890   4.786   2.895   2.791  0.7902 -1.1546 -1.4778
  761THF    H11 9891   4.885   2.998   2.678  0.2815  3.0159 -0.2679
  761THF    H12 9892   4.730   3.162   2.687 -1.3067 -1.0793 -2.9752
  761THF    H13 9893   4.624   3.031   2.700  0.5251  0.9154 -0.3450
  762THF     O1 9894   3.088   3.424   3.626 -0.2847 -0.3651  0.2978
  762THF     C2 9895   3.134   3.348   3.734  0.5060 -0.5339 -0.5160
  762THF     C3 9896   3.166   3.381   3.513 -0.4864  0.0613 -0.6149
  762THF     H4 9897   3.094   3.247   3.735 -2.3830  0.5022  1.6022
  762THF     H5 9898   3.091   3.398   3.821 -4.1203 -2.0421 -1.6657
  762THF     H6 9899   3.123   3.290   3.472  1.1767 -1.0848  0.1100
  762THF     H7 9900   3.170   3.456   3.434  2.7490  1.8732  1.0489
  762THF     C8 9901   3.304   3.360   3.571 -0.1803 -0.7445 -0.2089
  762THF     C9 9902   3.285   3.359   3.717 -0.3344 -1.0305  0.2483
  762THF    H10 9903   3.378   3.434   3.544 -1.7137  0.5796 -0.9350
  762THF    H11 9904   3.337   3.262   3.537 -0.3688 -1.0331  0.4057
  762THF    H12 9905   3.339   3.274   3.758  0.1652  0.3125  2.5423
  762THF    H13 9906   3.326   3.454   3.752 -0.9733 -0.4556 -0.4967
  763THF     O1 9907   0.900   1.005   3.032 -0.2101  0.0532  0.3863
  763THF     C2 9908   0.895   1.063   3.164  0.9570 -0.1777  0.4270
  763THF     C3 9909   1.039   1.020   3.003 -0.1227  0.2361  0.4292
  763THF     H4 9910   0.931   0.994   3.241 -1.1027 -1.5584  0.2549
  763THF     H5 9911   0.788   1.079   3.183  1.0232 -0.4176  1.0441
  763THF     H6 9912   1.095   0.956   3.072 -0.6299  0.7283  1.3099
  763THF     H7 9913   1.067   0.988   2.902  2.0028 -1.2152  1.3901
  763THF     C8 9914   1.051   1.170   3.031  0.5161 -0.3818  0.3538
  763THF     C9 9915   0.964   1.203   3.149 -0.2378  0.5744  0.0864
  763THF    H10 9916   1.014   1.214   2.938 -0.5856 -2.9194 -0.4896
  763THF    H11 9917   1.152   1.210   3.037  0.0147  1.0104 -0.1360
  763THF    H12 9918   1.018   1.242   3.235 -0.2968 -0.2262  0.4978
  763THF    H13 9919   0.894   1.277   3.109 -1.3559 -1.0213 -1.0315
  764THF     O1 9920   3.297   0.121   4.741  0.6016  0.0791  0.0565
  764THF     C2 9921   3.396   0.126   4.649  0.6202 -0.6825 -0.1071
  764THF     C3 9922   3.205   0.231   4.709 -0.0205  0.3237 -0.0374
  764THF     H4 9923   3.451   0.033   4.662 -0.4734 -1.1894  1.2536
  764THF     H5 9924   3.467   0.206   4.667 -1.9935  1.3726  2.0226
  764THF     H6 9925   3.103   0.202   4.735  0.3529  0.4620  1.6478
  764THF     H7 9926   3.222   0.330   4.750 -1.5380 -0.5603  3.0250
  764THF     C8 9927   3.211   0.250   4.551 -0.5636  0.1980 -0.6886
  764THF     C9 9928   3.327   0.160   4.514  0.0316 -0.1813 -0.0319
  764THF    H10 9929   3.222   0.355   4.524 -0.9849  0.6849  0.8763
  764THF    H11 9930   3.121   0.214   4.501  0.2522 -1.2974 -1.1159
  764THF    H12 9931   3.294   0.064   4.474  1.9799 -0.4389 -1.1598
  764THF    H13 9932   3.395   0.207   4.442  0.0013 -1.7153 -1.1160
  765THF     O1 9933   3.946   2.882   0.074  0.3984 -0.0930  0.2600
  765THF     C2 9934   3.827   2.889  -0.005  0.1225  0.2599  0.8522
  765THF     C3 9935   4.040   2.817  -0.015 -0.7451  0.7398 -0.0861
  765THF     H4 9936   3.835   2.969  -0.078 -2.2318  1.1825  1.5257
  765THF     H5 9937   3.738   2.916   0.051 -0.3989  0.1920  0.0683
  765THF     H6 9938   4.060   2.878  -0.103  3.5783  0.0802  0.1962
  765THF     H7 9939   4.132   2.795   0.040 -0.2962  2.5716 -0.0140
  765THF     C8 9940   3.956   2.694  -0.057  0.1825 -0.1286  0.1533
  765THF     C9 9941   3.816   2.745  -0.055 -0.2915  0.4201  0.1623
  765THF    H10 9942   3.967   2.623   0.025  1.2549 -0.2098 -0.0513
  765THF    H11 9943   3.980   2.648  -0.152 -1.5501 -1.7832  0.4398
  765THF    H12 9944   3.781   2.744  -0.158  1.6737  0.6406 -0.5479
  765THF    H13 9945   3.755   2.688   0.015 -0.9148 -2.1159 -2.2432
  766THF     O1 9946   3.843   1.315   2.800  0.4019  0.5577 -0.4735
  766THF     C2 9947   3.900   1.309   2.669 -0.2366 -0.0198 -0.1937
  766THF     C3 9948   3.910   1.212   2.874 -0.0259  0.0973  0.5896
  766THF     H4 9949   3.993   1.365   2.674 -0.9355  1.0305  1.4568
  766THF     H5 9950   3.841   1.363   2.595  0.1580 -2.8392 -2.7755
  766THF     H6 9951   4.015   1.234   2.895  0.1677  0.4156 -0.6651
  766THF     H7 9952   3.852   1.200   2.965 -0.4867 -1.9067  0.0697
  766THF     C8 9953   3.898   1.103   2.774 -0.1006  0.5898  0.3767
  766THF     C9 9954   3.910   1.163   2.637 -0.4894 -0.9163  0.3934
  766THF    H10 9955   3.806   1.048   2.795  0.6871 -1.4725 -1.1720
  766THF    H11 9956   3.973   1.024   2.784 -0.7583 -0.0369  0.5337
  766THF    H12 9957   4.011   1.158   2.596 -0.4203  1.6008  0.0576
  766THF    H13 9958   3.831   1.126   2.572 -1.6961 -1.1986  1.9587
  767THF     O1 9959   1.472   3.988   1.837  0.1782 -0.1437 -0.1871
  767THF     C2 9960   1.388   3.968   1.958  0.7039  0.0675  0.1617
  767THF     C3 9961   1.416   4.109   1.792  0.2479  0.2429 -0.0010
  767THF     H4 9962   1.450   3.909   2.025 -0.9480 -2.5032 -0.3910
  767THF     H5 9963   1.298   3.911   1.932  2.0323 -1.1257 -2.1013
  767THF     H6 9964   1.482   4.162   1.724 -1.9348  1.8005 -1.0075
  767THF     H7 9965   1.322   4.086   1.742  0.5961  0.2851 -0.6880
  767THF     C8 9966   1.396   4.198   1.909 -0.4635  0.2165  0.1838
  767THF     C9 9967   1.379   4.108   2.026 -0.5901  0.7683  0.3403
  767THF    H10 9968   1.313   4.268   1.900 -1.8202 -1.4204 -0.7411
  767THF    H11 9969   1.492   4.247   1.926 -1.0856  1.3183  0.6566
  767THF    H12 9970   1.462   4.118   2.095 -1.0616  4.7559  0.5952
  767THF    H13 9971   1.285   4.129   2.076 -0.7077  1.4132 -0.1233
  768THF     O1 9972   1.665   2.047   0.538  0.5795 -0.2088  0.5571
  768THF     C2 9973   1.780   2.124   0.528  0.3382 -0.1681  0.3868
  768THF     C3 9974   1.660   1.950   0.436  0.6049 -0.0508  0.5465
  768THF     H4 9975   1.862   2.065   0.567 -0.0064 -0.8924  0.0374
  768THF     H5 9976   1.771   2.223   0.573 -1.9812 -0.4541  0.7174
  768THF     H6 9977   1.719   1.864   0.468  0.4442  0.4717  2.3744
  768THF     H7 9978   1.559   1.917   0.412  0.7577  0.6378 -1.2103
  768THF     C8 9979   1.734   2.021   0.319  0.3844 -0.7902  0.0063
  768THF     C9 9980   1.813   2.133   0.378 -0.7972  0.1531 -0.5198
  768THF    H10 9981   1.678   2.042   0.228  2.2739 -2.5819 -1.6431
  768THF    H11 9982   1.807   1.951   0.279  0.5582 -0.7702  0.2875
  768THF    H12 9983   1.919   2.117   0.359 -0.9164 -1.5990  0.1504
  768THF    H13 9984   1.775   2.227   0.337  0.1782  0.0452 -1.7494
  769THF     O1 9985   3.505   4.639   2.466 -0.5669  0.2131 -0.4179
  769THF     C2 9986   3.534   4.699   2.592  0.5128  0.1297 -0.3600
  769THF     C3 9987   3.534   4.502   2.474  0.1513  0.6208  0.1790
  769THF     H4 9988   3.464   4.783   2.595  0.6864  0.3057 -1.1615
  769THF     H5 9989   3.635   4.735   2.608  1.4583 -2.9220  1.2493
  769THF     H6 9990   3.500   4.452   2.383  0.7472 -1.9508  1.2849
  769THF     H7 9991   3.642   4.487   2.473 -0.1761 -2.0518 -0.8419
  769THF     C8 9992   3.477   4.468   2.614  0.3463 -0.8761  0.4381
  769THF     C9 9993   3.509   4.584   2.703 -0.5316  0.1926  0.0635
  769THF    H10 9994   3.512   4.370   2.646  1.8230 -0.3933  0.3446
  769THF    H11 9995   3.371   4.442   2.613  0.2541 -0.4996 -0.0305
  769THF    H12 9996   3.423   4.609   2.765 -0.2786 -1.6175  1.2160
  769THF    H13 9997   3.594   4.558   2.766 -0.8786  0.7129  0.7574
  770THF     O1 9998   2.064   3.971   1.102 -0.1067 -0.0982 -0.3872
  770THF     C2 9999   1.922   3.973   1.100 -0.0072  0.1428 -0.0937
  770THF     C310000   2.121   4.073   1.175  0.2795  0.1453  0.5906
  770THF     H410001   1.890   3.869   1.090 -1.2107  0.6905 -3.2799
  770THF     H510002   1.904   4.032   1.010 -0.3085  2.2843  1.3285
  770THF     H610003   2.171   4.018   1.254  0.1603  0.5972  0.9824
  770THF     H710004   2.195   4.125   1.114  0.0072 -1.8754 -1.6477
  770THF     C810005   2.001   4.149   1.230 -0.8955 -0.1903  0.1477
  770THF     C910006   1.883   4.055   1.223  0.2649 -0.1936  0.5476
  770THF    H1010007   1.989   4.238   1.168  2.7040 -0.9030 -1.8295
  770THF    H1110008   2.025   4.185   1.330  0.7470  0.4333 -0.4485
  770THF    H1210009   1.876   3.992   1.311 -0.3572 -2.0547 -0.7895
  770THF    H1310010   1.792   4.106   1.191  0.4102 -1.9743 -3.1668
  771THF     O110011   3.918   2.107   0.415 -0.4481  0.3450 -0.7733
  771THF     C210012   4.016   2.181   0.339 -0.3635  0.0884  0.3739
  771THF     C310013   3.916   2.168   0.544 -0.3437 -0.2107  0.0740
  771THF     H410014   3.981   2.280   0.310 -2.7665 -0.2762  1.7977
  771THF     H510015   4.049   2.120   0.255 -1.1947  0.2052 -0.0476
  771THF     H610016   3.852   2.255   0.528 -0.6686 -0.4332  0.1327
  771THF     H710017   3.876   2.115   0.631  3.3020 -0.0778  2.0146
  771THF     C810018   4.066   2.197   0.573  0.0539 -0.4324  0.1788
  771THF     C910019   4.127   2.166   0.445 -0.2901 -0.4038  0.9598
  771THF    H1010020   4.106   2.149   0.662  0.6078 -1.9792 -0.8533
  771THF    H1110021   4.093   2.302   0.580  3.0314 -0.9722 -1.5027
  771THF    H1210022   4.218   2.221   0.423 -1.5717  1.4147 -0.1222
  771THF    H1310023   4.163   2.063   0.440  3.9555  0.9307 -1.5684
  772THF     O110024   4.925   2.915   3.355 -0.1165 -0.2931  0.1055
  772THF     C210025   4.921   3.042   3.282 -0.4801 -0.3382  0.3773
  772THF     C310026   4.820   2.915   3.450 -0.3446 -0.3659  0.7944
  772THF     H410027   4.966   3.019   3.186 -0.1362 -1.4691  0.7855
  772THF     H510028   4.985   3.109   3.340  0.2698 -3.0244  2.9136
  772THF     H610029   4.800   2.814   3.485 -1.7843 -0.0462  0.9258
  772THF     H710030   4.847   2.969   3.541 -4.1823  0.1090  1.8086
  772THF     C810031   4.701   2.988   3.388  0.0359 -0.1329  0.1315
  772THF     C910032   4.773   3.085   3.292  0.1361  0.0315 -0.0060
  772THF    H1010033   4.621   3.022   3.453  1.5634  2.0246  0.9905
  772THF    H1110034   4.660   2.910   3.324  0.3565  0.6825 -1.1108
  772THF    H1210035   4.726   3.093   3.194 -0.8337 -1.4314  0.2962
  772THF    H1310036   4.774   3.186   3.334  1.3655  0.1361 -0.2506
  773THF     O110037   2.976   2.953   2.371  0.0757  0.1859  0.0928
  773THF     C210038   2.914   2.975   2.251  0.5489  0.2015  1.0641
  773THF     C310039   2.882   2.959   2.482 -0.6176 -0.1644  0.1723
  773THF     H410040   2.941   2.905   2.172  0.0547  2.8186 -1.5960
  773THF     H510041   2.943   3.073   2.213  1.9767 -0.6964 -0.2981
  773THF     H610042   2.869   2.859   2.522 -0.1181 -0.6724 -0.8910
  773THF     H710043   2.904   3.025   2.567  0.6233 -1.3603  0.8145
  773THF     C810044   2.743   3.010   2.418 -0.2147  0.6068 -0.3926
  773THF     C910045   2.761   2.957   2.270  0.6815  0.3421  0.0119
  773THF    H1010046   2.746   3.119   2.414 -1.1128  0.6024 -1.6968
  773THF    H1110047   2.656   2.992   2.480  1.9676  1.1895  3.1147
  773THF    H1210048   2.725   2.854   2.278  0.5817  0.5071  2.5936
  773THF    H1310049   2.704   3.017   2.199  1.7511  1.3395 -0.0368
  774THF     O110050   1.246   0.971   0.855 -0.1461 -0.3527 -0.1245
  774THF     C210051   1.173   1.082   0.912 -0.5346  0.2524  0.1396
  774THF     C310052   1.287   1.012   0.725  0.1518  0.2359 -0.2469
  774THF     H410053   1.227   1.161   0.963  0.6879 -0.6683  0.3137
  774THF     H510054   1.117   1.030   0.990 -0.5701 -0.9860 -0.6828
  774THF     H610055   1.383   1.059   0.746  0.7456 -1.5602  1.3725
  774THF     H710056   1.289   0.928   0.656  3.1297 -0.7989  0.9450
  774THF     C810057   1.187   1.119   0.681 -0.0305  0.0183 -0.1378
  774THF     C910058   1.090   1.126   0.797 -0.1830 -0.1448 -0.5386
  774THF    H1010059   1.126   1.088   0.596  1.0965  1.8703 -1.7021
  774THF    H1110060   1.229   1.218   0.665 -0.8465  0.4467  0.3118
  774THF    H1210061   1.030   1.214   0.821  1.1670  0.5481  0.4528
  774THF    H1310062   1.022   1.042   0.779 -0.0993 -1.2010  3.0962
  775THF     O110063   4.879   0.814   4.709 -0.8095  0.3468  0.7971
  775THF     C210064   4.853   0.718   4.805  0.0393  0.0758  0.3670
  775THF     C310065   5.019   0.836   4.736  0.8917 -0.4930 -0.5531
  775THF     H410066   4.755   0.675   4.784  0.0628 -0.4463  1.2809
  775THF     H510067   4.850   0.770   4.901  0.0484 -2.0545  1.5858
  775THF     H610068   5.054   0.895   4.651 -0.7759  1.8267  0.2644
  775THF     H710069   5.027   0.889   4.831 -0.7903 -1.1814  0.0059
  775THF     C810070   5.080   0.702   4.748  0.0835  0.6987  0.6752
  775THF     C910071   4.965   0.616   4.798 -0.6550  0.1372  0.1241
  775THF    H1010072   5.158   0.688   4.823 -0.1852 -4.3750  0.3415
  775THF    H1110073   5.128   0.678   4.653  2.2730  0.9865  1.6309
  775THF    H1210074   4.937   0.538   4.726  1.2407  1.4460 -2.1797
  775THF    H1310075   4.984   0.584   4.900  0.6304  0.7715  0.0953
  776THF     O110076   3.278   3.229   5.083 -0.5156 -0.4625  0.7339
  776THF     C210077   3.165   3.279   5.014  0.4418 -0.3937  0.6192
  776THF     C310078   3.284   3.282   5.212  0.5529  0.2249 -0.6013
  776THF     H410079   3.080   3.211   5.009 -1.1043  1.4375  0.9354
  776THF     H510080   3.190   3.286   4.908 -1.3904 -1.1603  0.1062
  776THF     H610081   3.278   3.201   5.285  1.8120  0.7650  0.1464
  776THF     H710082   3.386   3.320   5.218  0.9608 -0.9193 -0.0458
  776THF     C810083   3.166   3.380   5.228 -0.2081 -0.6647  0.3238
  776THF     C910084   3.128   3.404   5.083 -0.1513 -0.5374  0.0025
  776THF    H1010085   3.179   3.465   5.295 -0.0095 -0.5024  0.0824
  776THF    H1110086   3.086   3.322   5.273 -0.5949  1.3774  2.4650
  776THF    H1210087   3.024   3.427   5.061  0.3268 -0.5915 -2.6602
  776THF    H1310088   3.190   3.486   5.046  1.3838 -0.2064  3.0095
  777THF     O110089   3.554   3.023   2.975  0.1490  0.3154  0.1269
  777THF     C210090   3.693   3.051   2.978 -0.6940 -0.1734  0.0681
  777THF     C310091   3.539   2.918   2.875 -0.2906 -0.1305  0.2914
  777THF     H410092   3.707   3.103   3.072 -0.7869 -1.7213  0.9715
  777THF     H510093   3.735   3.108   2.895 -2.3236  0.5226 -0.3284
  777THF     H610094   3.440   2.873   2.882 -1.0367  1.2062 -1.0881
  777THF     H710095   3.561   2.951   2.774  0.0922  0.8746  0.6861
  777THF     C810096   3.645   2.817   2.919 -0.4729 -0.3691 -0.0091
  777THF     C910097   3.751   2.907   2.979 -0.4493 -0.5309  0.8393
  777THF    H1010098   3.667   2.759   2.829 -2.4022 -0.9708 -0.1441
  777THF    H1110099   3.614   2.736   2.985  0.9687 -1.7342 -0.9249
  777THF    H1210100   3.768   2.884   3.084  0.1781 -2.1726  0.4016
  777THF    H1310101   3.840   2.906   2.917 -1.9503  1.2190 -1.5531
  778THF     O110102   4.485   3.818   4.612  0.5876  0.0933  0.5414
  778THF     C210103   4.546   3.690   4.581  0.1252  0.7016  0.2940
  778THF     C310104   4.549   3.859   4.723  0.3992  0.1776 -0.4512
  778THF     H410105   4.643   3.713   4.536  0.9602  3.9454  3.2495
  778THF     H510106   4.488   3.642   4.503  2.2834  0.2727 -1.1302
  778THF     H610107   4.651   3.893   4.704 -0.1657  1.5598 -1.1408
  778THF     H710108   4.487   3.938   4.766  0.3726  0.4585 -0.9969
  778THF     C810109   4.554   3.730   4.810  0.1763 -0.2674 -0.0990
  778THF     C910110   4.559   3.619   4.711  0.0442  0.5693 -0.6380
  778THF    H1010111   4.457   3.729   4.859 -0.4546  2.1282 -1.1128
  778THF    H1110112   4.638   3.733   4.879  0.1611 -0.4847 -0.0717
  778THF    H1210113   4.651   3.561   4.722 -0.1756  0.3033 -0.1983
  778THF    H1310114   4.485   3.541   4.727 -1.0069  1.4187 -1.2100
  779THF     O110115   2.439   0.882   0.461  0.5308  0.3524  0.5566
  779THF     C210116   2.403   0.749   0.429  0.9293 -0.5101  0.0331
  779THF     C310117   2.582   0.879   0.466  0.5191 -0.0051 -0.7450
  779THF     H410118   2.387   0.750   0.321  0.4105 -1.1374  0.0989
  779THF     H510119   2.308   0.731   0.480  2.1143 -0.5312  2.3219
  779THF     H610120   2.618   0.899   0.365 -1.5829 -0.4699 -1.6346
  779THF     H710121   2.633   0.960   0.518  4.5470 -3.4138  1.1819
  779THF     C810122   2.625   0.743   0.517 -0.4424  0.1178  0.3315
  779THF     C910123   2.513   0.656   0.469 -0.1524  0.2685 -0.4699
  779THF    H1010124   2.643   0.769   0.621 -0.0476  4.2088 -0.5626
  779THF    H1110125   2.718   0.712   0.470 -1.6013 -0.8469 -1.4557
  779THF    H1210126   2.541   0.584   0.392  2.3754  0.1965  0.4189
  779THF    H1310127   2.469   0.599   0.551 -1.4225  0.9074 -0.6780
  780THF     O110128   0.559   3.752   5.010  0.2351  0.5630  0.0715
  780THF     C210129   0.605   3.799   5.136 -0.1636 -0.0906  0.1223
  780THF     C310130   0.675   3.699   4.946 -0.0192 -0.1507 -0.2999
  780THF     H410131   0.598   3.719   5.210 -0.4485 -0.7518 -0.6033
  780THF     H510132   0.534   3.871   5.177 -1.0215 -0.3356 -0.8724
  780THF     H610133   0.711   3.604   4.986 -1.2651 -1.2774 -1.7329
  780THF     H710134   0.658   3.682   4.840  0.4471 -0.8201 -0.2718
  780THF     C810135   0.786   3.806   4.969 -0.3732  0.2388 -0.0697
  780THF     C910136   0.754   3.833   5.113  0.5774  0.6581  0.1133
  780THF    H1010137   0.764   3.891   4.904 -2.5557  0.4482  0.8321
  780THF    H1110138   0.890   3.779   4.958 -0.6123 -0.7604  0.0056
  780THF    H1210139   0.820   3.773   5.174  1.7246  1.8753  0.1147
  780THF    H1310140   0.788   3.932   5.145  2.0078  0.4580 -0.6957
  781THF     O110141   4.636   1.759   2.750 -0.3285  0.5183 -0.1687
  781THF     C210142   4.552   1.835   2.841  0.0810 -0.3672  0.8053
  781THF     C310143   4.757   1.726   2.820 -0.4121  0.2713 -0.9058
  781THF     H410144   4.473   1.773   2.884 -2.3408  1.8149 -0.1920
  781THF     H510145   4.513   1.919   2.784  0.4155 -1.8741 -1.7943
  781THF     H610146   4.761   1.617   2.816 -1.6228  0.2342 -3.4311
  781THF     H710147   4.842   1.757   2.758 -0.2055  0.9518 -0.2914
  781THF     C810148   4.747   1.783   2.960  0.2255 -0.3652 -0.1494
  781THF     C910149   4.635   1.894   2.942 -0.0134  0.1175  0.1391
  781THF    H1010150   4.840   1.816   3.005  0.8818 -3.8787  1.4208
  781THF    H1110151   4.724   1.698   3.025  0.4017 -0.2005  0.1311
  781THF    H1210152   4.580   1.917   3.033 -1.5958 -1.3874 -0.3755
  781THF    H1310153   4.682   1.988   2.914  0.8359  0.4807  2.5636
  782THF     O110154   4.662   3.366   0.380 -0.2003 -0.8052 -0.4584
  782THF     C210155   4.719   3.416   0.504 -0.1640  0.5759  0.0230
  782THF     C310156   4.618   3.234   0.406  0.0248  0.0472 -0.3779
  782THF     H410157   4.641   3.452   0.571 -1.7368  0.1465 -1.5041
  782THF     H510158   4.783   3.503   0.488 -0.0249  0.9997  2.4345
  782THF     H610159   4.524   3.246   0.460  0.0387 -0.2240 -0.2976
  782THF     H710160   4.600   3.186   0.310  1.1583  2.4788 -1.9230
  782THF     C810161   4.725   3.170   0.497 -0.4125  1.0366 -0.4515
  782THF     C910162   4.806   3.295   0.550  0.1155  0.5796 -0.4259
  782THF    H1010163   4.780   3.101   0.433 -1.7709  0.3826 -0.9727
  782THF    H1110164   4.693   3.113   0.584 -1.4410  1.1884 -0.7142
  782THF    H1210165   4.823   3.301   0.657  0.7168  2.4275 -0.5911
  782THF    H1310166   4.905   3.300   0.505 -0.2497 -1.4243 -1.5389
  783THF     O110167   3.646   2.325   1.485  0.1823  0.9167  0.3558
  783THF     C210168   3.708   2.308   1.356  0.0255 -0.0170  0.1734
  783THF     C310169   3.509   2.311   1.475 -0.3083 -0.4525 -0.5467
  783THF     H410170   3.725   2.203   1.332  0.9913  0.3861 -0.9667
  783THF     H510171   3.808   2.348   1.345  0.1779 -0.1927  0.8698
  783THF     H610172   3.486   2.205   1.465  0.8414 -0.7212 -0.4628
  783THF     H710173   3.468   2.351   1.568 -0.4848  3.7409 -2.2221
  783THF     C810174   3.480   2.390   1.355 -0.5514  0.2299  0.8278
  783THF     C910175   3.597   2.348   1.265 -0.5004  0.5803 -0.2026
  783THF    H1010176   3.489   2.494   1.386 -3.1155  1.4253 -1.9691
  783THF    H1110177   3.377   2.384   1.320 -1.5238 -1.3687  3.6661
  783THF    H1210178   3.568   2.263   1.203  2.6343 -0.1446 -0.8388
  783THF    H1310179   3.627   2.422   1.190  0.2789  0.1570 -0.3130
  784THF     O110180   4.978   5.398   0.720 -0.3285  0.5852  0.4029
  784THF     C210181   5.097   5.449   0.770  0.0861  0.5947  0.2136
  784THF     C310182   5.013   5.266   0.686  0.4461  0.1415 -0.0252
  784THF     H410183   5.112   5.428   0.876  1.9800 -0.0867 -0.1393
  784THF     H510184   5.091   5.555   0.748  0.3723  0.1682 -2.1468
  784THF     H610185   4.998   5.200   0.772  0.2253  0.2050 -0.0119
  784THF     H710186   4.943   5.234   0.609  0.8937 -0.8932 -0.0080
  784THF     C810187   5.158   5.259   0.640 -0.6562 -0.3679  0.7535
  784THF     C910188   5.210   5.394   0.682 -0.1377 -0.9232 -0.5257
  784THF    H1010189   5.166   5.243   0.533 -0.6051 -1.9956  0.9774
  784THF    H1110190   5.221   5.177   0.674  0.4388 -0.0344 -0.3844
  784THF    H1210191   5.305   5.398   0.737 -0.2306  0.4047 -0.4338
  784THF    H1310192   5.218   5.463   0.599 -2.4799 -0.3101 -0.2994
  785THF     O110193   0.372   2.259   2.481  0.3215  0.0037 -0.3904
  785THF     C210194   0.405   2.317   2.601  0.5344  0.8430 -0.0618
  785THF     C310195   0.279   2.155   2.500 -0.3314  0.7628  0.1369
  785THF     H410196   0.455   2.412   2.582  0.8894  0.5646 -0.5291
  785THF     H510197   0.474   2.257   2.659 -0.0057 -0.8948 -1.1455
  785THF     H610198   0.218   2.150   2.410 -2.8079  0.4000  1.7514
  785THF     H710199   0.342   2.066   2.510  1.3367  1.7752 -0.8751
  785THF     C810200   0.202   2.192   2.636 -0.3349 -0.2366 -0.2725
  785THF     C910201   0.276   2.324   2.677  0.6552  0.2614 -0.0522
  785THF    H1010202   0.222   2.122   2.716 -0.5352  0.7378  0.6589
  785THF    H1110203   0.097   2.220   2.638  0.0407  1.7035 -2.4483
  785THF    H1210204   0.223   2.415   2.650  0.2309 -0.3823 -1.4740
  785THF    H1310205   0.282   2.323   2.786 -1.2031 -0.6569  0.0704
  786THF     O110206   2.686   1.617   0.059  0.1396  0.0529 -0.0408
  786THF     C210207   2.723   1.752   0.081  0.1157 -0.1550 -0.5422
  786THF     C310208   2.555   1.609   0.023 -0.2826  0.0840  1.2073
  786THF     H410209   2.830   1.772   0.073  0.1642 -0.2083 -0.0358
  786THF     H510210   2.685   1.792   0.175 -1.5423  0.8655 -1.5980
  786THF     H610211   2.542   1.531  -0.053  0.0146  0.0318  1.2068
  786THF     H710212   2.507   1.580   0.116 -0.5896 -0.6758  0.8267
  786THF     C810213   2.514   1.750  -0.025 -0.3371  0.0148  0.2418
  786THF     C910214   2.643   1.826  -0.022 -0.3669  0.2966  0.3422
  786THF    H1010215   2.452   1.798   0.050  1.5565  0.3871  1.6537
  786THF    H1110216   2.475   1.746  -0.127  0.9319 -3.3897 -0.2417
  786THF    H1210217   2.689   1.812  -0.120  0.3199 -2.6945  1.0080
  786THF    H1310218   2.625   1.932  -0.004 -1.3556  0.1562  0.2062
  787THF     O110219   3.176   5.184   4.281  0.5023  0.4284 -0.0076
  787THF     C210220   3.156   5.064   4.361  0.0604 -0.4907 -0.4664
  787THF     C310221   3.306   5.221   4.291 -0.2556 -0.8103  0.4537
  787THF     H410222   3.204   4.982   4.307 -1.4992 -1.2941 -0.6966
  787THF     H510223   3.051   5.041   4.378  0.1444  0.6482  2.0135
  787THF     H610224   3.379   5.158   4.239 -0.5184 -1.5042  0.9152
  787THF     H710225   3.315   5.324   4.257  2.2643 -1.6416 -1.7135
  787THF     C810226   3.333   5.194   4.439 -0.3760  0.3691  0.1767
  787THF     C910227   3.232   5.092   4.491  0.0390  0.3099 -0.1348
  787THF    H1010228   3.337   5.286   4.498  1.1537 -0.4140  1.3383
  787THF    H1110229   3.427   5.142   4.455 -1.3685 -1.6600 -0.2729
  787THF    H1210230   3.267   5.007   4.549 -0.4901  0.1039 -0.1048
  787THF    H1310231   3.156   5.135   4.557 -1.9471 -1.6631 -1.0363
  788THF     O110232   5.162   5.329   2.601  0.1977 -0.3721 -0.4359
  788THF     C210233   5.062   5.424   2.634  0.6754 -0.0219 -0.4890
  788THF     C310234   5.199   5.341   2.467  0.7905 -0.7454 -0.3147
  788THF     H410235   5.061   5.445   2.741  2.1623 -3.1761  0.2599
  788THF     H510236   4.969   5.372   2.613  0.9984 -2.5424  3.3167
  788THF     H610237   5.303   5.311   2.450  1.4508  1.0469  0.3636
  788THF     H710238   5.134   5.283   2.402 -1.4437  0.2321  0.9281
  788THF     C810239   5.174   5.481   2.425  0.1893 -0.6776 -0.4442
  788THF     C910240   5.102   5.543   2.547 -0.1039  0.3928 -0.3081
  788THF    H1010241   5.116   5.485   2.333  1.1384  0.3726 -1.0250
  788THF    H1110242   5.263   5.540   2.404  0.2235 -0.6213 -0.1475
  788THF    H1210243   5.188   5.595   2.590 -1.1090  0.3391  1.8599
  788THF    H1310244   5.036   5.628   2.531  1.3734  2.2002  2.3788
  789THF     O110245   4.552   0.059   3.899 -0.1762 -0.3807 -0.3961
  789THF     C210246   4.559   0.184   3.963  0.4726 -0.4545  0.4639
  789THF     C310247   4.420   0.030   3.855  0.4251 -0.5638  0.2291
  789THF     H410248   4.620   0.254   3.907  1.7889 -0.1942  2.1516
  789THF     H510249   4.603   0.180   4.063  1.1972 -2.3537  0.1132
  789THF     H610250   4.422  -0.024   3.760 -0.0782  1.0683 -0.7685
  789THF     H710251   4.372  -0.028   3.934 -1.1697  0.2959 -0.0494
  789THF     C810252   4.351   0.172   3.852  0.1794  1.0842  0.4673
  789THF     C910253   4.420   0.238   3.970  0.3802  0.2321 -0.3037
  789THF    H1010254   4.246   0.151   3.871  0.6091 -0.2417  1.5776
  789THF    H1110255   4.365   0.222   3.756 -0.7313  2.1034  0.8599
  789THF    H1210256   4.416   0.347   3.963  1.0253  0.1554 -3.1928
  789THF    H1310257   4.362   0.212   4.058  0.9723  1.9324  0.6290
  790THF     O110258   4.558   2.252   0.091  0.2143  0.4290  0.2743
  790THF     C210259   4.526   2.389   0.088 -0.5863 -0.2040 -0.2298
  790THF     C310260   4.445   2.182   0.054 -0.2156 -0.9058  0.9260
  790THF     H410261   4.564   2.412  -0.012  2.8388  1.4147  1.2738
  790THF     H510262   4.588   2.446   0.157  0.6415 -0.2299 -1.2624
  790THF     H610263   4.427   2.174  -0.053  1.4172  2.1264  0.3135
  790THF     H710264   4.450   2.082   0.097  2.4056 -2.1174 -1.8265
  790THF     C810265   4.330   2.265   0.114 -0.4412  0.3335  0.0453
  790THF     C910266   4.375   2.410   0.118  0.4502  0.2750  0.2740
  790THF    H1010267   4.296   2.226   0.210  0.7061 -0.5484  0.1084
  790THF    H1110268   4.240   2.253   0.054  0.2385  2.5032 -1.5391
  790THF    H1210269   4.337   2.466   0.033  0.8497 -0.3184 -0.3051
  790THF    H1310270   4.349   2.464   0.210  1.9481  1.3276  0.1049
  791THF     O110271   1.792   3.133   2.426  0.5380  0.1427  0.8298
  791THF     C210272   1.896   3.217   2.473  0.6086  0.9477  0.3719
  791THF     C310273   1.755   3.181   2.300  0.1527  0.2479 -0.3912
  791THF     H410274   1.937   3.174   2.564 -1.7430 -0.5990  0.7785
  791THF     H510275   1.854   3.318   2.482 -3.1694 -0.4645  0.2671
  791THF     H610276   1.687   3.108   2.256  1.8611 -1.1413 -0.8247
  791THF     H710277   1.684   3.262   2.315 -0.7809 -0.5757 -0.3014
  791THF     C810278   1.893   3.199   2.231 -0.3293  0.2892 -0.2425
  791THF     C910279   1.984   3.218   2.352  0.6146 -0.6982  0.6280
  791THF    H1010280   1.896   3.278   2.156  1.2762  0.0081 -0.5275
  791THF    H1110281   1.925   3.112   2.175  3.7766 -0.2556  2.4939
  791THF    H1210282   2.048   3.130   2.348  1.5906  0.0228 -0.1255
  791THF    H1310283   2.034   3.315   2.348 -1.5286  0.4777  0.0654
  792THF     O110284   0.522   3.500   5.330 -0.1007  0.4881 -0.0338
  792THF     C210285   0.374   3.496   5.335  0.1650  0.2871  0.4995
  792THF     C310286   0.576   3.367   5.326 -0.5514 -0.5603 -0.1795
  792THF     H410287   0.336   3.580   5.277 -2.2014 -1.1233 -0.1455
  792THF     H510288   0.352   3.494   5.442  2.2038 -1.7616  0.9464
  792THF     H610289   0.682   3.381   5.303 -0.4554 -2.0006 -0.7177
  792THF     H710290   0.561   3.319   5.422  0.6838  0.5472  0.5904
  792THF     C810291   0.484   3.298   5.228  0.2636  0.1357  0.5224
  792THF     C910292   0.349   3.357   5.270  0.0548 -0.1653  0.1524
  792THF    H1010293   0.480   3.189   5.235 -1.5691  0.0892 -0.6421
  792THF    H1110294   0.506   3.337   5.129 -0.0744  1.5055  0.9596
  792THF    H1210295   0.267   3.357   5.198 -1.2193  1.2116  1.5522
  792THF    H1310296   0.317   3.296   5.354 -0.3910  0.4165  0.4117
  793THF     O110297   3.570   1.908   1.294  0.1985 -0.3866 -0.2005
  793THF     C210298   3.438   1.955   1.330 -0.2120  0.4266  0.7717
  793THF     C310299   3.631   1.861   1.410  0.4931  0.3908 -0.3195
  793THF     H410300   3.355   1.938   1.262  0.6775 -1.0782  0.0026
  793THF     H510301   3.455   2.062   1.327  2.8310  0.0273  0.5726
  793THF     H610302   3.646   1.754   1.394  0.0841  0.1322  0.9140
  793THF     H710303   3.731   1.903   1.424  0.5734  0.7330 -1.7660
  793THF     C810304   3.537   1.881   1.532 -0.6028  0.1505  0.2046
  793THF     C910305   3.403   1.910   1.473  0.1394  0.5127  0.1329
  793THF    H1010306   3.573   1.965   1.591 -1.2382  0.9687 -0.5496
  793THF    H1110307   3.541   1.788   1.590 -0.9785 -0.4448 -0.7051
  793THF    H1210308   3.338   1.823   1.470  0.6698  0.1196 -0.5042
  793THF    H1310309   3.352   1.987   1.530  1.0719  1.5323 -0.3688
  794THF     O110310   1.801   4.970   3.073  0.3121  0.2116 -0.0076
  794THF     C210311   1.788   5.083   3.156 -0.0865 -0.5898 -0.5853
  794THF     C310312   1.941   4.936   3.077 -0.1051 -0.4284 -0.0691
  794THF     H410313   1.743   5.050   3.250  1.2429 -1.4257 -0.2127
  794THF     H510314   1.716   5.150   3.108  0.6216 -0.6532 -1.7696
  794THF     H610315   1.970   4.884   3.169  1.9959  1.3597  0.3805
  794THF     H710316   1.976   4.891   2.985 -0.4717  1.9705 -1.4629
  794THF     C810317   2.005   5.069   3.094 -0.2958  0.2228 -0.2354
  794THF     C910318   1.922   5.140   3.194 -0.2384  0.4106  0.5209
  794THF    H1010319   2.024   5.112   2.996 -1.6189  0.3005 -0.4652
  794THF    H1110320   2.108   5.056   3.129 -0.4284  2.4015  1.2140
  794THF    H1210321   1.946   5.113   3.297  1.2023 -1.5250 -0.2574
  794THF    H1310322   1.919   5.248   3.182  0.9321  0.4144  0.1263
  795THF     O110323   0.377   2.043   3.367 -0.4866  0.4400 -0.4462
  795THF     C210324   0.439   2.047   3.237  0.4632  0.4850  0.1940
  795THF     C310325   0.321   2.175   3.392 -0.6650 -0.2014 -0.2816
  795THF     H410326   0.365   2.026   3.160  1.0750 -1.1124  0.0076
  795THF     H510327   0.517   1.973   3.226 -0.7768 -1.1205  1.7788
  795THF     H610328   0.227   2.169   3.336 -0.0557  0.4412 -1.4030
  795THF     H710329   0.290   2.193   3.495 -0.2838  0.4991 -0.2896
  795THF     C810330   0.419   2.275   3.325  0.6070  0.5716  0.0870
  795THF     C910331   0.502   2.179   3.235 -0.3331 -1.0542  0.1427
  795THF    H1010332   0.488   2.326   3.393 -0.6431  1.4565  0.7140
  795THF    H1110333   0.364   2.348   3.267 -1.6863 -1.7374 -0.8162
  795THF    H1210334   0.526   2.215   3.135 -1.1587 -0.2473  0.2141
  795THF    H1310335   0.605   2.176   3.268 -0.6215 -1.1182  1.0565
  796THF     O110336   1.663   5.302   0.461 -0.2891 -0.2263 -0.1293
  796THF     C210337   1.573   5.201   0.416  0.7742 -0.5408 -0.4326
  796THF     C310338   1.609   5.348   0.584  0.2978 -0.0643  0.2490
  796THF     H410339   1.619   5.137   0.341  1.5660 -0.4296 -0.0482
  796THF     H510340   1.485   5.251   0.374  0.1138 -0.9155  0.4915
  796THF     H610341   1.683   5.388   0.653  3.0585 -0.6446 -2.1477
  796THF     H710342   1.520   5.410   0.572 -0.6196 -1.2049  1.0466
  796THF     C810343   1.557   5.224   0.654  0.0280  0.0831 -0.3379
  796THF     C910344   1.510   5.138   0.545 -0.1474  0.2673  0.6965
  796THF    H1010345   1.504   5.235   0.748  1.2492  0.3929  0.3449
  796THF    H1110346   1.653   5.188   0.692 -0.3572 -1.0020 -0.3540
  796THF    H1210347   1.565   5.045   0.559  0.8296  0.6064 -0.5945
  796THF    H1310348   1.403   5.123   0.533  0.4417 -2.3760 -3.0600
  797THF     O110349   2.618   4.000   2.815 -0.0789 -0.0245 -0.1394
  797THF     C210350   2.501   4.057   2.865 -0.5228 -0.6776 -0.2778
  797THF     C310351   2.651   3.880   2.876 -0.5951  0.1092 -0.7502
  797THF     H410352   2.463   4.134   2.798  2.0359  0.5072 -0.4675
  797THF     H510353   2.524   4.110   2.958 -1.9570 -0.1150 -0.2075
  797THF     H610354   2.708   3.810   2.815 -0.8445  0.8699 -1.8703
  797THF     H710355   2.698   3.898   2.973 -0.8088  0.1400 -0.6511
  797THF     C810356   2.513   3.816   2.905  0.4122  0.0157  0.9073
  797THF     C910357   2.411   3.935   2.891  0.1294  0.3162 -0.3952
  797THF    H1010358   2.491   3.763   2.997 -1.7738 -0.4232  0.1914
  797THF    H1110359   2.488   3.742   2.828 -1.4482  2.5510 -1.1127
  797THF    H1210360   2.358   3.920   2.797  1.0609 -2.2339 -0.6052
  797THF    H1310361   2.346   3.949   2.977  1.3821  0.2879  0.5833
  798THF     O110362   2.754   2.911   3.623  0.3803  0.4610 -0.1283
  798THF     C210363   2.889   2.934   3.676 -0.4620  0.0322 -0.6855
  798THF     C310364   2.658   2.924   3.727 -0.7418 -0.2332 -0.3706
  798THF     H410365   2.959   3.004   3.631  1.9049  0.0174  2.5763
  798THF     H510366   2.937   2.836   3.672  0.7944  0.6035 -0.1641
  798THF     H610367   2.564   2.954   3.681 -0.6481  1.9555  0.6900
  798THF     H710368   2.651   2.832   3.785  0.7866 -0.7809 -1.0137
  798THF     C810369   2.724   3.033   3.820 -0.3698 -0.2913 -0.8921
  798THF     C910370   2.865   2.979   3.820 -0.1448  0.6277 -0.0404
  798THF    H1010371   2.686   3.034   3.923 -1.6098 -2.4943 -1.2660
  798THF    H1110372   2.710   3.131   3.775 -1.0989 -0.3750 -0.8714
  798THF    H1210373   2.934   3.061   3.842 -0.3249  0.7584  0.0408
  798THF    H1310374   2.883   2.902   3.895 -1.5695  2.1008  1.9158
  799THF     O110375   2.843   1.297   1.505  0.0954 -0.3235 -0.9635
  799THF     C210376   2.782   1.402   1.574  0.0829  0.0933  0.7199
  799THF     C310377   2.879   1.329   1.366  0.5134  0.1165 -0.7868
  799THF     H410378   2.859   1.471   1.609 -0.2152  1.3081 -0.9018
  799THF     H510379   2.719   1.368   1.657  1.9530 -1.5028  1.5523
  799THF     H610380   2.981   1.369   1.367  0.9003 -0.8410  0.3514
  799THF     H710381   2.856   1.246   1.299  1.3846 -0.1859 -0.7280
  799THF     C810382   2.791   1.450   1.339 -0.0252  0.2527 -0.3467
  799THF     C910383   2.701   1.464   1.459  0.0469 -0.6191  0.2352
  799THF    H1010384   2.743   1.434   1.242  1.0436  0.7297 -0.9759
  799THF    H1110385   2.853   1.539   1.343 -0.3404  0.4477  0.3030
  799THF    H1210386   2.676   1.570   1.468 -0.5385 -0.7619  0.3578
  799THF    H1310387   2.610   1.409   1.435 -0.4527  0.9918 -1.9158
  800THF     O110388   4.587   3.502   3.102  0.0965 -0.7497 -0.6135
  800THF     C210389   4.542   3.569   2.985  0.0870 -0.4449 -0.7962
  800THF     C310390   4.720   3.462   3.081  0.3430 -0.0123 -0.6096
  800THF     H410391   4.448   3.624   2.988 -0.1534 -0.8535 -0.8474
  800THF     H510392   4.521   3.490   2.912 -1.1417 -1.4076  0.5530
  800THF     H610393   4.749   3.413   3.174 -1.7744 -0.5651 -0.1877
  800THF     H710394   4.730   3.378   3.012  0.2098 -1.5522  1.1596
  800THF     C810395   4.780   3.585   3.028 -0.1654 -0.5676 -0.0031
  800THF     C910396   4.660   3.651   2.948 -0.7706  0.0938 -0.9031
  800THF    H1010397   4.866   3.559   2.967 -1.2423 -1.2073 -1.2959
  800THF    H1110398   4.815   3.651   3.108  1.7724  1.2800 -2.2070
  800THF    H1210399   4.657   3.756   2.978  0.2352  0.0685 -0.6613
  800THF    H1310400   4.676   3.636   2.841 -0.9137  0.5681 -0.9940
  801THF     O110401   1.448   0.945   1.583  0.2042 -0.2205 -0.1467
  801THF     C210402   1.406   0.824   1.639  1.0353  0.2044  0.6977
  801THF     C310403   1.586   0.938   1.547 -0.2759 -0.3008 -0.1361
  801THF     H410404   1.371   0.754   1.562  2.2375  1.8864 -1.4833
  801THF     H510405   1.333   0.842   1.718  1.2789 -1.3203  1.3161
  801THF     H610406   1.604   0.868   1.466  0.6725  0.3818 -0.5265
  801THF     H710407   1.633   1.036   1.536  2.0142 -1.4037 -0.8015
  801THF     C810408   1.638   0.866   1.668 -0.3403 -0.0018 -0.1343
  801THF     C910409   1.532   0.757   1.700 -0.4443 -0.4904 -0.0113
  801THF    H1010410   1.650   0.928   1.757  1.4196 -1.3467  0.6232
  801THF    H1110411   1.730   0.811   1.650 -0.3163 -0.5765  1.5580
  801THF    H1210412   1.555   0.669   1.641 -2.3142 -2.5577  2.1108
  801THF    H1310413   1.520   0.735   1.807  1.9481  2.4361  1.0146
  802THF     O110414   0.991   5.097   0.427 -0.1815 -0.2008 -0.7295
  802THF     C210415   0.859   5.103   0.467  0.5704  0.2575 -0.1911
  802THF     C310416   1.053   5.199   0.505  0.5746  0.4511  0.2917
  802THF     H410417   0.809   5.007   0.452 -0.8891  1.2444 -2.1036
  802THF     H510418   0.805   5.182   0.414  0.7130 -1.2579 -2.7598
  802THF     H610419   1.160   5.186   0.485  0.6599 -2.1136  1.9764
  802THF     H710420   1.023   5.300   0.478  1.0114  0.0689 -1.8220
  802THF     C810421   1.008   5.173   0.649  0.4387 -0.2830 -0.9065
  802THF     C910422   0.869   5.107   0.623  0.1418 -0.3468  0.4741
  802THF    H1010423   1.001   5.264   0.708 -1.4170 -0.7606 -0.3039
  802THF    H1110424   1.077   5.099   0.691  3.2056  1.8273 -1.4296
  802THF    H1210425   0.862   5.012   0.676 -0.3087 -1.5146 -1.5651
  802THF    H1310426   0.783   5.167   0.653  0.4444 -0.8489  2.5101
  803THF     O110427   4.341   4.628   1.513  0.3880  0.7403  0.9062
  803THF     C210428   4.320   4.713   1.624  0.3013  0.2350 -0.2004
  803THF     C310429   4.222   4.562   1.471  0.7914 -0.8439 -0.4587
  803THF     H410430   4.260   4.799   1.592  0.5388  0.5733  0.2421
  803THF     H510431   4.410   4.754   1.670 -0.0369  1.1818 -0.3532
  803THF     H610432   4.153   4.626   1.416  0.2893 -0.7878  0.2170
  803THF     H710433   4.248   4.477   1.408 -1.5402 -1.7835 -0.2837
  803THF     C810434   4.184   4.515   1.618  0.1378  0.0860  0.0353
  803THF     C910435   4.224   4.625   1.707 -0.1974  0.3762  0.1272
  803THF    H1010436   4.244   4.428   1.645  0.4672  0.1472 -0.4745
  803THF    H1110437   4.078   4.488   1.618  0.6006 -1.9179 -0.2778
  803THF    H1210438   4.140   4.673   1.756  1.5063 -0.0196  3.7503
  803THF    H1310439   4.273   4.578   1.793 -2.5648  1.9471  2.4558
  804THF     O110440   3.350   3.903   3.413  0.2077  0.0167  0.1151
  804THF     C210441   3.324   3.822   3.526  0.4729  0.7155  0.6759
  804THF     C310442   3.247   3.883   3.320 -0.4994 -0.3314  0.0876
  804THF     H410443   3.357   3.879   3.613  2.2036  0.6142  0.1238
  804THF     H510444   3.381   3.730   3.518 -0.3119  0.2441  0.3577
  804THF     H610445   3.240   3.967   3.251 -1.3543 -0.0394  0.5133
  804THF     H710446   3.276   3.786   3.279  0.8322  0.2227 -0.3429
  804THF     C810447   3.126   3.870   3.411  0.1858 -0.0541  0.1501
  804THF     C910448   3.176   3.793   3.531  0.3628  0.5948  0.1052
  804THF    H1010449   3.043   3.822   3.358 -0.4183  2.8262 -1.7150
  804THF    H1110450   3.111   3.973   3.442  2.4977  0.8701 -1.5432
  804THF    H1210451   3.131   3.832   3.622  0.7614 -0.6782  0.8645
  804THF    H1310452   3.153   3.687   3.527 -0.4175  0.7659  0.0401
  805THF     O110453   0.702   4.030   3.535  0.1183 -0.5559  0.2212
  805THF     C210454   0.674   4.068   3.401 -0.0060  0.4480 -0.4123
  805THF     C310455   0.579   4.057   3.600 -0.7284 -0.6974  0.4341
  805THF     H410456   0.756   4.045   3.333 -0.1776  1.5726 -1.0109
  805THF     H510457   0.662   4.176   3.393 -1.4085  0.2540 -1.2695
  805THF     H610458   0.576   4.020   3.703 -3.0115  1.0775  1.0892
  805THF     H710459   0.588   4.166   3.602  3.7267 -0.7505 -2.1510
  805THF     C810460   0.464   4.016   3.502  0.6195  0.4133  0.0386
  805THF     C910461   0.542   3.992   3.375 -0.1587  0.3588 -0.1451
  805THF    H1010462   0.400   4.104   3.503 -1.5303 -1.0280  2.7853
  805THF    H1110463   0.403   3.935   3.543  0.4686  1.7532  2.6598
  805THF    H1210464   0.565   3.888   3.356 -1.9005 -0.2027  0.6253
  805THF    H1310465   0.495   4.040   3.288  1.9452  2.9935  0.0586
  806THF     O110466   2.934   5.270   4.651 -0.2323  0.2961  0.1911
  806THF     C210467   2.801   5.268   4.599 -0.6467  0.1688  0.0996
  806THF     C310468   2.979   5.405   4.639  0.0518 -0.0351  0.6104
  806THF     H410469   2.739   5.186   4.636 -0.8885 -0.2357 -1.1431
  806THF     H510470   2.804   5.268   4.490 -0.1087  1.0857  0.1068
  806THF     H610471   3.071   5.412   4.696 -0.5897  0.3735  1.6262
  806THF     H710472   3.000   5.423   4.534  0.5970  0.5418  0.8188
  806THF     C810473   2.862   5.482   4.690  0.6494 -1.0304 -0.2719
  806THF     C910474   2.741   5.401   4.649 -0.3279  0.6187  0.6751
  806THF    H1010475   2.872   5.584   4.652 -1.7235 -1.1214 -1.2871
  806THF    H1110476   2.853   5.476   4.798  2.5378 -1.8321 -0.1112
  806THF    H1210477   2.668   5.391   4.729 -0.9483  0.1071  0.0608
  806THF    H1310478   2.697   5.450   4.562 -1.5098 -1.4595  0.0417
  807THF     O110479   1.170   3.229   1.285 -0.5127 -0.1520 -0.4735
  807THF     C210480   1.056   3.167   1.333 -0.3153  0.0331  0.5964
  807THF     C310481   1.271   3.130   1.270 -0.6538 -0.5067 -0.4448
  807THF     H410482   0.982   3.148   1.256  0.0336  0.0648  0.2491
  807THF     H510483   1.015   3.248   1.393  2.3298  1.0936  1.1376
  807THF     H610484   1.232   3.089   1.176 -1.0914  2.5666 -1.7303
  807THF     H710485   1.377   3.154   1.262 -0.8130  0.0721 -0.8701
  807THF     C810486   1.251   3.034   1.388  0.5786  0.6404  0.1172
  807THF     C910487   1.093   3.040   1.406 -0.7736 -1.0803 -0.3673
  807THF    H1010488   1.300   3.066   1.480  3.9324 -2.3836 -0.4037
  807THF    H1110489   1.298   2.938   1.366  1.2493  1.0943 -0.4582
  807THF    H1210490   1.044   2.950   1.369  1.2390 -2.7402  0.7304
  807THF    H1310491   1.067   3.041   1.512  1.0072  0.6259  0.1127
  808THF     O110492   1.180   1.662   2.605 -0.2767 -0.4308  0.1953
  808THF     C210493   1.044   1.705   2.597  0.0764  0.8163 -0.3878
  808THF     C310494   1.263   1.768   2.557  0.3858  0.1130 -0.0885
  808THF     H410495   1.029   1.771   2.682  1.0915 -0.3111  0.7168
  808THF     H510496   0.972   1.623   2.604  1.4324 -0.4973 -1.0964
  808THF     H610497   1.263   1.848   2.631  3.4574 -0.3947  0.5978
  808THF     H710498   1.366   1.737   2.540  0.4495  0.6587 -0.7659
  808THF     C810499   1.190   1.812   2.439 -0.0310  0.0493  0.2738
  808THF     C910500   1.043   1.773   2.463 -0.2824 -0.0340 -0.5991
  808THF    H1010501   1.220   1.767   2.344 -1.1080 -1.4926  0.6325
  808THF    H1110502   1.201   1.920   2.426  0.9253 -0.0160  0.4470
  808THF    H1210503   0.963   1.846   2.453  0.6427  0.7522 -2.8519
  808THF    H1310504   1.013   1.696   2.392 -0.4817  0.6901 -1.3150
  809THF     O110505   0.493   5.375   1.456 -0.1313  0.4131 -0.2376
  809THF     C210506   0.441   5.278   1.362  0.3903  0.0339 -0.3709
  809THF     C310507   0.570   5.473   1.380  0.2892 -0.6668 -0.1786
  809THF     H410508   0.370   5.207   1.405 -1.2160  0.8412 -1.5809
  809THF     H510509   0.520   5.219   1.316 -0.4327 -0.8519 -0.7053
  809THF     H610510   0.592   5.562   1.439 -0.4127 -0.9305  0.4959
  809THF     H710511   0.664   5.425   1.351  1.0663  1.5724 -1.6329
  809THF     C810512   0.483   5.489   1.261 -0.3966 -0.4336  0.1559
  809THF     C910513   0.378   5.372   1.271  0.4810 -0.0543 -0.0147
  809THF    H1010514   0.545   5.485   1.171 -0.2998 -0.6727  0.2317
  809THF    H1110515   0.440   5.588   1.242  1.5520  0.3638 -0.3906
  809THF    H1210516   0.288   5.411   1.318  0.4078 -0.7785  0.4695
  809THF    H1310517   0.349   5.324   1.177 -0.1144 -0.7052  0.4891
  810THF     O110518   4.067   3.992   1.869  0.0217 -0.4659 -0.0141
  810THF     C210519   4.044   4.140   1.872 -1.0662 -0.1188  0.1710
  810THF     C310520   4.115   3.965   1.737  0.1725 -0.4391 -0.5652
  810THF     H410521   4.039   4.171   1.976 -0.5161 -1.8479  0.7539
  810THF     H510522   3.946   4.163   1.830 -0.9490  0.6115  0.2776
  810THF     H610523   4.171   3.871   1.732  0.7087 -0.1332 -0.3706
  810THF     H710524   4.026   3.962   1.674 -1.4464 -1.2446  1.6205
  810THF     C810525   4.208   4.086   1.710  0.1965 -0.2492 -0.0656
  810THF     C910526   4.142   4.206   1.774 -0.0952 -1.0136  0.5450
  810THF    H1010527   4.229   4.112   1.606 -1.7323  1.8137 -0.0097
  810THF    H1110528   4.305   4.067   1.755 -0.6911 -3.1188  0.8779
  810THF    H1210529   4.208   4.284   1.811 -0.4615 -1.2783  1.7881
  810THF    H1310530   4.085   4.266   1.703  1.1647  2.2229  2.0439
  811THF     O110531   2.760   1.363   4.684  0.0548  0.1996 -0.3711
  811THF     C210532   2.661   1.290   4.745  0.8533 -0.4917 -0.2725
  811THF     C310533   2.746   1.359   4.544 -0.5153 -0.2142  0.7916
  811THF     H410534   2.573   1.345   4.779  1.1771 -1.0623  1.5774
  811THF     H510535   2.688   1.247   4.841 -3.1933 -2.0024  0.3769
  811THF     H610536   2.681   1.428   4.492  1.2798  1.6752  0.9382
  811THF     H710537   2.845   1.370   4.500  0.4782 -1.0291  2.7057
  811THF     C810538   2.702   1.217   4.524 -0.4145 -0.4913 -0.2618
  811THF     C910539   2.629   1.175   4.651  0.0780 -0.3766 -0.0689
  811THF    H1010540   2.790   1.155   4.507  0.0756  0.1220  0.0088
  811THF    H1110541   2.633   1.214   4.440 -1.1763  0.2429  0.3138
  811THF    H1210542   2.521   1.172   4.637  0.4418 -1.8798 -3.6492
  811THF    H1310543   2.674   1.088   4.700  0.5256 -0.7134 -1.0560
  812THF     O110544   3.140   0.787   2.243  0.5448 -0.3921  0.0493
  812THF     C210545   3.051   0.829   2.143  0.1047  0.7736 -0.1728
  812THF     C310546   3.266   0.855   2.227  0.4172 -0.1206  0.3832
  812THF     H410547   2.946   0.833   2.171 -0.2067 -2.1330 -0.6049
  812THF     H510548   3.049   0.758   2.060 -1.9191  0.5501  0.0272
  812THF     H610549   3.308   0.868   2.327 -0.6790 -0.1158  0.8622
  812THF     H710550   3.341   0.807   2.165  0.7897 -0.1060  0.8136
  812THF     C810551   3.229   0.992   2.174 -1.0170 -0.4651  0.5315
  812THF     C910552   3.095   0.965   2.099 -0.0098  0.0317 -0.5358
  812THF    H1010553   3.309   1.040   2.118 -0.7642 -0.2042  1.1040
  812THF    H1110554   3.228   1.059   2.260 -1.0470  0.2229  0.0022
  812THF    H1210555   3.033   1.053   2.117 -0.5199 -0.1459 -1.3690
  812THF    H1310556   3.103   0.975   1.991  0.1269 -1.1127 -0.6376
  813THF     O110557   2.963   1.938   2.674 -0.7690 -0.1103 -0.3629
  813THF     C210558   3.019   2.054   2.730  0.0595 -0.2151 -0.1262
  813THF     C310559   2.988   1.840   2.767  0.4172 -0.2703 -0.2103
  813THF     H410560   2.993   2.151   2.689 -1.9680 -1.0527 -0.9942
  813THF     H510561   3.127   2.049   2.724  0.0893 -0.9847  0.8186
  813THF     H610562   2.926   1.756   2.737 -0.8122  0.4743  0.1547
  813THF     H710563   3.093   1.813   2.755  0.5906 -0.3257  1.2835
  813THF     C810564   2.962   1.896   2.904  0.0116 -0.2922  0.9466
  813THF     C910565   2.986   2.042   2.879  0.8937  0.1309 -0.3656
  813THF    H1010566   3.030   1.858   2.980  0.0582  2.6333  2.5271
  813THF    H1110567   2.861   1.867   2.932 -1.1826  0.9138 -1.7377
  813THF    H1210568   2.898   2.098   2.908  1.3304  0.9789 -0.6507
  813THF    H1310569   3.066   2.089   2.937 -1.4257 -0.3946  3.6575
  814THF     O110570   1.665   5.312   4.314 -0.1764  0.1149  0.1046
  814THF     C210571   1.698   5.433   4.388 -0.3563  0.4239  0.4709
  814THF     C310572   1.749   5.200   4.354 -0.5138 -0.1014 -0.5092
  814THF     H410573   1.617   5.506   4.387 -0.8217 -0.0371 -2.3367
  814THF     H510574   1.775   5.481   4.329 -1.1456  2.3380  0.9308
  814THF     H610575   1.699   5.105   4.337 -0.1840 -0.4658  0.5005
  814THF     H710576   1.842   5.207   4.299  0.6013 -0.0641  1.2876
  814THF     C810577   1.770   5.230   4.502  0.5008  0.1482 -0.0218
  814THF     C910578   1.752   5.381   4.521 -0.5783 -0.2860  0.5519
  814THF    H1010579   1.868   5.191   4.530  0.4108  1.7684  2.9467
  814THF    H1110580   1.691   5.172   4.549  2.1086 -2.3624 -0.2250
  814THF    H1210581   1.670   5.393   4.591 -0.0059  1.2392  1.0057
  814THF    H1310582   1.837   5.431   4.568 -0.3407  2.6706 -2.5679
  815THF     O110583   4.062   0.553   2.014  0.0576 -0.7043  0.4458
  815THF     C210584   4.081   0.451   1.912  0.1563 -0.3249  0.4181
  815THF     C310585   3.925   0.560   2.059 -0.1569  0.1600 -0.4620
  815THF     H410586   4.116   0.360   1.960 -1.5581 -2.3093 -1.8680
  815THF     H510587   4.148   0.484   1.833 -0.7334  0.9707  0.1796
  815THF     H610588   3.924   0.558   2.168 -1.1731  1.2183 -0.4240
  815THF     H710589   3.885   0.659   2.035  0.0554  0.3759  0.0452
  815THF     C810590   3.852   0.451   1.979  0.3553  0.0895 -0.1267
  815THF     C910591   3.943   0.415   1.861  0.2443  0.2914 -0.3917
  815THF    H1010592   3.746   0.468   1.962  0.0532 -0.0153  1.4848
  815THF    H1110593   3.863   0.371   2.052  0.1505  0.7115  0.6013
  815THF    H1210594   3.924   0.310   1.837  0.4405 -0.1706  1.3115
  815THF    H1310595   3.923   0.480   1.776  1.8952  2.9807  1.1319
  816THF     O110596   3.896   4.456   4.952 -0.6166 -0.1047  0.1425
  816THF     C210597   3.760   4.469   4.931 -0.2133  0.1385  0.1501
  816THF     C310598   3.921   4.330   5.016  0.6916  0.0389 -0.0420
  816THF     H410599   3.720   4.444   4.833  3.6572  0.8322 -1.7787
  816THF     H510600   3.735   4.572   4.955 -0.3648  0.0045  0.5862
  816THF     H610601   3.902   4.251   4.943 -3.5542  1.3228 -0.6159
  816THF     H710602   4.019   4.324   5.062  2.0678 -2.7029 -2.9725
  816THF     C810603   3.806   4.327   5.123  0.0566  0.0687  0.2768
  816THF     C910604   3.693   4.383   5.040  0.5026  0.5015 -0.6461
  816THF    H1010605   3.843   4.385   5.208 -1.2968  1.0285  0.2411
  816THF    H1110606   3.795   4.225   5.161  0.0735  0.2678  0.8317
  816THF    H1210607   3.656   4.294   4.992  1.5454 -1.0813  1.3113
  816THF    H1310608   3.610   4.434   5.089  2.3985  2.0411  1.1545
  817THF     O110609   2.007   4.434   4.808  0.1943 -0.5207 -0.3206
  817THF     C210610   2.046   4.304   4.758 -0.4386  0.6227 -0.9453
  817THF     C310611   1.934   4.499   4.709  0.8416  0.1380 -0.8054
  817THF     H410612   2.059   4.226   4.834 -0.4264  2.0109  0.5219
  817THF     H510613   2.138   4.321   4.702  0.9774  1.0612  1.3684
  817THF     H610614   1.877   4.581   4.752 -0.8651 -0.1793 -2.3296
  817THF     H710615   2.007   4.540   4.639  1.4563 -2.7599 -2.0018
  817THF     C810616   1.855   4.385   4.650  0.7690 -0.1116  0.4191
  817THF     C910617   1.939   4.264   4.661  0.1283  0.3557 -0.3371
  817THF    H1010618   1.822   4.400   4.547  0.0794 -0.2846  0.6096
  817THF    H1110619   1.762   4.377   4.706  0.8685  0.6869  0.7160
  817THF    H1210620   1.879   4.183   4.704  0.3701 -0.1648 -0.9735
  817THF    H1310621   1.971   4.233   4.562 -1.0513  0.5014 -0.7751
  818THF     O110622   1.380   2.170   4.752  0.4225  0.2334 -0.7092
  818THF     C210623   1.396   2.064   4.847  0.0889 -0.6779  0.3524
  818THF     C310624   1.410   2.105   4.626  0.1134  0.0911 -0.8243
  818THF     H410625   1.303   2.007   4.838 -0.0891 -0.1535 -1.3095
  818THF     H510626   1.405   2.108   4.947 -0.7216 -1.2843  0.7054
  818THF     H610627   1.320   2.057   4.588 -0.8119  2.2281 -1.4868
  818THF     H710628   1.458   2.184   4.570  0.5040  0.1584 -0.4054
  818THF     C810629   1.520   1.999   4.647 -0.0798 -0.0481  0.5937
  818THF     C910630   1.524   1.986   4.799  0.2967  0.2894 -0.0195
  818THF    H1010631   1.614   2.028   4.602 -0.5016  1.6551  0.7393
  818THF    H1110632   1.479   1.907   4.604 -2.1346  0.7300  0.7643
  818THF    H1210633   1.521   1.883   4.834  1.3783 -0.3511 -1.6962
  818THF    H1310634   1.609   2.035   4.845  0.5573 -0.7915  0.6592
  819THF     O110635   2.444   5.495   3.010  0.6219  0.0961 -0.2165
  819THF     C210636   2.308   5.545   3.000 -0.3318 -0.2389 -0.1767
  819THF     C310637   2.477   5.419   2.890  0.4384  0.5378 -1.3105
  819THF     H410638   2.303   5.628   2.929 -0.2134 -1.2478 -1.3968
  819THF     H510639   2.283   5.581   3.099  0.9132 -1.4596  0.6162
  819THF     H610640   2.512   5.497   2.822 -0.8955  1.5694 -0.8519
  819THF     H710641   2.551   5.346   2.925 -1.4730  0.2601  2.7996
  819THF     C810642   2.344   5.354   2.858  0.2327  0.3195  0.1818
  819THF     C910643   2.237   5.416   2.945  0.2330  0.4697  0.6238
  819THF    H1010644   2.341   5.251   2.893 -2.1300  0.4160  0.3860
  819THF    H1110645   2.325   5.353   2.750  0.5531  0.4413  0.1228
  819THF    H1210646   2.143   5.435   2.892 -0.4280  1.4240  2.0821
  819THF    H1310647   2.216   5.355   3.032 -1.3050  0.2561  0.1355
  820THF     O110648   0.089   3.825   4.794 -0.6904 -0.0002  0.2174
  820THF     C210649   0.174   3.705   4.813  0.0069 -0.3418 -0.2149
  820THF     C310650   0.016   3.799   4.673  0.0188  0.1311 -0.2973
  820THF     H410651   0.162   3.668   4.915 -1.1789  0.0275 -0.2090
  820THF     H510652   0.281   3.722   4.800 -0.3299  1.5145 -0.9664
  820THF     H610653  -0.077   3.856   4.666  0.1379  0.5711  1.2635
  820THF     H710654   0.089   3.829   4.599 -0.1007  2.1747  0.3397
  820THF     C810655  -0.009   3.651   4.669  0.7085 -0.2241 -0.0617
  820THF     C910656   0.121   3.591   4.714  0.7883 -0.3068 -0.6203
  820THF    H1010657  -0.038   3.614   4.570  0.5032  0.7323 -0.3655
  820THF    H1110658  -0.091   3.623   4.735 -0.3274 -0.4874 -1.3904
  820THF    H1210659   0.109   3.500   4.773 -0.2416  0.3509  0.2192
  820THF    H1310660   0.186   3.563   4.631  0.7276 -0.7761 -0.5140
  821THF     O110661   4.064   3.323   0.527 -0.1243  0.1298  0.4011
  821THF     C210662   3.967   3.373   0.426 -0.8287  0.8626  0.1624
  821THF     C310663   4.178   3.269   0.465  0.0613 -0.1509  0.2181
  821THF     H410664   4.004   3.460   0.373 -0.7912 -0.1143 -1.4806
  821THF     H510665   3.870   3.397   0.469 -1.3223 -0.8810  0.1083
  821THF     H610666   4.234   3.344   0.410 -1.3162 -0.4014 -1.5967
  821THF     H710667   4.234   3.212   0.540 -2.5746 -1.2596  1.4725
  821THF     C810668   4.096   3.183   0.362 -0.9119 -0.5697 -0.7855
  821THF     C910669   3.966   3.255   0.330  0.5605  0.1824 -0.3233
  821THF    H1010670   4.090   3.079   0.395  0.5315 -0.1528  0.9703
  821THF    H1110671   4.164   3.178   0.277  0.3971 -2.1597  0.2763
  821THF    H1210672   3.966   3.292   0.227  0.2041  0.3659 -0.2605
  821THF    H1310673   3.876   3.196   0.347 -0.3494  1.4132 -0.7372
  822THF     O110674   2.718   3.650   1.487  0.3960 -0.1128 -0.3501
  822THF     C210675   2.626   3.650   1.601 -0.0086 -0.0073 -0.0107
  822THF     C310676   2.811   3.541   1.505  0.4727  0.5278 -0.3776
  822THF     H410677   2.531   3.668   1.552 -1.6227 -0.3874  2.7470
  822THF     H510678   2.648   3.726   1.676  1.3489 -0.8874  0.5257
  822THF     H610679   2.790   3.469   1.426  0.0865  1.1575 -0.8625
  822THF     H710680   2.919   3.558   1.496  1.0831 -2.2167  0.9050
  822THF     C810681   2.781   3.488   1.641  0.4286  0.9896  0.1927
  822THF     C910682   2.632   3.509   1.651 -0.1106  0.0996 -0.3071
  822THF    H1010683   2.844   3.536   1.716  1.5764  3.1428 -1.9717
  822THF    H1110684   2.805   3.382   1.646 -3.0544  0.1111  0.4589
  822THF    H1210685   2.578   3.435   1.593 -1.2234  1.7653 -1.4842
  822THF    H1310686   2.604   3.494   1.755  0.3059 -0.5394 -0.2822
  823THF     O110687   4.433   1.848   4.869  0.2004 -0.1866 -0.0042
  823THF     C210688   4.378   1.815   4.997 -0.3293  0.2232  0.2370
  823THF     C310689   4.573   1.835   4.875  0.9815  0.0768 -0.3532
  823THF     H410690   4.275   1.781   4.993  0.5004 -2.8488  1.9681
  823THF     H510691   4.386   1.909   5.052 -1.6194  0.5391 -0.1009
  823THF     H610692   4.597   1.781   4.783 -1.0903 -1.7143  0.0598
  823THF     H710693   4.627   1.930   4.876 -0.8980  1.2331 -1.5688
  823THF     C810694   4.600   1.749   5.007 -0.7698 -0.0013  0.7071
  823THF     C910695   4.464   1.706   5.058 -0.0110 -0.3608 -0.4221
  823THF    H1010696   4.650   1.815   5.077  0.5286  0.5825 -0.7036
  823THF    H1110697   4.675   1.669   5.007  0.9012  1.4697 -1.1420
  823THF    H1210698   4.441   1.609   5.015 -1.5158  0.0394 -0.5965
  823THF    H1310699   4.461   1.709   5.167  1.0453 -0.2150 -0.3874
  824THF     O110700   3.129   0.604   2.804 -0.0071 -0.2539  0.0844
  824THF     C210701   3.174   0.647   2.675 -0.3142 -0.0469 -0.7416
  824THF     C310702   3.073   0.477   2.793 -0.2421 -0.1694 -0.2432
  824THF     H410703   3.247   0.727   2.678  0.2910 -0.6174  0.8169
  824THF     H510704   3.092   0.676   2.609  0.2168 -0.3941 -1.5662
  824THF     H610705   3.042   0.427   2.885 -3.5353  0.7445 -0.7322
  824THF     H710706   2.982   0.481   2.734  0.5279  2.4213 -1.4014
  824THF     C810707   3.195   0.413   2.718  0.1791  0.4161 -0.8701
  824THF     C910708   3.240   0.518   2.621 -0.2593  0.2405  0.0469
  824THF    H1010709   3.184   0.316   2.671  1.7546 -0.9941  1.4704
  824THF    H1110710   3.271   0.391   2.792 -0.5361  0.3202 -0.1560
  824THF    H1210711   3.348   0.513   2.612 -0.4301 -1.5071 -1.7539
  824THF    H1310712   3.204   0.515   2.518  0.4999  0.8295 -0.2454
  825THF     O110713   3.471   5.114   1.530 -0.0385  0.1773 -0.3271
  825THF     C210714   3.562   5.137   1.426 -0.1742 -0.9494  0.3516
  825THF     C310715   3.398   5.233   1.545 -0.0144  0.0047 -0.0568
  825THF     H410716   3.510   5.141   1.330 -0.6958 -1.3526  0.6128
  825THF     H510717   3.640   5.061   1.427  0.4836 -0.3338 -0.8691
  825THF     H610718   3.328   5.236   1.461 -0.9446 -2.7960  0.4889
  825THF     H710719   3.339   5.236   1.637  1.3403  1.3511  0.8024
  825THF     C810720   3.511   5.339   1.539  0.3249 -0.0365 -0.3631
  825THF     C910721   3.617   5.281   1.456  1.1261 -0.0116 -0.5278
  825THF    H1010722   3.561   5.372   1.631  0.6126 -3.0801  0.6785
  825THF    H1110723   3.475   5.431   1.493 -0.6716 -0.3428 -0.2052
  825THF    H1210724   3.638   5.340   1.367 -0.4975  2.7395  0.7918
  825THF    H1310725   3.711   5.271   1.511  0.0470 -0.5411  1.3041
  826THF     O110726   4.436   2.004   1.402 -0.6921 -0.3692 -0.4721
  826THF     C210727   4.556   2.069   1.394 -0.3034  0.9057  0.4836
  826THF     C310728   4.424   1.961   1.538  0.3016 -0.6453  0.6609
  826THF     H410729   4.550   2.163   1.449 -1.3936 -0.7169  3.3791
  826THF     H510730   4.578   2.093   1.290  1.0682 -0.9843  0.2878
  826THF     H610731   4.411   2.032   1.619  0.6784 -0.3002  0.4200
  826THF     H710732   4.348   1.883   1.530 -0.0615 -0.5724  2.8975
  826THF     C810733   4.564   1.912   1.567  0.3172  0.3758  0.0742
  826THF     C910734   4.648   1.967   1.457  0.0983 -0.2927 -0.6795
  826THF    H1010735   4.549   1.804   1.559 -0.2125  0.2825  1.9240
  826THF    H1110736   4.593   1.948   1.665  2.0483  0.4423 -0.4240
  826THF    H1210737   4.732   2.015   1.507 -0.1011 -0.3429 -0.2965
  826THF    H1310738   4.681   1.887   1.390  2.7322 -0.1762  0.3582
  827THF     O110739   5.392   4.705   3.072  0.1411 -0.1474  0.4234
  827THF     C210740   5.473   4.808   3.129 -0.5086  0.2800  0.4605
  827THF     C310741   5.426   4.586   3.129 -0.1526  0.1465 -0.6533
  827THF     H410742   5.442   4.828   3.232 -0.0885  1.6181  0.3403
  827THF     H510743   5.480   4.899   3.071  1.0449  0.9302  1.6216
  827THF     H610744   5.381   4.581   3.229 -1.8381 -1.9978 -1.4458
  827THF     H710745   5.400   4.498   3.071 -1.8455  0.7193 -0.8363
  827THF     C810746   5.580   4.593   3.129 -1.2363  0.4575  0.4434
  827THF     C910747   5.607   4.744   3.132  0.1998  0.4205 -0.1408
  827THF    H1010748   5.611   4.559   3.030  0.2457 -1.1131  1.4096
  827THF    H1110749   5.630   4.530   3.202 -0.9425 -0.3477 -0.4367
  827THF    H1210750   5.662   4.771   3.222  2.1407  1.2160 -1.4877
  827THF    H1310751   5.669   4.784   3.051  2.3716 -0.8025  0.8184
  828THF     O110752   4.287   0.299   1.751  0.6026 -0.5404  0.1844
  828THF     C210753   4.271   0.156   1.754  0.3182  0.1982  0.2037
  828THF     C310754   4.412   0.335   1.810  0.7462  1.2731 -0.2158
  828THF     H410755   4.306   0.101   1.667  1.6627  0.9663  0.2141
  828THF     H510756   4.169   0.131   1.782  0.7633  1.7809  3.8450
  828THF     H610757   4.473   0.382   1.732 -0.6799  1.5263 -1.2079
  828THF     H710758   4.394   0.409   1.887  0.1884  1.1232 -0.2010
  828THF     C810759   4.468   0.206   1.879  0.3934 -0.0291  0.6856
  828THF     C910760   4.360   0.100   1.866  0.1663 -0.5945 -0.0657
  828THF    H1010761   4.479   0.214   1.987 -1.6154 -0.5785  0.9671
  828THF    H1110762   4.555   0.164   1.828 -0.5050 -1.1082  0.0121
  828THF    H1210763   4.396   0.002   1.834 -0.2786 -1.0925  0.9195
  828THF    H1310764   4.307   0.085   1.960 -0.2653 -1.4986 -0.4416
  829THF     O110765   2.893   4.469   3.557 -0.2380 -0.0525 -0.2289
  829THF     C210766   3.026   4.454   3.505 -0.0454 -0.0380  0.6462
  829THF     C310767   2.824   4.567   3.480 -0.0820 -0.9117  0.2633
  829THF     H410768   3.016   4.404   3.409  4.9013  1.2371 -0.8124
  829THF     H510769   3.091   4.402   3.575 -0.2099  1.1407  1.7181
  829THF     H610770   2.765   4.525   3.399 -0.1228  2.7161 -1.7963
  829THF     H710771   2.758   4.626   3.544  2.8401  2.3185  0.5592
  829THF     C810772   2.935   4.651   3.414  0.2129 -0.7970 -0.6252
  829THF     C910773   3.061   4.602   3.468  0.6000 -0.0406 -0.5966
  829THF    H1010774   2.926   4.752   3.455  2.8315 -0.2018 -1.3063
  829THF    H1110775   2.917   4.647   3.306 -0.2111 -3.0179 -0.5045
  829THF    H1210776   3.146   4.610   3.401  0.0995  1.8981 -1.0568
  829THF    H1310777   3.082   4.657   3.560 -1.5388 -0.7275  0.3767
  830THF     O110778   1.308   3.533   5.107 -0.2548  0.3630  0.8201
  830THF     C210779   1.287   3.425   5.013 -0.4296  0.5609  0.1281
  830THF     C310780   1.257   3.657   5.054 -0.0799 -0.1637  0.1357
  830THF     H410781   1.182   3.399   5.020 -0.3540 -0.0348 -0.7750
  830THF     H510782   1.345   3.338   5.045 -0.5309  0.2594 -0.4860
  830THF     H610783   1.151   3.647   5.079  0.2086 -0.2695  1.3337
  830THF     H710784   1.298   3.747   5.100 -1.0733  0.4204 -0.0749
  830THF     C810785   1.294   3.641   4.902  0.5374  0.7700  0.2663
  830THF     C910786   1.339   3.492   4.883  0.4055  0.2350  0.5176
  830THF    H1010787   1.376   3.709   4.882  0.7003  0.0418 -1.8274
  830THF    H1110788   1.215   3.679   4.838  0.6545  0.8136  0.1476
  830THF    H1210789   1.314   3.442   4.789  2.2542 -1.1808  0.7112
  830THF    H1310790   1.448   3.489   4.874  0.4800 -0.3837  1.4339
  831THF     O110791   2.155   0.804   4.596  0.0633 -0.2407  0.0159
  831THF     C210792   2.040   0.755   4.669 -1.1436 -0.1677 -0.4968
  831THF     C310793   2.261   0.737   4.663 -0.0776 -0.3358  0.5882
  831THF     H410794   1.996   0.655   4.663  1.1742 -1.5608  2.7327
  831THF     H510795   1.952   0.817   4.656 -0.4414  1.0426  0.3523
  831THF     H610796   2.261   0.635   4.625  1.8196 -0.3607  0.5436
  831THF     H710797   2.357   0.783   4.639  0.4042 -0.9963  1.2060
  831THF     C810798   2.235   0.767   4.811  0.1154 -0.8437 -0.1127
  831THF     C910799   2.077   0.781   4.814 -0.2947 -0.2982 -0.9754
  831THF    H1010800   2.287   0.860   4.833 -0.1668 -1.1278  1.8881
  831THF    H1110801   2.269   0.693   4.883 -0.4682  0.7090  1.8560
  831THF    H1210802   2.029   0.703   4.873 -2.1242 -0.8523 -3.0963
  831THF    H1310803   2.057   0.883   4.847  0.3988 -0.1182 -1.0940
  832THF     O110804   3.186   0.091   2.673 -0.0520 -0.0591  0.2793
  832THF     C210805   3.235  -0.028   2.741  0.2204  0.0596 -0.1243
  832THF     C310806   3.053   0.066   2.632  0.3762  0.0618 -0.5692
  832THF     H410807   3.317   0.000   2.807  0.3875  1.7698 -1.0041
  832THF     H510808   3.278  -0.097   2.669 -0.8523  0.3985 -1.1069
  832THF     H610809   2.983   0.147   2.655  1.3979  0.3400  1.8148
  832THF     H710810   3.041   0.050   2.525 -1.2080 -1.3348 -0.2146
  832THF     C810811   3.003  -0.057   2.708 -0.3059 -0.1118 -0.1172
  832THF     C910812   3.111  -0.085   2.808 -0.4817 -0.5727  0.1830
  832THF    H1010813   2.989  -0.146   2.645  0.6239 -1.3452  1.3579
  832THF    H1110814   2.908  -0.043   2.759 -0.1896  0.9752 -0.1863
  832THF    H1210815   3.090  -0.025   2.895 -1.5866  1.2424 -1.2654
  832THF    H1310816   3.127  -0.189   2.836  0.6189  0.0513  1.9843
  833THF     O110817   3.859   2.631   5.116  0.1142 -0.2305  0.4365
  833THF     C210818   3.955   2.586   5.015 -0.1968 -0.2992 -1.0244
  833THF     C310819   3.786   2.510   5.147 -0.1724  0.3443 -0.1528
  833THF     H410820   4.038   2.529   5.058 -0.1906  0.1674 -0.3997
  833THF     H510821   4.003   2.673   4.970  0.3192  0.2446  0.5338
  833THF     H610822   3.842   2.457   5.223 -0.5166  0.5414  0.2388
  833THF     H710823   3.689   2.548   5.179 -1.0690 -0.8752 -1.2677
  833THF     C810824   3.777   2.437   5.011  0.1287 -0.0110  0.1124
  833THF     C910825   3.870   2.504   4.918  0.2493 -0.1255 -0.1745
  833THF    H1010826   3.673   2.437   4.979 -0.3319  1.3598  1.4758
  833THF    H1110827   3.795   2.329   5.011 -1.3475 -0.2778  0.5313
  833THF    H1210828   3.925   2.435   4.855 -2.0286 -2.1978 -0.0321
  833THF    H1310829   3.824   2.586   4.863 -0.3018 -1.3974 -1.6721
  834THF     O110830   1.528   1.165   1.962  0.4211  0.7628  0.4309
  834THF     C210831   1.456   1.048   1.915  0.4414 -0.2755  0.2646
  834THF     C310832   1.463   1.206   2.075  0.2819 -0.6496 -0.0195
  834THF     H410833   1.509   0.957   1.945 -0.1519 -0.0969  1.9677
  834THF     H510834   1.444   1.043   1.807  1.3212  1.0708  0.0918
  834THF     H610835   1.498   1.145   2.159 -2.2385  0.2574  1.7996
  834THF     H710836   1.488   1.311   2.089 -0.5496 -0.6604  1.7575
  834THF     C810837   1.323   1.195   2.055  0.9830 -0.4295  0.5825
  834THF     C910838   1.323   1.058   1.994 -0.2588 -0.0289 -0.4895
  834THF    H1010839   1.284   1.275   1.991  0.6167 -2.5525 -2.0434
  834THF    H1110840   1.270   1.207   2.150 -2.5064 -1.3893 -1.0787
  834THF    H1210841   1.316   0.987   2.077 -0.0421  2.7206  2.0289
  834THF    H1310842   1.233   1.033   1.938  0.5094 -1.0724 -1.2939
  835THF     O110843   4.845   0.500   2.136 -0.2960 -0.2882  0.5788
  835THF     C210844   4.894   0.482   2.267 -0.0450  0.9108 -0.1009
  835THF     C310845   4.838   0.375   2.077  0.6852 -0.4166 -0.7252
  835THF     H410846   4.811   0.464   2.335 -0.8617  1.4921 -0.9169
  835THF     H510847   4.958   0.564   2.301  2.7154 -1.6063  1.2430
  835THF     H610848   4.766   0.302   2.114  0.7873 -0.3207 -0.3372
  835THF     H710849   4.817   0.390   1.971 -0.3842 -0.9865 -0.6023
  835THF     C810850   4.970   0.320   2.111 -0.4584  0.4196 -0.6259
  835THF     C910851   4.996   0.364   2.252 -0.1742 -0.6373  0.5716
  835THF    H1010852   5.050   0.352   2.045 -1.1428  0.2669 -1.5503
  835THF    H1110853   4.972   0.212   2.097 -2.0125 -0.0253  1.8156
  835THF    H1210854   4.980   0.286   2.327 -0.2110  1.2485  2.6260
  835THF    H1310855   5.092   0.413   2.267 -1.0043  0.9862  0.7567
  836THF     O110856   0.300   2.322   4.222  0.1565 -0.0574 -0.8929
  836THF     C210857   0.438   2.343   4.193 -0.0373  0.1939 -0.8263
  836THF     C310858   0.300   2.233   4.334  0.0554 -0.6497 -0.4380
  836THF     H410859   0.477   2.408   4.272 -1.4318 -0.1360  0.1674
  836THF     H510860   0.437   2.391   4.095  1.1223 -0.0305 -0.9580
  836THF     H610861   0.320   2.289   4.425  1.8290  2.1015 -2.3903
  836THF     H710862   0.200   2.188   4.339  0.9643 -2.8031 -0.2644
  836THF     C810863   0.405   2.130   4.300 -0.6057  0.0186  0.1375
  836THF     C910864   0.495   2.203   4.198  0.1553 -0.0575  0.5479
  836THF    H1010865   0.376   2.031   4.264 -0.9183 -0.7514  2.3368
  836THF    H1110866   0.449   2.110   4.398 -1.7506  0.5467  0.7747
  836THF    H1210867   0.599   2.221   4.225  0.1974  2.5379 -0.8960
  836THF    H1310868   0.501   2.150   4.103 -1.5002  0.8303 -0.0983
  837THF     O110869   5.456   3.160   3.940  0.1283  0.2683 -0.1365
  837THF     C210870   5.423   3.295   3.916 -0.2571  0.0412 -0.0836
  837THF     C310871   5.572   3.156   4.021 -0.0914  0.0728 -0.6795
  837THF     H410872   5.356   3.324   3.998  0.0475  1.1322 -0.2078
  837THF     H510873   5.371   3.300   3.820 -2.5640 -3.5184  0.7616
  837THF     H610874   5.535   3.112   4.114 -1.6949 -1.4675 -1.9848
  837THF     H710875   5.650   3.088   3.986 -0.1284  1.0992 -2.9347
  837THF     C810876   5.631   3.299   4.034  0.5982 -0.1266 -0.2630
  837THF     C910877   5.546   3.371   3.926 -0.3432  0.0421 -0.4588
  837THF    H1010878   5.734   3.315   4.002  0.9255 -1.4766  0.0318
  837THF    H1110879   5.614   3.340   4.134 -3.4038  0.9120 -1.1938
  837THF    H1210880   5.530   3.478   3.939 -0.6153  0.1977 -1.8955
  837THF    H1310881   5.596   3.353   3.831  0.7412 -0.5129  0.2014
  838THF     O110882   5.450   1.536   0.381 -0.5572  0.1316 -0.0586
  838THF     C210883   5.506   1.628   0.476 -1.0184  0.5398  0.2566
  838THF     C310884   5.321   1.589   0.356 -0.2497  0.1993 -0.7989
  838THF     H410885   5.609   1.610   0.504 -1.3094 -0.5848  0.6535
  838THF     H510886   5.457   1.610   0.572  0.8572 -2.0927  0.8103
  838THF     H610887   5.273   1.557   0.264  0.5105 -0.3105 -1.0224
  838THF     H710888   5.266   1.535   0.434 -0.8042 -1.3118 -2.1793
  838THF     C810889   5.331   1.747   0.368  0.1056  0.8812 -0.4802
  838THF     C910890   5.472   1.765   0.421  0.7599 -0.0906 -0.4763
  838THF    H1010891   5.244   1.783   0.422  0.6491  2.3303 -0.4929
  838THF    H1110892   5.333   1.787   0.266  1.6759  0.1330 -0.7831
  838THF    H1210893   5.538   1.799   0.342  2.6973 -1.0188  0.6723
  838THF    H1310894   5.475   1.846   0.495  1.3188  0.7964 -1.4476
  839THF     O110895   2.478   4.498   3.582  0.0590  0.5400 -0.8093
  839THF     C210896   2.519   4.497   3.716  0.0667 -0.5433 -0.4044
  839THF     C310897   2.334   4.489   3.593 -0.7723  0.0420 -0.5370
  839THF     H410898   2.511   4.591   3.771  1.0245  0.2603 -1.5800
  839THF     H510899   2.627   4.483   3.718  0.1596  0.0297 -0.9744
  839THF     H610900   2.295   4.588   3.617 -2.5811 -0.2889 -1.9364
  839THF     H710901   2.287   4.463   3.498 -0.8047  0.9962 -0.7969
  839THF     C810902   2.308   4.383   3.700  1.1424  0.2990 -0.2129
  839THF     C910903   2.435   4.380   3.776  0.0267 -0.5067 -0.3231
  839THF    H1010904   2.299   4.285   3.654 -0.8610 -0.0356  0.7653
  839THF    H1110905   2.221   4.404   3.763  0.2993  1.1839 -1.6106
  839THF    H1210906   2.417   4.397   3.882 -2.5978 -1.8532 -0.4721
  839THF    H1310907   2.480   4.281   3.764 -1.9398 -1.2062 -2.7933
  840THF     O110908   1.108   2.017   3.810  0.0142 -0.0944  0.4407
  840THF     C210909   1.015   2.114   3.864  0.6929  0.1490 -0.0360
  840THF     C310910   1.230   2.030   3.874  0.3160 -0.3436 -0.0721
  840THF     H410911   0.943   2.058   3.924 -0.5831  1.0900 -0.6468
  840THF     H510912   0.953   2.170   3.795 -2.6647 -1.9324  1.0388
  840THF     H610913   1.273   1.933   3.897  0.6701  0.0733  1.0863
  840THF     H710914   1.301   2.078   3.807 -0.2657  0.6939  0.0270
  840THF     C810915   1.210   2.118   4.001 -0.2171  0.1799 -0.3089
  840THF     C910916   1.089   2.200   3.966 -0.3920 -0.5645 -0.2235
  840THF    H1010917   1.284   2.178   4.055 -1.6745  0.2240  1.7227
  840THF    H1110918   1.193   2.054   4.087  2.2119  0.7308  0.6757
  840THF    H1210919   1.042   2.232   4.058 -0.5536 -1.8010  0.1375
  840THF    H1310920   1.130   2.285   3.911  0.4829  0.8044  2.3651
  841THF     O110921   1.172   5.303   0.957 -0.3145  0.2404 -0.5904
  841THF     C210922   1.309   5.332   0.977  0.2920  0.7014 -0.4835
  841THF     C310923   1.103   5.425   0.979 -0.6032 -1.0271 -0.5181
  841THF     H410924   1.366   5.261   0.918  2.3360  1.7113  0.1909
  841THF     H510925   1.327   5.309   1.082 -0.9501 -0.7875 -0.5611
  841THF     H610926   1.005   5.411   0.933 -0.4352  0.4018 -1.3734
  841THF     H710927   1.098   5.467   1.079  2.5407  1.8396 -1.3823
  841THF     C810928   1.190   5.516   0.897  0.2324  0.5262  0.0992
  841THF     C910929   1.331   5.471   0.927  0.4798  0.2968  0.2378
  841THF    H1010930   1.182   5.623   0.920  1.4108  0.0220  3.3308
  841THF    H1110931   1.166   5.505   0.791  0.0255 -1.4174  0.3161
  841THF    H1210932   1.386   5.472   0.833 -0.7294  1.3113 -0.4919
  841THF    H1310933   1.390   5.532   0.996  1.7201 -0.6152  0.0177
  842THF     O110934   2.102   1.305   3.423 -0.7862 -0.0730  0.3870
  842THF     C210935   2.085   1.243   3.549 -0.2807 -0.1762  0.4054
  842THF     C310936   2.235   1.349   3.412 -0.0814 -0.3431 -0.0516
  842THF     H410937   2.118   1.140   3.539  0.9325  0.1810  0.5994
  842THF     H510938   1.978   1.245   3.571 -0.0597 -3.1529  2.4296
  842THF     H610939   2.295   1.286   3.347  0.9918 -0.5871  1.1454
  842THF     H710940   2.218   1.444   3.362 -0.7649 -0.7721 -0.6621
  842THF     C810941   2.299   1.351   3.548 -1.1967  0.8603  0.1997
  842THF     C910942   2.181   1.323   3.638 -0.3443  0.2578  0.9145
  842THF    H1010943   2.367   1.436   3.548  0.7845 -0.6425  0.6216
  842THF    H1110944   2.371   1.270   3.545 -1.4871  0.5816  0.6529
  842THF    H1210945   2.206   1.276   3.733 -0.8070  1.3034  1.5729
  842THF    H1310946   2.131   1.417   3.661 -0.0807 -0.0048  2.7406
  843THF     O110947   0.349   2.684   3.244  0.4261  0.1101  0.0118
  843THF     C210948   0.278   2.652   3.362  0.1519 -0.5799 -0.3903
  843THF     C310949   0.260   2.765   3.164  0.1566  0.2498  0.2879
  843THF     H410950   0.338   2.617   3.446 -2.9034  0.0529  2.2302
  843THF     H510951   0.207   2.570   3.349 -0.2839 -0.2778  0.0267
  843THF     H610952   0.316   2.798   3.077  0.1701 -0.4102  0.0346
  843THF     H710953   0.175   2.711   3.121  0.1010  0.5795 -0.0145
  843THF     C810954   0.207   2.860   3.265  0.2624 -0.5765 -0.5159
  843THF     C910955   0.192   2.776   3.392 -0.0229  0.3017  0.2971
  843THF    H1010956   0.116   2.915   3.243 -0.4887 -0.8153  1.7614
  843THF    H1110957   0.284   2.931   3.293  0.5721 -1.0404 -0.1629
  843THF    H1210958   0.232   2.834   3.475 -0.8912 -0.2741  1.1410
  843THF    H1310959   0.089   2.749   3.417  0.5831 -3.1611 -0.3835
  844THF     O110960   4.925   3.948   1.508 -0.3704 -0.1362  0.7155
  844THF     C210961   5.012   4.013   1.421  0.2430  0.2502 -0.1800
  844THF     C310962   4.938   3.808   1.482 -0.7922  0.3140  0.3161
  844THF     H410963   5.063   4.090   1.479 -0.7159  2.3277 -1.9565
  844THF     H510964   4.962   4.073   1.345  2.0206  0.1048 -1.5520
  844THF     H610965   4.907   3.771   1.580 -0.8418 -0.2040  0.1062
  844THF     H710966   4.878   3.770   1.400 -0.4116  0.0387  0.1627
  844THF     C810967   5.090   3.806   1.463 -0.4837  0.2335 -0.2835
  844THF     C910968   5.111   3.915   1.364  0.3797 -0.5775 -0.1256
  844THF    H1010969   5.119   3.709   1.423  2.8288  1.1698 -0.4979
  844THF    H1110970   5.141   3.820   1.559 -0.8934 -0.3086  0.0164
  844THF    H1210971   5.215   3.948   1.357  0.6523 -1.0914  1.2083
  844THF    H1310972   5.081   3.870   1.270 -0.1686 -0.2673 -0.1051
  845THF     O110973   1.319   2.319   1.906  0.2514 -0.6181  0.5986
  845THF     C210974   1.185   2.376   1.925  0.0318 -0.2602 -0.1072
  845THF     C310975   1.359   2.270   2.032  0.4868  0.0806  0.5220
  845THF     H410976   1.133   2.384   1.830  0.2730 -1.4432 -0.3573
  845THF     H510977   1.196   2.477   1.966 -1.3152  0.2034 -0.8397
  845THF     H610978   1.436   2.194   2.022 -0.6814 -1.2588  1.2427
  845THF     H710979   1.403   2.352   2.088 -1.7072  0.8202  1.2771
  845THF     C810980   1.231   2.226   2.105  0.0326 -0.1613 -0.5766
  845THF     C910981   1.114   2.279   2.021  0.3657  0.1858 -0.1448
  845THF    H1010982   1.232   2.249   2.211  2.4950 -0.2279 -0.5268
  845THF    H1110983   1.215   2.118   2.111 -3.3985  0.2767  0.1282
  845THF    H1210984   1.077   2.197   1.959  1.1819 -0.3715  0.0848
  845THF    H1310985   1.041   2.325   2.087  2.2285  1.2427  1.2659
  846THF     O110986   2.892   0.269   2.348  0.8052 -0.2627  0.0356
  846THF     C210987   2.854   0.331   2.475  0.0430  0.7498 -0.2670
  846THF     C310988   2.967   0.361   2.272  0.2706 -0.0315  0.3084
  846THF     H410989   2.944   0.331   2.536  0.2154  3.7520 -0.3694
  846THF     H510990   2.785   0.262   2.523  1.8157 -0.6366  0.3989
  846THF     H610991   3.074   0.360   2.292  0.3587  2.0781  0.2354
  846THF     H710992   2.960   0.338   2.166 -0.3698 -1.0939  0.5681
  846THF     C810993   2.905   0.503   2.310 -0.2906  0.5551 -0.5518
  846THF     C910994   2.811   0.474   2.432 -0.2747  0.1213 -0.2573
  846THF    H1010995   2.865   0.562   2.228  1.4008  0.7120 -1.3081
  846THF    H1110996   2.980   0.566   2.358  1.0656 -2.3050  1.3902
  846THF    H1210997   2.840   0.540   2.514  0.4616 -1.3847  0.7271
  846THF    H1310998   2.712   0.491   2.390  0.8134  2.3881 -2.1784
  847THF     O110999   0.732   0.448   3.802 -0.0735 -0.5345  0.9734
  847THF     C211000   0.663   0.376   3.699 -0.4086  0.0796 -0.0445
  847THF     C311001   0.866   0.454   3.762  0.9145  0.6736  0.9720
  847THF     H411002   0.658   0.428   3.603 -1.7293 -0.1550 -0.1235
  847THF     H511003   0.559   0.356   3.722 -0.7970  1.6558 -0.2823
  847THF     H611004   0.875   0.536   3.691 -0.3023  0.5696  0.6747
  847THF     H711005   0.930   0.471   3.849  2.9612 -1.9810  0.1401
  847THF     C811006   0.894   0.310   3.708  0.5783  0.0245  0.2980
  847THF     C911007   0.755   0.248   3.687 -0.4783  0.3200  0.0594
  847THF    H1011008   0.951   0.255   3.783  1.4103 -0.4901 -0.6847
  847THF    H1111009   0.966   0.313   3.626  2.1714  0.2800  1.6464
  847THF    H1211010   0.742   0.207   3.587  0.0009 -0.0164  0.1311
  847THF    H1311011   0.718   0.169   3.752  0.3171 -1.5960 -1.7113
  848THF     O111012   3.794   4.205   2.515 -0.1877  0.0523 -0.0194
  848THF     C211013   3.931   4.175   2.480  0.0102  0.1107 -0.8665
  848THF     C311014   3.706   4.153   2.414 -0.0668  0.0390 -0.1154
  848THF     H411015   3.984   4.131   2.564 -2.7286 -2.0995 -0.1289
  848THF     H511016   3.981   4.271   2.464  2.1850 -0.6111  0.9731
  848THF     H611017   3.652   4.066   2.451 -0.5154  1.7535  3.7957
  848THF     H711018   3.622   4.220   2.395 -1.0438 -1.2665 -0.5604
  848THF     C811019   3.795   4.132   2.293 -0.0450  0.2899 -0.7169
  848THF     C911020   3.928   4.092   2.357 -0.8836 -0.7089  0.5332
  848THF    H1011021   3.793   4.223   2.233  0.7266 -0.5352 -2.0564
  848THF    H1111022   3.765   4.042   2.240 -0.1550 -0.7257  0.9977
  848THF    H1211023   3.934   3.984   2.374  2.3808 -0.8336 -0.5564
  848THF    H1311024   4.014   4.136   2.305 -1.8826  0.9387  0.1976
  849THF     O111025   5.141   0.759   1.890  0.4164 -0.3065  0.1002
  849THF     C211026   5.199   0.630   1.869  0.8518 -0.4744 -0.4730
  849THF     C311027   5.168   0.797   2.026  1.0377 -0.1742  0.1698
  849THF     H411028   5.234   0.612   1.767 -0.5601 -1.1006 -0.8676
  849THF     H511029   5.125   0.551   1.874  1.7755 -1.3586 -0.3617
  849THF     H611030   5.212   0.897   2.019 -2.3705  1.4442 -0.3233
  849THF     H711031   5.085   0.815   2.094  1.4427  2.7390  0.0351
  849THF     C811032   5.262   0.692   2.090  0.2062 -0.5548  0.0200
  849THF     C911033   5.311   0.608   1.975  0.2380 -0.0906 -0.2135
  849THF    H1011034   5.202   0.633   2.159 -2.6184  0.5801 -1.3142
  849THF    H1111035   5.345   0.749   2.133 -1.2008  2.8269 -1.3445
  849THF    H1211036   5.406   0.641   1.934  1.2913 -0.2214  1.9608
  849THF    H1311037   5.334   0.503   1.995  1.7841  0.4662  1.1771
  850THF     O111038   3.435   2.151   5.381 -0.1333  0.5796 -0.0571
  850THF     C211039   3.492   2.120   5.257 -0.2328 -0.3726  0.0704
  850THF     C311040   3.517   2.246   5.459 -0.3380  0.4248  0.6449
  850THF     H411041   3.418   2.113   5.178 -0.9125 -0.2016  0.6809
  850THF     H511042   3.539   2.022   5.264  1.0395  0.0706 -1.4572
  850THF     H611043   3.459   2.337   5.459 -1.5033 -0.2752  2.3755
  850THF     H711044   3.529   2.233   5.566 -2.4184 -0.0823  0.8637
  850THF     C811045   3.647   2.255   5.375 -0.5473  0.3918  0.3973
  850THF     C911046   3.602   2.225   5.234 -0.9432  0.0868  0.4675
  850THF    H1011047   3.714   2.186   5.426  0.5446 -0.1593 -1.6733
  850THF    H1111048   3.687   2.356   5.382 -1.7337  0.8546  0.7657
  850THF    H1211049   3.558   2.318   5.199 -0.6871 -0.2312 -0.7630
  850THF    H1311050   3.676   2.184   5.165  0.5326  3.5112 -0.1958
  851THF     O111051   2.207   3.454   2.837  0.5147  0.1780 -0.0667
  851THF     C211052   2.180   3.567   2.919 -0.2724  0.1806  0.4668
  851THF     C311053   2.101   3.360   2.881 -1.0452 -0.1396 -0.2372
  851THF     H411054   2.224   3.663   2.894 -0.9950  1.1252  2.5420
  851THF     H511055   2.218   3.533   3.016 -0.1098 -1.5064 -0.1524
  851THF     H611056   2.095   3.266   2.828  0.1045  0.1020 -0.8278
  851THF     H711057   2.127   3.331   2.983  0.8704 -1.2799 -1.0116
  851THF     C811058   1.975   3.446   2.873  0.1518  0.3397  0.3222
  851THF     C911059   2.031   3.584   2.903 -0.4266  0.2593  0.5385
  851THF    H1011060   1.897   3.408   2.939 -0.1251  0.4515  0.0613
  851THF    H1111061   1.931   3.433   2.775  2.6945  1.2442 -1.0437
  851THF    H1211062   2.006   3.647   2.818  0.6995  0.8503  0.6192
  851THF    H1311063   1.988   3.638   2.987  0.1843  1.1010  0.3271
  852THF     O111064   0.697   0.242   5.255  0.2582  0.1216 -0.0490
  852THF     C211065   0.673   0.370   5.302  0.0326  0.1147 -0.5943
  852THF     C311066   0.755   0.247   5.123 -0.4487 -0.2290 -0.1342
  852THF     H411067   0.746   0.402   5.377 -0.1069 -0.0600 -0.3795
  852THF     H511068   0.584   0.382   5.364  1.3584 -1.9765  1.9423
  852THF     H611069   0.824   0.165   5.102 -0.6255 -0.4537  0.1593
  852THF     H711070   0.673   0.238   5.052  0.5116 -0.4349 -1.2521
  852THF     C811071   0.800   0.389   5.110 -0.6825 -0.1454 -0.3471
  852THF     C911072   0.693   0.463   5.187  0.5456 -0.5848  0.1945
  852THF    H1011073   0.814   0.422   5.007 -0.3299  1.8091  0.2853
  852THF    H1111074   0.898   0.404   5.156  0.0500 -1.0071 -1.5713
  852THF    H1211075   0.726   0.561   5.222 -0.5505 -0.3606  0.6449
  852THF    H1311076   0.604   0.479   5.125  1.5818  1.5396 -0.8792
  853THF     O111077   2.489   1.839   1.643 -0.5464  0.3402  0.4532
  853THF     C211078   2.525   1.728   1.722  0.0989  0.1327  0.1673
  853THF     C311079   2.602   1.889   1.575  0.6194  0.7847  0.3474
  853THF     H411080   2.516   1.631   1.673 -0.9990  0.8664 -1.1646
  853THF     H511081   2.467   1.720   1.814 -0.7786 -0.6764 -0.4371
  853THF     H611082   2.615   1.827   1.485 -1.7904 -2.3995  1.9830
  853THF     H711083   2.590   1.993   1.546  0.5615  0.8355  0.5575
  853THF     C811084   2.714   1.871   1.670 -0.4557 -0.1217  0.4028
  853THF     C911085   2.675   1.746   1.761 -0.6469  0.4926 -0.2855
  853THF    H1011086   2.726   1.958   1.734 -0.2609 -0.8845  1.4273
  853THF    H1111087   2.802   1.833   1.618 -1.5929 -2.2192 -0.1050
  853THF    H1211088   2.737   1.658   1.744  0.0523  0.4974  1.9328
  853THF    H1311089   2.699   1.774   1.863 -1.3129 -0.4698  0.1408
  854THF     O111090   4.693   1.086   0.115 -0.0450  0.2571  0.0750
  854THF     C211091   4.712   1.101   0.253 -0.4592 -0.3037  0.1773
  854THF     C311092   4.776   1.173   0.053 -0.3981 -0.1995 -0.0401
  854THF     H411093   4.811   1.069   0.285 -0.9760 -0.5485  1.6340
  854THF     H511094   4.645   1.037   0.311 -1.3324 -0.4773 -0.9937
  854THF     H611095   4.879   1.138   0.065 -0.7627 -1.5980 -0.6825
  854THF     H711096   4.778   1.187  -0.055  0.2770 -1.1153 -0.1662
  854THF     C811097   4.759   1.298   0.138  0.0315  0.3698  1.1385
  854THF     C911098   4.694   1.256   0.265 -0.1324 -0.2013 -0.5026
  854THF    H1011099   4.700   1.380   0.098 -0.4471  0.0761  1.2319
  854THF    H1111100   4.849   1.355   0.160  0.3799 -0.6049  2.3700
  854THF    H1211101   4.735   1.322   0.341 -0.9468  0.7840 -0.8853
  854THF    H1311102   4.587   1.278   0.268 -0.3240 -1.1352  0.0127
  855THF     O111103   4.536   4.312   4.815  0.2004  0.5578  0.3870
  855THF     C211104   4.474   4.357   4.932  0.3016 -0.6182 -0.9925
  855THF     C311105   4.461   4.352   4.699  0.3881 -0.5804 -0.2107
  855THF     H411106   4.485   4.466   4.932 -1.0055 -0.4477  0.7109
  855THF     H511107   4.518   4.303   5.016 -2.3062  0.3700  1.1843
  855THF     H611108   4.478   4.458   4.684  2.0547 -0.9974 -1.5267
  855THF     H711109   4.500   4.300   4.611 -2.1373 -3.1790  0.0482
  855THF     C811110   4.317   4.333   4.753  0.3944  0.7685 -0.0123
  855THF     C911111   4.328   4.319   4.904 -0.1159 -0.4526 -0.5592
  855THF    H1011112   4.259   4.254   4.705 -2.3069  1.4439  1.9077
  855THF    H1111113   4.260   4.424   4.733 -1.4899 -0.6279 -1.4042
  855THF    H1211114   4.264   4.369   4.977 -0.4012  0.0181 -1.1304
  855THF    H1311115   4.319   4.210   4.909 -0.6951 -0.3694  0.6547
  856THF     O111116   1.605   4.790   2.876 -0.4228 -0.0433 -0.4363
  856THF     C211117   1.730   4.775   2.818 -0.7912 -0.5035 -0.3798
  856THF     C311118   1.516   4.732   2.785  0.1267  0.3198 -0.4161
  856THF     H411119   1.816   4.768   2.884 -1.7123 -3.4060  0.6419
  856THF     H511120   1.734   4.859   2.748 -0.4644  0.5566  0.8623
  856THF     H611121   1.419   4.716   2.832 -0.6333  0.5354 -1.8495
  856THF     H711122   1.507   4.794   2.696  0.2691  2.4026  0.9331
  856THF     C811123   1.581   4.602   2.747  0.3297  0.1128  0.2999
  856THF     C911124   1.726   4.644   2.745 -0.3235  0.7821  0.6436
  856THF    H1011125   1.557   4.560   2.650 -0.2290 -1.4649  1.0915
  856THF    H1111126   1.562   4.525   2.821  1.0374  1.5397  2.0632
  856THF    H1211127   1.782   4.557   2.780  0.0229 -0.3013 -2.3469
  856THF    H1311128   1.757   4.651   2.641 -1.1888 -0.5020  0.2750
  857THF     O111129   3.185   4.691   0.816 -0.4086 -0.6147  0.3992
  857THF     C211130   3.328   4.693   0.786  0.0861 -0.1406 -0.4267
  857THF     C311131   3.150   4.815   0.882  0.1302 -0.3929  0.4923
  857THF     H411132   3.358   4.620   0.711 -0.7413 -1.2606  0.3141
  857THF     H511133   3.389   4.678   0.874  0.1198  0.8044 -0.2703
  857THF     H611134   3.053   4.849   0.846  1.0435 -0.4162 -2.1881
  857THF     H711135   3.129   4.800   0.988  0.5850  1.8267  0.9494
  857THF     C811136   3.256   4.910   0.838 -0.3881  0.0563  0.2156
  857THF     C911137   3.341   4.839   0.739  0.5742 -0.4916  0.2831
  857THF    H1011138   3.318   4.938   0.924  2.5382  0.1300 -1.7756
  857THF    H1111139   3.218   5.007   0.805  1.7091  1.6198  2.0371
  857THF    H1211140   3.291   4.847   0.642  0.2034 -0.0406  0.5082
  857THF    H1311141   3.442   4.879   0.733 -0.6519  3.0703  1.0499
  858THF     O111142   0.525   1.586   2.198 -0.5039 -0.2154 -0.2527
  858THF     C211143   0.445   1.648   2.299 -0.7382 -0.5929  0.1189
  858THF     C311144   0.652   1.554   2.252  0.0541  0.0372 -0.0317
  858THF     H411145   0.367   1.577   2.327 -2.7083  2.6414  3.8822
  858THF     H511146   0.390   1.733   2.258  1.3831  0.5245 -0.5653
  858THF     H611147   0.642   1.455   2.297  2.4008  0.2713  1.1746
  858THF     H711148   0.717   1.544   2.165 -2.0024 -2.6137 -1.4280
  858THF     C811149   0.678   1.653   2.360 -0.0755  0.4087 -0.2607
  858THF     C911150   0.533   1.684   2.413  0.0103  0.1230  0.8185
  858THF    H1011151   0.724   1.748   2.333  0.7443 -0.0434 -0.4852
  858THF    H1111152   0.750   1.613   2.431 -0.8314 -2.0988 -0.7856
  858THF    H1211153   0.515   1.623   2.501 -0.0490 -0.8821  0.1213
  858THF    H1311154   0.527   1.790   2.439 -3.7373 -0.1081  1.3389
  859THF     O111155   1.365   2.008   0.634 -0.6242  0.3065  0.2012
  859THF     C211156   1.232   1.971   0.680  0.2228  0.4874 -0.0839
  859THF     C311157   1.340   2.111   0.545  0.0206 -0.9476  0.6212
  859THF     H411158   1.224   1.910   0.770  0.5815  1.9167  0.9463
  859THF     H511159   1.178   1.921   0.599 -0.4885 -0.6025  1.0343
  859THF     H611160   1.435   2.164   0.532  0.5434 -0.4789  4.8337
  859THF     H711161   1.310   2.073   0.448  2.9557 -0.3269 -0.6455
  859THF     C811162   1.239   2.203   0.605  0.2434  0.8572 -0.2906
  859THF     C911163   1.181   2.114   0.710  0.3651 -0.2478 -0.3094
  859THF    H1011164   1.164   2.228   0.530  1.4238  2.0410 -1.1282
  859THF    H1111165   1.281   2.299   0.634  0.1096  0.9661 -0.4555
  859THF    H1211166   1.222   2.144   0.807 -1.2053  0.1218  0.2770
  859THF    H1311167   1.074   2.133   0.721  0.3498  1.4974 -2.7525
  860THF     O111168   5.356   2.961   2.120  0.2175  0.1289  0.2310
  860THF     C211169   5.328   2.827   2.065 -0.2468  0.3876 -1.0055
  860THF     C311170   5.376   2.944   2.258 -0.0490  0.3210  0.1089
  860THF     H411171   5.347   2.814   1.959  0.1247 -2.3525 -0.6915
  860THF     H511172   5.228   2.793   2.093  0.5319 -0.0696  1.4737
  860THF     H611173   5.430   3.034   2.287 -0.4530  0.8005 -0.5707
  860THF     H711174   5.276   2.945   2.301  0.1431  1.3163  0.5684
  860THF     C811175   5.461   2.818   2.268  0.4083 -0.3866 -0.5132
  860THF     C911176   5.426   2.744   2.145  0.1736 -0.2082  0.1576
  860THF    H1011177   5.424   2.759   2.351 -2.8839  0.0319 -1.5398
  860THF    H1111178   5.568   2.834   2.280 -0.0529  3.2440  0.0491
  860THF    H1211179   5.517   2.726   2.087  0.2700  1.3218 -0.1979
  860THF    H1311180   5.387   2.650   2.183  1.3155 -0.5056  0.6468
  861THF     O111181   1.823   0.086   0.926 -0.2483  0.1322 -0.4765
  861THF     C211182   1.925   0.164   0.990 -0.2330 -0.2364  0.3765
  861THF     C311183   1.701   0.153   0.925 -0.3391  0.5875 -0.8015
  861THF     H411184   2.016   0.125   0.945 -1.2396 -0.3324 -1.6847
  861THF     H511185   1.920   0.144   1.097  1.2586 -1.0564  0.3193
  861THF     H611186   1.645   0.107   0.843 -1.6201  0.2639  0.2189
  861THF     H711187   1.629   0.143   1.006 -0.0136 -0.4002 -0.6274
  861THF     C811188   1.741   0.300   0.895 -0.1940 -0.4831  0.0259
  861THF     C911189   1.887   0.308   0.949 -0.7927 -0.3838 -0.0211
  861THF    H1011190   1.669   0.370   0.935 -0.7454 -0.5760 -0.7755
  861THF    H1111191   1.744   0.319   0.787 -1.1798 -3.1477 -0.5331
  861THF    H1211192   1.942   0.351   0.866 -2.6559  1.8560 -0.2048
  861THF    H1311193   1.903   0.381   1.028  0.7723 -1.7586  1.0011
  862THF     O111194   3.722   3.486   4.221  0.1085  0.3511 -0.1519
  862THF     C211195   3.640   3.414   4.306  0.1781 -0.3509  0.5605
  862THF     C311196   3.637   3.522   4.112 -0.3866  0.5784  0.2091
  862THF     H411197   3.637   3.469   4.400 -1.1484 -0.5775  0.6791
  862THF     H511198   3.681   3.318   4.336  1.2184  0.0335  0.3973
  862THF     H611199   3.586   3.617   4.125  0.1918  0.9379 -0.0913
  862THF     H711200   3.692   3.540   4.019 -0.7542  3.2045  0.4349
  862THF     C811201   3.534   3.409   4.096  0.1347 -0.0391 -1.4153
  862THF     C911202   3.500   3.399   4.243  0.0051 -0.3313 -0.2452
  862THF    H1011203   3.577   3.313   4.067 -0.0431 -0.5781  0.0366
  862THF    H1111204   3.445   3.440   4.041 -1.8852 -1.1597  1.0260
  862THF    H1211205   3.435   3.483   4.265 -0.6218 -0.5408 -1.2134
  862THF    H1311206   3.460   3.301   4.268 -3.3991  0.7676 -0.9371
  863THF     O111207   2.046   3.921   0.315  0.4135 -0.1260  0.0091
  863THF     C211208   2.171   3.875   0.273  0.1878  0.0215 -0.1987
  863THF     C311209   1.945   3.816   0.288 -0.3193 -0.4316 -0.0320
  863THF     H411210   2.205   3.796   0.341  1.6883  0.2305 -0.6755
  863THF     H511211   2.246   3.954   0.266  1.6843 -1.1575  1.4331
  863THF     H611212   1.937   3.746   0.371 -2.1518 -0.8519 -0.5192
  863THF     H711213   1.843   3.849   0.271 -0.5369 -1.2835 -0.4489
  863THF     C811214   2.005   3.755   0.171  0.1725 -0.2278 -0.2049
  863THF     C911215   2.136   3.822   0.138 -0.4175  0.1529 -0.1357
  863THF    H1011216   1.946   3.768   0.080 -2.3340 -1.1393  1.2021
  863THF    H1111217   2.028   3.649   0.186 -0.4901 -0.1276  1.7131
  863THF    H1211218   2.211   3.751   0.102 -1.0458 -0.7860  0.3708
  863THF    H1311219   2.128   3.909   0.073  1.5313 -0.1142 -0.8154
  864THF     O111220   3.681   3.561   3.756 -0.2831 -0.4230 -0.0767
  864THF     C211221   3.754   3.536   3.636 -0.1321  0.0135 -0.4855
  864THF     C311222   3.648   3.700   3.749 -0.1988  0.4646  0.5860
  864THF     H411223   3.683   3.531   3.554  1.2513  0.9234 -1.8011
  864THF     H511224   3.816   3.447   3.641 -0.9273 -0.4636  2.0857
  864THF     H611225   3.564   3.728   3.685  0.6509  1.9694  0.0860
  864THF     H711226   3.617   3.747   3.842 -5.5634 -1.4906  0.1626
  864THF     C811227   3.784   3.755   3.702  0.2465  0.2070 -0.6552
  864THF     C911228   3.849   3.652   3.615  0.2561  0.9478  0.2054
  864THF    H1011229   3.836   3.786   3.793 -4.1800  0.4958  2.1011
  864THF    H1111230   3.777   3.856   3.660  1.4233  0.5722 -0.0104
  864THF    H1211231   3.869   3.669   3.509  2.2469 -0.6169  0.2741
  864THF    H1311232   3.941   3.625   3.666  0.2036 -0.5404 -0.4268
  865THF     O111233   4.746   4.103   0.023  0.0361 -0.4181 -0.1129
  865THF     C211234   4.813   4.049   0.136 -0.4136 -1.0807  0.1121
  865THF     C311235   4.641   4.008  -0.014 -0.5321 -0.5907 -0.1423
  865THF     H411236   4.759   4.063   0.230  2.1384  0.1247  1.4850
  865THF     H511237   4.911   4.090   0.159 -1.3897  0.0236  2.6597
  865THF     H611238   4.556   4.019   0.053  0.1066  0.9438  0.4623
  865THF     H711239   4.620   4.014  -0.121 -1.3400 -1.7939 -0.0681
  865THF     C811240   4.718   3.876   0.004  0.3203  0.3627 -0.5502
  865THF     C911241   4.819   3.904   0.109 -0.1547 -0.3474  0.0712
  865THF    H1011242   4.765   3.852  -0.091 -0.0741 -3.3550  0.0237
  865THF    H1111243   4.641   3.801   0.025  0.2700  0.1147 -1.5795
  865THF    H1211244   4.798   3.857   0.204 -4.1537  1.1597  0.1379
  865THF    H1311245   4.919   3.876   0.075 -0.3032 -1.7589  0.7373
  866THF     O111246   2.590   2.424   5.297 -0.0021  0.0477  0.7563
  866THF     C211247   2.547   2.532   5.216  0.1098  0.7418 -0.2649
  866THF     C311248   2.470   2.352   5.319 -0.0360 -0.1846 -0.1834
  866THF     H411249   2.628   2.543   5.144  0.1244 -0.3218 -0.4323
  866THF     H511250   2.542   2.624   5.274 -2.7004  0.9001 -0.6332
  866THF     H611251   2.485   2.254   5.365 -0.9354  0.6417  2.0230
  866THF     H711252   2.425   2.405   5.403  0.2189  1.8297 -1.2547
  866THF     C811253   2.392   2.352   5.190  0.0775  0.1955 -0.2494
  866THF     C911254   2.419   2.494   5.134  0.1783 -0.2617 -0.4222
  866THF    H1011255   2.286   2.330   5.199  0.4124 -1.6841 -0.4378
  866THF    H1111256   2.442   2.279   5.125  0.6883  0.0450  0.3714
  866THF    H1211257   2.442   2.494   5.027  0.3096 -1.1042 -0.4018
  866THF    H1311258   2.347   2.574   5.149  0.6936 -0.0301  0.9547
  867THF     O111259   1.319   1.538   0.569 -0.0892 -0.0719 -0.3137
  867THF     C211260   1.381   1.657   0.533 -0.2278  0.1337 -0.2180
  867THF     C311261   1.323   1.537   0.712 -0.4658  0.3962  0.3153
  867THF     H411262   1.306   1.734   0.554  1.3040  1.9817 -1.2362
  867THF     H511263   1.411   1.660   0.429  1.8375 -0.1919  0.3244
  867THF     H611264   1.230   1.582   0.748  0.8697  1.0317  3.2667
  867THF     H711265   1.322   1.435   0.749 -0.5724  0.5150  0.6365
  867THF     C811266   1.438   1.624   0.756 -0.0391  0.3757 -0.2429
  867THF     C911267   1.493   1.687   0.632  0.2002  0.6832 -0.3150
  867THF    H1011268   1.522   1.575   0.806 -1.1903 -1.1172  0.2913
  867THF    H1111269   1.394   1.696   0.825 -0.2447  1.0406 -1.0554
  867THF    H1211270   1.496   1.795   0.650  2.3836  0.6899 -0.4135
  867THF    H1311271   1.591   1.648   0.604 -0.7670 -3.3418  1.2150
  868THF     O111272   0.660   5.077   1.649  0.4175  0.2752 -0.1756
  868THF     C211273   0.726   5.079   1.526  0.1960 -0.2559 -0.6690
  868THF     C311274   0.618   4.949   1.678  0.3353 -0.3929 -0.1111
  868THF     H411275   0.814   5.143   1.520  0.5030 -0.3011  2.1913
  868THF     H511276   0.651   5.099   1.449 -0.1798 -0.9944 -0.5063
  868THF     H611277   0.596   4.934   1.783 -0.2076 -2.6896 -0.5028
  868THF     H711278   0.528   4.928   1.621  0.8628 -2.4920 -0.2710
  868THF     C811279   0.744   4.874   1.632  0.0252  0.0022  0.3308
  868THF     C911280   0.794   4.947   1.513  0.4153 -0.7067 -0.1662
  868THF    H1011281   0.712   4.774   1.602  2.5368 -1.0920  1.0331
  868THF    H1111282   0.823   4.878   1.707  0.5088  1.1279 -0.2084
  868THF    H1211283   0.903   4.951   1.506  0.6223 -0.5699  2.2505
  868THF    H1311284   0.758   4.901   1.421  0.5461 -0.8724 -0.1342
  869THF     O111285   0.376   3.660   4.044  0.1372  0.4547  0.7148
  869THF     C211286   0.419   3.694   3.916  0.1366 -0.1734  0.2979
  869THF     C311287   0.407   3.770   4.127 -0.4343 -0.0354 -0.1743
  869THF     H411288   0.383   3.629   3.837 -0.1188  0.3744 -0.0448
  869THF     H511289   0.527   3.689   3.902  0.3610 -3.0976  2.2672
  869THF     H611290   0.361   3.759   4.225  2.0705  3.1698  1.5530
  869THF     H711291   0.515   3.774   4.138 -0.3181  0.0997 -1.2063
  869THF     C811292   0.350   3.887   4.041 -0.5237 -0.5047 -0.0831
  869THF     C911293   0.371   3.836   3.895  0.3178  0.6593 -0.1953
  869THF    H1011294   0.407   3.978   4.061  0.9093 -1.6737  1.3575
  869THF    H1111295   0.245   3.899   4.067 -0.3649 -1.7112  1.1875
  869THF    H1211296   0.277   3.823   3.841 -0.1863 -2.9235  1.2901
  869THF    H1311297   0.438   3.899   3.837 -0.4797  3.0076  1.2690
  870THF     O111298   3.384   3.376   3.221 -0.1607  0.0780  0.8312
  870THF     C211299   3.279   3.411   3.126  0.6302  0.1255  0.0399
  870THF     C311300   3.409   3.238   3.182 -0.5710 -0.0708 -0.4127
  870THF     H411301   3.317   3.446   3.030  2.4792 -1.4568  0.1469
  870THF     H511302   3.217   3.492   3.166  1.2751  0.7453 -0.1972
  870THF     H611303   3.455   3.223   3.085  0.5730 -0.4345  0.1605
  870THF     H711304   3.472   3.188   3.255 -0.0174 -0.1691 -0.9552
  870THF     C811305   3.267   3.177   3.179 -0.2152 -0.0614  0.1305
  870THF     C911306   3.179   3.294   3.138  0.0486 -0.1879 -0.6692
  870THF    H1011307   3.241   3.135   3.276  0.9421 -0.6966  0.1795
  870THF    H1111308   3.258   3.098   3.104 -0.0562  1.1934 -1.2534
  870THF    H1211309   3.121   3.279   3.047  2.0908  0.5901 -2.1805
  870THF    H1311310   3.100   3.322   3.208 -0.2295  1.6012 -1.6208
  871THF     O111311   3.150   0.777   3.377  0.1154 -0.2595 -0.3200
  871THF     C211312   3.190   0.787   3.519  0.2767 -0.0771  0.3825
  871THF     C311313   3.038   0.687   3.374 -0.3396 -0.7950 -0.3160
  871THF     H411314   3.267   0.864   3.526 -0.1625  0.4761 -0.6626
  871THF     H511315   3.222   0.695   3.568 -0.0523  0.0082  0.7572
  871THF     H611316   2.990   0.691   3.276  2.6143 -0.6595 -1.8839
  871THF     H711317   3.069   0.587   3.403 -2.0740 -1.3711 -0.3597
  871THF     C811318   2.955   0.767   3.485 -0.1540 -0.4524  1.0687
  871THF     C911319   3.061   0.836   3.569 -0.6745 -0.7206 -0.5657
  871THF    H1011320   2.899   0.691   3.540  0.6266 -1.7778  0.0979
  871THF    H1111321   2.882   0.838   3.448 -0.9972 -1.4751  0.7330
  871THF    H1211322   3.070   0.945   3.563  0.4492 -0.6588  1.3758
  871THF    H1311323   3.052   0.818   3.676  0.9909 -1.2971 -0.4879
  872THF     O111324   5.105   4.391   0.821  0.3969  0.3358  0.8663
  872THF     C211325   5.048   4.270   0.865  0.1578  0.1569  0.7617
  872THF     C311326   5.086   4.402   0.676  0.1399 -0.2027  0.2117
  872THF     H411327   5.038   4.285   0.972  0.9176  0.1827  0.8327
  872THF     H511328   5.114   4.185   0.846 -1.6615 -1.3917  1.1024
  872THF     H611329   5.111   4.499   0.632  2.2553 -1.7681 -2.2722
  872THF     H711330   5.166   4.335   0.648 -1.0830 -2.1333  1.1349
  872THF     C811331   4.952   4.339   0.659  0.2230  0.2221  0.2734
  872THF     C911332   4.918   4.274   0.789 -0.0176 -0.8902  0.4603
  872THF    H1011333   4.950   4.267   0.577  0.4629  1.4126 -0.8172
  872THF    H1111334   4.869   4.406   0.634 -1.3960 -2.2289 -1.3808
  872THF    H1211335   4.851   4.345   0.837 -1.4923 -1.3068 -0.8423
  872THF    H1311336   4.862   4.182   0.771 -0.1959 -0.4601 -1.4174
  873THF     O111337   4.505   5.183   1.702  0.0573 -0.3282 -0.1848
  873THF     C211338   4.596   5.233   1.801  0.1242 -0.5210 -0.1783
  873THF     C311339   4.413   5.100   1.760 -0.8099  0.3166 -0.5346
  873THF     H411340   4.584   5.341   1.809 -2.5433 -0.7781  0.2532
  873THF     H511341   4.699   5.218   1.768  0.2149  1.4420 -0.8903
  873THF     H611342   4.332   5.161   1.798 -1.1480 -0.2107 -0.3968
  873THF     H711343   4.374   5.026   1.690 -1.9218 -0.7354  1.1045
  873THF     C811344   4.499   5.031   1.868  0.5440  0.0648 -0.1515
  873THF     C911345   4.566   5.152   1.930 -0.6060 -1.1989 -0.4118
  873THF    H1011346   4.571   4.958   1.830  0.7871  0.9265 -1.4055
  873THF    H1111347   4.444   4.979   1.946 -0.9114  1.3899 -0.2569
  873THF    H1211348   4.494   5.199   1.997 -1.0586  1.7029 -2.7478
  873THF    H1311349   4.655   5.123   1.986 -1.3760  1.5925  2.5515
  874THF     O111350   0.945   4.063   0.118  0.2138 -0.1600 -0.0266
  874THF     C211351   0.931   4.187   0.194 -0.0063  0.0084 -0.3825
  874THF     C311352   0.914   4.086  -0.015 -0.2601 -0.2008  0.5786
  874THF     H411353   1.024   4.243   0.200 -1.4735  2.4718  0.8564
  874THF     H511354   0.906   4.169   0.299 -1.5274  1.9956 -0.3303
  874THF     H611355   1.004   4.076  -0.075  1.3587 -0.6681  2.9328
  874THF     H711356   0.842   4.015  -0.057 -1.2729  1.7055 -1.0711
  874THF     C811357   0.861   4.229  -0.030  0.0715 -0.0284 -0.0086
  874THF     C911358   0.829   4.264   0.116 -0.4989 -0.6266  0.9098
  874THF    H1011359   0.777   4.249  -0.096  0.0301 -0.0383  0.0417
  874THF    H1111360   0.946   4.287  -0.068  1.0431  0.4888  2.7278
  874THF    H1211361   0.817   4.371   0.137  2.2631 -0.2005  0.6833
  874THF    H1311362   0.735   4.210   0.121 -0.3466 -1.5809 -3.0016
  875THF     O111363   1.851   0.721   0.387  0.7292 -0.7882  0.1875
  875THF     C211364   1.846   0.585   0.359 -0.3411 -0.5120 -0.3183
  875THF     C311365   1.966   0.780   0.333 -0.0549  0.3122  0.0021
  875THF     H411366   1.748   0.539   0.370 -0.8194  0.0974 -1.8233
  875THF     H511367   1.909   0.532   0.430 -1.8113 -0.1224  1.3587
  875THF     H611368   1.953   0.886   0.310 -0.9901 -0.2419 -2.3176
  875THF     H711369   2.045   0.747   0.400  2.4451 -1.3548 -3.4276
  875THF     C811370   1.998   0.703   0.203  0.0995 -0.1123  0.5797
  875THF     C911371   1.900   0.581   0.221  0.0555 -0.3998 -0.5849
  875THF    H1011372   2.100   0.665   0.207  1.0182  2.2176  1.5858
  875THF    H1111373   1.982   0.765   0.114  0.0712  1.5205  1.6754
  875THF    H1211374   1.820   0.588   0.146 -1.5538 -2.2883  0.8368
  875THF    H1311375   1.958   0.490   0.209  0.5985  0.1360 -2.3418
  876THF     O111376   2.181   1.787   3.112  0.2525  0.3118  0.5047
  876THF     C211377   2.052   1.726   3.143  0.2977 -0.5780 -0.0558
  876THF     C311378   2.220   1.738   2.982  0.1945  0.3304 -0.6681
  876THF     H411379   1.972   1.787   3.100  1.7870  0.9807 -0.7289
  876THF     H511380   2.038   1.718   3.251 -0.0177 -0.3108 -0.0738
  876THF     H611381   2.151   1.791   2.916 -4.1192 -0.5676  2.6756
  876THF     H711382   2.323   1.745   2.946  0.5671  1.5734  0.5578
  876THF     C811383   2.184   1.588   2.984 -0.4206  0.5565 -0.0174
  876THF     C911384   2.056   1.586   3.070 -0.4304 -0.2350  0.1131
  876THF    H1011385   2.257   1.528   3.039 -2.4227 -1.0157  1.0594
  876THF    H1111386   2.171   1.531   2.893  3.8012 -0.4768 -0.1745
  876THF    H1211387   1.957   1.569   3.027 -1.2650  0.5198  1.6411
  876THF    H1311388   2.073   1.509   3.144 -1.5603 -0.6656 -0.0645
  877THF     O111389   5.148   4.390   2.244  0.3133  0.4645  0.6478
  877THF     C211390   5.068   4.281   2.284 -0.2712  0.3110  0.3956
  877THF     C311391   5.073   4.497   2.196 -0.1301  0.3664  0.3450
  877THF     H411392   5.078   4.264   2.391 -0.1694  2.1784  0.7225
  877THF     H511393   5.109   4.196   2.230 -1.0519  0.7615 -0.9587
  877THF     H611394   5.110   4.597   2.219 -2.7105  1.6637 -0.6924
  877THF     H711395   5.078   4.493   2.087 -1.0190  2.3919  0.1723
  877THF     C811396   4.928   4.468   2.262 -0.2252 -0.0211 -0.1290
  877THF     C911397   4.925   4.313   2.251  0.3465  0.0154 -0.9710
  877THF    H1011398   4.847   4.516   2.207  0.4188  0.2831 -0.8138
  877THF    H1111399   4.926   4.496   2.367  0.6720  1.8986 -0.5905
  877THF    H1211400   4.865   4.273   2.333  0.6037 -0.4536 -1.0101
  877THF    H1311401   4.898   4.280   2.150  0.6779 -1.5219 -0.5720
  878THF     O111402   2.925   1.448   0.246 -0.1472  0.0704 -0.0911
  878THF     C211403   3.053   1.401   0.290 -1.0077  0.2352 -0.0738
  878THF     C311404   2.898   1.560   0.325  0.6079 -0.8152  0.7328
  878THF     H411405   3.097   1.325   0.226 -0.5387 -1.2035  1.8916
  878THF     H511406   3.041   1.361   0.391  1.2912 -2.3150 -0.7083
  878THF     H611407   2.832   1.631   0.277  2.3525  0.0670 -0.4580
  878THF     H711408   2.863   1.540   0.427  0.4876 -2.5050  0.4017
  878THF     C811409   3.038   1.630   0.347 -0.3573  0.4015 -0.1069
  878THF     C911410   3.131   1.529   0.301 -0.3439  0.1387  0.5894
  878THF    H1011411   3.051   1.654   0.452 -1.5979 -0.0850  0.1862
  878THF    H1111412   3.039   1.720   0.285 -0.3404 -0.7224 -1.7983
  878THF    H1211413   3.173   1.559   0.205  1.2972 -0.1665  1.1716
  878THF    H1311414   3.215   1.507   0.367  1.5568  0.5330 -1.5665
  879THF     O111415   2.899   3.008   5.401  0.0922 -0.4533  0.6218
  879THF     C211416   3.033   2.963   5.377 -0.2864  0.5933 -0.1936
  879THF     C311417   2.815   2.937   5.307 -0.0788  0.1066 -0.6582
  879THF     H411418   3.042   2.868   5.429 -1.1279 -0.5075 -1.9796
  879THF     H511419   3.103   3.030   5.426 -0.5145 -0.8120  2.2273
  879THF     H611420   2.806   2.831   5.327 -1.0704 -0.2055 -2.5090
  879THF     H711421   2.712   2.971   5.301  0.5768  2.0175 -2.3728
  879THF     C811422   2.900   2.947   5.178  0.4636 -0.2072  0.7059
  879THF     C911423   3.041   2.959   5.228  0.2216 -0.5990  0.7536
  879THF    H1011424   2.879   3.031   5.112  0.7759  0.7099  1.7413
  879THF    H1111425   2.889   2.858   5.116 -3.2882  0.7078 -0.1834
  879THF    H1211426   3.109   2.880   5.196  1.2364  1.2637 -2.1116
  879THF    H1311427   3.091   3.048   5.189  0.6899 -1.9585 -1.9425
  880THF     O111428   3.608   2.291   1.844 -0.0618 -0.0975  0.0478
  880THF     C211429   3.581   2.153   1.823 -0.0456  0.0794 -0.3633
  880THF     C311430   3.583   2.324   1.976  0.9060 -0.0758  0.5549
  880THF     H411431   3.633   2.105   1.741  0.5045 -0.4338  0.2728
  880THF     H511432   3.475   2.131   1.808  0.6050 -2.8775 -1.4711
  880THF     H611433   3.630   2.417   2.007 -1.7742  1.3108  0.7639
  880THF     H711434   3.476   2.337   1.993  0.8288 -0.4511  0.3821
  880THF     C811435   3.632   2.208   2.049  0.4102  0.5536 -0.3154
  880THF     C911436   3.617   2.090   1.955  1.0703  1.0708  0.3068
  880THF    H1011437   3.589   2.185   2.147 -0.1006 -0.3917 -0.7539
  880THF    H1111438   3.734   2.240   2.072  0.1851  1.4914 -0.5648
  880THF    H1211439   3.710   2.033   1.951  0.3973 -0.0275 -0.0981
  880THF    H1311440   3.539   2.024   1.992  0.6462  1.1305 -0.4577
  881THF     O111441   3.660   2.537   3.858  0.1374  0.2639 -0.2973
  881THF     C211442   3.618   2.598   3.978 -0.1749 -0.7624  0.5984
  881THF     C311443   3.561   2.470   3.801  0.1500  0.1202 -0.1212
  881THF     H411444   3.652   2.701   3.964 -3.9325  0.6131  0.3826
  881THF     H511445   3.672   2.554   4.061  0.3477 -0.5340  0.3858
  881THF     H611446   3.576   2.463   3.693 -1.9439  0.6987 -0.5138
  881THF     H711447   3.571   2.368   3.838 -0.5413  0.9816  2.6540
  881THF     C811448   3.432   2.535   3.847 -0.1730  0.1832  0.4482
  881THF     C911449   3.468   2.583   3.989  0.7419  0.1065  0.3803
  881THF    H1011450   3.346   2.469   3.838 -0.9851  1.0557  1.5886
  881THF    H1111451   3.414   2.618   3.778 -3.6425  0.0816  1.0518
  881THF    H1211452   3.415   2.671   4.026  1.8814  0.1822  1.9138
  881THF    H1311453   3.449   2.512   4.069 -4.4778  2.2424  1.4565
  882THF     O111454   0.025   0.713   3.103 -0.6220  0.4469 -0.4821
  882THF     C211455   0.045   0.708   2.959 -0.4556  0.7345 -0.6433
  882THF     C311456   0.035   0.583   3.162  0.1742 -0.2857 -0.1087
  882THF     H411457   0.117   0.781   2.922 -1.5955  1.1223 -2.1985
  882THF     H511458  -0.052   0.734   2.915 -0.4278  0.9367 -0.5870
  882THF     H611459   0.128   0.576   3.219 -0.4228 -0.0899  0.9081
  882THF     H711460  -0.043   0.570   3.237  0.5645  1.2136  0.5834
  882THF     C811461   0.019   0.480   3.051  0.5381 -0.7837 -0.4105
  882THF     C911462   0.068   0.559   2.929 -0.2492  0.2258  0.2466
  882THF    H1011463  -0.087   0.464   3.032  0.7973 -0.8015 -1.9253
  882THF    H1111464   0.073   0.389   3.075  1.0944 -0.7358 -1.4403
  882THF    H1211465   0.176   0.545   2.927 -0.4428 -1.5769  0.6196
  882THF    H1311466   0.026   0.535   2.832 -1.8248 -0.2152  1.0027
  883THF     O111467   1.417   0.155   0.466  0.3079  0.5035 -0.0990
  883THF     C211468   1.498   0.254   0.530  0.0501  0.3555 -1.1501
  883THF     C311469   1.291   0.146   0.530  0.4044  0.1343 -0.3688
  883THF     H411470   1.541   0.313   0.450  0.0728 -0.2972 -1.6216
  883THF     H511471   1.580   0.212   0.587 -0.4374  0.3190 -0.4608
  883THF     H611472   1.221   0.114   0.453  0.6848 -1.1755 -0.1051
  883THF     H711473   1.295   0.075   0.613 -0.3588  1.6862  1.0629
  883THF     C811474   1.278   0.294   0.581  0.0522 -0.3332 -0.3091
  883THF     C911475   1.418   0.337   0.621  0.7097 -0.1203  0.3816
  883THF    H1011476   1.205   0.301   0.661 -1.4605 -1.8967 -1.4635
  883THF    H1111477   1.239   0.353   0.498 -1.3397  0.1510  0.6445
  883THF    H1211478   1.435   0.444   0.609 -0.1741 -0.2386 -2.5671
  883THF    H1311479   1.432   0.316   0.727  1.7790  0.4929  0.3726
  884THF     O111480   1.236   2.562   3.148 -0.3627 -0.3764  0.0043
  884THF     C211481   1.111   2.630   3.163 -0.1863  0.0586 -0.3155
  884THF     C311482   1.332   2.665   3.120 -0.6555 -0.0180  0.2901
  884THF     H411483   1.096   2.691   3.252 -0.2220  2.8788 -2.1081
  884THF     H511484   1.031   2.556   3.163  0.8206 -1.0797 -1.1505
  884THF     H611485   1.343   2.722   3.212  0.6825 -1.5661  1.1690
  884THF     H711486   1.431   2.626   3.094 -0.8154 -1.8333  2.1538
  884THF     C811487   1.265   2.750   3.015 -0.1823 -0.2390 -0.0162
  884THF     C911488   1.117   2.723   3.042 -0.3100  0.2548 -0.4359
  884THF    H1011489   1.302   2.717   2.918 -0.3584  1.4160 -0.6655
  884THF    H1111490   1.294   2.854   3.030  0.5603 -0.3767 -0.4272
  884THF    H1211491   1.056   2.811   3.062 -0.7390 -0.7283  3.3674
  884THF    H1311492   1.088   2.670   2.951  1.6161  0.7843 -1.4165
  885THF     O111493   2.365   2.783   0.536  0.4139  0.1020  0.6433
  885THF     C211494   2.352   2.924   0.529  0.0464  0.4275 -0.2775
  885THF     C311495   2.493   2.749   0.591 -0.4271  0.5181  0.2123
  885THF     H411496   2.351   2.962   0.631 -0.3083 -1.9314  0.6682
  885THF     H511497   2.267   2.965   0.475 -1.2026 -0.0224  1.2676
  885THF     H611498   2.506   2.762   0.698  0.6769  0.6337  0.0721
  885THF     H711499   2.515   2.646   0.562 -1.5552  0.8091 -1.9161
  885THF     C811500   2.584   2.847   0.514 -0.6669 -0.2799  0.5132
  885THF     C911501   2.487   2.962   0.474  0.5060 -0.2399  0.0622
  885THF    H1011502   2.613   2.792   0.424  1.2124 -0.5998  1.2618
  885THF    H1111503   2.676   2.881   0.561  1.0752 -0.7797 -2.3099
  885THF    H1211504   2.518   3.062   0.506 -1.6459  0.3289  0.5091
  885THF    H1311505   2.494   2.967   0.366 -1.1637  2.6245 -0.0214
  886THF     O111506   0.998   3.113   4.303  0.3981  1.3409 -0.1147
  886THF     C211507   1.134   3.136   4.268 -0.3051 -0.2122 -1.0410
  886THF     C311508   0.990   2.978   4.354  0.7313  0.0170 -0.5738
  886THF     H411509   1.187   3.173   4.356  0.3107 -0.5094 -1.2822
  886THF     H511510   1.146   3.212   4.191 -2.1678  0.6612 -0.5277
  886THF     H611511   0.994   2.992   4.462  0.3393 -0.4675 -0.4942
  886THF     H711512   0.903   2.925   4.316  0.1842  1.1554 -0.9561
  886THF     C811513   1.123   2.911   4.324  0.4188  0.4760 -0.1790
  886THF     C911514   1.193   3.002   4.233  0.5161  0.6781 -0.1757
  886THF    H1011515   1.111   2.817   4.271  0.8749  1.9354 -3.0698
  886THF    H1111516   1.181   2.906   4.416 -0.0147  0.8696  0.1258
  886THF    H1211517   1.297   3.005   4.268  0.0071 -0.4027  1.5603
  886THF    H1311518   1.184   2.969   4.130 -0.0281 -0.6682  0.2867
  887THF     O111519   1.822   4.929   0.897 -0.0111 -0.4588 -0.1804
  887THF     C211520   1.954   4.958   0.846 -0.0970  0.0407 -0.0909
  887THF     C311521   1.827   4.894   1.037  0.1805 -0.1839 -0.3121
  887THF     H411522   1.947   5.048   0.786 -0.1766  1.0016  1.3027
  887THF     H511523   1.983   4.881   0.775 -0.5440 -0.8342  0.6591
  887THF     H611524   1.778   4.975   1.090 -2.0765 -2.3160  1.0341
  887THF     H711525   1.767   4.804   1.036 -2.4644  1.4782 -0.8500
  887THF     C811526   1.977   4.897   1.081 -0.3031 -0.1957  0.1574
  887THF     C911527   2.042   4.970   0.971 -0.4173  0.4151  0.1938
  887THF    H1011528   2.008   4.794   1.101  4.2137  0.5226 -1.8780
  887THF    H1111529   1.985   4.960   1.169  2.9011  1.5205 -1.1887
  887THF    H1211530   2.043   5.075   1.001 -3.2280  0.9060 -1.0313
  887THF    H1311531   2.146   4.952   0.948 -0.2303  1.0505  0.5071
  888THF     O111532   3.461   2.034   0.258  0.2742 -0.2611  0.2433
  888THF     C211533   3.538   1.915   0.219  0.3590  0.2007  0.3754
  888THF     C311534   3.471   2.031   0.406  0.5651 -0.1926  0.5593
  888THF     H411535   3.646   1.924   0.232  0.6567 -0.3944 -1.3709
  888THF     H511536   3.529   1.913   0.110 -0.7420 -2.9187  0.4002
  888THF     H611537   3.558   2.086   0.444  1.2258  0.2104 -1.3994
  888THF     H711538   3.384   2.080   0.448  0.2712  0.9907 -1.2975
  888THF     C811539   3.476   1.884   0.430 -0.2345  0.2157 -0.2285
  888THF     C911540   3.472   1.810   0.301 -0.2942  0.0140  0.6033
  888THF    H1011541   3.394   1.853   0.495  0.6011 -0.3680  0.5747
  888THF    H1111542   3.565   1.847   0.481  0.2675  2.4550  0.6148
  888THF    H1211543   3.530   1.718   0.296  2.4833  1.7010 -0.7547
  888THF    H1311544   3.372   1.796   0.261  0.4789  1.1516 -1.9312
  889THF     O111545   1.943   3.062   4.633 -0.3223 -0.0346 -0.0270
  889THF     C211546   2.066   3.106   4.579 -0.1995 -0.0613  0.0187
  889THF     C311547   1.873   2.990   4.543  0.0012  0.2085  0.9406
  889THF     H411548   2.148   3.042   4.613  0.0190 -0.9210 -1.9335
  889THF     H511549   2.111   3.196   4.622  1.8251 -0.3753 -1.2566
  889THF     H611550   1.908   2.887   4.536 -1.4759 -0.2384 -0.3426
  889THF     H711551   1.771   2.995   4.581  0.1196 -1.6232  1.5805
  889THF     C811552   1.888   3.065   4.416  0.2713 -0.3957  0.4640
  889THF     C911553   2.033   3.107   4.426 -0.5891 -0.6059 -0.5199
  889THF    H1011554   1.819   3.149   4.412  0.8119  0.0194 -1.0443
  889THF    H1111555   1.884   2.996   4.331 -0.9942  1.3226 -0.9527
  889THF    H1211556   2.102   3.037   4.378  2.2846  0.0182  2.3493
  889THF    H1311557   2.049   3.208   4.388  0.7761 -1.0747 -1.2796
  890THF     O111558   0.711   0.079   3.123 -0.3614 -0.2641  0.7215
  890THF     C211559   0.665   0.112   3.249  0.3569 -0.2649  0.4057
  890THF     C311560   0.639  -0.041   3.091 -0.0258 -0.2491 -0.7157
  890THF     H411561   0.577   0.176   3.245  0.7936  0.3071 -2.0725
  890THF     H511562   0.740   0.179   3.292  0.4903  0.8643 -1.4441
  890THF     H611563   0.537  -0.025   3.057  0.0630  0.7547 -0.5317
  890THF     H711564   0.692  -0.095   3.013  0.2538 -1.4700  0.2754
  890THF     C811565   0.636  -0.117   3.225 -0.1636  0.1925  0.4779
  890THF     C911566   0.639  -0.011   3.327  0.1574 -0.0790 -0.7974
  890THF    H1011567   0.722  -0.184   3.231 -0.2624 -0.0002 -0.1693
  890THF    H1111568   0.548  -0.180   3.236 -1.1251  1.2626 -0.8068
  890THF    H1211569   0.534   0.001   3.355  0.0363  0.5979 -1.5232
  890THF    H1311570   0.690  -0.037   3.420 -1.2524 -0.0892  0.0021
  891THF     O111571   2.199   5.005   3.391 -0.0733  0.1834  0.4853
  891THF     C211572   2.199   4.861   3.389  0.2487  0.2296  0.5893
  891THF     C311573   2.327   5.052   3.388  0.1979 -0.1086 -0.5972
  891THF     H411574   2.103   4.812   3.375  0.6927 -0.4552 -0.1213
  891THF     H511575   2.250   4.830   3.480  0.1791  1.7077  1.1780
  891THF     H611576   2.341   5.160   3.384 -1.0716  0.0397 -2.1326
  891THF     H711577   2.370   5.016   3.481 -0.1102  0.5888 -0.1807
  891THF     C811578   2.371   4.972   3.269  0.5958 -0.3029  0.0209
  891THF     C911579   2.281   4.843   3.265  0.2784 -0.4465  0.9082
  891THF    H1011580   2.479   4.959   3.268  0.6885  0.4648 -0.5860
  891THF    H1111581   2.349   5.038   3.185 -1.1583  1.1301  1.5212
  891THF    H1211582   2.217   4.845   3.177  0.7742  1.4265  0.5432
  891THF    H1311583   2.327   4.745   3.273  1.2002  0.0231  1.4492
  892THF     O111584   0.687   5.451   5.466 -0.2357 -0.2132 -0.5112
  892THF     C211585   0.705   5.418   5.601  0.4939 -0.9631 -0.6715
  892THF     C311586   0.815   5.457   5.397 -0.1400 -0.1866 -0.9886
  892THF     H411587   0.637   5.341   5.639 -0.1439 -0.6024 -1.0665
  892THF     H511588   0.687   5.501   5.669  2.4602 -1.3712  0.4111
  892THF     H611589   0.804   5.429   5.292  1.5284 -3.6402 -0.3992
  892THF     H711590   0.866   5.552   5.410 -0.6438 -0.2624  2.3280
  892THF     C811591   0.896   5.346   5.464  0.4992 -0.0568  0.4693
  892THF     C911592   0.853   5.373   5.615 -0.4757 -0.9760 -0.3549
  892THF    H1011593   1.002   5.363   5.445  0.1257  0.5688 -1.3531
  892THF    H1111594   0.865   5.247   5.430  0.1596 -0.2180  1.2305
  892THF    H1211595   0.873   5.287   5.678  1.0910 -0.7170 -0.4594
  892THF    H1311596   0.913   5.453   5.659 -2.4021 -1.4960  3.7092
  893THF     O111597   4.842   1.473   0.880  0.0695  0.3356  0.0063
  893THF     C211598   4.919   1.377   0.824  0.1654  0.1873  0.1957
  893THF     C311599   4.796   1.553   0.777  0.1762  0.5582 -0.0922
  893THF     H411600   4.900   1.278   0.868  0.7403 -1.0919 -2.2655
  893THF     H511601   5.023   1.404   0.839  0.2249 -0.1826  0.4622
  893THF     H611602   4.692   1.571   0.805  0.0802  0.2155 -0.2201
  893THF     H711603   4.849   1.647   0.764  0.0063  0.3377 -3.0874
  893THF     C811604   4.802   1.481   0.639 -0.4798 -0.3844 -0.2308
  893THF     C911605   4.900   1.366   0.673 -0.0178  0.0974  0.4122
  893THF    H1011606   4.842   1.550   0.565  2.9001 -0.2217  1.5243
  893THF    H1111607   4.698   1.462   0.614 -0.5448 -0.3109 -0.0192
  893THF    H1211608   4.867   1.270   0.633  1.5734 -0.1587 -0.3476
  893THF    H1311609   4.996   1.390   0.629 -0.2413  0.8072  0.3064
  894THF     O111610   0.841   4.166   3.034  0.6007 -0.7943  0.1517
  894THF     C211611   0.708   4.218   3.009  0.7822 -0.4417  0.2294
  894THF     C311612   0.856   4.063   2.946  0.3590  0.5456 -0.3236
  894THF     H411613   0.682   4.316   3.049  1.4112  0.2684 -1.0304
  894THF     H511614   0.638   4.142   3.044  1.8723 -1.3820  0.4218
  894THF     H611615   0.963   4.051   2.926  0.5081  0.3742  0.5491
  894THF     H711616   0.807   3.977   2.992 -2.4127  1.9908 -0.4092
  894THF     C811617   0.780   4.108   2.819  0.5721  0.0643  0.3063
  894THF     C911618   0.707   4.227   2.856 -0.3384 -0.5449 -0.2935
  894THF    H1011619   0.709   4.033   2.786  0.1849  0.9224 -0.8970
  894THF    H1111620   0.844   4.140   2.737 -0.2340 -0.0372 -0.3685
  894THF    H1211621   0.758   4.318   2.828 -1.6109  0.1466 -0.4401
  894THF    H1311622   0.609   4.226   2.808  0.1689 -0.8853 -1.3469
  895THF     O111623   0.558   1.190   1.549 -0.0333 -0.8730 -0.6933
  895THF     C211624   0.477   1.267   1.634  0.1709  0.0768 -0.1323
  895THF     C311625   0.474   1.120   1.460 -0.5161  0.2185  0.2564
  895THF     H411626   0.413   1.343   1.588 -0.2655  1.4086  2.5025
  895THF     H511627   0.538   1.316   1.710  0.9958  0.2908 -0.9125
  895THF     H611628   0.442   1.181   1.376 -3.3170 -2.7778 -1.0399
  895THF     H711629   0.523   1.028   1.427 -0.6714 -0.2357  1.2552
  895THF     C811630   0.357   1.076   1.541  0.5951  0.1429 -0.3600
  895THF     C911631   0.385   1.156   1.675  0.0103 -0.3122  0.0958
  895THF    H1011632   0.353   0.969   1.559 -2.3846 -0.0613 -1.5847
  895THF    H1111633   0.265   1.111   1.494  0.6109  0.8667  0.1217
  895THF    H1211634   0.291   1.185   1.721  0.1039 -2.8422  2.0698
  895THF    H1311635   0.436   1.100   1.753 -0.0774  0.4399  0.7060
  896THF     O111636   0.881   3.102   2.898 -0.2418 -0.5750 -0.0570
  896THF     C211637   1.014   3.104   2.850 -0.3960  0.6816  0.5345
  896THF     C311638   0.842   2.978   2.892  0.1851 -0.2579  0.5533
  896THF     H411639   1.068   3.072   2.940  0.9422 -1.5618 -0.9653
  896THF     H511640   1.043   3.204   2.818 -0.0966 -0.5072 -3.4393
  896THF     H611641   0.898   2.916   2.962 -1.8430 -1.6733  0.9950
  896THF     H711642   0.735   2.967   2.909 -0.2634  3.9618  1.7273
  896THF     C811643   0.881   2.929   2.754 -0.3801 -0.0354  0.4531
  896THF     C911644   1.027   2.991   2.744 -0.3706 -0.2755  0.3104
  896THF    H1011645   0.807   2.984   2.695 -1.1955 -1.1105  0.4287
  896THF    H1111646   0.871   2.825   2.723 -0.5473 -0.2729  1.2932
  896THF    H1211647   1.092   2.919   2.794 -1.4576 -0.0529  2.1101
  896THF    H1311648   1.050   3.019   2.641 -0.9277  1.1946  0.5711
  897THF     O111649   4.427   5.167   5.185 -0.4784 -0.0586  0.2708
  897THF     C211650   4.428   5.026   5.190 -0.4089 -0.2575  0.3015
  897THF     C311651   4.458   5.215   5.310 -0.2957 -0.0898  0.2934
  897THF     H411652   4.484   4.996   5.100 -2.4409  0.1719 -1.1804
  897THF     H511653   4.326   4.987   5.191 -1.0502  1.3476  0.7408
  897THF     H611654   4.497   5.317   5.312  2.5061 -1.0801  1.0015
  897THF     H711655   4.375   5.209   5.380 -0.9802 -0.9684 -0.5728
  897THF     C811656   4.562   5.116   5.350  0.3597 -0.9855  0.0080
  897THF     C911657   4.493   4.989   5.321 -0.0078  0.3094 -0.3878
  897THF    H1011658   4.611   5.129   5.447  0.2978 -1.3331  0.0881
  897THF    H1111659   4.643   5.128   5.278  0.6667 -2.0518  0.1493
  897THF    H1211660   4.563   4.906   5.308 -0.4015  0.0975 -1.2350
  897THF    H1311661   4.416   4.970   5.396  0.2688 -2.6066 -0.7206
  898THF     O111662   4.168   1.296   0.636  0.5750  0.0382 -0.1906
  898THF     C211663   4.226   1.345   0.511  0.1200 -0.1812  0.0759
  898THF     C311664   4.278   1.250   0.711 -0.2049 -0.0981 -0.6296
  898THF     H411665   4.232   1.453   0.508  1.9695 -0.1947  1.5862
  898THF     H511666   4.160   1.317   0.429  1.4367 -0.7976 -0.8136
  898THF     H611667   4.287   1.284   0.814 -1.3626 -1.9099  0.1175
  898THF     H711668   4.255   1.145   0.726 -2.4047  0.0199 -2.7339
  898THF     C811669   4.410   1.257   0.636  0.2049  0.3464 -0.1047
  898THF     C911670   4.359   1.275   0.489 -0.1922  0.4277 -0.3033
  898THF    H1011671   4.471   1.168   0.651 -0.4668 -0.0457  0.3900
  898THF    H1111672   4.460   1.347   0.669  0.9934 -0.2113  0.2536
  898THF    H1211673   4.436   1.329   0.434  1.2866 -2.4909 -1.3584
  898THF    H1311674   4.334   1.180   0.442  0.9695 -0.3546  0.5745
  899THF     O111675   5.337   4.133   0.466 -0.3007  0.1501 -0.1444
  899THF     C211676   5.444   4.186   0.544 -0.3937  0.5159 -0.0844
  899THF     C311677   5.279   4.220   0.378  0.0750  0.3286  0.4259
  899THF     H411678   5.524   4.114   0.561  1.1933  1.1177 -3.9140
  899THF     H511679   5.412   4.240   0.633  0.7899 -0.3369  0.8833
  899THF     H611680   5.257   4.169   0.283 -1.6020  1.2207  0.2797
  899THF     H711681   5.177   4.250   0.402 -0.2982 -0.1221 -0.5162
  899THF     C811682   5.378   4.339   0.363  0.4058  0.5817  0.2954
  899THF     C911683   5.501   4.288   0.444 -0.1301  0.5095  0.5127
  899THF    H1011684   5.332   4.414   0.428  0.7852 -0.5592  1.9366
  899THF    H1111685   5.386   4.394   0.270  1.6296 -0.6555 -0.3593
  899THF    H1211686   5.565   4.228   0.380  1.3928  2.8352 -0.2708
  899THF    H1311687   5.564   4.365   0.488 -1.3457  1.9643 -0.1744
  900THF     O111688   4.113   1.913   1.071 -0.3077 -0.2476 -0.3988
  900THF     C211689   4.056   1.933   0.939 -0.4225  0.3873 -0.2491
  900THF     C311690   4.013   1.950   1.162  0.6714  0.1531 -0.3050
  900THF     H411691   4.100   1.867   0.864 -1.8610  0.7719 -1.4641
  900THF     H511692   4.080   2.037   0.919  0.0125  0.5029  0.7667
  900THF     H611693   4.020   1.892   1.254 -0.0207  1.0140  0.3153
  900THF     H711694   4.041   2.050   1.194 -0.5022  0.6848 -0.8714
  900THF     C811695   3.875   1.941   1.103 -0.5715  0.2566  0.4411
  900THF     C911696   3.907   1.905   0.956  0.6321 -0.4787 -0.1222
  900THF    H1011697   3.812   2.031   1.109  0.3597  1.0390 -0.8497
  900THF    H1111698   3.814   1.870   1.158  0.0622  0.5171  1.5062
  900THF    H1211699   3.874   1.803   0.938 -1.5340  0.0836  0.4158
  900THF    H1311700   3.839   1.954   0.886  0.9302 -0.6138 -0.5100
  901THF     O111701   4.551   0.076   0.719 -0.2063 -0.7689  0.1618
  901THF     C211702   4.489   0.015   0.605 -0.1925  0.1336  0.2895
  901THF     C311703   4.451   0.111   0.815  0.3605 -0.3442  0.1597
  901THF     H411704   4.504  -0.092   0.594  0.0477  0.3723 -2.2468
  901THF     H511705   4.523   0.058   0.511  3.1788  0.9848  1.7569
  901THF     H611706   4.438   0.027   0.882 -2.5059  0.6233  0.9331
  901THF     H711707   4.480   0.198   0.873 -0.2468  0.1494 -0.2634
  901THF     C811708   4.330   0.142   0.729 -0.1563  0.0878  0.3599
  901THF     C911709   4.340   0.039   0.625  0.4929  0.0673 -0.5171
  901THF    H1011710   4.342   0.238   0.678  2.7447 -0.2182  0.2891
  901THF    H1111711   4.238   0.133   0.787 -1.7070 -0.9668 -2.0979
  901THF    H1211712   4.290  -0.050   0.664  2.2240 -1.7801 -2.2786
  901THF    H1311713   4.284   0.053   0.533 -0.0130 -0.2518 -0.2634
  902THF     O111714   2.754   3.990   2.002 -0.1062 -0.0142 -0.6812
  902THF     C211715   2.887   3.976   2.051 -0.3313 -0.3967 -0.4096
  902THF     C311716   2.702   3.858   1.968  0.4908  0.2456 -0.0184
  902THF     H411717   2.864   3.997   2.156 -1.2230  0.6605 -0.7944
  902THF     H511718   2.953   4.056   2.019  0.0825 -0.6542 -0.2160
  902THF     H611719   2.607   3.846   2.021 -0.9740 -0.5797 -2.6547
  902THF     H711720   2.673   3.857   1.863 -1.7810 -0.3628  0.5442
  902THF     C811721   2.805   3.746   2.011  0.3832 -0.9968 -0.3988
  902THF     C911722   2.931   3.836   2.018 -0.1950 -0.0053 -0.2224
  902THF    H1011723   2.814   3.661   1.943  0.7161 -0.3433 -1.1820
  902THF    H1111724   2.777   3.710   2.110  1.8407  1.4493  1.0034
  902THF    H1211725   2.997   3.784   2.087 -2.1360  0.5926  2.2337
  902THF    H1311726   2.990   3.824   1.928 -1.5680 -2.0555 -0.8958
  903THF     O111727   0.305   1.036   3.373  0.0783 -0.7436 -0.2535
  903THF     C211728   0.293   1.126   3.488  0.0411  0.0789 -0.4531
  903THF     C311729   0.425   1.090   3.308 -0.2348  0.3977 -0.4950
  903THF     H411730   0.218   1.093   3.559 -0.3251 -0.2344 -0.9752
  903THF     H511731   0.261   1.226   3.459 -1.7684 -0.2154  0.3976
  903THF     H611732   0.464   1.017   3.237 -2.2806 -0.6861 -0.5874
  903THF     H711733   0.411   1.179   3.247 -3.1222  0.8648  0.6728
  903THF     C811734   0.521   1.115   3.421 -0.1229  0.0919 -0.7132
  903THF     C911735   0.432   1.129   3.546 -0.1272 -0.5190 -0.4174
  903THF    H1011736   0.594   1.192   3.399 -1.6728  0.9131 -3.3822
  903THF    H1111737   0.578   1.023   3.436 -0.3866  0.2815  1.9838
  903THF    H1211738   0.460   1.057   3.623  0.9476  0.4389  0.1219
  903THF    H1311739   0.448   1.224   3.598 -0.1929 -1.1687  0.8258
  904THF     O111740   4.691   1.321   1.058 -0.1078  0.4678  0.0948
  904THF     C211741   4.607   1.239   0.978 -1.1514  0.1006 -0.4434
  904THF     C311742   4.756   1.243   1.151 -0.3637  0.8930 -0.1440
  904THF     H411743   4.588   1.286   0.882 -2.2543  1.9704  0.6226
  904THF     H511744   4.513   1.219   1.028 -0.8702 -1.2527 -0.4101
  904THF     H611745   4.861   1.269   1.137 -0.5789  1.1243 -1.5218
  904THF     H711746   4.731   1.264   1.255  0.6773  0.9379  0.1032
  904THF     C811747   4.738   1.090   1.115  0.0423 -1.0278 -0.3810
  904THF     C911748   4.681   1.102   0.972 -0.7052 -0.2046  0.0420
  904THF    H1011749   4.663   1.043   1.180  1.2907  0.4307  2.2534
  904THF    H1111750   4.831   1.037   1.135  0.1898 -0.3352  0.8814
  904THF    H1211751   4.769   1.111   0.908 -0.3429  1.9973  0.7632
  904THF    H1311752   4.628   1.009   0.953  0.5206 -1.6237  2.9359
  905THF     O111753   3.279   1.617   5.327  0.5663  0.1266  0.0418
  905THF     C211754   3.148   1.562   5.364 -0.7407  0.0479  0.0004
  905THF     C311755   3.305   1.723   5.420  0.0028 -0.4877 -0.7108
  905THF     H411756   3.163   1.486   5.441 -1.3498  0.2863  0.3619
  905THF     H511757   3.098   1.521   5.276  0.4814  1.0721 -1.2161
  905THF     H611758   3.334   1.691   5.520  0.1296  0.1788 -0.5245
  905THF     H711759   3.386   1.789   5.387 -0.1153 -0.7103 -1.4768
  905THF     C811760   3.170   1.794   5.430  0.3451  0.2134  0.6260
  905THF     C911761   3.073   1.678   5.430  0.1287  0.4483  0.0656
  905THF    H1011762   3.143   1.853   5.342 -0.3047 -1.0533 -0.0524
  905THF    H1111763   3.162   1.860   5.517 -0.3663  1.4275 -0.3243
  905THF    H1211764   3.037   1.659   5.531 -0.0940  2.4371  0.3894
  905THF    H1311765   2.983   1.707   5.375  0.7520  0.0484 -1.2090
  906THF     O111766   3.429   1.273   3.421  0.0869  0.6180  0.3180
  906THF     C211767   3.502   1.361   3.338  0.3996  0.3005 -0.2373
  906THF     C311768   3.485   1.148   3.424 -0.5313  0.0629  0.3287
  906THF     H411769   3.490   1.455   3.392  0.6599 -0.1610  0.6439
  906THF     H511770   3.458   1.363   3.239  0.3589  1.5409 -0.2118
  906THF     H611771   3.492   1.116   3.528 -0.7560 -0.9977  0.0309
  906THF     H711772   3.417   1.080   3.373  1.4148 -0.2447 -2.0246
  906THF     C811773   3.620   1.158   3.360  0.1946  0.1313 -0.3722
  906THF     C911774   3.648   1.304   3.353 -0.2611 -0.1313 -0.8963
  906THF    H1011775   3.623   1.116   3.259 -0.8514 -0.2408 -0.2607
  906THF    H1111776   3.691   1.101   3.419 -1.1088  1.7813  3.0419
  906THF    H1211777   3.687   1.341   3.447  3.0300 -4.8177 -0.0835
  906THF    H1311778   3.716   1.324   3.270  2.4104 -0.0220  1.1939
  907THF     O111779   4.473   3.243   4.124 -0.2455  0.4193 -0.1620
  907THF     C211780   4.450   3.325   4.243  0.3456  0.0478  0.4084
  907THF     C311781   4.510   3.114   4.159 -0.3653 -0.8110  0.4557
  907THF     H411782   4.392   3.410   4.206  1.5419  0.3002 -1.0124
  907THF     H511783   4.547   3.370   4.262 -0.3509  1.1728  1.3776
  907THF     H611784   4.479   3.038   4.088  0.9234 -2.1359  1.2538
  907THF     H711785   4.618   3.106   4.172 -0.6411 -2.0578  2.2726
  907THF     C811786   4.428   3.096   4.283 -0.6810  0.4242  1.0963
  907THF     C911787   4.392   3.230   4.345 -0.3036 -0.1840  0.0479
  907THF    H1011788   4.480   3.028   4.350 -0.5389 -1.4564 -0.8309
  907THF    H1111789   4.335   3.056   4.244  1.8376 -2.2305 -2.9497
  907THF    H1211790   4.284   3.233   4.350 -0.3569 -0.7497 -0.6954
  907THF    H1311791   4.425   3.249   4.447 -3.3300  0.0772  1.0683
  908THF     O111792   0.918   4.740   4.252 -0.1903 -0.8327 -0.0208
  908THF     C211793   0.997   4.625   4.296  0.1355 -0.4125 -0.4955
  908THF     C311794   0.995   4.815   4.161  1.1813  0.2559 -0.5548
  908THF     H411795   0.925   4.543   4.303  0.5985 -1.3383 -4.3986
  908THF     H511796   1.029   4.657   4.395 -1.1059  2.8668 -1.0270
  908THF     H611797   0.955   4.792   4.062 -0.4976  1.9132 -0.3274
  908THF     H711798   1.008   4.921   4.182 -1.8646  0.6063  0.0454
  908THF     C811799   1.128   4.753   4.166 -0.3544 -0.2356  0.4502
  908THF     C911800   1.104   4.605   4.199  0.1330 -0.1875 -0.3138
  908THF    H1011801   1.185   4.797   4.248  0.9299 -1.9628  0.5648
  908THF    H1111802   1.175   4.766   4.069 -1.0187 -0.5544  0.0795
  908THF    H1211803   1.068   4.546   4.114 -1.7541 -1.8332  1.5061
  908THF    H1311804   1.194   4.560   4.241 -0.2291 -0.3164  0.3371
  909THF     O111805   2.187   4.808   0.598  0.5978 -0.1614  0.0390
  909THF     C211806   2.214   4.736   0.477 -1.0562 -0.0052 -0.1244
  909THF     C311807   2.311   4.853   0.657 -0.2648  0.9164  0.1700
  909THF     H411808   2.226   4.798   0.389 -3.7086  0.3009 -0.3518
  909THF     H511809   2.137   4.668   0.439  0.0864 -0.9695 -0.7772
  909THF     H611810   2.350   4.924   0.585  1.3269  0.9005  0.9750
  909THF     H711811   2.305   4.908   0.751 -0.5793  0.3207  0.5113
  909THF     C811812   2.398   4.720   0.643 -0.3362  0.1678  0.0935
  909THF     C911813   2.335   4.651   0.524  0.3795 -0.6704  0.3197
  909THF    H1011814   2.397   4.665   0.737  2.6867  0.3512  0.3503
  909THF    H1111815   2.502   4.748   0.625 -0.7588 -0.2157 -3.8383
  909THF    H1211816   2.411   4.654   0.446 -0.7652 -1.2849 -0.8643
  909THF    H1311817   2.309   4.547   0.545 -2.1389 -0.3625 -0.8327
  910THF     O111818   0.596   2.552   2.228  0.6918  0.0675 -0.1525
  910THF     C211819   0.678   2.538   2.114 -0.0519  0.1431  0.5266
  910THF     C311820   0.644   2.656   2.306  0.2565 -0.2703  0.3557
  910THF     H411821   0.654   2.606   2.032  0.7667 -0.6986 -0.4386
  910THF     H511822   0.674   2.433   2.086  0.9341  0.1555  0.2897
  910THF     H611823   0.638   2.749   2.249 -0.2416  0.5770  1.7398
  910THF     H711824   0.610   2.670   2.409  1.4241 -0.4902  0.7945
  910THF     C811825   0.793   2.608   2.308  0.2657  0.0790 -0.0520
  910THF     C911826   0.822   2.575   2.162  1.2010 -0.0524  0.3266
  910THF    H1011827   0.791   2.517   2.367 -1.3042  0.5383  0.6562
  910THF    H1111828   0.862   2.676   2.358  2.3011 -1.7851 -0.1550
  910THF    H1211829   0.849   2.658   2.097 -0.9786  1.2986  1.0311
  910THF    H1311830   0.886   2.488   2.148  2.2895  0.7773  0.0374
  911THF     O111831   5.128   0.369   4.901 -0.6371  0.5983  0.2534
  911THF     C211832   5.156   0.238   4.851  0.1423  0.3665 -0.1825
  911THF     C311833   5.145   0.370   5.047  0.1479 -0.0807  0.4104
  911THF     H411834   5.241   0.226   4.784 -1.3101 -2.3038 -1.7382
  911THF     H511835   5.067   0.209   4.795 -0.0825 -0.9396  0.8072
  911THF     H611836   5.186   0.466   5.080  1.9086 -0.8409  0.5472
  911THF     H711837   5.042   0.365   5.082 -1.9252  1.8315 -4.3985
  911THF     C811838   5.221   0.242   5.079  0.0293 -0.6087  0.6099
  911THF     C911839   5.167   0.147   4.969 -0.6131 -0.5950  0.3645
  911THF    H1011840   5.215   0.214   5.184  1.4455 -1.5202  0.4740
  911THF    H1111841   5.329   0.253   5.066 -0.1668  1.5960  0.3720
  911THF    H1211842   5.239   0.068   4.948  0.5255  0.6550 -0.5901
  911THF    H1311843   5.076   0.090   4.986 -1.2779  0.1912 -0.5162
  912THF     O111844   2.620   3.372   2.645 -0.3041  0.1219  0.3164
  912THF     C211845   2.557   3.466   2.724  0.2290  0.6771  0.2495
  912THF     C311846   2.696   3.284   2.724 -0.6647 -1.0510  0.4386
  912THF     H411847   2.478   3.513   2.666  1.2471 -0.5044 -2.2715
  912THF     H511848   2.628   3.540   2.761  0.4503  0.6704 -0.1539
  912THF     H611849   2.704   3.190   2.669  0.6176 -0.0989 -1.0751
  912THF     H711850   2.797   3.324   2.734 -1.0501 -0.1358  0.7733
  912THF     C811851   2.620   3.282   2.860 -0.4698 -0.3615 -0.0509
  912THF     C911852   2.511   3.383   2.837  0.0145  0.6527 -0.0689
  912THF    H1011853   2.684   3.316   2.941 -3.8143  1.0387  2.2427
  912THF    H1111854   2.577   3.184   2.879  2.8596 -1.8001  0.7911
  912THF    H1211855   2.421   3.334   2.798 -0.0864 -0.4334  1.4646
  912THF    H1311856   2.474   3.437   2.925 -2.7945  0.8229 -1.2353
  913THF     O111857   0.740   2.551   5.231  0.0656 -0.6417 -0.0368
  913THF     C211858   0.814   2.484   5.126  0.4819 -0.1574 -0.2162
  913THF     C311859   0.615   2.595   5.169 -0.0440  0.0330  0.0818
  913THF     H411860   0.894   2.425   5.171  1.2671 -1.1276 -2.7012
  913THF     H511861   0.859   2.571   5.078 -0.5234 -0.6228 -2.1241
  913THF     H611862   0.544   2.612   5.250 -0.1750 -0.2567  0.0296
  913THF     H711863   0.610   2.691   5.118  1.1390  0.5083  0.8102
  913THF     C811864   0.586   2.491   5.063 -0.5671  0.0290 -0.2614
  913THF     C911865   0.712   2.412   5.044 -0.3355 -0.6968 -0.7173
  913THF    H1011866   0.555   2.539   4.971 -2.0495 -0.6914 -0.1800
  913THF    H1111867   0.507   2.428   5.104  0.4100 -0.2656  1.2450
  913THF    H1211868   0.694   2.317   5.094  2.4344 -1.0763 -0.2429
  913THF    H1311869   0.731   2.396   4.937 -1.8970 -1.8183 -0.8604
  914THF     O111870   1.533   1.910   2.262  0.6477  0.2538 -0.7271
  914THF     C211871   1.609   2.016   2.302  0.4330  0.1355  0.0217
  914THF     C311872   1.585   1.793   2.313 -0.9588  0.1682 -0.4625
  914THF     H411873   1.554   2.062   2.384 -0.7017 -1.4713  0.2130
  914THF     H511874   1.609   2.100   2.234 -1.5652  0.0240 -0.1666
  914THF     H611875   1.565   1.776   2.419 -0.3626 -1.2631 -0.5529
  914THF     H711876   1.560   1.702   2.258 -1.7050  0.7897 -1.1664
  914THF     C811877   1.737   1.815   2.283  0.7288 -0.2790 -0.7680
  914THF     C911878   1.751   1.961   2.318 -0.1547 -0.4312 -0.8599
  914THF    H1011879   1.761   1.799   2.177  4.9654  1.0981 -0.2121
  914THF    H1111880   1.801   1.754   2.347  1.3567  0.9351 -0.2013
  914THF    H1211881   1.791   1.961   2.419 -1.1303 -0.3526 -0.4608
  914THF    H1311882   1.819   2.014   2.252  2.4674  3.3144  4.2216
  915THF     O111883   3.680   2.048   2.622 -0.2080  0.6284 -0.8955
  915THF     C211884   3.732   1.947   2.542  0.4102  0.3769  0.1972
  915THF     C311885   3.552   2.091   2.569 -0.3105  0.5378 -0.9026
  915THF     H411886   3.673   1.855   2.545 -2.0885  1.8645 -0.1225
  915THF     H511887   3.835   1.917   2.560  0.4127  1.5629  2.5100
  915THF     H611888   3.481   2.016   2.602 -2.6305  1.6751 -2.9250
  915THF     H711889   3.507   2.184   2.605 -1.3455 -0.1529 -0.3891
  915THF     C811890   3.576   2.075   2.419 -0.2887 -0.5917 -0.3658
  915THF     C911891   3.713   2.004   2.405  0.0276  0.3551 -0.3724
  915THF    H1011892   3.571   2.175   2.376 -0.8803  0.6035  2.2792
  915THF    H1111893   3.501   2.011   2.371 -0.1752 -1.8443  1.0329
  915THF    H1211894   3.705   1.926   2.330  0.2485 -1.4483  1.3966
  915THF    H1311895   3.804   2.062   2.390 -0.0664 -0.0545 -3.0367
  916THF     O111896   3.659   4.829   2.048  0.3493  0.6078  0.1545
  916THF     C211897   3.611   4.962   2.008  0.6625 -0.5376 -0.3099
  916THF     C311898   3.574   4.787   2.157 -0.1880 -0.2472  1.0257
  916THF     H411899   3.527   4.962   1.939 -0.6127  0.7873  1.1660
  916THF     H511900   3.691   5.016   1.958 -0.3527  1.0801 -0.2613
  916THF     H611901   3.476   4.756   2.119  0.7152  0.8076 -2.5709
  916THF     H711902   3.628   4.712   2.215  0.4925 -0.6450 -0.0752
  916THF     C811903   3.546   4.909   2.237 -0.4503  0.1962 -0.0948
  916THF     C911904   3.577   5.022   2.145 -0.0671 -1.1154 -0.3038
  916THF    H1011905   3.602   4.920   2.330 -1.3934  1.3083  0.3605
  916THF    H1111906   3.445   4.911   2.277  0.5535 -2.1845  2.9477
  916THF    H1211907   3.492   5.091   2.142  1.1994  0.7268  2.0753
  916THF    H1311908   3.659   5.081   2.186 -1.6752 -0.2038  1.8121
  917THF     O111909   3.313   4.306   0.935 -0.0760 -0.1161  0.1196
  917THF     C211910   3.173   4.323   0.966 -0.5444 -0.3325  0.0885
  917THF     C311911   3.376   4.410   1.019  0.0312 -0.1707 -0.1763
  917THF     H411912   3.121   4.228   0.980 -0.6102 -0.7340 -2.3238
  917THF     H511913   3.129   4.376   0.882  2.5499  0.4797 -1.1644
  917THF     H611914   3.438   4.367   1.098  2.5946  0.8767 -1.5049
  917THF     H711915   3.437   4.473   0.954  0.2785 -0.7819 -0.5485
  917THF     C811916   3.265   4.492   1.085  0.0138  0.1225  0.2278
  917THF     C911917   3.154   4.391   1.103 -0.0639 -0.2625 -0.4472
  917THF    H1011918   3.237   4.579   1.026  0.3110  0.8100  1.0837
  917THF    H1111919   3.296   4.526   1.184  1.2690 -1.4554  0.4180
  917THF    H1211920   3.164   4.312   1.177  0.9469  0.9443  0.7783
  917THF    H1311921   3.051   4.427   1.108 -0.0283  0.2181 -2.4451
  918THF     O111922   0.801   0.812   2.810  0.1462 -0.1358  0.2776
  918THF     C211923   0.763   0.696   2.736  0.2021 -0.0208 -1.0115
  918THF     C311924   0.769   0.918   2.723 -1.0704 -0.2836  0.0187
  918THF     H411925   0.658   0.673   2.754 -0.2738  1.4927 -1.6898
  918THF     H511926   0.821   0.611   2.771  0.2926  0.7020  0.6797
  918THF     H611927   0.662   0.938   2.716 -1.2381 -1.4604 -1.2807
  918THF     H711928   0.816   1.010   2.756 -0.2892 -0.8336  0.4525
  918THF     C811929   0.835   0.878   2.594  0.3641 -0.5899  0.1826
  918THF     C911930   0.794   0.732   2.591  0.7326  0.3344  0.5150
  918THF    H1011931   0.944   0.887   2.599  0.3176 -0.0052  0.1702
  918THF    H1111932   0.803   0.920   2.499  1.8170  0.0075 -0.0770
  918THF    H1211933   0.706   0.730   2.526  1.3810 -2.8641 -0.4424
  918THF    H1311934   0.865   0.668   2.539  1.7366 -0.3520  2.6247
  919THF     O111935   3.751   1.002   2.244 -0.5265 -0.1988  0.2685
  919THF     C211936   3.832   1.118   2.210  0.4661 -0.1976 -0.9349
  919THF     C311937   3.678   0.963   2.125  0.3553 -0.2902  0.0260
  919THF     H411938   3.935   1.085   2.202  0.8379  0.5351  0.5350
  919THF     H511939   3.834   1.199   2.283 -0.9610 -0.2325 -0.8176
  919THF     H611940   3.680   0.859   2.094  0.4913 -0.4557  0.5788
  919THF     H711941   3.579   1.002   2.145  1.0547  1.6400 -0.0313
  919THF     C811942   3.723   1.052   2.013 -0.2309 -0.1020 -0.5256
  919THF     C911943   3.766   1.179   2.091  0.6046  0.3205  0.9759
  919THF    H1011944   3.644   1.081   1.944  1.1979  1.0314 -1.7572
  919THF    H1111945   3.815   1.013   1.971  0.6821  0.1385  1.1678
  919THF    H1211946   3.844   1.233   2.038  0.2663  1.3573  1.4951
  919THF    H1311947   3.684   1.247   2.115 -0.2729 -0.5941  0.6393
  920THF     O111948   4.424   0.560   3.129 -0.3171  0.6503  0.0807
  920THF     C211949   4.488   0.554   3.258  0.2086 -0.1893  0.6190
  920THF     C311950   4.519   0.549   3.023  0.0167 -0.2630  0.1855
  920THF     H411951   4.508   0.452   3.290 -1.1150 -1.0853 -1.2687
  920THF     H511952   4.425   0.604   3.332  0.6894 -0.0316  0.9362
  920THF     H611953   4.558   0.447   3.026 -0.4569 -0.4445  0.2063
  920THF     H711954   4.471   0.570   2.927  0.9057 -0.8488 -0.3987
  920THF     C811955   4.613   0.653   3.075 -0.1359 -0.5311 -0.0692
  920THF     C911956   4.613   0.631   3.230 -0.3828  0.1544  0.6089
  920THF    H1011957   4.568   0.750   3.055 -1.1225 -1.2689 -1.5724
  920THF    H1111958   4.709   0.641   3.024  0.0926 -0.9364  0.4551
  920THF    H1211959   4.703   0.575   3.255  0.0658 -0.4359 -1.9962
  920THF    H1311960   4.627   0.732   3.269 -0.2769  1.2663 -2.0839
  921THF     O111961   1.654   4.269   2.217  0.8725 -0.0799  0.0405
  921THF     C211962   1.701   4.187   2.326  0.2969  0.6156  0.2038
  921THF     C311963   1.569   4.368   2.269 -0.2794 -0.7872  0.0307
  921THF     H411964   1.776   4.243   2.382 -0.3981  2.1178 -0.3017
  921THF     H511965   1.725   4.091   2.281  0.6881  0.4810  0.6983
  921THF     H611966   1.636   4.447   2.304 -0.4984 -1.2200  1.4987
  921THF     H711967   1.501   4.404   2.192  1.1880  1.0224 -0.4925
  921THF     C811968   1.506   4.314   2.390  0.2551 -0.2064  0.1817
  921THF     C911969   1.575   4.179   2.407  0.3220 -0.5840 -0.5347
  921THF    H1011970   1.399   4.308   2.372  0.4228 -0.9637 -0.6179
  921THF    H1111971   1.529   4.377   2.476 -0.5974  1.5116 -0.8001
  921THF    H1211972   1.601   4.151   2.509  0.1402  0.9764 -0.0225
  921THF    H1311973   1.509   4.106   2.361 -1.4387 -0.2470  1.3071
  922THF     O111974   2.500   3.697   1.244  0.2948 -0.2371 -0.0515
  922THF     C211975   2.382   3.753   1.198  0.9795  0.1148  0.4832
  922THF     C311976   2.497   3.551   1.229 -0.3129  0.2146 -0.1775
  922THF     H411977   2.404   3.795   1.100 -2.8327 -0.2505 -0.6666
  922THF     H511978   2.351   3.829   1.271 -1.7128 -1.5275  1.1730
  922THF     H611979   2.591   3.521   1.181  0.8744  0.5159  1.8394
  922THF     H711980   2.489   3.495   1.322  1.3359  1.5879  0.8469
  922THF     C811981   2.385   3.533   1.132 -0.2073  0.9170 -0.0031
  922THF     C911982   2.291   3.636   1.179  0.5648  0.2595 -0.3948
  922THF    H1011983   2.344   3.434   1.117 -0.7269  1.0721  0.3634
  922THF    H1111984   2.410   3.558   1.029 -1.3525  1.3349 -0.1912
  922THF    H1211985   2.208   3.653   1.110  0.1705 -0.6128 -0.1622
  922THF    H1311986   2.242   3.610   1.273  0.3465 -1.3333 -0.9150
  923THF     O111987   1.615   1.170   0.606  0.0941 -0.3426  0.1154
  923THF     C211988   1.535   1.291   0.585  0.4058  0.6862 -0.2575
  923THF     C311989   1.689   1.137   0.494 -0.2321 -0.1396 -0.5168
  923THF     H411990   1.536   1.351   0.676  0.0901 -0.7156  0.7175
  923THF     H511991   1.436   1.251   0.564  0.9726 -0.6494 -0.5088
  923THF     H611992   1.788   1.101   0.521  0.1663  1.0825 -0.2755
  923THF     H711993   1.635   1.077   0.421  2.3380 -0.8764 -1.9592
  923THF     C811994   1.715   1.272   0.430 -0.2219 -0.0202  0.0480
  923THF     C911995   1.585   1.349   0.453  0.3276  0.0924  0.5812
  923THF    H1011996   1.717   1.270   0.321 -1.0021 -0.0900  0.0309
  923THF    H1111997   1.788   1.335   0.482 -0.3075 -0.2677  0.4685
  923THF    H1211998   1.605   1.455   0.467 -1.3046  0.7702 -1.5675
  923THF    H1311999   1.507   1.323   0.381 -0.8962 -1.4842  2.3633
  924THF     O112000   2.842   5.168   3.608  0.2614 -0.1317 -0.4513
  924THF     C212001   2.884   5.037   3.644  0.1728  0.0479  0.1511
  924THF     C312002   2.722   5.193   3.679  0.0408  0.1760  0.6314
  924THF     H412003   2.939   5.036   3.738  1.0950 -0.8480 -0.3747
  924THF     H512004   2.957   5.002   3.571  0.6505  1.4527 -0.0947
  924THF     H612005   2.734   5.214   3.785 -0.2431  1.1246  0.4838
  924THF     H712006   2.662   5.274   3.636  2.1458  2.7623  2.2466
  924THF     C812007   2.652   5.059   3.666 -0.1655  0.2414 -0.2154
  924THF     C912008   2.762   4.951   3.646 -0.0152 -0.5718 -0.4933
  924THF    H1012009   2.593   5.068   3.575  2.5331  1.1582 -1.9994
  924THF    H1112010   2.583   5.032   3.746  1.2001 -1.7170  0.3780
  924THF    H1212011   2.761   4.894   3.738  2.8590  0.1475  0.0873
  924THF    H1312012   2.749   4.891   3.555 -0.9889  2.1383 -2.2726
  925THF     O112013   4.036   3.476   1.837  0.7173  0.3445  0.6044
  925THF     C212014   4.029   3.548   1.715 -0.6920  0.4341 -0.3513
  925THF     C312015   3.912   3.488   1.904  0.8240  0.8242  0.0379
  925THF     H412016   4.001   3.479   1.635 -1.2179 -1.0481  1.0445
  925THF     H512017   4.128   3.581   1.687 -0.1945 -0.1323  0.6573
  925THF     H612018   3.859   3.396   1.926  0.9236  1.0247  1.1903
  925THF     H712019   3.921   3.519   2.009 -0.2896  0.9761  0.0919
  925THF     C812020   3.820   3.580   1.816 -0.2661  0.4708 -0.9185
  925THF     C912021   3.925   3.656   1.738  0.4554  0.7760  0.1456
  925THF    H1012022   3.759   3.639   1.884 -0.6558 -0.7406 -0.1709
  925THF    H1112023   3.749   3.526   1.753  0.3669 -1.7897  0.2083
  925THF    H1212024   3.889   3.696   1.643 -3.0307 -1.7430  0.1941
  925THF    H1312025   3.970   3.737   1.795  1.3792  3.3404 -3.8390
  926THF     O112026   2.613   1.628   3.279  0.3630 -0.1338  0.5210
  926THF     C212027   2.476   1.588   3.299  0.1484  0.1172  0.4227
  926THF     C312028   2.640   1.752   3.340 -0.0291  0.2051 -0.2423
  926THF     H412029   2.481   1.494   3.355 -1.5528  0.2371  0.8560
  926THF     H512030   2.417   1.580   3.208  2.3497  0.9285 -1.1337
  926THF     H612031   2.745   1.749   3.367  0.7154 -0.3591 -2.8677
  926THF     H712032   2.635   1.831   3.264  2.4795  0.5040 -0.1730
  926THF     C812033   2.527   1.769   3.445  0.1396  0.3882 -0.1361
  926THF     C912034   2.412   1.705   3.373 -0.3153  0.5742 -0.0652
  926THF    H1012035   2.515   1.875   3.464  0.1789  0.6296 -1.3787
  926THF    H1112036   2.552   1.713   3.535  0.3641 -0.5248 -0.7422
  926THF    H1212037   2.336   1.666   3.442  0.8241 -1.0106  0.3398
  926THF    H1312038   2.360   1.769   3.301 -0.0381  1.3329  0.3914
  927THF     O112039   1.506   5.056   5.467 -0.0855  0.2793  0.2555
  927THF     C212040   1.644   5.099   5.475  0.4955  0.3167  0.2410
  927THF     C312041   1.455   5.105   5.340 -0.9616 -0.1839  0.3131
  927THF     H412042   1.696   5.013   5.518 -1.7807 -0.0569  2.4926
  927THF     H512043   1.672   5.187   5.532  2.7316  1.5060 -2.4869
  927THF     H612044   1.438   5.017   5.279  3.2262 -1.9436  1.3557
  927THF     H712045   1.358   5.154   5.349  0.2035  1.9857  2.0994
  927THF     C812046   1.565   5.182   5.264 -0.6566  0.1107  0.2090
  927THF     C912047   1.691   5.119   5.329  0.5917  0.0692 -0.2875
  927THF    H1012048   1.565   5.289   5.283  1.7055  0.0728  0.6952
  927THF    H1112049   1.572   5.179   5.155  1.7138  0.7956  0.2961
  927THF    H1212050   1.711   5.028   5.273  0.8549  0.3012 -0.5731
  927THF    H1312051   1.778   5.185   5.322  0.8443 -0.3519 -1.2575
  928THF     O112052   1.189   4.912   3.701  0.4517 -0.0985  0.3260
  928THF     C212053   1.125   4.793   3.649  0.3015  0.1919  0.4988
  928THF     C312054   1.317   4.933   3.635  0.4897 -0.3321  0.0083
  928THF     H412055   1.062   4.815   3.562 -0.0319  0.7450  0.8742
  928THF     H512056   1.062   4.751   3.728 -1.7716  1.2832 -0.4778
  928THF     H612057   1.302   4.976   3.536 -0.6822 -0.4625  0.1171
  928THF     H712058   1.386   5.002   3.684  1.7091 -1.4495 -0.0871
  928THF     C812059   1.376   4.789   3.617  1.2315  0.2694  0.2276
  928THF     C912060   1.243   4.702   3.608 -0.4385  0.1142  0.0238
  928THF    H1012061   1.424   4.758   3.710 -1.4217  3.3491  2.8858
  928THF    H1112062   1.437   4.771   3.529 -1.3140  0.5382 -1.7128
  928THF    H1212063   1.228   4.653   3.512  1.6207 -0.4761 -0.0388
  928THF    H1312064   1.252   4.623   3.682 -0.2192  1.8343  1.9324
  929THF     O112065   2.453   4.826   4.786 -0.0662  0.3670  0.2678
  929THF     C212066   2.390   4.719   4.862 -0.4299 -0.7625  0.3110
  929THF     C312067   2.405   4.825   4.649  0.0278 -0.4884  0.4210
  929THF     H412068   2.349   4.770   4.949  4.4815 -0.2180  2.6292
  929THF     H512069   2.472   4.656   4.898  0.8727  1.1237  0.8023
  929THF     H612070   2.335   4.907   4.635 -0.3777  0.4093  5.5693
  929THF     H712071   2.484   4.872   4.591  0.7492 -1.9842  0.1446
  929THF     C812072   2.354   4.684   4.621  0.2249 -0.1292  0.3725
  929THF     C912073   2.294   4.652   4.760  0.1593  0.6659  0.6073
  929THF    H1012074   2.434   4.615   4.595  0.8564  0.7712 -0.1076
  929THF    H1112075   2.281   4.667   4.541 -2.6122 -1.2640  2.9926
  929THF    H1212076   2.197   4.700   4.772 -0.8616 -1.1064 -0.1256
  929THF    H1312077   2.263   4.548   4.767 -0.7281  0.8637 -0.1568
  930THF     O112078   2.571   3.413   5.345 -0.1579 -0.3837  0.1646
  930THF     C212079   2.514   3.423   5.215  0.1773  0.7619  0.3271
  930THF     C312080   2.693   3.482   5.334  0.1276 -0.4216 -0.0942
  930THF     H412081   2.479   3.526   5.210 -0.0761  0.6105 -1.5968
  930THF     H512082   2.427   3.357   5.212  0.5346  0.2042  1.4754
  930THF     H612083   2.680   3.590   5.328 -1.9823 -0.6864 -1.2209
  930THF     H712084   2.760   3.451   5.415  0.0879 -1.8787 -0.5937
  930THF     C812085   2.755   3.420   5.213 -0.5928 -0.2286  0.1727
  930THF     C912086   2.631   3.400   5.118 -0.2718 -0.4541  0.4079
  930THF    H1012087   2.784   3.318   5.242 -2.3149 -0.7947 -0.0007
  930THF    H1112088   2.846   3.473   5.185 -0.7141  1.2660  2.4002
  930THF    H1212089   2.629   3.473   5.038  1.2061  0.4813  1.1817
  930THF    H1312090   2.629   3.297   5.082  1.5392 -0.6730  0.8454
  931THF     O112091   2.519   4.755   4.060 -0.2848  0.4892  0.2366
  931THF     C212092   2.433   4.735   4.171 -0.1559 -0.1310 -0.9800
  931THF     C312093   2.628   4.664   4.073  0.1674 -0.2116 -0.1903
  931THF     H412094   2.361   4.655   4.156 -1.1231  0.8078 -1.5479
  931THF     H512095   2.387   4.833   4.184  2.1307  1.2492 -2.5298
  931THF     H612096   2.596   4.565   4.040  2.0798 -0.9599  0.1008
  931THF     H712097   2.712   4.706   4.019 -0.7294 -0.5774 -1.9524
  931THF     C812098   2.651   4.664   4.233  0.6363 -0.2011 -0.5300
  931THF     C912099   2.515   4.708   4.298  0.5817  0.0582  0.3808
  931THF    H1012100   2.732   4.730   4.262  1.8911 -2.0996  0.4761
  931THF    H1112101   2.687   4.566   4.264  0.4669  0.2655  1.2173
  931THF    H1212102   2.470   4.641   4.370 -2.7971  2.1783  0.4571
  931THF    H1312103   2.538   4.794   4.362  1.6099 -0.6825  1.0374
  932THF     O112104   2.099   1.048   3.054 -0.0755 -0.6625 -0.1613
  932THF     C212105   2.080   1.143   3.158  0.2669 -0.3561  0.1728
  932THF     C312106   1.988   0.961   3.056  0.1845 -0.2829  0.1735
  932THF     H412107   2.142   1.230   3.139  1.6275 -0.8882  1.8765
  932THF     H512108   2.118   1.110   3.255  0.7218  1.1875  0.5527
  932THF     H612109   1.954   0.930   2.957 -0.4028  1.8171 -0.3391
  932THF     H712110   2.013   0.872   3.114  0.1666 -1.3326 -1.3884
  932THF     C812111   1.871   1.037   3.116  0.2374 -0.1250 -0.3147
  932THF     C912112   1.931   1.167   3.153 -0.3721 -0.6001 -0.3966
  932THF    H1012113   1.828   0.997   3.208 -0.6634  0.3749 -0.5027
  932THF    H1112114   1.789   1.052   3.046 -0.6206 -0.4900  0.5778
  932THF    H1212115   1.918   1.235   3.069 -1.5687 -1.8063 -1.2238
  932THF    H1312116   1.880   1.207   3.240 -4.7357  1.3573 -3.4949
  933THF     O112117   0.837   5.273   1.119  0.3940  0.1620  0.5059
  933THF     C212118   0.786   5.205   1.017  0.6736 -0.2603  0.2910
  933THF     C312119   0.870   5.179   1.223  0.6920  0.4803  0.0956
  933THF     H412120   0.803   5.256   0.922  0.1912 -1.2116 -0.3232
  933THF     H512121   0.678   5.204   1.035  0.5819 -1.3148 -0.2230
  933THF     H612122   0.937   5.218   1.299 -1.1813  1.0261  1.5301
  933THF     H712123   0.777   5.166   1.278  0.0117 -0.0414 -1.1219
  933THF     C812124   0.911   5.055   1.151 -0.3928  0.7070  0.6742
  933THF     C912125   0.847   5.069   1.015 -0.0480 -0.0599  0.2428
  933THF    H1012126   0.898   4.955   1.194  1.6952  1.2220  2.6996
  933THF    H1112127   1.019   5.059   1.143  0.0501 -0.8057  4.1077
  933THF    H1212128   0.916   5.072   0.931 -1.0789  3.1088 -0.6521
  933THF    H1312129   0.772   4.993   0.995 -0.0563 -0.0921  0.3937
  934THF     O112130   4.788   2.444   3.140  0.1177  0.3310  0.2129
  934THF     C212131   4.830   2.530   3.240  0.2684  0.5738  0.5392
  934THF     C312132   4.871   2.327   3.126  0.1163 -0.3972  0.1422
  934THF     H412133   4.747   2.574   3.295  0.3840  0.6072  0.6874
  934THF     H512134   4.878   2.618   3.199 -1.5257  1.5453  0.4111
  934THF     H612135   4.811   2.243   3.093 -0.8727 -0.3121  1.6408
  934THF     H712136   4.957   2.344   3.061 -1.0490  0.3099 -1.2598
  934THF     C812137   4.897   2.307   3.276 -0.2825 -0.5016 -0.5506
  934THF     C912138   4.922   2.450   3.336 -0.1146 -0.1259  0.0092
  934THF    H1012139   4.984   2.242   3.274  0.6047  0.6375 -0.5245
  934THF    H1112140   4.814   2.248   3.314  0.7642 -1.9102 -0.3948
  934THF    H1212141   4.906   2.455   3.443 -1.6450  0.4033 -0.2145
  934THF    H1312142   5.020   2.488   3.307 -0.4708  0.2019 -0.8092
  935THF     O112143   2.591   5.063   5.148  0.0297  0.4853 -0.5788
  935THF     C212144   2.563   5.036   5.011 -0.3794  0.1615 -0.7354
  935THF     C312145   2.611   5.200   5.166  0.1179 -0.2561 -0.0226
  935THF     H412146   2.454   5.036   5.001 -0.4439 -0.3352 -0.0661
  935THF     H512147   2.591   4.935   4.983 -0.8919 -0.4328  0.7981
  935THF     H612148   2.517   5.255   5.163  0.1706 -0.0977  0.9460
  935THF     H712149   2.655   5.225   5.262  1.6183 -1.6386 -0.3113
  935THF     C812150   2.693   5.234   5.042  0.6035  0.1045  0.3036
  935THF     C912151   2.634   5.143   4.933  1.0324  0.4950  0.7772
  935THF    H1012152   2.798   5.221   5.069  0.2306 -2.7575  0.6058
  935THF    H1112153   2.682   5.339   5.015  1.6789  0.3783  0.8361
  935THF    H1212154   2.565   5.204   4.874  0.6514 -0.8226 -0.1807
  935THF    H1312155   2.710   5.099   4.868  1.2112  1.5495  0.2636
  936THF     O112156   2.183   2.847   4.910  0.1837  0.3630  0.0730
  936THF     C212157   2.244   2.952   4.994 -0.1443 -0.3268  0.2845
  936THF     C312158   2.041   2.856   4.905 -0.0786  0.8742 -0.1121
  936THF     H412159   2.293   3.012   4.918 -1.4952  0.0303 -0.3416
  936THF     H512160   2.318   2.908   5.060  0.1771 -1.6944 -0.9344
  936THF     H612161   1.997   2.854   4.805 -0.5810  0.9123  0.1044
  936THF     H712162   1.992   2.783   4.969  0.1781  2.1778  1.6287
  936THF     C812163   2.019   2.996   4.967  0.2899  0.1635 -0.2590
  936THF     C912164   2.132   3.022   5.064 -0.1598  0.5105 -0.3207
  936THF    H1012165   1.927   2.998   5.027  0.8378 -0.3870  0.6258
  936THF    H1112166   2.030   3.072   4.890  1.6054 -3.0711 -3.5489
  936THF    H1212167   2.150   3.128   5.083  1.0021  0.4070 -0.7713
  936THF    H1312168   2.114   2.976   5.162  0.8870  0.0101 -0.3488
  937THF     O112169   0.992   4.066   0.933 -0.1485  0.3643  0.1932
  937THF     C212170   0.896   4.164   0.986  0.0152 -0.2688 -0.7540
  937THF     C312171   0.988   3.950   1.027  0.4642  0.1525  0.3090
  937THF     H412172   0.870   4.243   0.916 -2.6688 -0.4944 -0.1629
  937THF     H512173   0.935   4.211   1.076 -2.1680  1.5629 -0.6856
  937THF     H612174   1.037   3.860   0.991 -1.3226 -1.3568  1.5152
  937THF     H712175   1.025   3.984   1.124  0.9936 -1.3672  0.6712
  937THF     C812176   0.839   3.933   1.034  0.1994 -0.1336 -0.3679
  937THF     C912177   0.774   4.078   1.022  0.2848 -0.6869 -0.0390
  937THF    H1012178   0.813   3.900   1.135 -0.8506  1.7872  0.0434
  937THF    H1112179   0.796   3.861   0.965 -1.8252  0.5354  0.1249
  937THF    H1212180   0.693   4.080   0.948 -2.0374 -4.1684  2.1420
  937THF    H1312181   0.745   4.107   1.122 -0.6899 -0.8279 -0.2704
  938THF     O112182   0.481   0.268   2.625  0.4157  0.4788  0.1389
  938THF     C212183   0.547   0.311   2.748  0.3122 -0.1587  0.1143
  938THF     C312184   0.426   0.140   2.650  1.0207  0.1707  0.2798
  938THF     H412185   0.558   0.417   2.726 -1.9954  0.1008 -0.0372
  938THF     H512186   0.650   0.275   2.752 -0.3611 -2.2300 -0.0033
  938THF     H612187   0.352   0.108   2.575 -0.3144 -0.6568  1.8875
  938THF     H712188   0.501   0.062   2.638 -0.3039 -1.1977  0.4396
  938THF     C812189   0.381   0.140   2.799  0.1577  0.3328  0.2653
  938THF     C912190   0.465   0.251   2.866 -0.3195 -0.1225 -0.3762
  938THF    H1012191   0.394   0.040   2.841  3.4666  0.0851 -1.0162
  938THF    H1112192   0.275   0.164   2.801  0.6104  2.9780 -1.7886
  938THF    H1212193   0.391   0.313   2.917 -0.7296 -2.6991  2.4947
  938THF    H1312194   0.527   0.197   2.937 -1.6394  1.0138  1.7823
  939THF     O112195   3.751   5.487   4.318 -0.0074  0.1756  0.4571
  939THF     C212196   3.871   5.525   4.387  0.2599  0.0037  0.1931
  939THF     C312197   3.769   5.362   4.260 -0.0095  1.1926  0.7228
  939THF     H412198   3.864   5.588   4.475 -1.8371 -0.8999  0.7510
  939THF     H512199   3.922   5.589   4.315  0.0299  1.1127  0.9891
  939THF     H612200   3.673   5.310   4.253  2.0968 -3.6958  2.9813
  939THF     H712201   3.802   5.365   4.156 -2.9544 -1.3732 -0.4236
  939THF     C812202   3.858   5.277   4.353 -0.0646  0.3148  0.0169
  939THF     C912203   3.948   5.393   4.410  0.1563 -0.2903 -0.5449
  939THF    H1012204   3.917   5.194   4.315  1.6252  0.3125  2.4659
  939THF    H1112205   3.788   5.237   4.427  1.3284  0.3977  1.4279
  939THF    H1212206   3.963   5.388   4.518  0.7166 -2.5019 -0.6813
  939THF    H1312207   4.040   5.410   4.353  0.5304  1.6837  0.5435
  940THF     O112208   4.862   0.168   0.623 -0.1310 -0.2226  0.7554
  940THF     C212209   4.939   0.185   0.504 -0.5529  0.8102 -0.3037
  940THF     C312210   4.792   0.292   0.635 -0.1134  0.2045  0.1345
  940THF     H412211   4.981   0.092   0.468 -0.8931  1.7869 -3.5777
  940THF     H512212   5.023   0.242   0.542 -0.8790  0.9871  0.1650
  940THF     H612213   4.694   0.285   0.682  0.4237 -0.6276  1.1876
  940THF     H712214   4.860   0.370   0.672  0.6098  0.2001 -1.1154
  940THF     C812215   4.770   0.338   0.492  0.3189  0.6501  0.6750
  940THF     C912216   4.841   0.248   0.401 -0.0966  0.1062  0.2662
  940THF    H1012217   4.817   0.436   0.483  1.0516  0.3832  1.4916
  940THF    H1112218   4.666   0.352   0.463  0.1919  0.5290  1.0694
  940THF    H1212219   4.776   0.170   0.363 -0.2139  0.2984  0.0691
  940THF    H1312220   4.883   0.299   0.314 -0.9088  0.0015 -0.1897
  941THF     O112221   3.518   2.641   1.032 -0.4824 -0.0957 -0.6885
  941THF     C212222   3.598   2.661   0.921 -0.4373  0.1320 -0.4427
  941THF     C312223   3.557   2.737   1.132 -0.2704  0.8220  0.4734
  941THF     H412224   3.548   2.635   0.828 -0.4990 -2.2904  0.1979
  941THF     H512225   3.684   2.594   0.925  0.4626  1.2209 -0.9219
  941THF     H612226   3.469   2.781   1.179 -2.0089  0.7143 -2.4034
  941THF     H712227   3.624   2.687   1.202  0.1292  1.7228  0.7353
  941THF     C812228   3.649   2.837   1.058  0.0759 -0.1459  0.2003
  941THF     C912229   3.629   2.805   0.911 -0.7943 -0.4866  0.1996
  941THF    H1012230   3.752   2.821   1.088 -0.2835 -0.1070  1.5623
  941THF    H1112231   3.629   2.938   1.093  0.1037  0.0641 -0.3787
  941THF    H1212232   3.543   2.857   0.868  1.9710  3.0569 -1.6029
  941THF    H1312233   3.705   2.833   0.838 -0.0321 -1.2857  0.6735
  942THF     O112234   4.280   3.818   3.164 -0.2079 -0.8130  0.8996
  942THF     C212235   4.167   3.774   3.239  0.7053 -0.1123  0.0270
  942THF     C312236   4.305   3.955   3.166  0.3259 -0.1092 -0.2569
  942THF     H412237   4.193   3.697   3.312 -1.4869  0.2922  1.3322
  942THF     H512238   4.093   3.742   3.167  0.3846 -0.3635  0.4641
  942THF     H612239   4.381   3.970   3.243 -0.4835 -0.8052  0.6951
  942THF     H712240   4.337   4.006   3.075 -3.1998  0.4591 -1.2982
  942THF     C812241   4.172   4.008   3.217  0.0508  0.2932 -0.2479
  942THF     C912242   4.113   3.897   3.314  0.3073 -0.5765  0.2110
  942THF    H1012243   4.110   4.034   3.132 -0.8399  0.2897  0.3875
  942THF    H1112244   4.172   4.101   3.274 -1.2188  0.1430  0.0286
  942THF    H1212245   4.161   3.903   3.412 -0.6865 -2.1227  0.8337
  942THF    H1312246   4.005   3.909   3.309  0.4715  0.8023 -0.7742
  943THF     O112247   4.888   0.555   4.237  0.0380  0.0893  0.0500
  943THF     C212248   4.945   0.434   4.188  0.4340 -0.6610  0.0528
  943THF     C312249   4.780   0.601   4.153 -0.1497  0.5480  0.3569
  943THF     H412250   4.962   0.362   4.268 -2.5159  1.1594  2.5430
  943THF     H512251   5.041   0.459   4.142  0.5901  1.4908  1.3792
  943THF     H612252   4.713   0.674   4.199 -2.4526 -0.5185 -1.1413
  943THF     H712253   4.809   0.635   4.054 -0.6789 -1.6109 -0.5881
  943THF     C812254   4.720   0.462   4.125  0.7761 -0.7529 -0.0934
  943THF     C912255   4.841   0.374   4.096 -0.1469 -0.5522 -0.5829
  943THF    H1012256   4.647   0.467   4.044  1.6613  2.5183 -0.8323
  943THF    H1112257   4.673   0.422   4.215 -0.0994 -1.1311 -0.6962
  943THF    H1212258   4.821   0.267   4.105 -0.1286 -0.4893  0.2847
  943THF    H1312259   4.861   0.404   3.993 -1.5512  1.2412 -0.3847
  944THF     O112260   2.954   1.381   3.351  0.1820  0.5170 -0.0692
  944THF     C212261   3.088   1.390   3.394 -0.2549  0.0127 -0.7443
  944THF     C312262   2.928   1.513   3.306  0.4080  0.5755  0.3740
  944THF     H412263   3.144   1.297   3.389  1.8901  1.0646  1.5190
  944THF     H512264   3.080   1.404   3.502  1.5719 -0.9871 -0.4373
  944THF     H612265   2.834   1.522   3.252  0.2148  0.0859  0.6245
  944THF     H712266   2.916   1.578   3.393 -1.1766 -0.4805  0.9882
  944THF     C812267   3.049   1.560   3.233 -0.0331  0.1192  0.0224
  944THF     C912268   3.154   1.501   3.317 -0.0209 -1.0476  0.1320
  944THF    H1012269   3.047   1.669   3.233  0.0615  0.1556 -2.1657
  944THF    H1112270   3.057   1.525   3.130 -0.8975  0.6616 -0.2419
  944THF    H1212271   3.228   1.468   3.245  0.0790  1.0033 -0.7693
  944THF    H1312272   3.208   1.578   3.372 -1.2128  0.7020 -1.0518
  945THF     O112273   5.380   2.057   5.287 -0.7294 -0.5274  0.2544
  945THF     C212274   5.301   2.024   5.401 -0.0258  0.2119 -0.8670
  945THF     C312275   5.394   2.196   5.301 -0.2865 -0.2752 -0.0076
  945THF     H412276   5.306   1.916   5.415 -1.2538  0.0674 -1.3982
  945THF     H512277   5.196   2.052   5.389  0.3560  1.4937 -1.4841
  945THF     H612278   5.468   2.230   5.228  1.2818 -1.6157  0.8869
  945THF     H712279   5.306   2.261   5.301 -0.0069  0.1464  1.5129
  945THF     C812280   5.449   2.209   5.441 -0.7846  0.3638 -0.0745
  945THF     C912281   5.383   2.090   5.513  0.5608 -0.2581 -0.6428
  945THF    H1012282   5.432   2.309   5.479 -0.1322  1.1975 -1.8634
  945THF    H1112283   5.558   2.200   5.446 -0.9102 -0.8636  3.2360
  945THF    H1212284   5.462   2.030   5.557  1.0037  1.7400  1.4671
  945THF    H1312285   5.324   2.132   5.595  1.0702 -0.5436 -0.1255
  946THF     O112286   5.440   0.145   1.754 -0.0975 -0.2152  0.1413
  946THF     C212287   5.528   0.168   1.643  0.0696 -0.2017  0.8547
  946THF     C312288   5.402   0.265   1.810 -0.0535 -0.2267 -0.5170
  946THF     H412289   5.477   0.146   1.549  1.0568  3.0721 -0.5702
  946THF     H512290   5.611   0.101   1.666 -0.3439 -0.2886  2.2213
  946THF     H612291   5.316   0.307   1.758 -0.4657 -1.2355 -0.6728
  946THF     H712292   5.374   0.257   1.915  0.8477 -0.8503 -0.3146
  946THF     C812293   5.530   0.345   1.789  0.1076 -0.0366  0.4418
  946THF     C912294   5.573   0.310   1.646  0.3719  0.1970 -1.0005
  946THF    H1012295   5.609   0.315   1.858  0.7717 -1.5933 -0.9448
  946THF    H1112296   5.517   0.453   1.795  1.2236  0.0298  2.8326
  946THF    H1212297   5.510   0.373   1.584  0.3548 -1.2076 -2.4903
  946THF    H1312298   5.678   0.336   1.630  0.3359  1.9966  1.2033
  947THF     O112299   2.061   1.225   0.723  0.0029 -0.0024  0.1521
  947THF     C212300   2.181   1.234   0.650  0.1513  0.6640 -0.0756
  947THF     C312301   2.056   1.095   0.773  0.2190  0.6848 -0.0633
  947THF     H412302   2.257   1.291   0.703 -0.4612  0.5496  0.9476
  947THF     H512303   2.162   1.294   0.561 -2.4911 -0.6270 -0.4759
  947THF     H612304   2.130   1.086   0.853 -1.0948 -2.9035  0.9396
  947THF     H712305   1.960   1.070   0.818  0.5812  0.5094  0.6247
  947THF     C812306   2.087   1.007   0.652 -0.0452 -0.2923  0.0742
  947THF     C912307   2.212   1.087   0.605  0.0175 -0.2595 -0.0068
  947THF    H1012308   2.010   1.027   0.578  1.9957  0.8096 -1.8427
  947THF    H1112309   2.107   0.902   0.672  1.5111  0.0750  0.5861
  947THF    H1212310   2.306   1.058   0.652 -0.3234 -2.5732 -0.6505
  947THF    H1312311   2.215   1.089   0.496  1.0934  3.1867 -0.0393
  948THF     O112312   3.099   2.263   2.201 -0.2368 -0.4334 -0.5216
  948THF     C212313   3.001   2.165   2.223  0.1398  0.7927  0.5038
  948THF     C312314   3.204   2.248   2.291 -0.2547  0.5199 -0.0120
  948THF     H412315   2.995   2.083   2.151 -1.0448  1.2972 -0.0045
  948THF     H512316   2.903   2.212   2.225  0.4868  1.6275 -0.8072
  948THF     H612317   3.280   2.183   2.248 -0.1924 -0.1631  1.0908
  948THF     H712318   3.249   2.345   2.313  0.7093  0.3706 -1.2333
  948THF     C812319   3.138   2.205   2.419  0.3050  0.0326  0.2473
  948THF     C912320   3.031   2.109   2.362 -0.1914  0.6260 -0.2155
  948THF    H1012321   3.092   2.286   2.475  1.4317 -0.2992  1.6987
  948THF    H1112322   3.207   2.151   2.482 -0.8165 -0.7984  0.7957
  948THF    H1212323   3.061   2.005   2.348 -2.3657 -0.0482 -0.1540
  948THF    H1312324   2.945   2.119   2.428  1.0610  2.3759  1.2717
  949THF     O112325   3.327   1.624   2.575 -0.6219  0.2267 -0.3851
  949THF     C212326   3.195   1.613   2.530  0.3823 -0.1303 -0.2858
  949THF     C312327   3.371   1.759   2.572 -1.1567 -0.1079  0.4900
  949THF     H412328   3.123   1.632   2.609  1.2541 -3.3075  1.4597
  949THF     H512329   3.177   1.510   2.500  2.3082 -1.4577  2.6844
  949THF     H612330   3.368   1.802   2.672  0.6110 -1.0735  0.9860
  949THF     H712331   3.474   1.766   2.537 -1.0363 -1.2145  0.6042
  949THF     C812332   3.267   1.831   2.481  0.4618 -0.3289  0.7398
  949THF     C912333   3.191   1.716   2.415  0.9523  0.0495  0.0794
  949THF    H1012334   3.323   1.901   2.419  1.0417 -1.1770  0.2769
  949THF    H1112335   3.186   1.888   2.525 -0.0003  0.6751 -1.3072
  949THF    H1212336   3.087   1.741   2.395  1.0924 -0.3302 -1.1530
  949THF    H1312337   3.246   1.683   2.327  1.0921 -0.6487  0.4209
  950THF     O112338   3.481   4.834   0.278 -0.3010  0.3088 -0.1300
  950THF     C212339   3.442   4.706   0.321  0.3653  0.0897 -0.1813
  950THF     C312340   3.363   4.914   0.249 -0.1216  0.2069  0.3757
  950THF     H412341   3.419   4.706   0.428 -0.2233 -0.1881 -0.3025
  950THF     H512342   3.521   4.635   0.299  0.3459  0.4308 -1.4446
  950THF     H612343   3.313   4.945   0.341 -1.3130 -0.0755 -0.1489
  950THF     H712344   3.390   5.002   0.190  0.8073 -0.6955 -0.5801
  950THF     C812345   3.275   4.802   0.177  0.0433 -0.7681  0.2995
  950THF     C912346   3.332   4.671   0.229  0.3090 -0.3050  0.5049
  950THF    H1012347   3.286   4.815   0.070 -0.4912 -0.1382  0.3174
  950THF    H1112348   3.169   4.803   0.204 -0.2507  0.4028 -0.8592
  950THF    H1212349   3.255   4.606   0.271 -0.9040  0.9578  0.3131
  950THF    H1312350   3.378   4.618   0.145 -0.6435 -0.8060  0.2826
  951THF     O112351   1.171   5.197   2.551  0.2762 -0.4241  0.6891
  951THF     C212352   1.287   5.245   2.492 -0.1905  0.8248  0.0798
  951THF     C312353   1.204   5.123   2.670  0.0594 -0.1333 -0.2426
  951THF     H412354   1.306   5.344   2.536 -2.1846  1.4330 -0.3374
  951THF     H512355   1.290   5.265   2.385 -1.4770  0.5315 -0.0203
  951THF     H612356   1.230   5.195   2.748 -2.3714  0.1946  0.3450
  951THF     H712357   1.119   5.065   2.707 -0.5218 -0.2380 -1.6964
  951THF     C812358   1.327   5.043   2.626  0.3954  0.0608  0.6375
  951THF     C912359   1.403   5.146   2.536  0.5403 -0.1103  0.2629
  951THF    H1012360   1.287   4.958   2.571  1.5122  0.3933 -0.7510
  951THF    H1112361   1.383   5.007   2.713  0.5026  1.4731  1.1737
  951THF    H1212362   1.468   5.208   2.597  1.3417 -2.0117  1.4596
  951THF    H1312363   1.444   5.098   2.447 -1.6782 -0.8244 -0.4340
  952THF     O112364   2.359   4.363   4.413 -0.4527 -0.3074 -0.9848
  952THF     C212365   2.418   4.302   4.531 -0.0712 -0.3346  0.2748
  952THF     C312366   2.427   4.311   4.302 -0.1474  0.2149  0.2024
  952THF     H412367   2.337   4.261   4.590 -0.4626  0.7015  0.4581
  952THF     H512368   2.483   4.364   4.593  0.7325  1.7060 -2.3827
  952THF     H612369   2.369   4.316   4.210  0.2489  0.3849 -0.0432
  952THF     H712370   2.524   4.360   4.292  0.4336 -0.8057  0.6553
  952THF     C812371   2.466   4.167   4.336 -0.0520 -0.9989  0.7710
  952THF     C912372   2.502   4.186   4.483  0.0941  0.1159  0.3182
  952THF    H1012373   2.562   4.153   4.286  1.0626  4.6874  0.6164
  952THF    H1112374   2.390   4.091   4.324 -3.6594  2.5174 -1.0927
  952THF    H1212375   2.482   4.095   4.541  3.2675 -1.4085 -0.7685
  952THF    H1312376   2.605   4.216   4.498  0.2468 -1.0517  1.9021
  953THF     O112377   2.277   5.005   2.576  0.0919 -0.1719 -0.1915
  953THF     C212378   2.357   5.120   2.548 -0.3146 -0.9505  0.0627
  953THF     C312379   2.275   4.925   2.463 -0.1033 -0.0639  0.0732
  953THF     H412380   2.462   5.097   2.564 -0.1686 -0.9247 -0.8081
  953THF     H512381   2.329   5.209   2.605  1.9192  0.1508 -0.4640
  953THF     H612382   2.368   4.869   2.454 -0.2172  0.0387 -2.3246
  953THF     H712383   2.187   4.861   2.462  0.0899 -0.3275 -0.5904
  953THF     C812384   2.268   5.022   2.344  0.2039 -0.4109 -0.3738
  953THF     C912385   2.333   5.150   2.401  0.0686  0.4179  0.3638
  953THF    H1012386   2.163   5.042   2.320  0.4475  1.8861  0.2273
  953THF    H1112387   2.309   4.986   2.250  0.0391 -0.6847 -0.3411
  953THF    H1212388   2.411   5.198   2.342  0.6824 -0.6885  0.2493
  953THF    H1312389   2.250   5.220   2.394 -1.0956 -0.8975  0.4740
  954THF     O112390   2.763   3.799   1.147  0.2800  0.4371  0.0921
  954THF     C212391   2.682   3.796   1.028  0.3233  0.1757  0.2073
  954THF     C312392   2.888   3.738   1.115 -0.1212  0.0224  0.1651
  954THF     H412393   2.622   3.887   1.027 -1.7940 -1.1193  1.6250
  954THF     H512394   2.606   3.719   1.020  0.4187  0.0028  0.8826
  954THF     H612395   2.971   3.776   1.175  1.2882 -0.5672 -1.3170
  954THF     H712396   2.887   3.629   1.113  1.0472 -0.0087  0.3829
  954THF     C812397   2.907   3.772   0.963 -0.8210  0.1860 -1.3184
  954THF     C912398   2.773   3.784   0.908  1.0379  0.5957  0.2880
  954THF    H1012399   2.980   3.711   0.910  0.2908 -0.3915  0.7699
  954THF    H1112400   2.937   3.876   0.950 -0.3682  0.3163  0.4814
  954THF    H1212401   2.759   3.870   0.842  1.6510 -0.7987 -1.7484
  954THF    H1312402   2.749   3.692   0.855 -1.0241  1.7854 -0.9654
  955THF     O112403   1.239   3.316   0.621  0.6406 -0.4132 -0.3433
  955THF     C212404   1.322   3.409   0.686  1.1048 -0.3862  0.4524
  955THF     C312405   1.315   3.216   0.566 -0.8612  0.6689 -0.7960
  955THF     H412406   1.278   3.483   0.754 -0.2625 -2.1385  1.5757
  955THF     H512407   1.373   3.463   0.606 -0.1756  0.2951  0.0626
  955THF     H612408   1.263   3.132   0.520  1.0413 -0.1014 -1.6157
  955THF     H712409   1.370   3.254   0.480  2.7162  0.1992  1.1271
  955THF     C812410   1.419   3.190   0.682 -0.7889  0.2620  0.8229
  955THF     C912411   1.418   3.321   0.757  0.0489  0.8795 -1.3955
  955THF    H1012412   1.518   3.172   0.641 -1.3052 -0.3715 -0.2072
  955THF    H1112413   1.393   3.105   0.744 -1.5765 -0.3644 -0.3192
  955THF    H1212414   1.379   3.305   0.858  1.1753 -0.1872 -1.1138
  955THF    H1312415   1.517   3.367   0.758  1.7245 -2.4659 -0.5207
  956THF     O112416   0.577   2.730   1.019 -0.5661  0.5124  0.2207
  956THF     C212417   0.662   2.748   1.131  0.3024  0.4782 -0.1638
  956THF     C312418   0.602   2.595   0.965 -0.6813 -0.1475 -0.7084
  956THF     H412419   0.603   2.730   1.221 -1.0357  1.2302 -0.8657
  956THF     H512420   0.698   2.851   1.129  1.5057  0.1246  1.2017
  956THF     H612421   0.522   2.530   1.001  0.1407 -2.4256 -2.7006
  956THF     H712422   0.594   2.580   0.857 -0.0215  1.3991 -0.9924
  956THF     C812423   0.738   2.562   1.001  0.0924 -0.0334 -0.6056
  956THF     C912424   0.775   2.648   1.128  0.1925  0.0823 -0.5150
  956THF    H1012425   0.792   2.585   0.908 -0.3833  1.2783 -0.5895
  956THF    H1112426   0.747   2.457   1.026 -0.2059  0.0192 -0.2775
  956THF    H1212427   0.775   2.597   1.224  2.2913  1.5306  0.3192
  956THF    H1312428   0.876   2.688   1.121 -0.1561  0.9284 -0.8452
  957THF     O112429   2.903   1.638   2.289 -0.0625 -0.3923  0.5320
  957THF     C212430   2.849   1.737   2.200  0.2419 -0.1456  0.1688
  957THF     C312431   2.822   1.645   2.412 -0.8809  0.5533  0.4084
  957THF     H412432   2.875   1.732   2.095  0.0929 -0.6326  0.1533
  957THF     H512433   2.895   1.828   2.240  2.9299 -1.5249  0.4356
  957THF     H612434   2.807   1.551   2.464 -1.0586 -0.0631 -0.7355
  957THF     H712435   2.871   1.716   2.479 -1.9016  0.9139  0.7843
  957THF     C812436   2.688   1.719   2.375 -0.5208  0.1194  0.4911
  957THF     C912437   2.703   1.725   2.225  0.1778  0.3232  0.8865
  957THF    H1012438   2.681   1.817   2.422  0.5461 -0.3566  1.7447
  957THF    H1112439   2.609   1.655   2.414 -0.0572  0.4174  1.9935
  957THF    H1212440   2.677   1.639   2.164  1.0934  2.2216 -2.4402
  957THF    H1312441   2.646   1.809   2.184  0.1321 -0.3869 -0.5619
  958THF     O112442   1.807   4.137   5.230  0.1684 -0.2215 -0.3085
  958THF     C212443   1.671   4.099   5.251  0.3920 -0.0112 -0.2267
  958THF     C312444   1.796   4.174   5.089  0.2898 -0.0100  0.4525
  958THF     H412445   1.651   4.099   5.358  0.5123  1.5222 -0.1891
  958THF     H512446   1.628   4.008   5.210 -2.1077  0.1075  1.8871
  958THF     H612447   1.887   4.220   5.051  0.7161  0.7149  2.2458
  958THF     H712448   1.795   4.076   5.043  1.3639 -0.6252  1.6753
  958THF     C812449   1.661   4.245   5.058 -0.2150  0.5018 -0.0753
  958THF     C912450   1.583   4.216   5.188 -0.4153 -0.7086 -0.2384
  958THF    H1012451   1.611   4.208   4.968  2.9003  2.1318 -2.7119
  958THF    H1112452   1.685   4.350   5.043  0.9708 -0.1855 -5.0857
  958THF    H1212453   1.588   4.303   5.253 -0.4848 -0.1357 -0.9915
  958THF    H1312454   1.477   4.193   5.183 -0.0012 -2.9198  0.0404
  959THF     O112455   5.392   0.282   2.351 -0.1744 -0.4131  0.0377
  959THF     C212456   5.364   0.334   2.224  0.3484 -0.6634 -0.3441
  959THF     C312457   5.505   0.191   2.343  0.1773 -0.6926 -0.2214
  959THF     H412458   5.312   0.430   2.228 -2.0209 -1.9029  0.0457
  959THF     H512459   5.305   0.270   2.158 -0.4648  0.8607 -1.1841
  959THF     H612460   5.551   0.194   2.441 -1.5348  1.6267  0.6049
  959THF     H712461   5.458   0.093   2.326  1.4811 -1.3278 -0.2931
  959THF     C812462   5.591   0.241   2.222  0.4019 -0.2155 -0.7291
  959THF     C912463   5.503   0.359   2.165  0.1268  0.5821 -0.0054
  959THF    H1012464   5.586   0.161   2.148  1.5074 -0.1514 -0.8864
  959THF    H1112465   5.694   0.259   2.250  0.3120  0.4085 -0.7853
  959THF    H1212466   5.550   0.452   2.197 -1.3503  0.5398  2.5885
  959THF    H1312467   5.507   0.353   2.057 -0.6821  2.2170 -0.1469
  960THF     O112468   0.574   4.700   2.743 -0.4816 -0.0303  0.2908
  960THF     C212469   0.474   4.605   2.767 -0.4049  0.7078 -0.6824
  960THF     C312470   0.531   4.814   2.816 -0.0234 -0.7277  0.3651
  960THF     H412471   0.539   4.517   2.777  0.3301  1.3526  0.5221
  960THF     H512472   0.406   4.601   2.682  0.5220 -0.5410 -1.3935
  960THF     H612473   0.616   4.882   2.828  0.6758 -1.2807 -1.1916
  960THF     H712474   0.456   4.860   2.752  1.3107  0.5383 -0.3455
  960THF     C812475   0.477   4.760   2.939  0.6560 -0.1037 -0.5818
  960THF     C912476   0.402   4.639   2.900 -0.5685  0.2948  0.7652
  960THF    H1012477   0.409   4.829   2.989  1.0536 -0.0974 -0.0360
  960THF    H1112478   0.555   4.728   3.009 -0.4233  0.6171  1.0001
  960THF    H1212479   0.405   4.553   2.968  1.5450  0.4847  0.9600
  960THF    H1312480   0.298   4.652   2.868 -0.5398 -2.7483 -0.9358
  961THF     O112481   0.281   5.117   4.796  0.2401 -0.1753 -0.0996
  961THF     C212482   0.213   5.210   4.882  0.2852  0.1511 -0.0580
  961THF     C312483   0.181   5.087   4.694 -0.6445 -0.0759 -0.2285
  961THF     H412484   0.274   5.267   4.952  0.8006 -0.4835  0.0197
  961THF     H512485   0.135   5.161   4.942 -0.1385  0.7359 -0.1288
  961THF     H612486   0.236   5.043   4.610  0.1559  2.9632 -1.4347
  961THF     H712487   0.113   5.016   4.740  0.4232  0.1157  1.7637
  961THF     C812488   0.110   5.219   4.666 -0.3101 -0.0504 -0.4162
  961THF     C912489   0.150   5.307   4.788  0.1848  0.1152 -0.5697
  961THF    H1012490   0.002   5.204   4.665 -0.1155 -1.6020 -1.7808
  961THF    H1112491   0.125   5.277   4.575  0.4311  0.4355  0.0041
  961THF    H1212492   0.213   5.393   4.763 -0.5238  0.6991 -0.3864
  961THF    H1312493   0.062   5.350   4.836  1.3250  1.8262  0.1006
  962THF     O112494   1.520   2.233   2.758 -0.7274 -0.2306 -0.4520
  962THF     C212495   1.618   2.312   2.836  0.3231 -0.2408  0.8424
  962THF     C312496   1.530   2.270   2.625 -0.0005 -0.2523 -0.6181
  962THF     H412497   1.723   2.284   2.828  0.2882  0.1840 -2.3612
  962THF     H512498   1.596   2.318   2.942  0.2256  0.3110  0.7923
  962THF     H612499   1.631   2.245   2.591 -0.4856 -0.7941 -1.6948
  962THF     H712500   1.462   2.216   2.559 -0.0809 -0.8801 -0.0212
  962THF     C812501   1.509   2.422   2.650  0.2260  0.0609 -0.4330
  962THF     C912502   1.611   2.445   2.757  0.7810  0.1099  0.1150
  962THF    H1012503   1.411   2.441   2.693  0.5304  1.0877 -0.1630
  962THF    H1112504   1.536   2.489   2.569 -2.3844  2.2840  0.4061
  962THF    H1212505   1.700   2.472   2.701 -0.1771  0.2625 -1.3947
  962THF    H1312506   1.592   2.520   2.834  1.2859 -2.0717  2.4992
  963THF     O112507   5.147   4.807   2.604 -0.6111 -0.3618  0.6533
  963THF     C212508   5.044   4.708   2.609 -0.7845  0.2567  0.2280
  963THF     C312509   5.143   4.889   2.721  0.1042  0.3108 -0.2533
  963THF     H412510   5.105   4.628   2.652  0.4247  1.4956  0.8832
  963THF     H512511   5.010   4.688   2.507  1.6881  0.2084 -0.6455
  963THF     H612512   5.200   4.829   2.791  0.9545  1.1442 -0.2217
  963THF     H712513   5.182   4.988   2.701 -1.7980  1.1815  0.0977
  963THF     C812514   4.989   4.888   2.749 -0.0332  0.4409 -0.0472
  963THF     C912515   4.948   4.750   2.713 -0.3097 -0.3588  0.0190
  963THF    H1012516   4.943   4.952   2.673  1.2734  0.8110 -0.5528
  963THF    H1112517   4.960   4.923   2.849 -2.6947  1.7185 -1.1612
  963THF    H1212518   4.952   4.689   2.803  0.4901  0.4324  0.5397
  963THF    H1312519   4.843   4.748   2.683 -0.5357  1.6040  0.5265
  964THF     O112520   0.856   4.493   0.466 -0.5506  0.5426 -0.2420
  964THF     C212521   0.913   4.616   0.440 -0.1607  0.6049 -0.0320
  964THF     C312522   0.949   4.423   0.556  0.0993  0.6571  0.8472
  964THF     H412523   0.839   4.688   0.405  0.6317  0.3791 -2.3531
  964THF     H512524   0.991   4.601   0.364 -1.0249  1.0527 -1.0302
  964THF     H612525   0.911   4.339   0.614 -0.5229  1.2798  1.3551
  964THF     H712526   1.048   4.396   0.519  1.0502 -0.9233  4.0990
  964THF     C812527   0.980   4.537   0.649 -0.2911  0.7180 -0.4472
  964THF     C912528   0.980   4.660   0.567  0.3233 -0.3425  0.3415
  964THF    H1012529   1.079   4.527   0.695  0.7207  0.6491 -2.5298
  964THF    H1112530   0.911   4.543   0.733  0.9501 -0.6171  0.7032
  964THF    H1212531   0.922   4.741   0.611 -1.1113 -0.7795 -0.6699
  964THF    H1312532   1.081   4.701   0.562  0.4811 -0.8131 -0.3820
  965THF     O112533   3.686   0.368   2.711  0.5127 -0.2575  0.0876
  965THF     C212534   3.638   0.328   2.583  0.0189  0.2598 -0.9777
  965THF     C312535   3.591   0.341   2.814  0.3693  0.4008 -0.2690
  965THF     H412536   3.713   0.287   2.516  2.0195  0.8009  0.8109
  965THF     H512537   3.589   0.419   2.549  0.0718  1.1466  1.1750
  965THF     H612538   3.646   0.328   2.907  2.4310 -1.1273 -1.6186
  965THF     H712539   3.531   0.432   2.820  2.0284  1.7081 -1.9663
  965THF     C812540   3.527   0.211   2.767  0.0228  0.0939  0.1118
  965THF     C912541   3.533   0.218   2.614 -0.1000 -0.3116  0.4835
  965THF    H1012542   3.424   0.193   2.797 -0.4528  0.4941 -1.2056
  965THF    H1112543   3.580   0.124   2.806 -1.6088 -0.7181  0.5905
  965THF    H1212544   3.583   0.127   2.582  1.8055  0.7174  0.4298
  965THF    H1312545   3.438   0.218   2.560 -0.2103  0.8505  0.6480
  966THF     O112546   3.921   3.714   2.444  0.1821 -0.2904 -0.0786
  966THF     C212547   4.025   3.753   2.542  0.0657  0.0970 -0.3595
  966THF     C312548   3.938   3.583   2.424 -0.5424 -0.0941  0.8925
  966THF     H412549   3.984   3.838   2.596  0.8175 -0.7237  1.5983
  966THF     H512550   4.112   3.783   2.485  0.1784 -1.3961 -1.0152
  966THF     H612551   3.851   3.536   2.377  0.1343 -1.1116  0.6197
  966THF     H712552   4.016   3.571   2.349 -0.3569 -2.4615  1.3719
  966THF     C812553   3.988   3.515   2.549  0.4614  0.2157 -0.4051
  966THF     C912554   4.041   3.630   2.637  0.2127 -0.0872  0.3745
  966THF    H1012555   4.064   3.436   2.545  0.9100  0.6528 -0.5619
  966THF    H1112556   3.910   3.469   2.611  0.9087  1.8229  1.4531
  966THF    H1212557   3.981   3.643   2.727 -1.3020  0.7952 -0.6992
  966THF    H1312558   4.138   3.607   2.681 -1.0764 -1.3832  2.7535
  967THF     O112559   0.080   4.711   2.596 -0.3345 -0.2001 -0.1434
  967THF     C212560   0.049   4.741   2.738 -0.2561  0.1638  0.2205
  967THF     C312561   0.057   4.836   2.526 -0.0912  0.9348  0.4098
  967THF     H412562   0.081   4.657   2.800  0.2896  0.8156  0.8296
  967THF     H512563  -0.056   4.768   2.741 -0.9271 -0.9547 -4.7243
  967THF     H612564   0.119   4.834   2.437  0.1498 -0.3009  0.5885
  967THF     H712565  -0.047   4.859   2.505 -0.0008  0.0689 -1.1002
  967THF     C812566   0.111   4.945   2.626  0.6845  0.5570  1.1470
  967THF     C912567   0.112   4.875   2.761  0.2657  0.3006  0.0156
  967THF    H1012568   0.034   5.022   2.629  0.5963  0.4657  1.2378
  967THF    H1112569   0.204   4.995   2.599  0.9509 -0.7651 -0.5304
  967THF    H1212570   0.217   4.867   2.789  1.1733  4.3279 -1.5963
  967THF    H1312571   0.070   4.931   2.845 -1.9946 -0.0035 -0.8536
  968THF     O112572   2.806   5.104   4.065 -0.3528  0.2166  0.5197
  968THF     C212573   2.823   5.205   4.157  0.0873 -0.1180 -0.1513
  968THF     C312574   2.669   5.079   4.046 -1.3690 -0.0869  0.3987
  968THF     H412575   2.790   5.303   4.123 -2.9016  0.5848  4.0636
  968THF     H512576   2.927   5.209   4.188  0.7972  1.2552 -2.4352
  968THF     H612577   2.618   5.159   3.993  1.4374  1.3985 -0.2652
  968THF     H712578   2.655   4.987   3.991  2.4537  0.2304 -1.4321
  968THF     C812579   2.619   5.065   4.187 -0.1210  0.8766  0.2574
  968THF     C912580   2.711   5.160   4.257 -0.8970  0.7447 -0.3258
  968THF    H1012581   2.633   4.967   4.233  1.2699  1.3166  0.8029
  968THF    H1112582   2.517   5.099   4.201 -0.7832  0.8221 -3.3658
  968THF    H1212583   2.653   5.241   4.301  0.0900  0.0499  2.4773
  968THF    H1312584   2.758   5.112   4.342  0.4131  0.5705 -1.1171
  969THF     O112585   2.749   4.347   1.682 -0.2840  0.3151  0.0237
  969THF     C212586   2.667   4.463   1.664 -0.3259  0.4613 -0.0011
  969THF     C312587   2.825   4.323   1.564 -0.4130  0.3728  0.2800
  969THF     H412588   2.669   4.526   1.754  1.8144 -1.6101  1.5110
  969THF     H512589   2.562   4.435   1.649 -0.3096  0.3910  0.0159
  969THF     H612590   2.914   4.266   1.590 -0.7852  0.2058  1.2399
  969THF     H712591   2.771   4.266   1.489  1.4784 -0.6337 -0.3667
  969THF     C812592   2.852   4.456   1.500  0.1036  0.0692 -0.6322
  969THF     C912593   2.723   4.531   1.536  0.2463 -0.3259  0.0601
  969THF    H1012594   2.871   4.463   1.393 -0.5811 -1.8920 -0.9195
  969THF    H1112595   2.930   4.509   1.555  0.4625 -2.4753  1.4844
  969THF    H1212596   2.738   4.635   1.563 -0.8176  0.0162 -0.6027
  969THF    H1312597   2.641   4.515   1.466 -2.1216  1.7702  2.1626
  970THF     O112598   0.137   2.353   2.981  0.3890 -0.1657  0.1430
  970THF     C212599   0.010   2.386   2.929 -0.2134 -0.5991 -0.3574
  970THF     C312600   0.118   2.259   3.088  0.3403 -0.0377  0.1069
  970THF     H412601   0.035   2.451   2.846  2.4246  0.3009  1.0143
  970THF     H512602  -0.039   2.451   3.001  1.5312  2.0279 -1.4048
  970THF     H612603   0.208   2.210   3.126 -0.3299  1.2511  3.6641
  970THF     H712604   0.076   2.322   3.166 -1.3312  0.1507 -0.9033
  970THF     C812605   0.018   2.162   3.027  0.3547 -0.3311  0.3849
  970THF     C912606  -0.057   2.244   2.929  0.1938 -0.2107 -0.0049
  970THF    H1012607  -0.039   2.117   3.108 -1.3893 -0.2336 -0.7459
  970THF    H1112608   0.087   2.088   2.985  0.2784 -1.0710  1.5238
  970THF    H1212609  -0.037   2.196   2.833 -0.9376 -0.0772 -0.3214
  970THF    H1312610  -0.165   2.256   2.939  0.0026  0.0411 -2.0474
  971THF     O112611   3.498   0.824   4.806  0.1550  0.0706  0.5689
  971THF     C212612   3.402   0.747   4.877 -0.7956  0.1355 -0.4292
  971THF     C312613   3.628   0.807   4.860  0.5476  0.0814  0.6837
  971THF     H412614   3.307   0.738   4.825 -0.1214 -0.0359 -1.6875
  971THF     H512615   3.382   0.810   4.963  1.0651 -0.2993  0.3877
  971THF     H612616   3.708   0.787   4.788  0.4265 -0.8026  0.7900
  971THF     H712617   3.650   0.893   4.923  0.3794  0.7677 -0.1697
  971THF     C812618   3.604   0.691   4.954  0.0503  0.2750  0.6161
  971THF     C912619   3.478   0.622   4.901 -0.4342 -0.8585  0.2772
  971THF    H1012620   3.597   0.709   5.061  0.5870  0.2420  0.6610
  971THF    H1112621   3.691   0.625   4.942  0.8999  1.4544  0.1001
  971THF    H1212622   3.496   0.572   4.806 -0.5821  0.8802 -0.6958
  971THF    H1312623   3.435   0.560   4.980  0.1172 -2.4696 -0.6290
  972THF     O112624   5.139   0.604   0.868  0.2978 -0.2232  0.3441
  972THF     C212625   5.011   0.641   0.820 -0.2827  0.6514 -0.0400
  972THF     C312626   5.212   0.578   0.748 -0.0201  0.1802 -0.6246
  972THF     H412627   4.969   0.724   0.879  1.5380  1.3668  0.3024
  972THF     H512628   4.960   0.546   0.835  0.6424 -0.4915 -3.3644
  972THF     H612629   5.316   0.593   0.777 -0.1159  0.2099 -0.2993
  972THF     H712630   5.190   0.482   0.702 -2.0414 -0.3519  1.3250
  972THF     C812631   5.168   0.688   0.651  0.1686 -0.2590 -1.1010
  972THF     C912632   5.022   0.669   0.671  0.0814 -0.5830 -0.2816
  972THF    H1012633   5.196   0.662   0.549  1.7976  0.5794 -0.9066
  972THF    H1112634   5.199   0.791   0.667 -1.4858  0.4648 -2.2361
  972THF    H1212635   4.968   0.757   0.635 -0.3250 -0.6652  0.1179
  972THF    H1312636   4.982   0.590   0.606  2.4492 -2.1134 -0.0067
  973THF     O112637   5.058   4.370   5.276 -0.2415  0.1585 -0.1236
  973THF     C212638   5.037   4.512   5.254  0.1479  0.1643  0.1011
  973THF     C312639   5.127   4.328   5.161 -0.2600 -0.1316  0.3803
  973THF     H412640   5.131   4.556   5.288  1.1102 -0.2181 -1.9101
  973THF     H512641   4.957   4.560   5.310 -0.2152 -0.9495  0.5621
  973THF     H612642   5.226   4.373   5.170 -1.1659  1.8050  1.3889
  973THF     H712643   5.132   4.220   5.150  2.7193  0.0664 -1.1452
  973THF     C812644   5.053   4.391   5.044 -0.0142  0.0198  0.1596
  973THF     C912645   5.019   4.525   5.102  0.7010 -0.3822  0.4363
  973THF    H1012646   4.967   4.327   5.023  0.3351 -0.0612 -1.1000
  973THF    H1112647   5.122   4.402   4.961  1.0139 -1.0744  0.8383
  973THF    H1212648   5.089   4.601   5.069  0.6393 -1.6936 -3.1288
  973THF    H1312649   4.917   4.558   5.081 -0.2950 -1.3206  3.2702
  974THF     O112650   0.640   4.864   5.015  0.3182  0.7515 -0.3648
  974THF     C212651   0.753   4.898   5.098 -0.2820 -0.4741  0.2681
  974THF     C312652   0.671   4.741   4.947 -0.4710  0.7512 -0.2452
  974THF     H412653   0.710   4.962   5.175 -1.0137  0.7901 -1.1259
  974THF     H512654   0.813   4.962   5.033 -1.4088  0.9523  0.5837
  974THF     H612655   0.599   4.679   4.893 -0.4786  1.1057 -0.6437
  974THF     H712656   0.741   4.781   4.874 -0.8478  0.8723 -0.5424
  974THF     C812657   0.727   4.662   5.064 -0.5517  0.4454 -0.0822
  974THF     C912658   0.809   4.767   5.134  0.9793 -0.1550  0.3620
  974THF    H1012659   0.794   4.581   5.035  0.4717  0.4620  2.0472
  974THF    H1112660   0.649   4.638   5.136  1.0964 -0.2397  1.5250
  974THF    H1212661   0.775   4.750   5.236 -3.5170 -0.1578 -0.9292
  974THF    H1312662   0.915   4.756   5.111  1.3288  1.4821  1.0521
  975THF     O112663   0.867   0.375   2.051  0.5584  0.3818 -0.1972
  975THF     C212664   0.843   0.235   2.086  0.4106 -0.0745 -0.5088
  975THF     C312665   0.995   0.405   2.108 -0.0098 -1.2849  0.5787
  975THF     H412666   0.816   0.160   2.012 -1.9019  0.6412 -0.4416
  975THF     H512667   0.756   0.233   2.152  1.2784 -0.5411  0.6617
  975THF     H612668   1.059   0.400   2.020  0.5704 -0.5001  0.9456
  975THF     H712669   0.990   0.508   2.143  0.6753 -0.7869 -0.7149
  975THF     C812670   1.033   0.304   2.214 -0.3758 -0.4233 -0.2428
  975THF     C912671   0.973   0.184   2.151 -0.1001 -0.5173 -0.2903
  975THF    H1012672   0.981   0.323   2.308 -0.2851 -1.2004 -0.0352
  975THF    H1112673   1.139   0.285   2.234 -0.3070 -2.0434 -1.8946
  975THF    H1212674   1.042   0.139   2.078  1.7536  1.5449  0.0951
  975THF    H1312675   0.941   0.108   2.222 -0.5611 -0.2297 -0.1861
  976THF     O112676   2.266   3.740   0.704 -0.4761  0.6699  0.0597
  976THF     C212677   2.205   3.864   0.731  0.3016  0.4980  0.9343
  976THF     C312678   2.403   3.761   0.671  0.8798 -0.1424 -0.5412
  976THF     H412679   2.204   3.886   0.838 -0.8837  0.6992  0.8943
  976THF     H512680   2.106   3.843   0.691  1.3571 -0.9714 -1.1448
  976THF     H612681   2.459   3.769   0.764 -0.2464  0.4063  0.1053
  976THF     H712682   2.451   3.679   0.618  1.3645  0.3209 -0.8289
  976THF     C812683   2.410   3.895   0.597 -0.1486 -0.0536  0.5742
  976THF     C912684   2.285   3.967   0.658  0.0827 -0.0814  0.1808
  976THF    H1012685   2.405   3.879   0.489  1.1828 -0.1536  0.5107
  976THF    H1112686   2.501   3.953   0.608  0.6196  0.1002 -4.2973
  976THF    H1212687   2.324   4.042   0.727 -0.7496 -0.9222  1.6193
  976THF    H1312688   2.225   4.014   0.581  0.5535 -1.1620 -0.8747
  977THF     O112689   0.166   5.026   4.137  0.3430  0.1198  0.3016
  977THF     C212690   0.052   5.033   4.224 -0.0051 -0.4922  0.1774
  977THF     C312691   0.128   5.096   4.022  0.5661  0.6650 -0.4147
  977THF     H412692   0.073   5.107   4.301  2.3014 -0.8297 -0.0434
  977THF     H512693   0.040   4.934   4.269  1.3629  0.5898  3.2178
  977THF     H612694   0.148   5.202   4.035 -0.2451  1.0633 -2.0856
  977THF     H712695   0.200   5.053   3.952  1.4162 -1.2045  1.5054
  977THF     C812696  -0.015   5.053   3.993 -0.1379  0.2499  0.0680
  977THF     C912697  -0.075   5.064   4.133 -0.2466  0.7019 -0.4880
  977THF    H1012698  -0.021   4.946   3.971 -0.7757  0.3693 -0.3659
  977THF    H1112699  -0.067   5.103   3.911  0.9066 -0.0799 -0.8123
  977THF    H1212700  -0.099   5.168   4.151  0.9896  0.8173  0.6382
  977THF    H1312701  -0.154   4.991   4.150 -0.0086  0.8116  1.2352
  978THF     O112702   1.857   2.799   3.390 -0.7935 -1.3722  0.1044
  978THF     C212703   1.720   2.773   3.422  0.4038  0.1257 -0.4518
  978THF     C312704   1.917   2.676   3.389 -0.1433  0.5537  0.3690
  978THF     H412705   1.665   2.841   3.356 -0.0952  0.2441  0.0757
  978THF     H512706   1.694   2.796   3.526 -2.1490  0.4087 -1.0816
  978THF     H612707   2.019   2.674   3.351  0.6296  0.4625  2.3277
  978THF     H712708   1.945   2.650   3.491  3.9463  2.9227  0.0437
  978THF     C812709   1.818   2.579   3.328  0.0269  0.5891 -0.7486
  978THF     C912710   1.686   2.624   3.385 -0.6466  0.1763  0.5881
  978THF    H1012711   1.845   2.483   3.371  1.2312  1.7928  1.3312
  978THF    H1112712   1.811   2.585   3.219  0.6020 -0.7984 -0.8830
  978THF    H1212713   1.626   2.625   3.294  1.1471  2.0793 -0.6525
  978THF    H1312714   1.657   2.559   3.467 -0.0190 -2.1736 -0.9595
  979THF     O112715   5.265   4.734   4.191 -0.0348 -0.2224  0.6861
  979THF     C212716   5.182   4.672   4.097  0.6634 -0.7322 -0.0637
  979THF     C312717   5.378   4.652   4.220 -0.2519 -0.4212 -0.2215
  979THF     H412718   5.228   4.675   3.998  1.2246  1.3691  0.2305
  979THF     H512719   5.086   4.725   4.097  0.9636 -0.1363 -1.3618
  979THF     H612720   5.468   4.682   4.167  0.4497 -0.5119  0.8845
  979THF     H712721   5.395   4.656   4.327  1.1777 -0.8951 -0.3991
  979THF     C812722   5.333   4.512   4.176  0.7206  0.3955  0.4503
  979THF     C912723   5.187   4.521   4.137 -0.0633 -0.1493 -0.5704
  979THF    H1012724   5.345   4.445   4.261 -0.3972 -1.2139 -0.6058
  979THF    H1112725   5.389   4.475   4.090  0.9412 -3.8820  2.1766
  979THF    H1212726   5.178   4.458   4.048  2.6659 -0.5981 -0.5904
  979THF    H1312727   5.120   4.502   4.221  0.8200  0.5947  0.3224
  980THF     O112728   3.464   4.035   1.332 -0.4320 -0.0387  0.1943
  980THF     C212729   3.359   4.050   1.234  0.1776  0.3821 -0.1478
  980THF     C312730   3.410   3.983   1.460 -0.0029 -0.7691 -0.0397
  980THF     H412731   3.397   4.042   1.133  1.4871 -0.2735  0.3676
  980THF     H512732   3.286   4.130   1.252 -0.3934 -0.5631  2.1575
  980THF     H612733   3.482   3.961   1.538 -0.5826  1.0480  1.0654
  980THF     H712734   3.339   4.056   1.500  0.4340 -0.0299 -0.5885
  980THF     C812735   3.330   3.862   1.404 -0.0204  0.1536  0.0869
  980THF     C912736   3.284   3.912   1.268 -0.0314 -0.3964 -0.2991
  980THF    H1012737   3.266   3.822   1.482 -2.1104  1.9729 -0.6038
  980THF    H1112738   3.410   3.791   1.381  1.1827  1.2522  0.7064
  980THF    H1212739   3.295   3.835   1.191 -1.8476 -0.8822 -0.1126
  980THF    H1312740   3.179   3.940   1.281 -0.0099 -0.7904  0.7953
  981THF     O112741   0.699   5.084   3.018 -0.1901  0.4619  0.0719
  981THF     C212742   0.698   4.993   3.129 -0.1850  0.2126  0.0087
  981THF     C312743   0.831   5.136   2.996 -0.1584 -0.0601  0.3858
  981THF     H412744   0.632   4.912   3.099 -1.0558  1.4901 -1.7228
  981THF     H512745   0.660   5.047   3.216  1.7826  0.1919  0.9278
  981THF     H612746   0.828   5.176   2.894 -1.3943 -0.2725  0.3123
  981THF     H712747   0.854   5.221   3.060 -1.4975 -0.1346  1.0072
  981THF     C812748   0.918   5.021   3.034 -0.0218  0.1416  0.0629
  981THF     C912749   0.840   4.945   3.137  0.1316 -0.4038 -0.4010
  981THF    H1012750   1.017   5.039   3.076 -0.6628  0.4429  1.4840
  981THF    H1112751   0.929   4.945   2.957 -1.3447 -0.3267  0.3051
  981THF    H1212752   0.845   4.838   3.117 -0.0130 -0.5896  0.4993
  981THF    H1312753   0.880   4.961   3.237  0.1236  2.6624 -0.7906
  982THF     O112754   1.408   3.214   4.721  0.5030 -0.3593  0.3111
  982THF     C212755   1.309   3.115   4.756 -0.2746  0.0188  0.9638
  982THF     C312756   1.498   3.144   4.633 -0.1536 -0.4125  0.0306
  982THF     H412757   1.217   3.160   4.792  0.1339  1.6155  0.1079
  982THF     H512758   1.346   3.043   4.830 -1.7518 -2.5921 -0.7081
  982THF     H612759   1.549   3.209   4.562 -2.1577 -0.8979 -1.9435
  982THF     H712760   1.570   3.082   4.687 -1.3606 -0.9590  1.0664
  982THF     C812761   1.409   3.067   4.547 -0.3503  0.0130 -0.1812
  982THF     C912762   1.279   3.040   4.628  0.6584 -0.3746 -0.2710
  982THF    H1012763   1.463   2.979   4.515  0.6785 -0.3653  2.3828
  982THF    H1112764   1.387   3.127   4.458 -0.8057 -0.3610 -0.3270
  982THF    H1212765   1.190   3.073   4.574 -0.2655 -0.7610  0.9609
  982THF    H1312766   1.274   2.934   4.652  3.0327 -0.3907  0.3845
  983THF     O112767   3.432   5.377   0.881  0.0419 -0.3854  0.5033
  983THF     C212768   3.446   5.398   1.016 -0.1119 -0.3962 -0.2225
  983THF     C312769   3.301   5.329   0.862 -0.6855  0.6800  0.0827
  983THF     H412770   3.408   5.494   1.052  2.6131  0.5913  0.2454
  983THF     H512771   3.553   5.405   1.034 -0.6382  0.4129  3.6090
  983THF     H612772   3.243   5.421   0.855 -0.9342  0.4531 -1.0253
  983THF     H712773   3.289   5.267   0.774 -0.0332 -1.2919  1.3220
  983THF     C812774   3.262   5.257   0.995 -0.4635 -0.8016 -0.3230
  983THF     C912775   3.383   5.280   1.079  0.4953 -0.2906 -0.1249
  983THF    H1012776   3.244   5.151   0.975 -2.4661 -0.3562 -1.1549
  983THF    H1112777   3.170   5.306   1.027  0.9310  1.3027  0.6796
  983THF    H1212778   3.357   5.268   1.185 -0.4357 -2.1476 -0.5196
  983THF    H1312779   3.461   5.207   1.059  1.7994  0.6556  1.3242
  984THF     O112780   3.914   1.096   0.714  0.1718  0.2780 -0.0849
  984THF     C212781   4.021   1.009   0.672  0.1335  0.6007  0.2237
  984THF     C312782   3.790   1.020   0.697  0.2026 -0.8153  0.4448
  984THF     H412783   4.091   1.017   0.756 -0.0014 -1.0453  0.5262
  984THF     H512784   4.064   1.053   0.581 -1.3485 -0.5426 -1.0719
  984THF     H612785   3.721   1.056   0.773 -0.7975 -1.2486 -0.2359
  984THF     H712786   3.742   1.035   0.601 -0.1379  1.8855  0.9397
  984THF     C812787   3.838   0.875   0.723  0.4312 -0.2981 -0.2029
  984THF     C912788   3.967   0.871   0.646  0.3430 -0.4109  0.0881
  984THF    H1012789   3.764   0.797   0.708 -2.1195  1.4371  2.3022
  984THF    H1112790   3.881   0.863   0.823 -0.8670 -1.3679  0.2650
  984THF    H1212791   4.045   0.800   0.674  0.5167 -0.5846 -0.8124
  984THF    H1312792   3.938   0.851   0.543 -1.7299  2.1969  0.0653
  985THF     O112793   0.561   0.441   2.113  0.5401 -0.1917 -0.5410
  985THF     C212794   0.601   0.532   2.219  0.4573  0.5605 -0.3558
  985THF     C312795   0.446   0.362   2.142 -1.0704 -0.1081  0.2196
  985THF     H412796   0.583   0.635   2.187 -0.9129  0.3489 -0.3441
  985THF     H512797   0.709   0.537   2.232  0.3512 -1.3511  1.8725
  985THF     H612798   0.364   0.428   2.112 -0.4193  1.4925  1.7763
  985THF     H712799   0.435   0.268   2.088  1.4225 -0.1925 -0.2472
  985THF     C812800   0.474   0.341   2.289  0.2682 -1.3446 -0.4064
  985THF     C912801   0.530   0.477   2.338  0.1580  0.9614 -0.5873
  985THF    H1012802   0.553   0.268   2.306  1.1447 -0.1222  0.9839
  985THF    H1112803   0.391   0.300   2.347 -0.5752 -2.0622 -2.0325
  985THF    H1212804   0.444   0.539   2.364  0.1148 -0.0020  1.7436
  985THF    H1312805   0.600   0.467   2.421  0.1491 -1.9416 -0.8467
  986THF     O112806   1.229   3.118   3.201  0.2959 -0.1111  0.1961
  986THF     C212807   1.137   3.220   3.202  0.2687 -0.2821  0.9266
  986THF     C312808   1.339   3.154   3.280  0.0617 -0.2653 -0.0710
  986THF     H412809   1.077   3.219   3.294  0.1521 -0.2659  0.8516
  986THF     H512810   1.056   3.206   3.130  1.1712 -0.3385 -0.0906
  986THF     H612811   1.316   3.150   3.387 -2.4168  3.7590 -0.2530
  986THF     H712812   1.418   3.085   3.250  2.2094  1.6422  0.8414
  986THF     C812813   1.353   3.307   3.242 -0.3445 -0.0797  0.9630
  986THF     C912814   1.217   3.348   3.184  0.1343  0.3245 -0.3905
  986THF    H1012815   1.432   3.319   3.169  0.6824 -0.3098  2.0002
  986THF    H1112816   1.391   3.372   3.321  0.3194  0.9449 -0.1675
  986THF    H1212817   1.178   3.433   3.240 -1.2803  0.7541 -1.9618
  986THF    H1312818   1.225   3.365   3.077 -1.3281 -1.5661 -0.8566
  987THF     O112819   0.766   1.576   5.138 -0.6764  0.1180 -0.0714
  987THF     C212820   0.862   1.480   5.180  0.4351 -0.1082  0.3454
  987THF     C312821   0.669   1.516   5.049  0.0568  0.2892 -0.0491
  987THF     H412822   0.839   1.460   5.284 -1.1154 -1.4997 -0.2190
  987THF     H512823   0.965   1.516   5.172  0.3226 -0.1603 -3.3769
  987THF     H612824   0.594   1.479   5.119 -0.0804 -0.7061 -0.7113
  987THF     H712825   0.626   1.596   4.989 -2.2845 -1.0456 -0.2777
  987THF     C812826   0.752   1.410   4.981  0.5988 -0.4163  0.6508
  987THF     C912827   0.838   1.359   5.095 -0.2868  0.2383  0.3834
  987THF    H1012828   0.823   1.446   4.906 -3.2108  0.7342 -2.7787
  987THF    H1112829   0.692   1.336   4.928  0.9373 -1.2481  1.4193
  987THF    H1212830   0.782   1.285   5.152  1.1204 -0.9095  0.3418
  987THF    H1312831   0.923   1.306   5.050  1.0047  2.5317 -0.0399
  988THF     O112832   0.574   4.363   1.004  0.2122 -0.3375 -0.3261
  988THF     C212833   0.481   4.325   0.907 -0.8314 -0.2016 -0.0862
  988THF     C312834   0.511   4.363   1.127  0.2841 -0.4997 -0.4572
  988THF     H412835   0.458   4.219   0.896  1.9726 -0.8691 -0.0573
  988THF     H512836   0.499   4.374   0.811 -1.2058 -4.1559 -2.3684
  988THF     H612837   0.500   4.260   1.163 -0.0470 -0.0762  0.6872
  988THF     H712838   0.563   4.429   1.195  0.1145 -0.2757 -0.5441
  988THF     C812839   0.369   4.420   1.105  0.2927 -0.6130  0.0834
  988THF     C912840   0.356   4.394   0.959 -0.2279 -0.4729 -0.1578
  988THF    H1012841   0.360   4.524   1.136 -1.8322 -0.7844  0.1937
  988THF    H1112842   0.294   4.366   1.164  0.0316 -3.4615 -2.6151
  988THF    H1212843   0.264   4.338   0.937 -1.3114  1.5468 -1.0797
  988THF    H1312844   0.351   4.495   0.918 -2.7273 -0.3704  0.2124
  989THF     O112845   2.102   5.309   3.470  0.0903 -0.3840  0.0179
  989THF     C212846   2.135   5.386   3.585 -0.3509 -0.3344  0.2067
  989THF     C312847   2.110   5.397   3.358 -0.3391 -0.0348  0.6173
  989THF     H412848   2.137   5.337   3.682  0.8984 -1.0346 -0.1432
  989THF     H512849   2.059   5.462   3.603 -0.2911  0.3094 -1.9963
  989THF     H612850   2.096   5.350   3.261 -0.7089  0.3255  0.4939
  989THF     H712851   2.041   5.481   3.356 -1.3303 -0.8290 -1.2527
  989THF     C812852   2.254   5.448   3.390 -0.6505  0.2801 -0.3781
  989THF     C912853   2.266   5.451   3.541  0.0430  0.5239 -0.4739
  989THF    H1012854   2.261   5.549   3.352 -3.0944  1.1451  1.2530
  989THF    H1112855   2.337   5.394   3.344  0.6380  1.3667  0.5800
  989THF    H1212856   2.351   5.396   3.583  1.3549  2.3725 -0.6078
  989THF    H1312857   2.280   5.553   3.576  0.8025  0.6499 -1.1247
  990THF     O112858   2.995   3.034   2.820 -0.2207  0.2987 -0.0412
  990THF     C212859   3.130   3.091   2.821 -0.3396  0.4366  0.1209
  990THF     C312860   3.005   2.895   2.793 -0.5364  0.8416  0.3446
  990THF     H412861   3.179   3.070   2.916  0.4437 -0.4768 -0.4681
  990THF     H512862   3.111   3.198   2.810 -2.7647  0.2691  1.7863
  990THF     H612863   3.002   2.836   2.885  0.7768  0.5842  0.2544
  990THF     H712864   2.916   2.862   2.740 -0.0657 -0.6184  0.4045
  990THF     C812865   3.146   2.880   2.725  0.3307 -0.2355  0.0835
  990THF     C912866   3.194   3.021   2.702 -0.2321  0.1661  0.5713
  990THF    H1012867   3.145   2.818   2.636  2.9521 -0.4095  0.0902
  990THF    H1112868   3.208   2.832   2.801 -0.6140 -1.9802 -0.2021
  990THF    H1212869   3.302   3.035   2.717  0.2142 -0.8953 -1.3751
  990THF    H1312870   3.158   3.068   2.611 -0.3370 -0.9393  0.0414
  991THF     O112871   3.869   3.136   4.273 -0.5252  0.2041  0.0542
  991THF     C212872   3.780   3.089   4.173  0.9478  0.2189 -0.4912
  991THF     C312873   3.894   3.027   4.357 -0.1222  0.2792 -0.1746
  991THF     H412874   3.846   3.048   4.096  1.1542  0.3413 -0.3798
  991THF     H512875   3.723   3.174   4.135 -0.3770 -1.1471 -1.6734
  991THF     H612876   3.970   2.956   4.324  0.0397  0.3146  0.1253
  991THF     H712877   3.923   3.074   4.450  0.1767 -0.4258  0.0935
  991THF     C812878   3.756   2.961   4.373 -0.0625  0.0165 -0.3491
  991THF     C912879   3.694   2.975   4.228  0.3531  0.0028 -0.1463
  991THF    H1012880   3.698   3.018   4.445 -0.8161 -2.9967  1.5939
  991THF    H1112881   3.776   2.865   4.421  1.5968  0.3623 -0.2860
  991THF    H1212882   3.701   2.888   4.163  0.3951  0.3343 -0.5869
  991THF    H1312883   3.592   3.013   4.242 -0.8499 -3.4162  1.4228
  992THF     O112884   1.804   3.023   3.073  0.1674 -0.0660 -0.5614
  992THF     C212885   1.725   2.915   3.035  0.2579  0.0929  0.3671
  992THF     C312886   1.888   3.059   2.964 -0.1645 -0.3343 -0.0407
  992THF     H412887   1.624   2.934   3.069  0.2228  0.3861  0.1068
  992THF     H512888   1.769   2.826   3.080 -0.4054  0.0341  0.9098
  992THF     H612889   1.908   3.165   2.978 -3.1194  0.2633  0.5412
  992THF     H712890   1.975   2.994   2.955  0.2165  0.0844  0.5793
  992THF     C812891   1.799   3.038   2.847 -0.9598 -0.1323  0.7486
  992THF     C912892   1.719   2.914   2.884  0.1769 -0.5051 -0.0635
  992THF    H1012893   1.849   3.024   2.751 -1.0501  1.1863  0.4976
  992THF    H1112894   1.740   3.129   2.841 -1.2853 -0.2784  1.6194
  992THF    H1212895   1.614   2.905   2.853 -0.3672  2.4504  0.6664
  992THF    H1312896   1.770   2.822   2.856  0.7005  0.2844 -1.8920
  993THF     O112897   1.465   1.287   1.113  0.0655  0.3327 -0.0229
  993THF     C212898   1.428   1.155   1.164 -0.2237  0.5236 -0.3221
  993THF     C312899   1.505   1.275   0.980 -0.2979 -0.7602 -0.0906
  993THF     H412900   1.320   1.141   1.154 -0.3498  1.7916 -0.8637
  993THF     H512901   1.456   1.149   1.269  1.5205 -2.5391 -0.8351
  993THF     H612902   1.424   1.280   0.907 -0.4314  0.9136  0.1475
  993THF     H712903   1.565   1.363   0.957 -2.1299  0.6238  0.2288
  993THF     C812904   1.584   1.147   0.978  0.2860 -0.1195 -0.6028
  993THF     C912905   1.514   1.062   1.080  0.2051 -0.0202  1.0945
  993THF    H1012906   1.686   1.161   1.014 -0.3995 -1.0069  1.9054
  993THF    H1112907   1.587   1.088   0.887  3.0379 -2.2187  0.6989
  993THF    H1212908   1.451   0.997   1.019 -0.7140  0.9523  0.9817
  993THF    H1312909   1.592   1.010   1.136  0.3377  0.4489  1.3472
  994THF     O112910   0.000   4.859   2.178  0.3285  0.7229 -0.3488
  994THF     C212911   0.058   4.729   2.153 -0.7694 -0.5382 -0.0907
  994THF     C312912   0.112   4.949   2.194 -0.4491 -0.0511  0.0657
  994THF     H412913   0.007   4.653   2.094 -0.2900 -2.0315  1.3293
  994THF     H512914   0.074   4.673   2.246  1.4239  0.0445 -0.0655
  994THF     H612915   0.099   5.036   2.130  0.8900  1.3621  1.6526
  994THF     H712916   0.097   4.988   2.294  0.6550 -1.3108  0.7574
  994THF     C812917   0.244   4.866   2.179 -0.1616  0.4795 -0.1023
  994THF     C912918   0.196   4.750   2.092 -0.5852  0.8312 -0.6614
  994THF    H1012919   0.290   4.826   2.268  1.4955 -1.7328 -1.8375
  994THF    H1112920   0.326   4.915   2.127 -0.1799  0.7569  0.1261
  994THF    H1212921   0.194   4.779   1.987 -3.4233  2.4270 -0.2834
  994THF    H1312922   0.251   4.658   2.104  0.4002  1.2828 -1.5384
  995THF     O112923   1.881   5.490   1.737 -0.2850  0.0228 -0.2574
  995THF     C212924   1.910   5.623   1.704  0.1010 -0.1834  0.0834
  995THF     C312925   1.749   5.476   1.691 -0.0968 -0.0705  0.0346
  995THF     H412926   2.019   5.629   1.697  0.2706 -2.7223 -0.5060
  995THF     H512927   1.874   5.689   1.783 -0.6298 -0.2352 -0.1995
  995THF     H612928   1.713   5.373   1.686  0.4193 -0.2251 -0.5185
  995THF     H712929   1.694   5.524   1.772 -0.1980  0.3783 -0.2974
  995THF     C812930   1.733   5.559   1.560  0.5690 -0.4810  0.8483
  995THF     C912931   1.846   5.658   1.573  0.7352  0.3141  0.4776
  995THF    H1012932   1.635   5.601   1.537  1.8880  1.8389 -0.9910
  995THF    H1112933   1.746   5.499   1.470  1.8429  1.7790 -0.5813
  995THF    H1212934   1.914   5.625   1.494  0.1906 -1.3010  0.6377
  995THF    H1312935   1.802   5.757   1.564 -1.9173 -0.8051  0.1858
  996THF     O112936   5.150   0.991   2.581 -0.2731  0.1968 -0.3939
  996THF     C212937   5.026   0.953   2.531 -0.1703 -1.0296 -0.0886
  996THF     C312938   5.247   0.891   2.533  0.2908 -0.1244  0.7022
  996THF     H412939   4.970   1.046   2.521  2.6281  0.9294  1.1239
  996THF     H512940   4.975   0.883   2.597 -0.3829 -0.9567 -0.1747
  996THF     H612941   5.352   0.920   2.533  0.5594 -1.0823  0.5663
  996THF     H712942   5.236   0.796   2.583  0.4868  0.1137  1.2050
  996THF     C812943   5.192   0.861   2.395 -0.2235  0.0906  0.4412
  996THF     C912944   5.052   0.901   2.393  0.0561 -0.1488  0.1339
  996THF    H1012945   5.200   0.758   2.360 -2.3487 -0.0624  0.2603
  996THF    H1112946   5.249   0.926   2.328  0.6290  1.8951  2.7922
  996THF    H1212947   5.025   0.983   2.328  0.0484  0.2509  0.6341
  996THF    H1312948   4.999   0.809   2.370  0.1616 -1.0518  3.0025
  997THF     O112949   0.371   0.817   4.602 -0.6155 -0.2350  0.4364
  997THF     C212950   0.273   0.791   4.500  0.1856  0.0801  0.3221
  997THF     C312951   0.498   0.820   4.537 -0.1742 -0.3242  0.6430
  997THF     H412952   0.168   0.788   4.528  0.4786 -3.0960  1.5127
  997THF     H512953   0.286   0.687   4.468  0.7836  0.6584 -1.4163
  997THF     H612954   0.569   0.867   4.606  0.2812  0.6780 -0.4691
  997THF     H712955   0.527   0.717   4.518 -1.4230 -0.6888  0.6692
  997THF     C812956   0.482   0.893   4.406  0.1039  0.0239 -0.3983
  997THF     C912957   0.324   0.896   4.395  0.4850 -0.3674  0.4048
  997THF    H1012958   0.532   0.842   4.324 -0.4929 -3.3557  1.1635
  997THF    H1112959   0.522   0.994   4.405 -2.0710  0.9625 -2.7988
  997THF    H1212960   0.287   0.996   4.415  0.6115  0.3934 -2.6121
  997THF    H1312961   0.298   0.877   4.290 -1.9495 -0.8592  1.0321
  998THF     O112962   3.991   1.977   3.337  0.6163  0.5409  0.1078
  998THF     C212963   4.122   1.924   3.337 -0.6468 -0.6003 -0.1456
  998THF     C312964   3.912   1.868   3.302 -0.0648  0.1267  0.4247
  998THF     H412965   4.197   1.991   3.379  0.2037 -0.2669 -2.1140
  998THF     H512966   4.154   1.903   3.235  1.5429  1.4323  0.0452
  998THF     H612967   3.813   1.889   3.342  0.3448 -1.6712  2.5753
  998THF     H712968   3.915   1.860   3.193  0.7075  1.3542  0.3432
  998THF     C812969   3.970   1.748   3.380  0.0432  0.0456 -0.1429
  998THF     C912970   4.111   1.799   3.420 -0.0210  0.2630 -0.8393
  998THF    H1012971   3.995   1.659   3.321  1.6571 -1.7089  2.9101
  998THF    H1112972   3.909   1.708   3.461 -0.0903 -1.4919 -0.9688
  998THF    H1212973   4.095   1.816   3.527 -0.3858 -1.7808 -0.5349
  998THF    H1312974   4.193   1.729   3.406  0.6757  1.2636 -2.0100
  999THF     O112975   1.002   0.827   0.492  0.2065 -0.1419  0.1049
  999THF     C212976   1.112   0.794   0.405 -0.5986 -0.4177  0.1470
  999THF     C312977   1.031   0.764   0.616  0.3564 -0.5862  0.2220
  999THF     H412978   1.173   0.881   0.381  0.9315 -1.7539 -1.0626
  999THF     H512979   1.064   0.765   0.312 -0.5848  0.3626 -0.1142
  999THF     H612980   1.089   0.818   0.691  0.8798 -1.7829  0.7119
  999THF     H712981   0.940   0.728   0.664  1.0334 -2.2161  0.3674
  999THF     C812982   1.096   0.635   0.579 -0.2009  0.0356 -0.0861
  999THF     C912983   1.185   0.675   0.461  0.4540  0.2121 -0.7628
  999THF    H1012984   1.025   0.562   0.540 -0.6596  0.5487 -0.2314
  999THF    H1112985   1.144   0.580   0.660 -0.5357 -2.0713 -1.2533
  999THF    H1212986   1.285   0.702   0.496  0.7654  1.4007 -2.4517
  999THF    H1312987   1.180   0.594   0.388 -0.5047  0.6598 -1.2154
 1000THF     O112988   4.695   5.326   3.435 -0.1466  0.7291  0.6837
 1000THF     C212989   4.680   5.374   3.568 -0.7418  0.4317 -1.0661
 1000THF     C312990   4.809   5.390   3.381  0.2989 -0.4727 -0.1846
 1000THF     H412991   4.750   5.311   3.624 -0.8251  0.2724 -1.1410
 1000THF     H512992   4.585   5.360   3.619  0.0523 -1.5326 -0.0151
 1000THF     H612993   4.890   5.317   3.372  0.2060 -0.4672 -1.2238
 1000THF     H712994   4.788   5.409   3.276  2.2057  0.7001 -0.4057
 1000THF     C812995   4.828   5.515   3.468 -0.3305 -0.0732  0.6194
 1000THF     C912996   4.720   5.519   3.577 -0.0264 -0.4856  1.1128
 1000THF    H1012997   4.830   5.601   3.401  1.3248 -1.7580 -1.6237
 1000THF    H1112998   4.922   5.517   3.523  0.7813  1.6972 -1.1837
 1000THF    H1212999   4.736   5.555   3.678  2.0670 -1.0243  1.0198
 1000THF    H1313000   4.638   5.585   3.551  0.9906  0.2668 -0.3496
 1001THF     O113001   2.179   3.872   4.767 -0.2324 -0.0639 -0.3250
 1001THF     C213002   2.271   3.936   4.674  0.0044 -0.1417 -0.3436
 1001THF     C313003   2.243   3.866   4.889  0.1628 -0.6129 -0.2206
 1001THF     H413004   2.257   4.044   4.676 -0.9645 -0.0976 -3.6761
 1001THF     H513005   2.234   3.901   4.577 -2.6494  1.6439 -0.0803
 1001THF     H613006   2.187   3.938   4.950  0.1962  2.7064 -3.7233
 1001THF     H713007   2.240   3.761   4.919 -1.0079 -0.6438 -0.3857
 1001THF     C813008   2.386   3.896   4.864  0.2351 -0.0158  0.1055
 1001THF     C913009   2.407   3.893   4.720 -0.4804 -0.6260 -0.0355
 1001THF    H1013010   2.445   3.820   4.917 -1.2765 -0.5595  1.0655
 1001THF    H1113011   2.404   3.995   4.905 -1.8912 -1.0342  4.0142
 1001THF    H1213012   2.493   3.946   4.680  1.8316 -2.4118  2.2258
 1001THF    H1313013   2.427   3.788   4.699 -0.8597 -0.7754  0.3433
 1002THF     O113014   3.456   3.666   2.292 -0.3899 -0.4727  0.0756
 1002THF     C213015   3.590   3.689   2.345  0.5852  0.1415  0.1973
 1002THF     C313016   3.457   3.738   2.168  0.3104  0.0585 -0.1651
 1002THF     H413017   3.608   3.639   2.440  0.7715  1.5883  0.9479
 1002THF     H513018   3.621   3.793   2.359 -0.4213  0.6607 -1.1941
 1002THF     H613019   3.369   3.718   2.106 -1.2565  1.5756  1.4329
 1002THF     H713020   3.451   3.845   2.188 -2.7922 -0.0836  0.1837
 1002THF     C813021   3.593   3.688   2.111  0.0956  1.1107  0.3410
 1002THF     C913022   3.665   3.630   2.228  0.1257  0.4269 -0.0057
 1002THF    H1013023   3.650   3.772   2.074  2.8755 -0.1595  1.4572
 1002THF    H1113024   3.574   3.606   2.042 -1.2263  1.7620 -0.0967
 1002THF    H1213025   3.644   3.523   2.233 -0.7599  0.5942  0.1495
 1002THF    H1313026   3.772   3.646   2.221  0.3370 -0.4964  0.8671
 1003THF     O113027   4.153   0.767   5.498 -0.3949 -0.1924 -0.2473
 1003THF     C213028   4.024   0.807   5.547  0.6758 -0.0787  0.4258
 1003THF     C313029   4.222   0.887   5.459  0.5618 -0.2343  0.4159
 1003THF     H413030   4.028   0.876   5.631 -0.4319  0.4220  0.0861
 1003THF     H513031   3.959   0.728   5.583  1.0084 -0.4259  0.2753
 1003THF     H613032   4.247   0.941   5.550  3.9220  0.3497 -0.7008
 1003THF     H713033   4.322   0.863   5.423  1.7733  1.9631  2.0623
 1003THF     C813034   4.116   0.944   5.374 -0.1794  0.7003  0.7353
 1003THF     C913035   3.981   0.877   5.417  0.2273 -0.2122  0.2128
 1003THF    H1013036   4.132   0.932   5.267  0.5586 -0.3317  0.9427
 1003THF    H1113037   4.124   1.051   5.393 -0.9501  0.7234  0.9697
 1003THF    H1213038   3.904   0.953   5.427  0.4442 -0.1420  1.6504
 1003THF    H1313039   3.940   0.809   5.343  0.1884 -0.3628  0.3718
 1004THF     O113040   3.032   2.268   4.111 -0.0968 -0.1788 -0.2338
 1004THF     C213041   3.140   2.207   4.179 -0.2639 -0.6874  0.6097
 1004THF     C313042   3.025   2.405   4.142 -0.2005  0.7533 -0.1844
 1004THF     H413043   3.179   2.115   4.136 -0.2211 -0.6607  0.5916
 1004THF     H513044   3.117   2.188   4.284 -2.2408 -1.6567  0.0543
 1004THF     H613045   2.957   2.448   4.068  0.4065  1.4632 -0.3430
 1004THF     H713046   2.988   2.418   4.244 -1.5252  1.1074 -0.6911
 1004THF     C813047   3.169   2.444   4.139  0.2097 -0.0644 -0.0681
 1004THF     C913048   3.251   2.318   4.157  0.2912 -0.2173 -0.9862
 1004THF    H1013049   3.203   2.517   4.212  2.1315  0.9127 -1.8352
 1004THF    H1113050   3.179   2.486   4.039 -1.3674 -0.8918 -0.6115
 1004THF    H1213051   3.307   2.299   4.065  1.4770  0.5663 -0.4397
 1004THF    H1313052   3.325   2.316   4.236 -1.3821 -2.4310  0.6589
 1005THF     O113053   3.519   3.822   2.666 -0.1763 -0.5273 -0.5688
 1005THF     C213054   3.464   3.931   2.752 -0.7182  0.8521  0.1251
 1005THF     C313055   3.654   3.810   2.703 -0.0571  0.0246 -0.3978
 1005THF     H413056   3.474   3.893   2.854  0.3574 -1.4597 -0.7528
 1005THF     H513057   3.365   3.971   2.728 -0.5401  0.8309 -0.6766
 1005THF     H613058   3.650   3.769   2.804 -1.0813  0.5956 -0.1912
 1005THF     H713059   3.714   3.746   2.638  0.1421  2.0553 -2.3550
 1005THF     C813060   3.703   3.954   2.717 -0.0858  0.6165  0.3629
 1005THF     C913061   3.574   4.034   2.741  0.1945 -0.0914 -0.0430
 1005THF    H1013062   3.743   3.984   2.620 -0.9274  1.3627  0.2302
 1005THF    H1113063   3.787   3.962   2.786 -0.3669 -2.4405  1.1860
 1005THF    H1213064   3.577   4.100   2.828  0.8075 -0.1539 -0.0080
 1005THF    H1313065   3.548   4.098   2.657 -2.4144  0.2485  0.9201
 1006THF     O113066   1.172   2.220   1.055  0.0753  0.4306  0.0260
 1006THF     C213067   1.099   2.099   1.051  0.1589  0.0318  0.7400
 1006THF     C313068   1.084   2.333   1.079  0.8001 -0.2175  0.4139
 1006THF     H413069   1.158   2.009   1.068  0.7946  0.2135 -0.4477
 1006THF     H513070   1.048   2.097   0.955 -0.9263  3.4655  1.1107
 1006THF     H613071   1.128   2.398   1.155  0.4136  0.5101  0.0331
 1006THF     H713072   1.059   2.384   0.986 -0.7426 -0.2007  0.8091
 1006THF     C813073   0.959   2.274   1.137  0.2404 -0.4857  0.1367
 1006THF     C913074   0.996   2.125   1.158  0.1039  0.1863 -0.1334
 1006THF    H1013075   0.875   2.279   1.069  0.7348 -1.9411 -0.6275
 1006THF    H1113076   0.925   2.315   1.232 -0.3111  0.3574 -0.4127
 1006THF    H1213077   1.040   2.109   1.257  1.9992 -0.2998 -1.0061
 1006THF    H1313078   0.910   2.058   1.154  0.3898 -0.1437 -0.7846
 1007THF     O113079   2.328   1.536   1.467  0.3465 -0.2573 -0.0103
 1007THF     C213080   2.228   1.462   1.538  0.6395 -0.1218 -0.5197
 1007THF     C313081   2.292   1.669   1.475  1.1405  0.3191 -0.0650
 1007THF     H413082   2.231   1.481   1.645 -0.9344  3.0525 -0.9362
 1007THF     H513083   2.230   1.355   1.515  1.3543 -0.0082 -1.0359
 1007THF     H613084   2.298   1.719   1.572  1.7181 -1.6208  0.9445
 1007THF     H713085   2.359   1.719   1.405  2.0539 -2.8574 -1.6105
 1007THF     C813086   2.150   1.658   1.428  0.0582 -0.1596 -0.1494
 1007THF     C913087   2.098   1.534   1.500  0.1603  0.7659  0.4148
 1007THF    H1013088   2.160   1.640   1.321  0.8538 -1.2054  0.0897
 1007THF    H1113089   2.085   1.740   1.457 -0.0464 -0.2376 -0.1637
 1007THF    H1213090   2.024   1.554   1.579 -0.3247 -0.9346  0.4322
 1007THF    H1313091   2.031   1.474   1.438  2.0804 -2.6305  1.3419
 1008THF     O113092   2.000   1.694   0.822 -0.1954 -0.5839  0.1302
 1008THF     C213093   1.898   1.672   0.724  0.6216  0.3466 -0.7403
 1008THF     C313094   1.951   1.631   0.939  0.5972 -0.0236 -0.1260
 1008THF     H413095   1.934   1.699   0.625 -0.4510 -1.6079 -1.7311
 1008THF     H513096   1.805   1.723   0.747  0.8214  0.6604 -0.6347
 1008THF     H613097   2.029   1.630   1.015  0.0698 -0.7605  0.4209
 1008THF     H713098   1.867   1.689   0.976  1.2341  0.0169  1.2983
 1008THF     C813099   1.911   1.491   0.893 -0.4439  0.3306  0.3620
 1008THF     C913100   1.874   1.519   0.747  0.4997  0.1790 -1.6178
 1008THF    H1013101   1.822   1.439   0.927  0.7585 -3.2341 -1.4412
 1008THF    H1113102   1.998   1.426   0.887  0.5446  1.7164 -2.7678
 1008THF    H1213103   1.942   1.463   0.682  0.4783 -0.9049 -0.7148
 1008THF    H1313104   1.769   1.496   0.731  1.0719 -2.9708 -1.5405
 1009THF     O113105   4.103   2.389   3.577 -0.0591 -0.5272 -0.3208
 1009THF     C213106   3.988   2.461   3.624 -0.2619 -0.2620 -0.8511
 1009THF     C313107   4.059   2.289   3.483 -0.3662 -0.0348 -0.6301
 1009THF     H413108   3.975   2.556   3.573  1.4695  0.2536 -0.4149
 1009THF     H513109   3.993   2.492   3.728  0.4702 -0.6498 -0.7620
 1009THF     H613110   4.046   2.337   3.386 -0.5487 -0.2279 -0.7031
 1009THF     H713111   4.141   2.217   3.477 -2.4272 -2.5408 -0.4793
 1009THF     C813112   3.932   2.225   3.543  0.3051 -0.0523  0.4571
 1009THF     C913113   3.875   2.356   3.613 -0.2333 -0.0921  0.6299
 1009THF    H1013114   3.962   2.148   3.614 -0.9899 -1.1296 -0.1323
 1009THF    H1113115   3.872   2.180   3.464  2.7597 -0.2822 -1.3890
 1009THF    H1213116   3.794   2.395   3.551  0.6210  0.6402 -0.0651
 1009THF    H1313117   3.838   2.332   3.712  2.0289  0.2727  1.6351
 1010THF     O113118   1.277   4.305   0.709 -0.2702 -0.5760  0.3093
 1010THF     C213119   1.266   4.160   0.700  0.6078 -0.2541  0.3646
 1010THF     C313120   1.245   4.334   0.846  0.5042 -0.0376  0.3680
 1010THF     H413121   1.311   4.121   0.609  1.2573  0.6996  0.2667
 1010THF     H513122   1.162   4.127   0.703  0.7234 -0.5275  2.5185
 1010THF     H613123   1.274   4.436   0.870 -2.7983  1.3680 -0.9963
 1010THF     H713124   1.137   4.322   0.852  0.6245 -1.4472  0.1508
 1010THF     C813125   1.323   4.226   0.915  0.0600  0.2527 -0.2935
 1010THF     C913126   1.317   4.100   0.830 -0.0071  0.0149  0.7083
 1010THF    H1013127   1.281   4.213   1.014  1.3645  3.4749  0.8199
 1010THF    H1113128   1.428   4.245   0.934  0.0931 -0.0855 -0.1422
 1010THF    H1213129   1.413   4.052   0.814 -0.3895 -0.3410 -0.5740
 1010THF    H1313130   1.248   4.028   0.874  0.8074 -0.0172  2.0055
 1011THF     O113131   4.231   0.944   1.738 -0.6569 -0.4324 -0.0739
 1011THF     C213132   4.187   0.873   1.849  0.1790  0.1769  0.1507
 1011THF     C313133   4.174   0.889   1.616 -0.3709 -0.3567 -0.0228
 1011THF     H413134   4.162   0.955   1.917 -1.1097  2.3167 -2.7010
 1011THF     H513135   4.264   0.807   1.890  1.0377  1.2537  0.2986
 1011THF     H613136   4.191   0.960   1.535 -0.7874 -0.3510 -0.1087
 1011THF     H713137   4.227   0.798   1.589 -1.3223 -0.4591 -1.6456
 1011THF     C813138   4.032   0.867   1.652  0.4611  0.0991  0.0100
 1011THF     C913139   4.057   0.813   1.787 -0.3334  0.8177 -0.8420
 1011THF    H1013140   3.993   0.796   1.579  1.7858  0.2395 -0.8738
 1011THF    H1113141   3.978   0.962   1.649  1.8384  0.8934 -1.2530
 1011THF    H1213142   3.980   0.848   1.856 -1.2648 -0.3785 -1.2412
 1011THF    H1313143   4.069   0.705   1.790 -1.0504  0.7542 -0.0351
 1012THF     O113144   2.441   2.568   2.147  0.1441 -0.2977  0.0882
 1012THF     C213145   2.365   2.672   2.101 -0.2441 -0.0981 -0.4200
 1012THF     C313146   2.453   2.597   2.289 -0.5613 -0.2332 -0.2906
 1012THF     H413147   2.321   2.648   2.004 -2.7505 -1.4810  0.9637
 1012THF     H513148   2.430   2.759   2.090 -0.5307  0.2928  0.7992
 1012THF     H613149   2.476   2.510   2.350  3.4997  1.4525  0.9485
 1012THF     H713150   2.526   2.677   2.303 -2.5363  1.6165 -0.0030
 1012THF     C813151   2.308   2.632   2.330  0.4782  0.0882 -0.8216
 1012THF     C913152   2.246   2.681   2.199 -0.0947 -0.5471 -0.4144
 1012THF    H1013153   2.309   2.705   2.410 -0.2253 -1.0535  0.2705
 1012THF    H1113154   2.257   2.540   2.360  1.0053 -1.0330 -3.1262
 1012THF    H1213155   2.155   2.626   2.173  0.1658 -0.7002 -1.0151
 1012THF    H1313156   2.221   2.787   2.208  1.4896 -0.1686 -0.3026
 1013THF     O113157   3.646   3.915   4.970 -0.6382 -0.4765 -0.0799
 1013THF     C213158   3.744   3.906   5.074 -0.1456 -0.0633 -0.3298
 1013THF     C313159   3.708   3.921   4.842  0.0853 -0.2804  1.4511
 1013THF     H413160   3.740   3.806   5.117 -0.6333 -0.9198 -2.2640
 1013THF     H513161   3.722   3.988   5.143  1.0075 -0.9909  1.2001
 1013THF     H613162   3.650   3.866   4.768 -0.3010  0.9497  0.8180
 1013THF     H713163   3.702   4.024   4.807 -1.9377 -0.5154  0.9817
 1013THF     C813164   3.855   3.885   4.854 -0.6675 -0.4064 -0.3117
 1013THF     C913165   3.883   3.928   5.006  0.1176  0.0295 -0.1756
 1013THF    H1013166   3.913   3.947   4.785  0.0468  0.5679  1.1065
 1013THF    H1113167   3.854   3.777   4.840 -2.1414 -0.8854  2.6507
 1013THF    H1213168   3.952   3.866   5.063 -1.1535 -0.5005  0.8351
 1013THF    H1313169   3.912   4.030   5.032 -2.5782  0.3740  1.8501
 1014THF     O113170   4.105   4.400   2.087 -0.1014  0.0581  0.3197
 1014THF     C213171   4.020   4.482   2.010 -0.4005 -0.1552  0.1412
 1014THF     C313172   4.125   4.466   2.212 -0.1910 -0.7937 -0.1777
 1014THF     H413173   3.994   4.431   1.918  2.4427 -1.7382  0.1000
 1014THF     H513174   4.072   4.574   1.984 -1.7692  0.6385  0.1146
 1014THF     H613175   4.170   4.402   2.287  0.5909 -0.5385 -0.4158
 1014THF     H713176   4.191   4.553   2.205  0.3557 -1.0132  1.7944
 1014THF     C813177   3.979   4.519   2.241 -0.7563  0.5331  0.9452
 1014THF     C913178   3.906   4.504   2.111 -0.2032 -0.2014  0.3009
 1014THF    H1013179   3.991   4.624   2.270 -0.8487  0.1980  2.2663
 1014THF    H1113180   3.926   4.467   2.320  2.4665 -1.8802  1.7660
 1014THF    H1213181   3.845   4.414   2.118  2.6768 -2.2401  1.3482
 1014THF    H1313182   3.843   4.590   2.087  0.8444  0.3929 -0.4241
 1015THF     O113183   1.371   5.037   4.133  0.6411 -0.4292 -0.1022
 1015THF     C213184   1.392   5.044   3.992  0.0994 -0.2756  0.0941
 1015THF     C313185   1.472   4.959   4.194  0.7634  0.7209  0.3171
 1015THF     H413186   1.455   5.130   3.966 -1.8568  1.0004 -0.6462
 1015THF     H513187   1.297   5.058   3.941 -0.3474 -1.0745  0.6980
 1015THF     H613188   1.540   5.030   4.243  2.3914 -0.4372 -0.1606
 1015THF     H713189   1.452   4.889   4.276  1.8989 -1.2414 -0.9913
 1015THF     C813190   1.555   4.895   4.082  0.1027 -0.4659 -0.1758
 1015THF     C913191   1.466   4.911   3.962 -0.3112  0.3237  0.0025
 1015THF    H1013192   1.575   4.794   4.117  1.2070  0.3081  1.5903
 1015THF    H1113193   1.648   4.953   4.080  0.0267 -0.3030  0.5425
 1015THF    H1213194   1.518   4.924   3.867 -0.1570 -0.5797 -0.0475
 1015THF    H1313195   1.395   4.829   3.948  0.6309 -0.2875 -1.4480
 1016THF     O113196   3.842   3.203   3.604 -0.6335  0.3099  1.1711
 1016THF     C213197   3.829   3.071   3.657  0.5974 -0.3749  0.4605
 1016THF     C313198   3.793   3.197   3.470  0.3515 -0.3607  0.3773
 1016THF     H413199   3.845   3.080   3.764  0.6966 -1.3835  0.5412
 1016THF     H513200   3.909   3.003   3.626  1.2791  0.4701  0.2974
 1016THF     H613201   3.753   3.292   3.435 -1.2511 -0.9592  0.4678
 1016THF     H713202   3.862   3.177   3.389 -1.2158 -1.0940 -0.8221
 1016THF     C813203   3.682   3.094   3.481  0.2304  0.5701  0.5356
 1016THF     C913204   3.684   3.040   3.621  0.6244 -0.1783  0.6727
 1016THF    H1013205   3.700   3.011   3.414 -0.0454 -0.1955  1.3876
 1016THF    H1113206   3.586   3.142   3.467  0.6180  1.1239 -0.2931
 1016THF    H1213207   3.614   3.088   3.688 -0.9144  0.9058 -1.5906
 1016THF    H1313208   3.665   2.933   3.623 -1.2959  0.0771 -1.0301
 1017THF     O113209   1.582   3.562   0.980 -0.9212  0.7986  0.0131
 1017THF     C213210   1.580   3.695   0.938 -0.5212  0.4115  0.7104
 1017THF     C313211   1.492   3.533   1.086 -1.1336  0.0788  0.2701
 1017THF     H413212   1.601   3.722   0.835 -0.7856  0.8284  0.7638
 1017THF     H513213   1.656   3.745   0.997  1.3151 -0.1804 -1.0398
 1017THF     H613214   1.462   3.429   1.102  2.2841 -1.1121 -0.2866
 1017THF     H713215   1.543   3.560   1.179  1.4266 -0.8747 -0.7644
 1017THF     C813216   1.376   3.621   1.051 -0.0211  0.2303  0.9040
 1017THF     C913217   1.435   3.731   0.966  0.2621 -0.5238 -0.2253
 1017THF    H1013218   1.332   3.657   1.143  1.2307  1.8175  0.9234
 1017THF    H1113219   1.311   3.565   0.984 -2.5523  0.4754  3.0358
 1017THF    H1213220   1.387   3.748   0.869  1.6988  1.7963 -0.5992
 1017THF    H1313221   1.432   3.822   1.026  0.4796  0.1326 -1.1862
 1018THF     O113222   1.724   1.671   3.176 -0.3586  0.3987  0.1016
 1018THF     C213223   1.665   1.785   3.238  0.6625 -0.0567  0.2773
 1018THF     C313224   1.740   1.564   3.269  0.3600 -0.1861  0.6729
 1018THF     H413225   1.624   1.862   3.173  1.2016  0.6666  0.7743
 1018THF     H513226   1.741   1.832   3.302  0.8672 -0.0651  0.0434
 1018THF     H613227   1.762   1.467   3.224  0.8496  0.6302 -0.9322
 1018THF     H713228   1.811   1.588   3.348 -0.0481  2.8109  0.2569
 1018THF     C813229   1.601   1.563   3.329  0.1305  0.0392  0.5173
 1018THF     C913230   1.561   1.716   3.330 -0.0000  0.1315  1.0069
 1018THF    H1013231   1.605   1.519   3.429  1.5329  0.0453  0.4870
 1018THF    H1113232   1.542   1.489   3.275  1.2322  0.0229 -0.7342
 1018THF    H1213233   1.462   1.725   3.286  1.3961 -3.1040 -3.5679
 1018THF    H1313234   1.554   1.764   3.428  1.7635  1.3555  0.5941
 1019THF     O113235   3.060   4.170   2.782  0.4367 -0.7210 -0.3790
 1019THF     C213236   3.075   4.141   2.920  0.2793 -0.0295 -0.0199
 1019THF     C313237   3.182   4.223   2.734  0.6573 -0.5958  0.9110
 1019THF     H413238   3.086   4.034   2.938  0.7371  0.0164  0.0002
 1019THF     H513239   2.988   4.178   2.973  0.7959  0.2132  0.6694
 1019THF     H613240   3.253   4.144   2.710 -0.6407 -1.8171  0.9407
 1019THF     H713241   3.151   4.289   2.653 -2.0986 -0.8727  1.6295
 1019THF     C813242   3.237   4.312   2.846 -0.4949  0.9569  0.2190
 1019THF     C913243   3.200   4.225   2.961  0.1396 -0.1944 -0.1180
 1019THF    H1013244   3.196   4.412   2.856 -0.6051  0.8186  1.1930
 1019THF    H1113245   3.342   4.334   2.825  0.3161 -1.6415  1.0954
 1019THF    H1213246   3.287   4.161   2.975  0.1045  0.2491  2.5696
 1019THF    H1313247   3.178   4.290   3.045 -1.4587 -1.4008  0.4333
 1020THF     O113248   2.606   2.504   4.007 -0.2883  0.4360 -0.1807
 1020THF     C213249   2.642   2.639   4.034  0.1741  0.0413 -0.5970
 1020THF     C313250   2.467   2.503   4.029  0.2260  0.5708  0.4205
 1020THF     H413251   2.619   2.700   3.948 -0.2129 -1.2317 -1.4199
 1020THF     H513252   2.749   2.642   4.057  0.3816  0.4737 -1.6167
 1020THF     H613253   2.438   2.536   3.929  0.4390 -0.1219  0.1200
 1020THF     H713254   2.440   2.398   4.042  1.6280  0.0394 -0.6055
 1020THF     C813255   2.431   2.592   4.151 -0.7624  0.6805  0.2105
 1020THF     C913256   2.557   2.677   4.157 -0.6408  0.5932 -0.3121
 1020THF    H1013257   2.411   2.529   4.238 -0.9061  1.5402  0.8086
 1020THF    H1113258   2.341   2.646   4.124  0.2203  1.6102 -1.4354
 1020THF    H1213259   2.538   2.784   4.146 -0.5370  0.7528  0.8915
 1020THF    H1313260   2.614   2.658   4.248  0.0041  0.2072 -0.7920
 1021THF     O113261   3.862   4.980   3.113  0.2201 -0.1955 -0.2816
 1021THF     C213262   3.868   4.905   3.234  0.7878  0.5205 -0.3016
 1021THF     C313263   3.730   5.033   3.098 -0.4653  0.5077  0.5770
 1021THF     H413264   3.969   4.890   3.272  0.2814  0.0146  0.8771
 1021THF     H513265   3.820   4.810   3.207  1.1752 -0.1636  1.2956
 1021THF     H613266   3.726   5.137   3.067 -2.1179 -0.1028 -1.5499
 1021THF     H713267   3.677   4.970   3.026  1.3746  1.2395 -1.5275
 1021THF     C813268   3.670   5.026   3.239  0.8164 -0.4043  0.1909
 1021THF     C913269   3.785   4.979   3.330 -0.0114 -0.0700  0.2776
 1021THF    H1013270   3.590   4.952   3.229 -1.1614  1.6490 -0.0619
 1021THF    H1113271   3.625   5.121   3.270 -0.6601 -1.3206  0.9873
 1021THF    H1213272   3.839   5.065   3.370  0.1891 -0.3478  0.6106
 1021THF    H1313273   3.760   4.933   3.426  2.2891 -0.0126  0.9773
 1022THF     O113274   1.197   4.323   5.489  0.0036  0.3904 -0.5138
 1022THF     C213275   1.298   4.312   5.394  0.4678  0.1755  0.0525
 1022THF     C313276   1.158   4.458   5.493 -0.2780 -0.3655 -0.0719
 1022THF     H413277   1.309   4.218   5.340  1.8457  0.5285 -0.3247
 1022THF     H513278   1.390   4.328   5.449  0.8959  1.4103 -0.9586
 1022THF     H613279   1.060   4.477   5.536 -0.6182 -0.9548 -0.5807
 1022THF     H713280   1.228   4.528   5.538 -0.1701 -1.0347  0.8451
 1022THF     C813281   1.159   4.495   5.342 -0.6931  0.5494 -0.2761
 1022THF     C913282   1.281   4.415   5.291  0.2047  0.5043 -0.2640
 1022THF    H1013283   1.178   4.600   5.322 -1.4818  1.5526  3.5139
 1022THF    H1113284   1.072   4.466   5.283 -2.3994  2.5952  1.0814
 1022THF    H1213285   1.256   4.365   5.197 -3.3380 -0.1519  0.8716
 1022THF    H1313286   1.361   4.488   5.283  2.0817 -1.3352  1.0609
 1023THF     O113287   2.613   1.380   0.317 -0.1680 -0.0675  0.7039
 1023THF     C213288   2.539   1.464   0.403 -0.2628 -0.7785  0.4090
 1023THF     C313289   2.656   1.264   0.387  0.0300 -0.3108  0.2571
 1023THF     H413290   2.463   1.524   0.353 -0.3290 -0.4747  0.8656
 1023THF     H513291   2.612   1.539   0.433  1.5797 -2.0237 -0.7640
 1023THF     H613292   2.668   1.184   0.315 -0.3142 -0.0998 -0.0421
 1023THF     H713293   2.751   1.283   0.437  0.2143 -3.1108  1.1057
 1023THF     C813294   2.543   1.233   0.484  0.1019  0.2389  0.0617
 1023THF     C913295   2.481   1.371   0.508  0.0097 -0.2615  0.3023
 1023THF    H1013296   2.582   1.186   0.574  0.1651 -0.5107 -0.3514
 1023THF    H1113297   2.480   1.166   0.425  2.8159 -1.4669 -1.0679
 1023THF    H1213298   2.372   1.366   0.503 -0.0351  0.8787 -0.2152
 1023THF    H1313299   2.501   1.405   0.610 -0.0502  0.4842  0.0745
 1024THF     O113300   2.828   1.926   0.533 -0.1021 -0.1247  0.3047
 1024THF     C213301   2.757   2.046   0.578 -0.1122  0.2603 -0.3010
 1024THF     C313302   2.759   1.816   0.587  0.4102 -0.2856 -0.7670
 1024THF     H413303   2.698   2.083   0.494  0.6411 -0.2826 -1.0908
 1024THF     H513304   2.838   2.115   0.601 -0.1255  0.1668  0.0311
 1024THF     H613305   2.674   1.782   0.527  0.7852 -0.9412 -0.9394
 1024THF     H713306   2.829   1.732   0.589  1.0716  0.2422  2.0487
 1024THF     C813307   2.708   1.866   0.723 -0.3480  0.3866 -0.1164
 1024THF     C913308   2.677   2.006   0.697  0.8764 -0.1005  0.0486
 1024THF    H1013309   2.788   1.853   0.796  0.0545  2.9069 -0.0216
 1024THF    H1113310   2.629   1.797   0.752  2.3192 -2.4997  0.9752
 1024THF    H1213311   2.569   2.014   0.685  0.5476  0.3503  2.6398
 1024THF    H1313312   2.692   2.071   0.784  1.3452 -2.2086  1.6378
 1025THF     O113313   4.365   2.496   2.888  0.2169 -0.4129 -0.1175
 1025THF     C213314   4.239   2.544   2.833  0.1538 -0.3733 -0.0511
 1025THF     C313315   4.468   2.576   2.834  0.1767  0.1912 -0.1477
 1025THF     H413316   4.164   2.584   2.901 -0.3043  0.6625 -1.1205
 1025THF     H513317   4.191   2.462   2.779 -1.7607  1.7981 -1.8449
 1025THF     H613318   4.534   2.602   2.917 -0.7992 -0.0239  0.7081
 1025THF     H713319   4.527   2.509   2.771  0.7524  0.7918 -0.2660
 1025THF     C813320   4.403   2.690   2.758  0.4863 -0.3059 -0.1708
 1025THF     C913321   4.274   2.639   2.721 -0.3951  0.6378 -0.1109
 1025THF    H1013322   4.437   2.733   2.664  0.4407 -0.5868 -0.3161
 1025THF    H1113323   4.390   2.776   2.824  1.1543  0.5517 -1.1213
 1025THF    H1213324   4.191   2.709   2.708  0.8590  2.0263 -0.8905
 1025THF    H1313325   4.298   2.586   2.629  0.3587 -1.6770  1.3367
 1026THF     O113326   1.531   2.804   3.944 -0.1619 -0.5151  0.2898
 1026THF     C213327   1.519   2.692   3.861  0.6676  0.0257  0.1276
 1026THF     C313328   1.405   2.871   3.958  0.1552 -0.7836  0.3687
 1026THF     H413329   1.596   2.620   3.886  1.0285 -0.1137 -1.3061
 1026THF     H513330   1.520   2.715   3.754 -0.6898 -1.1773 -0.1730
 1026THF     H613331   1.402   2.938   4.044  1.2542  0.3035 -0.4120
 1026THF     H713332   1.379   2.932   3.871 -2.1330 -0.8878  0.9135
 1026THF     C813333   1.306   2.758   3.972  0.1382  1.2216 -0.5429
 1026THF     C913334   1.379   2.638   3.911  0.4849  0.7863  0.2839
 1026THF    H1013335   1.215   2.779   3.915 -0.0977 -0.3360 -0.7732
 1026THF    H1113336   1.275   2.753   4.077 -0.6352  0.4702 -0.7994
 1026THF    H1213337   1.378   2.566   3.992 -1.4861 -1.8017 -1.8861
 1026THF    H1313338   1.323   2.588   3.832 -0.0121 -0.9152  1.6500
 1027THF     O113339   4.206   1.109   4.143 -0.2162 -0.1089 -0.2992
 1027THF     C213340   4.217   1.247   4.122 -0.6597 -0.2442  0.2786
 1027THF     C313341   4.143   1.092   4.274 -0.1692 -0.7735 -0.0130
 1027THF     H413342   4.224   1.269   4.015  0.4931 -0.0826  0.3699
 1027THF     H513343   4.305   1.290   4.169 -0.6705  0.3871 -0.2577
 1027THF     H613344   4.108   0.991   4.292 -3.2311 -0.4380 -3.1094
 1027THF     H713345   4.225   1.115   4.342  1.4168 -0.7420 -1.8642
 1027THF     C813346   4.037   1.198   4.278  0.1634 -0.0689 -0.3202
 1027THF     C913347   4.095   1.310   4.196 -0.8439  0.6347  0.1751
 1027THF    H1013348   4.016   1.233   4.379  2.3869  0.2125  0.0959
 1027THF    H1113349   3.944   1.154   4.241  0.6707 -0.8371 -0.6908
 1027THF    H1213350   4.033   1.349   4.114 -2.3859 -2.2050 -0.1430
 1027THF    H1313351   4.128   1.391   4.261  1.0693  1.0985 -1.2902
 1028THF     O113352   3.340   2.841   4.961  0.1669 -0.1637  0.4817
 1028THF     C213353   3.372   2.721   5.037  0.7490 -0.2125  0.6420
 1028THF     C313354   3.204   2.829   4.908 -0.2839  0.8741 -0.7633
 1028THF     H413355   3.323   2.728   5.134 -0.2679 -0.9972  0.2175
 1028THF     H513356   3.479   2.701   5.034  1.0728  1.5119 -2.1326
 1028THF     H613357   3.125   2.893   4.947 -0.2757  0.9282 -0.8359
 1028THF     H713358   3.217   2.847   4.801 -4.0877  2.7471 -1.0919
 1028THF     C813359   3.169   2.678   4.925 -0.7631 -0.6263  0.0143
 1028THF     C913360   3.308   2.610   4.958 -0.3206 -0.8579  0.1053
 1028THF    H1013361   3.112   2.637   4.841  1.2031 -0.9650 -1.2173
 1028THF    H1113362   3.104   2.675   5.013 -0.3421 -0.3815  0.3369
 1028THF    H1213363   3.302   2.514   5.009 -1.0491 -0.5261  0.6638
 1028THF    H1313364   3.361   2.591   4.865 -0.2890  0.6791 -0.2214
 1029THF     O113365   3.901   2.114   4.272  0.0964  0.3359 -0.4103
 1029THF     C213366   3.951   2.216   4.193 -0.1026  0.0824  0.3228
 1029THF     C313367   3.760   2.135   4.284 -0.2167  0.1464  0.6095
 1029THF     H413368   4.046   2.188   4.146 -1.0366  0.4400 -1.9167
 1029THF     H513369   3.975   2.302   4.256 -0.8506 -0.2607  1.0872
 1029THF     H613370   3.717   2.040   4.316  0.4691 -0.3745  0.0234
 1029THF     H713371   3.733   2.200   4.367 -1.0316 -0.1758  0.6079
 1029THF     C813372   3.721   2.169   4.133  0.2411  0.1391  0.0692
 1029THF     C913373   3.847   2.249   4.084 -1.0434  0.2410 -0.3227
 1029THF    H1013374   3.633   2.234   4.125  1.2326  1.7437  1.3974
 1029THF    H1113375   3.706   2.076   4.079  0.0946  1.1146 -1.6225
 1029THF    H1213376   3.865   2.215   3.982  2.1299  1.0208 -0.1325
 1029THF    H1313377   3.841   2.358   4.083  3.2922  0.6656 -0.9440
 1030THF     O113378   2.019   0.858   1.679 -0.0965 -0.1211  0.2405
 1030THF     C213379   2.091   0.938   1.779  0.2805  0.3229 -0.1398
 1030THF     C313380   2.023   0.928   1.558  0.3458  0.3597 -0.1955
 1030THF     H413381   2.194   0.905   1.765  0.2622 -0.9499  2.2761
 1030THF     H513382   2.069   0.915   1.883  0.9647  0.5392  0.0570
 1030THF     H613383   2.119   0.905   1.511  1.7879  1.1699  2.1587
 1030THF     H713384   1.945   0.906   1.485 -0.3920  0.0706  0.6585
 1030THF     C813385   2.014   1.073   1.595 -0.0940 -0.0701  0.8385
 1030THF     C913386   2.073   1.083   1.732 -0.1457  0.7487  0.0527
 1030THF    H1013387   1.912   1.109   1.588 -0.3671 -1.0612 -1.9061
 1030THF    H1113388   2.068   1.130   1.519  1.5702 -3.4844 -0.7830
 1030THF    H1213389   2.174   1.123   1.731  1.0362 -1.9259  1.2716
 1030THF    H1313390   2.001   1.127   1.801 -0.0176  1.9191 -0.5463
 1031THF     O113391   5.018   1.867   0.211 -0.6823  0.0400  0.7969
 1031THF     C213392   4.914   1.910   0.120  0.2228 -0.1419  0.3584
 1031THF     C313393   4.951   1.785   0.302  0.4263  0.0277 -0.0955
 1031THF     H413394   4.949   1.958   0.028 -0.4499  1.1119  0.7241
 1031THF     H513395   4.843   1.975   0.171  0.4092  0.1531  0.2444
 1031THF     H613396   5.015   1.714   0.355  1.2812  1.0210  0.2408
 1031THF     H713397   4.892   1.837   0.377 -1.4870 -1.1436 -0.7200
 1031THF     C813398   4.840   1.723   0.223 -0.4766  0.5714  0.0887
 1031THF     C913399   4.848   1.778   0.085 -0.2890  0.2953  0.2651
 1031THF    H1013400   4.739   1.735   0.263 -2.8283 -2.0451 -4.2202
 1031THF    H1113401   4.858   1.616   0.211  2.4095  0.9382  0.4430
 1031THF    H1213402   4.906   1.708   0.024 -2.7902 -3.9859  2.3238
 1031THF    H1313403   4.761   1.764   0.021  0.6093 -6.3689 -0.2384
 1032THF     O113404   0.052   3.468   2.463 -0.5451  0.0372 -0.3454
 1032THF     C213405   0.018   3.372   2.368 -0.0591  0.4049  0.7963
 1032THF     C313406   0.188   3.497   2.459 -0.3774 -0.2853 -0.1398
 1032THF     H413407   0.003   3.425   2.274  0.4561 -1.3247 -0.3267
 1032THF     H513408  -0.066   3.316   2.407 -0.9333  1.1854  0.0762
 1032THF     H613409   0.199   3.569   2.378 -2.1386  1.5071  1.1215
 1032THF     H713410   0.224   3.559   2.542  1.2675  0.3712 -1.2907
 1032THF     C813411   0.247   3.367   2.435 -0.1676 -0.3112  0.9225
 1032THF     C913412   0.154   3.295   2.342 -0.3671  0.5297 -0.0567
 1032THF    H1013413   0.256   3.310   2.527  0.6886 -0.6874  0.6124
 1032THF    H1113414   0.342   3.382   2.384 -1.6110 -0.3029 -2.0281
 1032THF    H1213415   0.184   3.307   2.238 -1.7858 -0.0072 -0.5583
 1032THF    H1313416   0.138   3.191   2.371  1.1607  0.4393  0.5376
 1033THF     O113417   4.062   1.774   2.219  0.1688  0.1677  0.1512
 1033THF     C213418   4.041   1.795   2.358  0.1686 -0.3952  0.5815
 1033THF     C313419   4.117   1.649   2.195 -0.5310  0.1942  0.3026
 1033THF     H413420   3.940   1.763   2.384 -0.3716 -1.2260 -2.1487
 1033THF     H513421   4.051   1.894   2.401  2.4036 -1.0155  1.6357
 1033THF     H613422   4.043   1.570   2.199  0.9677 -1.2200  1.7134
 1033THF     H713423   4.174   1.649   2.102  1.0416  2.1774  1.1792
 1033THF     C813424   4.211   1.628   2.313  0.1311 -0.2258  0.5983
 1033THF     C913425   4.139   1.701   2.428  0.4412 -0.1485  0.7066
 1033THF    H1013426   4.304   1.681   2.290  0.7757 -1.8167 -0.6834
 1033THF    H1113427   4.237   1.524   2.333  0.0781 -0.2945  0.3053
 1033THF    H1213428   4.087   1.630   2.492  0.6630  0.5041  1.6251
 1033THF    H1313429   4.195   1.763   2.498  0.4074  1.6837 -0.7957
 1034THF     O113430   4.360   3.019   3.159 -0.3324  0.3852 -0.1665
 1034THF     C213431   4.399   3.156   3.159  0.6527 -0.0641  0.1421
 1034THF     C313432   4.307   3.000   3.025  0.3466 -0.2607 -0.6388
 1034THF     H413433   4.498   3.167   3.114  0.3154 -0.1476 -0.6382
 1034THF     H513434   4.405   3.184   3.264  0.2112 -2.6606  0.9347
 1034THF     H613435   4.384   2.978   2.952 -0.3818 -2.1199 -0.9185
 1034THF     H713436   4.246   2.910   3.016  0.8374 -0.7910  0.9558
 1034THF     C813437   4.227   3.126   2.991  0.5777  0.8124  0.0007
 1034THF     C913438   4.294   3.228   3.077  0.2273 -0.1007 -0.1277
 1034THF    H1013439   4.118   3.123   3.000  0.5274 -0.4477 -0.7496
 1034THF    H1113440   4.235   3.143   2.884 -1.4848 -1.0820 -0.5335
 1034THF    H1213441   4.340   3.310   3.022 -0.1339 -1.6957 -3.0777
 1034THF    H1313442   4.227   3.275   3.149 -1.7437 -1.7015 -0.7983
 1035THF     O113443   2.724   2.238   4.227 -0.1697  0.5747 -0.1497
 1035THF     C213444   2.750   2.106   4.267  0.2365  0.2588 -0.1283
 1035THF     C313445   2.635   2.302   4.314 -0.1008 -0.2739  0.3302
 1035THF     H413446   2.802   2.097   4.363 -0.3351 -1.2894  0.0748
 1035THF     H513447   2.796   2.063   4.178 -0.9858  0.0746 -0.6975
 1035THF     H613448   2.679   2.307   4.413  0.1182  0.4090  0.2058
 1035THF     H713449   2.603   2.402   4.284  1.5515  0.3809  0.6686
 1035THF     C813450   2.530   2.196   4.311 -0.0697  0.4619 -0.6555
 1035THF     C913451   2.606   2.063   4.303 -0.2948 -0.0533 -0.1769
 1035THF    H1013452   2.476   2.199   4.216  0.8026  1.1201 -1.1436
 1035THF    H1113453   2.457   2.205   4.392  1.0928  5.4249  0.1577
 1035THF    H1213454   2.600   2.006   4.396  0.7630 -0.5312 -0.3796
 1035THF    H1313455   2.574   2.015   4.211 -2.0679  0.6296  0.0611
 1036THF     O113456   0.271   1.145   4.997 -0.4978  0.0703  0.4668
 1036THF     C213457   0.159   1.157   5.084  0.1154  0.0214 -1.0557
 1036THF     C313458   0.390   1.134   5.075  0.1222  0.1288 -0.5801
 1036THF     H413459   0.127   1.058   5.118 -1.3499  0.6976 -0.3612
 1036THF     H513460   0.084   1.213   5.028 -2.1730 -1.1642  0.6207
 1036THF     H613461   0.418   1.032   5.102  0.6755 -0.1660 -2.1635
 1036THF     H713462   0.475   1.178   5.024  1.4061  0.0971  1.4351
 1036THF     C813463   0.362   1.235   5.194  0.3773 -0.3141 -0.4424
 1036THF     C913464   0.208   1.237   5.201  0.1162 -0.6795 -0.5045
 1036THF    H1013465   0.402   1.333   5.169  0.9565 -0.5080 -0.2929
 1036THF    H1113466   0.410   1.216   5.291 -0.7749  1.4100  0.5191
 1036THF    H1213467   0.178   1.196   5.298  1.8878  0.0519  0.4046
 1036THF    H1313468   0.170   1.338   5.189  0.8777 -0.2284  0.7199
 1037THF     O113469   5.428   2.128   2.499 -0.3348 -0.4563 -0.5434
 1037THF     C213470   5.327   2.081   2.584 -0.1906 -0.0344  0.1191
 1037THF     C313471   5.438   2.054   2.377 -0.5114 -0.4642  0.5302
 1037THF     H413472   5.242   2.133   2.539 -1.2438 -1.8136 -0.0686
 1037THF     H513473   5.348   2.092   2.690  4.1840 -0.8213 -0.4790
 1037THF     H613474   5.379   2.103   2.299  2.2039 -1.2933 -2.2474
 1037THF     H713475   5.541   2.046   2.342 -0.8565  0.8726 -0.9235
 1037THF     C813476   5.374   1.914   2.402  0.6134 -0.1582  0.2340
 1037THF     C913477   5.306   1.932   2.540  0.1755 -0.2419 -0.1303
 1037THF    H1013478   5.444   1.831   2.416 -0.3181 -0.9014  0.6444
 1037THF    H1113479   5.298   1.884   2.330 -1.0305  2.8394  0.6034
 1037THF    H1213480   5.200   1.910   2.532  0.1713 -0.1963 -0.2148
 1037THF    H1313481   5.338   1.860   2.615  0.7487  0.3006  0.1624
 1038THF     O113482   4.351   2.728   1.218  0.0521  0.4995  0.6135
 1038THF     C213483   4.423   2.818   1.289 -0.2939  0.1396  0.3732
 1038THF     C313484   4.213   2.758   1.242  0.2246 -0.8603 -0.9377
 1038THF     H413485   4.414   2.914   1.237  1.1423 -0.4458 -1.0358
 1038THF     H513486   4.525   2.779   1.285 -1.0006 -1.8642  0.9315
 1038THF     H613487   4.166   2.839   1.186  0.9371  0.7476  0.6775
 1038THF     H713488   4.156   2.666   1.231 -1.0262 -0.3258  0.6151
 1038THF     C813489   4.214   2.790   1.395 -0.0903  0.3524  0.5665
 1038THF     C913490   4.361   2.825   1.430 -0.3388 -0.4165  0.0703
 1038THF    H1013491   4.208   2.695   1.447  3.3129 -0.3573 -0.1030
 1038THF    H1113492   4.139   2.865   1.420 -0.8586 -0.1224 -0.2591
 1038THF    H1213493   4.369   2.929   1.460 -3.9846  0.8968 -2.6943
 1038THF    H1313494   4.412   2.756   1.497  0.8966  0.4302  0.0358
 1039THF     O113495   2.102   3.585   2.412 -0.4146  0.1343  0.1470
 1039THF     C213496   2.060   3.721   2.389 -0.4949 -0.6745  0.0769
 1039THF     C313497   2.179   3.567   2.532 -0.1740 -0.2107  0.2323
 1039THF     H413498   1.966   3.736   2.443 -0.0616 -0.3369  0.7553
 1039THF     H513499   2.041   3.735   2.283 -4.0565 -0.9286  0.5431
 1039THF     H613500   2.113   3.522   2.605 -0.4158 -1.6945 -0.8595
 1039THF     H713501   2.260   3.497   2.512 -1.9069 -1.3814 -3.7435
 1039THF     C813502   2.220   3.714   2.564  0.1203  0.2747  0.9490
 1039THF     C913503   2.175   3.796   2.443  0.5244  0.2396  0.4716
 1039THF    H1013504   2.324   3.733   2.592  0.5854  1.0283 -1.0708
 1039THF    H1113505   2.163   3.747   2.650 -0.4715 -1.7976  1.3967
 1039THF    H1213506   2.156   3.900   2.469  2.2564  0.7913 -0.3120
 1039THF    H1313507   2.264   3.796   2.381  0.1442  0.3419 -0.0828
 1040THF     O113508   3.960   3.262   1.112  0.2696 -0.1078 -0.5078
 1040THF     C213509   4.090   3.280   1.167  0.2934 -0.7187  0.7094
 1040THF     C313510   3.892   3.153   1.176  0.2679  0.6760 -0.5110
 1040THF     H413511   4.125   3.383   1.158 -2.7986  0.5573  1.6029
 1040THF     H513512   4.159   3.214   1.115  0.6426  0.4112 -0.3345
 1040THF     H613513   3.808   3.189   1.237  0.7269  0.0112  0.5283
 1040THF     H713514   3.855   3.060   1.134  0.1427 -0.1506  1.3356
 1040THF     C813515   3.988   3.113   1.289 -0.2063 -0.4959  0.4834
 1040THF     C913516   4.071   3.241   1.313  0.4690  0.4175 -0.2449
 1040THF    H1013517   4.038   3.019   1.265 -0.3712 -0.4704  0.0462
 1040THF    H1113518   3.922   3.081   1.371 -0.4005  1.5479  1.1985
 1040THF    H1213519   4.014   3.316   1.367  0.5501 -0.1771  0.7018
 1040THF    H1313520   4.169   3.224   1.358  1.7456  1.9267 -2.3017
 1041THF     O113521   3.488   5.238   5.473 -0.3166 -0.2391 -0.6212
 1041THF     C213522   3.616   5.218   5.533 -0.8413 -0.2675  0.0194
 1041THF     C313523   3.499   5.201   5.338 -0.0627 -0.8141  0.3533
 1041THF     H413524   3.618   5.220   5.642  1.2950 -0.5475  0.0214
 1041THF     H513525   3.695   5.285   5.499 -1.3729 -0.5222 -1.8585
 1041THF     H613526   3.400   5.179   5.299 -0.6053  1.2307  0.4376
 1041THF     H713527   3.541   5.286   5.283 -1.5674 -0.7055 -0.6524
 1041THF     C813528   3.601   5.085   5.339  0.6665 -0.2022  0.0544
 1041THF     C913529   3.645   5.077   5.484 -0.1634 -0.5752  0.6565
 1041THF    H1013530   3.688   5.103   5.276 -0.0393  0.4936 -0.7361
 1041THF    H1113531   3.564   4.991   5.297  1.5420 -0.9078  0.7887
 1041THF    H1213532   3.585   5.011   5.547 -1.5642 -1.0509 -1.1089
 1041THF    H1313533   3.749   5.044   5.488  0.3833  0.6739 -1.8670
 1042THF     O113534   0.508   1.890   4.505  0.0537 -0.2140 -0.4058
 1042THF     C213535   0.564   1.929   4.631 -0.1503  0.1008 -0.2336
 1042THF     C313536   0.379   1.837   4.524  0.4037  0.7450  0.2483
 1042THF     H413537   0.642   2.006   4.623  1.9230 -1.8702 -0.1581
 1042THF     H513538   0.621   1.844   4.669 -0.7743  0.2511  1.0986
 1042THF     H613539   0.307   1.860   4.446  0.8384 -2.6355 -1.3535
 1042THF     H713540   0.394   1.730   4.542 -1.0601  0.4113 -0.3691
 1042THF     C813541   0.332   1.898   4.656  0.7173 -0.1412 -0.6591
 1042THF     C913542   0.443   1.973   4.722 -0.2371  0.5061  0.3364
 1042THF    H1013543   0.305   1.818   4.726  0.9690 -0.0101 -0.4118
 1042THF    H1113544   0.248   1.966   4.649  1.0994  0.8911  2.8795
 1042THF    H1213545   0.409   2.077   4.717 -0.8214  0.2442 -2.2361
 1042THF    H1313546   0.466   1.925   4.817 -0.7257  0.0695  0.2417
 1043THF     O113547   2.024   4.660   1.321 -0.7160 -0.0641  0.3113
 1043THF     C213548   1.929   4.560   1.273 -0.0438 -0.2003 -0.1150
 1043THF     C313549   2.062   4.630   1.458 -0.5543  0.4713  0.6372
 1043THF     H413550   1.959   4.457   1.259  0.0785 -0.2034  0.1614
 1043THF     H513551   1.868   4.591   1.188  0.2929 -1.2301 -0.7341
 1043THF     H613552   2.154   4.572   1.464 -1.1716 -0.5696  0.5253
 1043THF     H713553   2.089   4.719   1.514  0.3236  0.4841  0.2030
 1043THF     C813554   1.952   4.539   1.511 -0.1414  0.8640  0.3918
 1043THF     C913555   1.850   4.553   1.403  0.8028  0.0130  0.0857
 1043THF    H1013556   1.916   4.565   1.611  1.6429  0.3598  1.2147
 1043THF    H1113557   1.979   4.434   1.523 -1.6362  0.5111  0.8571
 1043THF    H1213558   1.787   4.464   1.403 -1.3223  1.4333 -1.0653
 1043THF    H1313559   1.796   4.642   1.433  3.8241  1.2290  2.5128
 1044THF     O113560   2.832   2.612   3.293  0.5204 -0.1771 -0.4651
 1044THF     C213561   2.772   2.635   3.168 -0.7067  0.5794 -0.3312
 1044THF     C313562   2.931   2.509   3.278 -0.0573  0.7931  0.0648
 1044THF     H413563   2.729   2.732   3.142 -0.0113  0.9147 -0.2386
 1044THF     H513564   2.691   2.562   3.174  0.3748 -0.6493 -0.2270
 1044THF     H613565   3.009   2.514   3.353  0.0473  0.9153 -0.0512
 1044THF     H713566   2.886   2.409   3.277 -0.5769  1.0073 -1.3130
 1044THF     C813567   2.993   2.526   3.136 -0.3187  0.1662  0.0214
 1044THF     C913568   2.876   2.593   3.062  0.4386  0.8294 -0.0678
 1044THF    H1013569   3.051   2.445   3.093  1.3873  0.8381  0.9668
 1044THF    H1113570   3.073   2.597   3.160 -0.6606  0.8830 -0.8635
 1044THF    H1213571   2.930   2.673   3.010  1.1176 -1.2089 -2.6852
 1044THF    H1313572   2.837   2.529   2.984 -1.6505 -0.1951  1.7226
 1045THF     O113573   0.715   4.665   4.005  0.0036 -0.5392 -0.5298
 1045THF     C213574   0.699   4.757   3.900 -0.3246 -0.2757 -0.1796
 1045THF     C313575   0.773   4.545   3.958 -0.7450 -0.1698  0.2481
 1045THF     H413576   0.796   4.799   3.872  0.5596  0.0789  3.0703
 1045THF     H513577   0.623   4.833   3.921  0.5086  0.8365 -1.0967
 1045THF     H613578   0.879   4.557   3.980 -0.5601 -1.7124  0.2380
 1045THF     H713579   0.743   4.460   4.018  0.7462 -2.1473 -1.6354
 1045THF     C813580   0.711   4.534   3.815 -0.1834 -0.0881 -0.1289
 1045THF     C913581   0.648   4.674   3.785  0.0491 -0.1427 -0.2802
 1045THF    H1013582   0.653   4.442   3.818  0.5087 -0.5190  0.0986
 1045THF    H1113583   0.785   4.515   3.739 -0.1307  1.2816 -0.4453
 1045THF    H1213584   0.682   4.712   3.689  1.1102 -0.5581 -0.0853
 1045THF    H1313585   0.539   4.665   3.785  0.0483 -0.1321 -0.1562
 1046THF     O113586   1.843   3.936   4.390  0.0606 -0.2529 -0.0518
 1046THF     C213587   1.847   3.805   4.348  1.0015  0.6412 -0.0897
 1046THF     C313588   1.897   4.025   4.294  0.0179  0.1057 -0.2109
 1046THF     H413589   1.742   3.776   4.349  0.2730  3.0026 -1.0900
 1046THF     H513590   1.907   3.749   4.419  1.1648 -1.1077 -1.5220
 1046THF     H613591   1.824   4.079   4.234 -0.3451 -1.6560 -1.4332
 1046THF     H713592   1.968   4.094   4.340  0.9095  0.6617 -2.2978
 1046THF     C813593   1.974   3.935   4.198  0.1725  0.0744  0.1283
 1046THF     C913594   1.886   3.810   4.204  0.2712 -0.5578  0.5038
 1046THF    H1013595   2.075   3.923   4.238 -0.0877 -2.8761  0.1341
 1046THF    H1113596   1.978   3.975   4.097 -0.1736  0.8808  0.4261
 1046THF    H1213597   1.800   3.821   4.137 -0.3017  0.0655  1.3323
 1046THF    H1313598   1.940   3.719   4.178 -1.0116 -1.1182 -0.2985
 1047THF     O113599   3.357   2.168   4.919 -0.2053  0.3654 -0.0848
 1047THF     C213600   3.452   2.207   4.818  0.1343  0.0163  0.3512
 1047THF     C313601   3.308   2.042   4.882  0.0479 -0.3616  0.1110
 1047THF     H413602   3.555   2.189   4.848  1.3418  0.6927 -2.9563
 1047THF     H513603   3.463   2.315   4.804  1.3940 -0.0914  0.3880
 1047THF     H613604   3.370   1.955   4.900 -0.2836 -0.6909 -0.3129
 1047THF     H713605   3.227   2.026   4.953  0.9084 -0.2651  1.1338
 1047THF     C813606   3.276   2.065   4.732  0.3600 -0.6527  0.3526
 1047THF     C913607   3.408   2.134   4.686 -0.0786 -0.6246 -1.0583
 1047THF    H1013608   3.186   2.125   4.715  0.7405 -0.4827 -1.2841
 1047THF    H1113609   3.259   1.972   4.678  0.1347  0.6789 -2.0030
 1047THF    H1213610   3.482   2.056   4.665  1.2069  0.4840 -0.7475
 1047THF    H1313611   3.400   2.198   4.598 -1.4023 -0.2320 -0.6669
 1048THF     O113612   0.830   3.602   1.191  0.0830  0.8228  0.1901
 1048THF     C213613   0.968   3.589   1.156  0.3974  0.7183  0.0784
 1048THF     C313614   0.755   3.503   1.118  0.1385 -0.2957  0.4449
 1048THF     H413615   1.025   3.518   1.215 -0.4118 -1.1163 -1.2590
 1048THF     H513616   1.014   3.688   1.159 -0.6064  1.1703  1.3481
 1048THF     H613617   0.763   3.408   1.170  1.6173 -0.7225 -0.5045
 1048THF     H713618   0.649   3.524   1.110  0.0145 -0.9452  0.4130
 1048THF     C813619   0.833   3.488   0.983  0.0540 -0.1422 -0.2128
 1048THF     C913620   0.972   3.543   1.013  0.3430 -0.0561 -0.2011
 1048THF    H1013621   0.787   3.562   0.918 -0.6035 -0.6711 -0.3616
 1048THF    H1113622   0.829   3.396   0.924  0.6857 -0.2960 -0.0297
 1048THF    H1213623   1.045   3.463   1.013  0.1003 -0.2850 -0.5509
 1048THF    H1313624   1.012   3.616   0.942  2.7297 -0.3523  0.7596
 1049THF     O113625   4.026   0.467   5.494  0.0214  0.0160 -0.2620
 1049THF     C213626   3.888   0.472   5.471  0.3154 -0.1095 -0.2541
 1049THF     C313627   4.095   0.417   5.382  0.8736 -0.4354 -0.5214
 1049THF     H413628   3.848   0.565   5.431  0.5259 -0.2884 -0.9033
 1049THF     H513629   3.830   0.455   5.561 -3.2258  1.1313 -2.1411
 1049THF     H613630   4.102   0.493   5.304  0.8142 -2.3040 -2.4470
 1049THF     H713631   4.196   0.385   5.407  1.1878  0.8193 -0.1000
 1049THF     C813632   4.004   0.309   5.337 -0.0028  0.4498  0.4366
 1049THF     C913633   3.871   0.343   5.389 -0.5888 -0.6124  0.1506
 1049THF    H1013634   4.037   0.216   5.383  0.2089 -1.0859 -2.5801
 1049THF    H1113635   4.020   0.293   5.231 -0.3344  0.9834  0.2977
 1049THF    H1213636   3.802   0.365   5.307  0.8417  0.5203 -0.8000
 1049THF    H1313637   3.833   0.262   5.452  0.0816 -0.1014  1.2283
 1050THF     O113638   0.710   3.358   4.137  0.5829  0.0208  0.1798
 1050THF     C213639   0.629   3.368   4.256 -0.1025  0.6636 -0.6341
 1050THF     C313640   0.626   3.321   4.025  0.0134 -0.2840  0.3999
 1050THF     H413641   0.574   3.462   4.262 -2.3143 -0.4342 -2.4166
 1050THF     H513642   0.686   3.358   4.349 -0.3097 -2.1365 -0.7261
 1050THF     H613643   0.580   3.413   3.992  0.5573  0.4945  1.7212
 1050THF     H713644   0.694   3.276   3.952 -0.7688 -0.8404  0.0001
 1050THF     C813645   0.530   3.226   4.090 -0.1718  0.8100  0.3964
 1050THF     C913646   0.550   3.242   4.235 -0.3735 -0.0656  0.7724
 1050THF    H1013647   0.564   3.126   4.062  1.2964  0.9603  1.4881
 1050THF    H1113648   0.426   3.245   4.063 -0.3100  0.9600  1.0074
 1050THF    H1213649   0.451   3.238   4.282 -1.6607 -0.3055 -1.7818
 1050THF    H1313650   0.608   3.157   4.270  1.1418  0.3386 -0.6892
 1051THF     O113651   4.462   1.373   3.826 -0.1314  0.5275 -0.1214
 1051THF     C213652   4.480   1.401   3.966 -0.4448 -0.1490  0.1109
 1051THF     C313653   4.587   1.376   3.753 -0.2862 -0.0024 -0.2088
 1051THF     H413654   4.489   1.304   4.016 -1.7161 -1.7968 -2.6566
 1051THF     H513655   4.389   1.443   4.009 -0.2819  0.5101 -0.1728
 1051THF     H613656   4.632   1.277   3.756 -0.0114  0.1295  0.0483
 1051THF     H713657   4.573   1.400   3.648  0.0057  0.6003 -0.1109
 1051THF     C813658   4.659   1.489   3.834 -0.4411 -0.4074  0.6331
 1051THF     C913659   4.598   1.494   3.969  0.2721  0.6320  0.0440
 1051THF    H1013660   4.644   1.575   3.769 -0.0102 -1.6868 -1.2544
 1051THF    H1113661   4.767   1.477   3.841 -0.3540  0.5525  1.1082
 1051THF    H1213662   4.669   1.464   4.046  1.7892  2.2546 -0.6536
 1051THF    H1313663   4.569   1.595   3.996  0.4475  1.0519 -1.2987
 1052THF     O113664   2.843   1.951   3.440  0.0009 -1.1070 -0.5927
 1052THF     C213665   2.807   2.081   3.390  0.2193  0.3216  0.6233
 1052THF     C313666   2.980   1.937   3.421 -0.4436  0.0454  0.6797
 1052THF     H413667   2.797   2.149   3.475  1.6130  2.0218 -0.4821
 1052THF     H513668   2.703   2.063   3.361  0.5673 -1.6817  0.5352
 1052THF     H613669   3.045   1.990   3.490  1.4394 -1.5189  0.1884
 1052THF     H713670   3.014   1.835   3.441 -0.9049  0.2883  3.0070
 1052THF     C813671   3.011   1.992   3.284 -1.0425  0.4639  1.0128
 1052THF     C913672   2.921   2.118   3.282 -0.2326 -0.1330  0.0081
 1052THF    H1013673   2.974   1.914   3.217  2.2204  1.5468 -2.3925
 1052THF    H1113674   3.117   2.007   3.264 -0.9839  2.9863  2.8326
 1052THF    H1213675   2.970   2.207   3.320 -2.1783  0.1359  2.0974
 1052THF    H1313676   2.876   2.139   3.185 -0.2636  0.4998  0.1561
 1053THF     O113677   4.643   2.188   0.564  0.1605 -0.4584  0.1984
 1053THF     C213678   4.588   2.224   0.433  0.7910  0.2102 -0.1299
 1053THF     C313679   4.539   2.211   0.653  0.5449 -0.3417  0.1919
 1053THF     H413680   4.539   2.139   0.385  0.9847  0.1491 -0.2236
 1053THF     H513681   4.678   2.250   0.378  0.0378  3.0855 -0.1613
 1053THF     H613682   4.476   2.122   0.643 -0.6653  0.5827 -0.6845
 1053THF     H713683   4.555   2.225   0.759 -1.7624  0.8879  0.4176
 1053THF     C813684   4.467   2.336   0.603  0.1457 -0.8524 -0.1984
 1053THF     C913685   4.506   2.345   0.461 -0.0990 -0.3459 -0.0715
 1053THF    H1013686   4.506   2.413   0.669 -0.1414 -0.0700 -0.9267
 1053THF    H1113687   4.359   2.325   0.620 -0.0374  0.5314 -0.3739
 1053THF    H1213688   4.419   2.348   0.396 -0.4358  2.3823  0.4086
 1053THF    H1313689   4.566   2.433   0.440  0.3959 -0.7409 -0.3444
 1054THF     O113690   0.218   1.701   2.497 -0.3415  0.1358 -0.3868
 1054THF     C213691   0.159   1.620   2.598  0.0513  0.1985  0.1810
 1054THF     C313692   0.219   1.835   2.542 -0.2208  0.3880 -0.2238
 1054THF     H413693   0.200   1.519   2.606 -4.1727 -1.5238  4.1095
 1054THF     H513694   0.060   1.617   2.554  1.2968 -2.4127 -2.8852
 1054THF     H613695   0.325   1.852   2.527 -0.1514 -2.2475 -4.0267
 1054THF     H713696   0.160   1.899   2.476 -0.0722  0.2585 -0.4833
 1054THF     C813697   0.178   1.846   2.685  0.1175  0.6278 -0.0814
 1054THF     C913698   0.177   1.702   2.727  0.3141 -0.2622 -0.9181
 1054THF    H1013699   0.078   1.887   2.698 -0.4333 -0.3801 -0.9242
 1054THF    H1113700   0.247   1.898   2.751  2.1798  1.2030 -2.5471
 1054THF    H1213701   0.271   1.671   2.774  0.3098  1.4521  0.3331
 1054THF    H1313702   0.091   1.690   2.792 -0.4594 -0.6088 -1.9880
 1055THF     O113703   4.775   4.998   2.348  0.2026  0.2025 -0.0130
 1055THF     C213704   4.913   4.973   2.335 -0.7690 -0.3699 -0.0363
 1055THF     C313705   4.724   4.967   2.219  0.5896  0.0644 -0.1023
 1055THF     H413706   4.962   4.979   2.432 -0.1155  1.1036 -0.4231
 1055THF     H513707   4.957   5.051   2.273 -0.9526  0.1634  0.4998
 1055THF     H613708   4.616   4.953   2.210  0.7851 -0.3519 -3.1599
 1055THF     H713709   4.742   5.057   2.160  0.6586 -1.8455 -3.2153
 1055THF     C813710   4.806   4.851   2.166  0.4865 -0.1528  0.1672
 1055THF     C913711   4.920   4.836   2.268 -0.2723 -0.1946  0.0344
 1055THF    H1013712   4.832   4.870   2.062 -1.6640 -0.9486 -0.5693
 1055THF    H1113713   4.749   4.758   2.157 -1.3938  1.0368 -0.9082
 1055THF    H1213714   4.904   4.765   2.350  2.5736 -1.4088 -0.3367
 1055THF    H1313715   5.019   4.810   2.230  1.0649  1.2135  2.2819
 1056THF     O113716   1.935   1.117   1.281  0.4943 -0.2091  0.1449
 1056THF     C213717   2.027   1.079   1.180  0.0484 -0.0705 -0.1020
 1056THF     C313718   1.923   1.254   1.270 -0.3757  0.2505 -0.4679
 1056THF     H413719   1.972   1.055   1.089  1.0805 -1.0681 -0.4992
 1056THF     H513720   2.075   0.984   1.206 -0.3724  0.2461  2.0202
 1056THF     H613721   1.827   1.288   1.230 -0.0757  0.9123 -0.6246
 1056THF     H713722   1.924   1.289   1.373 -3.7034 -1.3757  0.2758
 1056THF     C813723   2.041   1.309   1.192 -0.6458 -0.1966 -0.5547
 1056THF     C913724   2.126   1.184   1.173  0.2889  0.2397  0.6213
 1056THF    H1013725   2.100   1.379   1.250 -2.1199  0.7916 -0.1827
 1056THF    H1113726   2.026   1.355   1.094  1.8568  0.2474 -0.7894
 1056THF    H1213727   2.167   1.196   1.073  1.6695  2.1855  1.3462
 1056THF    H1313728   2.201   1.182   1.253  1.6295 -3.0396 -0.5487
 1057THF     O113729   1.780   5.227   1.967  0.5028  0.1179 -0.1076
 1057THF     C213730   1.638   5.221   1.951  0.0741  0.5240  0.0688
 1057THF     C313731   1.809   5.193   2.108 -0.3922  0.2871 -0.1072
 1057THF     H413732   1.604   5.125   1.911  1.4676  1.2064 -3.1120
 1057THF     H513733   1.610   5.300   1.881  2.0950  0.7481 -0.5756
 1057THF     H613734   1.829   5.087   2.124  2.7091  0.8823  0.7367
 1057THF     H713735   1.900   5.240   2.145 -0.3360  0.0416  0.0768
 1057THF     C813736   1.693   5.250   2.187  1.1489 -0.3101 -0.4577
 1057THF     C913737   1.579   5.258   2.091  0.6563 -0.6142  0.6919
 1057THF    H1013738   1.715   5.348   2.229  1.7828 -1.6652  2.7118
 1057THF    H1113739   1.673   5.195   2.279  3.2153 -1.6483 -0.7353
 1057THF    H1213740   1.513   5.176   2.117  1.9243 -2.4451 -1.4752
 1057THF    H1313741   1.525   5.352   2.076 -1.3000 -1.8304 -0.4056
 1058THF     O113742   4.549   4.342   1.339 -0.1207  0.3730  0.2425
 1058THF     C213743   4.616   4.227   1.278  1.1030 -0.6452 -0.3378
 1058THF     C313744   4.531   4.311   1.481 -0.3694 -0.2894  0.2707
 1058THF     H413745   4.724   4.244   1.287  0.6768  1.0104  3.6382
 1058THF     H513746   4.575   4.230   1.177 -0.8023 -0.1270  0.4183
 1058THF     H613747   4.623   4.319   1.539 -0.2891 -1.1403  0.2703
 1058THF     H713748   4.463   4.390   1.514  0.2428  2.1972 -3.7500
 1058THF     C813749   4.477   4.169   1.465 -0.1925 -0.0190 -0.4658
 1058THF     C913750   4.557   4.110   1.348  0.5234  0.5498 -1.3166
 1058THF    H1013751   4.370   4.169   1.444 -0.7372 -2.2829  1.7742
 1058THF    H1113752   4.484   4.104   1.553 -0.1524  2.1091  1.1745
 1058THF    H1213753   4.636   4.044   1.382 -0.6100  0.5129  1.4452
 1058THF    H1313754   4.494   4.051   1.281 -0.1631  0.0716 -0.2729
 1059THF     O113755   3.544   3.122   1.576  0.1816 -0.3515  0.4210
 1059THF     C213756   3.404   3.113   1.545 -0.3401  0.0974 -0.5301
 1059THF     C313757   3.607   3.202   1.472  0.9651  0.3060 -0.7542
 1059THF     H413758   3.339   3.199   1.561 -2.9366 -1.9432  0.8402
 1059THF     H513759   3.355   3.034   1.604  0.5725 -1.4965 -1.8276
 1059THF     H613760   3.579   3.307   1.480  1.9132  0.5501 -0.4597
 1059THF     H713761   3.716   3.195   1.477  0.8336 -1.4880  1.4658
 1059THF     C813762   3.538   3.145   1.349  0.3820  0.0800  0.4294
 1059THF     C913763   3.414   3.067   1.405 -0.2488 -0.1684  0.4711
 1059THF    H1013764   3.615   3.080   1.306 -0.5164  1.0985 -2.9954
 1059THF    H1113765   3.523   3.223   1.275 -0.6096 -0.7924 -0.3318
 1059THF    H1213766   3.322   3.072   1.347  0.2506 -0.6517 -0.3784
 1059THF    H1313767   3.443   2.964   1.424  0.4084  0.2756  2.0455
 1060THF     O113768   1.133   4.766   0.124  0.4319 -0.6394 -0.6603
 1060THF     C213769   1.036   4.853   0.177 -0.2415 -0.1749 -0.4778
 1060THF     C313770   1.197   4.826   0.016  0.7100  0.1811 -0.3206
 1060THF     H413771   1.050   4.867   0.284  0.3549 -2.2239 -0.2486
 1060THF     H513772   0.935   4.820   0.153  0.2197 -1.1869 -1.0595
 1060THF     H613773   1.292   4.780  -0.011  1.4087 -0.5476  2.9780
 1060THF     H713774   1.137   4.812  -0.074  0.4552  1.0497 -0.2995
 1060THF     C813775   1.204   4.969   0.053  0.2429 -0.1881  0.3441
 1060THF     C913776   1.067   4.991   0.110  0.7779  0.1535 -0.3527
 1060THF    H1013777   1.230   5.038  -0.028  2.3223 -1.4880 -0.1593
 1060THF    H1113778   1.263   4.973   0.145 -1.5726 -0.1768  1.5477
 1060THF    H1213779   1.054   5.074   0.180 -0.0801 -0.3404  0.0904
 1060THF    H1313780   1.000   5.016   0.028 -0.0365  0.9003  0.5062
 1061THF     O113781   0.210   4.266   4.666  0.3972 -0.1484  0.2499
 1061THF     C213782   0.080   4.308   4.625  0.2175  0.6921 -0.2190
 1061THF     C313783   0.306   4.336   4.590 -0.3902 -0.2821  0.9071
 1061THF     H413784   0.010   4.284   4.705 -1.0068  0.7224 -1.2422
 1061THF     H513785   0.049   4.250   4.538 -3.3549  3.7556 -1.3104
 1061THF     H613786   0.402   4.315   4.636 -0.0560  2.1777  1.5024
 1061THF     H713787   0.315   4.292   4.490 -0.5871  0.8881  0.3452
 1061THF     C813788   0.254   4.480   4.592 -0.2899  0.0411 -0.9146
 1061THF     C913789   0.100   4.457   4.595  0.0629 -0.0634  0.6064
 1061THF    H1013790   0.287   4.553   4.519 -0.1451 -1.2257 -2.1568
 1061THF    H1113791   0.274   4.525   4.689  1.4155  1.8148 -2.0089
 1061THF    H1213792   0.035   4.522   4.653 -0.2431  3.2151 -2.9730
 1061THF    H1313793   0.059   4.473   4.495  1.1226 -0.8665  0.0140
 1062THF     O113794   1.309   0.603   2.564  0.1475 -0.1525  0.0862
 1062THF     C213795   1.290   0.476   2.624 -0.3214 -0.0680 -0.2602
 1062THF     C313796   1.181   0.661   2.521  1.1404  0.9869 -0.1225
 1062THF     H413797   1.245   0.464   2.723  0.5525 -0.3202  0.1163
 1062THF     H513798   1.386   0.423   2.626 -0.5167 -0.4335 -0.3989
 1062THF     H613799   1.140   0.733   2.592 -0.3286 -0.0227  0.0973
 1062THF     H713800   1.194   0.708   2.423  4.3072  0.0025 -0.3005
 1062THF     C813801   1.093   0.532   2.508  0.3879 -0.8469  0.3492
 1062THF     C913802   1.191   0.421   2.518 -0.1800 -0.1629 -0.4635
 1062THF    H1013803   1.045   0.521   2.411  1.2945 -0.0139 -0.2193
 1062THF    H1113804   1.019   0.506   2.583  0.6106 -1.7545  0.2621
 1062THF    H1213805   1.155   0.324   2.551 -1.0871  0.2163 -0.2894
 1062THF    H1313806   1.252   0.398   2.430 -0.0360  0.3950 -0.5154
 1063THF     O113807   4.786   0.312   4.642 -0.5100  0.2189 -0.3327
 1063THF     C213808   4.691   0.210   4.674 -0.9118 -0.3584  0.0290
 1063THF     C313809   4.738   0.374   4.522  0.1117  0.6875  0.0584
 1063THF     H413810   4.605   0.267   4.711  0.3804  0.7877  1.3998
 1063THF     H513811   4.729   0.142   4.750  1.5247 -0.8410 -1.5396
 1063THF     H613812   4.657   0.445   4.542  2.5666  3.2148  1.9602
 1063THF     H713813   4.815   0.431   4.471 -0.1140  1.6351  0.7489
 1063THF     C813814   4.699   0.252   4.436  0.0680 -0.5201 -0.4996
 1063THF     C913815   4.658   0.147   4.540 -0.5546 -0.6484  0.5645
 1063THF    H1013816   4.781   0.217   4.374  0.7375  1.8201 -1.0669
 1063THF    H1113817   4.618   0.283   4.369 -0.1031  1.3522  0.4888
 1063THF    H1213818   4.550   0.130   4.542 -0.6333 -0.1294  1.5711
 1063THF    H1313819   4.704   0.050   4.520 -0.2170 -0.4669  0.4559
 1064THF     O113820   4.558   4.416   2.361 -0.0103 -0.0782 -0.1223
 1064THF     C213821   4.549   4.470   2.228 -0.3669 -0.3365 -0.1919
 1064THF     C313822   4.503   4.284   2.344 -0.8292  0.1451 -0.3251
 1064THF     H413823   4.628   4.541   2.205 -0.2912  0.5812  2.5113
 1064THF     H513824   4.454   4.523   2.232 -1.0024 -1.4061 -0.9011
 1064THF     H613825   4.531   4.216   2.425 -0.2039  0.5001 -0.2387
 1064THF     H713826   4.394   4.282   2.345 -0.8311 -0.5858 -1.3806
 1064THF     C813827   4.567   4.237   2.211  0.0123  0.4591  0.3697
 1064THF     C913828   4.548   4.360   2.125 -0.9575  0.3831 -0.3262
 1064THF    H1013829   4.504   4.162   2.162 -0.9792  2.1103 -0.9798
 1064THF    H1113830   4.668   4.195   2.216 -1.1064 -2.4388  0.6023
 1064THF    H1213831   4.629   4.370   2.052  0.7199 -1.6992  1.1557
 1064THF    H1313832   4.456   4.350   2.067  0.0548  0.3740 -2.0047
 1065THF     O113833   4.675   5.483   2.062  0.0843  0.1828  0.3571
 1065THF     C213834   4.799   5.409   2.029  0.8458 -0.8205 -0.4205
 1065THF     C313835   4.632   5.441   2.188 -0.1679  0.4024  0.0623
 1065THF     H413836   4.871   5.481   1.990  0.3506 -1.1273 -1.9893
 1065THF     H513837   4.775   5.330   1.958 -0.6366  0.0555 -0.9338
 1065THF     H613838   4.584   5.533   2.223 -1.8760 -0.3540 -0.1589
 1065THF     H713839   4.559   5.360   2.181  0.9657 -0.5761 -0.7408
 1065THF     C813840   4.752   5.403   2.270 -0.0862  0.6903 -0.3155
 1065THF     C913841   4.849   5.351   2.165  1.0026 -0.3227 -0.2370
 1065THF    H1013842   4.730   5.323   2.340  1.0034  0.5160 -0.1566
 1065THF    H1113843   4.788   5.487   2.330  0.3088  1.2269 -1.2741
 1065THF    H1213844   4.951   5.386   2.179  2.1730 -3.8276  1.1748
 1065THF    H1313845   4.848   5.242   2.170 -0.0479 -0.3035  0.3116
 1066THF     O113846   1.276   3.861   4.172 -0.7637  0.2938 -0.0464
 1066THF     C213847   1.388   3.782   4.148  0.1484 -0.2119 -0.1199
 1066THF     C313848   1.300   3.973   4.084  0.7916 -0.0410 -0.1608
 1066THF     H413849   1.375   3.721   4.058  1.4699 -2.6112  1.2385
 1066THF     H513850   1.385   3.717   4.235 -2.3284 -1.7482 -1.2460
 1066THF     H613851   1.288   3.947   3.978 -1.6159  0.2562 -0.0034
 1066THF     H713852   1.240   4.057   4.119  0.2832 -0.7978  0.8268
 1066THF     C813853   1.446   4.014   4.115 -0.0985  0.2569 -0.3098
 1066THF     C913854   1.517   3.879   4.147 -0.5184 -0.1465 -1.0386
 1066THF    H1013855   1.472   4.085   4.193  1.5860 -0.9780  0.3279
 1066THF    H1113856   1.488   4.059   4.025  0.7647 -0.9561 -0.5395
 1066THF    H1213857   1.583   3.855   4.063 -0.0125  3.3212 -1.7833
 1066THF    H1313858   1.559   3.871   4.247 -0.8342  0.4749 -0.8528
 1067THF     O113859   0.282   0.818   1.965  0.7474 -0.1842 -0.5334
 1067THF     C213860   0.251   0.703   2.033  0.8840  0.4841 -0.0383
 1067THF     C313861   0.366   0.900   2.041  0.8475 -0.0990  0.7260
 1067THF     H413862   0.339   0.639   2.033  0.0080 -0.7420  0.4032
 1067THF     H513863   0.165   0.656   1.986 -0.3176  1.6477  0.9290
 1067THF     H613864   0.469   0.883   2.007  0.2263  0.9546 -1.9497
 1067THF     H713865   0.359   1.009   2.037  1.7739  0.1629  3.8679
 1067THF     C813866   0.344   0.862   2.184  0.6414  0.3956  0.1225
 1067THF     C913867   0.234   0.760   2.172 -0.3918 -1.1598 -0.8348
 1067THF    H1013868   0.309   0.953   2.233 -0.9774  0.0850 -0.4001
 1067THF    H1113869   0.431   0.827   2.240  1.6912  3.4041  0.5916
 1067THF    H1213870   0.240   0.686   2.252  1.3309  1.4669  1.6665
 1067THF    H1313871   0.138   0.807   2.195 -0.1820 -1.6075  1.1823
 1068THF     O113872   4.863   4.060   5.211 -0.6191 -0.4009 -0.0710
 1068THF     C213873   4.762   4.093   5.119  0.0056  0.1639 -0.6459
 1068THF     C313874   4.931   3.940   5.181  0.9083 -0.1063  0.8081
 1068THF     H413875   4.785   4.176   5.051  0.3469  0.0350 -0.6921
 1068THF     H513876   4.671   4.112   5.175  0.2484 -3.4395  1.2601
 1068THF     H613877   5.039   3.959   5.181  0.5047  2.7045 -1.0007
 1068THF     H713878   4.892   3.852   5.232 -1.0070  0.4093  0.3096
 1068THF     C813879   4.898   3.917   5.034  0.3659 -0.5378  0.1606
 1068THF     C913880   4.748   3.964   5.034 -0.4970 -0.2494 -0.1106
 1068THF    H1013881   4.910   3.812   5.008 -0.9079 -0.8749  0.8352
 1068THF    H1113882   4.957   3.991   4.979 -0.2293  1.3718  1.9707
 1068THF    H1213883   4.715   3.983   4.932 -1.8544 -2.1707 -0.0672
 1068THF    H1313884   4.692   3.887   5.086 -0.4539  0.0551  0.3974
 1069THF     O113885   4.491   3.091   5.288  0.2580  0.3943  0.8747
 1069THF     C213886   4.422   3.192   5.363  0.2365 -0.4235  0.1490
 1069THF     C313887   4.506   2.989   5.381 -0.3770  0.1759 -0.4780
 1069THF     H413888   4.375   3.280   5.319  1.9444  0.9573  1.0103
 1069THF     H513889   4.494   3.237   5.430 -1.5750  1.3549  0.9932
 1069THF     H613890   4.526   2.892   5.334  0.0307 -0.4911  0.9967
 1069THF     H713891   4.585   3.008   5.454 -0.0896  0.1002 -0.7701
 1069THF     C813892   4.368   2.975   5.450 -0.7998 -0.0773  0.0976
 1069THF     C913893   4.316   3.116   5.435  0.3439 -0.0924  0.0816
 1069THF    H1013894   4.381   2.945   5.554  0.7027  0.9071  0.2196
 1069THF    H1113895   4.297   2.915   5.393 -0.3037 -0.0646 -0.5462
 1069THF    H1213896   4.225   3.121   5.375  1.6820  0.2658 -2.0119
 1069THF    H1313897   4.281   3.170   5.523  1.6779 -1.5409  1.5759
 1070THF     O113898   2.934   5.486   0.959  0.1472 -0.2741  0.2012
 1070THF     C213899   2.824   5.488   1.053  0.4546 -0.1434 -0.5055
 1070THF     C313900   2.899   5.539   0.834  0.5811  0.4625 -0.4241
 1070THF     H413901   2.843   5.527   1.153  1.9152  0.5848 -1.0401
 1070THF     H513902   2.806   5.383   1.076 -0.6293  0.0134 -0.5577
 1070THF     H613903   2.973   5.608   0.794  0.1025  0.8008 -0.7359
 1070THF     H713904   2.872   5.459   0.764  2.8257 -0.6777 -0.0648
 1070THF     C813905   2.774   5.621   0.858 -0.1060 -0.6684 -0.9619
 1070THF     C913906   2.710   5.546   0.970  0.3892  0.3936 -0.3539
 1070THF    H1013907   2.710   5.627   0.770  0.7751 -0.6689 -1.6103
 1070THF    H1113908   2.797   5.720   0.898 -0.0595 -0.6516 -1.0302
 1070THF    H1213909   2.644   5.613   1.026 -3.0480 -0.8252 -2.5770
 1070THF    H1313910   2.644   5.470   0.926  0.3431 -0.2784  0.8242
 1071THF     O113911   4.925   3.800   2.323  0.4277 -0.2610 -0.0767
 1071THF     C213912   4.961   3.720   2.212  0.7749 -0.1944  0.5682
 1071THF     C313913   4.780   3.777   2.347  0.2609 -0.1382  0.2243
 1071THF     H413914   5.046   3.659   2.241  0.8120  0.3481  1.6664
 1071THF     H513915   4.983   3.787   2.130 -0.9111 -0.3002 -0.0230
 1071THF     H613916   4.753   3.800   2.450 -2.0643  5.8280 -1.2670
 1071THF     H713917   4.709   3.832   2.285  1.0331  1.1212  0.4059
 1071THF     C813918   4.765   3.634   2.309 -0.2043  0.2819  0.5830
 1071THF     C913919   4.839   3.629   2.182 -0.3615  0.0952  0.5518
 1071THF    H1013920   4.665   3.591   2.301 -0.9128  1.7194  1.1550
 1071THF    H1113921   4.816   3.579   2.388  0.0499  1.1496  1.0418
 1071THF    H1213922   4.881   3.530   2.164  2.3366  1.1465  0.7310
 1071THF    H1313923   4.789   3.664   2.091 -0.3517 -0.9288  0.1390
 1072THF     O113924   3.115   4.852   1.834  0.5471 -0.3090 -0.0411
 1072THF     C213925   3.167   4.980   1.832 -0.4351 -0.1077  1.1493
 1072THF     C313926   3.156   4.778   1.945 -0.0773  0.2862 -0.9503
 1072THF     H413927   3.114   5.052   1.770 -0.3134 -1.1855 -0.2536
 1072THF     H513928   3.275   4.977   1.825 -0.4084  0.4562  1.3020
 1072THF     H613929   3.091   4.696   1.975  3.0944 -1.9927  0.2798
 1072THF     H713930   3.250   4.722   1.935 -0.2368 -0.3071  0.6239
 1072THF     C813931   3.187   4.879   2.060 -0.5632 -0.6468 -0.2308
 1072THF     C913932   3.158   5.012   1.982 -0.4944 -0.4249  0.2993
 1072THF    H1013933   3.292   4.872   2.086 -0.0131  0.9696 -1.8272
 1072THF    H1113934   3.138   4.874   2.157 -0.0415  2.0019  0.2525
 1072THF    H1213935   3.057   5.053   1.991  0.2971  2.0201 -1.0233
 1072THF    H1313936   3.222   5.096   2.008  0.6630 -0.8233 -1.1449
 1073THF     O113937   1.916   0.150   3.856  0.0771 -0.1956  0.4411
 1073THF     C213938   1.859   0.282   3.853  0.7016  0.3984 -0.3508
 1073THF     C313939   2.028   0.159   3.947 -0.0217 -0.6235 -0.5157
 1073THF     H413940   1.764   0.269   3.802 -1.0678  0.5883  2.6467
 1073THF     H513941   1.916   0.354   3.794 -1.3445  1.1291 -1.5475
 1073THF     H613942   2.065   0.062   3.982  0.4420  0.1249  1.1657
 1073THF     H713943   2.116   0.205   3.903  0.7748 -1.4870  0.1262
 1073THF     C813944   1.977   0.258   4.058  0.6690 -0.1793  0.0024
 1073THF     C913945   1.855   0.322   3.999  0.1605  0.1015  0.7406
 1073THF    H1013946   2.050   0.339   4.061  1.6706 -1.0676  0.0954
 1073THF    H1113947   1.970   0.213   4.157 -1.2052  1.9741  0.9407
 1073THF    H1213948   1.769   0.268   4.039  0.5235 -1.0924 -0.0639
 1073THF    H1313949   1.847   0.430   4.013 -0.1259  0.1887 -0.0445
 1074THF     O113950   3.477   0.669   5.312  0.3779 -0.3620  0.5992
 1074THF     C213951   3.523   0.669   5.453 -0.0176 -0.2992  0.2177
 1074THF     C313952   3.346   0.738   5.315  0.2149  0.4356  0.8746
 1074THF     H413953   3.630   0.647   5.448 -0.1002 -0.5941 -0.3746
 1074THF     H513954   3.466   0.588   5.497  0.3566 -1.0685 -0.6670
 1074THF     H613955   3.319   0.765   5.213  0.0050  0.7961  1.0251
 1074THF     H713956   3.271   0.670   5.355  0.9676 -0.6441  0.5311
 1074THF     C813957   3.379   0.856   5.406  0.6048 -0.3425  0.1639
 1074THF     C913958   3.484   0.805   5.505 -0.1446  0.7950 -0.2671
 1074THF    H1013959   3.294   0.900   5.457  0.8835 -1.7977  1.9672
 1074THF    H1113960   3.429   0.930   5.344  1.6668 -0.9505  0.2649
 1074THF    H1213961   3.580   0.856   5.513  1.3327 -1.7409 -0.8306
 1074THF    H1313962   3.440   0.802   5.605 -0.8394  2.2181 -0.5043
 1075THF     O113963   0.464   5.392   4.247  0.1532  0.2272  0.2342
 1075THF     C213964   0.517   5.388   4.380  0.0891  0.1437 -0.3481
 1075THF     C313965   0.450   5.252   4.212  0.3965 -0.2442  1.0934
 1075THF     H413966   0.495   5.482   4.430  0.1420  0.3820 -0.7683
 1075THF     H513967   0.625   5.370   4.386  0.0884  0.6495  1.9030
 1075THF     H613968   0.382   5.247   4.127  1.4862 -1.6414  0.2450
 1075THF     H713969   0.543   5.209   4.172 -1.4017 -1.7273 -1.8630
 1075THF     C813970   0.382   5.184   4.329 -0.1898 -0.1969 -0.0869
 1075THF     C913971   0.440   5.268   4.444  0.5365  0.5490  0.2379
 1075THF    H1013972   0.414   5.080   4.337 -0.8494 -0.4309 -0.4581
 1075THF    H1113973   0.275   5.191   4.315 -0.0332  1.0783 -0.8112
 1075THF    H1213974   0.361   5.313   4.504 -0.4293 -2.8858  1.8391
 1075THF    H1313975   0.505   5.210   4.509 -0.5771 -0.3791  0.5581
 1076THF     O113976   2.010   0.055   0.457  0.4767 -0.4582 -0.3907
 1076THF     C213977   2.022   0.175   0.537 -0.5600 -0.2115 -0.3406
 1076THF     C313978   1.917   0.077   0.355 -0.0433 -0.1188 -0.1386
 1076THF     H413979   2.087   0.242   0.481 -0.5226 -0.9555 -1.2080
 1076THF     H513980   2.070   0.137   0.627  1.1365 -4.2648 -2.6982
 1076THF     H613981   1.966   0.086   0.258 -0.4154  1.3547 -0.2102
 1076THF     H713982   1.855  -0.013   0.348  1.5822 -1.5381  2.1627
 1076THF     C813983   1.839   0.205   0.394  0.7795  0.6451  0.1690
 1076THF     C913984   1.882   0.235   0.538 -0.4830 -0.2696 -0.5349
 1076THF    H1013985   1.732   0.191   0.375  0.1898 -0.2512  3.5039
 1076THF    H1113986   1.876   0.292   0.340 -3.9419  2.9603  0.1300
 1076THF    H1213987   1.878   0.338   0.575 -1.5280 -0.6935  0.6279
 1076THF    H1313988   1.810   0.184   0.602 -0.4019 -2.6804 -2.2435
 1077THF     O113989   4.566   3.084   4.949 -0.3105  0.5692  0.5298
 1077THF     C213990   4.583   3.066   4.809  0.0094  0.3372  1.0425
 1077THF     C313991   4.424   3.070   4.972 -0.4878  0.6706  0.1870
 1077THF     H413992   4.564   2.961   4.788 -0.4475  0.3253  1.4897
 1077THF     H513993   4.682   3.098   4.778  0.7254  0.4286  3.2375
 1077THF     H613994   4.396   2.965   4.963 -0.8863  0.7005  0.9780
 1077THF     H713995   4.391   3.103   5.071  0.2533  0.6494  0.4453
 1077THF     C813996   4.361   3.154   4.867 -0.6718 -0.0853 -0.7061
 1077THF     C913997   4.463   3.145   4.758  0.8787 -0.2372 -0.4932
 1077THF    H1013998   4.342   3.257   4.896 -1.8599 -0.3438 -0.5361
 1077THF    H1113999   4.262   3.121   4.837 -0.5152 -1.2628  0.0268
 1077THF    H1214000   4.420   3.095   4.671 -0.7707 -0.3886  0.3661
 1077THF    H1314001   4.482   3.248   4.727 -0.9194 -0.1304 -1.3329
 1078THF     O114002   4.597   4.564   1.138 -0.4886  0.1275  0.9212
 1078THF     C214003   4.680   4.527   1.030 -0.2634  0.7782  0.5307
 1078THF     C314004   4.472   4.591   1.081  0.0141  0.2991 -0.5103
 1078THF     H414005   4.657   4.432   0.982  2.1935 -0.1749  1.0923
 1078THF     H514006   4.780   4.518   1.073  0.3751  0.9340 -0.8821
 1078THF     H614007   4.426   4.499   1.045 -0.7779  0.0438  1.0643
 1078THF     H714008   4.419   4.646   1.158 -0.1724  1.2837 -1.3221
 1078THF     C814009   4.509   4.679   0.961 -0.0302 -0.0697 -0.1160
 1078THF     C914010   4.651   4.639   0.931  0.0481  0.6826 -0.2311
 1078THF    H1014011   4.501   4.786   0.979  1.5533  0.1724 -0.6970
 1078THF    H1114012   4.445   4.641   0.882  0.4211  2.9377 -2.0881
 1078THF    H1214013   4.644   4.594   0.832  1.6921 -0.4210  0.1335
 1078THF    H1314014   4.713   4.729   0.931  1.0919  0.0328  1.8038
 1079THF     O114015   5.038   0.478   1.277 -0.0994  0.1353 -0.1582
 1079THF     C214016   5.143   0.556   1.231  0.0458 -0.1695 -0.0365
 1079THF     C314017   5.083   0.395   1.386  0.6691 -1.0167  0.1554
 1079THF     H414018   5.135   0.647   1.292  0.0685 -2.1958  3.2392
 1079THF     H514019   5.117   0.570   1.127  1.2349  0.0256 -0.3289
 1079THF     H614020   5.027   0.430   1.473 -2.5063 -1.4092 -1.5804
 1079THF     H714021   5.042   0.294   1.378 -3.0513  0.2453  1.0379
 1079THF     C814022   5.241   0.416   1.397 -1.1997 -0.5057  0.5979
 1079THF     C914023   5.269   0.475   1.258 -0.3686  0.1230 -0.5176
 1079THF    H1014024   5.299   0.325   1.410  0.2721  0.1826 -0.7696
 1079THF    H1114025   5.259   0.483   1.481  0.4947  1.9953 -1.5870
 1079THF    H1214026   5.357   0.533   1.232  0.3326 -0.3009  0.8652
 1079THF    H1314027   5.280   0.384   1.198  0.8523 -0.2465  0.2413
 1080THF     O114028   4.948   4.074   4.245  0.1324  0.0440 -0.4032
 1080THF     C214029   4.921   3.933   4.245 -0.3169 -0.0239  0.2772
 1080THF     C314030   4.819   4.134   4.239  0.7880 -0.3151  0.0243
 1080THF     H414031   5.010   3.872   4.262  0.9389  1.3005 -1.1876
 1080THF     H514032   4.883   3.900   4.148  0.4814  0.5285 -0.2408
 1080THF     H614033   4.822   4.232   4.286  0.9653 -0.3182  0.0220
 1080THF     H714034   4.813   4.157   4.133  1.9912  3.7588  0.6761
 1080THF     C814035   4.719   4.032   4.309  0.2020  0.6343  0.2308
 1080THF     C914036   4.806   3.904   4.330  0.7078  0.4158 -0.6373
 1080THF    H1014037   4.630   4.016   4.248  0.5640  1.9348 -0.6884
 1080THF    H1114038   4.672   4.071   4.400 -1.6620 -2.2564  0.6300
 1080THF    H1214039   4.855   3.893   4.426 -1.8680 -1.2171  0.6254
 1080THF    H1314040   4.751   3.812   4.311  0.5452  0.0863  1.2193
 1081THF     O114041   0.550   3.376   2.818  0.0620 -0.3132  0.6244
 1081THF     C214042   0.502   3.373   2.683  0.0916  0.1082  0.2644
 1081THF     C314043   0.655   3.284   2.825 -0.4941 -0.0032 -0.0201
 1081THF     H414044   0.448   3.464   2.655 -2.7300 -2.0070 -1.8298
 1081THF     H514045   0.425   3.296   2.672 -0.5358  0.4988  1.6632
 1081THF     H614046   0.700   3.311   2.920  1.0800  0.5690 -0.8911
 1081THF     H714047   0.620   3.181   2.831 -2.3102  0.6468  1.1459
 1081THF     C814048   0.739   3.323   2.710  0.0105  0.9816 -0.2986
 1081THF     C914049   0.634   3.342   2.608  0.4121  0.4920 -0.2003
 1081THF    H1014050   0.827   3.262   2.691  0.0239  1.5123 -2.2333
 1081THF    H1114051   0.785   3.419   2.734 -0.9603  1.3338  0.1875
 1081THF    H1214052   0.665   3.416   2.533  1.3941  0.4342  0.1489
 1081THF    H1314053   0.604   3.258   2.546  1.2224 -0.1559  0.2796
 1082THF     O114054   3.255   1.974   0.818  0.1498  0.7845  0.0850
 1082THF     C214055   3.198   1.992   0.695  0.6324  0.0714 -0.1065
 1082THF     C314056   3.300   1.836   0.830 -0.0149 -0.5167  0.5938
 1082THF     H414057   3.285   2.001   0.629  0.4187 -2.1025 -0.7452
 1082THF     H514058   3.145   2.087   0.705  0.7424  0.1261 -0.0339
 1082THF     H614059   3.405   1.838   0.800 -0.4196 -0.7572 -0.9106
 1082THF     H714060   3.279   1.800   0.930 -0.0582 -0.1773  0.7093
 1082THF     C814061   3.211   1.767   0.734  1.1294 -0.0299 -0.9239
 1082THF     C914062   3.113   1.862   0.676  0.0779 -0.3155  0.1991
 1082THF    H1014063   3.141   1.703   0.788  1.4811  2.6774  3.0919
 1082THF    H1114064   3.272   1.714   0.661  0.7797 -1.3198 -0.3167
 1082THF    H1214065   3.085   1.848   0.572 -2.1623 -0.6231  0.8101
 1082THF    H1314066   3.021   1.878   0.731  0.0401  1.1112 -0.2386
 1083THF     O114067   1.448   5.365   0.075  1.0785  0.6730  0.3267
 1083THF     C214068   1.485   5.481   0.142 -1.0512  0.3020 -0.3186
 1083THF     C314069   1.302   5.360   0.087 -0.1778  0.2677  0.3830
 1083THF     H414070   1.591   5.497   0.122 -0.7706 -1.2300 -0.1987
 1083THF     H514071   1.460   5.453   0.244 -2.0662 -0.6760 -0.8162
 1083THF     H614072   1.261   5.274   0.035  2.1057 -1.5265  1.3499
 1083THF     H714073   1.270   5.359   0.191 -0.5661  2.6813  0.3295
 1083THF     C814074   1.276   5.499   0.034  0.1185 -0.7752 -0.3764
 1083THF     C914075   1.389   5.583   0.096  0.0652  0.0548 -0.1377
 1083THF    H1014076   1.176   5.524   0.070  1.4926  1.5529  2.1678
 1083THF    H1114077   1.278   5.506  -0.075  1.9350 -3.7358 -0.6681
 1083THF    H1214078   1.435   5.651   0.025 -0.2879  1.2510  0.7332
 1083THF    H1314079   1.364   5.651   0.178  1.3392 -0.8496  1.0417
 1084THF     O114080   4.442   2.865   1.752 -0.2980  0.4423 -0.2892
 1084THF     C214081   4.548   2.874   1.846  0.0787 -0.0525  0.1053
 1084THF     C314082   4.364   2.762   1.795  0.2035 -0.1319  0.1418
 1084THF     H414083   4.523   2.950   1.920  3.1575 -0.5437  1.8154
 1084THF     H514084   4.640   2.905   1.796  1.0992 -0.8370  1.4284
 1084THF     H614085   4.312   2.795   1.884  2.0636  0.6980  0.9643
 1084THF     H714086   4.291   2.719   1.726  0.2830  1.5364 -1.0375
 1084THF     C814087   4.454   2.653   1.861 -0.0295 -0.0398  0.0822
 1084THF     C914088   4.561   2.743   1.916  0.0769  0.8716 -0.2097
 1084THF    H1014089   4.502   2.596   1.781  0.2882  3.1609 -2.1953
 1084THF    H1114090   4.414   2.584   1.935  0.3804 -0.9715 -0.5508
 1084THF    H1214091   4.544   2.753   2.024  0.2746 -1.2732  0.0679
 1084THF    H1314092   4.659   2.696   1.902  0.0831  0.1712  1.7451
 1085THF     O114093   4.756   4.525   4.135 -0.1877 -0.5222  0.1584
 1085THF     C214094   4.630   4.465   4.171 -0.0546  0.3974 -0.6102
 1085THF     C314095   4.779   4.635   4.231 -0.2386 -0.2738  0.7472
 1085THF     H414096   4.613   4.363   4.135 -1.7415  0.5224 -0.2607
 1085THF     H514097   4.547   4.525   4.134  0.5408  1.0036 -0.9701
 1085THF     H614098   4.884   4.662   4.220 -0.7718  1.4354 -0.5312
 1085THF     H714099   4.724   4.728   4.216  2.0575  0.7796 -2.3290
 1085THF     C814100   4.728   4.573   4.364 -0.1458  0.1814 -0.1717
 1085THF     C914101   4.632   4.463   4.323 -0.4785 -0.4492 -0.3253
 1085THF    H1014102   4.670   4.654   4.409 -2.6021 -1.0263 -0.9426
 1085THF    H1114103   4.805   4.544   4.435 -1.1761  0.3949  1.0812
 1085THF    H1214104   4.664   4.362   4.347  2.4239  1.1198  3.5824
 1085THF    H1314105   4.536   4.471   4.374  0.1969 -1.7753  1.2265
 1086THF     O114106   5.333   1.292   4.977  0.0725  0.5475 -0.3617
 1086THF     C214107   5.249   1.397   4.927 -0.0869  0.2611  0.0839
 1086THF     C314108   5.260   1.192   5.048  0.5071  0.7089 -0.3626
 1086THF     H414109   5.292   1.434   4.834  1.1475  0.4679  0.7221
 1086THF     H514110   5.240   1.488   4.987  0.7740  1.5584 -1.6680
 1086THF     H614111   5.315   1.099   5.034  2.9359  2.2490 -1.7925
 1086THF     H714112   5.255   1.207   5.155 -0.9740  1.0056 -0.4437
 1086THF     C814113   5.124   1.187   4.984 -0.0918 -0.1585 -0.7314
 1086THF     C914114   5.115   1.321   4.907  0.0557  0.3741  0.3484
 1086THF    H1014115   5.040   1.165   5.050 -0.3887 -1.4048 -1.4998
 1086THF    H1114116   5.128   1.096   4.924  0.4762  0.0359 -0.9907
 1086THF    H1214117   5.092   1.298   4.803 -0.1789  0.9226  0.2741
 1086THF    H1314118   5.023   1.377   4.925 -1.5597 -1.1241 -2.5921
 1087THF     O114119   2.393   1.788   3.825 -0.2611 -0.3687  0.1296
 1087THF     C214120   2.334   1.829   3.946 -0.3320  0.4204  0.1734
 1087THF     C314121   2.381   1.646   3.801  0.5434  0.4257  0.1266
 1087THF     H414122   2.274   1.919   3.940  0.1433  0.7118 -0.2297
 1087THF     H514123   2.412   1.839   4.021  0.8958  3.6307 -1.3889
 1087THF     H614124   2.311   1.617   3.724 -0.1088 -2.9011  1.7634
 1087THF     H714125   2.477   1.603   3.772  0.2154  0.0650 -0.4240
 1087THF     C814126   2.315   1.596   3.930 -0.6891  0.3222  0.4122
 1087THF     C914127   2.249   1.714   3.995 -0.8887 -0.5955 -0.2111
 1087THF    H1014128   2.394   1.556   3.993 -2.3495 -0.2795  2.2455
 1087THF    H1114129   2.236   1.521   3.917 -2.0740  1.3948  2.0679
 1087THF    H1214130   2.150   1.717   3.948 -0.1509 -0.2394 -1.7983
 1087THF    H1314131   2.233   1.695   4.101  0.1544  1.6538  0.4015
 1088THF     O114132   0.992   2.816   5.002 -0.0729 -0.9045  0.0727
 1088THF     C214133   1.040   2.806   5.132 -0.7520  0.0293 -0.2319
 1088THF     C314134   1.098   2.779   4.917 -0.2714 -0.5613  0.8352
 1088THF     H414135   1.030   2.700   5.152 -0.7804  0.4662  2.6046
 1088THF     H514136   0.976   2.856   5.205  1.1755 -0.3287  1.8035
 1088THF     H614137   1.089   2.678   4.878 -1.4198  0.5270 -1.9759
 1088THF     H714138   1.093   2.844   4.830 -0.6069  1.2310  2.1402
 1088THF     C814139   1.233   2.792   4.999  0.3765 -0.0851  0.0750
 1088THF     C914140   1.182   2.843   5.133 -0.0923  0.0417  0.7381
 1088THF    H1014141   1.305   2.861   4.955 -0.1948 -0.0749 -0.8718
 1088THF    H1114142   1.279   2.694   5.016  1.5632  0.3033 -0.7595
 1088THF    H1214143   1.249   2.807   5.212  1.1062 -2.0869 -1.1274
 1088THF    H1314144   1.194   2.951   5.129 -0.2667  0.0528  0.4864
 1089THF     O114145   1.335   2.964   2.229 -0.1003  0.7011  0.3978
 1089THF     C214146   1.373   2.849   2.159 -0.2763 -0.0566  0.1841
 1089THF     C314147   1.185   2.989   2.227 -0.1617  0.1758  0.4178
 1089THF     H414148   1.375   2.768   2.232 -1.2743 -1.7174 -1.5451
 1089THF     H514149   1.465   2.861   2.102  0.2578  0.1633  1.0718
 1089THF     H614150   1.140   2.989   2.326  1.1084  0.7388  1.0292
 1089THF     H714151   1.165   3.085   2.179 -0.7506  0.9656  2.1820
 1089THF     C814152   1.139   2.869   2.140  0.4970 -0.1863  0.2511
 1089THF     C914153   1.261   2.826   2.067 -0.4121  0.2848 -1.0786
 1089THF    H1014154   1.064   2.907   2.072 -0.2836  0.5138  1.4729
 1089THF    H1114155   1.095   2.794   2.206 -0.0665  0.5658  0.7505
 1089THF    H1214156   1.267   2.724   2.027  2.2615 -0.1344  0.1167
 1089THF    H1314157   1.284   2.893   1.984  0.2080  0.9656 -0.3691
 1090THF     O114158   1.775   3.601   5.323 -0.4385  0.5898  0.1206
 1090THF     C214159   1.713   3.494   5.263  0.4530  0.7331  0.1547
 1090THF     C314160   1.702   3.723   5.307 -0.6610 -0.0627 -0.4676
 1090THF     H414161   1.628   3.467   5.326  0.1672 -0.5062 -0.7187
 1090THF     H514162   1.777   3.407   5.248 -0.4228 -0.0870  1.0602
 1090THF     H614163   1.625   3.729   5.384  0.3909  0.7273  0.5463
 1090THF     H714164   1.763   3.813   5.308  0.6926 -0.9502 -0.6682
 1090THF     C814165   1.654   3.705   5.167  0.0429  0.5841 -0.5936
 1090THF     C914166   1.672   3.558   5.131 -0.4788  0.5844 -0.4683
 1090THF    H1014167   1.713   3.762   5.095  1.8154  1.5379  1.4878
 1090THF    H1114168   1.549   3.733   5.159  0.3831  1.8389 -0.8605
 1090THF    H1214169   1.584   3.513   5.086 -0.2142 -0.3491 -0.0753
 1090THF    H1314170   1.751   3.535   5.058  0.7668 -1.2775  1.3492
 1091THF     O114171   3.528   2.771   3.420 -0.3202 -0.2189  0.4644
 1091THF     C214172   3.419   2.847   3.477 -0.0081  0.4004  0.4644
 1091THF     C314173   3.521   2.790   3.282 -0.4674  0.7910 -0.5661
 1091THF     H414174   3.444   2.953   3.484 -0.3512  0.5103  0.0721
 1091THF     H514175   3.386   2.816   3.576 -2.2285  1.1059  0.0166
 1091THF     H614176   3.580   2.878   3.255  0.3414  0.5918  0.4551
 1091THF     H714177   3.576   2.717   3.224 -1.4282  0.7138 -1.3986
 1091THF     C814178   3.379   2.798   3.241  0.1795  0.1577 -0.1396
 1091THF     C914179   3.303   2.813   3.379  0.3963 -0.3229  0.0464
 1091THF    H1014180   3.341   2.713   3.183 -0.5281  0.1581  0.3139
 1091THF    H1114181   3.366   2.889   3.182 -1.1183  1.0441  1.4422
 1091THF    H1214182   3.228   2.891   3.387  0.7338  0.1038 -0.8283
 1091THF    H1314183   3.258   2.716   3.400 -1.0123 -0.5642 -3.3077
 1092THF     O114184   4.218   1.350   4.635 -0.3297 -0.0943 -0.1085
 1092THF     C214185   4.146   1.459   4.579  0.0101  0.1096 -0.1608
 1092THF     C314186   4.227   1.371   4.773  0.1234  0.1107  0.6274
 1092THF     H414187   4.044   1.431   4.552 -0.5636  0.0976  1.8406
 1092THF     H514188   4.195   1.521   4.503 -1.4388  0.5809 -0.7504
 1092THF     H614189   4.223   1.274   4.823  1.3104 -0.7885 -0.9194
 1092THF     H714190   4.333   1.395   4.786  0.5280  0.1014 -1.9904
 1092THF     C814191   4.143   1.489   4.815 -0.2073  0.1008 -0.2126
 1092THF     C914192   4.147   1.570   4.684 -0.1765 -0.0793 -1.1501
 1092THF    H1014193   4.201   1.556   4.879 -0.6702  0.2674  0.0355
 1092THF    H1114194   4.042   1.473   4.851  0.2835 -0.1657  1.1059
 1092THF    H1214195   4.059   1.636   4.680  0.3641  0.8449  1.0394
 1092THF    H1314196   4.234   1.636   4.677  0.7379 -1.0967  0.2780
 1093THF     O114197   1.007   4.584   1.304  0.6130 -0.0245  0.4575
 1093THF     C214198   1.088   4.616   1.194  0.2569 -0.4185 -0.2484
 1093THF     C314199   0.883   4.646   1.271 -0.1233 -0.0709 -0.2722
 1093THF     H414200   1.189   4.575   1.193  0.1512 -0.9406  2.3458
 1093THF     H514201   1.094   4.723   1.214  0.7420 -0.4274 -0.3341
 1093THF     H614202   0.802   4.595   1.324  0.0299 -0.2511 -0.2085
 1093THF     H714203   0.893   4.748   1.308  1.3640 -0.9998  2.1161
 1093THF     C814204   0.865   4.621   1.120  0.0325  0.0237  0.3048
 1093THF     C914205   1.004   4.587   1.070  0.0288 -0.3711  0.0704
 1093THF    H1014206   0.825   4.716   1.083 -1.4713 -0.7615 -0.1446
 1093THF    H1114207   0.808   4.529   1.107 -0.2183  0.0354  1.2732
 1093THF    H1214208   1.009   4.486   1.031 -3.3908 -1.1014  1.2364
 1093THF    H1314209   1.041   4.640   0.982 -2.6637  1.1109 -0.2661
 1094THF     O114210   1.993   0.018   2.026  0.2355  0.4279 -0.2887
 1094THF     C214211   2.095  -0.009   2.123 -0.7127 -0.4401  0.1960
 1094THF     C314212   1.947   0.149   2.061 -0.3510  0.0587 -0.1265
 1094THF     H414213   2.190   0.031   2.089 -1.0863  0.8069  0.5658
 1094THF     H514214   2.085  -0.117   2.135 -0.4564 -0.2431  2.5089
 1094THF     H614215   2.022   0.226   2.045  2.2052 -2.2586  0.0748
 1094THF     H714216   1.854   0.175   2.008 -0.0881  1.6446  0.1606
 1094THF     C814217   1.934   0.148   2.210 -0.0904 -0.3002 -1.1592
 1094THF     C914218   2.060   0.063   2.248 -0.5322 -0.1319  0.5209
 1094THF    H1014219   1.835   0.112   2.237 -0.0658  0.2229 -0.3204
 1094THF    H1114220   1.937   0.244   2.261 -1.3889 -0.1338 -1.3675
 1094THF    H1214221   2.145   0.131   2.258  0.9362 -1.9017  0.5399
 1094THF    H1314222   2.053  -0.000   2.336  2.0556  1.6018  2.1079
 1095THF     O114223   0.976   4.488   4.596  0.0066  0.0815  0.2473
 1095THF     C214224   0.875   4.393   4.613 -0.0483 -0.2949  0.2780
 1095THF     C314225   0.975   4.562   4.718 -0.7812 -0.6158  0.3958
 1095THF     H414226   0.859   4.308   4.547  1.6179  0.7730 -1.6335
 1095THF     H514227   0.790   4.457   4.587  0.3322 -0.9531 -3.1486
 1095THF     H614228   1.064   4.625   4.725 -1.7298  0.9743 -0.9564
 1095THF     H714229   0.883   4.621   4.723 -0.7265 -0.6355  2.0061
 1095THF     C814230   0.967   4.444   4.815  0.9574 -1.2618 -0.0643
 1095THF     C914231   0.866   4.353   4.757 -0.6847  0.3534 -0.0516
 1095THF    H1014232   0.949   4.470   4.920  1.8512 -1.6183  0.1858
 1095THF    H1114233   1.069   4.409   4.831  2.0090  1.2020 -0.8886
 1095THF    H1214234   0.881   4.247   4.779 -1.9814  0.0991 -0.3238
 1095THF    H1314235   0.766   4.382   4.787 -1.0304 -1.8719  1.1694
 1096THF     O114236   0.032   0.676   2.560 -0.2449  0.1860  0.3161
 1096THF     C214237   0.163   0.725   2.584 -0.0569  0.3268 -0.3566
 1096THF     C314238   0.046   0.557   2.471 -0.6030  0.4469 -0.5379
 1096THF     H414239   0.154   0.803   2.660 -0.9768  0.1667 -0.2919
 1096THF     H514240   0.204   0.782   2.500  0.7396  0.4432  0.1030
 1096THF     H614241  -0.036   0.487   2.481 -0.0003 -0.1497  0.3090
 1096THF     H714242   0.072   0.586   2.369  0.2244 -0.2082 -0.5270
 1096THF     C814243   0.170   0.494   2.537 -0.1637 -0.4051 -0.2616
 1096THF     C914244   0.250   0.601   2.611 -0.2379 -0.3571  0.5030
 1096THF    H1014245   0.228   0.429   2.471 -0.9523  0.7860 -2.2408
 1096THF    H1114246   0.157   0.432   2.625  2.4706 -0.2274  0.3479
 1096THF    H1214247   0.264   0.572   2.715  2.3995 -0.0897  0.2942
 1096THF    H1314248   0.355   0.613   2.583  0.2346 -0.7238  2.0022
 1097THF     O114249   2.605   1.233   5.497 -0.1071  0.2103 -0.5441
 1097THF     C214250   2.590   1.211   5.356  0.4986  0.5052  0.8772
 1097THF     C314251   2.485   1.192   5.557 -0.3639 -0.7293 -0.5730
 1097THF     H414252   2.615   1.107   5.335  1.0389  0.5993  1.0300
 1097THF     H514253   2.662   1.274   5.303 -0.3820 -0.5337 -1.7458
 1097THF     H614254   2.482   1.085   5.573  0.1005 -0.9082 -1.6176
 1097THF     H714255   2.480   1.243   5.653 -1.1411 -1.5718 -0.1519
 1097THF     C814256   2.379   1.241   5.463 -0.6569  0.2902  0.2047
 1097THF     C914257   2.441   1.252   5.323  0.2659  0.3414 -0.8985
 1097THF    H1014258   2.342   1.341   5.484  0.0810  0.3600  1.2609
 1097THF    H1114259   2.298   1.168   5.455 -1.1237  0.8791 -0.5879
 1097THF    H1214260   2.387   1.187   5.255 -2.8978  2.0242 -0.2128
 1097THF    H1314261   2.432   1.353   5.284 -1.3311  0.2947 -0.6881
 1098THF     O114262   5.268   3.650   4.196 -0.6734 -0.1291 -0.0994
 1098THF     C214263   5.344   3.570   4.288  0.2870  0.4895  0.5128
 1098THF     C314264   5.155   3.587   4.135  0.0091  0.0575 -0.2796
 1098THF     H414265   5.362   3.630   4.377  0.4913 -0.1424  0.9106
 1098THF     H514266   5.443   3.533   4.262  0.7913  0.9426  1.7019
 1098THF     H614267   5.071   3.645   4.098 -1.5014 -1.0313  1.3343
 1098THF     H714268   5.205   3.537   4.051  0.4599  1.2290 -0.7280
 1098THF     C814269   5.126   3.489   4.247  0.3984 -0.4714 -0.4643
 1098THF     C914270   5.252   3.448   4.312 -0.1851 -0.5659 -0.5475
 1098THF    H1014271   5.061   3.408   4.212  1.5362 -1.3641 -0.5861
 1098THF    H1114272   5.067   3.554   4.311  2.3143  0.9789 -0.0885
 1098THF    H1214273   5.233   3.418   4.415 -1.6510  0.2923 -0.5491
 1098THF    H1314274   5.296   3.364   4.259 -0.1175  0.0790 -1.5547
 1099THF     O114275   4.554   3.363   2.448 -0.3432  0.5976  0.1281
 1099THF     C214276   4.461   3.259   2.426  0.4078 -0.0719  0.6998
 1099THF     C314277   4.515   3.464   2.544  0.0067  0.9321 -0.4919
 1099THF     H414278   4.497   3.162   2.462 -1.6020 -0.7568  1.0400
 1099THF     H514279   4.427   3.257   2.323  1.3263 -0.4315  0.3968
 1099THF     H614280   4.594   3.514   2.600 -0.3751  2.1371 -1.0003
 1099THF     H714281   4.454   3.543   2.500 -2.8423 -0.9093 -0.1415
 1099THF     C814282   4.407   3.387   2.629 -0.1860  0.5161  0.7924
 1099THF     C914283   4.344   3.299   2.517  0.1388 -0.2862 -0.3656
 1099THF    H1014284   4.337   3.455   2.677 -0.7474 -1.4019  2.8426
 1099THF    H1114285   4.465   3.338   2.707 -0.2103  0.0783  0.5368
 1099THF    H1214286   4.289   3.218   2.563 -0.3247  0.0878 -0.2508
 1099THF    H1314287   4.264   3.346   2.460  0.4655 -0.8833 -1.3332
 1100THF     O114288   3.648   0.982   1.183  0.0556  0.0780  0.3960
 1100THF     C214289   3.654   0.923   1.056 -0.3611  0.0680 -0.4539
 1100THF     C314290   3.558   1.093   1.175  0.0217  0.9467  0.1404
 1100THF     H414291   3.669   0.816   1.067 -0.9574 -0.2254 -2.2381
 1100THF     H514292   3.737   0.967   1.000  1.4107 -1.8353  0.5186
 1100THF     H614293   3.532   1.137   1.271 -2.1628  0.6587 -0.2848
 1100THF     H714294   3.610   1.179   1.132  1.5378  1.1410  2.1968
 1100THF     C814295   3.448   1.032   1.089  0.1284  0.0665  0.1867
 1100THF     C914296   3.524   0.952   0.991 -0.0815 -0.0911  1.0673
 1100THF    H1014297   3.387   1.109   1.043  0.1138 -1.0011 -1.6822
 1100THF    H1114298   3.385   0.969   1.152  1.0499  0.2549  1.3443
 1100THF    H1214299   3.468   0.863   0.965 -1.2327  1.1046 -0.7773
 1100THF    H1314300   3.534   0.999   0.893 -1.8729 -0.3868  0.7149
 1101THF     O114301   5.317   2.645   3.101  0.4781  0.5366 -0.3099
 1101THF     C214302   5.314   2.734   2.997 -1.0093 -0.7367 -0.0408
 1101THF     C314303   5.233   2.690   3.198 -0.2439  0.1415  0.1088
 1101THF     H414304   5.218   2.717   2.947 -2.4897 -0.6872  2.5874
 1101THF     H514305   5.402   2.722   2.934 -0.5535  1.8844 -0.0130
 1101THF     H614306   5.129   2.697   3.166  0.2480  1.7880 -1.3061
 1101THF     H714307   5.244   2.631   3.289 -1.1026 -0.8467 -0.4013
 1101THF     C814308   5.284   2.830   3.216 -1.6038 -0.3078  0.0194
 1101THF     C914309   5.322   2.870   3.069 -0.3548  0.5216 -0.5536
 1101THF    H1014310   5.380   2.833   3.268 -0.4785  1.4664 -1.9399
 1101THF    H1114311   5.219   2.910   3.250  0.7304  1.7349  0.0031
 1101THF    H1214312   5.252   2.941   3.023  0.3775  1.5190 -0.1468
 1101THF    H1314313   5.422   2.911   3.054  1.2683 -2.5076  1.1428
 1102THF     O114314   2.670   4.572   5.141 -0.2511 -0.6085 -0.0199
 1102THF     C214315   2.681   4.710   5.121 -0.1290 -0.5671 -0.5302
 1102THF     C314316   2.744   4.545   5.261  0.1657  0.2918 -0.1720
 1102THF     H414317   2.592   4.759   5.160  0.7006  0.2204  0.4104
 1102THF     H514318   2.692   4.740   5.017 -0.7093  2.5087  0.1968
 1102THF     H614319   2.696   4.589   5.348 -0.2124 -1.2429  0.4177
 1102THF     H714320   2.770   4.439   5.268  2.6203  0.8365 -0.1711
 1102THF     C814321   2.870   4.631   5.252 -0.1859 -0.1144  0.0965
 1102THF     C914322   2.812   4.755   5.198 -0.1518  0.2959 -0.3301
 1102THF    H1014323   2.950   4.587   5.192  0.0676  1.6382 -0.9409
 1102THF    H1114324   2.911   4.655   5.350 -1.4485  1.9221  0.1731
 1102THF    H1214325   2.785   4.818   5.283 -1.4013 -2.8917  1.8282
 1102THF    H1314326   2.874   4.815   5.132  1.2271 -1.4224 -0.6624
 1103THF     O114327   3.018   3.047   0.726  0.3311 -0.1343 -0.3503
 1103THF     C214328   2.919   3.083   0.632  0.0238 -0.0609 -0.5206
 1103THF     C314329   3.116   3.154   0.719 -0.0152  1.0285  0.5032
 1103THF     H414330   2.827   3.028   0.651 -0.3287  0.6952  0.0555
 1103THF     H514331   2.936   3.055   0.528 -0.7097  0.7216 -0.8714
 1103THF     H614332   3.187   3.150   0.802  1.0342 -0.2332 -0.4193
 1103THF     H714333   3.179   3.142   0.631  0.5073  1.6764  0.7794
 1103THF     C814334   3.038   3.284   0.706 -0.5067 -0.0941  0.1437
 1103THF     C914335   2.914   3.232   0.643  0.0265 -0.4127  0.1264
 1103THF    H1014336   3.089   3.366   0.655 -0.3690 -1.1578 -1.4883
 1103THF    H1114337   3.016   3.327   0.804 -0.6394  0.6627 -0.2081
 1103THF    H1214338   2.825   3.250   0.703 -0.0290 -0.4813  0.0649
 1103THF    H1314339   2.902   3.278   0.545  2.4860  1.1263  0.4580
 1104THF     O114340   3.026   3.476   2.371 -0.3086 -0.0715  0.2105
 1104THF     C214341   3.135   3.502   2.279  0.8633 -0.5502 -0.0870
 1104THF     C314342   3.038   3.332   2.390 -0.3698  0.4551 -0.4828
 1104THF     H414343   3.159   3.606   2.256 -1.1524  0.0132  0.1345
 1104THF     H514344   3.101   3.455   2.186  2.0490 -1.3769 -0.1322
 1104THF     H614345   2.980   3.291   2.472  0.0498  0.4808 -0.1695
 1104THF     H714346   2.993   3.271   2.311 -0.6729 -0.1237  0.1337
 1104THF     C814347   3.196   3.309   2.396  0.2612 -0.8266  0.2581
 1104THF     C914348   3.257   3.430   2.334  1.1096 -0.5591 -0.0802
 1104THF    H1014349   3.232   3.220   2.344  0.3165 -0.5790 -0.1268
 1104THF    H1114350   3.221   3.311   2.502 -0.5307 -2.1392  0.4874
 1104THF    H1214351   3.316   3.489   2.405  1.0857  0.6041 -0.9944
 1104THF    H1314352   3.323   3.399   2.254  1.7269  0.8724 -0.1477
 1105THF     O114353   4.237   2.204   2.079 -0.4337  0.4968  0.2265
 1105THF     C214354   4.186   2.120   2.179  0.2632 -0.0557  0.3419
 1105THF     C314355   4.156   2.325   2.082  0.0669  0.5873  0.0369
 1105THF     H414356   4.230   2.160   2.271 -0.3516  0.8149  0.2756
 1105THF     H514357   4.216   2.017   2.162 -1.7354 -0.6686  0.2809
 1105THF     H614358   4.179   2.386   2.170 -0.3857  2.0814 -0.8419
 1105THF     H714359   4.169   2.385   1.992 -0.7941  0.2305 -0.3347
 1105THF     C814360   4.020   2.261   2.103  0.4191  0.4838 -0.1173
 1105THF     C914361   4.036   2.138   2.187  0.3045  0.3853  0.2302
 1105THF    H1014362   3.986   2.223   2.007  0.9458  0.3125 -0.2362
 1105THF    H1114363   3.939   2.322   2.143  0.1180  2.7640 -3.7739
 1105THF    H1214364   4.009   2.145   2.293 -0.9456  0.7046 -0.0895
 1105THF    H1314365   3.987   2.056   2.134 -2.5822  1.7173  0.6393
 1106THF     O114366   2.071   0.402   4.607 -0.1021  0.0893 -0.0878
 1106THF     C214367   1.951   0.359   4.669 -0.0047 -0.1415 -0.0661
 1106THF     C314368   2.124   0.290   4.538  0.2502 -0.3109  0.5372
 1106THF     H414369   1.898   0.444   4.711  0.6711  0.4201 -0.3286
 1106THF     H514370   1.979   0.290   4.749  0.6798  0.5895  0.3370
 1106THF     H614371   2.195   0.317   4.460 -0.9370  0.1080 -0.4455
 1106THF     H714372   2.186   0.225   4.600  1.0819 -0.2658 -0.2360
 1106THF     C814373   1.992   0.223   4.478 -0.5276 -0.5063 -0.4321
 1106THF     C914374   1.878   0.278   4.559 -1.1301  0.2339 -0.3348
 1106THF    H1014375   1.994   0.114   4.472 -0.0427 -0.5738  0.6984
 1106THF    H1114376   1.979   0.258   4.376 -0.9731  3.7388  0.8946
 1106THF    H1214377   1.808   0.336   4.500 -1.8582 -1.4061 -1.1356
 1106THF    H1314378   1.823   0.189   4.592  0.4979 -1.1316 -1.1105
 1107THF     O114379   2.649   0.334   3.597  0.4091 -0.9259  0.5755
 1107THF     C214380   2.693   0.447   3.523  0.1410 -0.1133 -0.1757
 1107THF     C314381   2.558   0.276   3.505 -0.0659  0.5998  0.9190
 1107THF     H414382   2.772   0.506   3.569 -1.0322  0.0002  1.8142
 1107THF     H514383   2.606   0.513   3.526  1.2342  1.3882 -0.5071
 1107THF     H614384   2.523   0.177   3.537 -3.0728  1.4590  0.6244
 1107THF     H714385   2.470   0.339   3.497  0.6821  1.4284 -1.7320
 1107THF     C814386   2.627   0.279   3.370  0.6258  0.0413  0.2723
 1107THF     C914387   2.718   0.402   3.380 -0.1137 -0.8375  0.0743
 1107THF    H1014388   2.555   0.294   3.290  0.9869  0.6618  0.0464
 1107THF    H1114389   2.689   0.191   3.353 -0.8037 -0.7540 -0.9245
 1107THF    H1214390   2.818   0.364   3.361 -0.5191 -1.2058 -1.5646
 1107THF    H1314391   2.697   0.477   3.303 -0.9840 -1.0652  0.0730
 1108THF     O114392   0.324   3.250   3.695 -0.2295 -0.1437  1.1168
 1108THF     C214393   0.408   3.344   3.626 -0.6303 -0.4009  0.3015
 1108THF     C314394   0.383   3.124   3.677 -0.4005 -0.6887 -0.8270
 1108THF     H414395   0.405   3.441   3.675  2.2457  1.1181 -2.2145
 1108THF     H514396   0.355   3.374   3.536 -0.9343 -0.3067  0.5063
 1108THF     H614397   0.358   3.053   3.756  0.2915  0.8027  0.8133
 1108THF     H714398   0.362   3.070   3.585  0.1913 -0.1984 -1.2541
 1108THF     C814399   0.537   3.145   3.672  0.3425 -0.2785 -1.0906
 1108THF     C914400   0.543   3.286   3.603 -0.3171 -0.6518 -0.3130
 1108THF    H1014401   0.586   3.059   3.626 -1.1164 -1.2627 -0.8766
 1108THF    H1114402   0.573   3.156   3.774  0.5608 -0.6983 -1.1188
 1108THF    H1214403   0.629   3.344   3.637 -1.2889  0.1126  0.9575
 1108THF    H1314404   0.562   3.261   3.499  1.8442  0.2242 -0.1724
 1109THF     O114405   1.824   3.932   3.213  0.6038  0.3929  0.0742
 1109THF     C214406   1.714   4.013   3.220  0.0687 -0.5062 -1.0916
 1109THF     C314407   1.819   3.841   3.327  0.3982  0.2930  0.1730
 1109THF     H414408   1.699   4.063   3.124 -0.1981  2.4771  0.3662
 1109THF     H514409   1.739   4.089   3.294  1.0753  0.1758 -2.1032
 1109THF     H614410   1.881   3.753   3.316  0.5798  0.0147  2.9412
 1109THF     H714411   1.848   3.887   3.421 -0.6341 -1.0478  1.1828
 1109THF     C814412   1.678   3.803   3.333  0.5707  0.0127 -0.9742
 1109THF     C914413   1.597   3.926   3.267 -0.6880  0.0453 -0.1404
 1109THF    H1014414   1.654   3.775   3.435  2.6346  0.1220 -0.4292
 1109THF    H1114415   1.650   3.716   3.274 -1.5603  0.0333 -0.0902
 1109THF    H1214416   1.549   3.883   3.179  0.6164  0.3268 -1.0185
 1109THF    H1314417   1.527   3.979   3.332  0.2344  2.3076 -0.9178
 1110THF     O114418   1.905   5.478   3.063  0.1530 -0.1382  0.4581
 1110THF     C214419   1.811   5.437   2.969  0.4999  0.6250 -0.0239
 1110THF     C314420   1.926   5.610   3.045  0.0629 -0.4852  0.4318
 1110THF     H414421   1.770   5.338   2.989 -1.0254  1.4238  0.9309
 1110THF     H514422   1.857   5.427   2.870 -2.7388 -1.3976 -1.5057
 1110THF     H614423   1.958   5.658   3.137  1.7470 -0.7187 -0.0017
 1110THF     H714424   2.008   5.609   2.973 -0.3785 -1.0907 -0.0791
 1110THF     C814425   1.795   5.671   2.991 -0.3306 -0.1420 -0.0263
 1110THF     C914426   1.709   5.545   2.972 -0.3799 -0.0446 -0.1694
 1110THF    H1014427   1.824   5.707   2.892  1.5163 -1.8523 -0.1632
 1110THF    H1114428   1.747   5.742   3.059  2.2509 -0.6036  2.4696
 1110THF    H1214429   1.654   5.522   3.063  2.0797  1.1279  1.7185
 1110THF    H1314430   1.634   5.547   2.892 -1.3795 -2.2872  0.6020
 1111THF     O114431   4.353   1.076   3.644 -0.0688 -0.0581 -0.1632
 1111THF     C214432   4.369   1.017   3.779  0.4385  0.7412 -0.4329
 1111THF     C314433   4.434   1.003   3.545 -0.1918 -0.2255 -0.6367
 1111THF     H414434   4.290   0.950   3.812  1.0370  0.4539  0.4389
 1111THF     H514435   4.376   1.100   3.849 -1.4242  0.0876  0.5818
 1111THF     H614436   4.382   0.910   3.522  0.1898 -1.3089  2.3766
 1111THF     H714437   4.447   1.049   3.447 -0.6373  0.9175 -0.1756
 1111THF     C814438   4.555   0.962   3.641  0.2769 -0.1547 -0.3072
 1111THF     C914439   4.489   0.930   3.778 -0.5038  0.5598  0.2841
 1111THF    H1014440   4.620   1.048   3.657 -0.5615  0.4231  0.0452
 1111THF    H1114441   4.629   0.890   3.606  0.3642  1.5703 -4.1438
 1111THF    H1214442   4.466   0.824   3.790 -0.2300  0.6137  1.4377
 1111THF    H1314443   4.561   0.951   3.857  1.5145 -1.5838 -0.8836
 1112THF     O114444   4.436   4.030   5.163 -0.5181 -0.5063  0.1020
 1112THF     C214445   4.349   4.108   5.234 -0.5446 -0.1978 -0.1679
 1112THF     C314446   4.396   3.893   5.186  0.5344 -0.1772 -0.2846
 1112THF     H414447   4.299   4.195   5.191  1.5404  1.3729  0.4496
 1112THF     H514448   4.411   4.162   5.306 -0.8204  3.3244 -2.3149
 1112THF     H614449   4.428   3.842   5.095  0.7850 -2.5728  1.0697
 1112THF     H714450   4.450   3.851   5.270  1.0566 -0.1017 -0.5739
 1112THF     C814451   4.250   3.905   5.198 -0.7020  0.3055 -0.8325
 1112THF     C914452   4.229   4.024   5.281  0.1181 -0.3795  0.1055
 1112THF    H1014453   4.195   3.820   5.238 -0.1880  0.1119 -0.5288
 1112THF    H1114454   4.213   3.920   5.097 -2.2973 -0.6837 -0.4318
 1112THF    H1214455   4.138   4.083   5.268  0.7441  0.4619 -0.6060
 1112THF    H1314456   4.258   3.996   5.382 -0.7352 -1.4961  0.0621
 1113PF6-    P114457   2.960   2.536   3.724 -0.2400 -0.1691  0.1104
 1113PF6-    F214458   3.092   2.454   3.748 -0.4414  0.4861 -0.2756
 1113PF6-    F314459   2.827   2.622   3.699 -0.1441  0.6691  0.0672
 1113PF6-    F414460   3.032   2.613   3.600 -0.4610  0.4503  0.4158
 1113PF6-    F514461   2.896   2.464   3.848 -0.0941 -0.3097  0.5143
 1113PF6-    F614462   3.016   2.652   3.825 -0.3375 -0.0312 -0.3626
 1113PF6-    F714463   2.902   2.423   3.625  0.1179 -0.3229  0.4022
 1114PF6-    P114464   5.234   3.366   2.081  0.1442  0.3597  0.0653
 1114PF6-    F214465   5.273   3.248   2.185 -0.3257 -0.4593 -0.3120
 1114PF6-    F314466   5.201   3.477   1.968 -0.3670  0.1633  0.0322
 1114PF6-    F414467   5.193   3.250   1.977  0.5374 -0.3250  0.2271
 1114PF6-    F514468   5.269   3.477   2.189 -0.1192 -0.2876 -0.1600
 1114PF6-    F614469   5.383   3.357   2.027 -0.1331 -0.0858  0.1953
 1114PF6-    F714470   5.085   3.359   2.133 -0.4292 -0.0387  0.2877
 1115PF6-    P114471   3.807   2.754   1.499 -0.1910 -0.0397 -0.1658
 1115PF6-    F214472   3.932   2.846   1.544  0.2412  0.4367 -0.2044
 1115PF6-    F314473   3.689   2.653   1.460 -0.1316 -0.3013 -0.2943
 1115PF6-    F414474   3.721   2.883   1.454 -0.3496  0.0466  0.0002
 1115PF6-    F514475   3.888   2.622   1.551  0.6097 -0.1625  0.2710
 1115PF6-    F614476   3.745   2.774   1.645  0.0216 -0.2360 -0.1516
 1115PF6-    F714477   3.869   2.727   1.357  0.5246 -0.1115  0.1296
 1116PF6-    P114478   0.583   1.498   3.287 -0.0359  0.1348  0.1480
 1116PF6-    F214479   0.573   1.442   3.440  0.1726 -0.0004 -0.1599
 1116PF6-    F314480   0.596   1.555   3.140  0.0514 -0.1801  0.0556
 1116PF6-    F414481   0.437   1.435   3.251  0.1018 -0.4481  0.1497
 1116PF6-    F514482   0.725   1.554   3.327 -0.3958  0.9384 -0.0413
 1116PF6-    F614483   0.644   1.356   3.243  0.4779 -0.0245 -0.1922
 1116PF6-    F714484   0.516   1.634   3.341  0.2702 -0.0611  0.2036
 1117PF6-    P114485   2.206   3.800   3.313  0.2618  0.1622  0.3735
 1117PF6-    F214486   2.118   3.894   3.227  0.0742  0.5356  0.6832
 1117PF6-    F314487   2.311   3.704   3.390 -0.2903 -0.1124 -0.3662
 1117PF6-    F414488   2.089   3.749   3.409  0.1385 -0.0513 -0.2233
 1117PF6-    F514489   2.337   3.847   3.231  0.2324 -0.4068 -0.3340
 1117PF6-    F614490   2.236   3.923   3.415 -0.2155 -0.0056  0.5743
 1117PF6-    F714491   2.182   3.682   3.208 -0.1810  0.6596  0.1947
 1118PF6-    P114492   0.246   2.917   1.918  0.3785 -0.2057  0.1783
 1118PF6-    F214493   0.233   2.909   2.073  0.1645 -0.3534  0.0439
 1118PF6-    F314494   0.264   2.925   1.756  0.0465 -0.3196 -0.5079
 1118PF6-    F414495   0.267   3.074   1.935  0.2967  0.4254 -0.0782
 1118PF6-    F514496   0.213   2.762   1.912  0.1907  0.5691  0.5822
 1118PF6-    F614497   0.082   2.949   1.917 -0.1278 -0.0814  0.0070
 1118PF6-    F714498   0.405   2.886   1.930 -0.4805  0.1011 -0.1066
 1119PF6-    P114499   0.559   4.798   4.571  0.1743  0.4038 -0.2331
 1119PF6-    F214500   0.706   4.764   4.638 -0.1303  0.5281  0.1918
 1119PF6-    F314501   0.414   4.826   4.514 -0.4957 -0.5200  0.2731
 1119PF6-    F414502   0.625   4.889   4.461 -0.0097 -0.6969 -0.5690
 1119PF6-    F514503   0.483   4.710   4.687  0.5847  0.2754 -0.3794
 1119PF6-    F614504   0.542   4.927   4.671 -0.4521 -0.2170  0.0019
 1119PF6-    F714505   0.578   4.676   4.469 -0.1847  0.5995  0.1814
 1120PF6-    P114506   4.444   1.748   0.534  0.0740 -0.3619  0.0332
 1120PF6-    F214507   4.409   1.889   0.602 -0.1612  0.2968  0.5631
 1120PF6-    F314508   4.489   1.615   0.456 -0.6942 -0.1748  0.0300
 1120PF6-    F414509   4.555   1.728   0.641 -0.5648  0.3833 -0.2548
 1120PF6-    F514510   4.329   1.769   0.425  0.2918  0.0051  0.3528
 1120PF6-    F614511   4.551   1.836   0.446 -0.3317  0.4722  0.1273
 1120PF6-    F714512   4.343   1.672   0.632  0.0453 -0.2150 -0.3011
 1121PF6-    P114513   2.207   0.661   5.305  0.2742 -0.1717 -0.2183
 1121PF6-    F214514   2.282   0.764   5.403 -0.7125  0.6114  0.2089
 1121PF6-    F314515   2.122   0.565   5.203  0.2115 -0.4438 -0.3881
 1121PF6-    F414516   2.342   0.612   5.246 -0.0519  0.3652  0.4277
 1121PF6-    F514517   2.061   0.713   5.359 -0.7334  0.0059  0.1642
 1121PF6-    F614518   2.202   0.780   5.197 -0.6459 -0.2335  0.0892
 1121PF6-    F714519   2.207   0.537   5.411 -0.0673  0.6229  0.1934
 1122PF6-    P114520   1.416   4.989   4.608  0.1192  0.0873 -0.4618
 1122PF6-    F214521   1.434   5.137   4.549 -0.5075  0.1631 -0.3427
 1122PF6-    F314522   1.390   4.842   4.660 -0.2071 -0.1900 -0.0273
 1122PF6-    F414523   1.504   5.016   4.736 -0.0956  0.5005 -0.4505
 1122PF6-    F514524   1.324   4.963   4.478 -0.4311  0.0310  0.0929
 1122PF6-    F614525   1.541   4.942   4.528  0.1001  0.3288  0.3111
 1122PF6-    F714526   1.284   5.035   4.688 -0.5565  0.2915  0.1041
 1123PF6-    P114527   2.359   4.003   1.673  0.1572  0.0118 -0.2565
 1123PF6-    F214528   2.224   3.953   1.602  0.1770  0.2891 -0.0041
 1123PF6-    F314529   2.490   4.048   1.745 -0.1295 -0.3882  0.3250
 1123PF6-    F414530   2.441   3.920   1.560  0.7112 -0.5426 -0.1088
 1123PF6-    F514531   2.273   4.076   1.788 -0.2722  0.3145  0.1778
 1123PF6-    F614532   2.355   3.863   1.764 -0.5644 -0.7748 -0.2664
 1123PF6-    F714533   2.356   4.135   1.589  0.0738  0.1254 -0.0701
 1124PF6-    P114534   4.914   0.296   3.147  0.5365 -0.5164 -0.1527
 1124PF6-    F214535   4.864   0.422   3.054  0.0672  0.5527 -0.1824
 1124PF6-    F314536   4.954   0.170   3.238  0.0275 -0.3098 -0.5999
 1124PF6-    F414537   5.069   0.339   3.136  0.0157  0.3974  0.0846
 1124PF6-    F514538   4.757   0.262   3.163  0.9918 -0.4502  0.1621
 1124PF6-    F614539   4.923   0.202   3.020  0.5949  0.0888  0.2273
 1124PF6-    F714540   4.904   0.385   3.280 -0.0568  0.0675 -0.0528
 1125PF6-    P114541   4.674   2.796   4.457  0.1550  0.6023  0.1770
 1125PF6-    F214542   4.578   2.908   4.523  0.4542  0.2957  0.4186
 1125PF6-    F314543   4.757   2.673   4.395 -0.2616 -0.4212  0.3640
 1125PF6-    F414544   4.808   2.864   4.509 -0.0356  0.2384  0.2445
 1125PF6-    F514545   4.543   2.728   4.410 -0.3643  0.4250 -0.0880
 1125PF6-    F614546   4.682   2.880   4.322  0.1481  0.5897  0.1194
 1125PF6-    F714547   4.661   2.712   4.594 -0.1694  0.1878 -0.4262
 1126PF6-    P114548   3.444   2.909   5.383 -0.1725 -0.2459  0.2740
 1126PF6-    F214549   3.580   2.996   5.404  0.4940  0.0398  0.5300
 1126PF6-    F314550   3.313   2.823   5.356 -0.3293 -0.4415 -0.0413
 1126PF6-    F414551   3.460   2.827   5.524 -0.3391  0.1331  0.1688
 1126PF6-    F514552   3.421   2.984   5.247 -0.2601 -0.1179  0.2527
 1126PF6-    F614553   3.527   2.791   5.306  0.6923 -0.9478 -0.4519
 1126PF6-    F714554   3.356   3.021   5.455  0.8030  0.0721 -0.1567
 1127PF6-    P114555   0.732   0.892   4.915 -0.2883  0.1802 -0.1665
 1127PF6-    F214556   0.581   0.943   4.894 -0.2704 -0.3296 -0.1826
 1127PF6-    F314557   0.880   0.834   4.938  0.5318  0.3095 -0.1071
 1127PF6-    F414558   0.775   1.023   4.993  0.1224  0.2568 -0.2128
 1127PF6-    F514559   0.689   0.762   4.829 -0.2662 -0.0693 -0.5235
 1127PF6-    F614560   0.774   0.952   4.776 -0.0152 -0.0878 -0.5041
 1127PF6-    F714561   0.688   0.819   5.047  0.4471 -0.4044  0.1666
 1128PF6-    P114562   0.149   2.029   0.747  0.0895  0.0015  0.0607
 1128PF6-    F214563   0.144   2.157   0.845  0.0326 -0.1773  0.3171
 1128PF6-    F314564   0.156   1.911   0.642  0.0826 -0.2467 -0.1268
 1128PF6-    F414565   0.309   2.023   0.776  0.3334  0.1368  0.7163
 1128PF6-    F514566  -0.003   2.053   0.714  0.3644  0.4232 -0.0694
 1128PF6-    F614567   0.176   2.127   0.619 -0.3394  0.1759 -0.2213
 1128PF6-    F714568   0.113   1.927   0.860 -0.4349 -0.4088  0.4284
 1129PF6-    P114569   4.366   0.859   0.405 -0.1029  0.0344 -0.1814
 1129PF6-    F214570   4.293   0.823   0.547  0.4641  0.6322 -0.2315
 1129PF6-    F314571   4.431   0.893   0.265 -0.1578  0.0626  0.2008
 1129PF6-    F414572   4.294   0.735   0.338  0.4497  0.5236  0.4126
 1129PF6-    F514573   4.434   0.985   0.471  0.1555  0.1705 -0.2190
 1129PF6-    F614574   4.491   0.766   0.439  0.0616  0.2578  0.3552
 1129PF6-    F714575   4.230   0.942   0.364  0.0450  0.3444 -0.3588
 1130PF6-    P114576   3.527   1.344   0.624  0.3426 -0.7420  0.1780
 1130PF6-    F214577   3.507   1.276   0.764 -0.0109  0.0937 -0.8266
 1130PF6-    F314578   3.551   1.410   0.476 -0.4861 -0.0888 -0.1362
 1130PF6-    F414579   3.369   1.367   0.608 -0.6353  0.2979  0.0301
 1130PF6-    F514580   3.686   1.329   0.646  0.7570 -0.5004 -0.3308
 1130PF6-    F614581   3.519   1.205   0.551  0.4588 -0.1503  0.6328
 1130PF6-    F714582   3.533   1.482   0.691 -0.0731  0.3106  0.0597
 1131PF6-    P114583   4.156   0.486   3.660 -0.1330  0.0581  0.1915
 1131PF6-    F214584   4.149   0.329   3.645 -0.2110  0.1450 -0.1467
 1131PF6-    F314585   4.149   0.644   3.676  0.3626  0.1145  0.6348
 1131PF6-    F414586   4.247   0.470   3.786 -0.1106  0.3774 -0.5422
 1131PF6-    F514587   4.071   0.502   3.524 -0.1914 -0.8215  0.0462
 1131PF6-    F614588   4.016   0.469   3.739  0.0691 -0.2063  0.0705
 1131PF6-    F714589   4.290   0.495   3.563 -0.1417  0.0688  0.0521
 1132PF6-    P114590   4.310   0.992   2.909  0.1202  0.1059 -0.2867
 1132PF6-    F214591   4.162   0.977   2.976  0.0135 -0.1869  0.3923
 1132PF6-    F314592   4.455   1.010   2.842 -0.6357 -0.0223 -0.5998
 1132PF6-    F414593   4.308   0.831   2.898 -0.0075  0.1144  0.2437
 1132PF6-    F514594   4.305   1.154   2.936  0.5044  0.4991  0.0542
 1132PF6-    F614595   4.378   0.983   3.055 -0.3212  0.0838 -0.4535
 1132PF6-    F714596   4.237   1.005   2.769 -0.4813  0.3209  0.2635
 1133PF6-    P114597   3.368   3.176   4.634 -0.3067 -0.1526  0.1580
 1133PF6-    F214598   3.333   3.194   4.476  0.0724 -0.0454  0.2197
 1133PF6-    F314599   3.405   3.170   4.789 -0.4301 -0.1174 -0.0311
 1133PF6-    F414600   3.470   3.054   4.613 -0.1517 -0.2437  0.2217
 1133PF6-    F514601   3.268   3.296   4.669 -0.4201 -0.3307 -0.1330
 1133PF6-    F614602   3.247   3.070   4.659 -0.0910  0.6547  0.5444
 1133PF6-    F714603   3.486   3.288   4.613 -0.0289  0.2719 -0.1299
 1134PF6-    P114604   4.599   4.502   5.334 -0.0967 -0.5054 -0.0380
 1134PF6-    F214605   4.601   4.353   5.389  0.1008  0.0336  0.3716
 1134PF6-    F314606   4.591   4.649   5.273  0.0450  0.6310 -0.0301
 1134PF6-    F414607   4.737   4.473   5.251  0.3542  0.1811  0.4870
 1134PF6-    F514608   4.470   4.532   5.419 -0.3449 -0.0207 -0.8290
 1134PF6-    F614609   4.689   4.560   5.456 -0.0202  0.2605 -0.1944
 1134PF6-    F714610   4.508   4.448   5.215 -0.6258  0.2315 -0.0712
 1135PF6-    P114611   2.641   0.258   1.573 -0.0308  0.1466 -0.1145
 1135PF6-    F214612   2.481   0.243   1.589  0.6064 -0.2656 -0.2790
 1135PF6-    F314613   2.798   0.291   1.567  0.4464  0.1197 -0.2930
 1135PF6-    F414614   2.661   0.098   1.581  0.4475  0.0562  0.4098
 1135PF6-    F514615   2.614   0.412   1.574  0.3835  0.3047  0.6265
 1135PF6-    F614616   2.646   0.266   1.729  0.1937  0.1736 -0.0697
 1135PF6-    F714617   2.635   0.250   1.415 -0.1923  0.2434  0.0907
 1136PF6-    P114618   4.317   2.299   1.052  0.1893  0.1227 -0.2264
 1136PF6-    F214619   4.465   2.352   1.033 -0.1960 -0.2647 -0.2510
 1136PF6-    F314620   4.164   2.247   1.074 -0.5538  0.4055 -0.2836
 1136PF6-    F414621   4.355   2.254   1.205  0.3174  0.1105  0.0775
 1136PF6-    F514622   4.283   2.349   0.900 -0.4030 -0.5411  0.3468
 1136PF6-    F614623   4.360   2.156   0.986  0.6416 -0.2712 -0.5475
 1136PF6-    F714624   4.274   2.450   1.111  0.8622 -0.0236  0.0752
 1137PF6-    P114625   1.560   3.268   4.160  0.0021  0.0247  0.2708
 1137PF6-    F214626   1.640   3.325   4.285  0.3851  0.1943 -0.5342
 1137PF6-    F314627   1.494   3.209   4.026  0.4160  0.2352 -0.5255
 1137PF6-    F414628   1.568   3.413   4.094  0.4205 -0.1397  0.5380
 1137PF6-    F514629   1.559   3.118   4.224 -0.0940 -0.4390 -0.6042
 1137PF6-    F614630   1.424   3.300   4.228 -0.2401 -0.2125 -0.1534
 1137PF6-    F714631   1.705   3.230   4.100 -0.6131 -0.6412 -0.0176
 1138PF6-    P114632   0.082   2.722   3.828 -0.3599  0.5029 -0.3895
 1138PF6-    F214633   0.185   2.779   3.935 -0.1173 -0.1867  0.3530
 1138PF6-    F314634  -0.025   2.661   3.719 -0.3775 -0.4508 -0.2698
 1138PF6-    F414635  -0.030   2.811   3.896 -0.6475  0.5222  0.9616
 1138PF6-    F514636   0.193   2.622   3.761  0.1182  0.2812  0.2510
 1138PF6-    F614637   0.039   2.605   3.934 -0.0751  1.0299 -0.1964
 1138PF6-    F714638   0.110   2.845   3.716  0.5985 -0.6417  0.3807
 1139PF6-    P114639   3.530   0.178   0.245  0.2315  0.6967 -0.2839
 1139PF6-    F214640   3.534   0.096   0.378  0.2495 -0.3601 -0.1663
 1139PF6-    F314641   3.529   0.254   0.108  0.4909  0.1872  0.3395
 1139PF6-    F414642   3.589   0.310   0.321  0.5404 -0.4723 -0.0479
 1139PF6-    F514643   3.472   0.047   0.174 -0.1791  0.3544 -0.7795
 1139PF6-    F614644   3.383   0.222   0.279  0.6157 -0.4316 -0.0261
 1139PF6-    F714645   3.681   0.129   0.212  0.1897  0.0615  0.1842
 1140PF6-    P114646   1.071   2.622   0.011 -0.1713 -0.3315  0.5266
 1140PF6-    F214647   1.089   2.463  -0.006  0.0205 -0.5025 -0.2445
 1140PF6-    F314648   1.048   2.784   0.019 -0.3604  0.1721  0.0479
 1140PF6-    F414649   0.961   2.614  -0.103  0.1210 -0.1864  0.6920
 1140PF6-    F514650   1.178   2.630   0.135 -0.7401  0.3627 -0.0535
 1140PF6-    F614651   1.191   2.641  -0.099 -0.2871  0.1348  0.2929
 1140PF6-    F714652   0.953   2.600   0.114  0.4804  0.0723  0.6700
 1141PF6-    P114653   2.094   2.604   4.556 -0.2002  0.5316 -0.2855
 1141PF6-    F214654   2.039   2.629   4.414 -0.0699 -0.0091 -0.2121
 1141PF6-    F314655   2.154   2.577   4.701  0.0609 -0.0458  0.0589
 1141PF6-    F414656   2.135   2.766   4.567 -0.1891 -0.0077 -0.9111
 1141PF6-    F514657   2.054   2.444   4.540 -0.7165 -0.0757 -0.0761
 1141PF6-    F614658   2.238   2.576   4.492  0.1730 -0.1872 -0.1590
 1141PF6-    F714659   1.952   2.628   4.625 -0.0928 -0.5913  0.0287
 1142PF6-    P114660   5.218   1.176   0.091 -0.2630 -0.1552  0.0038
 1142PF6-    F214661   5.191   1.326   0.062  0.0222  0.2116 -0.3007
 1142PF6-    F314662   5.243   1.018   0.103  0.3615  0.2410 -0.1602
 1142PF6-    F414663   5.094   1.169   0.198  0.1990 -0.1283 -0.6831
 1142PF6-    F514664   5.335   1.179  -0.017  0.1690  0.0095 -0.3032
 1142PF6-    F614665   5.327   1.210   0.210  0.1728  0.1485 -0.0518
 1142PF6-    F714666   5.107   1.140  -0.024 -0.2662 -0.5104  0.0531
 1143PF6-    P114667   0.351   0.203   0.129  0.3216 -0.0864  0.3332
 1143PF6-    F214668   0.379   0.070   0.036  0.4922 -0.4109 -0.1175
 1143PF6-    F314669   0.324   0.335   0.214  0.0563 -0.1393  0.5625
 1143PF6-    F414670   0.468   0.159   0.232  0.2835  0.3757  0.2088
 1143PF6-    F514671   0.229   0.243   0.027  0.0430  0.2008 -0.2622
 1143PF6-    F614672   0.247   0.119   0.217  0.4330 -0.3890 -0.3202
 1143PF6-    F714673   0.466   0.280   0.039  0.2894  0.1426  0.3598
 1144PF6-    P114674   4.550   1.492   4.439  0.1146 -0.0014 -0.4302
 1144PF6-    F214675   4.464   1.573   4.544 -0.2034  0.4253 -0.2554
 1144PF6-    F314676   4.641   1.414   4.335  0.0854 -0.1423  0.6499
 1144PF6-    F414677   4.608   1.622   4.379  0.4063  0.2318  0.3537
 1144PF6-    F514678   4.504   1.356   4.514  0.1185 -0.2999 -0.6498
 1144PF6-    F614679   4.423   1.490   4.340 -0.1639 -0.1949 -0.0989
 1144PF6-    F714680   4.671   1.502   4.538 -0.4670 -0.0994 -0.3153
 1145PF6-    P114681   2.945   3.933   1.584  0.5079 -0.1983 -0.1668
 1145PF6-    F214682   2.787   3.946   1.561  0.4934 -0.1052  0.0112
 1145PF6-    F314683   3.100   3.934   1.623 -0.3718 -0.5037  0.5415
 1145PF6-    F414684   2.969   4.054   1.478  0.7936 -0.1598  0.1055
 1145PF6-    F514685   2.915   3.824   1.694 -0.0977 -0.2692  0.2113
 1145PF6-    F614686   2.964   3.818   1.472 -0.2464  0.0049  0.5482
 1145PF6-    F714687   2.923   4.058   1.696 -0.6044  0.1292 -0.0044
 1146PF6-    P114688   0.306   4.446   1.515 -0.0776  0.4762 -0.2429
 1146PF6-    F214689   0.238   4.319   1.445  0.3691 -0.3375  0.7314
 1146PF6-    F314690   0.376   4.577   1.583  0.2190  0.2737 -0.3880
 1146PF6-    F414691   0.289   4.526   1.377  0.6760  0.0811 -0.3565
 1146PF6-    F514692   0.330   4.357   1.657 -0.1863  0.4210  0.1492
 1146PF6-    F614693   0.452   4.389   1.457 -0.1967 -0.3394 -0.0505
 1146PF6-    F714694   0.163   4.499   1.562  0.2332 -0.1109 -0.0662
 1147PF6-    P114695   3.862   2.703   2.020 -0.2722  0.2573  0.0827
 1147PF6-    F214696   3.741   2.675   2.112  0.6201  0.0827 -0.2986
 1147PF6-    F314697   3.987   2.725   1.921 -0.2205  0.2170 -0.1591
 1147PF6-    F414698   3.937   2.590   2.101 -0.1096  0.5557  0.2872
 1147PF6-    F514699   3.786   2.820   1.945  0.2934  0.3308  0.2785
 1147PF6-    F614700   3.924   2.811   2.126 -0.2543  0.1638  0.3561
 1147PF6-    F714701   3.813   2.590   1.920  0.5785  0.5228  0.3848
 1148PF6-    P114702   2.664   2.770   4.846 -0.2466 -0.0050 -0.4534
 1148PF6-    F214703   2.637   2.809   4.688  0.1638  0.5868  0.5475
 1148PF6-    F314704   2.686   2.732   5.001  0.0666 -0.7348  0.5745
 1148PF6-    F414705   2.511   2.785   4.881  0.1762  0.2751  0.0423
 1148PF6-    F514706   2.824   2.763   4.815  0.1068  0.0969  0.1456
 1148PF6-    F614707   2.686   2.928   4.880  0.0766  0.3130 -0.3808
 1148PF6-    F714708   2.644   2.617   4.811  0.9696 -0.3236  0.0201
 1149PF6-    P114709   4.380   1.629   1.203 -0.3408 -0.2612  0.4100
 1149PF6-    F214710   4.516   1.643   1.286 -0.0084  0.2580  0.0826
 1149PF6-    F314711   4.250   1.612   1.118  0.0231  0.3192  0.4269
 1149PF6-    F414712   4.317   1.761   1.270 -0.1438 -0.0370  0.0600
 1149PF6-    F514713   4.440   1.499   1.134  0.1350  0.6238  0.0807
 1149PF6-    F614714   4.313   1.540   1.318 -0.4740  0.3092 -0.2637
 1149PF6-    F714715   4.449   1.724   1.095 -0.1748 -0.0411 -0.0706
 1150PF6-    P114716   1.824   4.783   3.536 -0.0801  0.3117  0.6155
 1150PF6-    F214717   1.866   4.760   3.690 -0.0507 -0.2301 -0.3247
 1150PF6-    F314718   1.784   4.812   3.381  0.4875 -0.0595 -0.6969
 1150PF6-    F414719   1.707   4.882   3.584 -0.2837 -0.2255 -0.2626
 1150PF6-    F514720   1.935   4.678   3.490 -0.5582  0.3150 -0.5241
 1150PF6-    F614721   1.714   4.670   3.546  0.0487  0.2026 -0.6313
 1150PF6-    F714722   1.933   4.900   3.528 -0.3028 -0.1098  0.0225
 1151PF6-    P114723   4.019   4.522   0.965  0.6672 -0.1144  0.2711
 1151PF6-    F214724   4.013   4.552   1.126  0.2687  0.0586  0.4916
 1151PF6-    F314725   4.025   4.496   0.812  0.2795  0.1251  0.6565
 1151PF6-    F414726   3.948   4.659   0.938 -0.1575 -0.0303  0.6795
 1151PF6-    F514727   4.088   4.373   0.986 -0.1269 -0.2581  0.5638
 1151PF6-    F614728   3.876   4.448   0.975  0.0525  0.1325 -0.0784
 1151PF6-    F714729   4.160   4.590   0.958 -0.0216  0.5372 -0.1947
 1152PF6-    P114730   4.979   1.298   3.557  0.0215 -0.2756  0.0633
 1152PF6-    F214731   4.932   1.226   3.693 -0.3843 -0.1778 -0.2104
 1152PF6-    F314732   5.019   1.372   3.421 -0.1902  0.2830 -0.3050
 1152PF6-    F414733   5.121   1.317   3.616 -0.6020 -0.2527  0.0106
 1152PF6-    F514734   4.830   1.289   3.501 -0.4423  0.2526 -0.1436
 1152PF6-    F614735   4.933   1.438   3.616 -0.4895  0.4518  0.1951
 1152PF6-    F714736   5.025   1.157   3.489  0.0156 -0.1250  0.1322
 1153PF6-    P114737   1.347   3.642   3.642 -0.2917 -0.3801 -0.3384
 1153PF6-    F214738   1.465   3.522   3.640 -0.3099  0.1841  0.4300
 1153PF6-    F314739   1.238   3.758   3.644 -0.1150 -0.0786 -0.1144
 1153PF6-    F414740   1.299   3.600   3.495 -0.4012 -0.0449 -0.0954
 1153PF6-    F514741   1.397   3.688   3.792 -0.0288 -0.1943  0.1883
 1153PF6-    F614742   1.452   3.744   3.571 -0.6615  0.1478  0.0865
 1153PF6-    F714743   1.250   3.536   3.719  0.0780  0.4862 -0.2838
 1154PF6-    P114744   0.698   1.226   1.082  0.1641 -0.0825 -0.0383
 1154PF6-    F214745   0.699   1.081   1.144 -0.2770 -0.5828 -0.4792
 1154PF6-    F314746   0.692   1.371   1.019 -0.4423  0.1407 -0.4759
 1154PF6-    F414747   0.851   1.217   1.041  0.1173 -0.3150 -0.1235
 1154PF6-    F514748   0.542   1.237   1.127  0.2973  0.2434 -0.0177
 1154PF6-    F614749   0.744   1.291   1.229  0.0327  0.1750  0.2906
 1154PF6-    F714750   0.643   1.168   0.938 -0.6588  0.3314  0.5000
 1155PF6-    P114751   3.272   5.344   3.262 -0.1042  0.0709 -0.8280
 1155PF6-    F214752   3.301   5.196   3.233 -0.2387  0.0022  0.2620
 1155PF6-    F314753   3.256   5.503   3.293  0.3690 -0.1020 -0.7059
 1155PF6-    F414754   3.115   5.323   3.248  0.0541 -0.7452 -0.5855
 1155PF6-    F514755   3.430   5.364   3.284 -0.4644  0.1876  0.3869
 1155PF6-    F614756   3.290   5.369   3.106 -0.2957 -0.3538  0.3900
 1155PF6-    F714757   3.258   5.315   3.422 -0.5282  0.2889 -0.5939
 1156PF6-    P114758   4.557   2.670   5.121  0.2561  0.1618 -0.2826
 1156PF6-    F214759   4.698   2.645   5.050 -0.1127  0.3512  0.3078
 1156PF6-    F314760   4.412   2.703   5.189 -0.4037 -0.5789  0.0731
 1156PF6-    F414761   4.482   2.668   4.977 -0.2805 -0.3964  0.2709
 1156PF6-    F514762   4.627   2.672   5.268  0.5911  0.2806  0.2367
 1156PF6-    F614763   4.583   2.824   5.102  0.3492  0.1642 -0.2572
 1156PF6-    F714764   4.541   2.515   5.120 -0.2185  0.3218 -0.1720
 1157PF6-    P114765   3.182   4.011   2.366 -0.0440  0.3946 -0.2800
 1157PF6-    F214766   3.073   4.120   2.331 -0.6538  0.2800 -0.0574
 1157PF6-    F314767   3.297   3.906   2.405  0.4879  0.0756  0.2987
 1157PF6-    F414768   3.261   4.107   2.461 -0.3204 -0.1232 -0.2034
 1157PF6-    F514769   3.111   3.902   2.271  0.0026 -0.1524 -0.0722
 1157PF6-    F614770   3.268   4.061   2.243  0.0223 -0.8266 -0.0655
 1157PF6-    F714771   3.085   3.961   2.489  0.2770  0.2549  0.0026
 1158PF6-    P114772   2.674   0.098   5.293  0.2074  0.4584  0.2224
 1158PF6-    F214773   2.579   0.025   5.179  0.2295 -0.0225 -0.5431
 1158PF6-    F314774   2.767   0.157   5.400  0.1881  0.1090  0.1082
 1158PF6-    F414775   2.704  -0.049   5.354 -0.3805 -0.0795 -0.0064
 1158PF6-    F514776   2.640   0.247   5.237 -0.1023  0.2870  0.1584
 1158PF6-    F614777   2.555   0.102   5.400  0.4383 -0.5547  0.5116
 1158PF6-    F714778   2.791   0.085   5.190  0.2958  0.0720  0.1478
 1159PF6-    P114779   1.508   1.076   3.465  0.2100 -0.4146 -0.0924
 1159PF6-    F214780   1.524   1.207   3.557 -0.0552  0.6178  0.2055
 1159PF6-    F314781   1.489   0.954   3.362 -0.1034 -0.5609  0.0553
 1159PF6-    F414782   1.578   1.168   3.348 -0.3627  0.0296  0.0426
 1159PF6-    F514783   1.441   0.987   3.585  0.0392 -0.1387  0.4936
 1159PF6-    F614784   1.364   1.131   3.421  0.0626 -0.3028  0.1296
 1159PF6-    F714785   1.652   1.025   3.507 -0.3333 -0.0861  0.1402
 1160PF6-    P114786   2.629   3.838   2.449  0.2816 -0.2121  0.4459
 1160PF6-    F214787   2.733   3.959   2.447 -0.8689 -0.4130  0.3293
 1160PF6-    F314788   2.521   3.722   2.451 -0.0067  0.6436 -0.3974
 1160PF6-    F414789   2.521   3.935   2.536 -0.2771 -0.1230  0.5816
 1160PF6-    F514790   2.728   3.742   2.367 -0.3801 -0.1735  0.0119
 1160PF6-    F614791   2.693   3.782   2.579 -0.1491 -0.2876 -0.1297
 1160PF6-    F714792   2.562   3.888   2.310 -0.1332  0.2439 -0.3659
 1161PF6-    P114793   0.337   1.344   0.648  0.3916 -0.4089  0.4391
 1161PF6-    F214794   0.295   1.308   0.498 -0.3442  0.3508  0.2501
 1161PF6-    F314795   0.371   1.391   0.798 -0.1315  0.1274 -0.3172
 1161PF6-    F414796   0.408   1.479   0.592  0.0066 -0.3953 -0.2402
 1161PF6-    F514797   0.270   1.215   0.710  0.8156  0.5487  0.1874
 1161PF6-    F614798   0.476   1.269   0.643 -0.0433  0.2597  0.2571
 1161PF6-    F714799   0.204   1.422   0.666  0.0338  0.0165  0.3069
 1162PF6-    P114800   0.534   0.224   1.756  0.0645  0.0909 -0.1680
 1162PF6-    F214801   0.425   0.314   1.836 -0.0616 -0.0120 -0.2245
 1162PF6-    F314802   0.649   0.139   1.683 -0.4873  0.5337  0.1598
 1162PF6-    F414803   0.416   0.177   1.653 -0.5511 -0.3148 -0.6808
 1162PF6-    F514804   0.651   0.287   1.854 -0.1686  0.5142 -0.3861
 1162PF6-    F614805   0.508   0.107   1.854  0.1591  0.0501 -0.5472
 1162PF6-    F714806   0.571   0.342   1.656 -0.1752 -1.0396 -0.1443
 1163PF6-    P114807   2.521   5.486   3.909 -0.0895  0.2335 -0.2135
 1163PF6-    F214808   2.477   5.556   3.773 -0.1289  0.0985  0.1744
 1163PF6-    F314809   2.556   5.404   4.042 -0.3537  0.1689  0.4097
 1163PF6-    F414810   2.541   5.624   3.980  0.3708 -0.1477 -0.3159
 1163PF6-    F514811   2.503   5.347   3.827  0.0880 -0.2996  0.1045
 1163PF6-    F614812   2.671   5.484   3.867 -0.3174 -0.2021  0.1785
 1163PF6-    F714813   2.362   5.483   3.948  0.4282  0.1391  0.4404
 1164PF6-    P114814   1.182   2.544   4.547  0.0233 -0.0683 -0.1596
 1164PF6-    F214815   1.283   2.665   4.521  0.0188  0.1449 -0.0326
 1164PF6-    F314816   1.088   2.422   4.574  0.4455 -0.1323  0.3339
 1164PF6-    F414817   1.212   2.551   4.702  0.5039  0.4021 -0.0991
 1164PF6-    F514818   1.155   2.541   4.392 -0.4708  0.2077 -0.2406
 1164PF6-    F614819   1.305   2.446   4.530  0.8728  0.6622  0.3669
 1164PF6-    F714820   1.059   2.651   4.559 -0.2127  0.3542 -0.0056
 1165PF6-    P114821   0.914   0.849   2.124 -0.0467  0.5047  0.4391
 1165PF6-    F214822   0.847   0.722   2.043 -0.2720  0.1921 -0.3153
 1165PF6-    F314823   0.989   0.966   2.214  0.7574  0.1751  0.3333
 1165PF6-    F414824   1.023   0.749   2.191  0.2738  0.0194  0.3625
 1165PF6-    F514825   0.812   0.949   2.055 -0.1559  0.2084 -0.0697
 1165PF6-    F614826   0.811   0.831   2.249  0.5028  0.2483 -0.3865
 1165PF6-    F714827   1.014   0.866   1.998  0.3777 -0.3085 -0.3782
 1166PF6-    P114828   3.762   3.832   4.410  0.0043 -0.5482  0.0357
 1166PF6-    F214829   3.827   3.732   4.309 -0.0749 -0.0047  0.2577
 1166PF6-    F314830   3.689   3.930   4.506 -0.0446 -0.4501  0.0994
 1166PF6-    F414831   3.809   3.744   4.536  0.0967 -0.3923 -0.3707
 1166PF6-    F514832   3.721   3.920   4.284 -0.2666 -0.2316  0.1667
 1166PF6-    F614833   3.623   3.753   4.405  0.4733  0.2534  0.0156
 1166PF6-    F714834   3.899   3.918   4.414  0.3009  0.3950 -0.2811
 1167PF6-    P114835   4.990   3.886   2.875 -0.3350  0.2154 -0.0592
 1167PF6-    F214836   4.848   3.963   2.858 -0.4686  0.1830 -0.3322
 1167PF6-    F314837   5.130   3.816   2.894 -0.1192  0.2688 -0.0032
 1167PF6-    F414838   5.031   3.936   2.728  0.2269 -0.1873  0.0015
 1167PF6-    F514839   4.938   3.832   3.015  0.1043  0.3525 -0.0459
 1167PF6-    F614840   4.939   3.749   2.810  0.1403  0.2428  0.1395
 1167PF6-    F714841   5.040   4.022   2.940  0.1472 -0.0096 -0.2734
 1168PF6-    P114842   1.679   2.464   1.443  0.2117 -0.1248 -0.6876
 1168PF6-    F214843   1.635   2.432   1.597 -0.0403  0.4739  0.1703
 1168PF6-    F314844   1.718   2.491   1.284 -0.6875  0.3409  0.0697
 1168PF6-    F414845   1.813   2.530   1.487 -0.1668  0.2810 -0.6947
 1168PF6-    F514846   1.545   2.392   1.396  0.2543  0.1938  0.2556
 1168PF6-    F614847   1.603   2.602   1.448  0.2989 -0.1109 -0.3443
 1168PF6-    F714848   1.756   2.324   1.443  0.6149  0.0817 -0.0194
 1169PF6-    P114849   0.355   5.361   0.779 -0.3587  0.2974  0.1802
 1169PF6-    F214850   0.252   5.322   0.665  0.3776 -0.4234 -0.2493
 1169PF6-    F314851   0.460   5.401   0.893  0.2937 -0.2715 -0.2628
 1169PF6-    F414852   0.379   5.506   0.710 -0.0331 -0.0935  0.3178
 1169PF6-    F514853   0.334   5.216   0.847  0.4513  0.2438  0.0981
 1169PF6-    F614854   0.469   5.303   0.689  0.3394  0.6694 -0.0966
 1169PF6-    F714855   0.233   5.424   0.870  0.0329 -0.0723 -0.1648
 1170PF6-    P114856   0.424   2.424   0.106 -0.0755  0.1957 -0.4404
 1170PF6-    F214857   0.484   2.298   0.023 -0.1730 -0.0549 -0.2769
 1170PF6-    F314858   0.364   2.551   0.186 -0.6771 -0.1190  0.4420
 1170PF6-    F414859   0.407   2.342   0.247 -0.0459  0.2696  0.2354
 1170PF6-    F514860   0.424   2.512  -0.033  1.2442 -0.0176  0.4513
 1170PF6-    F614861   0.273   2.381   0.071  0.1687  0.1483 -0.3577
 1170PF6-    F714862   0.576   2.471   0.140 -0.0480  0.1899 -0.0402
 1171PF6-    P114863   4.011   4.486   3.496  0.1014 -0.3545  0.3597
 1171PF6-    F214864   3.890   4.383   3.542 -0.2367  0.1921  0.6501
 1171PF6-    F314865   4.128   4.586   3.461  0.0312  0.2108 -0.5651
 1171PF6-    F414866   4.051   4.382   3.389  0.8478 -0.7106  0.6256
 1171PF6-    F514867   3.962   4.583   3.616  0.2254  0.0150  0.0010
 1171PF6-    F614868   4.103   4.402   3.601 -0.6907 -0.1161 -0.2405
 1171PF6-    F714869   3.913   4.566   3.391 -0.5998 -0.0377 -0.0845
 1172PF6-    P114870   2.524   2.165   0.205  0.0413 -0.0753  0.2743
 1172PF6-    F214871   2.419   2.123   0.316 -0.1725 -0.0457  0.0130
 1172PF6-    F314872   2.630   2.210   0.089 -0.0492 -0.5536 -0.0130
 1172PF6-    F414873   2.453   2.064   0.099  0.2982  0.5122 -0.4676
 1172PF6-    F514874   2.594   2.265   0.312  0.4960 -0.3261 -0.0915
 1172PF6-    F614875   2.614   2.043   0.251 -0.1282 -0.5385 -0.2993
 1172PF6-    F714876   2.425   2.288   0.162 -0.0264  0.2407 -0.3116
 1173PF6-    P114877   1.819   2.563   0.737 -0.1133  0.4223  0.2561
 1173PF6-    F214878   1.958   2.489   0.710 -0.4391  0.3197 -0.4552
 1173PF6-    F314879   1.684   2.640   0.760 -0.1170 -0.2269  0.8207
 1173PF6-    F414880   1.782   2.547   0.581 -0.0083 -0.1769 -0.6526
 1173PF6-    F514881   1.860   2.583   0.888 -0.8008 -0.2949  0.1995
 1173PF6-    F614882   1.892   2.702   0.706 -0.3849 -0.2746  0.6816
 1173PF6-    F714883   1.746   2.422   0.769  0.1487  0.0011  0.0753
 1174PF6-    P114884   4.458   3.919   2.683  0.3871 -0.0914  0.4072
 1174PF6-    F214885   4.443   3.956   2.524 -0.1975  0.0906  0.0850
 1174PF6-    F314886   4.472   3.885   2.837  0.0191 -0.5590  0.3833
 1174PF6-    F414887   4.438   3.762   2.658  0.1940 -0.2263  0.6494
 1174PF6-    F514888   4.484   4.070   2.712  0.2528 -0.3320 -0.5059
 1174PF6-    F614889   4.303   3.942   2.698 -0.2664 -0.0743 -0.1954
 1174PF6-    F714890   4.614   3.903   2.664 -0.1572 -0.1677  0.0634
 1175PF6-    P114891   2.705   1.542   5.055  0.1892 -0.0622 -0.1100
 1175PF6-    F214892   2.579   1.571   4.961  0.0030  0.2851  0.2471
 1175PF6-    F314893   2.833   1.508   5.150 -0.1909  0.1333 -0.2176
 1175PF6-    F414894   2.672   1.390   5.038 -0.1046  0.5617  0.2008
 1175PF6-    F514895   2.731   1.699   5.070 -0.5753 -0.1640  0.3918
 1175PF6-    F614896   2.607   1.548   5.183 -0.4803 -0.1672  0.1110
 1175PF6-    F714897   2.800   1.538   4.931  0.0662  0.4548  0.0563
 1176PF6-    P114898   1.316   0.425   3.402  0.0611 -0.1554 -0.5141
 1176PF6-    F214899   1.186   0.442   3.305  0.3964 -0.9061 -0.6695
 1176PF6-    F314900   1.448   0.413   3.495 -0.0162  0.6265 -0.5255
 1176PF6-    F414901   1.325   0.584   3.430 -0.8205  0.7148 -0.3703
 1176PF6-    F514902   1.310   0.264   3.387 -0.1703 -0.1015 -0.3783
 1176PF6-    F614903   1.418   0.429   3.280  0.2566 -0.2472 -0.0891
 1176PF6-    F714904   1.210   0.417   3.528 -0.5312  0.0548  0.3000
 1177PF6-    P114905   5.380   1.054   3.461 -0.1189 -0.2848  0.2815
 1177PF6-    F214906   5.497   0.972   3.532 -0.1798  0.2475  0.3736
 1177PF6-    F314907   5.269   1.145   3.388  0.4640 -0.2518  0.8457
 1177PF6-    F414908   5.311   1.090   3.605  0.4988  0.3914  0.0781
 1177PF6-    F514909   5.456   1.024   3.325 -0.6093 -0.2220 -0.0986
 1177PF6-    F614910   5.287   0.923   3.446  0.5101  0.1291  0.2208
 1177PF6-    F714911   5.469   1.185   3.476 -0.3418  0.3518  0.2090
 1178PF6-    P114912   2.257   3.029   3.172 -0.2267  0.1602 -0.2794
 1178PF6-    F214913   2.316   3.057   3.024 -0.0197 -0.3270  0.0028
 1178PF6-    F314914   2.195   3.004   3.319 -0.0573 -0.2149  0.1379
 1178PF6-    F414915   2.371   2.918   3.190  0.0191  0.0580 -0.1071
 1178PF6-    F514916   2.152   3.150   3.153  0.0987 -0.3147 -0.0624
 1178PF6-    F614917   2.148   2.920   3.117  0.1004 -0.7159  0.5132
 1178PF6-    F714918   2.357   3.131   3.230 -0.9300  0.1463  0.3492
 1179PF6-    P114919   0.763   2.131   2.310  0.0557 -0.2689 -0.0813
 1179PF6-    F214920   0.665   2.254   2.361 -0.4407  0.0550 -0.4323
 1179PF6-    F314921   0.861   2.016   2.260  0.4289 -0.1651  0.3864
 1179PF6-    F414922   0.773   2.194   2.162  0.2352  0.2069  0.1244
 1179PF6-    F514923   0.757   2.069   2.455  0.0599 -0.1578 -0.6682
 1179PF6-    F614924   0.640   2.049   2.263 -0.5974  0.4883 -0.4407
 1179PF6-    F714925   0.889   2.222   2.357 -0.0828 -0.9004  0.3861
 1180PF6-    P114926   3.713   4.262   0.097 -0.1812 -0.4202 -0.3046
 1180PF6-    F214927   3.828   4.204   0.002 -0.0020 -0.2031  0.0735
 1180PF6-    F314928   3.598   4.327   0.192 -0.5216 -0.0642 -0.5962
 1180PF6-    F414929   3.658   4.343  -0.028 -0.5163 -0.6134 -0.0550
 1180PF6-    F514930   3.765   4.174   0.212  0.2965  0.3367 -0.5389
 1180PF6-    F614931   3.809   4.383   0.139 -0.0460 -0.0482 -0.4820
 1180PF6-    F714932   3.612   4.142   0.052  0.1351  0.1167  0.4557
 1181PF6-    P114933   3.042   3.647   2.749  0.0165 -0.1157  0.1040
 1181PF6-    F214934   3.173   3.670   2.658 -0.2392 -0.3775 -0.5958
 1181PF6-    F314935   2.915   3.620   2.845 -0.0286  0.4161 -0.4212
 1181PF6-    F414936   2.950   3.630   2.613 -0.3476  0.3056  0.0301
 1181PF6-    F514937   3.135   3.664   2.879  0.7771 -0.5360 -0.4224
 1181PF6-    F614938   3.011   3.799   2.750  0.1415  0.1061  0.3527
 1181PF6-    F714939   3.074   3.491   2.748  0.3965 -0.0642 -0.7834
 1182PF6-    P114940   1.693   4.830   2.291 -0.2491 -0.2575  0.4033
 1182PF6-    F214941   1.594   4.952   2.284  0.1522 -0.4561 -0.0591
 1182PF6-    F314942   1.800   4.705   2.298 -0.4043  0.1996  0.1072
 1182PF6-    F414943   1.639   4.797   2.446 -0.1915  0.1880  0.1672
 1182PF6-    F514944   1.749   4.869   2.145 -0.4402 -0.5040  0.4106
 1182PF6-    F614945   1.794   4.930   2.353 -0.1406  0.4046 -0.1294
 1182PF6-    F714946   1.576   4.733   2.228  0.1239 -0.4983  0.2411
 1183PF6-    P114947   1.156   4.075   5.020  0.2247 -0.2153  0.5273
 1183PF6-    F214948   1.081   3.934   5.040  0.6712  0.4305 -0.0426
 1183PF6-    F314949   1.230   4.211   4.998 -0.0160 -0.5273  0.8378
 1183PF6-    F414950   1.248   4.048   5.148  0.4219  0.3972 -0.0309
 1183PF6-    F514951   1.068   4.107   4.889  0.1623  0.2716  1.1612
 1183PF6-    F614952   1.044   4.149   5.111 -0.0251  0.1716  0.1978
 1183PF6-    F714953   1.263   3.999   4.925 -0.0498 -0.0281  0.0821
 1184PF6-    P114954   1.825   4.404   3.132  0.2871  0.5272  0.2728
 1184PF6-    F214955   1.738   4.327   3.246 -0.2775  0.3444 -0.6203
 1184PF6-    F314956   1.900   4.487   3.019  0.2880  0.7174 -0.1505
 1184PF6-    F414957   1.859   4.521   3.238  0.1179  0.0457 -0.4525
 1184PF6-    F514958   1.796   4.283   3.034 -0.4732  0.5676 -0.1538
 1184PF6-    F614959   1.688   4.478   3.088 -0.4645 -0.1364  0.0988
 1184PF6-    F714960   1.963   4.328   3.175 -0.2578  0.0413 -0.1783
 1185PF6-    P114961   3.127   2.743   1.422  0.0792  0.2582  0.1840
 1185PF6-    F214962   3.068   2.810   1.557 -0.0271 -0.0585 -0.0599
 1185PF6-    F314963   3.188   2.676   1.288  0.3086 -0.1739 -0.2223
 1185PF6-    F414964   3.268   2.723   1.495  0.1622  0.3259  0.1970
 1185PF6-    F514965   2.989   2.760   1.336 -0.2623  0.3868  0.0549
 1185PF6-    F614966   3.169   2.887   1.373 -0.0415  0.6084 -0.2646
 1185PF6-    F714967   3.070   2.601   1.471 -0.6213 -0.4738 -0.1310
 1186PF6-    P114968   1.758   3.103   3.712  0.0951 -0.2086 -0.4476
 1186PF6-    F214969   1.670   3.128   3.840 -0.9331  0.2671 -0.1627
 1186PF6-    F314970   1.847   3.064   3.584  0.5470 -0.2481  0.2557
 1186PF6-    F414971   1.891   3.176   3.780  0.8303 -0.5488  0.1109
 1186PF6-    F514972   1.633   3.033   3.647 -0.2054 -0.2840 -0.4133
 1186PF6-    F614973   1.714   3.242   3.650 -0.4399 -0.4498  0.4307
 1186PF6-    F714974   1.801   2.959   3.774  0.4880 -0.2294  0.0255
 1187PF6-    P114975   4.755   1.998   1.021  0.1040 -0.3909 -0.0795
 1187PF6-    F214976   4.725   1.985   0.861 -0.0464 -0.1239  0.1006
 1187PF6-    F314977   4.786   2.011   1.180  0.0637 -0.2631 -0.4468
 1187PF6-    F414978   4.596   2.011   1.049 -0.1315  0.3314 -0.2046
 1187PF6-    F514979   4.913   1.980   0.995  1.0083  0.2069  0.2566
 1187PF6-    F614980   4.770   2.160   0.994  0.3599  0.1935  0.1216
 1187PF6-    F714981   4.737   1.837   1.033 -0.0195 -0.6810 -0.1412
 1188PF6-    P114982   4.624   2.745   0.932  0.0747 -0.3063  0.2629
 1188PF6-    F214983   4.539   2.657   0.835  0.6032  0.0573  0.2578
 1188PF6-    F314984   4.707   2.837   1.036 -0.3008  0.2592  0.3429
 1188PF6-    F414985   4.600   2.649   1.055  0.2056  0.0407  0.2277
 1188PF6-    F514986   4.656   2.852   0.810 -0.0928 -0.3916 -0.2285
 1188PF6-    F614987   4.489   2.825   0.967 -0.2504  0.1620 -0.2517
 1188PF6-    F714988   4.754   2.654   0.891  0.0520 -0.2519 -0.3699
 1189PF6-    P114989   3.480   4.323   4.131  0.1380  0.2245  0.0607
 1189PF6-    F214990   3.409   4.229   4.244 -0.0199 -0.0060  0.0123
 1189PF6-    F314991   3.554   4.411   4.021  0.5864 -0.2618  0.2420
 1189PF6-    F414992   3.460   4.454   4.217  0.4211 -0.2944 -0.2061
 1189PF6-    F514993   3.500   4.190   4.042 -0.0421 -0.1089  0.2223
 1189PF6-    F614994   3.347   4.345   4.050  0.0594 -0.1120  0.1165
 1189PF6-    F714995   3.621   4.299   4.197  0.6572 -0.0439 -0.3041
 1190PF6-    P114996   3.300   4.116   4.664  0.1067 -0.5102  0.0226
 1190PF6-    F214997   3.188   4.033   4.600  0.0861 -0.3938  0.2085
 1190PF6-    F314998   3.421   4.199   4.729 -0.1420  0.0274 -0.0527
 1190PF6-    F414999   3.411   4.015   4.597  0.1103  0.4846  0.0423
 1190PF6-    F515000   3.191   4.219   4.724 -0.1614  0.0657 -0.3337
 1190PF6-    F615001   3.293   4.021   4.795  0.2598 -0.1055  0.1349
 1190PF6-    F715002   3.315   4.208   4.533 -0.2177  0.1419 -0.7572
 1191PF6-    P115003   0.451   5.223   5.266  0.0616  0.1158  0.2540
 1191PF6-    F215004   0.471   5.113   5.377  0.4830 -0.1176 -0.0369
 1191PF6-    F315005   0.433   5.333   5.148  0.2891 -0.1582  0.5048
 1191PF6-    F415006   0.294   5.198   5.267 -0.6429  0.3063  0.1251
 1191PF6-    F515007   0.610   5.252   5.267  0.2550 -0.2444 -0.2334
 1191PF6-    F615008   0.468   5.109   5.149 -0.1869 -0.4965 -0.1413
 1191PF6-    F715009   0.428   5.340   5.377 -0.2244 -0.0931  0.1893
 1192PF6-    P115010   4.426   3.711   1.491 -0.0564 -0.0137 -0.2054
 1192PF6-    F215011   4.452   3.640   1.353 -0.0147  0.6327 -0.5118
 1192PF6-    F315012   4.410   3.778   1.635 -0.7233 -0.1320  0.5870
 1192PF6-    F415013   4.448   3.573   1.562  0.0730 -0.1954  0.2688
 1192PF6-    F515014   4.404   3.851   1.418  0.4039  0.0381 -0.4494
 1192PF6-    F615015   4.271   3.676   1.483 -0.5497  0.1552  0.4485
 1192PF6-    F715016   4.583   3.734   1.503 -0.1389  0.6251 -0.8820
 1193PF6-    P115017   3.081   0.703   4.517 -0.0399 -0.3364  0.2531
 1193PF6-    F215018   3.036   0.833   4.429  0.6352  0.1866  0.1261
 1193PF6-    F315019   3.134   0.581   4.601  0.3139 -0.1945  0.3330
 1193PF6-    F415020   2.936   0.703   4.585  0.4268 -0.4350  0.6405
 1193PF6-    F515021   3.230   0.710   4.448 -0.3662  0.3760 -0.1329
 1193PF6-    F615022   3.139   0.809   4.629  0.2192  0.4349  0.6241
 1193PF6-    F715023   3.027   0.607   4.402 -0.0981  0.1155 -0.6922
 1194PF6-    P115024   3.914   3.037   2.569 -0.2418  0.5911 -0.2967
 1194PF6-    F215025   3.933   2.925   2.448 -0.1520  0.1422 -0.1621
 1194PF6-    F315026   3.894   3.132   2.694 -0.2057 -0.1455  0.1295
 1194PF6-    F415027   4.031   3.130   2.509 -0.1402 -0.1093  0.4733
 1194PF6-    F515028   3.794   2.943   2.624  0.1680  0.3623  0.4042
 1194PF6-    F615029   4.022   2.954   2.656  0.2963 -0.4606  0.0743
 1194PF6-    F715030   3.803   3.115   2.482 -0.0310 -0.2152  0.0189
 1195PF6-    P115031   4.642   5.170   0.859 -0.2192  0.2881 -0.5309
 1195PF6-    F215032   4.792   5.125   0.900  0.1205 -0.2480  0.2644
 1195PF6-    F315033   4.491   5.208   0.822 -0.1100  0.1918  0.0557
 1195PF6-    F415034   4.695   5.254   0.736  0.1824  0.2660 -0.1436
 1195PF6-    F515035   4.591   5.089   0.987  0.3724  0.2995  0.5606
 1195PF6-    F615036   4.654   5.305   0.947 -0.0845 -0.5454 -0.0792
 1195PF6-    F715037   4.635   5.047   0.764 -0.3703  0.1593  0.1602
 1196PF6-    P115038   2.677   0.588   1.117 -0.6337  0.3435 -0.2111
 1196PF6-    F215039   2.719   0.604   0.964  0.5191 -0.2468  0.1799
 1196PF6-    F315040   2.629   0.581   1.269 -0.0957 -0.6384  0.2033
 1196PF6-    F415041   2.782   0.707   1.157 -0.0620  0.6454  0.4202
 1196PF6-    F515042   2.575   0.471   1.083 -0.1848  0.0498  0.0594
 1196PF6-    F615043   2.791   0.478   1.150  0.0235  0.0972 -0.0243
 1196PF6-    F715044   2.564   0.702   1.103  0.1857 -0.3054 -0.3896
 1197PF6-    P115045   5.414   1.856   1.932  0.3311  0.0603 -0.4096
 1197PF6-    F215046   5.555   1.890   1.871  0.0203  0.1977  0.4247
 1197PF6-    F315047   5.274   1.817   1.998  0.4174 -0.4699 -0.1242
 1197PF6-    F415048   5.345   1.891   1.795 -0.4709 -0.3418 -0.3792
 1197PF6-    F515049   5.485   1.823   2.068 -0.5060 -0.7121 -0.1867
 1197PF6-    F615050   5.398   2.015   1.979 -0.1190 -0.4110  0.3236
 1197PF6-    F715051   5.432   1.705   1.885 -0.2160  0.2013  0.0725
 1198PF6-    P115052   2.734   3.618   3.908  0.2260 -0.2778 -0.0051
 1198PF6-    F215053   2.629   3.541   4.003  0.0202 -0.0995 -0.2207
 1198PF6-    F315054   2.835   3.698   3.821 -0.8565  0.0426  0.2444
 1198PF6-    F415055   2.789   3.480   3.858 -0.4637 -0.4466  0.0050
 1198PF6-    F515056   2.682   3.760   3.957  0.0148  0.1475  0.5504
 1198PF6-    F615057   2.838   3.610   4.029 -0.0479 -0.4359 -0.0433
 1198PF6-    F715058   2.624   3.616   3.792 -0.2853  0.3839  0.2995
 1199PF6-    P115059   5.309   1.328   3.999 -0.1899 -0.4493  0.3532
 1199PF6-    F215060   5.285   1.177   3.960 -0.0510 -0.1213  0.1557
 1199PF6-    F315061   5.338   1.483   4.033  0.0247 -0.5945  0.3268
 1199PF6-    F415062   5.456   1.288   4.027 -0.5029  0.1449  0.3599
 1199PF6-    F515063   5.159   1.360   3.959  0.1489 -0.3048  0.1839
 1199PF6-    F615064   5.272   1.297   4.146  0.0305  0.1478  0.6595
 1199PF6-    F715065   5.346   1.350   3.845  0.5209 -0.4230 -0.6984
 1200PF6-    P115066   4.506   0.494   0.078 -0.0920  0.6520  0.1141
 1200PF6-    F215067   4.566   0.463   0.230  0.1816 -0.6653  0.2203
 1200PF6-    F315068   4.449   0.528  -0.073 -0.2110 -0.4741  0.3835
 1200PF6-    F415069   4.584   0.369   0.017  0.4244  0.4719  0.4378
 1200PF6-    F515070   4.430   0.630   0.136 -0.8917 -0.2217  0.5044
 1200PF6-    F615071   4.636   0.584   0.043 -0.1974  0.0221 -0.8265
 1200PF6-    F715072   4.371   0.408   0.111 -0.1781  0.1265 -0.0937
 1201PF6-    P115073   0.445   0.670   3.076  0.3393 -0.3230  0.1896
 1201PF6-    F215074   0.553   0.793   3.071  0.1282  0.6084  0.6512
 1201PF6-    F315075   0.342   0.543   3.084 -0.1115  0.3066 -0.2057
 1201PF6-    F415076   0.502   0.631   3.224  0.0445  0.5544  0.0041
 1201PF6-    F515077   0.389   0.709   2.932 -0.0339 -0.2999  0.0230
 1201PF6-    F615078   0.550   0.576   2.998  0.2199 -0.2445 -0.2559
 1201PF6-    F715079   0.336   0.771   3.143  0.0560  0.3001 -0.1830
 1202PF6-    P115080   4.045   0.961   4.688 -0.2949  0.1821 -0.4326
 1202PF6-    F215081   4.199   0.918   4.728  0.3853  0.2185  0.1111
 1202PF6-    F315082   3.889   1.003   4.654  0.3149  0.1103 -0.0891
 1202PF6-    F415083   4.033   1.048   4.815 -0.4281 -0.2812 -0.6132
 1202PF6-    F515084   4.052   0.862   4.561 -0.5818 -0.0023 -0.1698
 1202PF6-    F615085   3.984   0.838   4.774  0.4361 -0.0444 -0.0469
 1202PF6-    F715086   4.112   1.083   4.609  0.4906  0.4626 -0.3066
 1203PF6-    P115087   3.298   1.748   4.264  0.5131  0.0224  0.2084
 1203PF6-    F215088   3.271   1.718   4.421 -0.2324 -0.0950 -0.5186
 1203PF6-    F315089   3.322   1.785   4.111 -0.5019 -0.1199  0.1447
 1203PF6-    F415090   3.170   1.847   4.260 -0.1646  0.2288 -0.6268
 1203PF6-    F515091   3.425   1.653   4.263  0.5225  0.1330  0.2651
 1203PF6-    F615092   3.202   1.628   4.234  0.5325 -0.4901  0.2220
 1203PF6-    F715093   3.394   1.872   4.293 -0.2068  0.5886  0.1567
 1204PF6-    P115094   4.909   2.119   4.341  0.0712 -0.0926 -0.3202
 1204PF6-    F215095   4.866   2.149   4.491 -0.3601  0.0554 -0.4811
 1204PF6-    F315096   4.959   2.090   4.195  0.3451 -0.0683  0.5427
 1204PF6-    F415097   4.971   1.978   4.383 -0.3290 -0.2726  0.1983
 1204PF6-    F515098   4.858   2.263   4.303  0.0553  0.0919 -0.0251
 1204PF6-    F615099   5.057   2.180   4.377 -0.3182 -0.4633 -0.6342
 1204PF6-    F715100   4.765   2.049   4.310  0.5124 -0.0638  0.3820
 1205PF6-    P115101   2.494   0.943   3.237  0.1432 -0.5538  0.1425
 1205PF6-    F215102   2.576   0.846   3.141  0.2108  0.0964  0.1888
 1205PF6-    F315103   2.409   1.047   3.330 -0.1381 -0.1544  0.2011
 1205PF6-    F415104   2.539   0.859   3.366 -0.1856 -0.3883 -0.1363
 1205PF6-    F515105   2.452   1.023   3.110  0.2262 -1.0983 -0.0494
 1205PF6-    F615106   2.359   0.851   3.222  0.0941 -0.0237 -0.0371
 1205PF6-    F715107   2.619   1.039   3.251  0.1013 -0.8461 -0.1350
 1206PF6-    P115108   0.934   4.556   3.308  0.5168 -0.0504 -0.1714
 1206PF6-    F215109   0.954   4.505   3.162 -0.2498  0.1502  0.3754
 1206PF6-    F315110   0.915   4.604   3.458  0.0667  0.0896 -0.0196
 1206PF6-    F415111   1.031   4.682   3.282 -0.1872 -0.1941 -0.1572
 1206PF6-    F515112   0.839   4.424   3.334  0.0612 -0.0874 -0.1372
 1206PF6-    F615113   1.066   4.475   3.354  0.1003  0.3318  0.0084
 1206PF6-    F715114   0.810   4.644   3.254  0.3135  0.0381 -0.3679
 1207PF6-    P115115   0.516   3.880   4.520 -0.3869  0.4907 -0.1336
 1207PF6-    F215116   0.653   3.853   4.432  0.1946 -0.0284 -0.3802
 1207PF6-    F315117   0.377   3.904   4.604 -0.2973  0.4931  0.7422
 1207PF6-    F415118   0.477   3.720   4.507 -0.3082  0.5901 -0.0245
 1207PF6-    F515119   0.565   4.035   4.543 -0.0739  0.1589 -0.0616
 1207PF6-    F615120   0.443   3.918   4.386  0.5509 -0.1992 -0.0813
 1207PF6-    F715121   0.588   3.846   4.659 -0.3673  0.1635  0.1945
 1208PF6-    P115122   3.456   1.866   3.283 -0.3308  0.0534  0.0522
 1208PF6-    F215123   3.588   1.960   3.288  0.0437  0.2695 -0.1924
 1208PF6-    F315124   3.325   1.776   3.274 -0.5728  0.8136 -0.0511
 1208PF6-    F415125   3.366   1.990   3.312  0.2360 -0.2856  0.5393
 1208PF6-    F515126   3.554   1.742   3.254 -0.2600 -0.1343  0.3083
 1208PF6-    F615127   3.466   1.833   3.435 -0.0032 -0.2113 -0.0900
 1208PF6-    F715128   3.442   1.897   3.127 -0.2069  0.4636 -0.8454
 1209PF6-    P115129   3.036   0.227   3.614  0.2511  0.0576 -0.5059
 1209PF6-    F215130   3.081   0.076   3.638  0.0754 -0.3667 -0.4531
 1209PF6-    F315131   2.981   0.377   3.600 -0.6544 -0.3490 -0.2532
 1209PF6-    F415132   2.900   0.186   3.681  0.1219 -0.1629  0.3104
 1209PF6-    F515133   3.172   0.261   3.544  0.3824  0.2993 -0.1995
 1209PF6-    F615134   2.975   0.188   3.467 -0.5281 -0.5219  0.6354
 1209PF6-    F715135   3.097   0.266   3.757 -0.0720 -0.0735  0.6747
 1210PF6-    P115136   4.686   4.610   1.808 -0.4925  0.3138  0.4198
 1210PF6-    F215137   4.788   4.732   1.811 -0.8324  0.0506 -0.3020
 1210PF6-    F315138   4.590   4.482   1.802 -0.4699  0.4766  0.0319
 1210PF6-    F415139   4.650   4.642   1.654 -0.1391 -0.4002 -0.1950
 1210PF6-    F515140   4.721   4.581   1.962 -0.0657 -0.1897 -0.0922
 1210PF6-    F615141   4.567   4.701   1.853  0.2899 -0.0512  0.2056
 1210PF6-    F715142   4.812   4.521   1.762  0.3330 -0.2128  0.2823
 1211PF6-    P115143   3.337   2.364   2.819 -0.1835 -0.4976 -0.0911
 1211PF6-    F215144   3.234   2.477   2.758  0.2585  0.6683 -0.8369
 1211PF6-    F315145   3.437   2.260   2.889 -0.5684 -0.5115  0.4016
 1211PF6-    F415146   3.219   2.309   2.909  0.0465 -0.3559 -0.2254
 1211PF6-    F515147   3.459   2.427   2.729  0.0093  0.5451 -0.0222
 1211PF6-    F615148   3.363   2.464   2.936  0.2413 -0.2888  0.6222
 1211PF6-    F715149   3.302   2.261   2.702 -0.2675 -0.4198  0.0221
 1212PF6-    P115150   3.143   5.349   0.377 -0.4187 -0.0490  0.1577
 1212PF6-    F215151   3.130   5.249   0.508 -0.1132  0.0262  0.1327
 1212PF6-    F315152   3.155   5.435   0.240  0.3459 -0.3891 -0.7210
 1212PF6-    F415153   3.053   5.252   0.294 -0.1701 -0.3375 -0.0035
 1212PF6-    F515154   3.245   5.439   0.460  0.4892  0.4904  0.5829
 1212PF6-    F615155   3.278   5.262   0.324  0.0880 -0.4085  0.0256
 1212PF6-    F715156   3.013   5.429   0.422  0.0008  0.0495 -0.3601
 1213Na+     N115157   2.983   5.328   3.499 -0.0562  0.0299  0.1760
 1214Na+     N115158   3.786   2.433   1.691  0.1751  0.1988 -0.2333
 1215Na+     N115159   3.037   0.599   1.188 -0.2994 -0.2213  0.0193
 1216Na+     N115160   1.455   2.282   1.704  0.0347 -0.0962  0.0256
 1217Na+     N115161   2.834   2.309   0.032 -0.0411 -0.0406 -0.5173
 1218Na+     N115162   3.383   0.202   3.434  0.4994 -0.7253  0.0615
 1219Na+     N115163   5.333   1.523   1.987 -0.2458  0.2501 -0.3424
 1220Na+     N115164   4.574   3.681   1.797  0.4488  0.2178 -0.6194
 1221Na+     N115165   0.939   3.351   4.153 -0.2027 -0.1768 -0.2130
 1222Na+     N115166   0.231   4.041   4.749  0.0761 -0.1035  0.0091
 1223Na+     N115167   4.380   1.162   4.625 -0.0458  0.2718  0.1687
 1224Na+     N115168   4.859   4.254   5.366  0.0569  0.0355 -0.0590
 1225Na+     N115169   1.547   3.388   3.826 -0.2075  0.1533 -0.1059
 1226Na+     N115170   5.340   2.994   3.823  0.3614 -0.2445 -0.2745
 1227Na+     N115171   0.220   5.468   0.445  0.1840  0.3661  0.4533
 1228Na+     N115172   2.535   0.494   5.187 -0.4000  0.0093 -0.1215
 1229Na+     N115173   0.262   2.206   0.397 -0.3838 -0.0457 -0.3720
 1230Na+     N115174   2.821   2.774   3.459 -0.1494  0.0105  0.0480
 1231Na+     N115175   2.800   3.533   2.442 -0.2739  0.4275  0.3399
 1232Na+     N115176   4.678   3.057   5.155 -0.1666  0.3196  0.3815
 1233Na+     N115177   5.039   3.756   2.536 -0.0552  0.0829  0.1312
 1234Na+     N115178   3.299   2.542   1.046 -0.1829  0.0663  0.2440
 1235Na+     N115179   2.742   0.260   3.860  0.0081 -0.0739  0.2360
 1236Na+     N115180   2.093   2.746   0.578  0.7456 -0.0322  0.0858
 1237Na+     N115181   1.728   2.438   1.043 -0.0502 -0.2737  0.2348
 1238Na+     N115182   5.120   1.104   3.815  0.3607  0.0931  0.4013
 1239Na+     N115183   3.293   5.369   0.035  0.2974 -0.1619 -0.2008
 1240Na+     N115184   0.350   0.996   4.799 -0.0869 -0.0495  0.4078
 1241Na+     N115185   2.809   2.259   4.001 -0.4566 -0.3528  0.0596
 1242Na+     N115186   4.497   5.233   3.315  0.0791 -0.1713 -0.0549
 1243Na+     N115187   3.459   5.415   0.557  0.0568 -0.1388 -0.3764
 1244Na+     N115188   4.598   4.572   1.380 -0.2886 -0.1399  0.1463
 1245Na+     N115189   2.961   1.454   4.759 -0.1329 -0.3693 -0.2677
 1246Na+     N115190   0.016   2.402   3.814  0.7899  0.6567  0.6052
 1247Na+     N115191   1.055   4.288   3.099 -0.2936  0.0644 -0.4805
 1248Na+     N115192   2.872   4.004   2.661  0.9891  0.0233 -0.1317
 1249Na+     N115193   3.868   4.606   0.211  0.1712  0.3296 -0.1902
 1250Na+     N115194   3.575   1.668   4.042  0.1996 -0.2382  0.0967
 1251Na+     N115195   1.200   4.209   4.680  0.0921 -0.2386  0.4317
 1252Na+     N115196   0.161   0.859   3.262  0.5377 -0.0442  0.3032
 1253Na+     N115197   2.727   1.389   0.117  0.1103 -0.3884  0.2698
 1254Na+     N115198   0.625   4.122   1.769 -0.0912 -0.0133 -0.7207
 1255Na+     N115199   2.787   1.235   3.239 -0.1737 -0.4766 -0.0865
 1256Na+     N115200   4.713   1.573   1.080 -0.0235  0.5494 -0.2480
 1257Na+     N115201   0.750   0.520   1.914 -0.3286  0.3739  0.5462
 1258Na+     N115202   3.962   3.522   4.257  0.3916 -0.3131  0.1919
 1259Na+     N115203   0.525   0.092   5.356  0.6936 -0.7434 -0.4192
 1260Na+     N115204   0.566   5.310   1.722 -0.1886  0.6689 -0.0847
 1261Na+     N115205   3.928   1.324   0.656 -0.2874  0.2438 -0.0068
 1262Na+     N115206   5.053   1.106   3.231  0.4540 -0.1564 -0.5150
 1263Na+     N115207   2.021   5.116   3.544 -0.0562  0.2498 -0.0593
 1264Na+     N115208   2.422   0.417   1.414  0.1290 -0.6990  0.1098
 1265Na+     N115209   4.615   4.062   2.934 -0.4023  0.3134 -0.3410
 1266Na+     N115210   0.904   1.589   3.492 -0.1299  0.0290  0.4977
 1267Na+     N115211   0.451   2.376   2.260 -0.0330  0.0410  0.1662
 1268Na+     N115212   3.400   3.872   4.976 -0.2267 -0.2457 -0.3646
 1269Na+     N115213   0.998   3.778   0.161 -0.2903  0.6310 -0.3401
 1270Na+     N115214   4.711   1.956   0.606  0.7801 -0.1970 -0.0179
 1271Na+     N115215   4.715   2.429   1.067 -0.3018  0.2242  0.1470
 1272Na+     N115216   3.767   4.415   3.742 -0.1640  0.2032 -0.3636
 1273Na+     N115217   0.675   4.629   4.236 -0.0601 -0.0300  0.4752
 1274Na+     N115218   4.195   0.574   0.146 -0.2931 -0.4122  0.0706
 1275Na+     N115219   4.356   1.965   1.149 -0.7481  0.3971  0.2218
 1276Na+     N115220   4.265   0.794   3.171 -0.0570  0.3747 -0.1350
 1277Na+     N115221   4.737   1.827   4.407  0.0547 -0.0725  0.1215
 1278Na+     N115222   3.439   3.053   5.000 -0.4372 -0.2980 -0.1596
 1279Na+     N115223   2.506   3.681   3.571  0.3736  0.1764 -0.0289
 1280Na+     N115224   3.566   4.143   4.438  0.2568 -0.2482 -0.1157
 1281Na+     N115225   2.937   3.838   4.141  0.3523 -0.1802  0.5873
 1282Na+     N115226   1.648   4.753   3.158 -0.4165  0.0500 -0.3108
 1283Na+     N115227   5.430   1.399   3.610 -0.3861 -0.1440 -0.0346
 1284Na+     N115228   4.262   2.640   0.980 -0.0781  0.1005  0.7908
 1285Na+     N115229   3.777   2.759   2.346 -0.5708  0.3790  0.1471
 1286Na+     N115230   1.230   5.121   4.319 -0.1759  0.2911 -0.3849
 1287Na+     N115231   3.699   2.973   1.759  0.4877 -0.4713 -0.4671
 1288Na+     N115232   4.660   0.833   0.151  0.0721 -0.5471 -0.1661
 1289Na+     N115233   4.747   5.479   0.784  0.5736 -0.1067 -0.4835
 1290Na+     N115234   0.414   1.165   0.920  0.2784 -0.0630  0.2197
 1291Na+     N115235   1.929   3.030   3.330 -0.3531 -0.1429 -0.0645
 1292Na+     N115236   0.806   0.792   3.036  0.3388  0.0853  0.5363
 1293Na+     N115237   1.488   0.719   3.570  0.2258  0.2355 -0.1411
 1294Na+     N115238   3.454   2.165   3.101 -0.2156 -0.2036  0.0716
 1295Na+     N115239   3.353   3.693   2.512 -0.4048  0.2759  0.0939
 1296Na+     N115240   0.487   5.026   4.916 -0.2510 -0.2810  0.0734
 1297Na+     N115241   2.286   0.966   2.919  0.3695  0.3900  0.1322
 1298Na+     N115242   2.646   3.850   1.375  0.1383 -0.2613 -0.0894
 1299Na+     N115243   2.499   5.445   0.084 -0.5818 -0.1598 -0.4510
 1300Na+     N115244   4.704   2.442   4.481  0.1825  0.4407 -0.2778
 1301Na+     N115245   1.713   2.995   4.050  0.6935  0.6414  0.5861
 1302Na+     N115246   0.741   2.527   5.485 -0.3152 -0.1721  0.1487
 1303Na+     N115247   3.999   4.130   1.042  0.2322 -0.2620 -0.2346
 1304Na+     N115248   1.412   2.410   4.806  0.1607 -0.0078  0.2528
 1305Na+     N115249   0.799   1.253   1.474  0.0840  0.2015 -0.1243
 1306Na+     N115250   0.062   1.327   0.307 -0.2340 -0.4342 -0.0660
 1307Na+     N115251   1.967   5.320   1.858  0.1094  0.0384  0.0073
 1308Na+     N115252   2.323   2.786   4.714  0.3359 -0.0367  0.0103
 1309Na+     N115253   3.420   0.860   4.597 -0.2123 -0.0323 -0.2916
 1310Na+     N115254   2.002   4.080   3.124 -0.5506 -0.1817  0.5028
 1311Na+     N115255   2.723   4.173   1.849  0.6613  0.0538 -0.2196
 1312Na+     N115256   5.384   3.094   1.932  0.1938  0.0557  0.2644
   5.50057   5.50057   5.50057
