THF-PF6-Na          Amber RESP
15256
    1THF     O1    1   1.393   0.530   1.411 -0.1651  0.1721  0.1631
    1THF     C2    2   1.277   0.446   1.387  0.9121 -0.2250  0.2718
    1THF     C3    3   1.397   0.639   1.313 -0.0752 -0.1109  0.9287
    1THF     H4    4   1.262   0.381   1.472  0.8778 -0.7124  0.6010
    1THF     H5    5   1.292   0.391   1.293  0.8386 -0.6445 -0.8665
    1THF     H6    6   1.474   0.708   1.338  1.0644  1.1727 -2.5074
    1THF     H7    7   1.423   0.585   1.217  0.7434 -0.5709 -0.9155
    1THF     C8    8   1.255   0.691   1.344 -0.0444 -0.2884  0.2366
    1THF     C9    9   1.175   0.560   1.377  0.0118  0.5592 -0.3200
    1THF    H10   10   1.207   0.748   1.272  1.2891 -1.3541  3.1735
    1THF    H11   11   1.248   0.752   1.431 -0.4023 -0.1751 -1.4804
    1THF    H12   12   1.126   0.561   1.478 -0.8813 -0.6603 -0.0152
    1THF    H13   13   1.100   0.535   1.302 -0.7437  0.5243 -0.5044
    2THF     O1   14   1.411   3.131   3.757 -0.1071  0.2281 -0.1458
    2THF     C2   15   1.453   3.203   3.871  0.3341 -0.0316 -0.6000
    2THF     C3   16   1.452   3.206   3.642  0.3327 -0.0394 -0.0048
    2THF     H4   17   1.556   3.169   3.896  2.3849  2.7866 -3.9496
    2THF     H5   18   1.390   3.183   3.958 -0.1120 -2.6118 -0.6444
    2THF     H6   19   1.547   3.168   3.604 -2.2186  3.8932 -1.1514
    2THF     H7   20   1.371   3.190   3.574 -0.8691 -0.9029  1.5661
    2THF     C8   21   1.466   3.351   3.681 -0.3210  0.1573  0.5549
    2THF     C9   22   1.431   3.349   3.833  0.1965 -0.7264  0.2782
    2THF    H10   23   1.395   3.400   3.620  1.5670 -1.1777 -1.9410
    2THF    H11   24   1.572   3.382   3.677  0.3163  4.3734  2.5905
    2THF    H12   25   1.491   3.429   3.890  3.1782  0.6916  1.0420
    2THF    H13   26   1.324   3.364   3.858 -0.4341  0.4843 -3.8763
    3THF     O1   27   1.099   3.934   3.646  0.3163 -0.1235  0.1326
    3THF     C2   28   1.083   4.037   3.740 -0.6830 -0.0557 -0.6499
    3THF     C3   29   1.184   3.985   3.544 -0.5394 -0.5734  0.1257
    3THF     H4   30   1.045   4.001   3.835  1.4535 -1.6901  0.9881
    3THF     H5   31   1.011   4.115   3.710 -1.8073 -0.0486  2.1383
    3THF     H6   32   1.210   3.911   3.469  1.3182  2.2519  1.1345
    3THF     H7   33   1.135   4.065   3.490  0.4334 -2.0527  2.0254
    3THF     C8   34   1.293   4.044   3.629  0.1386 -0.0017 -0.1097
    3THF     C9   35   1.227   4.078   3.758 -0.3415 -1.1072 -0.0201
    3THF    H10   36   1.345   4.119   3.572 -0.0557 -2.2004 -0.6605
    3THF    H11   37   1.365   3.963   3.656  1.9254 -0.8674  1.1019
    3THF    H12   38   1.270   4.037   3.850 -0.5332  0.5888  2.1367
    3THF    H13   39   1.220   4.189   3.766  0.5149 -0.8141 -1.7753
    4THF     O1   40   1.123   5.337   3.164  0.3191  0.2902  0.0302
    4THF     C2   41   1.014   5.268   3.228 -0.5297 -0.1272  0.3205
    4THF     C3   42   1.087   5.466   3.107 -0.0083 -0.2010 -0.2887
    4THF     H4   43   1.004   5.310   3.327 -1.7716  0.4982  0.4999
    4THF     H5   44   1.019   5.159   3.215  1.1461  1.6482 -2.3170
    4THF     H6   45   1.162   5.538   3.139  0.1300  1.0971 -0.1295
    4THF     H7   46   1.101   5.467   2.997 -1.8949  0.5194 -0.9279
    4THF     C8   47   0.943   5.480   3.154 -0.0254  0.2359 -0.0242
    4THF     C9   48   0.893   5.334   3.160  1.1747 -0.3921  0.1011
    4THF    H10   49   0.889   5.553   3.093 -0.0199  3.3064 -2.5766
    4THF    H11   50   0.953   5.514   3.257  1.5227  1.4047  1.4728
    4THF    H12   51   0.800   5.337   3.214  3.4495 -0.9411  1.8414
    4THF    H13   52   0.877   5.295   3.060 -1.0466 -3.9862  1.3938
    5THF     O1   53   4.646   0.694   2.267  0.1477  0.1342 -0.1762
    5THF     C2   54   4.659   0.554   2.304  0.4085 -1.1946  0.3045
    5THF     C3   55   4.574   0.764   2.376 -0.1818  0.3706  1.0495
    5THF     H4   56   4.735   0.543   2.378 -0.7132  0.8795  1.7145
    5THF     H5   57   4.671   0.485   2.222 -0.9080  0.4785 -1.3440
    5THF     H6   58   4.656   0.792   2.448  0.4458  0.0870  0.9045
    5THF     H7   59   4.535   0.844   2.320  1.0994 -0.8769  1.8848
    5THF     C8   60   4.463   0.665   2.405 -0.1067  0.2742  0.2864
    5THF     C9   61   4.531   0.528   2.384  0.1702  0.2533  0.4512
    5THF    H10   62   4.381   0.662   2.328 -0.8989  0.2211 -1.4597
    5THF    H11   63   4.415   0.680   2.501  1.0289  0.7861 -0.6795
    5THF    H12   64   4.550   0.485   2.487  1.7079 -1.2708  0.7077
    5THF    H13   65   4.463   0.468   2.328 -0.3438 -3.1221 -1.4513
    6THF     O1   66   5.209   5.126   0.566  0.0661  0.1765  0.0938
    6THF     C2   67   5.080   5.076   0.526 -0.4547 -0.1680 -0.7770
    6THF     C3   68   5.214   5.268   0.557 -0.6781 -0.6312 -0.1651
    6THF     H4   69   5.032   5.018   0.605 -1.0468  1.3941 -1.4192
    6THF     H5   70   5.097   5.020   0.430  2.7604  0.1876  1.8803
    6THF     H6   71   5.194   5.310   0.654 -2.3001 -0.9912 -1.3613
    6THF     H7   72   5.304   5.306   0.516 -1.3521  2.0818 -0.8838
    6THF     C8   73   5.106   5.300   0.458 -0.2587 -0.4714 -0.0279
    6THF     C9   74   5.004   5.201   0.494 -0.1983 -0.1988 -0.8875
    6THF    H10   75   5.141   5.286   0.357  0.5096 -0.2472 -0.8605
    6THF    H11   76   5.074   5.400   0.468  0.1551 -0.6052  0.6073
    6THF    H12   77   4.948   5.243   0.581 -2.1621  2.0745  0.6043
    6THF    H13   78   4.926   5.192   0.424  0.3763 -3.3773  2.1830
    7THF     O1   79   5.387   2.192   1.445  0.5230  0.1187  0.5499
    7THF     C2   80   5.484   2.109   1.506 -0.5397  0.4873  0.1967
    7THF     C3   81   5.437   2.229   1.314 -0.4365  0.3464  0.2035
    7THF     H4   82   5.478   2.005   1.466 -1.3439 -0.5139  1.3179
    7THF     H5   83   5.478   2.099   1.619 -1.1640 -1.9930  1.0136
    7THF     H6   84   5.388   2.168   1.244  0.0187  0.5075 -1.8460
    7THF     H7   85   5.411   2.329   1.291 -3.0787 -0.9683  0.1085
    7THF     C8   86   5.589   2.211   1.316 -0.0884  0.3083 -0.0159
    7THF     C9   87   5.619   2.171   1.461 -0.0611  0.6632  0.4813
    7THF    H10   88   5.632   2.306   1.281 -0.6367 -0.4829  0.1624
    7THF    H11   89   5.630   2.147   1.238 -1.4373  1.0042 -1.4935
    7THF    H12   90   5.705   2.102   1.466  2.5794 -1.1587  0.4924
    7THF    H13   91   5.638   2.267   1.512  0.7082  0.9264  0.3336
    8THF     O1   92   2.185   3.590   2.097 -0.1365  0.2723 -0.4225
    8THF     C2   93   2.274   3.476   2.106  1.0684 -0.3623  0.2487
    8THF     C3   94   2.144   3.609   2.226 -0.0653  0.8423 -0.3042
    8THF     H4   95   2.347   3.485   2.020 -0.6348  0.2578  0.1412
    8THF     H5   96   2.215   3.385   2.103  0.3812  2.9475  1.7438
    8THF     H6   97   2.090   3.700   2.231 -1.0752  0.2805  1.7310
    8THF     H7   98   2.086   3.525   2.267  0.2246 -1.1415 -0.6635
    8THF     C8   99   2.273   3.599   2.308  0.0432 -0.0583  0.4013
    8THF     C9  100   2.355   3.501   2.225 -0.8980  0.6919 -0.6275
    8THF    H10  101   2.261   3.564   2.410  0.3108 -1.2937 -1.8628
    8THF    H11  102   2.328   3.697   2.308  1.7468 -0.0152 -2.9693
    8THF    H12  103   2.453   3.555   2.209  3.5056  1.6207 -0.7044
    8THF    H13  104   2.379   3.411   2.284  0.2048 -0.0207  0.1003
    9THF     O1  105   2.674   4.699   4.082  0.7161  1.2312 -0.3926
    9THF     C2  106   2.608   4.640   4.200  0.1806 -0.2576  0.0498
    9THF     C3  107   2.685   4.835   4.116 -0.4218  0.7730  0.6846
    9THF     H4  108   2.664   4.546   4.230 -1.1045 -1.5361  0.5861
    9THF     H5  109   2.500   4.617   4.175  1.0102  2.6781 -0.2657
    9THF     H6  110   2.749   4.885   4.052 -2.7548 -2.0502 -1.8001
    9THF     H7  111   2.593   4.881   4.090 -1.9714 -1.2545  0.9864
    9THF     C8  112   2.709   4.844   4.259  0.0321  0.1123  0.0808
    9THF     C9  113   2.617   4.742   4.314  0.3660  0.4628  0.2919
    9THF    H10  114   2.691   4.936   4.315 -0.0184 -0.5957  2.1969
    9THF    H11  115   2.815   4.821   4.278 -2.9739  2.4785 -1.5362
    9THF    H12  116   2.653   4.707   4.406 -0.9817 -0.4507 -3.3434
    9THF    H13  117   2.513   4.767   4.324  2.8529  1.5889 -0.0291
   10THF     O1  118   1.002   3.881   0.960 -0.3831 -0.3217 -0.1043
   10THF     C2  119   0.983   3.993   0.878 -0.1089 -0.5587 -0.6945
   10THF     C3  120   1.139   3.843   0.950  0.7378 -0.1345 -0.4502
   10THF     H4  121   1.016   4.079   0.933  0.6899 -1.1845 -1.9820
   10THF     H5  122   0.875   4.003   0.875  0.5078  1.6777 -0.8709
   10THF     H6  123   1.193   3.914   1.016  2.7314  1.3944  1.1218
   10THF     H7  124   1.140   3.741   0.991 -1.5221 -0.6294 -1.6652
   10THF     C8  125   1.163   3.853   0.801 -0.3559 -0.4826  0.2822
   10THF     C9  126   1.062   3.956   0.750 -0.4645 -0.1949 -0.2086
   10THF    H10  127   1.146   3.755   0.761 -0.9097 -0.1461 -1.7819
   10THF    H11  128   1.270   3.885   0.789 -1.0188  2.1633 -1.7084
   10THF    H12  129   1.114   4.041   0.715 -2.3018  2.0939 -4.7564
   10THF    H13  130   1.004   3.916   0.664  0.2643 -0.0149  0.7925
   11THF     O1  131   2.222   1.945   2.104 -0.1076  0.4324  0.1915
   11THF     C2  132   2.350   1.916   2.150 -0.0855  0.6343 -0.0530
   11THF     C3  133   2.136   1.900   2.208 -0.1131 -0.3515  0.5466
   11THF     H4  134   2.423   1.970   2.087 -0.2772 -0.0554  0.7656
   11THF     H5  135   2.363   1.807   2.130  0.5339  1.2788 -1.1596
   11THF     H6  136   2.046   1.952   2.183  1.1889  0.2761  0.1233
   11THF     H7  137   2.122   1.788   2.206 -3.2118 -2.4021  2.0040
   11THF     C8  138   2.201   1.951   2.336  0.0637  0.1088 -0.1859
   11THF     C9  139   2.349   1.938   2.302  0.0074 -0.2208  0.2362
   11THF    H10  140   2.161   1.891   2.418 -0.9450 -1.3074 -1.3712
   11THF    H11  141   2.172   2.058   2.346  1.5576  0.2254  0.7074
   11THF    H12  142   2.381   2.043   2.316 -0.4712  1.2128 -2.1487
   11THF    H13  143   2.404   1.861   2.363  2.9424 -0.4118 -2.1672
   12THF     O1  144   2.768   2.422   1.265  0.1261  0.2625  0.2612
   12THF     C2  145   2.786   2.312   1.346  0.5757  0.0650 -0.0173
   12THF     C3  146   2.631   2.471   1.269  0.0621 -0.0604 -0.3077
   12THF     H4  147   2.804   2.338   1.445  1.3318 -0.2826  1.3776
   12THF     H5  148   2.876   2.253   1.313  2.9342  0.2482  1.8423
   12THF     H6  149   2.614   2.562   1.325 -1.3272  0.0006 -1.1019
   12THF     H7  150   2.595   2.497   1.169  0.3603 -0.9285 -2.7353
   12THF     C8  151   2.555   2.353   1.326  0.1520  0.6359 -0.1076
   12THF     C9  152   2.654   2.238   1.334 -0.4281  0.3194  0.7537
   12THF    H10  153   2.455   2.325   1.284  1.5149 -3.0866 -2.5022
   12THF    H11  154   2.534   2.389   1.430 -2.3794  0.2910  2.5238
   12THF    H12  155   2.634   2.175   1.421  1.0451 -0.4125 -0.4739
   12THF    H13  156   2.664   2.174   1.250  0.1488  2.4541 -0.3776
   13THF     O1  157   0.082   5.031   5.167 -0.2102 -0.4148 -0.2418
   13THF     C2  158   0.058   5.120   5.276 -0.2817  0.0435 -0.1285
   13THF     C3  159   0.202   5.070   5.110 -0.4900  0.7176 -0.5577
   13THF     H4  160  -0.019   5.080   5.331  0.1933  1.5728  0.4707
   13THF     H5  161   0.039   5.227   5.257 -1.1501 -0.7140  0.4176
   13THF     H6  162   0.242   4.986   5.047  1.5266  0.2342 -0.1121
   13THF     H7  163   0.177   5.144   5.036 -0.0321 -0.3001  0.5403
   13THF     C8  164   0.284   5.132   5.221 -0.3928 -0.1764  0.7643
   13THF     C9  165   0.194   5.121   5.341 -0.1025 -0.1998  0.4250
   13THF    H10  166   0.314   5.234   5.196  0.5143  0.3907  2.0186
   13THF    H11  167   0.373   5.074   5.235 -1.8181  1.3043 -1.4701
   13THF    H12  168   0.209   5.020   5.375 -1.6454  2.0595  0.1689
   13THF    H13  169   0.208   5.202   5.419  1.8255  2.5756 -0.1205
   14THF     O1  170   5.325   4.579   0.620  0.1000 -0.3096  0.4230
   14THF     C2  171   5.251   4.696   0.601  0.1076  0.5384 -0.4266
   14THF     C3  172   5.342   4.509   0.495 -0.1152  0.3294  0.1067
   14THF     H4  173   5.266   4.761   0.684  1.1171 -0.8267  0.1754
   14THF     H5  174   5.141   4.690   0.590 -0.5385 -1.5200  1.1858
   14THF     H6  175   5.437   4.453   0.499 -1.7661 -1.3699 -1.4024
   14THF     H7  176   5.249   4.442   0.475 -1.3794  0.7505 -1.0732
   14THF     C8  177   5.343   4.616   0.390  0.2065 -0.7570 -0.4108
   14THF     C9  178   5.315   4.748   0.465  0.1455  1.3033 -0.2378
   14THF    H10  179   5.256   4.602   0.325 -0.7954  1.0579  0.5749
   14THF    H11  180   5.438   4.618   0.335  2.1995  0.1251  2.5289
   14THF    H12  181   5.403   4.805   0.488 -1.2761 -0.5878  0.1947
   14THF    H13  182   5.250   4.818   0.414 -0.6368 -1.9938  0.4224
   15THF     O1  183   4.859   5.478   4.956 -0.1105  0.3025  0.1579
   15THF     C2  184   4.779   5.361   4.974  0.4639  0.6560  0.8348
   15THF     C3  185   4.866   5.550   5.081 -0.3176  0.9636 -0.0597
   15THF     H4  186   4.822   5.286   5.042 -1.5183 -0.5096  0.4767
   15THF     H5  187   4.768   5.308   4.877 -1.7478  0.3653  0.5385
   15THF     H6  188   4.935   5.501   5.138 -0.4275 -0.1894  0.0026
   15THF     H7  189   4.893   5.654   5.070 -0.3026 -0.1469 -0.6205
   15THF     C8  190   4.724   5.536   5.131 -0.2238 -0.3912 -0.0714
   15THF     C9  191   4.660   5.426   5.036  0.1238  0.5587  0.0582
   15THF    H10  192   4.663   5.620   5.121  1.2443  0.9152 -0.9350
   15THF    H11  193   4.720   5.510   5.233  0.1514 -1.1648  1.2017
   15THF    H12  194   4.605   5.352   5.088  2.8147  2.5504 -0.2544
   15THF    H13  195   4.590   5.464   4.957 -1.8110 -0.2168 -0.1878
   16THF     O1  196   5.323   3.791   3.892 -1.0336  0.4452  0.2998
   16THF     C2  197   5.332   3.702   4.005  0.0643 -0.4828  0.0691
   16THF     C3  198   5.353   3.713   3.772 -0.5043 -0.3544 -0.5450
   16THF     H4  199   5.293   3.754   4.093  1.6288 -1.3465  1.1599
   16THF     H5  200   5.435   3.677   4.012  0.3419  2.4792 -0.4212
   16THF     H6  201   5.321   3.757   3.674 -0.5722 -3.2775 -0.7468
   16THF     H7  202   5.467   3.708   3.770 -0.3782  2.5270 -1.0803
   16THF     C8  203   5.295   3.578   3.804 -0.6479  0.2672  0.2236
   16THF     C9  204   5.239   3.599   3.939  0.1142  0.3534 -0.3094
   16THF    H10  205   5.374   3.508   3.811  1.6869 -0.2174  2.0156
   16THF    H11  206   5.221   3.552   3.728 -0.8278  0.4798  0.7658
   16THF    H12  207   5.138   3.641   3.927 -2.1974  1.1248 -0.7356
   16THF    H13  208   5.231   3.512   4.001  1.4099  1.6154 -2.9773
   17THF     O1  209   3.211   4.911   2.312  0.7229  0.4523 -0.5120
   17THF     C2  210   3.275   4.947   2.180  0.8100  0.1127 -0.0328
   17THF     C3  211   3.110   5.009   2.330  0.1312  0.5027 -0.4588
   17THF     H4  212   3.321   4.872   2.114  1.4223 -1.6781  0.6748
   17THF     H5  213   3.344   5.033   2.198  1.0500  2.6661  1.9298
   17THF     H6  214   3.042   4.972   2.407  0.9911  2.6696  1.0728
   17THF     H7  215   3.147   5.111   2.354  0.3031 -0.8580  0.1430
   17THF     C8  216   3.048   5.018   2.193 -0.0883  0.2918  0.3560
   17THF     C9  217   3.156   4.997   2.092 -0.1095 -0.1852 -0.3479
   17THF    H10  218   2.994   5.110   2.168  3.6081  1.3358  0.2321
   17THF    H11  219   2.979   4.942   2.176 -0.2279  0.6422 -0.4905
   17THF    H12  220   3.128   4.914   2.032 -0.5327  1.9083 -0.1931
   17THF    H13  221   3.187   5.086   2.029 -0.7304  2.0260 -1.7101
   18THF     O1  222   1.206   1.055   4.855  0.2216 -0.3909  0.5806
   18THF     C2  223   1.189   1.139   4.744 -0.2992  0.1177 -0.6773
   18THF     C3  224   1.325   1.095   4.924  0.3304  0.4542 -0.7379
   18THF     H4  225   1.086   1.136   4.730  2.3451 -0.6625  0.8884
   18THF     H5  226   1.242   1.103   4.649 -1.4576  0.1225 -4.3965
   18THF     H6  227   1.334   1.042   5.020  1.5510 -0.4038 -0.0508
   18THF     H7  228   1.405   1.060   4.864  0.3424 -0.2036 -1.8603
   18THF     C8  229   1.318   1.240   4.928  0.1400 -0.2887 -0.0074
   18THF     C9  230   1.234   1.267   4.800 -0.2534  0.1154  0.5297
   18THF    H10  231   1.422   1.275   4.928  2.1424  1.9246 -0.5925
   18THF    H11  232   1.257   1.282   5.014 -1.7355 -1.8967 -1.4268
   18THF    H12  233   1.164   1.353   4.815 -0.4062  1.6515  1.2354
   18THF    H13  234   1.300   1.307   4.728  0.5807  1.4600  1.3310
   19THF     O1  235   1.771   5.194   1.282  0.3770  0.1954  0.3519
   19THF     C2  236   1.786   5.241   1.416  0.0348 -0.0338  0.3814
   19THF     C3  237   1.884   5.108   1.259  0.7810 -0.4410 -0.0808
   19THF     H4  238   1.681   5.277   1.444  0.5235  0.3989 -0.2120
   19THF     H5  239   1.861   5.320   1.417 -0.0558 -3.4255  0.1739
   19THF     H6  240   1.844   5.043   1.188  1.9898  0.8774 -0.6597
   19THF     H7  241   1.964   5.174   1.224  0.1037  0.2852  1.1224
   19THF     C8  242   1.903   5.045   1.404 -0.0201  0.2493 -0.2859
   19THF     C9  243   1.817   5.122   1.504 -0.1626  0.5302  0.8148
   19THF    H10  244   2.011   5.042   1.428  1.9600 -3.1496 -0.8398
   19THF    H11  245   1.870   4.942   1.403 -2.1212  1.4972  2.4136
   19THF    H12  246   1.729   5.072   1.534 -0.7134  0.4511 -0.8112
   19THF    H13  247   1.870   5.155   1.595 -0.3793 -0.3757  3.7376
   20THF     O1  248   5.303   3.745   2.069 -0.0859  0.3966 -0.1753
   20THF     C2  249   5.193   3.833   2.051 -1.2821  0.4739  0.7455
   20THF     C3  250   5.378   3.743   1.948 -0.1749  0.0081 -0.5202
   20THF     H4  251   5.223   3.931   2.092 -1.1743  0.2272  0.1354
   20THF     H5  252   5.119   3.802   2.122 -0.3765 -1.9395  1.3700
   20THF     H6  253   5.449   3.825   1.952  0.7091 -2.5869 -1.0429
   20THF     H7  254   5.440   3.665   1.925  1.5171 -0.8752 -0.7578
   20THF     C8  255   5.277   3.761   1.836 -0.0536 -0.1566  0.2922
   20THF     C9  256   5.159   3.830   1.906  0.4279 -0.1467  0.0807
   20THF    H10  257   5.241   3.668   1.810  2.5987  1.7819  0.0846
   20THF    H11  258   5.319   3.806   1.744  0.8332 -0.0803 -1.2536
   20THF    H12  259   5.139   3.933   1.876  1.5956  0.4160 -0.0538
   20THF    H13  260   5.067   3.779   1.897 -0.9183  2.0195  0.8557
   21THF     O1  261   0.611   4.765   3.237 -0.2298  0.2905  0.5443
   21THF     C2  262   0.613   4.853   3.346  0.4852  0.8563  0.0232
   21THF     C3  263   0.686   4.821   3.135 -0.2673  0.2135 -0.1092
   21THF     H4  264   0.642   4.786   3.426  0.5680  0.1025  0.3864
   21THF     H5  265   0.517   4.899   3.354  1.4780  0.4391 -2.7910
   21THF     H6  266   0.740   4.757   3.071  1.6047  1.1768  0.5170
   21THF     H7  267   0.616   4.889   3.082  1.8981 -1.5552 -0.1173
   21THF     C8  268   0.797   4.897   3.201  0.0079 -0.2734  0.5448
   21THF     C9  269   0.720   4.952   3.321  0.2951 -0.7477  0.0541
   21THF    H10  270   0.837   4.972   3.135  0.2754 -1.9762 -0.0125
   21THF    H11  271   0.881   4.846   3.240 -1.7864  0.6395  0.7596
   21THF    H12  272   0.771   4.970   3.417  0.7416  1.0146  2.4905
   21THF    H13  273   0.682   5.056   3.300 -1.0312 -1.9388  0.5220
   22THF     O1  274   1.795   1.527   5.075  0.4062 -0.0146  0.1183
   22THF     C2  275   1.868   1.608   5.170  0.6927  0.1686 -0.3315
   22THF     C3  276   1.662   1.531   5.108  0.4552 -0.1813  0.2784
   22THF     H4  277   1.964   1.639   5.120  1.7934  0.4984 -0.7749
   22THF     H5  278   1.878   1.572   5.275 -0.5667  1.0429  2.2979
   22THF     H6  279   1.599   1.507   5.028 -0.5231  1.0973  0.7907
   22THF     H7  280   1.630   1.452   5.175  0.8099 -3.1871 -0.0671
   22THF     C8  281   1.634   1.663   5.166  0.7948 -0.7631  0.2698
   22THF     C9  282   1.777   1.729   5.171 -0.2306 -0.1477  0.2909
   22THF    H10  283   1.588   1.653   5.266 -0.9129 -1.5801  1.6282
   22THF    H11  284   1.560   1.719   5.105 -2.1436 -0.5047 -1.0326
   22THF    H12  285   1.794   1.778   5.074 -1.9664  1.3224 -2.3726
   22THF    H13  286   1.790   1.811   5.246 -2.8221  1.1761  2.5056
   23THF     O1  287   2.342   4.093   4.984  0.7074 -0.2608  0.0463
   23THF     C2  288   2.415   3.977   4.946  0.1603  0.5841 -0.0554
   23THF     C3  289   2.356   4.110   5.117 -0.5068 -0.2702  0.2048
   23THF     H4  290   2.525   3.992   4.933 -1.7813 -2.0071 -1.2819
   23THF     H5  291   2.375   3.931   4.852  0.4501 -0.8628 -0.3046
   23THF     H6  292   2.450   4.155   5.142  2.3575 -2.5766  0.8169
   23THF     H7  293   2.280   4.176   5.164 -2.0773  1.8595 -0.4631
   23THF     C8  294   2.341   3.964   5.171  0.3728 -0.0643  0.3335
   23THF     C9  295   2.385   3.876   5.059 -0.2455 -0.3068 -0.0973
   23THF    H10  296   2.232   3.944   5.189  0.3971  2.1854 -0.7487
   23THF    H11  297   2.374   3.942   5.271  0.6782 -0.9205 -1.0621
   23THF    H12  298   2.477   3.813   5.078  3.4096  0.6682 -0.5168
   23THF    H13  299   2.303   3.811   5.038  2.2020 -0.1802  4.1315
   24THF     O1  300   1.740   2.705   0.321 -0.5996  0.3960 -0.1256
   24THF     C2  301   1.848   2.613   0.321 -0.7540 -0.8882 -1.2174
   24THF     C3  302   1.678   2.690   0.447 -0.8694  0.5002 -0.4544
   24THF     H4  303   1.945   2.652   0.360  2.9122 -2.1581 -1.1655
   24THF     H5  304   1.877   2.594   0.216 -0.7217  0.5616  0.6942
   24THF     H6  305   1.724   2.768   0.505 -1.1223  0.4162  0.5671
   24THF     H7  306   1.574   2.705   0.446  0.2440 -1.0424  0.0616
   24THF     C8  307   1.713   2.551   0.508  0.2072  0.0588 -0.4080
   24THF     C9  308   1.811   2.494   0.412 -0.2968  0.1883 -0.3416
   24THF    H10  309   1.628   2.492   0.530  0.4368  0.5680  1.1451
   24THF    H11  310   1.754   2.576   0.604 -1.6540  0.3638 -0.3459
   24THF    H12  311   1.903   2.437   0.445 -0.4694 -2.1689  1.2565
   24THF    H13  312   1.754   2.421   0.357 -2.2824  0.6461 -0.3013
   25THF     O1  313   3.438   5.256   4.957 -0.2227 -0.0692  0.0369
   25THF     C2  314   3.338   5.233   4.862 -0.2436 -0.8616 -0.1067
   25THF     C3  315   3.421   5.175   5.075 -0.1245  0.9552 -0.0388
   25THF     H4  316   3.369   5.270   4.767  0.5077 -1.6793 -1.3060
   25THF     H5  317   3.246   5.278   4.904 -1.4064  0.9242  1.5833
   25THF     H6  318   3.515   5.177   5.140  2.2236 -1.0211  3.0811
   25THF     H7  319   3.335   5.202   5.139  1.8715  0.8742 -1.1988
   25THF     C8  320   3.399   5.043   4.996  0.0019  0.0700 -0.4658
   25THF     C9  321   3.338   5.085   4.866  0.0386 -0.2235 -0.1815
   25THF    H10  322   3.337   4.982   5.053  0.9782  0.5332  1.2994
   25THF    H11  323   3.501   5.007   4.992  1.4845 -0.3096 -3.5996
   25THF    H12  324   3.397   5.051   4.776 -3.9678 -1.2831  0.2062
   25THF    H13  325   3.236   5.046   4.866  0.2101 -1.4406  0.4182
   26THF     O1  326   1.013   2.358   1.885 -0.7072  0.0176  0.3912
   26THF     C2  327   1.064   2.265   1.989  1.4077  0.3488  0.3548
   26THF     C3  328   0.873   2.342   1.881 -0.2122  0.1673  0.1716
   26THF     H4  329   1.065   2.312   2.088  0.5279 -0.9744 -0.5217
   26THF     H5  330   1.171   2.245   1.976  3.0420  3.1789 -2.1953
   26THF     H6  331   0.831   2.382   1.969  2.6739  0.0016 -1.2053
   26THF     H7  332   0.819   2.385   1.794  1.6361  0.4636  0.6509
   26THF     C8  333   0.868   2.195   1.883  0.0295  0.1728 -0.6055
   26THF     C9  334   0.967   2.146   1.991 -0.0596  0.2097 -0.4663
   26THF    H10  335   0.902   2.166   1.784  1.3407 -1.1988  1.1898
   26THF    H11  336   0.762   2.159   1.886  0.4069  0.3678  1.2886
   26THF    H12  337   0.924   2.132   2.087  1.9285  1.1360 -0.2151
   26THF    H13  338   1.025   2.061   1.965  1.3604  0.8224 -0.2696
   27THF     O1  339   1.148   4.851   1.963  0.2060 -0.3812  0.0263
   27THF     C2  340   1.215   4.860   1.838  0.2184 -0.5349 -0.6184
   27THF     C3  341   1.163   4.972   2.038 -0.1850  0.2793  0.0343
   27THF     H4  342   1.146   4.848   1.759 -0.4078  1.7882  0.9353
   27THF     H5  343   1.276   4.784   1.815 -1.8171  0.1528 -2.0877
   27THF     H6  344   1.076   5.036   2.038  0.7848 -1.5735 -1.7904
   27THF     H7  345   1.190   4.946   2.138 -2.5260  1.3490  0.2581
   27THF     C8  346   1.279   5.040   1.974 -0.1902 -0.4587 -0.2342
   27THF     C9  347   1.283   4.993   1.831 -0.4476  0.0060  0.0275
   27THF    H10  348   1.377   5.011   2.012  1.1339  0.0180 -0.3484
   27THF    H11  349   1.276   5.146   2.000  3.6605  2.6443 -2.2833
   27THF    H12  350   1.233   5.073   1.774 -0.9844  0.0750 -0.9827
   27THF    H13  351   1.381   4.999   1.786 -1.9436  1.1165  1.8693
   28THF     O1  352   1.788   1.242   1.923  0.2924  0.4091  0.4929
   28THF     C2  353   1.733   1.209   2.050 -0.2233 -0.8071 -0.3305
   28THF     C3  354   1.910   1.313   1.946  0.5472  0.3324 -0.0695
   28THF     H4  355   1.779   1.118   2.093  0.3195 -0.4903  2.3864
   28THF     H5  356   1.626   1.202   2.047  1.3412  2.3516 -0.6554
   28THF     H6  357   1.991   1.250   1.979 -0.7959  1.9812 -0.5349
   28THF     H7  358   1.938   1.381   1.855 -0.1933 -0.5476 -2.2755
   28THF     C8  359   1.864   1.407   2.058 -0.7523  0.5845 -0.3854
   28THF     C9  360   1.768   1.326   2.142  0.2766  0.1113 -0.7607
   28THF    H10  361   1.814   1.495   2.020 -0.9671  0.0966  0.1181
   28THF    H11  362   1.946   1.452   2.116  4.0155 -0.2151 -0.0541
   28THF    H12  363   1.818   1.291   2.232  0.9658  1.6226 -1.6855
   28THF    H13  364   1.692   1.392   2.171 -1.3082  1.3350 -0.3180
   29THF     O1  365   3.314   3.474   0.660  0.1194 -0.7727 -0.1976
   29THF     C2  366   3.211   3.497   0.564 -0.2299  0.2776  0.0834
   29THF     C3  367   3.398   3.369   0.617  0.2006  0.3741  0.7962
   29THF     H4  368   3.218   3.599   0.537  2.2734  1.0883  3.0452
   29THF     H5  369   3.109   3.476   0.604 -1.7386  1.3549  1.4164
   29THF     H6  370   3.486   3.421   0.580  1.4516  1.8236  1.5189
   29THF     H7  371   3.410   3.296   0.700 -0.8242 -1.7578 -1.3723
   29THF     C8  372   3.330   3.297   0.499 -0.1979  0.2538  0.0368
   29THF     C9  373   3.243   3.407   0.442 -0.0787 -0.2269  0.3155
   29THF    H10  374   3.275   3.207   0.526 -0.4503  0.9659 -1.2022
   29THF    H11  375   3.410   3.262   0.446 -1.4780 -0.2340  2.0841
   29THF    H12  376   3.292   3.474   0.378  0.9150  1.0597 -1.6368
   29THF    H13  377   3.162   3.369   0.382  2.7453 -0.9836 -0.4583
   30THF     O1  378   3.670   0.595   2.532 -0.2922  0.0387 -0.5289
   30THF     C2  379   3.593   0.639   2.422 -0.6995  0.5006 -0.3634
   30THF     C3  380   3.587   0.606   2.646  0.3974  0.5157 -1.0970
   30THF     H4  381   3.619   0.582   2.334 -0.1741 -0.8666  0.4517
   30THF     H5  382   3.624   0.739   2.394  0.5743  1.0145  1.1814
   30THF     H6  383   3.552   0.505   2.670 -0.7903 -0.7377  0.1281
   30THF     H7  384   3.644   0.628   2.739 -1.9645 -1.7011  0.5378
   30THF     C8  385   3.464   0.686   2.622 -1.0390 -0.4654 -0.2008
   30THF     C9  386   3.445   0.648   2.471 -0.1572  0.1427 -0.0151
   30THF    H10  387   3.486   0.794   2.629  2.1656  5.1804  1.3169
   30THF    H11  388   3.385   0.659   2.688  0.9336  1.4481  0.9409
   30THF    H12  389   3.406   0.549   2.460  2.3901  1.2522 -3.1695
   30THF    H13  390   3.396   0.721   2.402 -0.4928 -2.7238 -0.5825
   31THF     O1  391   0.084   2.025   0.569 -0.2297 -0.0831 -0.1169
   31THF     C2  392   0.071   1.904   0.496 -0.0301 -0.7116  0.2561
   31THF     C3  393   0.151   2.118   0.486 -0.6572 -0.1586 -0.9470
   31THF     H4  394  -0.018   1.914   0.433  0.7550  1.4627 -0.1040
   31THF     H5  395   0.059   1.821   0.566  0.0298 -1.6364  0.1664
   31THF     H6  396   0.088   2.162   0.398 -3.4123 -1.5193 -1.7221
   31THF     H7  397   0.193   2.207   0.541 -0.3746  1.4141 -0.9887
   31THF     C8  398   0.261   2.035   0.430 -0.7375  1.1704 -0.2685
   31THF     C9  399   0.214   1.889   0.445 -0.4158 -0.0431  0.4863
   31THF    H10  400   0.356   2.048   0.479  1.7978 -0.3483 -1.9037
   31THF    H11  401   0.275   2.066   0.327 -0.8005 -0.7533 -0.6740
   31THF    H12  402   0.215   1.836   0.352  0.5747  2.0053  0.4427
   31THF    H13  403   0.260   1.824   0.518  2.1084 -2.4160  1.3655
   32THF     O1  404   0.966   4.052   2.727 -0.0147 -0.6145 -0.4356
   32THF     C2  405   0.893   4.087   2.845 -0.4826 -1.0312  0.0661
   32THF     C3  406   1.067   3.966   2.758 -0.1708  0.0306  0.3848
   32THF     H4  407   0.783   4.069   2.837  1.8644 -1.1191  1.2235
   32THF     H5  408   0.921   4.193   2.870 -0.9660  1.5113 -1.5905
   32THF     H6  409   1.079   3.904   2.670 -0.8648  0.9293  1.2626
   32THF     H7  410   1.153   4.015   2.788 -0.7546  1.7161  0.5678
   32THF     C8  411   1.009   3.886   2.871 -0.2451 -0.1699  0.0510
   32THF     C9  412   0.956   3.997   2.953  0.0891  0.6341  0.3803
   32THF    H10  413   1.092   3.843   2.932 -1.1920 -0.3795 -0.2451
   32THF    H11  414   0.948   3.807   2.836  0.9893 -2.4489  0.0382
   32THF    H12  415   0.873   3.956   3.021 -0.3849 -1.6078  0.5811
   32THF    H13  416   1.031   4.044   3.016  2.6107 -0.8492 -2.6866
   33THF     O1  417   4.934   2.545   3.351  0.2594  0.3323 -0.2176
   33THF     C2  418   4.909   2.445   3.244  0.2209 -0.9509 -0.2633
   33THF     C3  419   4.860   2.654   3.335 -0.8382 -0.8803 -0.5134
   33THF     H4  420   4.909   2.341   3.279  1.3476  1.1569 -1.7238
   33THF     H5  421   4.986   2.457   3.172 -0.7417 -0.5449  0.3981
   33THF     H6  422   4.823   2.693   3.434 -0.2071  0.8310 -0.8464
   33THF     H7  423   4.925   2.738   3.310 -1.2364 -0.5323  1.1281
   33THF     C8  424   4.759   2.629   3.228 -0.1168  0.1763 -0.2849
   33THF     C9  425   4.767   2.479   3.191 -0.1814  0.3608  0.1051
   33THF    H10  426   4.791   2.673   3.138 -0.0352 -1.4063  1.8277
   33THF    H11  427   4.654   2.664   3.241 -1.2616 -1.5319 -0.6778
   33THF    H12  428   4.692   2.420   3.245  0.7968 -2.8993  0.0025
   33THF    H13  429   4.750   2.474   3.089  0.4927  3.2974  1.6798
   34THF     O1  430   2.738   1.810   0.086 -0.8047  0.0466  0.4490
   34THF     C2  431   2.740   1.665   0.059 -0.2239 -0.1631  0.3145
   34THF     C3  432   2.689   1.820   0.220 -0.1383  0.2887 -0.0481
   34THF     H4  433   2.820   1.619   0.106 -2.1775  1.5203 -1.9466
   34THF     H5  434   2.737   1.634  -0.049  0.6992 -2.8789  0.1157
   34THF     H6  435   2.764   1.810   0.301 -0.1547 -1.6073  0.8435
   34THF     H7  436   2.640   1.919   0.227 -1.3149 -0.6743 -0.8905
   34THF     C8  437   2.578   1.712   0.232  0.3297 -0.1369  0.1511
   34THF     C9  438   2.602   1.626   0.109 -0.5813 -0.0265  0.1908
   34THF    H10  439   2.481   1.754   0.220 -1.4916 -2.5729  4.0257
   34THF    H11  440   2.564   1.664   0.337  0.0763  1.0177  0.9445
   34THF    H12  441   2.595   1.517   0.132 -1.5190  0.6168 -1.3833
   34THF    H13  442   2.529   1.644   0.037 -0.9332 -0.7800  2.5324
   35THF     O1  443   0.037   3.744   2.217 -0.5100 -0.0667 -0.4726
   35THF     C2  444   0.013   3.672   2.337  1.0449 -0.4279  0.1905
   35THF     C3  445   0.110   3.862   2.249 -0.1816  0.9962  0.0423
   35THF     H4  446   0.076   3.580   2.336 -2.4798  3.2062 -0.5821
   35THF     H5  447  -0.092   3.641   2.344 -1.0216 -1.9337 -0.8339
   35THF     H6  448   0.196   3.873   2.188  0.2938 -0.8431 -0.7592
   35THF     H7  449   0.042   3.946   2.246 -0.2782 -1.4434  4.0839
   35THF     C8  450   0.164   3.836   2.395  0.2524  0.0868 -0.0928
   35THF     C9  451   0.049   3.757   2.455  0.3653 -0.3527  0.4467
   35THF    H10  452   0.177   3.933   2.442  2.5446  0.2261 -0.2005
   35THF    H11  453   0.257   3.781   2.381 -0.7258 -0.7286  0.4969
   35THF    H12  454   0.068   3.699   2.546  2.1933 -0.4077  0.7523
   35THF    H13  455  -0.024   3.838   2.485 -2.3974 -0.0378 -0.1791
   36THF     O1  456   3.600   5.020   1.878  0.1059  0.4018 -0.0786
   36THF     C2  457   3.668   5.038   2.000  0.2225  0.7490 -0.4081
   36THF     C3  458   3.492   5.115   1.870 -0.5993  0.4655 -0.2615
   36THF     H4  459   3.780   5.034   1.982  1.7117  0.3957  0.2362
   36THF     H5  460   3.635   4.961   2.067  0.3381 -2.0833  0.6346
   36THF     H6  461   3.478   5.133   1.763  2.0948 -1.2117 -1.2553
   36THF     H7  462   3.399   5.076   1.914 -0.1880  1.1291 -0.2262
   36THF     C8  463   3.552   5.242   1.938  0.3906  0.6664  0.4965
   36THF     C9  464   3.631   5.182   2.052 -0.1285 -0.9378 -1.0975
   36THF    H10  465   3.473   5.298   1.986  2.8622 -1.3055  1.8510
   36THF    H11  466   3.619   5.305   1.873  0.6958 -0.1210  1.7203
   36THF    H12  467   3.703   5.263   2.068 -1.9578  0.1005 -0.5241
   36THF    H13  468   3.575   5.169   2.149 -0.9489  2.0632  0.6831
   37THF     O1  469   0.600   3.899   2.049  0.6258 -0.5314 -0.0324
   37THF     C2  470   0.658   3.771   2.017  0.2961 -0.1257  0.0945
   37THF     C3  471   0.482   3.925   1.970  0.1668  0.5081 -0.2909
   37THF     H4  472   0.705   3.723   2.104  0.4410 -2.0081  0.6791
   37THF     H5  473   0.738   3.799   1.947  1.0603  0.4386  1.6963
   37THF     H6  474   0.388   3.917   2.029  0.0807 -0.6724 -0.6186
   37THF     H7  475   0.492   4.017   1.915 -2.2286  1.5933  1.4418
   37THF     C8  476   0.470   3.805   1.870  0.2466  0.3201 -0.5571
   37THF     C9  477   0.531   3.701   1.963  0.1494 -0.1774  0.3630
   37THF    H10  478   0.525   3.813   1.776  1.3622  0.0878 -2.8625
   37THF    H11  479   0.357   3.786   1.848  0.7625 -0.6752 -0.6894
   37THF    H12  480   0.469   3.674   2.047 -0.1191  0.5201  0.6386
   37THF    H13  481   0.565   3.617   1.902 -3.8104  0.0132 -0.0197
   38THF     O1  482   4.119   0.265   0.115 -0.1060 -0.3157  0.5054
   38THF     C2  483   4.125   0.133   0.076 -0.8922 -0.1972  0.0336
   38THF     C3  484   4.063   0.267   0.248  0.6552  0.4692 -0.3069
   38THF     H4  485   4.203   0.076   0.119 -0.9957  0.1910 -3.0232
   38THF     H5  486   4.137   0.138  -0.030 -0.3669 -1.5923  0.0003
   38THF     H6  487   4.141   0.240   0.328  2.3939 -1.0074  0.7111
   38THF     H7  488   4.012   0.353   0.277 -2.5116 -1.3690 -1.1769
   38THF     C8  489   3.964   0.144   0.246  0.3257 -0.0113  0.4964
   38THF     C9  490   3.994   0.076   0.112 -0.1670 -0.1720 -0.0550
   38THF    H10  491   3.858   0.160   0.269  0.2798 -0.3478  0.6458
   38THF    H11  492   3.990   0.069   0.322 -4.0131 -2.4891  0.2981
   38THF    H12  493   3.990  -0.034   0.128 -0.0043 -0.0906  2.6468
   38THF    H13  494   3.912   0.091   0.039 -1.3655 -1.6979  2.2110
   39THF     O1  495   3.157   2.960   4.107  0.0552  0.2011  0.6393
   39THF     C2  496   3.214   2.988   3.979  1.0004  0.3682  0.7833
   39THF     C3  497   3.108   3.082   4.168 -0.2296 -0.5578 -0.1306
   39THF     H4  498   3.201   2.903   3.908  0.3323 -1.4176 -1.7858
   39THF     H5  499   3.321   3.005   3.996  3.1791  0.3092 -2.5374
   39THF     H6  500   2.999   3.078   4.191  2.2818  1.9485  0.9861
   39THF     H7  501   3.140   3.101   4.272  1.6263  2.3166  0.4935
   39THF     C8  502   3.135   3.193   4.064  0.7039 -0.2422  0.0710
   39THF     C9  503   3.138   3.112   3.933  0.0895 -0.0780  0.1745
   39THF    H10  504   3.222   3.250   4.081 -1.8017 -2.1276 -1.4432
   39THF    H11  505   3.057   3.270   4.064 -0.8587 -0.9229  0.9608
   39THF    H12  506   3.035   3.082   3.925 -0.0880 -4.6597 -1.1138
   39THF    H13  507   3.170   3.166   3.841  1.3843  1.3597 -1.4134
   40THF     O1  508   0.442   3.028   3.121 -0.1304 -0.0847 -0.3625
   40THF     C2  509   0.332   3.083   3.178 -0.1971 -0.5242  0.0165
   40THF     C3  510   0.457   2.895   3.167 -0.4855 -0.1778  0.0522
   40THF     H4  511   0.277   3.143   3.106  2.5387  3.8380 -0.0548
   40THF     H5  512   0.350   3.147   3.263 -0.2845 -2.3264  1.7559
   40THF     H6  513   0.518   2.831   3.107 -1.4809 -1.4495  1.0093
   40THF     H7  514   0.496   2.889   3.268 -1.2289 -1.0919 -0.3279
   40THF     C8  515   0.313   2.845   3.167  0.0932 -0.0438  0.3144
   40THF     C9  516   0.239   2.966   3.229 -0.6133 -0.5858  0.4092
   40THF    H10  517   0.308   2.755   3.219 -1.5581  0.6793  0.9159
   40THF    H11  518   0.275   2.823   3.067 -2.3235  0.2196 -1.8038
   40THF    H12  519   0.141   2.980   3.181 -3.3525 -0.6560 -0.1072
   40THF    H13  520   0.231   2.960   3.342  0.1224 -1.3510  1.9753
   41THF     O1  521   2.586   3.322   1.744  0.1108  0.3002  0.0099
   41THF     C2  522   2.498   3.206   1.745  0.6388 -0.0633  0.6712
   41THF     C3  523   2.655   3.310   1.623  0.6372 -0.1979  0.0523
   41THF     H4  524   2.411   3.227   1.812 -2.1468  2.2625 -0.7271
   41THF     H5  525   2.539   3.107   1.774  0.9558  1.2194 -1.7305
   41THF     H6  526   2.712   3.394   1.596 -0.3847  0.5626 -2.9937
   41THF     H7  527   2.726   3.226   1.644 -1.3076  0.2550  3.0032
   41THF     C8  528   2.550   3.271   1.520 -1.1154  0.5181  0.4564
   41THF     C9  529   2.448   3.193   1.602  0.4782 -0.9045 -0.5514
   41THF    H10  530   2.590   3.218   1.435  1.3959  1.1626 -0.5411
   41THF    H11  531   2.502   3.358   1.485 -1.3950 -0.3772  2.9561
   41THF    H12  532   2.347   3.230   1.586 -2.2810  3.4077  0.1459
   41THF    H13  533   2.462   3.089   1.583 -0.1206 -0.4112 -0.5598
   42THF     O1  534   0.427   1.335   1.561 -0.2607  0.0924  0.0732
   42THF     C2  535   0.351   1.225   1.568  0.1871  0.0872  0.2589
   42THF     C3  536   0.543   1.301   1.485 -0.3008  0.6675 -0.4058
   42THF     H4  537   0.243   1.233   1.584  1.8750 -0.0153  0.1237
   42THF     H5  538   0.387   1.172   1.656  0.3738  0.7342  1.4650
   42THF     H6  539   0.579   1.396   1.446  0.6066 -0.4758 -1.9549
   42THF     H7  540   0.617   1.252   1.553  0.8504 -3.8592  1.9277
   42THF     C8  541   0.497   1.203   1.378  0.0194 -0.9624  0.5918
   42THF     C9  542   0.374   1.136   1.441 -0.2658 -0.5412 -0.7815
   42THF    H10  543   0.581   1.144   1.342 -2.6725  2.4677  2.3252
   42THF    H11  544   0.465   1.261   1.295  0.6573 -1.5413  0.1033
   42THF    H12  545   0.283   1.129   1.372  2.1351  1.0759  0.3151
   42THF    H13  546   0.410   1.038   1.473  1.2958 -1.0781  2.6263
   43THF     O1  547   1.106   3.966   4.760  0.0329 -0.2004 -0.0747
   43THF     C2  548   1.137   3.825   4.794 -0.2780 -0.4970  0.6347
   43THF     C3  549   1.081   3.962   4.619 -0.6181 -0.0551  0.3566
   43THF     H4  550   1.044   3.770   4.829 -2.7034 -3.7527 -0.2597
   43THF     H5  551   1.199   3.835   4.882  0.0708  1.3026 -0.2107
   43THF     H6  552   0.985   3.917   4.604  1.1234 -0.1750 -1.7498
   43THF     H7  553   1.081   4.068   4.591 -0.3624 -2.7765 -0.6924
   43THF     C8  554   1.199   3.874   4.569  0.2820 -0.1111  0.4462
   43THF     C9  555   1.201   3.766   4.674  0.3635 -0.0381  0.5304
   43THF    H10  556   1.294   3.921   4.576  1.8628 -0.6582 -3.6477
   43THF    H11  557   1.192   3.847   4.465 -0.0489  1.0502  1.2526
   43THF    H12  558   1.145   3.677   4.637 -0.2893  1.0874  0.5919
   43THF    H13  559   1.302   3.733   4.693  0.3360  1.8071 -1.3009
   44THF     O1  560   2.094   2.621   3.331 -0.4513 -0.4173 -0.1290
   44THF     C2  561   1.972   2.604   3.409  0.1639 -0.7814  0.1828
   44THF     C3  562   2.113   2.487   3.283  0.2186 -0.1257 -0.5447
   44THF     H4  563   1.898   2.583   3.333  2.6509 -4.1641 -0.5034
   44THF     H5  564   1.935   2.679   3.487 -0.4009 -0.5585  0.7065
   44THF     H6  565   2.050   2.466   3.207  0.0781  1.8876  0.6142
   44THF     H7  566   2.216   2.469   3.252  0.1873  0.7751 -0.4101
   44THF     C8  567   2.077   2.395   3.402  0.2573 -0.0778  0.4727
   44THF     C9  568   2.007   2.486   3.499 -1.4278  0.0051  0.1428
   44THF    H10  569   2.164   2.357   3.447  0.4665  0.1645  0.6128
   44THF    H11  570   2.008   2.315   3.381 -2.0076 -0.8987 -0.1217
   44THF    H12  571   1.924   2.437   3.547 -2.8830  0.3642  0.4652
   44THF    H13  572   2.081   2.508   3.579 -2.0906  0.7629  1.4960
   45THF     O1  573   5.014   5.158   4.375 -0.4972  0.9827 -0.7432
   45THF     C2  574   5.136   5.164   4.301 -0.0935 -0.0760  0.3553
   45THF     C3  575   4.910   5.090   4.303  0.1175  0.0539  0.1541
   45THF     H4  576   5.227   5.198   4.360 -0.9002 -0.9906  0.9321
   45THF     H5  577   5.124   5.234   4.210  2.6244  0.9756 -0.7832
   45THF     H6  578   4.822   5.070   4.365  0.2506  0.7833 -1.9293
   45THF     H7  579   4.883   5.162   4.223 -1.6455 -1.6681  1.3374
   45THF     C8  580   4.996   4.977   4.248 -0.4012  0.2798  0.6300
   45THF     C9  581   5.139   5.022   4.250  0.1094  0.2751  0.3785
   45THF    H10  582   4.964   4.943   4.152  0.8302 -0.4765 -0.0834
   45THF    H11  583   4.976   4.888   4.305  0.3119  1.9082 -1.1893
   45THF    H12  584   5.200   4.949   4.311  0.4244  0.0923  1.9275
   45THF    H13  585   5.175   5.031   4.149  1.2563 -2.9325 -0.9760
   46THF     O1  586   5.425   3.288   4.905 -0.9799  0.4289 -0.1145
   46THF     C2  587   5.356   3.303   4.781  0.4854  1.0891  0.6627
   46THF     C3  588   5.527   3.385   4.926  0.0170 -0.0552  0.5162
   46THF     H4  589   5.243   3.280   4.785 -2.7906 -0.9925 -1.1414
   46THF     H5  590   5.405   3.243   4.708 -0.4097  2.4088 -3.4069
   46THF     H6  591   5.554   3.402   5.025 -0.1551  0.2398  0.7904
   46THF     H7  592   5.614   3.353   4.867 -1.1720  1.4505 -2.0819
   46THF     C8  593   5.462   3.509   4.860  0.4439 -0.5727  0.2437
   46THF     C9  594   5.370   3.457   4.754  0.4841  0.5277 -0.6211
   46THF    H10  595   5.535   3.584   4.815  1.2170  0.5528 -1.3247
   46THF    H11  596   5.405   3.551   4.943 -1.2075 -1.3358  0.7103
   46THF    H12  597   5.278   3.514   4.765  0.0644  0.3554  0.7948
   46THF    H13  598   5.406   3.469   4.652  1.2480 -0.7180  1.6312
   47THF     O1  599   1.742   3.666   4.625 -0.1793  0.6333 -0.0093
   47THF     C2  600   1.680   3.679   4.746 -0.2874 -0.2942 -0.5300
   47THF     C3  601   1.698   3.768   4.536 -0.6193 -0.2368  0.6693
   47THF     H4  602   1.747   3.636   4.817 -3.8158 -0.1277  0.0112
   47THF     H5  603   1.591   3.620   4.757  1.1795 -0.5543  2.7144
   47THF     H6  604   1.783   3.801   4.484 -0.5898 -3.3078  0.9939
   47THF     H7  605   1.620   3.733   4.473  2.2178  0.9055 -0.8667
   47THF     C8  606   1.630   3.873   4.621  0.2526  0.4345 -0.3065
   47THF     C9  607   1.659   3.831   4.756  0.6940 -0.8227 -0.2657
   47THF    H10  608   1.520   3.867   4.605  0.7379  0.8224  1.0338
   47THF    H11  609   1.674   3.981   4.607 -2.5788  2.2188  2.6041
   47THF    H12  610   1.751   3.868   4.796 -0.9737 -1.5639 -2.3202
   47THF    H13  611   1.572   3.845   4.822 -0.5395  0.1601 -2.1997
   48THF     O1  612   2.843   1.643   2.074 -0.6114  0.0117 -0.4300
   48THF     C2  613   2.825   1.507   2.112  0.1046 -0.3074  0.4887
   48THF     C3  614   2.719   1.709   2.084 -0.2890  0.4564 -0.0621
   48THF     H4  615   2.819   1.500   2.220 -0.7792  0.3824  0.0153
   48THF     H5  616   2.903   1.448   2.068 -2.8965 -0.2813 -0.7699
   48THF     H6  617   2.694   1.721   2.184 -0.9192 -1.1216  0.0354
   48THF     H7  618   2.726   1.808   2.031  3.2101  0.2445 -1.4120
   48THF     C8  619   2.622   1.607   2.030  0.6842 -0.5040 -0.8647
   48THF     C9  620   2.681   1.471   2.068  0.4930 -1.0113 -0.1384
   48THF    H10  621   2.595   1.612   1.923 -2.2448 -2.4921  1.0371
   48THF    H11  622   2.520   1.621   2.072 -0.8287  0.9996 -0.5260
   48THF    H12  623   2.627   1.429   2.148  3.9274 -1.2331 -0.8143
   48THF    H13  624   2.679   1.411   1.977 -0.8537  1.2275  2.8841
   49THF     O1  625   1.288   1.673   3.287 -0.0661 -0.4426 -0.3242
   49THF     C2  626   1.283   1.806   3.330 -0.0500  0.1721 -0.2707
   49THF     C3  627   1.164   1.623   3.246  0.4357 -0.2070 -0.4768
   49THF     H4  628   1.323   1.884   3.260 -1.1925  0.1227 -1.4797
   49THF     H5  629   1.344   1.810   3.416 -0.1605 -0.3653 -0.0532
   49THF     H6  630   1.128   1.666   3.152 -0.8431  1.0142  1.8213
   49THF     H7  631   1.148   1.514   3.254  0.4349 -0.1901 -2.4237
   49THF     C8  632   1.080   1.688   3.356  0.4045  0.1720  0.8191
   49THF     C9  633   1.136   1.831   3.345  0.3709 -0.4503 -0.0181
   49THF    H10  634   1.082   1.645   3.456  3.0604 -1.0891 -0.3803
   49THF    H11  635   0.971   1.676   3.350  1.5379 -1.4261  1.5172
   49THF    H12  636   1.094   1.888   3.254 -2.6194 -1.7304 -0.2045
   49THF    H13  637   1.113   1.887   3.435 -1.1485 -2.2284 -0.8862
   50THF     O1  638   3.571   4.802   0.980  0.2518 -0.2185  0.0656
   50THF     C2  639   3.602   4.725   1.089  0.3352  0.2039  0.2435
   50THF     C3  640   3.500   4.725   0.885 -0.0653  0.3525 -0.2282
   50THF     H4  641   3.535   4.748   1.165 -1.2678 -1.4624 -1.7756
   50THF     H5  642   3.704   4.745   1.117  0.2309 -0.2096  1.2706
   50THF     H6  643   3.390   4.723   0.906 -2.2712  0.0067  1.2695
   50THF     H7  644   3.517   4.773   0.789 -0.4471 -0.3518  1.6354
   50THF     C8  645   3.569   4.586   0.895  0.7507 -0.2234  0.4071
   50THF     C9  646   3.591   4.579   1.047  0.2217 -0.1360  0.1860
   50THF    H10  647   3.659   4.567   0.836 -1.1366 -0.3982  1.1136
   50THF    H11  648   3.494   4.511   0.869 -0.7442  2.8324  0.1394
   50THF    H12  649   3.516   4.525   1.100  0.0376  1.4345  0.8913
   50THF    H13  650   3.681   4.525   1.064  0.9693 -0.6372  1.6229
   51THF     O1  651   5.468   2.585   5.101  0.1427 -0.1913  0.1811
   51THF     C2  652   5.426   2.668   4.993  0.5487  0.0286 -0.0329
   51THF     C3  653   5.604   2.552   5.067  0.0023 -0.0464 -0.5963
   51THF     H4  654   5.490   2.763   4.990 -0.9372 -1.2185  0.1792
   51THF     H5  655   5.320   2.690   5.017  2.5035  0.6072 -0.6100
   51THF     H6  656   5.673   2.637   5.074 -0.6146 -4.6892  1.7978
   51THF     H7  657   5.641   2.464   5.129  2.1629 -1.9644  0.4227
   51THF     C8  658   5.577   2.498   4.918  0.0562  0.1739  0.4526
   51THF     C9  659   5.451   2.579   4.872 -0.0721 -0.2762 -0.8712
   51THF    H10  660   5.567   2.386   4.915  1.3664  1.3603  0.9224
   51THF    H11  661   5.658   2.518   4.852  1.8580 -2.7155  1.7035
   51THF    H12  662   5.470   2.640   4.780 -2.0266  3.6514  0.8942
   51THF    H13  663   5.366   2.514   4.862  0.5713 -0.5071  1.2661
   52THF     O1  664   1.154   2.386   2.628  0.4280 -0.1170  0.7189
   52THF     C2  665   1.252   2.282   2.641 -0.2077 -0.6093 -0.3051
   52THF     C3  666   1.144   2.464   2.740 -0.7562  0.5199 -0.1015
   52THF     H4  667   1.306   2.273   2.550 -1.3859  1.0324  0.2731
   52THF     H5  668   1.202   2.185   2.651 -0.5864 -1.0640 -0.3764
   52THF     H6  669   1.112   2.566   2.719  2.4273 -2.9597 -0.3737
   52THF     H7  670   1.081   2.414   2.815  2.0339  0.8626 -1.8562
   52THF     C8  671   1.292   2.449   2.807 -0.2588  0.3939 -0.0887
   52THF     C9  672   1.335   2.314   2.769  0.2731  0.5856 -0.1123
   52THF    H10  673   1.285   2.465   2.915  0.4265 -1.2491  1.3354
   52THF    H11  674   1.355   2.520   2.759  0.1239 -0.3144  0.4945
   52THF    H12  675   1.442   2.296   2.752  1.8742 -2.3783  0.4218
   52THF    H13  676   1.306   2.248   2.843  0.6710 -0.4352 -0.3688
   53THF     O1  677   0.207   0.515   1.499  0.0652  0.5321 -0.1559
   53THF     C2  678   0.094   0.455   1.556  0.3026  0.1296 -0.0887
   53THF     C3  679   0.300   0.416   1.477  0.2575 -0.1781  0.4840
   53THF     H4  680   0.020   0.476   1.482  1.2097  0.7443 -0.0997
   53THF     H5  681   0.067   0.504   1.652 -0.3402 -0.0892 -0.0749
   53THF     H6  682   0.354   0.439   1.393 -1.1408 -1.4751 -0.6623
   53THF     H7  683   0.371   0.431   1.559  3.8536 -1.9087  0.9003
   53THF     C8  684   0.227   0.284   1.487 -0.1526 -0.0105  0.1055
   53THF     C9  685   0.128   0.311   1.590  0.4529 -0.1613 -0.4221
   53THF    H10  686   0.297   0.207   1.516 -3.5257 -0.1247 -1.5040
   53THF    H11  687   0.177   0.268   1.391 -0.1736  0.1325 -1.3795
   53THF    H12  688   0.047   0.243   1.610  1.7839 -2.6847 -1.2913
   53THF    H13  689   0.181   0.319   1.686  0.2978 -0.1956  0.2778
   54THF     O1  690   5.139   4.861   3.141 -0.0789 -0.1696 -0.0120
   54THF     C2  691   5.015   4.796   3.115 -0.2750  0.3854  0.5360
   54THF     C3  692   5.138   4.970   3.052 -0.8103 -0.8018 -1.2137
   54THF     H4  693   4.943   4.829   3.190 -0.0451  0.5380  2.6432
   54THF     H5  694   5.029   4.689   3.111 -1.5744  3.3280  1.0262
   54THF     H6  695   5.068   5.049   3.094  0.9993  0.0917  0.3961
   54THF     H7  696   5.239   5.005   3.052 -0.5303 -5.0295  2.6989
   54THF     C8  697   5.090   4.902   2.922 -0.6513 -0.0859  0.3254
   54THF     C9  698   4.971   4.830   2.974  0.1022 -0.4313  0.0471
   54THF    H10  699   5.168   4.832   2.896  1.0935 -3.3260 -0.2287
   54THF    H11  700   5.070   4.964   2.839 -0.1277  0.0918  1.6424
   54THF    H12  701   4.881   4.897   2.976 -1.0502  0.9530  0.4404
   54THF    H13  702   4.949   4.739   2.919  0.7459  1.7800  1.5973
   55THF     O1  703   0.844   4.328   5.022  0.3825 -0.3899  0.3289
   55THF     C2  704   0.962   4.315   5.105  0.3281 -0.8104  0.8109
   55THF     C3  705   0.739   4.379   5.103  0.6948 -0.4535 -0.2480
   55THF     H4  706   1.024   4.397   5.090  0.9053 -1.3221 -1.9107
   55THF     H5  707   1.030   4.234   5.089 -2.6352 -0.7695  0.4711
   55THF     H6  708   0.684   4.460   5.047 -1.4048  0.2843 -2.4945
   55THF     H7  709   0.664   4.305   5.131  0.0422 -0.6326  1.4648
   55THF     C8  710   0.800   4.425   5.236  0.1034 -0.4051 -0.3090
   55THF     C9  711   0.911   4.325   5.245  0.2778 -0.4271 -0.5550
   55THF    H10  712   0.740   4.429   5.315  0.5533 -1.6822 -0.4527
   55THF    H11  713   0.828   4.533   5.220  1.6775  4.7269 -2.7705
   55THF    H12  714   0.987   4.359   5.319  0.6711  2.6398  1.5111
   55THF    H13  715   0.869   4.232   5.283 -0.1277  0.9144  0.3042
   56THF     O1  716   0.831   1.951   0.355  0.0248 -0.1685 -0.1555
   56THF     C2  717   0.768   1.895   0.470 -0.5517  0.6870  0.9551
   56THF     C3  718   0.939   1.869   0.324 -0.2459  0.1396 -0.3307
   56THF     H4  719   0.656   1.880   0.464 -1.6444 -0.2674  1.0231
   56THF     H5  720   0.773   1.973   0.542  0.1384 -0.1814 -0.9410
   56THF     H6  721   0.956   1.859   0.216 -1.5338 -0.6423  0.0812
   56THF     H7  722   1.018   1.932   0.369 -0.3593 -1.3688  0.1029
   56THF     C8  723   0.903   1.734   0.369 -0.2777  0.2650 -0.1737
   56THF     C9  724   0.842   1.765   0.502 -0.8630 -0.5238  0.7175
   56THF    H10  725   0.981   1.662   0.380 -2.0148  1.9541  0.4523
   56THF    H11  726   0.835   1.693   0.290 -0.6834 -1.2752  0.7703
   56THF    H12  727   0.771   1.689   0.531 -0.5772  2.3025 -1.8390
   56THF    H13  728   0.906   1.791   0.584  2.5069  1.3292  1.6516
   57THF     O1  729   2.035   0.947   0.331  0.0072 -0.3538  0.2945
   57THF     C2  730   2.017   0.861   0.447  0.3240 -0.6421  0.3753
   57THF     C3  731   1.916   1.028   0.320 -0.1056 -0.0371 -0.5347
   57THF     H4  732   2.120   0.835   0.473  0.4398 -0.6565  0.9336
   57THF     H5  733   1.949   0.778   0.435  2.5487  2.1421  0.7007
   57THF     H6  734   1.916   1.114   0.246 -4.5345  2.0697 -1.0794
   57THF     H7  735   1.822   0.972   0.305 -0.0790  1.9977  2.1458
   57THF     C8  736   1.900   1.072   0.465 -0.0536  0.1339  0.2379
   57THF     C9  737   1.951   0.958   0.555 -0.7514 -0.0752 -0.5991
   57THF    H10  738   1.798   1.105   0.498 -0.3723 -1.5833  1.3422
   57THF    H11  739   1.975   1.145   0.493 -1.0836  0.3475 -2.0829
   57THF    H12  740   2.022   0.989   0.631  1.5469  0.0436  1.7956
   57THF    H13  741   1.876   0.899   0.605 -1.2998  3.6744 -1.2633
   58THF     O1  742   4.435   2.308   0.865 -0.2352  0.0101  0.4662
   58THF     C2  743   4.340   2.226   0.923  0.4802 -0.3369  0.8958
   58THF     C3  744   4.375   2.437   0.867 -0.1285  0.0346  0.4443
   58THF     H4  745   4.376   2.132   0.960  2.3502 -1.8911  0.1192
   58THF     H5  746   4.263   2.212   0.854  1.3381 -0.7294  2.6620
   58THF     H6  747   4.452   2.511   0.848  0.1394 -0.4470 -1.6131
   58THF     H7  748   4.298   2.448   0.789 -0.9798  1.0144 -2.5564
   58THF     C8  749   4.313   2.444   1.009  0.0785 -0.2815 -0.3056
   58THF     C9  750   4.297   2.304   1.045 -0.3355 -0.0074 -0.1531
   58THF    H10  751   4.215   2.501   1.009 -1.4894 -1.2995 -0.0118
   58THF    H11  752   4.374   2.492   1.084 -3.8870  1.3354  2.3851
   58THF    H12  753   4.357   2.294   1.131  2.6032  0.3270 -0.5880
   58THF    H13  754   4.199   2.273   1.082 -0.8194  0.3732 -1.4427
   59THF     O1  755   5.247   3.441   5.345  0.5083  0.2450 -0.4513
   59THF     C2  756   5.377   3.481   5.296  0.2661  0.0651  0.3817
   59THF     C3  757   5.178   3.563   5.379  0.4251 -0.4583  0.3218
   59THF     H4  758   5.358   3.529   5.199 -2.2146  0.7164 -0.5009
   59THF     H5  759   5.439   3.401   5.262  0.6061  1.8862 -0.4162
   59THF     H6  760   5.133   3.618   5.300  0.1897  0.2284  0.3517
   59THF     H7  761   5.095   3.535   5.450  1.9281  0.8240 -1.3505
   59THF     C8  762   5.282   3.659   5.443 -0.0629 -0.1038 -0.3185
   59THF     C9  763   5.419   3.583   5.404 -0.3651 -0.0632  0.3027
   59THF    H10  764   5.278   3.666   5.547 -0.6202  1.2390 -0.0474
   59THF    H11  765   5.282   3.755   5.388 -0.4840  0.9309  0.3049
   59THF    H12  766   5.490   3.652   5.365 -2.7346 -1.0908 -0.4624
   59THF    H13  767   5.465   3.533   5.484 -0.6673  0.5971 -2.1438
   60THF     O1  768   2.759   0.161   3.137 -0.2082  0.1834  0.3901
   60THF     C2  769   2.726   0.292   3.089 -0.2790  0.3396 -0.2949
   60THF     C3  770   2.904   0.156   3.129  0.0771  0.5349  0.1080
   60THF     H4  771   2.751   0.366   3.166  1.0891  3.6340  0.8940
   60THF     H5  772   2.618   0.290   3.067  2.3304 -1.1065  0.4464
   60THF     H6  773   2.939   0.219   3.203  0.1732  2.0904 -0.8795
   60THF     H7  774   2.948   0.057   3.147  2.8304 -0.2563 -0.1732
   60THF     C8  775   2.936   0.211   2.993  0.6288  0.0487 -0.1140
   60THF     C9  776   2.825   0.313   2.970 -0.2978 -0.2395  0.4154
   60THF    H10  777   2.924   0.124   2.923  2.7656  1.8414  1.0688
   60THF    H11  778   3.038   0.240   2.979  0.3313 -3.1761  0.8239
   60THF    H12  779   2.865   0.420   2.968 -0.8008  0.3068  0.9710
   60THF    H13  780   2.775   0.297   2.874 -1.0416  1.7049 -2.4884
   61THF     O1  781   0.323   0.231   1.131  0.1084 -0.1064 -0.0922
   61THF     C2  782   0.383   0.252   1.001  0.2083 -0.2991  0.0085
   61THF     C3  783   0.369   0.111   1.186 -0.2235  0.2059  0.5632
   61THF     H4  784   0.454   0.335   1.000  1.8831  2.3744  0.7861
   61THF     H5  785   0.310   0.281   0.926  0.4436 -2.7377 -4.2299
   61THF     H6  786   0.391   0.119   1.286 -2.0420 -0.1239 -2.7928
   61THF     H7  787   0.282   0.048   1.168  2.3131  1.5342 -0.1016
   61THF     C8  788   0.489   0.063   1.108 -0.0047  0.1972 -0.1521
   61THF     C9  789   0.450   0.114   0.971 -0.3618 -0.2654 -0.4029
   61THF    H10  790   0.492  -0.051   1.110 -1.0421 -0.4357  0.5431
   61THF    H11  791   0.583   0.095   1.151 -1.5319  3.2352  1.0966
   61THF    H12  792   0.529   0.115   0.896 -2.5024 -2.8018  1.0427
   61THF    H13  793   0.385   0.038   0.935 -0.4345  0.1168  0.5706
   62THF     O1  794   4.340   3.633   3.321  0.2961  0.8108 -0.1817
   62THF     C2  795   4.363   3.746   3.236 -0.0940 -0.3375  0.1813
   62THF     C3  796   4.220   3.569   3.283 -1.1086 -0.1345  0.5667
   62THF     H4  797   4.460   3.739   3.207 -2.1668 -1.9671  2.3089
   62THF     H5  798   4.347   3.832   3.301  1.4847  1.6297 -2.8333
   62THF     H6  799   4.214   3.458   3.285 -2.0572  0.1094 -1.4049
   62THF     H7  800   4.129   3.612   3.327  0.5736 -1.2820  0.2742
   62THF     C8  801   4.213   3.599   3.134 -0.6514  0.3484 -0.3204
   62THF     C9  802   4.260   3.741   3.128 -0.0728  0.8593 -0.8319
   62THF    H10  803   4.114   3.598   3.097  0.6895 -1.6081  0.3018
   62THF    H11  804   4.268   3.526   3.072 -1.7070  1.2077 -2.7889
   62THF    H12  805   4.305   3.781   3.040 -2.4310  0.4306  1.4610
   62THF    H13  806   4.180   3.818   3.146  0.5981  0.6557  0.2741
   63THF     O1  807   3.835   2.058   5.395 -0.6473  0.3884 -0.0113
   63THF     C2  808   3.863   2.111   5.521  0.8858 -0.9221  0.1422
   63THF     C3  809   3.751   1.948   5.400 -0.0714 -0.3915  0.2051
   63THF     H4  810   3.875   2.222   5.517 -0.4838  0.2760  3.6557
   63THF     H5  811   3.953   2.053   5.564  0.3338  0.1297 -0.7468
   63THF     H6  812   3.671   1.965   5.323 -1.4229 -0.5887 -1.3346
   63THF     H7  813   3.799   1.858   5.358  1.1788  0.3182  0.2451
   63THF     C8  814   3.712   1.929   5.550 -0.1122  0.4858  0.3304
   63THF     C9  815   3.743   2.073   5.602 -0.3482 -0.1219  0.3015
   63THF    H10  816   3.783   1.856   5.585 -0.5737  0.0482 -1.3054
   63THF    H11  817   3.609   1.894   5.565  0.8341 -2.1932 -0.3257
   63THF    H12  818   3.659   2.133   5.575 -0.1798 -2.2866 -1.5260
   63THF    H13  819   3.753   2.079   5.712  1.1777  2.8161 -1.5386
   64THF     O1  820   1.103   0.001   2.697 -0.7144  0.2928  0.3137
   64THF     C2  821   1.011   0.106   2.719  0.4615  0.5482  0.1716
   64THF     C3  822   1.024  -0.105   2.655  0.3962  0.5902 -0.2348
   64THF     H4  823   1.060   0.204   2.718 -1.0930 -0.5233 -1.5653
   64THF     H5  824   0.966   0.085   2.818  1.5546  1.5782  1.6060
   64THF     H6  825   1.088  -0.165   2.597  0.3148  2.5315  2.2959
   64THF     H7  826   0.979  -0.162   2.740 -0.9367 -1.7726  0.9445
   64THF     C8  827   0.912  -0.043   2.569  0.3584  0.7360  0.3877
   64THF     C9  828   0.905   0.106   2.615 -0.3803  0.6556  0.0908
   64THF    H10  829   0.813  -0.096   2.585 -0.1658  3.2787  0.1088
   64THF    H11  830   0.938  -0.057   2.461  1.2684  0.6692 -3.4467
   64THF    H12  831   0.947   0.163   2.529 -0.4601  0.6257 -2.9349
   64THF    H13  832   0.801   0.131   2.637 -2.2141 -3.0332  0.2669
   65THF     O1  833   0.591   1.802   5.454 -0.2491  0.1066  0.0710
   65THF     C2  834   0.587   1.793   5.593 -0.0221 -0.3203 -0.6693
   65THF     C3  835   0.539   1.670   5.405  0.1548 -0.2033 -0.2429
   65THF     H4  836   0.533   1.881   5.631 -2.1968 -2.7393 -0.2486
   65THF     H5  837   0.681   1.796   5.648 -2.5221  1.1269  2.1417
   65THF     H6  838   0.501   1.676   5.305 -3.6021  0.7230  0.8386
   65THF     H7  839   0.625   1.597   5.397  0.6298 -1.7406  0.9452
   65THF     C8  840   0.440   1.627   5.512  0.5777 -0.9889 -0.0942
   65THF     C9  841   0.518   1.667   5.627  0.1641 -0.1709 -0.4760
   65THF    H10  842   0.411   1.521   5.508  0.8932  1.6658 -3.2220
   65THF    H11  843   0.352   1.684   5.503  0.1846 -0.7978  0.0938
   65THF    H12  844   0.457   1.686   5.708  1.7830 -0.5260 -0.1149
   65THF    H13  845   0.583   1.585   5.653 -1.3173 -0.3929  0.1797
   66THF     O1  846   1.119   0.960   1.061  0.0504  0.2082  0.3295
   66THF     C2  847   1.248   1.005   1.026 -0.0971  0.1199 -0.3934
   66THF     C3  848   1.056   0.925   0.932  0.6215  0.4502 -1.1243
   66THF     H4  849   1.310   0.998   1.117 -2.4676 -0.1239 -0.9889
   66THF     H5  850   1.235   1.107   0.994 -1.5896  1.1723  1.8210
   66THF     H6  851   0.987   0.840   0.951  0.5765 -1.9212  0.4282
   66THF     H7  852   0.996   1.008   0.901  0.6499  0.9035  0.4240
   66THF     C8  853   1.174   0.895   0.837 -0.1607 -0.2541  0.4122
   66THF     C9  854   1.293   0.910   0.923  0.2548 -0.4287  0.0982
   66THF    H10  855   1.160   0.971   0.755 -0.7431  2.2673  0.8415
   66THF    H11  856   1.165   0.793   0.798 -0.7576  1.0168  0.1474
   66THF    H12  857   1.325   0.817   0.962 -0.9263  2.8512 -0.1322
   66THF    H13  858   1.370   0.959   0.867 -0.2844 -0.2342  1.9965
   67THF     O1  859   2.310   5.191   0.451 -0.1728 -0.0432  0.7787
   67THF     C2  860   2.273   5.166   0.584  0.0323 -0.4090 -0.8005
   67THF     C3  861   2.451   5.211   0.434 -0.0924  0.2716 -0.1690
   67THF     H4  862   2.297   5.055   0.587  0.8137 -1.3972 -0.4708
   67THF     H5  863   2.162   5.183   0.598 -0.5689  1.2357  0.4111
   67THF     H6  864   2.495   5.111   0.431 -0.1849  2.8295  1.9694
   67THF     H7  865   2.492   5.279   0.350 -3.7040  1.7463  0.9913
   67THF     C8  866   2.497   5.266   0.568  0.0554 -0.1454  0.3075
   67THF     C9  867   2.373   5.264   0.654 -0.2670 -0.2950 -0.5267
   67THF    H10  868   2.537   5.368   0.569 -1.8053  0.9984  2.4413
   67THF    H11  869   2.562   5.194   0.611  0.0308 -0.5759  0.4265
   67THF    H12  870   2.395   5.235   0.761  1.3660 -0.6217 -0.3526
   67THF    H13  871   2.334   5.365   0.657 -1.4251 -0.9949  2.0920
   68THF     O1  872   4.504   1.189   0.787 -0.1059 -0.2638  0.0450
   68THF     C2  873   4.622   1.121   0.739  0.0882 -0.0216  0.4619
   68THF     C3  874   4.539   1.319   0.841  0.4612 -0.8256 -0.1072
   68THF     H4  875   4.594   1.051   0.653 -1.5009 -0.6978  1.0967
   68THF     H5  876   4.661   1.058   0.824  0.2562  0.2256  1.0153
   68THF     H6  877   4.454   1.385   0.837  0.9824 -0.9072 -0.8335
   68THF     H7  878   4.592   1.307   0.935 -2.2548  1.3961 -0.6606
   68THF     C8  879   4.625   1.368   0.733  0.6518 -0.0443 -0.1155
   68THF     C9  880   4.696   1.241   0.680 -0.1716  0.4587 -0.2622
   68THF    H10  881   4.689   1.447   0.752 -0.8751 -0.8532  0.5995
   68THF    H11  882   4.560   1.403   0.654  2.5613  2.2727  2.0470
   68THF    H12  883   4.689   1.233   0.568 -2.3834  2.3858 -0.6411
   68THF    H13  884   4.801   1.237   0.710  1.2992 -2.5793  0.6428
   69THF     O1  885   2.185   1.609   1.015  0.3494  0.1711 -0.2998
   69THF     C2  886   2.062   1.676   0.995 -0.2348 -0.2496 -0.1732
   69THF     C3  887   2.175   1.515   1.127 -0.0585  0.2207 -0.2753
   69THF     H4  888   2.007   1.624   0.917  1.7531 -1.2713  1.7712
   69THF     H5  889   2.074   1.778   0.964  0.5828 -0.7722 -1.6433
   69THF     H6  890   2.142   1.419   1.087 -1.5873 -1.0992 -0.3545
   69THF     H7  891   2.279   1.502   1.169  1.2412 -0.8718 -0.2381
   69THF     C8  892   2.084   1.581   1.224 -0.1782 -0.1460  0.2642
   69THF     C9  893   1.989   1.664   1.131 -0.5563 -0.2848  0.3712
   69THF    H10  894   2.145   1.657   1.280  1.2133 -1.6283  0.5644
   69THF    H11  895   2.038   1.528   1.302 -2.2857  1.3291  2.7922
   69THF    H12  896   1.887   1.609   1.116  2.0045 -0.1119 -0.0279
   69THF    H13  897   1.965   1.756   1.170  0.0336  0.0164  0.9377
   70THF     O1  898   2.910   0.903   0.118 -0.1811  0.1146  0.0197
   70THF     C2  899   2.783   0.837   0.117  0.3034 -0.0114  0.2165
   70THF     C3  900   2.954   0.920   0.249  0.1942  0.0541  0.6069
   70THF     H4  901   2.771   0.773   0.026 -0.0337 -1.2264 -2.3126
   70THF     H5  902   2.703   0.917   0.120 -0.5322  1.0095  0.1746
   70THF     H6  903   3.059   0.925   0.250 -0.6267  1.3324 -1.6162
   70THF     H7  904   2.920   1.011   0.292  2.0689 -0.6744 -0.6215
   70THF     C8  905   2.895   0.801   0.331  0.3890 -0.7266  0.3075
   70THF     C9  906   2.788   0.745   0.236  0.7189  0.0620  0.9206
   70THF    H10  907   2.853   0.845   0.423 -1.6964  0.6552  0.9300
   70THF    H11  908   2.968   0.728   0.359 -2.0928  2.0092  3.2706
   70THF    H12  909   2.813   0.647   0.196  0.1792  0.4826 -1.1202
   70THF    H13  910   2.686   0.729   0.290 -0.8070  0.8342  0.0834
   71THF     O1  911   4.007   1.352   4.158 -0.0460 -0.2595 -0.1718
   71THF     C2  912   3.952   1.291   4.043 -0.0465 -0.3769  0.9993
   71THF     C3  913   4.038   1.490   4.123  0.1682 -0.2117  0.5645
   71THF     H4  914   3.857   1.337   4.023  1.3238 -0.6087 -0.3414
   71THF     H5  915   3.928   1.188   4.051 -1.9823  1.1806  0.5043
   71THF     H6  916   3.947   1.545   4.115 -2.0071  1.0135  0.7484
   71THF     H7  917   4.099   1.542   4.193  2.2935 -1.2815 -2.0953
   71THF     C8  918   4.105   1.469   3.988 -0.3126 -0.8537 -0.1388
   71THF     C9  919   4.065   1.329   3.940  0.2454  0.3658  0.0501
   71THF    H10  920   4.213   1.474   4.006  1.2575  2.1271 -0.8575
   71THF    H11  921   4.083   1.548   3.919  0.5930 -3.4560 -1.7087
   71THF    H12  922   4.024   1.334   3.842  2.5818  1.2950  0.6746
   71THF    H13  923   4.151   1.257   3.944 -0.4602 -0.2364 -1.4344
   72THF     O1  924   3.064   0.050   0.056 -0.0072 -0.8617  0.1604
   72THF     C2  925   2.970  -0.045   0.012  0.1567 -0.5388 -0.1970
   72THF     C3  926   3.139   0.098  -0.056 -0.0008 -0.4123  0.0490
   72THF     H4  927   2.887   0.012  -0.028  0.1916  0.2233 -1.5960
   72THF     H5  928   2.929  -0.114   0.084 -4.0267  1.1922  1.7904
   72THF     H6  929   3.075   0.173  -0.101 -1.7535  2.4452 -1.3821
   72THF     H7  930   3.226   0.143  -0.027 -1.6933 -0.9493 -0.4531
   72THF     C8  931   3.162  -0.029  -0.142  0.2404 -0.0824  0.9212
   72THF     C9  932   3.039  -0.116  -0.107  0.6523  0.6441 -0.2471
   72THF    H10  933   3.251  -0.089  -0.126 -0.6707  0.7511  1.6946
   72THF    H11  934   3.156  -0.007  -0.249 -1.1143 -3.7162  1.2565
   72THF    H12  935   2.972  -0.125  -0.195 -0.4497 -2.0917  0.4155
   72THF    H13  936   3.074  -0.216  -0.082  0.3128 -3.4289  0.9329
   73THF     O1  937   2.275   0.957   2.799 -0.3261 -0.5743  0.0620
   73THF     C2  938   2.339   1.085   2.771  0.2696  0.2943  0.3513
   73THF     C3  939   2.329   0.909   2.923 -0.0704  0.2479  0.1405
   73THF     H4  940   2.291   1.165   2.824 -0.8470  0.2070  1.8998
   73THF     H5  941   2.331   1.114   2.668  1.4713 -0.8528  0.0451
   73THF     H6  942   2.297   0.965   3.008  1.0901 -0.3144  2.8958
   73THF     H7  943   2.307   0.806   2.933 -1.5801 -1.0269  1.7935
   73THF     C8  944   2.481   0.940   2.909  0.0504 -0.2315  0.3862
   73THF     C9  945   2.480   1.071   2.826  0.9584  0.2672  0.4981
   73THF    H10  946   2.522   0.865   2.848  0.4614  0.1098 -0.8038
   73THF    H11  947   2.514   0.950   3.011 -1.9623  0.3012  0.5547
   73THF    H12  948   2.519   1.152   2.889  1.8940 -0.5378  1.8896
   73THF    H13  949   2.547   1.056   2.745 -2.5048 -1.1413  1.2612
   74THF     O1  950   4.497   2.131   5.412  0.8980 -0.0878  0.2349
   74THF     C2  951   4.382   2.102   5.330 -0.8426  0.2699  1.3255
   74THF     C3  952   4.454   2.209   5.524 -0.7655  0.2239 -0.0944
   74THF     H4  953   4.329   2.009   5.345  2.7845  0.7885 -1.3970
   74THF     H5  954   4.417   2.104   5.223 -2.1238 -2.1297 -0.2619
   74THF     H6  955   4.452   2.150   5.619  3.3600 -0.8828  0.2680
   74THF     H7  956   4.525   2.281   5.541  2.6591  0.0613 -1.1270
   74THF     C8  957   4.317   2.259   5.485  0.2297  0.7106 -0.3740
   74THF     C9  958   4.292   2.219   5.339 -0.1739 -0.8288 -1.3277
   74THF    H10  959   4.325   2.357   5.519  1.1774 -0.8790  1.2332
   74THF    H11  960   4.242   2.213   5.552 -1.7162  0.3756  0.0668
   74THF    H12  961   4.199   2.192   5.311  3.0251 -0.5548  1.8380
   74THF    H13  962   4.322   2.302   5.274 -3.0460  1.1853 -1.1436
   75THF     O1  963   1.725   4.090   3.284 -0.0845  0.0115 -0.1512
   75THF     C2  964   1.788   3.961   3.277  0.3426 -0.7688 -0.3388
   75THF     C3  965   1.742   4.136   3.425  0.3618  0.1136 -0.2721
   75THF     H4  966   1.857   3.948   3.188  0.0806 -1.4609  0.8483
   75THF     H5  967   1.702   3.894   3.268 -1.4424  2.2310 -0.1395
   75THF     H6  968   1.822   4.214   3.434 -0.8563 -0.1216 -0.2910
   75THF     H7  969   1.650   4.173   3.465  0.3366  1.7935 -2.4692
   75THF     C8  970   1.774   4.012   3.507 -0.8152 -0.1551 -0.3313
   75THF     C9  971   1.860   3.930   3.408  0.4299 -0.9443 -0.0932
   75THF    H10  972   1.687   3.950   3.528  0.9437 -1.3585  0.2970
   75THF    H11  973   1.815   4.040   3.606  0.2263  0.5599  1.9314
   75THF    H12  974   1.960   3.962   3.410 -0.0529  0.1754 -0.9619
   75THF    H13  975   1.854   3.820   3.428  0.4006  0.0512 -0.3988
   76THF     O1  976   0.743   1.898   4.107 -0.3205  0.0164  0.3569
   76THF     C2  977   0.705   2.024   4.042  0.2821  0.3450  0.5080
   76THF     C3  978   0.697   1.789   4.026 -0.5052  0.0710  0.2016
   76THF     H4  979   0.784   2.048   3.966 -0.8459 -1.7959  3.0854
   76THF     H5  980   0.705   2.107   4.109  1.7018 -0.5717  0.0409
   76THF     H6  981   0.751   1.788   3.938 -1.5402  0.6885 -0.4373
   76THF     H7  982   0.705   1.683   4.068 -2.3741  1.4249  1.5628
   76THF     C8  983   0.559   1.835   3.991 -0.0735  0.1780 -0.4810
   76THF     C9  984   0.572   1.984   3.973 -0.3821 -0.5219 -0.0889
   76THF    H10  985   0.491   1.815   4.072  0.4805  0.1670  1.2682
   76THF    H11  986   0.531   1.773   3.901  0.2183  1.6501 -4.3867
   76THF    H12  987   0.573   2.015   3.870 -3.1977  0.2933 -0.5060
   76THF    H13  988   0.475   2.027   4.018 -2.9661 -0.6208 -0.1000
   77THF     O1  989   4.011   1.406   4.587 -0.7027  0.1971  0.6541
   77THF     C2  990   4.006   1.389   4.724  0.0367 -0.2364  1.1323
   77THF     C3  991   4.088   1.529   4.572 -1.3626  0.0641 -0.1466
   77THF     H4  992   4.104   1.359   4.770  2.2565 -0.3000 -0.3797
   77THF     H5  993   3.934   1.308   4.750  2.8159 -2.0993  1.3563
   77THF     H6  994   4.191   1.502   4.607  1.2387 -0.9851 -0.7872
   77THF     H7  995   4.084   1.570   4.470 -1.5494  0.7674 -1.6716
   77THF     C8  996   4.035   1.619   4.682 -0.1351 -0.2916 -0.1912
   77THF     C9  997   3.958   1.528   4.775 -1.0373 -0.5372 -0.2941
   77THF    H10  998   3.974   1.700   4.635  1.7468  1.7587 -2.8254
   77THF    H11  999   4.116   1.666   4.740  0.9891 -0.6906 -0.4855
   77THF    H12 1000   3.977   1.554   4.880  1.4819  0.4252 -0.3241
   77THF    H13 1001   3.852   1.534   4.749 -3.1663 -2.0563 -0.2577
   78THF     O1 1002   4.329   4.815   0.725  0.2104 -0.4447  0.0825
   78THF     C2 1003   4.465   4.804   0.715 -0.3144  0.0625  0.2477
   78THF     C3 1004   4.265   4.682   0.751  0.0391 -0.5887 -0.0107
   78THF     H4 1005   4.517   4.891   0.754  0.4090 -3.6519 -2.6653
   78THF     H5 1006   4.494   4.780   0.613 -0.3036 -0.2030  1.6505
   78THF     H6 1007   4.203   4.684   0.845 -0.3586  0.5438  1.5150
   78THF     H7 1008   4.201   4.640   0.670 -0.9702 -0.7049 -0.6994
   78THF     C8 1009   4.383   4.588   0.776 -0.2278  0.4365  0.2826
   78THF     C9 1010   4.498   4.682   0.805  0.0648  0.2255  0.4734
   78THF    H10 1011   4.399   4.535   0.684 -1.6549 -1.7628 -1.7239
   78THF    H11 1012   4.364   4.509   0.854  0.7968  0.0656 -0.4140
   78THF    H12 1013   4.486   4.712   0.909 -0.1421  0.8121  0.4801
   78THF    H13 1014   4.596   4.643   0.800 -1.3564  0.4237  2.0269
   79THF     O1 1015   2.702   3.391   5.396  0.2817  0.5752 -0.2658
   79THF     C2 1016   2.634   3.455   5.280  0.5437 -0.0206 -1.0633
   79THF     C3 1017   2.629   3.413   5.517 -0.0013 -0.1137 -0.1481
   79THF     H4 1018   2.587   3.389   5.212  0.0639 -1.3009  3.2623
   79THF     H5 1019   2.705   3.514   5.221 -0.7913 -1.0445  2.1375
   79THF     H6 1020   2.563   3.329   5.526 -0.7252  0.4864  0.0629
   79THF     H7 1021   2.682   3.422   5.613  0.8835 -0.0239 -0.1175
   79THF     C8 1022   2.564   3.543   5.490  1.1741 -0.0724  0.2133
   79THF     C9 1023   2.522   3.534   5.346  0.2697  0.3522 -0.1015
   79THF    H10 1024   2.629   3.632   5.496 -0.2037  0.4733  1.4056
   79THF    H11 1025   2.481   3.560   5.561 -0.8655 -1.0232  0.2080
   79THF    H12 1026   2.426   3.484   5.333 -1.2106 -1.0715 -0.5489
   79THF    H13 1027   2.500   3.638   5.305  1.2197  0.5675 -1.2814
   80THF     O1 1028   4.738   3.363   0.833 -0.1362  0.6030  0.3385
   80THF     C2 1029   4.757   3.487   0.767  0.5924  0.6514 -0.8372
   80THF     C3 1030   4.858   3.314   0.897 -0.3292 -0.0923 -0.1276
   80THF     H4 1031   4.676   3.560   0.768  1.7332 -0.5029  0.3781
   80THF     H5 1032   4.762   3.450   0.669 -0.3895  0.1953 -0.8418
   80THF     H6 1033   4.834   3.322   1.005  0.0149 -0.2968 -0.1266
   80THF     H7 1034   4.870   3.211   0.875  1.0209  1.7445 -1.2158
   80THF     C8 1035   4.970   3.399   0.846 -0.0711 -1.0995  0.5277
   80THF     C9 1036   4.900   3.528   0.804 -0.0291  0.8165  0.2893
   80THF    H10 1037   5.035   3.357   0.769 -0.2994  2.2468  0.1549
   80THF    H11 1038   5.041   3.417   0.927  1.8396  0.3683  3.8490
   80THF    H12 1039   4.899   3.593   0.889 -0.9176 -1.0746  1.6083
   80THF    H13 1040   4.940   3.578   0.718 -1.1619 -1.7066  1.8462
   81THF     O1 1041   5.236   4.298   2.499  0.0398 -0.0130 -0.0760
   81THF     C2 1042   5.345   4.339   2.588 -0.2010  0.5446 -0.5612
   81THF     C3 1043   5.261   4.155   2.482  0.7886  0.3705 -0.0394
   81THF     H4 1044   5.300   4.426   2.644 -1.6749  2.3183 -1.0273
   81THF     H5 1045   5.425   4.370   2.526 -2.5980  3.3900  0.0014
   81THF     H6 1046   5.181   4.095   2.427 -0.0002 -1.3375  0.1939
   81THF     H7 1047   5.344   4.144   2.415 -0.1776 -0.9564 -1.1302
   81THF     C8 1048   5.296   4.119   2.626 -0.4768  0.0681 -0.1665
   81THF     C9 1049   5.371   4.228   2.684 -0.3223  0.2363 -0.4438
   81THF    H10 1050   5.353   4.027   2.632 -1.1843  0.9189 -0.0615
   81THF    H11 1051   5.203   4.091   2.678 -0.5085  0.2717 -0.3481
   81THF    H12 1052   5.323   4.254   2.780 -2.7741  2.0126  1.1445
   81THF    H13 1053   5.480   4.206   2.693  0.8013 -1.4992 -5.7312
   82THF     O1 1054   5.036   5.234   5.228 -0.2079  0.2163  0.3009
   82THF     C2 1055   5.087   5.137   5.135 -0.0083 -0.0465 -0.0729
   82THF     C3 1056   5.138   5.322   5.273  0.2509 -0.2665 -0.0551
   82THF     H4 1057   5.026   5.083   5.067 -0.2037  1.1595 -0.7982
   82THF     H5 1058   5.148   5.070   5.190  0.7079  1.6571 -1.2783
   82THF     H6 1059   5.095   5.411   5.325  0.6833  0.5752  1.8640
   82THF     H7 1060   5.193   5.273   5.353  0.6823 -1.0217 -1.7167
   82THF     C8 1061   5.226   5.338   5.149 -0.4149  0.2090  0.0541
   82THF     C9 1062   5.185   5.224   5.058 -0.4049  0.6922  0.5726
   82THF    H10 1063   5.331   5.348   5.177 -0.8739  2.6483 -0.1099
   82THF    H11 1064   5.203   5.432   5.098 -1.0512 -0.2229  0.3864
   82THF    H12 1065   5.125   5.271   4.983 -0.5460  1.6805  1.4345
   82THF    H13 1066   5.272   5.173   5.013  1.5860  0.3427 -0.7356
   83THF     O1 1067   2.743   3.122   1.247 -0.1562  0.2485 -0.3909
   83THF     C2 1068   2.643   3.119   1.154 -0.1834  0.8969 -0.3699
   83THF     C3 1069   2.832   3.231   1.209 -0.2029 -0.1999  0.1277
   83THF     H4 1070   2.575   3.204   1.174  0.2282  0.5921 -0.3451
   83THF     H5 1071   2.582   3.031   1.157 -0.4076  0.9252 -0.0649
   83THF     H6 1072   2.802   3.330   1.244  1.8863  2.7132 -2.0352
   83THF     H7 1073   2.927   3.215   1.260 -0.1019  1.6870 -0.1758
   83THF     C8 1074   2.838   3.222   1.055 -0.3976  0.3596  0.2427
   83THF     C9 1075   2.708   3.148   1.020 -0.1133 -0.0415 -0.0061
   83THF    H10 1076   2.917   3.155   1.022 -0.9079  0.4897  0.0738
   83THF    H11 1077   2.849   3.324   1.021 -0.3968  2.9155  1.6896
   83THF    H12 1078   2.645   3.213   0.958  0.7529  0.8880 -0.7153
   83THF    H13 1079   2.722   3.049   0.971  1.8832  0.3632  0.9832
   84THF     O1 1080   1.345   4.431   0.630 -0.7120 -0.1498  0.5710
   84THF     C2 1081   1.327   4.296   0.655  0.7973  0.6702  0.5672
   84THF     C3 1082   1.408   4.449   0.503  0.2842  0.0073 -0.3490
   84THF     H4 1083   1.239   4.273   0.708  0.0553  2.9079  0.5002
   84THF     H5 1084   1.424   4.258   0.706  2.2202  2.3870  0.2460
   84THF     H6 1085   1.412   4.548   0.472 -1.3091 -0.5007  1.2073
   84THF     H7 1086   1.510   4.414   0.510 -2.6371 -2.0708  0.4525
   84THF     C8 1087   1.334   4.351   0.418 -0.3494 -0.3813 -0.1422
   84THF     C9 1088   1.311   4.239   0.514 -0.1753  0.3617  0.0869
   84THF    H10 1089   1.390   4.308   0.335 -1.3410  2.1351 -2.6442
   84THF    H11 1090   1.238   4.385   0.383 -0.5416 -2.2078 -0.1205
   84THF    H12 1091   1.205   4.213   0.499  0.1176  0.2396 -0.6197
   84THF    H13 1092   1.376   4.150   0.500  1.3291 -2.3863 -0.7403
   85THF     O1 1093   3.842   1.071   2.789 -0.1681 -0.2118  0.0660
   85THF     C2 1094   3.934   1.139   2.704 -0.2837 -0.5828 -0.3783
   85THF     C3 1095   3.719   1.137   2.766 -0.5687 -0.2065 -0.1429
   85THF     H4 1096   3.923   1.098   2.601 -0.0268 -0.8191 -0.3771
   85THF     H5 1097   4.042   1.123   2.718 -2.1952 -1.4546  2.4463
   85THF     H6 1098   3.684   1.113   2.663 -0.6297  1.9426  1.2985
   85THF     H7 1099   3.655   1.099   2.850  0.5737 -3.9865  0.7597
   85THF     C8 1100   3.756   1.280   2.785  0.3010  0.8069 -0.0088
   85THF     C9 1101   3.896   1.286   2.719 -0.9082 -0.1529  0.3252
   85THF    H10 1102   3.757   1.293   2.896  0.0474 -2.3098  0.4077
   85THF    H11 1103   3.688   1.347   2.737  0.4766 -0.1795  1.8184
   85THF    H12 1104   3.899   1.354   2.629 -1.1161  0.6006  1.4666
   85THF    H13 1105   3.964   1.335   2.794 -0.2198 -0.2437  0.5852
   86THF     O1 1106   1.777   5.418   0.957 -0.2503  0.1827  0.2236
   86THF     C2 1107   1.743   5.502   0.852  0.6016 -0.6782 -0.3297
   86THF     C3 1108   1.914   5.434   0.991  0.3269  0.0266 -0.2887
   86THF     H4 1109   1.727   5.602   0.896  0.1093 -0.3509 -1.2445
   86THF     H5 1110   1.649   5.468   0.810 -0.5242 -0.1400  0.6392
   86THF     H6 1111   1.928   5.512   1.063  0.1114  1.1387 -0.4184
   86THF     H7 1112   1.950   5.344   1.028 -2.1717  0.5537  0.6850
   86THF     C8 1113   1.974   5.451   0.847 -0.1710  0.4640 -0.1568
   86THF     C9 1114   1.860   5.495   0.757 -0.3547  0.2265  0.2815
   86THF    H10 1115   2.007   5.351   0.800 -0.5080 -2.9153 -1.7935
   86THF    H11 1116   2.049   5.526   0.831  0.5311 -2.5211 -0.3364
   86THF    H12 1117   1.866   5.591   0.708 -2.9480 -1.6634  0.5624
   86THF    H13 1118   1.847   5.416   0.686 -2.5343  1.6544  0.5511
   87THF     O1 1119   1.525   5.450   2.812 -0.3407 -0.1813 -0.3876
   87THF     C2 1120   1.477   5.563   2.882 -0.0350 -0.5709  0.3648
   87THF     C3 1121   1.605   5.375   2.905 -0.1654  0.3879  0.0273
   87THF     H4 1122   1.375   5.591   2.836 -1.1298  0.5940 -0.2060
   87THF     H5 1123   1.550   5.646   2.880  1.9830 -3.1173  1.9999
   87THF     H6 1124   1.567   5.275   2.903 -0.1141  0.0668  0.0791
   87THF     H7 1125   1.710   5.360   2.887 -2.9547 -0.5834  1.5299
   87THF     C8 1126   1.594   5.444   3.043 -0.2606  0.4532 -0.1418
   87THF     C9 1127   1.466   5.514   3.023  0.6045  0.0695  0.1327
   87THF    H10 1128   1.675   5.518   3.054  1.5555  1.7623  2.3237
   87THF    H11 1129   1.594   5.384   3.127 -0.2717  3.2520  1.4508
   87THF    H12 1130   1.381   5.446   3.031  1.0735 -0.5754  0.2539
   87THF    H13 1131   1.454   5.595   3.095  2.6433  0.0194  2.1980
   88THF     O1 1132   3.082   3.302   3.085  0.3380  0.2716  0.3951
   88THF     C2 1133   3.181   3.357   2.998 -0.1926  0.5436 -0.8791
   88THF     C3 1134   3.130   3.315   3.222  1.0627 -0.2732  0.7802
   88THF     H4 1135   3.133   3.459   2.968  0.4147  0.1961 -3.1465
   88THF     H5 1136   3.190   3.294   2.907 -1.6941 -1.4379  3.0819
   88THF     H6 1137   3.050   3.356   3.281  3.4537 -0.8154 -0.8424
   88THF     H7 1138   3.152   3.222   3.270  1.5189  3.7007 -1.4205
   88THF     C8 1139   3.252   3.399   3.215 -0.0981 -0.3975  0.2597
   88THF     C9 1140   3.315   3.372   3.074 -0.2912  0.1275 -0.7095
   88THF    H10 1141   3.320   3.384   3.301  1.6812 -1.0334 -0.8803
   88THF    H11 1142   3.213   3.505   3.220 -3.5959  2.9405 -0.6041
   88THF    H12 1143   3.375   3.457   3.040  1.5220 -0.1028  1.2159
   88THF    H13 1144   3.370   3.278   3.072  0.2652 -2.8033  1.5134
   89THF     O1 1145   3.137   0.055   4.419 -0.4897 -0.4224  0.4647
   89THF     C2 1146   3.177  -0.082   4.436 -0.3570  0.1324  0.8596
   89THF     C3 1147   3.007   0.058   4.453  0.0425 -0.7732  0.1183
   89THF     H4 1148   3.286  -0.098   4.450  0.2384  1.0144 -0.9526
   89THF     H5 1149   3.136  -0.141   4.353  0.5547  1.7369 -1.3051
   89THF     H6 1150   2.973   0.155   4.466  2.2152  2.3262  2.4754
   89THF     H7 1151   2.954   0.024   4.365  1.4159  1.5611 -0.6805
   89THF     C8 1152   2.994  -0.027   4.583  0.1427 -1.2993  0.1205
   89THF     C9 1153   3.116  -0.116   4.571 -0.3077 -0.3151  0.2681
   89THF    H10 1154   2.899  -0.079   4.592  2.5955 -3.2696  0.8533
   89THF    H11 1155   3.020   0.042   4.661  0.1552 -0.7529 -1.1041
   89THF    H12 1156   3.185  -0.097   4.655  3.4639 -0.2394  0.5226
   89THF    H13 1157   3.089  -0.223   4.558  0.1499 -0.9240 -1.6852
   90THF     O1 1158   3.017   1.752   2.869 -0.3540  0.2384 -0.0757
   90THF     C2 1159   3.078   1.842   2.777  0.5431 -0.6733 -0.1835
   90THF     C3 1160   2.983   1.822   2.988  0.2019  0.0708  0.4375
   90THF     H4 1161   2.999   1.908   2.748  1.0907  0.6175 -1.0845
   90THF     H5 1162   3.117   1.798   2.691 -1.4865 -0.8458  1.7631
   90THF     H6 1163   2.888   1.873   2.963 -1.2792  1.3439 -0.1301
   90THF     H7 1164   2.968   1.751   3.066 -4.5972 -0.6162  0.8234
   90THF     C8 1165   3.100   1.925   2.996  0.2682 -0.8253  0.3050
   90THF     C9 1166   3.178   1.912   2.862 -0.0664 -0.4423 -0.8113
   90THF    H10 1167   3.169   1.917   3.081 -2.6752  2.1629 -1.2755
   90THF    H11 1168   3.069   2.024   3.004  0.8495  0.6158  1.8675
   90THF    H12 1169   3.204   2.004   2.812 -0.1884 -0.5370 -0.8565
   90THF    H13 1170   3.260   1.848   2.866 -1.7228  0.7707  0.2166
   91THF     O1 1171   0.364   0.903   1.133 -0.4728 -0.3647  0.6154
   91THF     C2 1172   0.448   0.812   1.199  0.0620 -0.0609 -0.0788
   91THF     C3 1173   0.340   0.858   1.000  0.2849  0.1769  0.6641
   91THF     H4 1174   0.407   0.807   1.298 -1.1699  3.8373 -0.4749
   91THF     H5 1175   0.547   0.858   1.217 -0.2784  0.4918 -0.2268
   91THF     H6 1176   0.246   0.901   0.961 -2.7358  2.1837  0.5510
   91THF     H7 1177   0.427   0.886   0.931 -0.5388  2.0414 -1.4662
   91THF     C8 1178   0.315   0.712   1.035 -0.2515 -0.0442  0.5481
   91THF     C9 1179   0.435   0.679   1.116 -0.5088 -0.2726 -0.2811
   91THF    H10 1180   0.318   0.652   0.944 -0.1472  1.5084  0.3024
   91THF    H11 1181   0.216   0.708   1.078 -2.8549 -1.1063 -1.3630
   91THF    H12 1182   0.421   0.589   1.171  0.4912  0.6455  2.0782
   91THF    H13 1183   0.513   0.663   1.043 -0.3702  0.9172  0.1141
   92THF     O1 1184   4.839   3.065   2.194 -0.7692 -0.4887  0.8088
   92THF     C2 1185   4.753   3.169   2.240  0.3118 -0.3005  0.5111
   92THF     C3 1186   4.831   2.962   2.286  0.1977  0.6670  0.6702
   92THF     H4 1187   4.657   3.144   2.195  1.1122 -0.5070  1.2239
   92THF     H5 1188   4.777   3.264   2.192  1.8313  2.6856 -0.2758
   92THF     H6 1189   4.734   2.907   2.269  1.1372  0.7756  0.3185
   92THF     H7 1190   4.912   2.890   2.263  1.0861 -0.4812 -0.5929
   92THF     C8 1191   4.834   3.036   2.421 -0.4075 -0.3839 -0.7774
   92THF     C9 1192   4.757   3.164   2.395  0.6374  0.5327  0.8198
   92THF    H10 1193   4.942   3.054   2.441 -0.4207  0.2988  2.1477
   92THF    H11 1194   4.788   2.990   2.512 -0.0531 -1.6835  0.1090
   92THF    H12 1195   4.656   3.165   2.431 -1.7932 -0.6164 -2.1344
   92THF    H13 1196   4.804   3.255   2.428 -1.3455 -1.5002 -1.9320
   93THF     O1 1197   4.751   2.402   0.737  0.4114  0.3374 -0.3810
   93THF     C2 1198   4.722   2.509   0.646  0.1756 -0.4240  1.0143
   93THF     C3 1199   4.888   2.387   0.765  0.2493 -0.2973  0.2230
   93THF     H4 1200   4.641   2.569   0.669  1.6492 -0.2109 -3.8588
   93THF     H5 1201   4.697   2.452   0.551 -0.3453  0.4189  0.5875
   93THF     H6 1202   4.908   2.350   0.868  0.3260 -0.1245  0.6122
   93THF     H7 1203   4.940   2.315   0.695  0.2775  0.2112 -0.6154
   93THF     C8 1204   4.930   2.534   0.747 -0.5419  0.1507 -0.4295
   93THF     C9 1205   4.848   2.585   0.629  0.5541  0.4979 -0.8362
   93THF    H10 1206   5.041   2.538   0.732 -0.3239 -1.6060 -0.1124
   93THF    H11 1207   4.891   2.589   0.837 -1.4648  1.3400  2.7874
   93THF    H12 1208   4.839   2.691   0.632  2.8212  0.0776 -0.4726
   93THF    H13 1209   4.899   2.565   0.530  1.5764  1.0508 -2.3197
   94THF     O1 1210   3.551   4.452   4.149  0.5838 -0.4359  0.2804
   94THF     C2 1211   3.654   4.546   4.138 -0.0448 -1.0004 -0.5292
   94THF     C3 1212   3.477   4.481   4.269 -0.9217 -0.1605  0.8936
   94THF     H4 1213   3.679   4.576   4.031  1.0633  1.8299  1.5422
   94THF     H5 1214   3.753   4.499   4.167  0.5082 -1.1555  1.7603
   94THF     H6 1215   3.377   4.448   4.275  2.0193  1.5062  0.6358
   94THF     H7 1216   3.540   4.437   4.351 -0.1140 -0.5895 -2.2102
   94THF     C8 1217   3.474   4.635   4.277 -1.0516  0.1612  0.2755
   94THF     C9 1218   3.617   4.671   4.225  0.0700 -0.3145  0.1258
   94THF    H10 1219   3.440   4.668   4.375  1.0351 -0.3883 -0.8495
   94THF    H11 1220   3.401   4.665   4.200  2.1557  1.3531  1.6616
   94THF    H12 1221   3.626   4.760   4.163  1.1163  0.2992 -2.6289
   94THF    H13 1222   3.684   4.695   4.306  0.3434 -1.6819 -0.3342
   95THF     O1 1223   0.229   1.962   2.453  0.5192 -0.2666 -0.1237
   95THF     C2 1224   0.174   1.933   2.332 -0.0607 -0.3153 -0.2442
   95THF     C3 1225   0.364   1.929   2.445 -0.3794  0.5475  0.1969
   95THF     H4 1226   0.215   2.003   2.252  0.5352 -1.5369 -1.8639
   95THF     H5 1227   0.064   1.930   2.338 -0.4873 -1.2252  3.2118
   95THF     H6 1228   0.416   2.001   2.375 -1.7251  0.2882 -1.7263
   95THF     H7 1229   0.418   1.929   2.541  0.4004 -1.2425 -2.4652
   95THF     C8 1230   0.369   1.798   2.366  0.2363  0.6104 -0.0097
   95THF     C9 1231   0.230   1.794   2.308 -0.2187 -0.3991 -0.0728
   95THF    H10 1232   0.394   1.702   2.413 -0.4073 -3.4615  2.2364
   95THF    H11 1233   0.440   1.799   2.282  4.8220  1.5088  0.3244
   95THF    H12 1234   0.228   1.774   2.199 -0.6733  0.5504  1.3169
   95THF    H13 1235   0.162   1.725   2.356  1.3808  0.9245 -0.8506
   96THF     O1 1236   3.706   0.743   4.419  0.6010  0.1392  0.4076
   96THF     C2 1237   3.801   0.664   4.341 -0.5801  0.7593  0.4417
   96THF     C3 1238   3.658   0.852   4.337 -0.4087 -0.8947 -0.6462
   96THF     H4 1239   3.824   0.562   4.383 -1.6867 -2.6817  0.9360
   96THF     H5 1240   3.894   0.726   4.334 -1.5967 -1.5974 -1.5210
   96THF     H6 1241   3.565   0.896   4.371 -1.2989 -0.1395  0.1018
   96THF     H7 1242   3.728   0.944   4.330  2.1256  1.0655 -2.9304
   96THF     C8 1243   3.663   0.791   4.202  0.3751  0.0290  0.1315
   96THF     C9 1244   3.719   0.652   4.223  0.3048 -0.0182 -0.1860
   96THF    H10 1245   3.725   0.854   4.143  0.6239 -1.8638  2.8423
   96THF    H11 1246   3.558   0.789   4.158 -4.1015  1.2133 -0.5761
   96THF    H12 1247   3.637   0.579   4.226  0.9761 -0.4173 -0.4946
   96THF    H13 1248   3.771   0.615   4.136 -1.0988  1.3130 -0.1776
   97THF     O1 1249   4.476   2.644   5.118 -0.2341 -0.0364  0.1440
   97THF     C2 1250   4.449   2.505   5.122 -0.6070 -0.3470  0.1631
   97THF     C3 1251   4.615   2.654   5.084 -0.4092 -0.2979 -0.4933
   97THF     H4 1252   4.342   2.481   5.100 -0.1882  1.0675 -0.4712
   97THF     H5 1253   4.482   2.480   5.223 -1.1914  2.8801  1.2181
   97THF     H6 1254   4.656   2.749   5.055  0.1829  1.7947  0.0124
   97THF     H7 1255   4.683   2.610   5.157 -0.3238 -0.1968 -0.7909
   97THF     C8 1256   4.629   2.562   4.964 -0.4367 -0.5277 -0.3270
   97THF     C9 1257   4.540   2.452   5.013  0.6607  0.1367 -0.0611
   97THF    H10 1258   4.731   2.521   4.947  0.5610  2.4424  2.0176
   97THF    H11 1259   4.589   2.609   4.873 -0.0099  0.3194 -0.6046
   97THF    H12 1260   4.490   2.405   4.927 -0.7113 -2.3407 -2.2682
   97THF    H13 1261   4.609   2.384   5.066 -0.3205  0.9747  1.8896
   98THF     O1 1262   4.415   4.221   1.064  0.0074 -0.1368 -0.4850
   98THF     C2 1263   4.340   4.102   1.072  0.0305  0.8447  0.7376
   98THF     C3 1264   4.326   4.331   1.074 -0.0716 -0.6181  0.2489
   98THF     H4 1265   4.408   4.026   1.108  0.1226  0.1372  0.4712
   98THF     H5 1266   4.305   4.076   0.971 -1.9903 -0.2701  2.9443
   98THF     H6 1267   4.379   4.424   1.100  0.1315  1.1556 -0.7031
   98THF     H7 1268   4.275   4.343   0.979  2.5405  0.3124 -0.5488
   98THF     C8 1269   4.215   4.284   1.166 -0.3136 -0.3494  0.0794
   98THF     C9 1270   4.224   4.138   1.163  0.2423 -0.6498  0.2247
   98THF    H10 1271   4.114   4.322   1.132 -2.3420 -0.2215  1.3615
   98THF    H11 1272   4.217   4.319   1.272  1.0136  1.9235  0.2289
   98THF    H12 1273   4.226   4.102   1.264  1.2828 -2.1373 -1.1804
   98THF    H13 1274   4.138   4.095   1.112 -3.8956  2.2972  0.5218
   99THF     O1 1275   4.374   0.351   1.466 -0.4136 -0.4788  0.1573
   99THF     C2 1276   4.456   0.458   1.434  0.1564 -0.5218  0.8791
   99THF     C3 1277   4.285   0.388   1.562  0.0229  0.5248 -0.4003
   99THF     H4 1278   4.473   0.461   1.328  0.7217  1.3694  1.7654
   99THF     H5 1279   4.551   0.452   1.487  0.0866 -0.3895  1.7273
   99THF     H6 1280   4.195   0.327   1.559  2.2367 -0.7635 -1.1877
   99THF     H7 1281   4.336   0.371   1.654 -1.7071  0.6216  1.4503
   99THF     C8 1282   4.260   0.542   1.546  0.0700  0.2243 -0.0751
   99THF     C9 1283   4.380   0.590   1.473 -0.1821 -0.1885  0.6362
   99THF    H10 1284   4.262   0.593   1.647  0.6077  1.1278 -1.3899
   99THF    H11 1285   4.165   0.558   1.498 -0.1304 -0.9084  0.2281
   99THF    H12 1286   4.359   0.646   1.381 -3.0265  1.2620  1.0599
   99THF    H13 1287   4.444   0.664   1.524  1.9083  1.8839  2.0489
  100THF     O1 1288   0.640   3.168   4.728 -0.1955 -0.2916  0.2574
  100THF     C2 1289   0.599   3.195   4.597  0.2424  0.0290  0.2038
  100THF     C3 1290   0.762   3.111   4.720  0.1790 -0.1703  0.4267
  100THF     H4 1291   0.637   3.294   4.565 -0.2667  0.5195 -2.3569
  100THF     H5 1292   0.489   3.192   4.607  0.2797  1.7837 -0.7038
  100THF     H6 1293   0.838   3.187   4.703  0.9516  0.3001  2.9688
  100THF     H7 1294   0.794   3.060   4.816 -1.2006 -0.9226  2.3106
  100THF     C8 1295   0.757   3.013   4.598  0.6178  0.0516 -0.1378
  100THF     C9 1296   0.649   3.075   4.517  0.2810 -0.2468 -0.3784
  100THF    H10 1297   0.723   2.919   4.641 -1.0795 -1.1324  0.7291
  100THF    H11 1298   0.849   2.996   4.542  1.1476  1.0783  1.7565
  100THF    H12 1299   0.685   3.116   4.428 -0.4841 -1.4338 -2.7693
  100THF    H13 1300   0.566   3.014   4.485 -0.1680  1.5526 -0.3671
  101THF     O1 1301   0.878   3.140   3.170  0.6186 -0.1736 -0.4994
  101THF     C2 1302   0.924   3.220   3.282  0.2129 -0.1515 -0.3099
  101THF     C3 1303   0.916   3.007   3.183  0.3039 -0.5144 -0.1195
  101THF     H4 1304   0.869   3.316   3.303 -1.8566  1.3147 -0.5205
  101THF     H5 1305   1.025   3.254   3.257  2.0807 -1.9426 -0.7891
  101THF     H6 1306   0.844   2.946   3.133 -0.7487  3.0837 -0.4797
  101THF     H7 1307   1.014   2.992   3.143 -0.5452  1.1699  0.6088
  101THF     C8 1308   0.933   2.980   3.330 -0.4854 -0.4114  0.3020
  101THF     C9 1309   0.912   3.116   3.396 -0.1656  0.3077 -0.2748
  101THF    H10 1310   1.032   2.946   3.354 -1.4724 -0.4525 -2.1269
  101THF    H11 1311   0.862   2.905   3.369  0.8575  1.7882  0.0589
  101THF    H12 1312   0.806   3.125   3.418 -0.9163  1.3011 -1.6542
  101THF    H13 1313   0.959   3.146   3.491  0.1546  1.0700 -0.9173
  102THF     O1 1314   3.743   0.003   3.129  0.0228  0.6833  0.4608
  102THF     C2 1315   3.837   0.076   3.052  0.2999  0.0243 -0.0413
  102THF     C3 1316   3.629   0.088   3.162 -0.5597 -0.4962  0.4414
  102THF     H4 1317   3.851   0.037   2.950  1.4844  0.3230  0.0353
  102THF     H5 1318   3.922   0.054   3.102  0.0163  0.5312 -0.4916
  102THF     H6 1319   3.546   0.091   3.088 -3.5031  0.6558  1.9951
  102THF     H7 1320   3.591   0.054   3.253  0.4305 -0.8499 -4.3758
  102THF     C8 1321   3.690   0.222   3.170 -0.9022  0.4950  0.8789
  102THF     C9 1322   3.783   0.219   3.050  0.0731  0.7416  0.0336
  102THF    H10 1323   3.748   0.225   3.266 -0.2453  3.5564  1.0662
  102THF    H11 1324   3.614   0.300   3.166 -2.3542 -2.4257 -0.1984
  102THF    H12 1325   3.716   0.212   2.967  1.6729  0.8118  1.0712
  102THF    H13 1326   3.867   0.287   3.046 -0.3487 -0.1077  0.6144
  103THF     O1 1327   1.860   4.218   3.025 -0.5397 -0.6501  0.0180
  103THF     C2 1328   1.986   4.170   3.061 -0.8579  0.2763 -1.1740
  103THF     C3 1329   1.868   4.346   2.979  0.3357 -0.0802  0.3942
  103THF     H4 1330   1.961   4.068   3.065  0.3268  1.6493 -2.6673
  103THF     H5 1331   2.032   4.201   3.153 -1.1120 -0.2113  1.9109
  103THF     H6 1332   1.775   4.385   2.927 -1.9146 -0.0464 -2.5671
  103THF     H7 1333   1.874   4.410   3.070 -2.9688  0.2284 -0.4766
  103THF     C8 1334   1.994   4.341   2.894 -0.0383  0.4671  0.2474
  103THF     C9 1335   2.068   4.214   2.938  0.0800 -0.0693 -0.0508
  103THF    H10 1336   2.050   4.438   2.888 -1.0517  0.6376  0.7383
  103THF    H11 1337   1.963   4.308   2.788 -0.9190  0.8391  0.1873
  103THF    H12 1338   2.078   4.136   2.861  0.2499 -2.0982  0.6909
  103THF    H13 1339   2.170   4.226   2.986 -0.0492 -2.6987  2.7072
  104THF     O1 1340   4.368   0.761   3.279 -0.3002 -0.0987 -0.1353
  104THF     C2 1341   4.456   0.867   3.328  0.4506 -0.1570  0.0487
  104THF     C3 1342   4.384   0.765   3.136 -0.1318  0.2056  0.0813
  104THF     H4 1343   4.516   0.833   3.411 -1.7983  0.7831 -1.2850
  104THF     H5 1344   4.399   0.957   3.346 -1.4327 -1.7150  2.2468
  104THF     H6 1345   4.345   0.676   3.083 -0.4863  0.2278 -1.5556
  104THF     H7 1346   4.320   0.838   3.087 -0.8032 -1.8654 -1.0609
  104THF     C8 1347   4.529   0.805   3.111  0.0435  0.1092  0.5895
  104THF     C9 1348   4.554   0.902   3.218 -0.1691  0.5502 -0.6448
  104THF    H10 1349   4.560   0.839   3.013  0.5261 -0.3988 -2.7960
  104THF    H11 1350   4.593   0.724   3.136 -2.8742 -1.4094  0.0931
  104THF    H12 1351   4.657   0.883   3.245 -1.5070 -1.3328  0.2980
  104THF    H13 1352   4.528   1.004   3.194  0.4562  1.6705  1.9737
  105THF     O1 1353   1.943   4.485   2.377  0.2335  0.1690 -0.1499
  105THF     C2 1354   1.988   4.358   2.422 -0.0729 -0.1209 -0.0503
  105THF     C3 1355   2.053   4.581   2.383  0.6643 -1.3784  0.0537
  105THF     H4 1356   1.997   4.279   2.353 -0.9699 -0.5677 -1.3161
  105THF     H5 1357   1.916   4.337   2.506  1.2141 -1.7217  0.3558
  105THF     H6 1358   2.043   4.633   2.286 -1.2948  1.6700 -1.5504
  105THF     H7 1359   2.040   4.657   2.456 -0.6511  0.2451 -1.4499
  105THF     C8 1360   2.182   4.498   2.407 -0.6739  0.0330  0.6184
  105THF     C9 1361   2.131   4.384   2.487  0.0138 -0.2616 -0.0201
  105THF    H10 1362   2.250   4.560   2.465  0.4168  0.0777  1.2549
  105THF    H11 1363   2.224   4.452   2.316 -1.1002 -0.0356  0.3666
  105THF    H12 1364   2.193   4.299   2.496  0.5340  0.8094 -0.1125
  105THF    H13 1365   2.118   4.425   2.583  0.6326 -1.6067 -0.1476
  106THF     O1 1366   0.126   2.103   4.782  0.3641 -0.5794 -0.1639
  106THF     C2 1367   0.092   1.970   4.825  0.0061 -0.4066 -0.2889
  106THF     C3 1368   0.227   2.153   4.869 -0.2266 -0.1262 -0.1100
  106THF     H4 1369   0.034   1.919   4.754  0.2399  1.8875  0.3049
  106THF     H5 1370   0.038   1.987   4.911  2.9348  2.6387  0.7996
  106THF     H6 1371   0.306   2.218   4.823 -0.7206 -2.2806 -2.3535
  106THF     H7 1372   0.190   2.211   4.955 -1.5894  0.2490 -0.1905
  106THF     C8 1373   0.300   2.031   4.918 -0.9589 -0.0977 -0.6626
  106THF     C9 1374   0.228   1.913   4.850 -0.5577  0.0646 -1.0052
  106THF    H10 1375   0.308   2.016   5.026  1.4220  0.9106  1.5835
  106THF    H11 1376   0.405   2.028   4.889 -2.8228 -0.0366 -1.0535
  106THF    H12 1377   0.268   1.877   4.755  0.9729 -0.3272 -1.4822
  106THF    H13 1378   0.221   1.828   4.920  2.7499 -0.4163 -2.2463
  107THF     O1 1379   3.630   0.838   3.142  0.5122 -0.1004  0.0045
  107THF     C2 1380   3.543   0.948   3.166  0.5582 -0.9630  0.7572
  107THF     C3 1381   3.652   0.841   3.001  0.5319 -0.4989 -0.3540
  107THF     H4 1382   3.588   1.047   3.154 -2.4531  3.2276  1.3785
  107THF     H5 1383   3.509   0.940   3.274 -0.4270 -1.4872 -0.3290
  107THF     H6 1384   3.715   0.932   2.981 -1.0790  0.4658  1.0360
  107THF     H7 1385   3.701   0.747   2.966 -1.5583 -0.9547  0.6512
  107THF     C8 1386   3.511   0.868   2.944  0.6977  0.5495  0.2396
  107THF     C9 1387   3.433   0.936   3.061  0.4136  0.0848 -0.0557
  107THF    H10 1388   3.461   0.777   2.922  1.3130  0.0061  1.9569
  107THF    H11 1389   3.508   0.929   2.856  0.3777 -0.4461  0.4331
  107THF    H12 1390   3.375   1.029   3.041 -0.8392  1.5907  0.9558
  107THF    H13 1391   3.352   0.873   3.090 -0.4200  2.0567 -2.8656
  108THF     O1 1392   1.623   5.001   3.826  0.2059  0.6478  0.2495
  108THF     C2 1393   1.686   4.996   3.699 -0.1841 -0.1976  0.2270
  108THF     C3 1394   1.676   4.893   3.904  0.5296  0.3169 -0.3069
  108THF     H4 1395   1.711   5.100   3.671  0.2801 -0.1779 -0.7510
  108THF     H5 1396   1.624   4.952   3.624  2.2539 -0.2406 -0.9064
  108THF     H6 1397   1.672   4.920   4.005 -3.3039 -2.4873  0.0377
  108THF     H7 1398   1.630   4.804   3.874  0.4588  2.9649  1.5218
  108THF     C8 1399   1.819   4.884   3.866 -0.2312  0.2914  0.4658
  108THF     C9 1400   1.809   4.912   3.724 -0.3479  0.4577  0.6632
  108THF    H10 1401   1.872   4.785   3.888 -0.1493  0.7253 -0.2193
  108THF    H11 1402   1.872   4.963   3.905 -1.0666 -1.7202 -0.5168
  108THF    H12 1403   1.895   4.977   3.696 -2.1482  0.2621 -0.3927
  108THF    H13 1404   1.813   4.827   3.655  0.7479  0.5281 -0.4446
  109THF     O1 1405   0.713   2.696   1.610 -0.0751  0.0385  0.4434
  109THF     C2 1406   0.738   2.572   1.538  1.0231 -0.0466  0.1228
  109THF     C3 1407   0.823   2.787   1.596  0.5559  0.1502 -0.6249
  109THF     H4 1408   0.710   2.596   1.431 -0.5956 -1.1967 -1.3576
  109THF     H5 1409   0.671   2.490   1.560 -2.1395 -0.0354 -2.7518
  109THF     H6 1410   0.797   2.879   1.544 -0.9149  0.6168  0.4187
  109THF     H7 1411   0.861   2.812   1.694 -0.9439  3.1575 -1.2112
  109THF     C8 1412   0.940   2.710   1.532  0.0277  0.3368 -0.8568
  109THF     C9 1413   0.894   2.566   1.558 -0.5618 -0.5472 -0.1648
  109THF    H10 1414   1.038   2.736   1.588 -1.0722  2.9924 -1.9025
  109THF    H11 1415   0.947   2.740   1.426 -0.6431 -0.3853 -3.0227
  109THF    H12 1416   0.939   2.491   1.496 -2.5146 -1.5549  0.7130
  109THF    H13 1417   0.907   2.536   1.661 -2.0764 -5.0584 -0.5012
  110THF     O1 1418   4.398   1.213   5.461  0.7776 -0.2477 -0.0944
  110THF     C2 1419   4.468   1.101   5.398  1.0243  0.5973  0.6647
  110THF     C3 1420   4.458   1.241   5.586  0.2827 -0.5392  0.0243
  110THF     H4 1421   4.537   1.155   5.329  1.7644 -0.2844 -0.7795
  110THF     H5 1422   4.396   1.036   5.342 -0.8565 -0.6869 -1.0926
  110THF     H6 1423   4.548   1.300   5.561 -1.5426 -0.0880  0.3376
  110THF     H7 1424   4.392   1.300   5.648  0.3732 -1.2708  0.4124
  110THF     C8 1425   4.497   1.105   5.640  0.0503  0.1524 -0.5402
  110THF     C9 1426   4.536   1.028   5.515 -0.0694  0.6085  0.5541
  110THF    H10 1427   4.421   1.051   5.693  1.0484  0.1557  1.2801
  110THF    H11 1428   4.585   1.114   5.700  0.5311  0.5965  2.6199
  110THF    H12 1429   4.646   1.016   5.496 -0.7216  2.5137  1.2866
  110THF    H13 1430   4.490   0.928   5.531 -2.0532  0.0726  0.9519
  111THF     O1 1431   4.408   4.180   3.801 -0.1844  0.1333 -0.3501
  111THF     C2 1432   4.389   4.205   3.939  0.1641 -0.2439 -1.1049
  111THF     C3 1433   4.342   4.054   3.764 -0.4732 -0.2267 -0.0786
  111THF     H4 1434   4.314   4.278   3.953 -0.3072 -0.7366  0.2566
  111THF     H5 1435   4.481   4.251   3.969 -0.4619  1.4284  0.9063
  111THF     H6 1436   4.237   4.069   3.758  1.5327 -0.5038  0.6013
  111THF     H7 1437   4.377   4.014   3.674  0.0512 -1.0154  0.9425
  111THF     C8 1438   4.381   3.968   3.892 -0.3630 -0.3968  0.8821
  111THF     C9 1439   4.356   4.074   4.002 -0.9843  0.6972  0.0217
  111THF    H10 1440   4.484   3.936   3.888  0.9429  1.3359  0.5776
  111THF    H11 1441   4.304   3.880   3.900  2.5206 -1.6237 -3.0936
  111THF    H12 1442   4.251   4.075   4.027  0.1358  1.2096  1.3972
  111THF    H13 1443   4.409   4.051   4.100 -1.4142 -0.2564 -1.0625
  112THF     O1 1444   4.110   2.564   2.329  0.1187 -0.1310  0.1626
  112THF     C2 1445   4.019   2.457   2.320 -0.0292 -0.1744  0.0342
  112THF     C3 1446   4.094   2.627   2.455 -0.0928  0.5827 -0.3088
  112THF     H4 1447   4.067   2.367   2.295 -2.7189  1.4660  0.7932
  112THF     H5 1448   3.944   2.477   2.243 -1.1338  0.3603  1.3071
  112THF     H6 1449   4.176   2.587   2.511  0.6376  3.1822 -2.0781
  112THF     H7 1450   4.108   2.731   2.456  1.1881 -1.0109  2.3944
  112THF     C8 1451   3.955   2.582   2.507 -0.6887  0.1052  0.2189
  112THF     C9 1452   3.939   2.440   2.455 -0.3508  0.5128  0.1917
  112THF    H10 1453   3.875   2.634   2.456  0.1190  0.2697 -3.0215
  112THF    H11 1454   3.927   2.584   2.609 -0.8039  1.9123 -2.2502
  112THF    H12 1455   3.974   2.364   2.530  1.3563 -1.4780  0.8151
  112THF    H13 1456   3.838   2.403   2.450 -0.5876 -2.0362  0.0563
  113THF     O1 1457   4.255   4.599   1.756 -0.2995 -0.5630 -0.2596
  113THF     C2 1458   4.266   4.539   1.888  0.2466  0.3255  0.7234
  113THF     C3 1459   4.289   4.503   1.665 -0.8314 -0.0968 -0.2907
  113THF     H4 1460   4.169   4.506   1.931  0.7751 -1.2094 -2.3536
  113THF     H5 1461   4.305   4.604   1.962  1.2102 -1.1908  0.4227
  113THF     H6 1462   4.210   4.428   1.639  0.7195  0.3408  0.8452
  113THF     H7 1463   4.317   4.559   1.573  0.2861  1.8857 -0.9928
  113THF     C8 1464   4.409   4.432   1.723  0.4045  1.2469  0.1135
  113THF     C9 1465   4.372   4.425   1.873 -0.0188 -0.0181 -0.4107
  113THF    H10 1466   4.507   4.484   1.714  1.3458  1.4630 -0.7290
  113THF    H11 1467   4.413   4.343   1.661 -0.1207  0.3148  1.7857
  113THF    H12 1468   4.327   4.332   1.905  2.4653 -1.1052  0.2794
  113THF    H13 1469   4.453   4.442   1.943 -3.6655  1.9763 -1.6344
  114THF     O1 1470   3.485   3.652   3.432 -0.0980  0.0564  0.0200
  114THF     C2 1471   3.539   3.610   3.558  0.2827  0.2222 -0.6029
  114THF     C3 1472   3.416   3.779   3.449  0.4238 -0.0384  0.0468
  114THF     H4 1473   3.641   3.584   3.549 -1.2035  0.4082 -0.3238
  114THF     H5 1474   3.479   3.521   3.583 -1.0044  0.9041  0.2003
  114THF     H6 1475   3.408   3.835   3.351 -2.0624  1.6941 -4.6115
  114THF     H7 1476   3.310   3.764   3.483 -1.1527  0.4176  0.6127
  114THF     C8 1477   3.484   3.849   3.569 -0.6886 -0.1971  0.7585
  114THF     C9 1478   3.503   3.725   3.660  0.2158  0.4815  0.5659
  114THF    H10 1479   3.422   3.929   3.604  1.7796  2.7578 -1.5451
  114THF    H11 1480   3.585   3.881   3.538  2.1444  0.9869 -0.2576
  114THF    H12 1481   3.578   3.738   3.739  0.3515 -1.0633 -1.7225
  114THF    H13 1482   3.409   3.709   3.718  2.4160 -0.6858  0.9419
  115THF     O1 1483   4.467   0.821   1.890 -0.0508  0.2230  0.0186
  115THF     C2 1484   4.328   0.770   1.895  0.2181  0.1804  0.5329
  115THF     C3 1485   4.475   0.908   1.778 -0.5778  1.0407  1.0342
  115THF     H4 1486   4.290   0.782   1.994  1.5147 -1.2556  0.6516
  115THF     H5 1487   4.326   0.669   1.854  0.9644 -0.0412  0.5636
  115THF     H6 1488   4.556   0.974   1.786 -0.3231  2.5158  1.2767
  115THF     H7 1489   4.493   0.859   1.686 -0.6448  0.6235  0.8424
  115THF     C8 1490   4.339   0.985   1.782  0.0311  0.2284  0.2451
  115THF     C9 1491   4.254   0.862   1.804  0.2156  0.0074 -0.5999
  115THF    H10 1492   4.322   1.042   1.692  1.8133  3.0981  2.0434
  115THF    H11 1493   4.338   1.061   1.866 -0.1026  2.3947  0.6588
  115THF    H12 1494   4.147   0.889   1.833 -1.2389  3.9315 -0.7654
  115THF    H13 1495   4.252   0.814   1.701  0.0344  2.1993  1.2432
  116THF     O1 1496   2.456   0.225   3.292 -0.2601  0.3878 -0.5147
  116THF     C2 1497   2.457   0.136   3.404  0.0590 -0.2108  0.9535
  116THF     C3 1498   2.385   0.161   3.190  0.3140  0.1429 -0.5293
  116THF     H4 1499   2.469   0.196   3.497  0.1896 -2.3205 -0.1358
  116THF     H5 1500   2.541   0.072   3.411  1.3477 -0.5239 -1.9691
  116THF     H6 1501   2.351   0.244   3.121  0.5232  0.5312 -4.1700
  116THF     H7 1502   2.453   0.102   3.132 -1.9495 -1.7677 -1.7327
  116THF     C8 1503   2.267   0.091   3.261  0.2039  0.0687 -1.4572
  116THF     C9 1504   2.329   0.055   3.398  0.0715  0.8189  0.0693
  116THF    H10 1505   2.226  -0.001   3.213 -0.8841  0.9315 -1.3653
  116THF    H11 1506   2.186   0.162   3.275  0.3774  1.0505 -0.5864
  116THF    H12 1507   2.266   0.101   3.476 -0.4695 -0.6996  0.8823
  116THF    H13 1508   2.344  -0.054   3.420 -0.0549  3.1296  3.6589
  117THF     O1 1509   4.529   4.714   1.417  0.0412 -0.5170  0.2718
  117THF     C2 1510   4.664   4.672   1.464  0.6766 -0.7695  0.0812
  117THF     C3 1511   4.534   4.785   1.289 -0.0698 -0.4969 -1.0885
  117THF     H4 1512   4.663   4.564   1.495  0.0245  0.7658 -0.8008
  117THF     H5 1513   4.697   4.728   1.551  0.0294 -2.1683  1.8860
  117THF     H6 1514   4.443   4.772   1.234  0.8318  1.2283  0.4230
  117THF     H7 1515   4.547   4.890   1.291 -2.1169 -0.7285  0.9690
  117THF     C8 1516   4.662   4.727   1.226 -0.1059  0.8530  0.6513
  117THF     C9 1517   4.755   4.702   1.339  0.4467  0.5148 -0.5383
  117THF    H10 1518   4.702   4.796   1.155  1.9459 -2.7030 -3.0472
  117THF    H11 1519   4.630   4.629   1.178 -0.7550  1.9256 -0.1453
  117THF    H12 1520   4.821   4.619   1.329 -0.9850 -0.2316  0.2532
  117THF    H13 1521   4.811   4.792   1.351  2.6471  0.2267 -1.9669
  118THF     O1 1522   4.982   1.400   4.813 -0.3109 -0.0548  0.1460
  118THF     C2 1523   5.029   1.538   4.807 -1.1142  0.1809  0.5474
  118THF     C3 1524   4.894   1.384   4.699  0.2397  0.2921 -0.4365
  118THF     H4 1525   5.124   1.546   4.850 -2.5478  3.0399 -0.1675
  118THF     H5 1526   4.957   1.609   4.848  0.3752  3.4956  0.6113
  118THF     H6 1527   4.907   1.283   4.656  0.1200 -1.6922  0.5980
  118THF     H7 1528   4.802   1.400   4.750 -0.4030  0.8918 -2.2254
  118THF     C8 1529   4.915   1.497   4.597 -0.0547 -0.3391  0.4568
  118THF     C9 1530   5.033   1.568   4.655  0.5057 -0.6209 -0.2237
  118THF    H10 1531   4.827   1.564   4.600  0.0301  3.1324 -0.2373
  118THF    H11 1532   4.941   1.471   4.490 -0.8977  0.2262  0.8632
  118THF    H12 1533   5.122   1.529   4.610 -2.1022 -2.4992  0.1339
  118THF    H13 1534   5.028   1.683   4.639 -0.4391  3.7782  0.7700
  119THF     O1 1535   3.578   3.254   4.929  0.8623 -0.4802 -0.1984
  119THF     C2 1536   3.582   3.401   4.916 -0.2386  0.7293  0.2055
  119THF     C3 1537   3.594   3.207   4.795 -0.2161  0.0753 -0.9057
  119THF     H4 1538   3.576   3.451   5.015 -2.8290  1.4163  0.7687
  119THF     H5 1539   3.487   3.436   4.878  0.2991 -0.1857  0.3893
  119THF     H6 1540   3.648   3.114   4.788  1.2022 -0.9285  3.0199
  119THF     H7 1541   3.496   3.191   4.744  1.1440 -0.5704 -2.6346
  119THF     C8 1542   3.672   3.309   4.722 -0.0959 -0.9177  0.0582
  119THF     C9 1543   3.701   3.421   4.822 -0.4731  0.2175  0.3290
  119THF    H10 1544   3.612   3.356   4.642  1.5325  2.5862  1.9534
  119THF    H11 1545   3.752   3.260   4.669  1.6071  0.0787 -1.6510
  119THF    H12 1546   3.801   3.417   4.865 -0.4986 -1.0610 -2.6030
  119THF    H13 1547   3.688   3.515   4.770 -2.1361 -1.8071 -1.7895
  120THF     O1 1548   5.427   0.582   2.147  0.1564 -0.6831 -0.6762
  120THF     C2 1549   5.515   0.539   2.042 -0.1910  0.1003 -0.0943
  120THF     C3 1550   5.330   0.483   2.184  0.2234  0.1034 -0.5966
  120THF     H4 1551   5.614   0.545   2.090  0.9096  2.7616 -0.9212
  120THF     H5 1552   5.526   0.611   1.960  1.1597  0.1897  1.0922
  120THF     H6 1553   5.304   0.473   2.289  1.1591 -0.1948 -1.8331
  120THF     H7 1554   5.238   0.481   2.133 -1.0790  0.1664  0.5157
  120THF     C8 1555   5.401   0.355   2.136  0.3260  0.3293  0.3955
  120THF     C9 1556   5.477   0.395   2.016 -1.0572 -0.2348  0.1117
  120THF    H10 1557   5.326   0.275   2.111 -1.3140 -0.6541 -0.4359
  120THF    H11 1558   5.460   0.311   2.216 -0.0072  0.0372  3.4032
  120THF    H12 1559   5.561   0.326   1.992 -1.2475  0.4507  2.5046
  120THF    H13 1560   5.406   0.394   1.932  0.9955  1.5896  0.3396
  121THF     O1 1561   0.613   4.104   0.695  0.3931  0.3515  0.5402
  121THF     C2 1562   0.524   4.159   0.601 -0.7992  0.2540  0.5474
  121THF     C3 1563   0.604   3.958   0.683  1.3988 -0.1266 -0.4725
  121THF     H4 1564   0.569   4.204   0.515 -3.5909  0.9271  1.1751
  121THF     H5 1565   0.465   4.235   0.649  0.6278  0.2046 -1.1354
  121THF     H6 1566   0.675   3.922   0.604 -1.5197  0.0516 -1.3569
  121THF     H7 1567   0.618   3.906   0.781 -1.2619  1.4676  1.6103
  121THF     C8 1568   0.454   3.942   0.652 -0.1083 -0.8801  0.2729
  121THF     C9 1569   0.428   4.051   0.545 -0.2796 -0.2735  0.0313
  121THF    H10 1570   0.387   3.949   0.739  0.6220 -1.9658 -0.6915
  121THF    H11 1571   0.442   3.844   0.603 -1.8002  1.1557  1.0906
  121THF    H12 1572   0.459   4.019   0.448  1.0467 -0.4312  1.6798
  121THF    H13 1573   0.327   4.075   0.558  1.9867  0.7025 -1.2035
  122THF     O1 1574   2.030   2.383   0.112  0.5945  0.2604  0.2160
  122THF     C2 1575   2.153   2.405   0.176 -0.3961 -0.0634  0.6576
  122THF     C3 1576   2.031   2.454  -0.011 -0.6822 -0.1747  0.1009
  122THF     H4 1577   2.218   2.316   0.157 -0.7962 -1.3827 -0.5234
  122THF     H5 1578   2.150   2.400   0.290 -0.4598  1.1642  3.7427
  122THF     H6 1579   2.093   2.405  -0.084  0.2190 -1.6945 -0.3870
  122THF     H7 1580   1.930   2.462  -0.050  1.4514  2.3639 -1.7997
  122THF     C8 1581   2.105   2.585   0.016 -0.0481  0.1738  0.4691
  122THF     C9 1582   2.208   2.535   0.115  0.0103 -0.1702  0.5916
  122THF    H10 1583   2.028   2.655   0.056  1.8682 -1.9629 -0.2978
  122THF    H11 1584   2.141   2.628  -0.075 -1.4873 -0.1028 -0.1372
  122THF    H12 1585   2.306   2.510   0.068  3.9069  2.7787 -0.5128
  122THF    H13 1586   2.232   2.611   0.189 -0.5191  1.1432 -0.9602
  123THF     O1 1587   2.024   0.298   2.471 -0.5361  0.1906 -0.4837
  123THF     C2 1588   1.952   0.187   2.419  0.3786 -0.2746 -0.3933
  123THF     C3 1589   2.048   0.392   2.365  0.3674  0.7784 -0.0109
  123THF     H4 1590   1.849   0.212   2.410 -0.2776 -1.0974  0.6147
  123THF     H5 1591   1.959   0.096   2.467  2.9500 -1.7829 -2.0707
  123THF     H6 1592   1.963   0.458   2.361 -2.1118 -3.0758 -0.0441
  123THF     H7 1593   2.142   0.448   2.375  0.3810 -2.2999 -0.1049
  123THF     C8 1594   2.032   0.307   2.232  0.7285  0.4005  0.3806
  123THF     C9 1595   2.015   0.165   2.283 -0.0328  1.0111 -0.3390
  123THF    H10 1596   2.118   0.337   2.168  1.7881  2.2415 -3.0565
  123THF    H11 1597   1.940   0.342   2.185  1.2664  0.4137 -1.2810
  123THF    H12 1598   1.962   0.095   2.221  0.6324  0.5149  2.0262
  123THF    H13 1599   2.125   0.117   2.291  1.0065 -0.6232  1.1908
  124THF     O1 1600   4.286   5.316   1.405 -0.4002  0.6822 -0.9661
  124THF     C2 1601   4.418   5.339   1.369 -0.6464  0.0662 -0.1763
  124THF     C3 1602   4.234   5.218   1.324  0.2504 -0.2512  0.3670
  124THF     H4 1603   4.485   5.339   1.459  3.3271 -2.4874 -0.3749
  124THF     H5 1604   4.426   5.435   1.323  0.1082 -0.8903 -1.8042
  124THF     H6 1605   4.235   5.120   1.374 -0.3958  3.4280 -0.6493
  124THF     H7 1606   4.131   5.245   1.285 -0.7472  0.2743  0.4746
  124THF     C8 1607   4.328   5.209   1.202 -0.3094 -0.1519  0.1036
  124THF     C9 1608   4.454   5.222   1.281 -0.2978 -0.2884 -0.0544
  124THF    H10 1609   4.302   5.292   1.135 -0.3235 -1.7428  1.7446
  124THF    H11 1610   4.318   5.111   1.153  1.3010  2.9352 -2.5452
  124THF    H12 1611   4.474   5.134   1.335 -2.4591  0.5345 -0.7583
  124THF    H13 1612   4.541   5.255   1.228 -2.9574  1.0437  1.7089
  125THF     O1 1613   0.712   1.778   1.916 -0.1749 -0.0482  0.0290
  125THF     C2 1614   0.648   1.835   2.030 -0.5531  0.0038  0.4798
  125THF     C3 1615   0.852   1.782   1.937 -0.0609  0.0659  0.5296
  125THF     H4 1616   0.547   1.792   2.034  1.2892  0.1507 -1.8711
  125THF     H5 1617   0.648   1.940   2.031  1.4073 -0.9143 -0.9058
  125THF     H6 1618   0.896   1.691   1.899  1.1417  0.7766 -0.2361
  125THF     H7 1619   0.905   1.877   1.892  0.7331  2.0536  0.7064
  125THF     C8 1620   0.879   1.799   2.084  0.1280 -1.0794  0.2110
  125THF     C9 1621   0.739   1.777   2.142 -0.2041  0.0653  0.0589
  125THF    H10 1622   0.928   1.896   2.107  0.0843 -0.9486  1.0130
  125THF    H11 1623   0.955   1.728   2.116  1.6781  0.5277  0.1357
  125THF    H12 1624   0.720   1.672   2.146 -0.1172  0.3812 -3.7603
  125THF    H13 1625   0.722   1.827   2.239 -1.0067 -3.0654 -0.9187
  126THF     O1 1626   3.224   1.344   0.511 -0.2948  0.8019  0.0808
  126THF     C2 1627   3.237   1.403   0.380  0.3941 -0.1942  0.5133
  126THF     C3 1628   3.307   1.231   0.514 -0.1766  0.2161 -1.1326
  126THF     H4 1629   3.306   1.481   0.387 -2.6964 -0.3402 -0.3744
  126THF     H5 1630   3.153   1.452   0.348 -0.1159 -0.4353 -0.3200
  126THF     H6 1631   3.408   1.265   0.546 -0.8252 -1.1103 -1.5740
  126THF     H7 1632   3.286   1.151   0.587 -0.0155 -0.0731 -0.4544
  126THF     C8 1633   3.315   1.169   0.379  0.5837  0.3303  0.0785
  126THF     C9 1634   3.283   1.288   0.288 -0.0549 -0.5430  0.7286
  126THF    H10 1635   3.258   1.079   0.358  0.9563  1.6726 -0.3081
  126THF    H11 1636   3.407   1.121   0.374  0.4716 -2.4452  2.9577
  126THF    H12 1637   3.356   1.308   0.211 -0.0267 -1.6053 -0.6812
  126THF    H13 1638   3.196   1.256   0.228  0.6925  4.6574 -0.2480
  127THF     O1 1639   2.052   2.800   4.436  0.0196  0.1241 -0.6752
  127THF     C2 1640   2.071   2.921   4.354  0.4600  0.0830  0.5166
  127THF     C3 1641   1.935   2.828   4.511 -0.3179  0.0012 -0.9041
  127THF     H4 1642   2.002   2.916   4.266 -1.9793  1.8743  1.6415
  127THF     H5 1643   2.175   2.937   4.315  0.1635  0.5953  1.8284
  127THF     H6 1644   1.847   2.815   4.456  0.8969 -1.9578  0.7640
  127THF     H7 1645   1.922   2.778   4.608 -0.0573 -0.7854  1.4272
  127THF     C8 1646   1.941   2.975   4.550 -0.2966  0.2585  0.1775
  127THF     C9 1647   2.034   3.037   4.446  0.6168  0.8230 -0.5683
  127THF    H10 1648   1.988   2.982   4.649  0.0403  0.7078 -2.6423
  127THF    H11 1649   1.851   3.035   4.559  2.0889  0.9801 -1.6268
  127THF    H12 1650   1.971   3.102   4.387 -1.3194 -1.7630 -0.9461
  127THF    H13 1651   2.121   3.087   4.493 -0.6590  1.5462 -0.7975
  128THF     O1 1652   2.965   2.705   5.336  0.0673 -0.6770 -0.1131
  128THF     C2 1653   3.051   2.631   5.418  0.2330  0.0883 -0.1820
  128THF     C3 1654   2.930   2.627   5.223  0.6463 -0.4502 -0.4265
  128THF     H4 1655   2.997   2.561   5.476 -1.1945 -1.4202 -0.6339
  128THF     H5 1656   3.101   2.700   5.488 -0.2789 -1.0832 -1.1531
  128THF     H6 1657   2.829   2.586   5.238  0.4361 -0.8484 -0.4845
  128THF     H7 1658   2.926   2.697   5.139 -0.9053 -0.8045  0.2078
  128THF     C8 1659   3.040   2.527   5.202  0.0115 -0.3274  0.9115
  128THF     C9 1660   3.140   2.563   5.311 -0.2580 -0.6738 -0.4100
  128THF    H10 1661   3.096   2.545   5.100 -0.3732  0.8097 -1.1253
  128THF    H11 1662   2.994   2.434   5.193 -0.4761 -2.0699 -0.6306
  128THF    H12 1663   3.188   2.474   5.348  1.5498  0.0661 -2.3902
  128THF    H13 1664   3.219   2.628   5.271  0.4066  2.1551 -0.4424
  129THF     O1 1665   2.436   2.633   4.592 -0.2849 -0.6222  0.3307
  129THF     C2 1666   2.488   2.524   4.519 -1.4559  0.3325 -0.5334
  129THF     C3 1667   2.313   2.681   4.535  0.6400  0.1386 -0.5987
  129THF     H4 1668   2.473   2.434   4.579 -3.5011 -0.6395  1.1783
  129THF     H5 1669   2.591   2.540   4.503 -1.9955  1.1261 -1.5081
  129THF     H6 1670   2.230   2.630   4.583 -2.1693 -1.2852  2.3511
  129THF     H7 1671   2.300   2.794   4.546 -0.2793  1.1484 -1.0003
  129THF     C8 1672   2.321   2.651   4.393  0.2230  0.1766 -0.0580
  129THF     C9 1673   2.415   2.531   4.387 -0.8087 -0.4188  0.4400
  129THF    H10 1674   2.364   2.738   4.345  0.5079 -0.9664 -0.8621
  129THF    H11 1675   2.228   2.618   4.349  2.4904  1.6208 -0.3298
  129THF    H12 1676   2.366   2.431   4.380  1.8237 -0.7637 -1.7297
  129THF    H13 1677   2.490   2.538   4.308  0.0370  0.6134 -0.0528
  130THF     O1 1678   1.464   4.999   5.355 -0.4334 -0.0299 -0.0910
  130THF     C2 1679   1.554   5.095   5.319 -0.0946 -0.1835 -0.4534
  130THF     C3 1680   1.347   5.069   5.400  0.0882 -0.2037  0.6754
  130THF     H4 1681   1.618   5.056   5.244  0.7794  1.3414 -1.0317
  130THF     H5 1682   1.608   5.130   5.409 -0.3249  0.2735 -1.8965
  130THF     H6 1683   1.264   5.000   5.412 -1.3490 -0.3106 -0.6991
  130THF     H7 1684   1.357   5.133   5.483  0.2368 -1.2070 -0.9840
  130THF     C8 1685   1.339   5.157   5.276  0.0881  0.6922 -0.9293
  130THF     C9 1686   1.476   5.218   5.276  0.7801  0.6864 -0.3457
  130THF    H10 1687   1.258   5.228   5.281  0.3377 -1.0784 -1.4407
  130THF    H11 1688   1.326   5.093   5.190  1.9757 -0.1707  2.8480
  130THF    H12 1689   1.498   5.260   5.178  0.0463  3.0814  3.2926
  130THF    H13 1690   1.490   5.294   5.348  1.3889  0.8920 -0.7569
  131THF     O1 1691   0.227   4.085   2.804 -0.1834 -0.1147  0.2273
  131THF     C2 1692   0.335   4.163   2.826  0.0022  0.0310  0.4271
  131THF     C3 1693   0.217   4.044   2.672  0.8635 -0.0511  0.7029
  131THF     H4 1694   0.367   4.184   2.927 -0.8925 -0.0599 -2.6676
  131THF     H5 1695   0.314   4.261   2.786 -1.3008  0.0496 -0.0468
  131THF     H6 1696   0.154   3.954   2.671 -2.5208 -2.5613 -1.2681
  131THF     H7 1697   0.181   4.132   2.609  2.9682  0.7190  0.3669
  131THF     C8 1698   0.359   4.017   2.636 -0.0591 -0.8586 -0.5509
  131THF     C9 1699   0.440   4.101   2.734  0.0691  0.2736  0.0379
  131THF    H10 1700   0.357   4.068   2.537  0.6063  2.3578 -0.4343
  131THF    H11 1701   0.386   3.917   2.631  0.0707 -2.4438  0.7880
  131THF    H12 1702   0.509   4.036   2.784 -2.9668 -1.9861 -0.2925
  131THF    H13 1703   0.500   4.155   2.664 -3.3545  0.0854  0.9084
  132THF     O1 1704   1.256   1.558   2.003 -0.2304  0.7880  0.6192
  132THF     C2 1705   1.254   1.499   2.132  0.3930 -0.5496  0.1545
  132THF     C3 1706   1.327   1.675   2.012 -0.2129  0.0607 -0.4489
  132THF     H4 1707   1.220   1.401   2.127 -1.0492 -0.5132 -1.2776
  132THF     H5 1708   1.179   1.556   2.184 -1.5678 -0.7436  0.2673
  132THF     H6 1709   1.379   1.681   1.914 -0.7049 -1.8749 -2.4100
  132THF     H7 1710   1.256   1.759   2.015  2.5484 -0.7361  0.7550
  132THF     C8 1711   1.404   1.668   2.144  0.3454  0.2219 -0.4918
  132THF     C9 1712   1.384   1.524   2.192  0.0475  0.7050 -0.0007
  132THF    H10 1713   1.346   1.734   2.214 -0.2154  0.0425 -0.1380
  132THF    H11 1714   1.508   1.704   2.152 -0.6951  1.1538  1.5335
  132THF    H12 1715   1.463   1.460   2.155 -0.4120 -0.5211  0.5878
  132THF    H13 1716   1.393   1.512   2.301  0.1697 -1.9176 -1.4501
  133THF     O1 1717   5.048   2.298   0.364 -0.5290  0.1672  0.5112
  133THF     C2 1718   5.096   2.192   0.272  0.2293  0.1557 -0.3047
  133THF     C3 1719   4.911   2.343   0.337  0.4653  1.0798 -0.3780
  133THF     H4 1720   5.094   2.090   0.322 -0.5602 -0.4585  1.5176
  133THF     H5 1721   5.198   2.216   0.244 -0.3680 -2.4931  1.7199
  133THF     H6 1722   4.850   2.331   0.423  1.3412  2.4422  0.5396
  133THF     H7 1723   4.911   2.445   0.306  2.4292  0.7197 -2.1390
  133THF     C8 1724   4.873   2.246   0.224  0.2508 -0.5607 -0.1181
  133THF     C9 1725   4.998   2.210   0.153 -0.2727 -0.4386  0.8236
  133THF    H10 1726   4.792   2.287   0.164  0.8715 -0.9443  2.2516
  133THF    H11 1727   4.828   2.159   0.273 -0.1697  1.1890  1.6546
  133THF    H12 1728   4.990   2.125   0.081 -0.0361 -2.5520 -1.9868
  133THF    H13 1729   5.034   2.290   0.082 -0.9024 -1.2707  0.1366
  134THF     O1 1730   3.996   4.375   0.068 -0.1439  0.0382 -0.0791
  134THF     C2 1731   3.983   4.385  -0.072 -0.4460 -0.5013  0.1681
  134THF     C3 1732   4.106   4.469   0.105 -0.3508  0.0420 -0.4057
  134THF     H4 1733   3.889   4.351  -0.109  0.9542  1.8001 -0.9373
  134THF     H5 1734   4.070   4.340  -0.127  0.7134 -0.3752 -2.2979
  134THF     H6 1735   4.083   4.515   0.208 -0.6269  3.1904  1.0285
  134THF     H7 1736   4.199   4.412   0.116  2.4902 -3.1579 -1.2270
  134THF     C8 1737   4.106   4.574   0.001 -0.5363 -0.5013 -0.6883
  134THF     C9 1738   3.989   4.537  -0.084  0.0027 -0.0206 -0.5130
  134THF    H10 1739   4.201   4.562  -0.057  1.1272  0.0385  1.2088
  134THF    H11 1740   4.106   4.679   0.043  0.9007  2.5040  2.8756
  134THF    H12 1741   3.890   4.574  -0.055  1.4686 -1.2565  0.8721
  134THF    H13 1742   4.004   4.554  -0.190 -2.7413  1.0683 -0.2871
  135THF     O1 1743   0.853   5.093   1.158 -0.4082 -0.0043 -0.5238
  135THF     C2 1744   0.973   5.165   1.190  0.3521  0.0485 -0.0100
  135THF     C3 1745   0.745   5.196   1.148 -0.0084 -0.2343 -0.4341
  135THF     H4 1746   1.031   5.198   1.107  0.8939 -1.7425 -1.4944
  135THF     H5 1747   1.028   5.089   1.248  0.4470 -0.2753  1.1922
  135THF     H6 1748   0.763   5.249   1.056 -0.2749 -1.0866 -1.3991
  135THF     H7 1749   0.647   5.148   1.143 -2.1284 -0.8564 -1.6326
  135THF     C8 1750   0.772   5.294   1.255 -0.2343 -0.3537  0.0011
  135THF     C9 1751   0.929   5.276   1.278 -0.8556 -0.2798  0.3412
  135THF    H10 1752   0.712   5.262   1.343 -0.6745  0.4998 -0.5028
  135THF    H11 1753   0.734   5.393   1.224 -0.4451  0.2721  0.4615
  135THF    H12 1754   0.991   5.359   1.242  2.5220  1.9525 -0.2029
  135THF    H13 1755   0.951   5.256   1.377  1.2858 -0.6807 -2.4767
  136THF     O1 1756   2.580   5.225   2.967  0.1023  0.7468 -0.9169
  136THF     C2 1757   2.566   5.334   3.063 -0.5154 -0.1128  0.0973
  136THF     C3 1758   2.650   5.121   3.034 -0.0812  0.1601  0.2973
  136THF     H4 1759   2.463   5.374   3.044 -1.4224 -1.0981 -1.5632
  136THF     H5 1760   2.632   5.423   3.055  0.9549  1.5586  0.6991
  136THF     H6 1761   2.647   5.024   2.987 -2.4366 -0.1512  1.6905
  136THF     H7 1762   2.757   5.152   3.025 -1.2854  1.5134 -1.1413
  136THF     C8 1763   2.583   5.123   3.173 -0.1402 -0.0649 -0.5316
  136THF     C9 1764   2.581   5.272   3.198 -0.6753 -0.0586  0.2733
  136THF    H10 1765   2.649   5.080   3.249  1.1101 -1.2694  4.2623
  136THF    H11 1766   2.487   5.065   3.176 -1.3769 -0.9701 -0.5297
  136THF    H12 1767   2.507   5.299   3.276 -1.7253 -0.9365 -4.4060
  136THF    H13 1768   2.685   5.297   3.241  1.2028 -1.4341  1.8093
  137THF     O1 1769   2.288   2.762   4.830  0.2519  0.2853 -0.0546
  137THF     C2 1770   2.276   2.902   4.837 -0.3192  0.0993  0.3028
  137THF     C3 1771   2.159   2.705   4.868  0.3875 -0.0455  0.0320
  137THF     H4 1772   2.230   2.931   4.747  2.7121  0.2904 -2.1081
  137THF     H5 1773   2.371   2.950   4.835  0.9808  1.5368 -0.3126
  137THF     H6 1774   2.084   2.711   4.794 -0.1117 -1.9145  2.0381
  137THF     H7 1775   2.159   2.601   4.887  0.3761 -1.2381 -0.7492
  137THF     C8 1776   2.105   2.797   4.981 -0.0968 -0.2033 -0.0730
  137THF     C9 1777   2.188   2.923   4.971  0.5216 -0.5012  0.1463
  137THF    H10 1778   2.099   2.746   5.086  0.2129 -0.9349 -1.7346
  137THF    H11 1779   2.004   2.828   4.950  1.2695 -0.2010  4.4609
  137THF    H12 1780   2.117   3.008   4.958  0.4208  1.7766  1.8672
  137THF    H13 1781   2.254   2.946   5.055  1.5012  1.1078 -0.3335
  138THF     O1 1782   1.965   5.263   3.767 -0.2084 -0.1392  0.2439
  138THF     C2 1783   1.908   5.353   3.664 -0.0489  0.3033 -0.0790
  138THF     C3 1784   2.057   5.334   3.843  0.2082 -0.4924  0.2049
  138THF     H4 1785   1.851   5.423   3.720 -0.7651  1.2837 -0.3856
  138THF     H5 1786   1.841   5.306   3.586 -0.2183  1.8475 -0.5151
  138THF     H6 1787   2.007   5.405   3.921 -1.4725  2.6800 -0.1752
  138THF     H7 1788   2.125   5.264   3.896  1.2105  0.8594 -0.1124
  138THF     C8 1789   2.129   5.414   3.739 -0.2185 -0.1509  0.1700
  138THF     C9 1790   2.042   5.406   3.610 -1.3214  0.5253 -0.0760
  138THF    H10 1791   2.223   5.369   3.715 -2.0299 -0.6574 -0.1315
  138THF    H11 1792   2.147   5.516   3.780  3.3175  0.0374  1.7177
  138THF    H12 1793   2.033   5.503   3.568 -0.2084  0.8455  0.3889
  138THF    H13 1794   2.073   5.344   3.529 -0.1167  1.2513  2.1428
  139THF     O1 1795   1.206   4.491   2.036  0.2464  0.3387  0.2184
  139THF     C2 1796   1.270   4.494   1.906 -0.7250 -0.5415  0.1984
  139THF     C3 1797   1.062   4.489   2.021  0.1388 -0.4358  0.8854
  139THF     H4 1798   1.351   4.425   1.894  1.0372 -2.1427 -0.5120
  139THF     H5 1799   1.308   4.598   1.896 -2.5550  1.7766  0.6160
  139THF     H6 1800   1.020   4.392   2.027  0.1249  1.9552 -0.5769
  139THF     H7 1801   1.024   4.558   2.092  1.1881  1.4308  0.7321
  139THF     C8 1802   1.033   4.530   1.878 -0.0965  0.8505  0.3410
  139THF     C9 1803   1.155   4.466   1.811  1.0246  0.0767 -0.0896
  139THF    H10 1804   1.047   4.639   1.867  4.4651 -0.6469  0.4149
  139THF    H11 1805   0.932   4.482   1.857  0.9005 -0.1796 -1.3793
  139THF    H12 1806   1.143   4.362   1.799  3.0887  0.0125 -1.3197
  139THF    H13 1807   1.174   4.501   1.707  0.4249 -2.1713 -0.8956
  140THF     O1 1808   1.746   0.659   3.864  0.4171  0.0492 -0.3273
  140THF     C2 1809   1.826   0.773   3.895  0.8373  0.7572  0.3677
  140THF     C3 1810   1.755   0.567   3.967  0.0042 -0.7008 -0.2781
  140THF     H4 1811   1.793   0.864   3.836 -2.1797  0.1656 -0.2178
  140THF     H5 1812   1.923   0.748   3.864 -4.1407  2.6860  1.4738
  140THF     H6 1813   1.672   0.496   3.977  2.2132 -0.4288  1.1127
  140THF     H7 1814   1.847   0.514   3.966 -2.0343 -0.1273 -4.2038
  140THF     C8 1815   1.765   0.656   4.095  0.0315 -0.2791 -0.6013
  140THF     C9 1816   1.818   0.790   4.047 -0.3702 -0.4264  0.5940
  140THF    H10 1817   1.835   0.615   4.170  0.2813 -0.0681 -0.1271
  140THF    H11 1818   1.655   0.655   4.130 -2.9980 -1.0528  0.8064
  140THF    H12 1819   1.741   0.868   4.072  0.6743 -0.3774  0.7587
  140THF    H13 1820   1.914   0.827   4.102  1.2092  1.1889  0.8987
  141THF     O1 1821   1.353   4.609   4.880  0.1242 -0.6218  0.1371
  141THF     C2 1822   1.251   4.655   4.967 -0.9456  0.2170 -0.2791
  141THF     C3 1823   1.475   4.618   4.945  1.0502  0.7390  0.0864
  141THF     H4 1824   1.145   4.611   4.951 -2.2882 -0.7327  0.8449
  141THF     H5 1825   1.222   4.760   4.961 -0.5042  0.3343  1.0299
  141THF     H6 1826   1.531   4.528   4.944  0.8114 -0.8086  1.6612
  141THF     H7 1827   1.534   4.690   4.891  0.3128 -2.1195 -1.9482
  141THF     C8 1828   1.455   4.643   5.092 -0.3776 -0.5469  0.0333
  141THF     C9 1829   1.305   4.637   5.109  0.5350  0.0802  0.3739
  141THF    H10 1830   1.486   4.743   5.115 -0.0365 -1.4871  2.9040
  141THF    H11 1831   1.510   4.580   5.155 -0.4149  0.5792  0.2477
  141THF    H12 1832   1.271   4.547   5.153 -2.8070 -1.5088  1.3815
  141THF    H13 1833   1.261   4.707   5.180 -1.1951 -1.1174 -0.5298
  142THF     O1 1834   2.661   0.095   4.265  0.5466  0.0105 -0.2100
  142THF     C2 1835   2.550   0.121   4.176 -0.1702  0.9634 -0.5834
  142THF     C3 1836   2.608   0.123   4.393  0.4416 -0.5065 -0.1145
  142THF     H4 1837   2.477   0.041   4.171 -0.9253  0.9427  1.2439
  142THF     H5 1838   2.573   0.131   4.065 -1.3112 -1.7121 -0.8445
  142THF     H6 1839   2.541   0.044   4.429 -1.5178  0.3259 -0.5866
  142THF     H7 1840   2.689   0.134   4.466  0.1013 -0.8614  2.6940
  142THF     C8 1841   2.534   0.253   4.378 -0.9132  0.3519  0.0213
  142THF     C9 1842   2.497   0.245   4.230  0.2652 -0.7032  0.3672
  142THF    H10 1843   2.617   0.336   4.393 -1.9988 -0.4511 -1.8398
  142THF    H11 1844   2.452   0.267   4.440  0.1714  2.4635 -0.9536
  142THF    H12 1845   2.386   0.232   4.229 -2.5492 -1.5844  0.4041
  142THF    H13 1846   2.523   0.326   4.176  0.2730  0.5882  4.7597
  143THF     O1 1847   1.429   5.195   3.618  0.1576  0.4011 -0.4337
  143THF     C2 1848   1.318   5.186   3.527  0.0117  0.6284 -0.7019
  143THF     C3 1849   1.519   5.292   3.580  0.1395 -0.0735 -0.3401
  143THF     H4 1850   1.227   5.129   3.553  1.1779 -0.2532 -3.0451
  143THF     H5 1851   1.341   5.143   3.433 -0.5923 -2.3211 -3.7599
  143THF     H6 1852   1.601   5.329   3.650  0.4104  1.3258  1.0204
  143THF     H7 1853   1.567   5.244   3.499  0.5535 -0.8467 -0.2226
  143THF     C8 1854   1.428   5.402   3.530 -0.0337 -0.5429 -0.1896
  143THF     C9 1855   1.293   5.333   3.523  0.1819  0.1978  0.0332
  143THF    H10 1856   1.452   5.438   3.433  0.8563  1.1561  0.8262
  143THF    H11 1857   1.427   5.481   3.603  1.2741  1.8577  0.1465
  143THF    H12 1858   1.228   5.368   3.603 -0.2616  1.5124  1.5837
  143THF    H13 1859   1.233   5.358   3.434 -2.3369  0.3865 -0.5597
  144THF     O1 1860   2.997   2.540   4.243 -0.2209 -0.6826  0.2450
  144THF     C2 1861   2.913   2.510   4.349 -0.2843  0.3104  0.3341
  144THF     C3 1862   2.978   2.439   4.149 -0.1382 -0.4945  0.6354
  144THF     H4 1863   2.902   2.605   4.398 -0.2734  1.1676 -1.7326
  144THF     H5 1864   2.943   2.428   4.421  2.2590  0.2859  2.3262
  144THF     H6 1865   3.021   2.465   4.055 -2.6331  0.6073  1.7857
  144THF     H7 1866   3.039   2.346   4.169  1.1104 -0.5222  0.1279
  144THF     C8 1867   2.829   2.424   4.134  0.4600  0.2162  0.4656
  144THF     C9 1868   2.785   2.474   4.270  0.2697 -0.1959  0.7869
  144THF    H10 1869   2.792   2.321   4.127 -0.5450 -0.7946 -0.8945
  144THF    H11 1870   2.777   2.488   4.051 -0.9468 -2.4122 -0.4165
  144THF    H12 1871   2.718   2.563   4.260 -0.5013 -0.3030  0.4313
  144THF    H13 1872   2.722   2.404   4.325  1.0848  1.1944 -0.3769
  145THF     O1 1873   0.513   4.571   1.651  0.8147  0.7683  0.6307
  145THF     C2 1874   0.428   4.472   1.703  0.3000 -0.4421  0.2605
  145THF     C3 1875   0.551   4.666   1.747  0.7138  0.4991  0.2014
  145THF     H4 1876   0.444   4.382   1.651 -0.4468 -2.0371  1.3107
  145THF     H5 1877   0.321   4.501   1.715  0.3861 -3.1266 -0.8614
  145THF     H6 1878   0.661   4.677   1.734 -0.0474 -1.5552 -0.2191
  145THF     H7 1879   0.509   4.765   1.745 -0.5145 -1.1239  3.3689
  145THF     C8 1880   0.515   4.603   1.878  0.1974  0.2946 -0.4847
  145THF     C9 1881   0.475   4.458   1.847  1.0621 -0.4253 -0.7847
  145THF    H10 1882   0.428   4.657   1.913  1.5172 -2.2863  1.4434
  145THF    H11 1883   0.588   4.611   1.960 -1.4949  1.3804  1.5312
  145THF    H12 1884   0.561   4.388   1.844 -1.4214 -0.5966 -1.8626
  145THF    H13 1885   0.399   4.419   1.915 -3.7958  0.6308  0.0256
  146THF     O1 1886   4.501   2.737   4.133  0.1944  0.1986  0.3864
  146THF     C2 1887   4.506   2.753   3.991 -0.1353 -1.0329 -0.4846
  146THF     C3 1888   4.362   2.713   4.162 -0.2485  0.1845 -0.0689
  146THF     H4 1889   4.528   2.659   3.950 -1.1649  2.3887 -0.7041
  146THF     H5 1890   4.578   2.823   3.961 -2.1643 -1.1944 -0.0034
  146THF     H6 1891   4.337   2.604   4.142  0.7456 -2.8313 -2.4821
  146THF     H7 1892   4.344   2.738   4.270 -1.7116  2.4293  1.7919
  146THF     C8 1893   4.280   2.799   4.066 -0.1113 -0.1840  0.2444
  146THF     C9 1894   4.366   2.793   3.939 -0.2396 -0.0901  0.4093
  146THF    H10 1895   4.269   2.903   4.108 -1.9793  1.4218  1.8689
  146THF    H11 1896   4.175   2.771   4.062 -2.7799  1.8440 -0.7159
  146THF    H12 1897   4.321   2.717   3.880  2.1317 -1.3015  3.2115
  146THF    H13 1898   4.364   2.882   3.878  0.4272  2.5139  1.2350
  147THF     O1 1899   0.585   4.744   1.309  0.2072 -0.3482  0.2629
  147THF     C2 1900   0.654   4.830   1.391 -0.2074 -0.4330 -0.3729
  147THF     C3 1901   0.447   4.766   1.312 -0.8160 -0.3773  0.1418
  147THF     H4 1902   0.751   4.838   1.343 -1.2707 -1.1102  0.8906
  147THF     H5 1903   0.669   4.791   1.491 -2.0213 -0.0239 -0.5179
  147THF     H6 1904   0.401   4.743   1.212  0.3224  0.8334 -0.5776
  147THF     H7 1905   0.401   4.715   1.405  1.1412 -0.6062  0.4373
  147THF     C8 1906   0.457   4.918   1.314  0.2558 -0.2838 -0.1209
  147THF     C9 1907   0.568   4.953   1.404 -0.2987 -0.0497 -0.0981
  147THF    H10 1908   0.366   4.965   1.348  1.6099  2.7829 -1.2518
  147THF    H11 1909   0.472   4.969   1.218  0.9883  1.2654  1.5862
  147THF    H12 1910   0.607   5.050   1.371 -3.5764 -0.8303 -2.3379
  147THF    H13 1911   0.529   4.962   1.504  1.3892  0.3039  1.7772
  148THF     O1 1912   1.107   1.530   1.299 -0.0808  0.2764  0.5884
  148THF     C2 1913   1.045   1.406   1.264 -0.6314 -0.0969  0.1003
  148THF     C3 1914   1.004   1.609   1.358  0.3987 -0.0466 -0.2335
  148THF     H4 1915   1.114   1.321   1.245 -0.2862  1.0915 -0.4112
  148THF     H5 1916   0.969   1.421   1.187 -1.0480  0.5611  0.2020
  148THF     H6 1917   1.036   1.700   1.410 -0.2115 -0.9463 -0.5557
  148THF     H7 1918   0.940   1.645   1.279 -1.1452  1.6983  1.6277
  148THF     C8 1919   0.924   1.505   1.439  0.2424  0.5023 -0.1113
  148THF     C9 1920   0.957   1.369   1.383 -0.0855 -0.1250 -0.2509
  148THF    H10 1921   0.817   1.520   1.443 -1.1563  0.2657  3.0152
  148THF    H11 1922   0.968   1.510   1.541  3.1858  2.4071 -1.3788
  148THF    H12 1923   1.021   1.310   1.459  0.9927 -2.4244 -1.9245
  148THF    H13 1924   0.875   1.305   1.351  1.9205  0.7420  0.8074
  149THF     O1 1925   1.408   4.688   4.542 -0.2411  0.0428 -0.2626
  149THF     C2 1926   1.501   4.770   4.478 -0.4936 -0.4718 -0.2027
  149THF     C3 1927   1.285   4.744   4.522  0.6335  0.4279  0.0652
  149THF     H4 1928   1.506   4.743   4.376  2.2388  2.2948  0.2701
  149THF     H5 1929   1.592   4.736   4.531  1.6588  2.0661  0.5794
  149THF     H6 1930   1.241   4.709   4.422  0.4761  0.9595 -3.5831
  149THF     H7 1931   1.210   4.734   4.606 -0.7429  0.3771 -3.2950
  149THF     C8 1932   1.313   4.889   4.505  0.6495  0.0080 -0.1772
  149THF     C9 1933   1.462   4.914   4.505 -0.5351  0.1321  0.6931
  149THF    H10 1934   1.260   4.950   4.578  1.0023 -2.7699 -2.2700
  149THF    H11 1935   1.276   4.911   4.410 -2.0932  0.2791 -1.3168
  149THF    H12 1936   1.493   4.980   4.426 -0.5538 -0.5199 -0.5166
  149THF    H13 1937   1.490   4.955   4.600 -0.4715 -2.2277 -0.3160
  150THF     O1 1938   4.356   3.752   4.682  0.2575  0.5864 -0.1209
  150THF     C2 1939   4.281   3.714   4.567 -0.3259 -0.2459  0.2815
  150THF     C3 1940   4.475   3.685   4.665 -0.1246 -0.4608  1.1985
  150THF     H4 1941   4.211   3.795   4.558 -2.8881 -1.6675  0.7512
  150THF     H5 1942   4.222   3.625   4.575 -0.5272  0.2570 -1.4564
  150THF     H6 1943   4.540   3.715   4.742 -1.4812 -1.9922  1.9088
  150THF     H7 1944   4.472   3.575   4.668  2.6843  1.8394 -0.3686
  150THF     C8 1945   4.508   3.734   4.524 -0.2821  0.3349  0.1442
  150THF     C9 1946   4.377   3.715   4.450 -0.3357 -0.4863  0.0157
  150THF    H10 1947   4.587   3.679   4.480  1.5928 -1.0777  0.5864
  150THF    H11 1948   4.540   3.836   4.527  0.5837  1.0954  1.1691
  150THF    H12 1949   4.361   3.802   4.388  0.0686 -1.7366  1.9418
  150THF    H13 1950   4.353   3.629   4.394  0.6194  1.3310 -1.1414
  151THF     O1 1951   1.063   3.999   1.222  0.2459  0.4077 -0.4718
  151THF     C2 1952   0.933   4.050   1.251  0.4638  0.2291 -0.0324
  151THF     C3 1953   1.094   3.910   1.329  0.5038  0.2377 -0.5500
  151THF     H4 1954   0.877   4.095   1.166 -1.3806 -1.0283 -2.7820
  151THF     H5 1955   0.947   4.136   1.313  1.4987  0.6718 -1.8094
  151THF     H6 1956   1.174   3.847   1.290 -1.1235 -0.3010 -1.2868
  151THF     H7 1957   1.134   3.970   1.418  1.0986  1.4248  0.6115
  151THF     C8 1958   0.963   3.836   1.353 -0.2843 -0.3384  0.5894
  151THF     C9 1959   0.860   3.945   1.331 -0.0785  0.3943  0.3432
  151THF    H10 1960   0.964   3.789   1.450 -1.2046  1.1577 -0.8447
  151THF    H11 1961   0.956   3.759   1.282  0.1639 -0.4346  0.0082
  151THF    H12 1962   0.761   3.918   1.300  0.7777  0.1355  0.0888
  151THF    H13 1963   0.847   3.992   1.429 -0.9270  0.7467 -0.3801
  152THF     O1 1964   4.127   1.208   0.093 -0.2765  0.2278 -0.5214
  152THF     C2 1965   3.991   1.254   0.083  0.2293 -0.4496  0.1246
  152THF     C3 1966   4.119   1.069   0.048  1.2113 -0.9269  1.1207
  152THF     H4 1967   3.951   1.271  -0.018 -0.3369 -2.3133  0.7636
  152THF     H5 1968   3.979   1.348   0.132 -0.7844  0.6996 -2.5483
  152THF     H6 1969   4.108   1.059  -0.059 -0.0697 -2.7938 -1.0457
  152THF     H7 1970   4.205   1.012   0.080  0.6381 -0.7780 -1.0448
  152THF     C8 1971   3.995   1.023   0.128 -0.6186  0.2320 -0.5662
  152THF     C9 1972   3.915   1.146   0.159  0.0163  0.1259 -0.4624
  152THF    H10 1973   4.028   0.964   0.214  2.6766  2.5749  3.7036
  152THF    H11 1974   3.937   0.948   0.072  0.2390  0.3484  0.4243
  152THF    H12 1975   3.816   1.116   0.133 -0.6066  2.4255  0.9459
  152THF    H13 1976   3.937   1.161   0.267  1.2771  1.7600 -0.9650
  153THF     O1 1977   2.845   4.681   2.857 -0.1774 -0.1254  0.1051
  153THF     C2 1978   2.842   4.567   2.937 -0.3962  0.1836 -0.8745
  153THF     C3 1979   2.870   4.792   2.950  0.0608 -0.3206  0.4574
  153THF     H4 1980   2.947   4.546   2.962  1.7753 -1.7562 -1.1421
  153THF     H5 1981   2.805   4.479   2.883  1.1310  1.4637 -0.6221
  153THF     H6 1982   2.974   4.796   2.979  0.8850  2.3473  0.2136
  153THF     H7 1983   2.841   4.884   2.912  0.8848 -3.2983 -1.3329
  153THF     C8 1984   2.780   4.758   3.076  0.7096 -0.7234  0.0107
  153THF     C9 1985   2.747   4.613   3.052 -0.0718  0.3317  0.4294
  153THF    H10 1986   2.685   4.804   3.077 -0.5295  0.8014 -0.6945
  153THF    H11 1987   2.835   4.778   3.173 -0.6723 -1.7214  0.4993
  153THF    H12 1988   2.751   4.548   3.144  2.1740  0.3627  3.3779
  153THF    H13 1989   2.640   4.609   3.010 -1.1793 -1.4269  0.9024
  154THF     O1 1990   0.630   4.158   1.575  0.0899  0.3602 -0.1372
  154THF     C2 1991   0.619   4.226   1.455 -0.6349 -0.2298  0.1844
  154THF     C3 1992   0.512   4.090   1.620 -0.2218 -0.4173  0.2484
  154THF     H4 1993   0.718   4.225   1.420  0.7568 -1.4280 -1.5891
  154THF     H5 1994   0.563   4.319   1.472  1.8073  0.9406  0.8479
  154THF     H6 1995   0.538   3.996   1.657  0.4967 -0.2362  1.1515
  154THF     H7 1996   0.454   4.150   1.689  1.3833 -2.1331 -0.7899
  154THF     C8 1997   0.432   4.073   1.493  0.0537 -0.4455 -0.1825
  154THF     C9 1998   0.524   4.133   1.389 -0.1082  0.0746 -0.1833
  154THF    H10 1999   0.349   4.136   1.495  2.1137 -1.0343  1.5981
  154THF    H11 2000   0.390   3.974   1.477  0.3319  0.2074  1.6986
  154THF    H12 2001   0.577   4.045   1.352 -0.8789  1.3283  0.1219
  154THF    H13 2002   0.467   4.182   1.311  0.0668 -3.2036  2.3207
  155THF     O1 2003   0.200   3.511   2.945  0.5832  0.4521  0.3209
  155THF     C2 2004   0.133   3.640   2.967  0.4476  0.3827  0.1260
  155THF     C3 2005   0.233   3.498   2.809 -0.0680  0.5323  0.2248
  155THF     H4 2006   0.172   3.687   3.053 -0.3212  0.9064 -0.3522
  155THF     H5 2007   0.034   3.625   2.991 -2.0285 -0.9242  0.1062
  155THF     H6 2008   0.311   3.423   2.814  0.3154  2.9377  1.8902
  155THF     H7 2009   0.155   3.465   2.746  0.0141 -0.1555 -0.5222
  155THF     C8 2010   0.267   3.641   2.762 -0.1021  0.9483 -0.1124
  155THF     C9 2011   0.160   3.722   2.841 -0.0992 -1.5895  0.1189
  155THF    H10 2012   0.258   3.649   2.650 -3.0286  1.0788 -2.0501
  155THF    H11 2013   0.371   3.661   2.790  0.9208  0.3191  1.1816
  155THF    H12 2014   0.182   3.827   2.869  0.1011  0.1584 -2.0040
  155THF    H13 2015   0.074   3.727   2.774 -0.2606  1.0676  0.2747
  156THF     O1 2016   5.011   2.690   3.646 -0.2618  0.5777 -0.0733
  156THF     C2 2017   4.909   2.604   3.694  0.1774 -0.0387  0.4881
  156THF     C3 2018   5.011   2.807   3.730 -0.5620  0.2270 -0.4465
  156THF     H4 2019   4.960   2.541   3.764 -0.0952  3.3411  1.0549
  156THF     H5 2020   4.874   2.542   3.619 -0.5227  1.4017 -1.0247
  156THF     H6 2021   5.073   2.788   3.820  2.2775  0.9094 -0.1268
  156THF     H7 2022   5.054   2.892   3.683  1.6829  1.0990  1.7596
  156THF     C8 2023   4.863   2.833   3.758  0.1968  0.2761 -0.1001
  156THF     C9 2024   4.803   2.688   3.760  0.3770 -1.0290  0.4386
  156THF    H10 2025   4.814   2.886   3.680 -0.9651  1.1230  0.9076
  156THF    H11 2026   4.864   2.886   3.853  2.0585  0.6487 -0.5914
  156THF    H12 2027   4.797   2.662   3.862  2.6234 -1.0503 -0.0121
  156THF    H13 2028   4.713   2.701   3.701 -0.5430  0.3939 -0.2627
  157THF     O1 2029   4.045   2.067   1.506 -0.0479  0.4043 -0.0993
  157THF     C2 2030   3.990   1.958   1.441 -0.2827 -0.3808 -0.6466
  157THF     C3 2031   4.183   2.038   1.527  0.0938 -0.3699 -0.2240
  157THF     H4 2032   3.893   1.973   1.396 -0.7023  0.7812  1.6265
  157THF     H5 2033   3.958   1.884   1.513 -1.4778 -1.4496 -0.6847
  157THF     H6 2034   4.237   2.131   1.529  0.2764 -3.0261 -0.8379
  157THF     H7 2035   4.199   1.989   1.630  0.8708 -0.9144  2.3443
  157THF     C8 2036   4.216   1.931   1.426  0.2148 -0.1359 -0.2475
  157THF     C9 2037   4.094   1.914   1.344  0.1453  0.2026 -0.3331
  157THF    H10 2038   4.219   1.837   1.479  0.6601 -1.4954 -0.4388
  157THF    H11 2039   4.306   1.934   1.380 -0.6540  0.4249 -0.2624
  157THF    H12 2040   4.094   1.983   1.260  0.7271  1.4577 -1.9230
  157THF    H13 2041   4.091   1.813   1.303  0.3004 -3.2694  0.8962
  158THF     O1 2042   1.256   3.576   2.028  0.2664 -0.1588  0.5251
  158THF     C2 2043   1.201   3.605   1.899 -0.3868  0.3681  0.9963
  158THF     C3 2044   1.353   3.677   2.059  0.1157 -0.5024  0.2782
  158THF     H4 2045   1.102   3.550   1.894 -1.0401  0.4090 -0.5777
  158THF     H5 2046   1.256   3.572   1.819  0.9411 -0.8737  3.7499
  158THF     H6 2047   1.340   3.695   2.169 -1.7393 -1.0079  0.1174
  158THF     H7 2048   1.455   3.644   2.030  1.9660  0.8650 -3.3133
  158THF     C8 2049   1.293   3.793   1.984  0.3572 -0.8150 -0.9224
  158THF     C9 2050   1.169   3.751   1.902  0.1538 -0.9680  0.1234
  158THF    H10 2051   1.380   3.825   1.919  2.7385 -1.0602  2.8061
  158THF    H11 2052   1.266   3.877   2.051 -2.7796 -2.1663  0.3102
  158THF    H12 2053   1.071   3.772   1.941  1.5963  2.2917 -3.3029
  158THF    H13 2054   1.174   3.794   1.800  1.1784 -0.8946  1.2479
  159THF     O1 2055   2.892   1.596   4.093  0.0784 -0.2828  0.6151
  159THF     C2 2056   2.852   1.726   4.067  1.0259 -0.0548  0.1625
  159THF     C3 2057   2.967   1.603   4.214 -0.4149  0.0163 -0.8670
  159THF     H4 2058   2.775   1.761   4.135  1.7778  3.3938  0.0032
  159THF     H5 2059   2.797   1.733   3.969  0.5456  1.8614 -1.6810
  159THF     H6 2060   2.909   1.589   4.307  1.4027  2.3462  1.9194
  159THF     H7 2061   3.039   1.527   4.232 -1.1637 -0.2982 -0.8622
  159THF     C8 2062   3.047   1.737   4.212  0.0561 -0.4717 -1.2856
  159THF     C9 2063   2.978   1.804   4.093  0.0759 -0.1752  0.1476
  159THF    H10 2064   3.153   1.716   4.194 -2.1127 -0.5868 -0.1690
  159THF    H11 2065   3.014   1.782   4.305 -0.2832  0.9694  0.3022
  159THF    H12 2066   2.973   1.914   4.101  0.3762 -1.1736  3.1953
  159THF    H13 2067   3.033   1.791   4.000 -0.8527  0.1629 -1.6557
  160THF     O1 2068   2.688   3.718   2.968  0.2602  0.5732 -0.5264
  160THF     C2 2069   2.683   3.696   3.111 -0.2767 -0.2362 -0.0315
  160THF     C3 2070   2.815   3.655   2.923  0.5588 -0.6196  0.4950
  160THF     H4 2071   2.660   3.593   3.119 -2.2759 -0.0031 -1.2033
  160THF     H5 2072   2.601   3.759   3.144 -2.1722  0.8186  1.2185
  160THF     H6 2073   2.817   3.567   2.872  0.6273 -0.5140 -0.7153
  160THF     H7 2074   2.844   3.728   2.842 -2.0652 -0.8387  1.1386
  160THF     C8 2075   2.910   3.652   3.037  0.8024  0.2746 -0.1500
  160THF     C9 2076   2.827   3.721   3.150 -0.4122 -0.5596  0.2492
  160THF    H10 2077   3.004   3.704   3.027  1.2695  1.3496  1.2756
  160THF    H11 2078   2.930   3.548   3.078  1.3161 -2.1611 -0.6937
  160THF    H12 2079   2.842   3.677   3.250  1.8598 -3.4613 -0.8444
  160THF    H13 2080   2.844   3.827   3.169 -0.8722  0.6827 -1.3610
  161THF     O1 2081   5.050   0.671   0.108  0.3634  0.1364  0.1390
  161THF     C2 2082   4.928   0.607   0.151 -0.9432 -0.1363  0.3997
  161THF     C3 2083   5.032   0.691  -0.031  0.1807 -0.2339  0.0797
  161THF     H4 2084   4.926   0.607   0.255 -3.1360  1.7379  1.1406
  161THF     H5 2085   4.914   0.510   0.105  0.5658 -0.3271  1.0763
  161THF     H6 2086   5.089   0.782  -0.055 -4.0203 -0.8342 -1.4752
  161THF     H7 2087   5.066   0.602  -0.091 -1.2889 -1.1202  0.3870
  161THF     C8 2088   4.885   0.737  -0.043  0.3664  0.9192 -0.2849
  161THF     C9 2089   4.820   0.693   0.088 -0.6807 -0.3908 -0.1794
  161THF    H10 2090   4.825   0.693  -0.123  0.3444 -0.4953 -1.9486
  161THF    H11 2091   4.870   0.845  -0.050 -0.6975  1.5080  2.9544
  161THF    H12 2092   4.816   0.779   0.156  0.6252 -0.8861 -0.6232
  161THF    H13 2093   4.727   0.642   0.073 -3.7412  1.3970 -1.5262
  162THF     O1 2094   3.803   2.535   4.507  0.2319  0.1267  0.3018
  162THF     C2 2095   3.900   2.437   4.543 -0.0345  0.1371 -0.7535
  162THF     C3 2096   3.687   2.530   4.578  0.7924 -0.3081  0.5024
  162THF     H4 2097   3.985   2.499   4.543 -4.4765 -4.0286 -1.2629
  162THF     H5 2098   3.924   2.353   4.470 -0.1383 -0.9201 -1.1450
  162THF     H6 2099   3.694   2.608   4.658 -0.4093  2.3579  1.0713
  162THF     H7 2100   3.597   2.537   4.516 -0.7952 -1.9947  2.0022
  162THF     C8 2101   3.691   2.396   4.652 -0.9788 -0.0936 -1.0131
  162THF     C9 2102   3.843   2.394   4.673 -0.5160  0.8151 -0.6985
  162THF    H10 2103   3.650   2.303   4.608 -0.1900 -0.5647  2.9286
  162THF    H11 2104   3.642   2.406   4.746 -0.7973 -0.0853  0.6460
  162THF    H12 2105   3.874   2.463   4.751  0.7955  1.2176  0.0336
  162THF    H13 2106   3.878   2.297   4.700 -0.8254  1.7822 -0.9916
  163THF     O1 2107   4.040   0.137   2.650  0.3127 -0.3259  0.0540
  163THF     C2 2108   4.113   0.247   2.710  0.2180 -0.3329 -0.3655
  163THF     C3 2109   3.934   0.188   2.573  0.3313 -0.0164  0.5016
  163THF     H4 2110   4.207   0.246   2.655 -0.6108 -1.6621 -0.6873
  163THF     H5 2111   4.132   0.222   2.819 -1.3484 -2.1084 -1.1411
  163THF     H6 2112   3.962   0.209   2.473 -1.4066 -3.2861 -3.0493
  163THF     H7 2113   3.852   0.112   2.570  4.2507 -0.2670 -0.1283
  163THF     C8 2114   3.895   0.318   2.644 -0.0610  0.1110 -0.5337
  163THF     C9 2115   4.029   0.373   2.696 -0.0002  0.3281 -0.2880
  163THF    H10 2116   3.829   0.299   2.727  0.0145  3.7026 -3.8010
  163THF    H11 2117   3.839   0.383   2.577 -1.3122  0.1555 -1.0924
  163THF    H12 2118   4.077   0.432   2.622 -1.7236 -1.6488 -2.8859
  163THF    H13 2119   4.008   0.431   2.793 -0.6324  0.1877  2.5717
  164THF     O1 2120   2.335   3.836   0.017  0.2059 -0.5061  0.0993
  164THF     C2 2121   2.305   3.840   0.154  0.7857  0.3894  0.2601
  164THF     C3 2122   2.232   3.752  -0.042 -0.2802 -0.0153  0.6298
  164THF     H4 2123   2.361   3.932   0.193  1.8467  3.9352  0.6692
  164THF     H5 2124   2.331   3.743   0.196 -0.6744 -0.7062  2.0744
  164THF     H6 2125   2.249   3.760  -0.152  3.0092 -0.0864  1.6303
  164THF     H7 2126   2.249   3.650  -0.011 -0.8675  1.9228  0.7777
  164THF     C8 2127   2.100   3.803   0.016 -0.1620  0.4061 -0.4981
  164THF     C9 2128   2.150   3.864   0.149 -0.5947  0.2534 -0.0183
  164THF    H10 2129   2.035   3.726   0.047  0.0129 -2.2992 -2.0794
  164THF    H11 2130   2.047   3.869  -0.052  3.2130 -2.3381 -2.0155
  164THF    H12 2131   2.127   3.969   0.133 -4.0960  0.6072  0.2110
  164THF    H13 2132   2.090   3.853   0.239 -0.7407 -0.6516 -0.4535
  165THF     O1 2133   3.052   3.678   0.928 -0.5062 -0.3348  0.5613
  165THF     C2 2134   2.923   3.633   0.876 -0.1698  0.1040 -0.0311
  165THF     C3 2135   3.027   3.804   0.975 -0.2675  0.0526  0.1746
  165THF     H4 2136   2.876   3.585   0.964 -1.1822 -1.6639 -1.0908
  165THF     H5 2137   2.931   3.563   0.792 -0.6320 -1.3865  1.7504
  165THF     H6 2138   2.994   3.802   1.075  0.8138  2.1754  0.0911
  165THF     H7 2139   3.120   3.854   0.986 -0.4691 -0.2717 -0.6156
  165THF     C8 2140   2.944   3.877   0.872 -0.0093  0.0193 -0.2667
  165THF     C9 2141   2.854   3.758   0.827 -0.6734  0.2473 -0.2144
  165THF    H10 2142   3.009   3.900   0.786 -0.3181 -1.7503  0.5146
  165THF    H11 2143   2.883   3.957   0.911 -0.1160 -1.6432 -1.4131
  165THF    H12 2144   2.752   3.779   0.862  0.0123  1.4440  0.2936
  165THF    H13 2145   2.856   3.742   0.720  0.2490  0.6570 -0.7390
  166THF     O1 2146   5.464   1.376   2.285 -0.0013  0.2612  0.0538
  166THF     C2 2147   5.507   1.438   2.406  0.0477  0.6657  1.0202
  166THF     C3 2148   5.321   1.381   2.300  0.2622  0.5608 -0.0211
  166THF     H4 2149   5.613   1.480   2.401  0.9046 -1.9445 -1.3594
  166THF     H5 2150   5.503   1.355   2.483  1.3659  1.9165 -1.0813
  166THF     H6 2151   5.287   1.402   2.200  0.3991  1.7013 -1.3882
  166THF     H7 2152   5.279   1.282   2.334  0.5968  0.6939 -0.8711
  166THF     C8 2153   5.280   1.489   2.404  0.6474 -0.6196 -0.2073
  166THF     C9 2154   5.407   1.547   2.459  0.3141 -0.2011 -0.1443
  166THF    H10 2155   5.223   1.434   2.483 -0.6123 -1.3310 -0.4340
  166THF    H11 2156   5.216   1.561   2.353 -2.3674 -0.6586 -2.8484
  166THF    H12 2157   5.443   1.637   2.421 -1.1406 -0.4103  2.9883
  166THF    H13 2158   5.405   1.542   2.569  0.1566  0.1459  0.7949
  167THF     O1 2159   0.939   0.288   2.960  0.0559  0.1625 -0.0443
  167THF     C2 2160   0.988   0.420   2.995  0.0059 -0.5154 -0.2370
  167THF     C3 2161   0.805   0.306   2.913  0.5819 -0.0302 -0.4363
  167THF     H4 2162   1.020   0.477   2.909  0.6329  0.4982 -0.4486
  167THF     H5 2163   1.074   0.427   3.068  0.0107 -0.3776 -0.0898
  167THF     H6 2164   0.798   0.363   2.818 -1.5998 -1.6981  1.3031
  167THF     H7 2165   0.752   0.213   2.900 -0.5204  0.7774  2.3235
  167THF     C8 2166   0.753   0.384   3.035  0.4996  0.2153 -0.0465
  167THF     C9 2167   0.859   0.480   3.058 -0.1006 -0.3551  0.1491
  167THF    H10 2168   0.750   0.320   3.120 -2.0256 -1.5024  0.5959
  167THF    H11 2169   0.661   0.430   3.000  0.8129 -1.4084 -1.8513
  167THF    H12 2170   0.835   0.573   3.004  0.8944  0.0021 -0.7261
  167THF    H13 2171   0.868   0.504   3.164  0.2290 -1.6460  3.1393
  168THF     O1 2172   3.055   5.316   3.875 -0.1594 -0.0196 -0.1380
  168THF     C2 2173   2.978   5.406   3.953 -0.1699  0.8817 -0.1271
  168THF     C3 2174   3.184   5.300   3.933 -0.0043  0.1907 -0.2449
  168THF     H4 2175   2.908   5.344   4.007  0.9085  1.3408 -1.1923
  168THF     H5 2176   2.926   5.476   3.898  0.1044 -0.3597  0.2219
  168THF     H6 2177   3.206   5.193   3.948  2.9966  3.7218 -1.8206
  168THF     H7 2178   3.269   5.333   3.877  0.3704 -1.6661  0.1003
  168THF     C8 2179   3.175   5.355   4.072  0.9739  0.1113  0.1511
  168THF     C9 2180   3.084   5.466   4.048 -0.1801 -0.5125  0.0594
  168THF    H10 2181   3.269   5.384   4.124 -1.0257 -0.9796 -1.4395
  168THF    H11 2182   3.122   5.289   4.142  0.4205 -2.0942  1.5681
  168THF    H12 2183   3.036   5.505   4.141  1.5687  2.5886  0.7771
  168THF    H13 2184   3.140   5.543   3.999  0.6291  1.0781  1.8898
  169THF     O1 2185   0.852   2.197   0.670  0.0351 -0.1061  0.3733
  169THF     C2 2186   0.941   2.246   0.568 -0.0812 -0.0050  0.4931
  169THF     C3 2187   0.914   2.230   0.801  0.4808  0.3068 -0.3533
  169THF     H4 2188   0.921   2.349   0.538 -2.3598  2.4982 -1.3230
  169THF     H5 2189   0.928   2.192   0.474 -1.5468  0.1919  0.9116
  169THF     H6 2190   0.843   2.305   0.840  3.2365  0.5801  0.1598
  169THF     H7 2191   0.911   2.137   0.855  1.2873 -0.6658  1.8557
  169THF     C8 2192   1.056   2.273   0.775  0.5786 -0.3440  0.0760
  169THF     C9 2193   1.077   2.224   0.637  0.2646 -0.2258  0.2260
  169THF    H10 2194   1.132   2.243   0.843 -0.0852 -0.5874 -1.4880
  169THF    H11 2195   1.063   2.379   0.775  0.2673  0.1510 -2.7761
  169THF    H12 2196   1.161   2.282   0.593  1.3649 -0.2348  1.3715
  169THF    H13 2197   1.099   2.116   0.638  0.6391 -0.2497  1.1224
  170THF     O1 2198   3.451   0.055   1.368  0.4634  0.2162  0.1271
  170THF     C2 2199   3.385  -0.044   1.292 -0.4464 -0.1587  0.2587
  170THF     C3 2200   3.349   0.138   1.418  0.1306  0.2642  0.1068
  170THF     H4 2201   3.455  -0.127   1.276 -0.0255  2.1672 -2.5516
  170THF     H5 2202   3.360  -0.013   1.189  0.2267  1.1777  1.1951
  170THF     H6 2203   3.379   0.187   1.510  0.5246  1.9402  0.4539
  170THF     H7 2204   3.334   0.216   1.344 -0.0994  2.6296 -1.3246
  170THF     C8 2205   3.233   0.043   1.460  0.5464 -0.0644  0.5427
  170THF     C9 2206   3.269  -0.078   1.381  0.0665  0.4623  0.9796
  170THF    H10 2207   3.141   0.077   1.416  0.2486 -0.5948  0.2329
  170THF    H11 2208   3.227   0.025   1.567 -1.3533 -0.6843 -0.9869
  170THF    H12 2209   3.293  -0.171   1.431  0.9971 -2.5491 -0.7631
  170THF    H13 2210   3.180  -0.100   1.322  1.0255  1.0813  1.4400
  171THF     O1 2211   2.795   0.838   5.265  0.0589  0.6559  0.4950
  171THF     C2 2212   2.656   0.869   5.292 -0.0243  0.4262  0.2537
  171THF     C3 2213   2.812   0.721   5.195  0.5156  0.7005  0.4850
  171THF     H4 2214   2.649   0.965   5.239  3.1800  0.6656 -1.5499
  171THF     H5 2215   2.639   0.901   5.394 -1.1912  0.0723 -0.6944
  171THF     H6 2216   2.898   0.719   5.126  0.8780  0.3841  0.5459
  171THF     H7 2217   2.820   0.643   5.267 -0.2834 -0.8138  2.1860
  171THF     C8 2218   2.676   0.697   5.127  0.5802  0.3236  0.0067
  171THF     C9 2219   2.576   0.763   5.225 -0.0979 -0.3027 -0.2443
  171THF    H10 2220   2.650   0.594   5.104  0.3288  0.4689  1.4734
  171THF    H11 2221   2.674   0.760   5.038 -1.7758  0.3531 -1.6403
  171THF    H12 2222   2.488   0.786   5.167 -1.4969 -2.9714  1.7103
  171THF    H13 2223   2.548   0.702   5.310 -1.0817 -0.5836  0.4199
  172THF     O1 2224   3.167   0.519   4.826  0.0253  0.0924 -0.2006
  172THF     C2 2225   3.226   0.392   4.834 -0.0255 -0.3507  0.2293
  172THF     C3 2226   3.025   0.502   4.816  0.2481  0.0638 -0.2275
  172THF     H4 2227   3.224   0.352   4.931 -1.5111 -0.0350 -1.1192
  172THF     H5 2228   3.332   0.395   4.808  1.7604  3.7523 -0.3930
  172THF     H6 2229   2.983   0.505   4.915 -1.5249 -1.5481 -1.1552
  172THF     H7 2230   2.982   0.577   4.744  1.2828 -2.2434 -0.7475
  172THF     C8 2231   3.000   0.365   4.749  0.5127 -0.4393 -0.7186
  172THF     C9 2232   3.142   0.305   4.745 -0.1659  0.0106 -0.4909
  172THF    H10 2233   2.964   0.379   4.647 -1.2938  0.1118 -0.4884
  172THF    H11 2234   2.926   0.309   4.808  0.3522  1.8456  0.9508
  172THF    H12 2235   3.136   0.205   4.784  2.3034 -2.1166  1.5664
  172THF    H13 2236   3.180   0.295   4.636 -3.5965 -1.6123 -1.2816
  173THF     O1 2237   3.499   0.368   3.611  0.3511  0.2026  0.3181
  173THF     C2 2238   3.618   0.299   3.611 -0.4618 -0.4176  0.1761
  173THF     C3 2239   3.420   0.333   3.721 -0.1945 -0.3331 -0.3024
  173THF     H4 2240   3.682   0.331   3.533  0.1677  0.2056  1.5684
  173THF     H5 2241   3.593   0.193   3.598  1.3975  0.7435  0.6762
  173THF     H6 2242   3.358   0.415   3.748 -0.1078 -0.5605  1.2294
  173THF     H7 2243   3.376   0.237   3.719 -1.6033  0.7014 -3.8653
  173THF     C8 2244   3.528   0.323   3.822  0.0085  0.4008 -0.5804
  173THF     C9 2245   3.661   0.330   3.752 -0.0082  0.4552 -0.7071
  173THF    H10 2246   3.535   0.225   3.871 -1.0888 -0.2848 -1.1068
  173THF    H11 2247   3.525   0.401   3.891 -0.5235  1.2585 -1.4683
  173THF    H12 2248   3.703   0.432   3.759  0.5344  1.0547  1.1465
  173THF    H13 2249   3.738   0.264   3.791  1.2056  1.2827 -0.2918
  174THF     O1 2250   1.827   4.741   2.536  0.0582 -0.0195  0.8231
  174THF     C2 2251   1.806   4.667   2.659 -0.3453  0.7202  0.2288
  174THF     C3 2252   1.871   4.868   2.577 -0.4308 -0.0198  0.1491
  174THF     H4 2253   1.797   4.556   2.644 -2.1810 -1.1338  1.4257
  174THF     H5 2254   1.723   4.700   2.714  1.1167 -0.7686 -0.3471
  174THF     H6 2255   1.936   4.916   2.508 -3.0890 -1.5515 -0.3184
  174THF     H7 2256   1.784   4.932   2.584  2.7847 -0.8731 -0.6589
  174THF     C8 2257   1.940   4.852   2.719 -0.0658  0.4257 -0.5705
  174THF     C9 2258   1.922   4.710   2.752 -0.2983 -0.1368 -0.2129
  174THF    H10 2259   1.880   4.918   2.787 -2.2895 -1.9056  0.1786
  174THF    H11 2260   2.046   4.879   2.714 -0.5265 -1.0295  0.7292
  174THF    H12 2261   2.019   4.664   2.737 -0.5428  3.3290 -0.8114
  174THF    H13 2262   1.897   4.693   2.856  1.5813  1.7279 -0.3294
  175THF     O1 2263   0.707   3.841   2.367 -0.2032 -0.3351 -0.5239
  175THF     C2 2264   0.721   3.902   2.495 -0.4799  0.1385 -0.4026
  175THF     C3 2265   0.603   3.749   2.365 -0.4982 -0.0005  0.0739
  175THF     H4 2266   0.662   3.995   2.495  0.3067  4.3442  2.4343
  175THF     H5 2267   0.828   3.930   2.508  0.3303  3.5590 -0.5511
  175THF     H6 2268   0.513   3.790   2.320  3.3651  2.1548  1.9289
  175THF     H7 2269   0.624   3.665   2.302 -1.3677 -3.1235 -1.4852
  175THF     C8 2270   0.584   3.709   2.512 -0.6461 -0.1398 -0.3811
  175THF     C9 2271   0.677   3.799   2.595 -0.2163  0.4975  0.7685
  175THF    H10 2272   0.596   3.603   2.528 -0.9345  2.6532 -0.3091
  175THF    H11 2273   0.476   3.722   2.531  0.8692 -0.1196  0.3928
  175THF    H12 2274   0.642   3.858   2.682 -1.4507  0.5674 -1.1608
  175THF    H13 2275   0.756   3.734   2.630 -0.0515  1.8586  1.1074
  176THF     O1 2276   3.784   4.878   4.803 -0.4573  0.2899  0.1849
  176THF     C2 2277   3.674   4.928   4.726 -0.0483  0.7248 -0.5778
  176THF     C3 2278   3.818   4.978   4.896  0.0799 -0.2626 -0.1032
  176THF     H4 2279   3.587   4.937   4.786  0.6349  2.6343  2.8250
  176THF     H5 2280   3.660   4.865   4.639  0.6948 -1.1123  0.7576
  176THF     H6 2281   3.766   4.979   4.988  1.0979  0.9013  0.7414
  176THF     H7 2282   3.921   4.955   4.926 -2.0712  1.5551  1.6712
  176THF     C8 2283   3.800   5.109   4.815 -0.7397  0.8319  0.8836
  176THF     C9 2284   3.707   5.067   4.691 -0.4344 -0.0045 -0.8555
  176THF    H10 2285   3.898   5.126   4.781  0.5758 -0.1786  2.1739
  176THF    H11 2286   3.775   5.199   4.870  2.1513  0.5800 -1.1722
  176THF    H12 2287   3.624   5.137   4.686 -1.6238  2.6793  1.1894
  176THF    H13 2288   3.758   5.085   4.600  1.9558  2.5327 -0.1165
  177THF     O1 2289   4.737   5.052   3.809 -0.1207 -0.4574  0.3613
  177THF     C2 2290   4.808   4.957   3.890  0.5928 -0.4987  0.1624
  177THF     C3 2291   4.679   4.971   3.706 -0.4601 -0.1071  0.2203
  177THF     H4 2292   4.826   5.001   3.990  0.0288  1.1890  2.1594
  177THF     H5 2293   4.903   4.938   3.845  0.3784 -0.8973 -0.1492
  177THF     H6 2294   4.581   5.009   3.670 -0.7057 -1.2024 -1.7333
  177THF     H7 2295   4.747   4.945   3.624 -0.0753 -0.0820 -0.5896
  177THF     C8 2296   4.631   4.839   3.778 -0.1668 -0.5234  1.0434
  177THF     C9 2297   4.718   4.835   3.897 -0.5414 -0.5423 -0.1534
  177THF    H10 2298   4.637   4.755   3.700 -1.6202  0.1336  0.8233
  177THF    H11 2299   4.532   4.850   3.812  0.4185  0.9285 -0.1627
  177THF    H12 2300   4.660   4.844   3.988  1.1861  0.7269  1.5319
  177THF    H13 2301   4.773   4.747   3.914 -0.8508  0.2770  0.4448
  178THF     O1 2302   5.086   2.026   3.111 -0.4436 -0.6747  0.5611
  178THF     C2 2303   5.011   1.904   3.096  0.7163  0.3497 -0.4734
  178THF     C3 2304   5.041   2.080   3.237 -0.1991  0.0512  0.7007
  178THF     H4 2305   5.039   1.821   3.154 -1.0021 -3.1917 -0.9955
  178THF     H5 2306   5.023   1.858   3.001  0.4352 -1.2404  1.0220
  178THF     H6 2307   5.071   2.012   3.316 -0.4245 -1.0819 -1.8767
  178THF     H7 2308   5.090   2.174   3.240 -1.2296  2.2101 -1.2575
  178THF     C8 2309   4.890   2.073   3.210  0.3850  0.1883  0.2423
  178THF     C9 2310   4.869   1.943   3.134 -0.1163  1.1863 -0.2417
  178THF    H10 2311   4.857   2.157   3.156  2.0089 -1.0454 -0.5945
  178THF    H11 2312   4.826   2.070   3.305 -0.5720 -1.7035  0.6746
  178THF    H12 2313   4.828   1.869   3.195  1.0257 -2.6434  1.2639
  178THF    H13 2314   4.808   1.962   3.041 -0.3456  1.9737  1.2339
  179THF     O1 2315   3.405   0.120   2.434 -0.1284  0.9359  0.7508
  179THF     C2 2316   3.497   0.188   2.352 -0.0643  0.0393 -0.3151
  179THF     C3 2317   3.431  -0.021   2.432  0.2554 -0.7531 -0.4975
  179THF     H4 2318   3.594   0.188   2.399  3.1576  0.4364 -2.7211
  179THF     H5 2319   3.467   0.288   2.324 -2.2767 -1.9977 -0.3886
  179THF     H6 2320   3.522  -0.048   2.491  1.8284 -2.2741  0.4016
  179THF     H7 2321   3.345  -0.078   2.472 -0.8872 -2.1160  0.9530
  179THF     C8 2322   3.449  -0.037   2.281 -0.6537  0.1232 -0.4349
  179THF     C9 2323   3.511   0.096   2.234 -0.4250  0.6084 -0.1188
  179THF    H10 2324   3.356  -0.051   2.232  1.4850  1.1076 -0.6781
  179THF    H11 2325   3.510  -0.118   2.261 -0.3373  1.6272  0.6395
  179THF    H12 2326   3.615   0.076   2.206 -2.2560  1.0399 -1.0532
  179THF    H13 2327   3.457   0.145   2.152  0.3422  2.4194  1.3697
  180THF     O1 2328   0.316   1.971   1.958 -0.2962  0.0249 -0.6231
  180THF     C2 2329   0.295   1.958   1.822 -0.1951 -0.4471 -0.0678
  180THF     C3 2330   0.352   2.099   1.995  0.5493  0.3318  0.7714
  180THF     H4 2331   0.185   1.972   1.793 -0.4099  2.4720  0.9906
  180THF     H5 2332   0.330   1.856   1.791  1.1344  1.0459 -0.4830
  180THF     H6 2333   0.284   2.127   2.069  2.5644 -1.7309 -0.5591
  180THF     H7 2334   0.457   2.103   2.031  0.0386  0.0850  0.0365
  180THF     C8 2335   0.361   2.183   1.863 -0.5662  0.5848  0.4966
  180THF     C9 2336   0.368   2.080   1.763  0.4176  0.0080  0.3589
  180THF    H10 2337   0.447   2.246   1.870  1.4862  0.8164  0.1436
  180THF    H11 2338   0.274   2.244   1.849 -0.8000 -0.7544 -0.8300
  180THF    H12 2339   0.322   2.102   1.662  1.7760 -0.0770  1.0751
  180THF    H13 2340   0.473   2.048   1.742  1.0242  1.1858 -0.6595
  181THF     O1 2341   0.508   3.426   3.572 -0.0279  0.0755 -0.8366
  181THF     C2 2342   0.616   3.401   3.485  0.0363 -0.4633 -0.1928
  181THF     C3 2343   0.523   3.562   3.597 -0.2117  0.2896  0.0809
  181THF     H4 2344   0.596   3.301   3.444  3.3436  0.1293 -0.8150
  181THF     H5 2345   0.714   3.402   3.535 -0.5042  1.2227  0.2537
  181THF     H6 2346   0.431   3.591   3.664 -0.6887  0.2469 -2.8054
  181THF     H7 2347   0.623   3.571   3.643  2.9330 -0.3722  2.2125
  181THF     C8 2348   0.532   3.634   3.460 -0.1603  0.7528  0.0216
  181THF     C9 2349   0.600   3.520   3.386 -0.2751  0.0495 -0.9211
  181THF    H10 2350   0.587   3.723   3.460 -1.1665  3.0544  2.8932
  181THF    H11 2351   0.432   3.658   3.415 -2.6156 -1.4556  0.9780
  181THF    H12 2352   0.522   3.495   3.312 -2.1256 -0.0352 -1.6445
  181THF    H13 2353   0.683   3.552   3.327 -0.7391 -0.0636  1.3305
  182THF     O1 2354   0.929   1.052   3.964 -0.2433  0.1924  0.2029
  182THF     C2 2355   0.864   0.979   4.072  0.1031  0.3333  0.2615
  182THF     C3 2356   0.824   1.129   3.914  0.3292  0.7425 -0.6347
  182THF     H4 2357   0.934   0.941   4.147  3.4339 -1.3152  3.0369
  182THF     H5 2358   0.816   0.891   4.035  0.0249  0.0094  2.1500
  182THF     H6 2359   0.865   1.201   3.848 -1.1497 -2.3072 -0.6851
  182THF     H7 2360   0.753   1.072   3.856 -3.4486  1.0652  0.2769
  182THF     C8 2361   0.756   1.191   4.037  0.6145  0.5246 -0.0732
  182THF     C9 2362   0.765   1.079   4.138  0.5352  0.2021  0.0982
  182THF    H10 2363   0.656   1.227   4.021  1.7075 -0.1959 -1.0924
  182THF    H11 2364   0.814   1.276   4.073 -0.0835  3.0098  0.3373
  182THF    H12 2365   0.812   1.114   4.226  0.7685 -0.2426 -1.2577
  182THF    H13 2366   0.671   1.039   4.168 -1.9170  0.1620  0.1085
  183THF     O1 2367   0.969   3.124   3.787  0.3921 -0.2377  0.0139
  183THF     C2 2368   0.906   3.079   3.903  0.2586 -0.2911 -0.0793
  183THF     C3 2369   1.081   3.040   3.767 -0.7543  0.1790 -1.0083
  183THF     H4 2370   0.828   3.011   3.875 -0.8633 -0.3644 -2.5393
  183THF     H5 2371   0.867   3.161   3.966 -3.5736 -0.9165 -0.7699
  183THF     H6 2372   1.087   2.996   3.670  0.0859  0.8338  4.5519
  183THF     H7 2373   1.165   3.104   3.778  0.3250  0.3930 -1.1775
  183THF     C8 2374   1.090   2.938   3.878  0.0829  0.5937 -0.5808
  183THF     C9 2375   1.017   3.009   3.984  0.6003  0.5343  0.6652
  183THF    H10 2376   1.190   2.926   3.900  0.2609 -0.9074 -3.2053
  183THF    H11 2377   1.040   2.848   3.848 -0.7798 -0.3241 -0.1672
  183THF    H12 2378   0.975   2.953   4.067 -1.3453 -1.4675  3.4481
  183THF    H13 2379   1.096   3.069   4.026 -2.9392 -0.4543 -0.6709
  184THF     O1 2380   1.695   0.927   3.450 -0.4533  0.3228  0.5296
  184THF     C2 2381   1.683   0.943   3.586 -0.7360  0.0101  0.3221
  184THF     C3 2382   1.578   0.860   3.402 -0.2917 -0.2545 -0.5901
  184THF     H4 2383   1.744   1.016   3.639 -0.3526 -0.1347 -1.2591
  184THF     H5 2384   1.696   0.843   3.634 -1.2001 -1.2109  0.7379
  184THF     H6 2385   1.586   0.884   3.296 -3.0806 -0.2501  3.1642
  184THF     H7 2386   1.583   0.759   3.437  1.8562  1.5009  0.1021
  184THF     C8 2387   1.473   0.942   3.466  0.0306  0.3658 -0.6545
  184THF     C9 2388   1.535   0.983   3.602  0.1269 -0.3036 -0.6458
  184THF    H10 2389   1.384   0.891   3.482 -1.6753  0.7192 -0.5766
  184THF    H11 2390   1.456   1.035   3.406 -2.5678 -0.2754  1.0985
  184THF    H12 2391   1.525   1.090   3.621  0.0040  0.5137  0.9117
  184THF    H13 2392   1.485   0.931   3.681  0.8278  2.5723 -2.4082
  185THF     O1 2393   0.522   3.254   5.206 -0.4362  0.1341 -0.1470
  185THF     C2 2394   0.380   3.239   5.220 -0.3246 -0.1104  0.6361
  185THF     C3 2395   0.579   3.298   5.330  0.6247  0.1951 -0.2493
  185THF     H4 2396   0.375   3.142   5.261 -0.7218 -0.1790 -1.9000
  185THF     H5 2397   0.312   3.238   5.130 -0.7739  2.4473 -1.4748
  185THF     H6 2398   0.609   3.212   5.390 -1.5171 -3.1996 -0.9712
  185THF     H7 2399   0.654   3.379   5.319  0.3857  1.3144  1.5813
  185THF     C8 2400   0.466   3.369   5.407  0.0462  0.4708 -0.2236
  185THF     C9 2401   0.340   3.341   5.321 -0.1429 -0.0780 -0.4949
  185THF    H10 2402   0.481   3.471   5.420 -0.3373  0.0774  0.0093
  185THF    H11 2403   0.454   3.320   5.510 -0.7243 -1.7074  1.4699
  185THF    H12 2404   0.246   3.310   5.379 -0.8923  1.7007  0.5717
  185THF    H13 2405   0.305   3.430   5.274 -0.0012 -1.0990 -0.4079
  186THF     O1 2406   2.528   2.691   3.195 -0.6349 -0.4428  0.7378
  186THF     C2 2407   2.419   2.677   3.112  0.3519 -0.6956  0.4496
  186THF     C3 2408   2.636   2.642   3.114  0.7358 -0.9824  0.1134
  186THF     H4 2409   2.416   2.758   3.041  0.6974 -0.8239 -1.2574
  186THF     H5 2410   2.330   2.682   3.171  0.6319  0.3495 -2.6921
  186THF     H6 2411   2.658   2.713   3.039 -0.7803 -0.0691 -0.8282
  186THF     H7 2412   2.719   2.626   3.179 -1.4872 -2.3403  2.3582
  186THF     C8 2413   2.582   2.516   3.038  0.1198  0.4034  0.1658
  186THF     C9 2414   2.433   2.535   3.057 -0.6472  0.2724  0.4694
  186THF    H10 2415   2.613   2.430   3.100  0.8235  0.3697  0.5236
  186THF    H11 2416   2.620   2.514   2.934  1.0167 -0.2585  0.5843
  186THF    H12 2417   2.379   2.511   2.968  2.8111  0.1110  0.4887
  186THF    H13 2418   2.402   2.471   3.133 -0.8898  1.3871 -0.5572
  187THF     O1 2419   0.115   5.210   4.220  0.2746  0.0578  0.3404
  187THF     C2 2420   0.150   5.226   4.085  0.4399  0.0655 -0.6310
  187THF     C3 2421  -0.011   5.136   4.229  0.3169 -0.3591  0.1660
  187THF     H4 2422   0.261   5.237   4.068 -2.0457 -2.4700  0.3588
  187THF     H5 2423   0.102   5.313   4.043 -1.7009 -1.2274  1.9620
  187THF     H6 2424  -0.002   5.069   4.311  1.2968  0.4377 -1.3947
  187THF     H7 2425  -0.091   5.214   4.246  0.1786  0.4086 -1.4416
  187THF     C8 2426  -0.030   5.056   4.097  0.6364 -0.0549 -0.0380
  187THF     C9 2427   0.095   5.102   4.014 -0.1294 -0.5469  0.3208
  187THF    H10 2428  -0.114   5.097   4.040  1.3099 -1.0188 -1.3106
  187THF    H11 2429  -0.044   4.944   4.112 -1.1842  0.3562 -1.7540
  187THF    H12 2430   0.165   5.023   4.014 -2.7666 -0.0094  0.1618
  187THF    H13 2431   0.081   5.118   3.906  1.9168 -0.5133  1.4383
  188THF     O1 2432   5.248   3.240   2.989  0.4246 -0.0256  0.0948
  188THF     C2 2433   5.367   3.259   3.060  0.1148 -0.3461  0.2864
  188THF     C3 2434   5.300   3.238   2.854  0.3524 -0.1527  0.8248
  188THF     H4 2435   5.358   3.257   3.166 -2.2243 -0.0498 -2.9606
  188THF     H5 2436   5.401   3.356   3.036 -0.7001  0.7287 -2.9237
  188THF     H6 2437   5.223   3.197   2.793  1.0871  2.3786  1.9345
  188THF     H7 2438   5.314   3.342   2.827  2.3468 -0.1509 -2.1216
  188THF     C8 2439   5.415   3.145   2.859 -0.3165 -0.0033 -0.4886
  188THF     C9 2440   5.460   3.152   3.007  0.7307 -1.0106  0.3556
  188THF    H10 2441   5.495   3.176   2.790  1.6507 -0.6482 -0.8717
  188THF    H11 2442   5.385   3.042   2.839  1.8622 -0.1488 -0.0883
  188THF    H12 2443   5.448   3.063   3.054 -0.6200  0.0163 -1.7378
  188THF    H13 2444   5.563   3.172   3.015 -1.7277 -0.5014 -1.0414
  189THF     O1 2445   3.453   0.940   2.299  0.1698 -0.3002 -0.6404
  189THF     C2 2446   3.482   1.028   2.404  0.8729 -0.4916  0.2149
  189THF     C3 2447   3.381   1.006   2.191 -0.2129  1.4157  0.3624
  189THF     H4 2448   3.559   0.989   2.467  0.0818 -4.8716  0.0312
  189THF     H5 2449   3.391   1.040   2.459  0.9283  1.9485 -4.2062
  189THF     H6 2450   3.406   0.962   2.099  2.0606 -0.7721  0.9595
  189THF     H7 2451   3.270   1.003   2.208 -1.2474  1.7841  1.5470
  189THF     C8 2452   3.441   1.148   2.190  0.7475  0.6284  0.5387
  189THF     C9 2453   3.522   1.153   2.321  0.1302  0.3610 -0.4097
  189THF    H10 2454   3.355   1.214   2.203 -1.9542 -1.8095  2.1193
  189THF    H11 2455   3.489   1.178   2.099 -0.1645  1.0995  0.3501
  189THF    H12 2456   3.627   1.146   2.302  1.8321  0.9350  0.9988
  189THF    H13 2457   3.506   1.242   2.378  2.6028 -2.9117  1.8634
  190THF     O1 2458   0.350   0.408   1.962  0.8324  0.3736  0.2535
  190THF     C2 2459   0.422   0.478   2.057 -0.6130  0.0798 -0.0630
  190THF     C3 2460   0.433   0.379   1.851 -0.7958 -0.2747 -0.1592
  190THF     H4 2461   0.370   0.478   2.153 -0.4600  1.1209  2.0351
  190THF     H5 2462   0.426   0.583   2.031  0.5629 -0.2956  0.5916
  190THF     H6 2463   0.402   0.295   1.787  0.5279 -2.1055  1.4422
  190THF     H7 2464   0.418   0.460   1.789  0.2026  0.3055  0.5331
  190THF     C8 2465   0.582   0.382   1.906  0.0642  0.5196 -0.1586
  190THF     C9 2466   0.567   0.417   2.052 -0.4588  0.2372 -0.2153
  190THF    H10 2467   0.647   0.464   1.864 -3.5352  0.1452  0.7781
  190THF    H11 2468   0.642   0.287   1.891  2.8691  0.7819 -1.4234
  190THF    H12 2469   0.575   0.334   2.115 -1.1980  0.1382 -1.0866
  190THF    H13 2470   0.634   0.484   2.094  0.3923 -2.8914 -0.0055
  191THF     O1 2471   2.195   1.020   5.384 -0.1660  0.6640 -0.0376
  191THF     C2 2472   2.301   0.990   5.293  0.1708 -0.5092 -0.2409
  191THF     C3 2473   2.135   1.136   5.333  0.3064 -0.3964 -0.7860
  191THF     H4 2474   2.261   0.934   5.205 -0.5844  2.3231 -1.1350
  191THF     H5 2475   2.370   0.930   5.352 -0.6847  0.0939  3.7938
  191THF     H6 2476   2.086   1.127   5.236 -0.4210 -0.9755 -0.9772
  191THF     H7 2477   2.057   1.175   5.408  1.1441 -1.2436  1.9375
  191THF     C8 2478   2.264   1.217   5.336 -0.8124 -0.1296  0.3319
  191THF     C9 2479   2.359   1.125   5.258 -0.4262  0.4247  0.1101
  191THF    H10 2480   2.296   1.234   5.432 -0.8908  1.5359 -2.2405
  191THF    H11 2481   2.245   1.311   5.278  0.4868  0.7142  0.4118
  191THF    H12 2482   2.357   1.141   5.148  0.6482  0.1367 -1.2009
  191THF    H13 2483   2.458   1.141   5.282  0.3182  0.6418 -1.7843
  192THF     O1 2484   2.240   3.143   2.159  0.2692  0.6254  0.0850
  192THF     C2 2485   2.313   3.063   2.069 -0.3939 -0.7255 -0.5046
  192THF     C3 2486   2.267   3.095   2.290  0.5242  0.7090 -0.5941
  192THF     H4 2487   2.317   3.104   1.972 -1.7918  1.3580 -0.6134
  192THF     H5 2488   2.277   2.959   2.070  1.4518  1.3433  0.4257
  192THF     H6 2489   2.248   3.174   2.358  0.0028  2.3978 -1.8125
  192THF     H7 2490   2.210   3.011   2.330 -1.4628 -1.0073  2.4961
  192THF     C8 2491   2.414   3.053   2.290 -0.3244 -0.6956 -0.2745
  192THF     C9 2492   2.447   3.070   2.141  0.2377  0.6274  0.7810
  192THF    H10 2493   2.427   2.950   2.321  3.3641  2.5226 -0.9207
  192THF    H11 2494   2.473   3.123   2.353  0.9998  0.2004  0.8408
  192THF    H12 2495   2.496   3.159   2.123 -0.4715 -2.8311  1.1323
  192THF    H13 2496   2.515   2.993   2.098 -0.8555 -0.8616 -0.0723
  193THF     O1 2497   1.484   4.645   2.402 -1.0875  0.1553  0.5261
  193THF     C2 2498   1.386   4.661   2.293  0.0949  0.2935  0.3330
  193THF     C3 2499   1.415   4.619   2.527  0.0636  0.0589 -0.0015
  193THF     H4 2500   1.408   4.586   2.222  0.5631 -1.7332 -1.3972
  193THF     H5 2501   1.407   4.755   2.238 -0.8856 -2.4114  3.7137
  193THF     H6 2502   1.478   4.550   2.587  0.3504 -2.6196  0.0885
  193THF     H7 2503   1.390   4.703   2.588 -0.1302 -0.1210 -1.5421
  193THF     C8 2504   1.285   4.558   2.483 -0.2355  0.1766 -0.6377
  193THF     C9 2505   1.255   4.641   2.361  0.0961 -1.0389 -0.0754
  193THF    H10 2506   1.204   4.565   2.551 -1.9739  0.4991  0.0494
  193THF    H11 2507   1.290   4.453   2.457  0.3900  0.3057  1.9411
  193THF    H12 2508   1.182   4.595   2.288  1.7450 -0.6119 -2.8162
  193THF    H13 2509   1.222   4.740   2.405 -2.3590 -0.5440  1.9152
  194THF     O1 2510   1.296   1.401   2.632 -1.0834  0.1052 -0.2338
  194THF     C2 2511   1.431   1.430   2.673 -0.0593 -0.7002  0.1913
  194THF     C3 2512   1.206   1.419   2.738  0.4503 -0.4077  0.5101
  194THF     H4 2513   1.463   1.530   2.658  1.5495 -2.3516  1.9741
  194THF     H5 2514   1.495   1.372   2.622  0.5996 -0.5424  0.6888
  194THF     H6 2515   1.183   1.525   2.747 -2.2458  0.3563  0.9494
  194THF     H7 2516   1.110   1.380   2.721  1.2760 -0.8625 -1.7720
  194THF     C8 2517   1.275   1.376   2.868  0.8513  0.7924 -0.5452
  194THF     C9 2518   1.423   1.383   2.830 -0.0917  0.1545  0.4882
  194THF    H10 2519   1.256   1.273   2.889 -1.6148 -0.9982 -0.7260
  194THF    H11 2520   1.260   1.440   2.957 -1.6239 -2.8925  1.2496
  194THF    H12 2521   1.478   1.442   2.894 -0.4100 -1.2429  1.7583
  194THF    H13 2522   1.469   1.281   2.838  1.1175 -0.8636  1.3988
  195THF     O1 2523   0.321   3.599   3.928 -0.1032  0.3014 -0.2302
  195THF     C2 2524   0.274   3.696   4.016  0.6074  0.0075  0.2666
  195THF     C3 2525   0.224   3.496   3.920 -0.3756 -0.0937 -0.9883
  195THF     H4 2526   0.195   3.747   3.962 -0.5550 -1.3973 -2.7228
  195THF     H5 2527   0.352   3.762   4.059 -1.7586 -1.8187  0.1400
  195THF     H6 2528   0.142   3.524   3.846  0.4481 -1.8598 -0.2617
  195THF     H7 2529   0.259   3.397   3.888  0.6870  1.0924 -1.7125
  195THF     C8 2530   0.167   3.481   4.062  0.0172 -0.0939 -0.0351
  195THF     C9 2531   0.201   3.617   4.131  0.0210  0.2441  0.4287
  195THF    H10 2532   0.218   3.404   4.125 -0.8994 -0.1714 -2.5038
  195THF    H11 2533   0.066   3.459   4.068  1.7910  0.8551  1.1026
  195THF    H12 2534   0.106   3.669   4.150  0.4027 -0.7895  1.0773
  195THF    H13 2535   0.253   3.601   4.219  0.6251 -0.5811  0.4904
  196THF     O1 2536   0.416   1.285   0.922  0.0813  0.1341 -0.2962
  196THF     C2 2537   0.475   1.407   0.960  0.5234 -0.8965 -0.4423
  196THF     C3 2538   0.329   1.231   1.031 -0.3245  0.0529  0.0683
  196THF     H4 2539   0.485   1.470   0.872  1.6526  0.1545  1.7820
  196THF     H5 2540   0.573   1.389   1.004  2.9555 -1.7211  1.4845
  196THF     H6 2541   0.249   1.180   0.981 -2.3354  2.1037 -0.4163
  196THF     H7 2542   0.387   1.160   1.099 -2.8087  0.5495  3.5538
  196THF     C8 2543   0.287   1.367   1.103  0.6907  0.2885  0.0236
  196THF     C9 2544   0.389   1.474   1.068 -0.4734 -0.2187  0.4936
  196THF    H10 2545   0.268   1.353   1.214 -0.5532  1.4076 -2.8767
  196THF    H11 2546   0.192   1.395   1.051 -0.5405 -1.0796 -3.7697
  196THF    H12 2547   0.329   1.557   1.028 -0.4084 -0.8338 -0.7360
  196THF    H13 2548   0.455   1.517   1.148  3.2741  1.1552  0.1625
  197THF     O1 2549   1.085   5.118   0.672  0.2072 -0.3984  0.2938
  197THF     C2 2550   1.048   5.149   0.802  0.0922  0.8375 -0.2530
  197THF     C3 2551   1.163   5.230   0.638  1.0656 -0.1257  0.0632
  197THF     H4 2552   1.135   5.137   0.871  2.5376 -0.6674 -0.0748
  197THF     H5 2553   0.967   5.085   0.828  1.3976 -1.0608  1.4577
  197THF     H6 2554   1.260   5.223   0.687  1.6841  0.0683 -0.5985
  197THF     H7 2555   1.174   5.233   0.526 -1.9710  3.0186 -0.5869
  197THF     C8 2556   1.083   5.350   0.693 -0.1722  0.2094 -0.6912
  197THF     C9 2557   0.989   5.286   0.788  0.2078  0.4500 -0.1745
  197THF    H10 2558   1.030   5.396   0.611 -0.9316 -4.2398 -1.5064
  197THF    H11 2559   1.145   5.422   0.735  1.8451 -1.0369 -1.1792
  197THF    H12 2560   0.968   5.335   0.884 -0.3993  0.8249  1.1179
  197THF    H13 2561   0.892   5.273   0.747  0.2853  1.7484 -2.6935
  198THF     O1 2562   1.005   1.318   2.268 -0.0717  0.3406 -0.3458
  198THF     C2 2563   1.089   1.273   2.379 -0.0887 -0.4468 -0.4829
  198THF     C3 2564   0.897   1.385   2.336 -0.0741 -0.0493  0.1580
  198THF     H4 2565   1.139   1.365   2.422 -5.3606  0.6244  1.5236
  198THF     H5 2566   1.159   1.209   2.335 -2.5328 -0.2228 -0.8905
  198THF     H6 2567   0.934   1.468   2.385  2.3569 -3.0555 -2.0797
  198THF     H7 2568   0.815   1.406   2.268 -1.3955  1.3203 -1.8080
  198THF     C8 2569   0.862   1.282   2.443 -0.5316 -1.0431  0.0475
  198THF     C9 2570   0.991   1.217   2.473 -0.4571 -0.6585  0.8568
  198THF    H10 2571   0.791   1.210   2.407 -0.8522 -2.2751  2.0570
  198THF    H11 2572   0.809   1.326   2.530 -2.8886  1.5142  0.8326
  198THF    H12 2573   1.015   1.242   2.582  0.6135  1.2520  0.7424
  198THF    H13 2574   0.999   1.104   2.470 -0.3662 -2.5480 -0.4290
  199THF     O1 2575   1.788   4.584   1.269 -0.2629  0.4540  0.5798
  199THF     C2 2576   1.665   4.515   1.285  0.2702  0.7229  0.0361
  199THF     C3 2577   1.754   4.712   1.219  0.1229 -0.0914 -0.3590
  199THF     H4 2578   1.635   4.551   1.384 -2.8734 -2.0939  0.5400
  199THF     H5 2579   1.673   4.405   1.300  0.4829 -2.6070  3.4456
  199THF     H6 2580   1.755   4.786   1.296 -1.6333  1.2747 -0.3334
  199THF     H7 2581   1.837   4.747   1.152 -0.0954  0.6578 -0.1603
  199THF     C8 2582   1.636   4.696   1.131 -0.3274 -0.0226  0.2647
  199THF     C9 2583   1.571   4.567   1.184 -0.0629 -0.7641 -0.0883
  199THF    H10 2584   1.659   4.695   1.023 -0.0116 -1.4742 -3.4140
  199THF    H11 2585   1.578   4.787   1.162  0.4472  3.1005 -0.4262
  199THF    H12 2586   1.471   4.578   1.225  0.7297 -1.5554 -2.1670
  199THF    H13 2587   1.551   4.502   1.099  0.9880 -4.2535 -0.7992
  200THF     O1 2588   0.888   1.336   0.543  0.3099  0.3805  0.6030
  200THF     C2 2589   0.993   1.261   0.480 -0.5027  0.3835  0.1665
  200THF     C3 2590   0.789   1.354   0.442  0.5124  0.1881 -0.0129
  200THF     H4 2591   0.977   1.156   0.481  0.1218 -0.3630  0.1670
  200THF     H5 2592   1.082   1.269   0.538  0.1918 -2.1561 -0.4527
  200THF     H6 2593   0.697   1.286   0.460 -0.8860 -2.2909  0.9106
  200THF     H7 2594   0.750   1.453   0.455  0.1706  2.4423  1.1049
  200THF     C8 2595   0.852   1.342   0.297  0.2178  0.1803 -0.0253
  200THF     C9 2596   0.999   1.319   0.337  0.6199  0.1338  0.2319
  200THF    H10 2597   0.838   1.423   0.228  0.0664 -0.1897  0.1712
  200THF    H11 2598   0.811   1.249   0.251  0.9166  2.5325  0.4459
  200THF    H12 2599   1.050   1.251   0.268  2.8538 -1.6707  1.1596
  200THF    H13 2600   1.057   1.412   0.331 -1.2831  0.5340  0.7258
  201THF     O1 2601   2.533   3.083   4.400 -0.5570 -0.0694  0.2509
  201THF     C2 2602   2.666   3.074   4.425  0.3220 -0.2345  0.1103
  201THF     C3 2603   2.463   3.090   4.522 -0.2315  0.4561  0.7097
  201THF     H4 2604   2.701   3.172   4.456  3.0083  0.0746 -0.0720
  201THF     H5 2605   2.725   3.053   4.335 -1.8289  0.7074 -2.7553
  201THF     H6 2606   2.454   3.188   4.552  1.6981 -2.2271 -0.6814
  201THF     H7 2607   2.361   3.044   4.527 -0.1457 -1.7440  0.9379
  201THF     C8 2608   2.542   3.014   4.618  0.0229  0.5686 -0.1476
  201THF     C9 2609   2.669   2.984   4.544 -0.0107 -0.5317 -0.5434
  201THF    H10 2610   2.499   2.918   4.655 -2.4767 -2.4282 -0.6078
  201THF    H11 2611   2.564   3.081   4.703  2.8423 -0.1283 -0.6532
  201THF    H12 2612   2.759   2.996   4.603  2.3383  0.2070  0.5931
  201THF    H13 2613   2.661   2.887   4.501  0.4049  0.8308  0.1757
  202THF     O1 2614   2.780   4.422   5.168 -0.2060 -0.3116 -0.1053
  202THF     C2 2615   2.820   4.495   5.055 -0.3663  0.3757 -0.3295
  202THF     C3 2616   2.640   4.399   5.151  0.0366  0.6168 -0.2429
  202THF     H4 2617   2.907   4.436   5.014 -2.2290  1.3059 -2.2913
  202THF     H5 2618   2.857   4.588   5.091  0.4940 -2.2595 -1.3074
  202THF     H6 2619   2.615   4.307   5.212  1.7924 -0.7732 -0.5795
  202THF     H7 2620   2.591   4.481   5.202 -0.9717  1.4871  1.3252
  202THF     C8 2621   2.614   4.388   5.001  0.7797 -0.3543  0.3919
  202THF     C9 2622   2.697   4.504   4.960 -0.4673  0.0936 -0.2790
  202THF    H10 2623   2.506   4.418   4.998  0.4818  1.3602 -1.1378
  202THF    H11 2624   2.628   4.292   4.948  0.1143  2.3808 -0.7103
  202THF    H12 2625   2.736   4.511   4.858  0.7192 -1.1526 -2.1600
  202THF    H13 2626   2.648   4.595   4.980 -0.2721  1.7597  0.1631
  203THF     O1 2627   2.933   3.310   2.248  0.3101 -0.3218 -0.2972
  203THF     C2 2628   2.915   3.452   2.242  0.1383  0.1038 -1.1744
  203THF     C3 2629   2.822   3.258   2.183 -0.0072 -0.8024 -0.1063
  203THF     H4 2630   3.007   3.507   2.273 -3.4857  1.2937 -2.0493
  203THF     H5 2631   2.836   3.471   2.308  0.4949 -1.9131 -0.7880
  203THF     H6 2632   2.841   3.149   2.136 -2.4905 -2.0983 -0.6604
  203THF     H7 2633   2.735   3.238   2.250 -0.4262  0.5921  1.4795
  203THF     C8 2634   2.780   3.360   2.084 -0.0799  0.0204  0.1191
  203THF     C9 2635   2.872   3.477   2.104  0.2532 -0.4580 -0.3482
  203THF    H10 2636   2.680   3.374   2.108  2.4057  2.1964  2.4679
  203THF    H11 2637   2.773   3.315   1.981  1.5443 -2.3204 -0.7734
  203THF    H12 2638   2.956   3.477   2.042 -1.5449 -0.0240 -0.0758
  203THF    H13 2639   2.830   3.575   2.084 -1.6601 -1.6756  2.7432
  204THF     O1 2640   3.978   2.306   3.219  0.6073 -0.2402  0.6553
  204THF     C2 2641   3.904   2.387   3.119  0.0304 -0.2053 -0.4960
  204THF     C3 2642   4.008   2.399   3.328 -0.8754 -0.1838  0.3604
  204THF     H4 2643   3.796   2.382   3.131 -0.5449  0.2230 -1.9665
  204THF     H5 2644   3.934   2.358   3.021 -1.8654 -0.1569 -0.8970
  204THF     H6 2645   3.917   2.417   3.395 -1.7549  0.2735  0.3247
  204THF     H7 2646   4.095   2.351   3.388  2.5301 -3.5923 -0.6836
  204THF     C8 2647   4.050   2.522   3.242 -0.5125  0.2598 -0.0861
  204THF     C9 2648   3.961   2.526   3.127  0.5734 -0.4546  0.3619
  204THF    H10 2649   4.151   2.516   3.209 -0.8201  0.7544  1.4714
  204THF    H11 2650   4.048   2.609   3.306 -1.7172 -0.7269 -4.2456
  204THF    H12 2651   3.877   2.595   3.150 -4.2227 -0.2196  3.3836
  204THF    H13 2652   4.021   2.553   3.042 -1.7852  2.0763  0.4285
  205THF     O1 2653   0.143   3.784   5.258 -0.0405 -0.0321  0.3491
  205THF     C2 2654   0.211   3.906   5.285 -0.3115 -0.1019  1.1742
  205THF     C3 2655   0.236   3.698   5.193 -0.0996 -0.4430  0.0731
  205THF     H4 2656   0.251   3.890   5.382 -1.2402  0.9258  1.2543
  205THF     H5 2657   0.144   3.992   5.291  0.7281  0.4269 -1.9110
  205THF     H6 2658   0.292   3.644   5.264 -0.5267 -0.7802 -3.3509
  205THF     H7 2659   0.184   3.617   5.145  0.9433  0.2782 -0.3060
  205THF     C8 2660   0.321   3.788   5.098 -0.7156  0.0564 -0.8987
  205THF     C9 2661   0.328   3.914   5.180  0.1178 -0.4083  0.2124
  205THF    H10 2662   0.278   3.804   4.997 -1.2547  0.4357 -2.4684
  205THF    H11 2663   0.419   3.744   5.082  1.3332  2.9121 -0.4477
  205THF    H12 2664   0.428   3.928   5.227  0.1687  2.2745  0.2557
  205THF    H13 2665   0.305   4.003   5.117 -0.6106 -1.8767  0.9038
  206THF     O1 2666   3.598   1.458   0.929  0.4493 -0.8269  0.2144
  206THF     C2 2667   3.506   1.528   0.840 -0.7515 -0.8169  0.0283
  206THF     C3 2668   3.522   1.449   1.054  0.3121 -0.1802  0.3378
  206THF     H4 2669   3.529   1.537   0.734  2.7229  1.0714 -1.9681
  206THF     H5 2670   3.504   1.632   0.860 -0.0181  1.5637 -0.2369
  206THF     H6 2671   3.569   1.390   1.133  0.5233  0.2191  0.7630
  206THF     H7 2672   3.518   1.546   1.097  0.3076 -1.6867 -0.3739
  206THF     C8 2673   3.389   1.399   1.009  0.2096  0.1461  0.5627
  206THF     C9 2674   3.374   1.469   0.874  0.1344  0.3637 -0.6143
  206THF    H10 2675   3.303   1.421   1.070  1.4115  1.4364 -3.5571
  206THF    H11 2676   3.400   1.287   1.002 -0.4504  0.3037  0.5765
  206THF    H12 2677   3.339   1.400   0.804  0.2670  1.1862  0.3375
  206THF    H13 2678   3.303   1.550   0.883  1.4401 -0.3327  1.0041
  207THF     O1 2679   3.967   5.155   5.301  0.1372 -0.1794 -0.5187
  207THF     C2 2680   3.977   5.070   5.416 -0.2341  0.0095  0.4497
  207THF     C3 2681   3.834   5.202   5.294 -0.7432  0.5206 -0.4175
  207THF     H4 2682   3.978   5.116   5.514  1.9342 -1.0766 -0.6696
  207THF     H5 2683   4.072   5.018   5.395 -1.1971  0.8846  0.6649
  207THF     H6 2684   3.795   5.272   5.368  1.2489  0.7784  0.7696
  207THF     H7 2685   3.826   5.237   5.189 -2.0570 -1.0612 -0.1576
  207THF     C8 2686   3.754   5.074   5.317  0.4440 -0.7149 -0.2931
  207THF     C9 2687   3.853   4.980   5.389  0.3696  0.7959  0.2445
  207THF    H10 2688   3.717   5.030   5.227  0.4600  0.4051 -2.6513
  207THF    H11 2689   3.667   5.100   5.378 -0.8643  0.1903  1.1792
  207THF    H12 2690   3.821   4.930   5.485 -0.9184 -1.0607  0.2071
  207THF    H13 2691   3.877   4.898   5.319 -1.8196  0.3725 -2.7466
  208THF     O1 2692   4.464   1.620   3.760  0.1465 -0.1236 -0.4547
  208THF     C2 2693   4.553   1.542   3.834 -0.1412  0.5919 -0.9517
  208THF     C3 2694   4.407   1.717   3.841  0.6066 -1.0435  0.4143
  208THF     H4 2695   4.603   1.490   3.753 -0.1605 -1.6603 -0.1377
  208THF     H5 2696   4.509   1.474   3.907 -3.2278 -0.5183 -1.5298
  208THF     H6 2697   4.359   1.798   3.781  0.9976  2.4368 -0.0808
  208THF     H7 2698   4.331   1.668   3.903 -0.4275  0.5322  1.7924
  208THF     C8 2699   4.526   1.768   3.922 -0.5067 -0.4981 -0.6129
  208THF     C9 2700   4.632   1.654   3.902 -0.0261  0.1873  0.0834
  208THF    H10 2701   4.485   1.781   4.021 -0.3289 -0.7119  0.5483
  208THF    H11 2702   4.551   1.862   3.883  0.1444  2.5657  0.9345
  208THF    H12 2703   4.714   1.683   3.839  0.0964  1.2397  1.7608
  208THF    H13 2704   4.676   1.626   3.995 -0.6157  2.4324 -1.0913
  209THF     O1 2705   4.678   2.432   1.368 -0.3305 -0.7899  0.3728
  209THF     C2 2706   4.544   2.460   1.315  0.0720 -0.1790  0.0572
  209THF     C3 2707   4.741   2.562   1.383  0.2022  0.0745 -0.3436
  209THF     H4 2708   4.472   2.375   1.322  1.2142  1.0216  0.7030
  209THF     H5 2709   4.555   2.494   1.215  0.2909  0.2131  0.0414
  209THF     H6 2710   4.830   2.556   1.449 -1.8489  0.8039  1.6620
  209THF     H7 2711   4.770   2.594   1.279  0.1453  3.8846 -2.5027
  209THF     C8 2712   4.631   2.657   1.435 -0.1381 -0.8888 -0.8510
  209THF     C9 2713   4.498   2.581   1.396  0.2438  0.0258 -0.2036
  209THF    H10 2714   4.649   2.759   1.397 -0.0174 -1.5706 -0.2514
  209THF    H11 2715   4.632   2.650   1.544  0.1047 -1.2497  1.0457
  209THF    H12 2716   4.448   2.541   1.494 -0.9034 -0.0554  0.2649
  209THF    H13 2717   4.417   2.642   1.344 -2.0478  1.1424  1.2540
  210THF     O1 2718   2.689   4.644   0.953  0.2059 -1.1015  0.0861
  210THF     C2 2719   2.641   4.712   1.070 -0.4172  0.4919  0.5400
  210THF     C3 2720   2.781   4.544   0.990 -0.0799  0.2795  0.1561
  210THF     H4 2721   2.555   4.777   1.051 -0.7082  0.3167  0.2772
  210THF     H5 2722   2.724   4.770   1.105 -0.1091  2.5728 -1.3640
  210THF     H6 2723   2.764   4.463   0.921  0.3968 -0.9628 -0.7153
  210THF     H7 2724   2.883   4.582   0.990 -3.1157 -0.3345  2.2390
  210THF     C8 2725   2.744   4.507   1.135 -0.0119  0.3323 -0.3702
  210THF     C9 2726   2.621   4.591   1.154 -0.2063 -0.3618 -0.0658
  210THF    H10 2727   2.818   4.531   1.207  0.6166 -1.1702  0.2349
  210THF    H11 2728   2.724   4.403   1.154  0.6652  2.1043  1.4951
  210THF    H12 2729   2.537   4.555   1.103  1.5118  0.5587 -2.8187
  210THF    H13 2730   2.596   4.609   1.257  0.8350 -2.8280 -1.1032
  211THF     O1 2731   1.850   3.581   0.625  0.1165  0.0524  0.1714
  211THF     C2 2732   1.854   3.616   0.485  0.0779  0.5959 -0.2557
  211THF     C3 2733   1.987   3.577   0.673 -0.4279  0.7752 -0.5648
  211THF     H4 2734   1.792   3.702   0.462 -0.4083 -0.9848 -0.8319
  211THF     H5 2735   1.811   3.539   0.424  0.1709 -1.5254  0.0155
  211THF     H6 2736   1.996   3.603   0.783 -0.5665  1.5057  0.5328
  211THF     H7 2737   2.027   3.475   0.658  1.8494  0.2117  0.5098
  211THF     C8 2738   2.055   3.682   0.580 -0.4270  0.0087 -0.0713
  211THF     C9 2739   1.988   3.656   0.447  0.2466 -0.0617 -0.3866
  211THF    H10 2740   2.166   3.671   0.579 -0.7898 -2.9963  1.1657
  211THF    H11 2741   2.041   3.792   0.608  0.4913  1.0327  3.2742
  211THF    H12 2742   1.979   3.744   0.387  1.4207 -1.1131 -1.8036
  211THF    H13 2743   2.038   3.578   0.386  0.3069 -1.4569  1.2525
  212THF     O1 2744   4.810   3.061   0.421 -0.0790  0.3572 -0.4026
  212THF     C2 2745   4.732   2.988   0.516 -0.1776  0.3224  0.7216
  212THF     C3 2746   4.771   3.194   0.438 -0.1179  0.5757 -0.0911
  212THF     H4 2747   4.770   3.016   0.614  1.1141 -0.4350  2.5714
  212THF     H5 2748   4.737   2.883   0.509 -0.2543 -0.4353  0.2858
  212THF     H6 2749   4.814   3.225   0.531 -1.0136  0.3827  1.6555
  212THF     H7 2750   4.805   3.262   0.361  0.8994 -0.5290 -0.4240
  212THF     C8 2751   4.619   3.189   0.466  1.1330  0.0313  0.1294
  212THF     C9 2752   4.598   3.041   0.494 -0.1504 -0.5605 -1.3564
  212THF    H10 2753   4.562   3.217   0.378 -3.2430  0.8139  1.8107
  212THF    H11 2754   4.593   3.259   0.544  0.7164 -1.0224  1.7346
  212THF    H12 2755   4.528   3.037   0.580  0.1797  1.3345 -1.3192
  212THF    H13 2756   4.550   2.982   0.413  0.3476  0.8406 -2.6214
  213THF     O1 2757   1.714   1.411   1.657  0.3819  0.4893 -0.2101
  213THF     C2 2758   1.815   1.480   1.591 -0.1656  0.2277  0.8922
  213THF     C3 2759   1.598   1.490   1.641 -0.3296  0.2389 -0.0281
  213THF     H4 2760   1.907   1.422   1.579 -1.0506  1.2006  0.4829
  213THF     H5 2761   1.848   1.560   1.654 -0.2891 -0.5718 -2.6157
  213THF     H6 2762   1.506   1.428   1.665  1.7434 -0.9682  0.7147
  213THF     H7 2763   1.607   1.579   1.708  0.8540 -0.7733 -3.3489
  213THF     C8 2764   1.607   1.539   1.502 -0.0071  0.2787  0.3080
  213THF     C9 2765   1.757   1.538   1.469  0.0173 -0.1747  0.5007
  213THF    H10 2766   1.572   1.639   1.505  2.4488 -1.6339 -0.2025
  213THF    H11 2767   1.540   1.476   1.438  0.9084 -2.1401 -0.6933
  213THF    H12 2768   1.782   1.472   1.387 -2.9358  0.5098  0.2839
  213THF    H13 2769   1.796   1.640   1.455 -0.4754  0.5577  2.7095
  214THF     O1 2770   2.508   5.200   1.627  0.0275  0.3796 -0.9881
  214THF     C2 2771   2.462   5.149   1.753 -0.1902  0.1359 -0.2559
  214THF     C3 2772   2.398   5.217   1.541 -0.3135 -0.0947 -0.4492
  214THF     H4 2773   2.468   5.223   1.832 -2.4922  0.2271 -1.3171
  214THF     H5 2774   2.533   5.074   1.783 -0.3334  1.6910 -0.3925
  214THF     H6 2775   2.405   5.308   1.489  1.8173 -1.6471 -1.4938
  214THF     H7 2776   2.394   5.126   1.476 -0.2159 -0.0377 -1.2839
  214THF     C8 2777   2.272   5.198   1.622  0.1859  0.8159  0.3130
  214THF     C9 2778   2.320   5.105   1.732 -0.2208  0.5158 -0.5287
  214THF    H10 2779   2.188   5.170   1.548 -2.5465 -1.3938 -3.4790
  214THF    H11 2780   2.243   5.291   1.671  1.0982  0.0017 -1.4643
  214THF    H12 2781   2.252   5.110   1.816  2.3039 -4.4280  1.6786
  214THF    H13 2782   2.320   5.002   1.701 -0.4890  1.6316 -1.5181
  215THF     O1 2783   3.937   4.303   3.809  0.1187 -0.5899 -0.1961
  215THF     C2 2784   3.880   4.407   3.889  0.2550 -0.0649  0.2245
  215THF     C3 2785   3.906   4.323   3.675  0.5261  0.3146 -0.1879
  215THF     H4 2786   3.924   4.417   3.987  0.0281  0.6449 -0.4249
  215THF     H5 2787   3.778   4.375   3.903  0.6947 -1.1805 -0.6552
  215THF     H6 2788   3.999   4.302   3.626  0.5996  0.8878  0.8986
  215THF     H7 2789   3.835   4.249   3.639 -1.8725 -0.8004 -0.5059
  215THF     C8 2790   3.858   4.467   3.661 -0.2777 -0.2036 -0.9204
  215THF     C9 2791   3.885   4.527   3.800  0.0731 -0.1739  0.2233
  215THF    H10 2792   3.751   4.461   3.636  0.0305  0.9310  1.4793
  215THF    H11 2793   3.912   4.519   3.590 -0.1191 -0.6219  2.5848
  215THF    H12 2794   3.982   4.574   3.792  2.6933 -1.5497 -0.3664
  215THF    H13 2795   3.809   4.594   3.831  0.3689 -1.4821  0.6650
  216THF     O1 2796   2.923   0.572   1.572  0.2251  0.4067 -0.2703
  216THF     C2 2797   2.850   0.466   1.512  0.9606 -0.4598  0.9098
  216THF     C3 2798   2.870   0.609   1.698 -0.1761 -0.1702 -0.0013
  216THF     H4 2799   2.910   0.372   1.522 -1.9454  0.1141  2.6942
  216THF     H5 2800   2.835   0.489   1.409  0.8727 -1.2961  1.1856
  216THF     H6 2801   2.888   0.530   1.769  1.6328 -0.4040  0.6063
  216THF     H7 2802   2.900   0.706   1.744  2.7023 -1.1665  0.8091
  216THF     C8 2803   2.721   0.590   1.669 -0.7791 -0.0429  0.1553
  216THF     C9 2804   2.711   0.462   1.583  0.2411  0.9573 -0.7098
  216THF    H10 2805   2.673   0.672   1.622  1.2002 -1.3411  1.6191
  216THF    H11 2806   2.670   0.590   1.770  0.2795  1.0089  0.7372
  216THF    H12 2807   2.728   0.373   1.643  1.5697  3.5827 -1.5633
  216THF    H13 2808   2.625   0.464   1.512 -2.2198  2.9210 -0.4028
  217THF     O1 2809   4.554   0.060   0.539 -0.1509  0.2879  0.3900
  217THF     C2 2810   4.579   0.198   0.528  0.6915  0.1681  0.1036
  217THF     C3 2811   4.542   0.004   0.414 -0.3159  0.4152  0.4270
  217THF     H4 2812   4.680   0.229   0.533  1.4384  1.9589 -1.5127
  217THF     H5 2813   4.532   0.254   0.609  2.7386  2.0136  1.2861
  217THF     H6 2814   4.643  -0.012   0.373 -2.4532  0.6697  1.6512
  217THF     H7 2815   4.480  -0.080   0.408  0.7523  2.2391 -2.4578
  217THF     C8 2816   4.466   0.114   0.342 -0.3957 -0.0022 -0.2102
  217THF     C9 2817   4.509   0.244   0.410 -0.3984  0.5108 -0.2990
  217THF    H10 2818   4.363   0.083   0.360  0.8750 -2.6813  0.0089
  217THF    H11 2819   4.490   0.105   0.237 -0.0713  4.0590  0.4550
  217THF    H12 2820   4.572   0.314   0.356 -1.7272 -0.2976  0.3674
  217THF    H13 2821   4.417   0.299   0.430  1.9765 -3.3294 -0.4111
  218THF     O1 2822   4.110   5.220   2.752  0.1853 -0.5578 -0.1123
  218THF     C2 2823   4.150   5.086   2.764  0.1247 -0.5936 -0.2402
  218THF     C3 2824   4.020   5.246   2.853  1.0482  0.4631  0.0640
  218THF     H4 2825   4.232   5.072   2.840 -0.3886 -1.2311  0.0179
  218THF     H5 2826   4.195   5.040   2.675  1.7035  0.4914  0.8460
  218THF     H6 2827   4.083   5.244   2.940 -0.2054 -2.6812  0.0968
  218THF     H7 2828   3.963   5.336   2.836 -0.9803  1.5105  1.2100
  218THF     C8 2829   3.927   5.118   2.868  0.1280  0.3215  0.0677
  218THF     C9 2830   4.017   5.018   2.798 -0.7301 -0.0730  0.4824
  218THF    H10 2831   3.834   5.130   2.811 -0.1622 -1.2743 -2.4322
  218THF    H11 2832   3.909   5.098   2.974  2.3629  1.1082  1.9671
  218THF    H12 2833   4.037   4.919   2.848 -0.2017 -5.2026  2.5842
  218THF    H13 2834   3.973   4.979   2.713  0.1627  0.5699 -3.6372
  219THF     O1 2835   3.927   0.959   2.144 -0.2554  0.5010 -0.5435
  219THF     C2 2836   3.831   0.935   2.251 -0.0555 -0.2469  0.0269
  219THF     C3 2837   4.031   0.868   2.166 -0.6890  0.4719 -0.4962
  219THF     H4 2838   3.734   0.902   2.207 -0.2114 -1.7797 -1.0213
  219THF     H5 2839   3.813   1.033   2.285  0.2439 -2.3777 -1.0288
  219THF     H6 2840   3.997   0.776   2.124  1.3749 -2.0053  0.7391
  219THF     H7 2841   4.125   0.901   2.121 -2.1523  1.3400 -1.0437
  219THF     C8 2842   4.046   0.852   2.315  0.0993  0.1939  0.1427
  219THF     C9 2843   3.898   0.849   2.361 -0.6060 -0.1438  0.1028
  219THF    H10 2844   4.102   0.944   2.352 -0.9929  0.4610  2.5228
  219THF    H11 2845   4.099   0.772   2.358 -0.2388 -0.6374  0.1524
  219THF    H12 2846   3.862   0.743   2.366  4.2847 -0.9386 -0.2627
  219THF    H13 2847   3.889   0.888   2.463 -0.7113  0.2161  0.9830
  220THF     O1 2848   1.609   0.630   5.239 -0.7010  0.1689  0.2394
  220THF     C2 2849   1.534   0.746   5.281 -0.5875 -0.2240  0.2485
  220THF     C3 2850   1.629   0.621   5.101  0.5834 -0.2300  0.2125
  220THF     H4 2851   1.591   0.802   5.354 -2.0888  0.2860  0.5253
  220THF     H5 2852   1.445   0.718   5.333  1.0226 -3.2114  0.2836
  220THF     H6 2853   1.733   0.632   5.081 -0.2141 -0.6919 -2.5423
  220THF     H7 2854   1.611   0.520   5.059  0.0112  1.4574 -0.9555
  220THF     C8 2855   1.537   0.733   5.048  0.6438 -0.1468  0.3313
  220THF     C9 2856   1.527   0.833   5.157  0.2897  0.1384  0.9937
  220THF    H10 2857   1.439   0.690   5.036 -1.3675 -1.3475  0.3116
  220THF    H11 2858   1.569   0.777   4.957  1.4159 -1.8868 -2.6008
  220THF    H12 2859   1.608   0.909   5.151  2.7731 -1.8704  1.0583
  220THF    H13 2860   1.434   0.884   5.164  3.4687 -2.0989  0.7194
  221THF     O1 2861   0.803   1.609   2.675 -0.2046  0.4297 -0.0726
  221THF     C2 2862   0.687   1.660   2.734  0.1941  0.2554 -1.0264
  221THF     C3 2863   0.807   1.656   2.543  0.2613  0.3991  0.2805
  221THF     H4 2864   0.709   1.691   2.840 -1.2991  0.5956  0.4648
  221THF     H5 2865   0.613   1.582   2.751 -1.8803  2.2796  1.7887
  221THF     H6 2866   0.911   1.656   2.510  0.2594 -0.1208 -0.1004
  221THF     H7 2867   0.742   1.591   2.488  1.0658 -1.2148 -0.0054
  221THF     C8 2868   0.758   1.797   2.559  0.1204 -0.4838 -0.0050
  221THF     C9 2869   0.638   1.776   2.657 -0.6117 -0.2962 -0.1680
  221THF    H10 2870   0.729   1.849   2.471 -0.7417 -0.3059  3.7307
  221THF    H11 2871   0.834   1.856   2.604  0.0533  0.3253  0.4784
  221THF    H12 2872   0.632   1.866   2.721 -1.4358 -3.1339  0.0504
  221THF    H13 2873   0.550   1.761   2.596 -1.6777 -2.3543  0.5627
  222THF     O1 2874   0.026   1.252   5.372 -0.7618 -0.5154 -0.4312
  222THF     C2 2875   0.066   1.313   5.255  0.4340 -0.4241 -0.1541
  222THF     C3 2876   0.116   1.263   5.474  0.2455 -0.4567  0.1422
  222THF     H4 2877   0.045   1.420   5.258  0.5875  0.1554  0.0212
  222THF     H5 2878   0.019   1.268   5.169 -0.6088 -3.5801 -1.7663
  222THF     H6 2879   0.113   1.365   5.520  3.8095  2.5969  0.3048
  222THF     H7 2880   0.114   1.187   5.553  0.9035  0.7173 -0.5791
  222THF     C8 2881   0.240   1.238   5.398 -0.3591 -0.3728  0.1683
  222THF     C9 2882   0.212   1.273   5.254  0.6098 -0.4672  0.6357
  222THF    H10 2883   0.267   1.131   5.407  1.1783 -2.0856  1.2227
  222THF    H11 2884   0.314   1.301   5.441  1.4993 -1.8796  1.5928
  222THF    H12 2885   0.265   1.363   5.222  0.4262 -0.6254  0.4396
  222THF    H13 2886   0.245   1.185   5.205  0.9612  0.4763 -0.8902
  223THF     O1 2887   2.165   3.824   3.022 -0.3315  0.0140  0.4060
  223THF     C2 2888   2.113   3.696   3.066  0.4921  0.4907  0.2041
  223THF     C3 2889   2.257   3.858   3.121  0.0843 -0.2554  0.1223
  223THF     H4 2890   2.185   3.622   3.039  2.3260 -0.2712  1.0947
  223THF     H5 2891   2.015   3.679   3.018 -0.2488 -0.3774 -1.0461
  223THF     H6 2892   2.350   3.795   3.122  1.4664  0.0120  1.1039
  223THF     H7 2893   2.290   3.959   3.108  0.6401 -0.9015  2.4170
  223THF     C8 2894   2.173   3.830   3.253 -0.3998  0.0849  0.1789
  223THF     C9 2895   2.096   3.703   3.215 -0.3695 -0.1418  0.5554
  223THF    H10 2896   2.102   3.912   3.274  0.1746  0.3741  2.2894
  223THF    H11 2897   2.242   3.821   3.340 -0.1068  0.1589 -0.1701
  223THF    H12 2898   2.138   3.614   3.265  0.3638 -1.3779  2.9394
  223THF    H13 2899   1.996   3.720   3.247  1.9665  1.0722 -0.7930
  224THF     O1 2900   4.533   0.763   0.796  0.3796  0.1625 -0.3487
  224THF     C2 2901   4.574   0.685   0.907  0.3203 -0.2877 -0.3213
  224THF     C3 2902   4.418   0.713   0.730  0.3744  1.1387  0.3186
  224THF     H4 2903   4.517   0.704   0.997 -0.0933  0.3482  1.0161
  224THF     H5 2904   4.682   0.699   0.932  1.0193  2.1876 -0.0018
  224THF     H6 2905   4.325   0.759   0.775  1.4844  2.1146 -1.0476
  224THF     H7 2906   4.430   0.735   0.625  0.8281  0.4215  2.0237
  224THF     C8 2907   4.435   0.559   0.752  0.3248 -0.1189 -0.2127
  224THF     C9 2908   4.546   0.541   0.857  0.7110 -0.1580  0.1941
  224THF    H10 2909   4.465   0.516   0.662  1.5431 -1.3968 -0.1276
  224THF    H11 2910   4.336   0.514   0.773 -0.1531  0.5494  1.8374
  224THF    H12 2911   4.512   0.494   0.950 -1.2363  1.8801  0.9072
  224THF    H13 2912   4.630   0.503   0.801  1.3456  0.9878 -0.9699
  225THF     O1 2913   4.744   2.030   0.620 -0.1968  0.1723  0.4209
  225THF     C2 2914   4.872   2.025   0.564 -0.6179  0.0206 -0.1116
  225THF     C3 2915   4.693   1.899   0.628  0.8396  1.0829  0.2874
  225THF     H4 2916   4.927   2.112   0.604  1.7285 -0.9823  3.8273
  225THF     H5 2917   4.866   2.025   0.454 -0.7293 -3.1481 -1.3410
  225THF     H6 2918   4.609   1.895   0.694  0.8842  1.1099  0.7662
  225THF     H7 2919   4.670   1.859   0.527  2.5875  2.2376  1.2733
  225THF     C8 2920   4.822   1.823   0.674  0.3111 -0.0107 -0.1834
  225THF     C9 2921   4.932   1.891   0.605  0.4350 -0.6161  0.0698
  225THF    H10 2922   4.833   1.713   0.662  1.7341  0.5172 -1.5731
  225THF    H11 2923   4.836   1.840   0.779  0.7717  1.9070 -2.6331
  225THF    H12 2924   5.011   1.907   0.680  1.8315  0.0526  0.7757
  225THF    H13 2925   4.960   1.848   0.512 -0.7774  0.7378  2.6556
  226THF     O1 2926   2.768   0.305   0.266 -0.7411  0.7105 -0.2207
  226THF     C2 2927   2.635   0.328   0.292  0.0046 -0.5267  0.5391
  226THF     C3 2928   2.780   0.297   0.122  0.3567 -0.1115  0.2621
  226THF     H4 2929   2.600   0.431   0.279 -2.1420 -1.9534 -0.4963
  226THF     H5 2930   2.607   0.316   0.394  0.3518  0.7494 -1.8139
  226THF     H6 2931   2.782   0.401   0.077 -1.4340 -0.2664  1.6710
  226THF     H7 2932   2.861   0.235   0.101  0.9792 -1.1249 -2.4475
  226THF     C8 2933   2.645   0.226   0.081  0.6546  0.2635 -0.1964
  226THF     C9 2934   2.561   0.230   0.206  0.7827  0.4854 -0.4031
  226THF    H10 2935   2.669   0.127   0.046 -1.2704  0.8348 -0.3721
  226THF    H11 2936   2.600   0.282   0.001 -2.7815 -0.1355 -1.0614
  226THF    H12 2937   2.459   0.256   0.192 -0.5677  0.1530  1.6751
  226THF    H13 2938   2.567   0.126   0.254 -1.1606 -1.9922 -4.5449
  227THF     O1 2939   3.290   4.493   1.934  0.2037  0.1428  0.0859
  227THF     C2 2940   3.232   4.616   1.909  0.5601 -0.5516  0.2083
  227THF     C3 2941   3.393   4.496   1.839  0.0713 -0.1687 -0.4827
  227THF     H4 2942   3.286   4.698   1.963  1.6382 -0.7163  0.1796
  227THF     H5 2943   3.131   4.620   1.952 -0.3871 -0.6243  0.0631
  227THF     H6 2944   3.472   4.555   1.885 -1.4700  0.5841 -0.8637
  227THF     H7 2945   3.434   4.399   1.802  1.3783 -0.0901 -0.7104
  227THF     C8 2946   3.347   4.569   1.716  0.2157  0.2336 -0.3281
  227THF     C9 2947   3.234   4.652   1.761  0.3509  0.0294  0.2345
  227THF    H10 2948   3.314   4.493   1.652  1.9522  2.0665  1.6652
  227THF    H11 2949   3.434   4.621   1.669  0.1393  0.9164  0.1497
  227THF    H12 2950   3.262   4.755   1.742 -1.2449  0.2177  0.9855
  227THF    H13 2951   3.137   4.634   1.710 -0.3476 -0.0573 -0.9276
  228THF     O1 2952   1.783   2.205   0.863  0.1170  0.4619  0.0746
  228THF     C2 2953   1.876   2.177   0.762  0.0421  0.6313  0.5395
  228THF     C3 2954   1.689   2.099   0.862  0.3415  0.5842 -0.1867
  228THF     H4 2955   1.975   2.213   0.782  2.1884 -0.7465 -1.5000
  228THF     H5 2956   1.842   2.218   0.666  1.2133  2.5178 -2.0700
  228THF     H6 2957   1.612   2.088   0.936 -1.9632  1.1319 -3.2718
  228THF     H7 2958   1.625   2.108   0.767  2.3135 -2.2272 -0.0003
  228THF     C8 2959   1.779   1.970   0.839  0.0920  0.2215 -0.0346
  228THF     C9 2960   1.886   2.022   0.752 -0.0593 -0.7161  0.5126
  228THF    H10 2961   1.723   1.889   0.787  2.6837  0.5042  0.0491
  228THF    H11 2962   1.814   1.930   0.938  1.6798  0.2921  2.6649
  228THF    H12 2963   1.986   1.984   0.765 -0.4044 -2.0805 -1.6567
  228THF    H13 2964   1.855   1.996   0.651 -2.7427 -3.5015  1.9844
  229THF     O1 2965   0.901   0.238   4.630 -0.1629  0.2129  0.5275
  229THF     C2 2966   0.941   0.201   4.767 -0.3108  0.8118  0.2448
  229THF     C3 2967   0.863   0.117   4.560 -0.0653 -0.4993 -0.1319
  229THF     H4 2968   0.871   0.253   4.827  1.3161 -0.6187  0.1629
  229THF     H5 2969   1.045   0.238   4.788 -2.4116  0.2144  0.8581
  229THF     H6 2970   0.794   0.144   4.475 -1.4269 -2.2455  0.2159
  229THF     H7 2971   0.955   0.084   4.510  2.1116 -1.7175 -1.5902
  229THF     C8 2972   0.811   0.030   4.672  0.4544 -0.8277  0.2961
  229THF     C9 2973   0.921   0.051   4.774  0.7099  0.3517 -0.0911
  229THF    H10 2974   0.786  -0.074   4.642  1.5859 -1.6680 -1.8802
  229THF    H11 2975   0.721   0.087   4.706 -0.5445  0.3483 -0.0783
  229THF    H12 2976   0.881   0.009   4.865  0.1754  1.3604 -1.5588
  229THF    H13 2977   1.009  -0.006   4.749 -0.2099 -1.0757  0.2002
  230THF     O1 2978   4.466   3.196   1.439 -0.0396 -0.2806 -0.0597
  230THF     C2 2979   4.512   3.306   1.370  0.1450 -0.0863 -0.0845
  230THF     C3 2980   4.458   3.076   1.352 -0.1446 -0.3413  0.3317
  230THF     H4 2981   4.527   3.371   1.462 -2.4948  0.5728  0.2798
  230THF     H5 2982   4.446   3.352   1.293  0.9264 -2.7511  0.1378
  230THF     H6 2983   4.494   2.987   1.405  2.6042 -2.6708  1.9994
  230THF     H7 2984   4.356   3.060   1.314  0.2476 -0.2514 -1.6525
  230THF     C8 2985   4.573   3.109   1.247 -0.6217 -0.4829  0.3786
  230THF     C9 2986   4.626   3.249   1.287  0.3554  0.2990 -0.0124
  230THF    H10 2987   4.529   3.105   1.146  0.3461 -1.2758 -2.8727
  230THF    H11 2988   4.647   3.025   1.243 -1.5944 -2.2003 -0.1573
  230THF    H12 2989   4.716   3.238   1.352  1.2620  0.9295 -0.7045
  230THF    H13 2990   4.646   3.315   1.202  0.4876  1.3608  0.0609
  231THF     O1 2991   3.808   4.181   4.856 -0.2112 -0.7301  0.4328
  231THF     C2 2992   3.684   4.190   4.932  0.0950 -0.3774  0.2851
  231THF     C3 2993   3.918   4.188   4.952  0.2746 -0.2158  0.7242
  231THF     H4 2994   3.655   4.091   4.968  1.6185 -0.2338 -0.1618
  231THF     H5 2995   3.609   4.233   4.863  0.6091  1.3248 -0.7130
  231THF     H6 2996   3.915   4.096   5.018  0.0062 -0.9184  2.6137
  231THF     H7 2997   4.021   4.200   4.916  3.3266 -2.5310 -2.7820
  231THF     C8 2998   3.871   4.299   5.042 -0.6991 -0.0547 -0.3028
  231THF     C9 2999   3.720   4.276   5.061  0.4691  0.4492  0.3591
  231THF    H10 3000   3.879   4.399   4.994 -2.6194 -1.3593  0.7652
  231THF    H11 3001   3.923   4.294   5.137  1.4194  0.6954  1.7716
  231THF    H12 3002   3.716   4.216   5.151  0.2645  0.1906  0.3709
  231THF    H13 3003   3.651   4.362   5.065 -2.1958  0.5457  0.3388
  232THF     O1 3004   4.847   3.674   1.518 -0.7034 -0.3167 -0.1028
  232THF     C2 3005   4.897   3.774   1.603 -0.0751  0.4838 -0.6315
  232THF     C3 3006   4.776   3.582   1.600 -0.0585 -0.1777  0.1888
  232THF     H4 3007   4.912   3.869   1.559  0.0737 -0.4959 -2.9037
  232THF     H5 3008   4.995   3.767   1.649 -0.1091  0.3515 -1.7647
  232THF     H6 3009   4.685   3.554   1.544  3.5436  1.5938 -0.5343
  232THF     H7 3010   4.832   3.489   1.602 -1.4962 -0.0713 -2.2082
  232THF     C8 3011   4.742   3.650   1.734 -0.6552 -0.1006 -0.3823
  232THF     C9 3012   4.779   3.795   1.703 -0.4506  0.3154  0.6423
  232THF    H10 3013   4.801   3.614   1.812 -0.3417 -0.1925 -0.0573
  232THF    H11 3014   4.643   3.630   1.768  0.1804  0.9087  1.4405
  232THF    H12 3015   4.700   3.861   1.663 -0.1126 -0.0011 -0.0474
  232THF    H13 3016   4.816   3.840   1.794  0.0763  0.8296  0.7585
  233THF     O1 3017   1.992   3.516   2.534 -0.0197 -0.1075  0.0285
  233THF     C2 3018   1.957   3.653   2.539 -0.0604 -0.6956 -0.1362
  233THF     C3 3019   1.871   3.442   2.571 -0.0199 -0.0401  0.5860
  233THF     H4 3020   2.014   3.706   2.463  1.5640  1.6329  1.0096
  233THF     H5 3021   1.972   3.696   2.637  3.4420 -0.3902  0.8721
  233THF     H6 3022   1.871   3.345   2.532  2.7030  1.4516 -1.2371
  233THF     H7 3023   1.850   3.458   2.677 -0.4833 -1.8506  0.1589
  233THF     C8 3024   1.765   3.522   2.484  0.2638  0.0582 -0.7741
  233THF     C9 3025   1.803   3.664   2.515  0.5886 -0.3068 -0.1000
  233THF    H10 3026   1.664   3.498   2.506 -1.9262 -0.1479 -0.6326
  233THF    H11 3027   1.773   3.493   2.380  0.4518 -0.4730  3.2124
  233THF    H12 3028   1.773   3.738   2.442 -0.5888  0.4048 -0.4434
  233THF    H13 3029   1.748   3.670   2.610  1.2445  1.5008 -1.2487
  234THF     O1 3030   4.263   5.453   1.760  0.4562  0.1402 -0.1864
  234THF     C2 3031   4.249   5.421   1.897  0.6216  0.6437  0.0919
  234THF     C3 3032   4.320   5.582   1.743 -0.4212 -0.0801 -0.9657
  234THF     H4 3033   4.239   5.316   1.924  1.3547 -0.7054  2.4493
  234THF     H5 3034   4.161   5.475   1.934 -1.9231  0.1848 -0.7597
  234THF     H6 3035   4.352   5.597   1.641 -1.2498 -0.8306  0.2697
  234THF     H7 3036   4.249   5.660   1.779 -2.3202  0.8655 -0.8761
  234THF     C8 3037   4.440   5.565   1.832 -0.0936 -0.0562  0.5425
  234THF     C9 3038   4.378   5.480   1.953  0.0266  0.7560  0.0208
  234THF    H10 3039   4.496   5.652   1.865 -2.1523 -2.1839  2.0449
  234THF    H11 3040   4.515   5.501   1.774  3.7325  0.4586 -1.7664
  234THF    H12 3041   4.446   5.410   1.991 -3.3688  0.6568  0.1594
  234THF    H13 3042   4.346   5.555   2.033  0.3118 -1.2387 -1.5265
  235THF     O1 3043   5.269   4.270   4.098  0.3332 -0.3423 -0.1798
  235THF     C2 3044   5.396   4.258   4.164  0.2782 -0.1643  0.0801
  235THF     C3 3045   5.211   4.140   4.071  0.6437 -0.1758 -0.3512
  235THF     H4 3046   5.434   4.350   4.213  0.3597 -2.3895 -0.1024
  235THF     H5 3047   5.470   4.236   4.086 -0.0493 -0.6960 -1.6229
  235THF     H6 3048   5.103   4.141   4.085  1.5355  0.0578 -1.9519
  235THF     H7 3049   5.229   4.097   3.970 -0.1847 -2.8611  0.0712
  235THF     C8 3050   5.272   4.057   4.185  0.1852 -0.1808  0.1052
  235THF     C9 3051   5.372   4.147   4.259 -0.5043  0.7568  0.6507
  235THF    H10 3052   5.317   3.974   4.143  2.5792 -0.3627 -0.0232
  235THF    H11 3053   5.200   4.022   4.259  1.2375  1.6189  1.2416
  235THF    H12 3054   5.324   4.184   4.351 -2.1219  2.1064  1.3097
  235THF    H13 3055   5.468   4.093   4.283 -1.2268  0.5629  0.6128
  236THF     O1 3056   1.807   1.707   0.611 -0.6951 -0.0052  0.3055
  236THF     C2 3057   1.831   1.666   0.481 -0.4859 -0.1314  0.6782
  236THF     C3 3058   1.723   1.610   0.673  0.3430  0.3759 -0.1135
  236THF     H4 3059   1.917   1.597   0.475  2.0428 -1.9019  3.9175
  236THF     H5 3060   1.848   1.760   0.422  0.8986 -1.6082 -1.7390
  236THF     H6 3061   1.793   1.534   0.695  1.0289 -0.2202 -1.3489
  236THF     H7 3062   1.673   1.663   0.755  0.8426  0.1442 -0.4847
  236THF     C8 3063   1.620   1.589   0.563 -0.1349 -0.3946 -0.3292
  236THF     C9 3064   1.701   1.601   0.436 -0.2689  0.0716  0.3007
  236THF    H10 3065   1.545   1.673   0.581 -0.2538  0.8229  0.7061
  236THF    H11 3066   1.568   1.495   0.572  0.0074  0.6602  1.3002
  236THF    H12 3067   1.714   1.501   0.410 -1.0330  2.0474  3.5773
  236THF    H13 3068   1.655   1.651   0.355  0.1698  1.1413  0.1851
  237THF     O1 3069   1.669   0.302   1.858 -0.2924  0.7187 -0.3890
  237THF     C2 3070   1.592   0.227   1.947  0.6717  0.7522 -0.9729
  237THF     C3 3071   1.692   0.440   1.910  0.2637 -0.0745 -0.3419
  237THF     H4 3072   1.656   0.143   1.980 -0.4977  0.2397  0.1971
  237THF     H5 3073   1.508   0.195   1.891  1.6543  2.0046  0.1230
  237THF     H6 3074   1.798   0.467   1.893  0.6985  0.8643  1.3731
  237THF     H7 3075   1.626   0.515   1.858  1.1814 -0.5995  2.0616
  237THF     C8 3076   1.667   0.436   2.060  0.0374 -0.4052  0.1305
  237THF     C9 3077   1.562   0.323   2.066  0.5183 -0.1170 -0.1730
  237THF    H10 3078   1.640   0.530   2.114  1.8397  1.0302  1.0166
  237THF    H11 3079   1.766   0.403   2.107 -1.6286 -0.3983  1.7223
  237THF    H12 3080   1.546   0.280   2.165 -2.4941  0.7693 -2.6732
  237THF    H13 3081   1.470   0.371   2.030  1.2036  0.2620 -0.5826
  238THF     O1 3082   1.267   0.039   2.081 -0.5568 -0.0581 -0.2735
  238THF     C2 3083   1.187  -0.079   2.097 -0.2462  0.4325 -0.0256
  238THF     C3 3084   1.329   0.080   2.214  0.0832  0.5439  0.4576
  238THF     H4 3085   1.208  -0.140   2.010 -0.2965 -1.8768 -0.4247
  238THF     H5 3086   1.082  -0.062   2.113 -1.2702 -2.6922 -0.3553
  238THF     H6 3087   1.433   0.077   2.204 -2.0869 -0.7386  2.7089
  238THF     H7 3088   1.285   0.178   2.249  0.6145 -2.4328 -1.3959
  238THF     C8 3089   1.286  -0.032   2.311 -0.7429 -0.1155 -0.2582
  238THF     C9 3090   1.245  -0.148   2.228  0.5712  0.0516  0.0648
  238THF    H10 3091   1.207   0.001   2.375 -1.0382  2.3813  1.5950
  238THF    H11 3092   1.379  -0.039   2.368  0.2298  2.1769 -1.4699
  238THF    H12 3093   1.339  -0.195   2.206  0.4768 -3.6252  1.1632
  238THF    H13 3094   1.175  -0.224   2.275 -0.6166  1.8478  2.1835
  239THF     O1 3095   1.504   0.728   2.901  0.6995  0.4092  0.1160
  239THF     C2 3096   1.484   0.752   2.759  0.6706 -0.2492  0.5544
  239THF     C3 3097   1.486   0.851   2.968  0.2951  0.0497  0.1766
  239THF     H4 3098   1.469   0.653   2.713  1.8099 -1.7949 -1.6681
  239THF     H5 3099   1.565   0.801   2.704 -0.5229  1.0994  1.7418
  239THF     H6 3100   1.430   0.838   3.060 -1.0813 -2.5054 -1.1100
  239THF     H7 3101   1.588   0.878   2.992  3.1241  0.6921 -0.5429
  239THF     C8 3102   1.416   0.950   2.873 -0.2850 -0.1516  0.4684
  239THF     C9 3103   1.372   0.855   2.759  0.2503 -0.1655  0.1641
  239THF    H10 3104   1.494   1.014   2.838  2.7532  0.1250  2.5438
  239THF    H11 3105   1.336   1.012   2.925  2.4376 -1.1768  3.1740
  239THF    H12 3106   1.279   0.807   2.786 -1.0131  1.8314  0.0234
  239THF    H13 3107   1.366   0.905   2.663 -1.7535 -0.7239  0.6117
  240THF     O1 3108   3.842   2.047   4.660  0.0013  0.2662  0.2689
  240THF     C2 3109   3.931   2.014   4.549 -0.0214 -0.1474  0.1652
  240THF     C3 3110   3.709   2.004   4.630  0.0329  0.3537 -0.9352
  240THF     H4 3111   4.028   1.985   4.584  1.5081  2.5574 -0.1341
  240THF     H5 3112   3.963   2.089   4.483 -0.7719  0.1982 -0.2942
  240THF     H6 3113   3.647   1.992   4.720  0.5930  0.0265 -0.2358
  240THF     H7 3114   3.670   2.080   4.561  1.2818  2.0744  0.3100
  240THF     C8 3115   3.737   1.878   4.555  0.2153 -0.1424  0.0850
  240THF     C9 3116   3.866   1.906   4.472  0.5601  0.0479  0.6306
  240THF    H10 3117   3.649   1.843   4.502 -2.2114 -0.5032  0.9254
  240THF    H11 3118   3.750   1.806   4.638 -2.5225 -2.0154  0.0405
  240THF    H12 3119   3.938   1.825   4.471 -0.5049  1.8320 -1.0674
  240THF    H13 3120   3.846   1.943   4.370  0.4375  3.2073 -3.0094
  241THF     O1 3121   1.613   3.345   4.411  0.2531 -0.3353 -0.3132
  241THF     C2 3122   1.707   3.424   4.337  0.2685  0.6670  0.2782
  241THF     C3 3123   1.479   3.403   4.399 -0.4960  0.7253 -0.2371
  241THF     H4 3124   1.784   3.361   4.284  0.6037 -0.9813 -1.3548
  241THF     H5 3125   1.751   3.491   4.405 -0.0134 -0.6274 -0.9973
  241THF     H6 3126   1.394   3.336   4.409 -1.7096  1.3478  0.7388
  241THF     H7 3127   1.455   3.488   4.465 -2.7532 -2.0352  0.1645
  241THF     C8 3128   1.489   3.454   4.259 -0.1385  0.2776 -0.1439
  241THF     C9 3129   1.631   3.503   4.230  0.5704 -0.1163 -0.1630
  241THF    H10 3130   1.422   3.538   4.242 -0.7827 -0.0972 -0.8412
  241THF    H11 3131   1.452   3.374   4.193  2.8275 -1.8148 -1.2412
  241THF    H12 3132   1.667   3.472   4.133 -2.3293 -0.5925  2.3616
  241THF    H13 3133   1.641   3.612   4.235 -0.3892  0.4959 -0.2356
  242THF     O1 3134   0.541   2.890   3.981 -0.1649 -0.2848 -0.3788
  242THF     C2 3135   0.539   3.023   4.029  0.1737 -1.3205  0.2322
  242THF     C3 3136   0.472   2.815   4.078  0.1685 -0.0219  0.1464
  242THF     H4 3137   0.489   3.084   3.957 -0.3434 -0.8000 -0.4007
  242THF     H5 3138   0.646   3.065   4.050  1.3501  1.7636  1.8374
  242THF     H6 3139   0.418   2.742   4.018 -2.4243  2.2105 -1.9890
  242THF     H7 3140   0.550   2.765   4.135  0.5897 -1.7180  1.8983
  242THF     C8 3141   0.380   2.908   4.157  0.3363 -0.5471 -0.7770
  242THF     C9 3142   0.459   3.030   4.166  0.2608  0.0326 -0.7312
  242THF    H10 3143   0.351   2.871   4.247 -1.4420  0.0709 -1.1765
  242THF    H11 3144   0.295   2.930   4.105  0.3835  3.2677  1.0274
  242THF    H12 3145   0.405   3.122   4.169 -0.0556  0.7272  0.7852
  242THF    H13 3146   0.527   3.017   4.250 -1.9921 -2.4719  2.4771
  243THF     O1 3147   0.712   3.123   0.512  0.3425  0.3573  0.4340
  243THF     C2 3148   0.631   3.094   0.621 -0.0085  0.0165 -0.4537
  243THF     C3 3149   0.755   3.012   0.438  0.1058  0.1707  0.1467
  243THF     H4 3150   0.539   3.151   0.619  1.4934  1.5075 -0.9177
  243THF     H5 3151   0.680   3.112   0.721 -0.4732  1.3885  0.5415
  243THF     H6 3152   0.781   3.033   0.334  2.2841  0.0036 -1.3412
  243THF     H7 3153   0.850   2.977   0.481 -0.2142  0.7829 -0.9977
  243THF     C8 3154   0.630   2.923   0.457 -0.3553  0.0146  0.0501
  243THF     C9 3155   0.598   2.943   0.606  0.4487 -0.0484 -0.9511
  243THF    H10 3156   0.642   2.817   0.425 -3.0162 -1.0079  2.5114
  243THF    H11 3157   0.555   2.975   0.394 -1.8596  0.8867 -2.2888
  243THF    H12 3158   0.493   2.928   0.646  1.0214  0.5625  2.2337
  243THF    H13 3159   0.655   2.870   0.663 -0.7245 -0.2785  0.5880
  244THF     O1 3160   0.376   0.526   0.509 -0.1003  0.3269 -0.3525
  244THF     C2 3161   0.457   0.581   0.615  0.7723  0.4118  0.2595
  244THF     C3 3162   0.454   0.421   0.451  0.4996  0.5003  0.1442
  244THF     H4 3163   0.399   0.651   0.677  0.0874 -1.3674  1.8252
  244THF     H5 3164   0.544   0.630   0.571  1.4530 -2.4634  0.5384
  244THF     H6 3165   0.389   0.366   0.386 -1.0703  2.3772 -0.9018
  244THF     H7 3166   0.517   0.469   0.379  0.0252 -2.8833 -1.0386
  244THF     C8 3167   0.528   0.362   0.576 -0.0000  0.1099  0.2993
  244THF     C9 3168   0.493   0.458   0.689  0.7696  0.6954 -0.0862
  244THF    H10 3169   0.635   0.361   0.552 -0.4248  0.9506  0.5221
  244THF    H11 3170   0.493   0.266   0.596 -1.3815  1.1245 -1.6588
  244THF    H12 3171   0.403   0.409   0.741 -0.9872  0.2424 -1.0754
  244THF    H13 3172   0.576   0.470   0.759 -2.1861 -1.4325  0.9705
  245THF     O1 3173   4.187   2.909   2.146  1.1817  0.1189 -0.1222
  245THF     C2 3174   4.317   2.880   2.096 -0.2735  0.2789 -0.5705
  245THF     C3 3175   4.146   3.011   2.057  0.1423 -0.1496  0.1371
  245THF     H4 3176   4.319   2.835   2.002  0.6441  0.0021  0.9156
  245THF     H5 3177   4.372   2.820   2.167 -0.0357  0.6606  1.8115
  245THF     H6 3178   4.123   2.973   1.963  1.0799  1.2197  2.7947
  245THF     H7 3179   4.056   3.064   2.090 -2.4061  0.2998 -3.2042
  245THF     C8 3180   4.264   3.104   2.044 -0.8672  0.5270  0.5852
  245THF     C9 3181   4.379   3.015   2.097 -0.2459 -0.2910 -0.5643
  245THF    H10 3182   4.246   3.189   2.116  1.0409  1.1582  1.7242
  245THF    H11 3183   4.270   3.131   1.939 -0.9020  0.4973 -0.5385
  245THF    H12 3184   4.464   3.016   2.035  2.7936  1.3752  1.0951
  245THF    H13 3185   4.412   3.044   2.199 -1.4520 -0.3216  0.2971
  246THF     O1 3186   5.360   4.725   1.684  0.2277  0.0348  0.5537
  246THF     C2 3187   5.415   4.858   1.663  0.0109 -0.2679 -0.6295
  246THF     C3 3188   5.450   4.626   1.643  0.0479  0.3138  0.1915
  246THF     H4 3189   5.413   4.895   1.763 -2.2995  2.0152 -2.7661
  246THF     H5 3190   5.355   4.931   1.607 -0.7331  1.7811  0.2271
  246THF     H6 3191   5.449   4.538   1.711 -0.2713 -2.5516 -1.8328
  246THF     H7 3192   5.432   4.600   1.545  0.9837  1.6154 -0.6508
  246THF     C8 3193   5.583   4.690   1.663 -0.1762 -0.0753  0.2018
  246THF     C9 3194   5.556   4.829   1.611 -0.4080  0.1237 -0.1548
  246THF    H10 3195   5.657   4.638   1.604 -0.0763  0.7405  0.0206
  246THF    H11 3196   5.616   4.699   1.768 -0.3588 -2.0765 -0.4893
  246THF    H12 3197   5.635   4.902   1.633  0.8829 -0.5634  0.0070
  246THF    H13 3198   5.555   4.816   1.505 -0.5752  0.3848  1.1196
  247THF     O1 3199   1.894   4.059   4.566  0.0471  0.1873  0.0761
  247THF     C2 3200   1.957   4.044   4.440 -0.2789 -0.5601  0.6550
  247THF     C3 3201   1.981   4.024   4.671  0.0140 -0.3157  0.1897
  247THF     H4 3202   2.030   4.127   4.422  1.1376  3.3491 -1.3581
  247THF     H5 3203   1.887   4.051   4.353  1.3374 -0.8446  1.0141
  247THF     H6 3204   2.053   4.108   4.678  0.2827  0.6036  1.1976
  247THF     H7 3205   1.921   4.019   4.759 -2.2943 -0.0006 -3.1563
  247THF     C8 3206   2.047   3.894   4.610  0.3549 -0.0343 -0.2354
  247THF     C9 3207   2.039   3.917   4.461 -0.5550  0.0761  0.0897
  247THF    H10 3208   2.004   3.799   4.634  0.3083 -1.1687 -0.6925
  247THF    H11 3209   2.148   3.899   4.642 -0.4950 -1.3367 -2.6899
  247THF    H12 3210   2.144   3.937   4.428  2.3404  1.2273  0.9132
  247THF    H13 3211   1.997   3.835   4.407  1.6709  2.1247  3.7593
  248THF     O1 3212   0.481   0.606   4.892 -0.3900 -0.0733  0.2775
  248THF     C2 3213   0.486   0.488   4.979  0.1807  0.2941  0.0213
  248THF     C3 3214   0.542   0.573   4.766  0.4426  0.0335  0.1814
  248THF     H4 3215   0.386   0.445   5.003  1.0543 -1.3961  1.4799
  248THF     H5 3216   0.524   0.523   5.074 -2.6493 -0.8821 -0.0284
  248THF     H6 3217   0.466   0.519   4.706  1.6542 -0.9582  0.6261
  248THF     H7 3218   0.565   0.673   4.725 -1.1269  0.6254  0.8083
  248THF     C8 3219   0.648   0.477   4.802 -0.6877 -0.0186  0.4168
  248THF     C9 3220   0.588   0.393   4.920  0.3712 -0.3736  0.1674
  248THF    H10 3221   0.731   0.537   4.842 -1.8043 -2.0149 -0.3333
  248THF    H11 3222   0.693   0.407   4.727 -2.4703 -1.3776 -0.4503
  248THF    H12 3223   0.542   0.301   4.885 -1.8332 -1.1070  0.4083
  248THF    H13 3224   0.656   0.361   4.998 -0.8072 -1.1947 -2.1479
  249THF     O1 3225   5.360   0.766   0.924 -0.2718  0.2110 -0.0102
  249THF     C2 3226   5.325   0.677   1.031  0.6273  0.0054  0.2334
  249THF     C3 3227   5.479   0.718   0.862 -0.0097 -0.0799 -0.5032
  249THF     H4 3228   5.218   0.684   1.057  0.4735  0.1777 -0.9708
  249THF     H5 3229   5.374   0.698   1.119 -2.9072  2.0562 -2.0824
  249THF     H6 3230   5.484   0.738   0.755  1.4466  1.0205  0.9590
  249THF     H7 3231   5.572   0.765   0.900  0.4840  1.5115  3.0426
  249THF     C8 3232   5.490   0.569   0.899  0.4081 -0.2151 -0.0402
  249THF     C9 3233   5.366   0.532   0.988  0.1033 -0.5638  0.0856
  249THF    H10 3234   5.580   0.546   0.952  0.8912 -1.1166 -1.9486
  249THF    H11 3235   5.498   0.508   0.810  3.1122 -1.0247 -0.2938
  249THF    H12 3236   5.286   0.489   0.919  4.2638 -1.6916 -0.3714
  249THF    H13 3237   5.399   0.480   1.083 -0.4237  0.9475 -2.1463
  250THF     O1 3238   2.657   2.385   3.386 -0.3423 -0.6984  0.0297
  250THF     C2 3239   2.705   2.448   3.507 -0.0821  0.0254  0.1670
  250THF     C3 3240   2.516   2.409   3.386 -0.0935  0.2016  0.0680
  250THF     H4 3241   2.703   2.553   3.482  0.3196 -3.0788  1.7773
  250THF     H5 3242   2.812   2.420   3.522 -4.2448 -0.2705  0.0305
  250THF     H6 3243   2.503   2.514   3.371 -1.2645 -2.7584  0.5240
  250THF     H7 3244   2.459   2.347   3.313 -1.6221  1.6762  0.9624
  250THF     C8 3245   2.471   2.392   3.532 -0.2614  0.2582 -0.6469
  250THF     C9 3246   2.603   2.400   3.610 -0.2195  0.4969  0.1826
  250THF    H10 3247   2.439   2.292   3.522  0.5510  0.0932 -1.1709
  250THF    H11 3248   2.381   2.456   3.551 -0.9632  1.1756  1.0606
  250THF    H12 3249   2.604   2.487   3.685 -0.7558  1.2184 -2.4171
  250THF    H13 3250   2.631   2.307   3.656 -1.3003 -0.7826 -1.3347
  251THF     O1 3251   3.206   4.949   1.102 -0.6281 -0.4452  0.1215
  251THF     C2 3252   3.151   4.824   1.128 -0.4676 -0.2402  0.8330
  251THF     C3 3253   3.140   5.048   1.182  0.2377  0.1258  0.6645
  251THF     H4 3254   3.226   4.747   1.146 -1.8244 -0.3129  3.2216
  251THF     H5 3255   3.092   4.790   1.045  0.3406  0.9381 -2.4486
  251THF     H6 3256   3.205   5.094   1.254  0.9657  3.2022  0.5915
  251THF     H7 3257   3.105   5.133   1.114  0.9123  1.0483 -1.6608
  251THF     C8 3258   3.021   4.981   1.249  0.5342  0.0501 -0.6716
  251THF     C9 3259   3.070   4.835   1.254 -0.3145 -0.1339  0.0071
  251THF    H10 3260   2.926   4.997   1.191 -0.8397  3.9241  0.7757
  251THF    H11 3261   3.012   5.018   1.354  1.6132  2.7141 -0.5094
  251THF    H12 3262   3.136   4.807   1.335 -0.4901 -1.2643 -0.7142
  251THF    H13 3263   2.993   4.759   1.256  0.7079  1.3888  3.0760
  252THF     O1 3264   2.651   0.511   4.725  0.4022 -0.0491 -0.4136
  252THF     C2 3265   2.560   0.611   4.680  0.4638 -0.4590  0.0599
  252THF     C3 3266   2.594   0.387   4.717 -0.5674 -0.0855  0.1505
  252THF     H4 3267   2.555   0.600   4.572 -2.2417 -1.2850  1.2458
  252THF     H5 3268   2.582   0.711   4.706  0.8250  0.0364 -3.7592
  252THF     H6 3269   2.602   0.369   4.609  1.5841  2.2776 -0.8207
  252THF     H7 3270   2.647   0.307   4.769 -1.3177 -1.1148 -1.6560
  252THF     C8 3271   2.451   0.412   4.758 -0.0600 -0.1303  0.4026
  252THF     C9 3272   2.433   0.571   4.738 -0.1288  0.1789  0.2030
  252THF    H10 3273   2.449   0.382   4.862 -1.0614 -0.3574 -0.8166
  252THF    H11 3274   2.375   0.355   4.702 -0.2398  2.1895  1.8717
  252THF    H12 3275   2.342   0.609   4.688 -1.7531  1.7620 -1.3601
  252THF    H13 3276   2.425   0.611   4.839  0.0962 -0.7564  0.7038
  253THF     O1 3277   1.284   2.496   5.091 -0.2380  0.1854  0.2320
  253THF     C2 3278   1.189   2.498   5.195  0.6692 -0.1804  0.1744
  253THF     C3 3279   1.284   2.620   5.020 -0.0022 -0.1247  0.3223
  253THF     H4 3280   1.228   2.548   5.286 -0.2035 -0.1224  1.1645
  253THF     H5 3281   1.155   2.397   5.229 -1.1571 -1.5780 -3.1676
  253THF     H6 3282   1.339   2.694   5.082  4.5132  2.3265 -1.5132
  253THF     H7 3283   1.322   2.598   4.925  1.5382 -1.2906  0.8091
  253THF     C8 3284   1.138   2.661   5.015  0.0304 -0.1886  0.7326
  253THF     C9 3285   1.076   2.587   5.137 -0.6592 -0.3673 -0.0410
  253THF    H10 3286   1.085   2.621   4.921  0.8102 -1.8056 -3.9213
  253THF    H11 3287   1.120   2.766   5.010 -1.9241 -2.3069  0.4327
  253THF    H12 3288   1.050   2.654   5.220 -0.7925 -3.1676  0.7842
  253THF    H13 3289   0.986   2.532   5.111  1.5138 -1.5701  2.4964
  254THF     O1 3290   1.878   2.233   3.929 -0.0777  0.4140 -0.1450
  254THF     C2 3291   1.768   2.179   3.848  0.6933  0.0498  0.3638
  254THF     C3 3292   1.813   2.327   4.006 -0.1210  0.8246  0.6947
  254THF     H4 3293   1.716   2.111   3.918 -1.8627  1.6009 -1.1662
  254THF     H5 3294   1.798   2.129   3.756 -0.3550 -0.0771 -0.6604
  254THF     H6 3295   1.754   2.272   4.088 -1.4633 -0.3249  1.4491
  254THF     H7 3296   1.884   2.390   4.053 -3.1548 -0.4682  2.9426
  254THF     C8 3297   1.718   2.406   3.914 -0.0838 -0.2540  0.1796
  254THF     C9 3298   1.675   2.299   3.811  0.2068 -0.2363 -0.2581
  254THF    H10 3299   1.779   2.488   3.871  1.7659  1.4850  3.1181
  254THF    H11 3300   1.636   2.452   3.972 -1.4793 -3.1526  1.0909
  254THF    H12 3301   1.571   2.283   3.825 -1.5861 -0.0280 -0.2318
  254THF    H13 3302   1.705   2.321   3.705 -2.0915 -2.3446  2.2923
  255THF     O1 3303   3.783   5.467   4.535 -0.0061  0.4046  0.4142
  255THF     C2 3304   3.680   5.493   4.627  0.3619  0.3495 -0.3558
  255THF     C3 3305   3.729   5.377   4.441  0.0053 -0.1528  0.6066
  255THF     H4 3306   3.698   5.591   4.678  2.6061  1.7009 -1.9487
  255THF     H5 3307   3.680   5.410   4.703  1.7817  0.8482 -1.0346
  255THF     H6 3308   3.788   5.377   4.347  0.4524 -0.3186  0.3274
  255THF     H7 3309   3.720   5.275   4.479 -1.3879 -0.6986 -1.8841
  255THF     C8 3310   3.588   5.421   4.412  0.4151  0.2616 -0.0127
  255THF     C9 3311   3.546   5.493   4.547  0.0100 -0.7753  0.3564
  255THF    H10 3312   3.521   5.345   4.378  0.6631  1.3243 -0.2057
  255THF    H11 3313   3.580   5.502   4.337 -4.1175  0.1427  0.4056
  255THF    H12 3314   3.511   5.587   4.521 -2.6938 -2.6269 -3.0530
  255THF    H13 3315   3.471   5.446   4.609 -1.5453 -3.1740  1.8092
  256THF     O1 3316   4.339   0.774   5.225 -0.0897  0.1001  0.9048
  256THF     C2 3317   4.230   0.727   5.145  0.4519 -0.5014 -0.7029
  256THF     C3 3318   4.422   0.846   5.129 -0.4425  0.2115 -0.2214
  256THF     H4 3319   4.159   0.813   5.126 -4.6496 -1.6490  2.1078
  256THF     H5 3320   4.168   0.647   5.195 -1.5158 -0.3358  0.9551
  256THF     H6 3321   4.382   0.942   5.113  1.5039 -0.8988  0.7212
  256THF     H7 3322   4.526   0.854   5.160 -1.0653  0.0837 -0.3763
  256THF     C8 3323   4.424   0.751   5.014 -0.1034  0.2428  0.5391
  256THF     C9 3324   4.293   0.674   5.023 -0.1599 -0.1612 -0.1337
  256THF    H10 3325   4.507   0.681   5.037  1.1059 -0.4866 -2.1909
  256THF    H11 3326   4.433   0.796   4.916  2.3332  0.7154  1.3657
  256THF    H12 3327   4.232   0.674   4.934 -1.0761 -1.5004 -0.2741
  256THF    H13 3328   4.310   0.571   5.033  1.6121  2.1217  2.2327
  257THF     O1 3329   2.165   0.256   5.262 -0.3152  1.3252  0.4140
  257THF     C2 3330   2.218   0.355   5.353 -0.2842  0.4445  0.2672
  257THF     C3 3331   2.228   0.289   5.140 -0.2884 -0.0860 -0.3862
  257THF     H4 3332   2.245   0.293   5.443 -0.1041 -0.0765 -1.5903
  257THF     H5 3333   2.136   0.424   5.376  0.3676  0.5265  3.0306
  257THF     H6 3334   2.289   0.199   5.100  1.0301  0.9792 -0.9760
  257THF     H7 3335   2.160   0.297   5.061 -2.5413 -4.0046 -1.3897
  257THF     C8 3336   2.315   0.408   5.153 -0.0213 -0.4172 -0.5483
  257THF     C9 3337   2.344   0.417   5.299  0.2724 -0.2019 -0.0187
  257THF    H10 3338   2.254   0.497   5.132 -2.2263  0.6873 -0.6102
  257THF    H11 3339   2.394   0.417   5.089 -1.8025  3.6117 -1.3916
  257THF    H12 3340   2.429   0.352   5.318  1.7911  0.9813 -0.8708
  257THF    H13 3341   2.380   0.521   5.327  1.6443  1.4420  2.2760
  258THF     O1 3342   1.664   3.894   2.983 -0.3963 -0.2274 -0.1573
  258THF     C2 3343   1.774   3.830   2.925 -0.9141 -0.3886  0.2725
  258THF     C3 3344   1.550   3.815   2.956  0.0226  0.0543  0.2012
  258THF     H4 3345   1.873   3.851   2.973  2.5883 -1.8537  0.6109
  258THF     H5 3346   1.777   3.868   2.824  0.3881 -0.2595  2.6451
  258THF     H6 3347   1.491   3.801   3.047  1.0912 -2.9282 -1.0627
  258THF     H7 3348   1.481   3.841   2.873 -0.6192 -2.3453 -1.0622
  258THF     C8 3349   1.594   3.670   2.921  0.1906  0.2453  0.4988
  258THF     C9 3350   1.742   3.682   2.932  0.3850  0.1278 -0.0423
  258THF    H10 3351   1.580   3.659   2.808 -0.9967 -2.4836  0.1892
  258THF    H11 3352   1.546   3.582   2.961 -1.1799  1.2070 -0.8527
  258THF    H12 3353   1.780   3.646   3.031  0.7908  0.1057  0.6444
  258THF    H13 3354   1.794   3.620   2.852 -1.8397  0.8672 -0.4554
  259THF     O1 3355   2.148   2.890   3.921 -0.0657 -0.2003  0.0687
  259THF     C2 3356   2.176   2.775   4.003  0.1637 -0.3888 -0.3959
  259THF     C3 3357   2.014   2.926   3.938  0.2840 -0.2421 -0.0668
  259THF     H4 3358   2.201   2.801   4.109 -0.1256 -1.8300  0.9931
  259THF     H5 3359   2.260   2.721   3.972  0.3472  0.8452  2.0511
  259THF     H6 3360   1.991   2.998   4.014 -0.4482  0.2249 -0.3524
  259THF     H7 3361   1.973   2.961   3.844 -0.6466 -0.0718  3.7399
  259THF     C8 3362   1.945   2.798   3.978  0.1249  0.3842  0.5531
  259THF     C9 3363   2.048   2.695   4.011  0.2008 -0.4781  0.3247
  259THF    H10 3364   1.889   2.759   3.889 -1.4359  1.1068  3.1973
  259THF    H11 3365   1.866   2.817   4.048  1.6057  2.4181 -2.8971
  259THF    H12 3366   2.049   2.653   4.112 -0.1854  0.9746 -1.5916
  259THF    H13 3367   2.053   2.611   3.946  1.2274  2.5946  0.6161
  260THF     O1 3368   0.681   2.978   5.075  0.1613  0.4609  0.3306
  260THF     C2 3369   0.788   3.018   5.159 -0.2536 -0.1189 -0.0049
  260THF     C3 3370   0.677   2.839   5.065 -0.1024  0.7218  0.3198
  260THF     H4 3371   0.754   3.011   5.267 -2.0290 -3.8646  1.2645
  260THF     H5 3372   0.814   3.122   5.156  0.5093  2.2266  1.5384
  260THF     H6 3373   0.604   2.782   5.122  2.8595 -1.5877  0.1004
  260THF     H7 3374   0.656   2.805   4.963  2.5627 -3.0783 -2.6302
  260THF     C8 3375   0.819   2.793   5.101  0.1368  0.7532 -0.6573
  260THF     C9 3376   0.897   2.921   5.124 -0.0060 -0.1322  0.3286
  260THF    H10 3377   0.850   2.725   5.026  2.0617  1.8056 -1.3050
  260THF    H11 3378   0.812   2.735   5.196  1.2743  2.1076 -1.2640
  260THF    H12 3379   0.978   2.912   5.204 -0.3671  0.5425  0.7175
  260THF    H13 3380   0.940   2.944   5.031 -1.9569 -0.8637 -0.8526
  261THF     O1 3381   0.196   3.779   1.469 -0.2975 -0.1213 -0.0618
  261THF     C2 3382   0.206   3.709   1.592  0.9320 -0.3516  0.8699
  261THF     C3 3383   0.151   3.687   1.371 -0.4484  0.6517 -0.1240
  261THF     H4 3384   0.194   3.774   1.681  0.9535  3.3097 -0.9484
  261THF     H5 3385   0.302   3.664   1.590 -2.7070 -1.8506 -1.8064
  261THF     H6 3386   0.110   3.738   1.284  0.1161 -0.0222 -0.7892
  261THF     H7 3387   0.232   3.627   1.326 -0.6543  0.8672  3.4087
  261THF     C8 3388   0.048   3.598   1.443  0.3482 -0.0380  0.3990
  261THF     C9 3389   0.106   3.601   1.585  0.3557  0.0055  0.7179
  261THF    H10 3390   0.041   3.498   1.408 -2.7316 -2.0950  2.3841
  261THF    H11 3391  -0.051   3.638   1.448 -0.8114 -3.0695  3.0392
  261THF    H12 3392   0.034   3.619   1.665  0.2296 -2.2614 -2.9585
  261THF    H13 3393   0.133   3.499   1.609  0.4094  1.1085 -2.3511
  262THF     O1 3394   0.153   2.550   1.478  0.1387 -0.5987  0.2112
  262THF     C2 3395   0.288   2.535   1.514  0.3178  0.1579  0.0748
  262THF     C3 3396   0.124   2.693   1.465  0.7657  0.6157 -0.1241
  262THF     H4 3397   0.351   2.518   1.427 -0.2456  3.2793 -1.1151
  262THF     H5 3398   0.281   2.433   1.554 -1.3169 -2.4517  0.2115
  262THF     H6 3399   0.128   2.719   1.356  0.4776 -2.3852 -0.4680
  262THF     H7 3400   0.026   2.710   1.511  1.0082 -0.8856 -0.8158
  262THF     C8 3401   0.229   2.763   1.547  0.0117  0.3020  0.0542
  262THF     C9 3402   0.321   2.657   1.596 -0.5098 -0.5283 -0.4091
  262THF    H10 3403   0.187   2.809   1.635  0.0231 -3.7970 -0.3448
  262THF    H11 3404   0.260   2.844   1.485 -0.3341 -1.4564 -1.6036
  262THF    H12 3405   0.431   2.685   1.595  1.9958  0.1105  2.6635
  262THF    H13 3406   0.289   2.628   1.703  0.6846  0.6822  0.2022
  263THF     O1 3407   4.011   1.632   2.750 -0.2340  0.2058 -0.9083
  263THF     C2 3408   4.135   1.637   2.666 -0.1873 -0.1466 -0.8487
  263THF     C3 3409   4.048   1.640   2.888  0.6871 -0.0423  0.7645
  263THF     H4 3410   4.145   1.743   2.637 -0.0414  0.4765 -2.2867
  263THF     H5 3411   4.133   1.571   2.582 -1.5240 -0.2679 -1.0150
  263THF     H6 3412   4.062   1.739   2.921 -1.6630 -0.1099 -1.0718
  263THF     H7 3413   3.974   1.599   2.951  0.3215 -2.1060  0.9870
  263THF     C8 3414   4.169   1.547   2.890  0.2546  0.1818  0.5392
  263THF     C9 3415   4.248   1.590   2.767 -0.4545  0.3454 -0.8312
  263THF    H10 3416   4.143   1.448   2.875  3.3260  3.2875  0.6165
  263THF    H11 3417   4.235   1.549   2.982 -0.8585 -0.3082 -0.8315
  263THF    H12 3418   4.319   1.676   2.791  1.0182 -3.0998  0.8311
  263THF    H13 3419   4.319   1.508   2.730  1.1880 -1.1883 -1.8543
  264THF     O1 3420   1.453   3.948   4.104 -0.4078  0.4947  0.0937
  264THF     C2 3421   1.558   3.860   4.124  0.1352 -0.4205  0.1163
  264THF     C3 3422   1.489   4.046   4.009 -0.1266  0.1937 -0.1084
  264THF     H4 3423   1.575   3.805   4.028 -1.8070  2.3760 -3.0291
  264THF     H5 3424   1.540   3.790   4.201 -1.1199 -0.7584  1.4777
  264THF     H6 3425   1.481   4.003   3.907  0.3450  0.4040 -0.8789
  264THF     H7 3426   1.433   4.143   4.006  1.1880 -0.0119  0.6015
  264THF     C8 3427   1.642   4.064   4.046 -0.1636  0.4311 -0.4151
  264THF     C9 3428   1.678   3.951   4.143  0.1738 -0.6028 -0.2378
  264THF    H10 3429   1.676   4.163   4.086 -1.7481  0.5470 -1.5132
  264THF    H11 3430   1.701   4.045   3.960 -0.5369  1.8539  0.6309
  264THF    H12 3431   1.763   3.894   4.119 -1.2396  2.7463  0.2269
  264THF    H13 3432   1.676   3.984   4.249 -0.5801 -0.7540 -0.4620
  265THF     O1 3433   5.083   0.955   1.000  0.1622  0.2058 -0.3435
  265THF     C2 3434   4.988   1.062   0.980  0.4669  0.1015 -0.8258
  265THF     C3 3435   5.127   0.964   1.136 -0.7462 -0.0556 -0.1631
  265THF     H4 3436   4.914   1.029   0.911  0.1726  0.1179 -0.5616
  265THF     H5 3437   5.037   1.151   0.935 -1.4279 -0.9347 -1.2644
  265THF     H6 3438   5.169   0.872   1.169  0.8993  1.4064 -0.2884
  265THF     H7 3439   5.204   1.045   1.148  0.7306  0.9783  2.1870
  265THF     C8 3440   5.004   0.999   1.215  0.5355 -0.0922 -0.5284
  265THF     C9 3441   4.933   1.087   1.121 -0.0381  0.8001 -0.2426
  265THF    H10 3442   5.036   1.029   1.317 -2.0194 -1.6762  1.1415
  265THF    H11 3443   4.956   0.906   1.230  4.1366  0.6183  0.1060
  265THF    H12 3444   4.831   1.050   1.129  0.6039  0.0221  0.4265
  265THF    H13 3445   4.932   1.193   1.156  0.6941  2.6969  1.9633
  266THF     O1 3446   0.163   2.368   3.373 -0.6438  0.0170 -0.0223
  266THF     C2 3447   0.242   2.322   3.486  0.4018 -0.4233  0.0201
  266THF     C3 3448   0.257   2.394   3.264  0.7232 -0.0666 -0.4053
  266THF     H4 3449   0.271   2.218   3.451  1.0728  2.3879  0.2288
  266THF     H5 3450   0.176   2.321   3.572 -0.8213  1.0504 -1.5395
  266THF     H6 3451   0.272   2.312   3.196 -0.2856 -0.0912  0.9988
  266THF     H7 3452   0.232   2.481   3.196  1.3696  0.1935  2.4899
  266THF     C8 3453   0.390   2.424   3.332 -0.1082 -0.2122 -0.3537
  266THF     C9 3454   0.361   2.411   3.484 -0.5703  0.6853 -0.4515
  266THF    H10 3455   0.439   2.514   3.317 -2.6256  0.2935  0.8681
  266THF    H11 3456   0.455   2.340   3.306 -1.4901  0.3369 -1.9156
  266THF    H12 3457   0.446   2.377   3.545 -3.0883 -0.3535 -1.1816
  266THF    H13 3458   0.330   2.513   3.524  0.0977 -0.0422 -2.5212
  267THF     O1 3459   1.678   3.914   1.132  0.0948 -0.0113 -0.0169
  267THF     C2 3460   1.736   4.038   1.185 -0.3188  0.3174 -0.3139
  267THF     C3 3461   1.619   3.844   1.249 -0.3065 -0.5993 -0.0734
  267THF     H4 3462   1.671   4.119   1.170 -0.1106  0.3040  1.6641
  267THF     H5 3463   1.821   4.052   1.118  0.7502  0.1437  2.1979
  267THF     H6 3464   1.526   3.893   1.278 -0.1133  2.0049 -0.4629
  267THF     H7 3465   1.592   3.742   1.221 -2.7863 -1.2850  4.4065
  267THF     C8 3466   1.728   3.876   1.357  0.2421  0.1008 -0.8861
  267THF     C9 3467   1.765   4.018   1.337 -0.5160  0.0240  0.9587
  267THF    H10 3468   1.820   3.808   1.340 -0.8807 -0.6105  1.2241
  267THF    H11 3469   1.692   3.845   1.453  0.4694 -0.6297 -2.2128
  267THF    H12 3470   1.696   4.073   1.404 -3.4162  0.7083 -1.5296
  267THF    H13 3471   1.871   4.039   1.364  0.9053 -1.4884  0.9675
  268THF     O1 3472   4.006   1.926   4.881  0.5536  0.1997 -0.2463
  268THF     C2 3473   3.959   2.046   4.929  0.3817  0.0093  0.2920
  268THF     C3 3474   4.146   1.934   4.896 -0.2214  0.6357 -0.0553
  268THF     H4 3475   3.854   2.046   4.952  2.6226 -1.8625 -0.7146
  268THF     H5 3476   3.985   2.119   4.855 -0.2723 -2.7309  1.0907
  268THF     H6 3477   4.192   1.830   4.903  1.5708  1.4504 -2.1591
  268THF     H7 3478   4.175   1.977   4.801 -0.8294  0.0001 -1.0127
  268THF     C8 3479   4.173   2.018   5.021  0.2896  0.5254  0.5139
  268THF     C9 3480   4.036   2.068   5.056 -0.2545 -1.0389  0.3628
  268THF    H10 3481   4.229   2.104   4.983  0.3535  1.5086 -0.7130
  268THF    H11 3482   4.220   1.974   5.100  0.1015  1.5975  0.7019
  268THF    H12 3483   3.987   2.000   5.131  2.0480 -0.9143 -1.4022
  268THF    H13 3484   4.039   2.171   5.100 -0.3937 -1.3749 -0.6771
  269THF     O1 3485   5.356   1.835   2.810 -0.1606 -0.8603  0.1140
  269THF     C2 3486   5.495   1.866   2.806  0.0467  0.3107 -1.0243
  269THF     C3 3487   5.290   1.944   2.877 -0.0109  0.0287  0.2302
  269THF     H4 3488   5.545   1.813   2.724 -0.5057 -2.0325  1.6220
  269THF     H5 3489   5.542   1.842   2.897  2.5437  1.7470 -3.6676
  269THF     H6 3490   5.187   1.947   2.837 -2.6888 -0.8585  0.7951
  269THF     H7 3491   5.285   1.918   2.981 -0.7064 -0.9639  1.3734
  269THF     C8 3492   5.376   2.070   2.844 -0.6092 -0.7617  0.6178
  269THF     C9 3493   5.497   2.013   2.783  0.3025 -0.2733  0.8229
  269THF    H10 3494   5.400   2.117   2.938 -3.2668 -0.5465  0.4967
  269THF    H11 3495   5.313   2.138   2.780  0.4510  0.9715 -1.0140
  269THF    H12 3496   5.491   2.023   2.675 -1.7298  0.1343 -0.1860
  269THF    H13 3497   5.581   2.068   2.819 -1.6726 -0.4766  3.0257
  270THF     O1 3498   0.825   3.724   3.184 -0.0919  0.6945 -0.2485
  270THF     C2 3499   0.927   3.623   3.171  0.0694  0.1259 -0.0852
  270THF     C3 3500   0.852   3.793   3.306 -0.1602 -0.3935  0.2877
  270THF     H4 3501   0.942   3.613   3.060 -0.4154  1.7238 -0.2326
  270THF     H5 3502   0.893   3.524   3.210  0.0382 -1.8860  1.0971
  270THF     H6 3503   0.815   3.892   3.282 -0.6102  0.2818  0.8489
  270THF     H7 3504   0.817   3.742   3.403 -0.4210 -1.4702 -3.0551
  270THF     C8 3505   0.998   3.795   3.312 -0.1152 -0.4013 -0.0615
  270THF     C9 3506   1.055   3.683   3.231  0.0773  0.1100  0.0909
  270THF    H10 3507   1.041   3.791   3.414  1.7128  0.1126 -0.1503
  270THF    H11 3508   1.033   3.895   3.277 -0.6890  3.8188  2.2025
  270THF    H12 3509   1.122   3.719   3.156 -0.6969 -0.7431 -0.7353
  270THF    H13 3510   1.112   3.606   3.289  0.6574  0.3806  3.3722
  271THF     O1 3511   2.209   0.008   0.234 -0.3381  0.4690  0.7741
  271THF     C2 3512   2.254   0.036   0.363 -0.1903  0.0851  0.4002
  271THF     C3 3513   2.167   0.131   0.187  0.0179  0.3176 -0.2335
  271THF     H4 3514   2.362   0.081   0.361 -0.2454 -0.9391  1.5661
  271THF     H5 3515   2.266  -0.057   0.419  0.6275  1.2407  0.2224
  271THF     H6 3516   2.248   0.171   0.131 -0.3827 -0.0953  1.8706
  271THF     H7 3517   2.077   0.122   0.122  1.2822 -2.3510  0.0435
  271THF     C8 3518   2.131   0.218   0.311  0.6037 -0.4417 -0.4854
  271THF     C9 3519   2.158   0.131   0.424 -0.2662 -0.0651  0.2078
  271THF    H10 3520   2.032   0.259   0.304  0.0689 -0.1338 -0.1837
  271THF    H11 3521   2.189   0.315   0.300 -0.3658 -0.8465 -0.6283
  271THF    H12 3522   2.201   0.190   0.504  1.9251 -0.7132 -2.1307
  271THF    H13 3523   2.065   0.088   0.458 -1.5522  1.2764  2.0391
  272THF     O1 3524   0.309   4.948   3.553 -0.1001 -0.0535 -0.3371
  272THF     C2 3525   0.398   5.011   3.643  0.3485  0.0659  0.0158
  272THF     C3 3526   0.193   4.901   3.620  0.5605 -0.0117  0.5418
  272THF     H4 3527   0.417   5.112   3.622 -0.3604 -2.5567  2.2391
  272THF     H5 3528   0.492   4.966   3.623  2.3251  0.2234 -3.5662
  272THF     H6 3529   0.119   4.982   3.619 -0.7273 -0.6219 -3.6530
  272THF     H7 3530   0.132   4.816   3.574  0.0710 -1.2102 -1.6069
  272THF     C8 3531   0.239   4.872   3.752 -0.6694 -0.7580 -0.0774
  272THF     C9 3532   0.341   4.981   3.787 -0.2078  0.3574  0.7598
  272THF    H10 3533   0.277   4.773   3.760 -0.9851 -1.1101  0.1163
  272THF    H11 3534   0.148   4.873   3.821  0.4080 -0.6214 -0.3073
  272THF    H12 3535   0.305   5.072   3.831  2.5065 -2.5599  0.4875
  272THF    H13 3536   0.424   4.954   3.848  0.0601 -2.4166  0.4097
  273THF     O1 3537   3.196   3.410   1.034 -0.2916 -0.2632  0.0144
  273THF     C2 3538   3.272   3.289   1.031 -0.0102  0.2250 -0.0896
  273THF     C3 3539   3.149   3.429   1.162 -0.5665  0.0120 -0.5772
  273THF     H4 3540   3.372   3.311   0.989 -0.8637  1.1225 -0.0205
  273THF     H5 3541   3.234   3.201   0.977 -2.2024 -1.3550 -0.0375
  273THF     H6 3542   3.132   3.535   1.175 -0.8785 -1.9507  0.6669
  273THF     H7 3543   3.040   3.389   1.175 -0.2930 -0.7879 -2.4131
  273THF     C8 3544   3.245   3.365   1.262  0.2166 -0.1979 -0.2821
  273THF     C9 3545   3.284   3.244   1.181  0.0165 -0.0874 -0.0907
  273THF    H10 3546   3.190   3.341   1.355  0.1319  1.1258 -2.0742
  273THF    H11 3547   3.335   3.427   1.285 -3.3527  4.0343  0.8851
  273THF    H12 3548   3.383   3.204   1.194  1.9533 -2.0772  0.3108
  273THF    H13 3549   3.209   3.164   1.195 -2.0601  2.6608  1.0295
  274THF     O1 3550   3.179   5.228   1.770 -0.2546  0.0510 -0.5469
  274THF     C2 3551   3.074   5.316   1.816  0.3309 -0.6552  0.1034
  274THF     C3 3552   3.127   5.134   1.676 -0.4223 -0.2730 -0.2538
  274THF     H4 3553   3.091   5.416   1.774  1.5819 -0.1529 -1.8089
  274THF     H5 3554   3.083   5.322   1.921  3.2372  1.4037 -0.2269
  274THF     H6 3555   3.205   5.136   1.598  0.4452  0.9446 -0.6479
  274THF     H7 3556   3.106   5.033   1.713 -1.2943 -1.5408 -0.1400
  274THF     C8 3557   2.995   5.189   1.635 -0.1977 -0.1851 -0.3487
  274THF     C9 3558   2.947   5.248   1.772  0.5942 -0.2446  0.1449
  274THF    H10 3559   2.947   5.100   1.592 -2.0603 -0.0420 -2.5602
  274THF    H11 3560   3.005   5.276   1.565 -0.5849 -0.8477 -3.8011
  274THF    H12 3561   2.859   5.318   1.756 -1.7334 -0.8054  3.8734
  274THF    H13 3562   2.924   5.181   1.852  2.8230 -0.4004  1.1495
  275THF     O1 3563   1.136   4.531   3.025  0.1233 -0.2621  0.0408
  275THF     C2 3564   1.261   4.551   2.971 -0.6918 -0.6645 -0.3186
  275THF     C3 3565   1.041   4.492   2.929 -0.3367  0.1823  0.1784
  275THF     H4 3566   1.327   4.472   2.979 -0.7135  1.5023  2.2258
  275THF     H5 3567   1.312   4.636   3.018  0.7094 -0.2123  0.0457
  275THF     H6 3568   1.069   4.397   2.887 -2.1707  0.2592 -0.3387
  275THF     H7 3569   0.939   4.500   2.963  0.2179  2.2030  0.1366
  275THF     C8 3570   1.080   4.579   2.817 -0.3219 -0.1727 -0.2750
  275THF     C9 3571   1.235   4.584   2.826 -0.1131 -0.0276 -0.1113
  275THF    H10 3572   1.064   4.685   2.847  0.5130 -0.2908  1.3054
  275THF    H11 3573   1.033   4.558   2.719 -1.1165  0.0232  1.2560
  275THF    H12 3574   1.276   4.510   2.759  3.6678 -0.6023 -1.0786
  275THF    H13 3575   1.285   4.680   2.806  0.9308 -1.1928 -1.3748
  276THF     O1 3576   1.127   2.054   4.250 -0.4573  0.2166 -0.3806
  276THF     C2 3577   1.023   1.955   4.253 -0.8298  0.1384  0.3106
  276THF     C3 3578   1.171   2.064   4.383  0.5441 -0.3484 -0.5479
  276THF     H4 3579   1.063   1.855   4.275 -1.0449  1.5067 -0.0630
  276THF     H5 3580   0.976   1.953   4.160 -1.9289 -2.6232  3.2526
  276THF     H6 3581   1.232   1.981   4.413 -1.4606 -0.4695 -1.5442
  276THF     H7 3582   1.235   2.149   4.404  0.8991  1.4267 -0.7416
  276THF     C8 3583   1.032   2.071   4.455 -0.1421  0.0355  0.1866
  276THF     C9 3584   0.932   2.006   4.361 -0.9569 -0.2970 -0.2814
  276THF    H10 3585   1.013   2.179   4.464  0.7001  0.0643 -0.4184
  276THF    H11 3586   1.032   2.016   4.544  3.1519  2.3825  0.0967
  276THF    H12 3587   0.888   1.918   4.401 -0.2620  0.6108 -0.3795
  276THF    H13 3588   0.854   2.066   4.319 -0.5724 -1.3477  0.7938
  277THF     O1 3589   4.088   3.478   4.075 -0.4853 -0.5787  0.2277
  277THF     C2 3590   4.041   3.583   4.160  0.4239  0.0475  0.3472
  277THF     C3 3591   4.031   3.497   3.944  0.4735  0.1585  0.3470
  277THF     H4 3592   4.113   3.587   4.242 -1.8533 -0.5204 -0.3532
  277THF     H5 3593   3.943   3.557   4.200  2.8620 -1.6896 -1.1128
  277THF     H6 3594   4.103   3.455   3.875  0.7540 -2.4025 -3.3298
  277THF     H7 3595   3.938   3.438   3.946 -0.0553 -0.5057  1.8070
  277THF     C8 3596   4.010   3.645   3.927  0.0443  0.0912  0.0608
  277THF     C9 3597   4.041   3.703   4.063 -0.4940 -0.1453  0.2845
  277THF    H10 3598   3.916   3.686   3.891  1.2678  0.3154  1.7764
  277THF    H11 3599   4.076   3.668   3.842 -1.1139  0.0267  0.5142
  277THF    H12 3600   4.146   3.748   4.052  2.4684  2.0749  0.1934
  277THF    H13 3601   3.982   3.787   4.089 -1.2339  2.2736  0.7707
  278THF     O1 3602   4.654   1.871   3.400  0.2237  0.2881 -0.4114
  278THF     C2 3603   4.664   1.728   3.399 -0.6949 -0.3122 -0.1417
  278THF     C3 3604   4.701   1.908   3.525 -0.7609 -0.0633  1.0156
  278THF     H4 3605   4.693   1.707   3.299 -1.4134 -0.0581  1.1146
  278THF     H5 3606   4.572   1.683   3.425 -1.1807  2.1546 -1.8037
  278THF     H6 3607   4.708   2.009   3.549 -0.8901 -1.3244 -0.6697
  278THF     H7 3608   4.635   1.880   3.599  2.3437 -2.5953 -1.3651
  278THF     C8 3609   4.828   1.831   3.540  0.2239  0.0529  0.0028
  278THF     C9 3610   4.784   1.693   3.498 -0.1999  0.5046 -0.1633
  278THF    H10 3611   4.867   1.840   3.636 -1.5595 -3.0364  1.3982
  278THF    H11 3612   4.895   1.868   3.466 -0.6825 -1.6776  1.1487
  278THF    H12 3613   4.860   1.632   3.441  1.7231 -0.1683 -3.7725
  278THF    H13 3614   4.746   1.633   3.582 -1.8853 -0.9707  0.4488
  279THF     O1 3615   3.331   5.177   4.319 -0.4030 -0.2852  0.1745
  279THF     C2 3616   3.245   5.075   4.272 -0.3142 -0.3033 -0.1515
  279THF     C3 3617   3.433   5.102   4.387  0.1591 -0.2740 -0.1455
  279THF     H4 3618   3.294   5.047   4.178  0.4273  1.2185  2.6633
  279THF     H5 3619   3.146   5.101   4.252  0.7365 -1.9430  2.9132
  279THF     H6 3620   3.521   5.096   4.321 -1.0488  0.7980 -0.3054
  279THF     H7 3621   3.470   5.154   4.475 -0.8736 -2.2194  0.4800
  279THF     C8 3622   3.388   4.966   4.433  0.5464 -0.2673 -0.8231
  279THF     C9 3623   3.246   4.956   4.374 -0.3928 -0.2449 -0.4572
  279THF    H10 3624   3.394   4.947   4.540 -1.1478 -0.0037  0.9007
  279THF    H11 3625   3.445   4.880   4.378 -1.3736 -1.2517 -2.0247
  279THF    H12 3626   3.224   4.853   4.332 -0.4193  0.3504  0.0814
  279THF    H13 3627   3.182   4.982   4.452  1.8920 -0.6569 -1.3386
  280THF     O1 3628   5.459   3.495   3.470 -0.1391 -0.0550 -0.7444
  280THF     C2 3629   5.582   3.573   3.488  0.2390 -0.1663 -0.7613
  280THF     C3 3630   5.494   3.358   3.457  0.4151 -0.4529 -1.0899
  280THF     H4 3631   5.610   3.581   3.593  0.5506 -3.2166 -0.7156
  280THF     H5 3632   5.579   3.667   3.425  2.0148  2.9246 -1.7884
  280THF     H6 3633   5.499   3.310   3.552  2.0808  0.0064  0.9142
  280THF     H7 3634   5.426   3.300   3.394 -0.9816 -2.1052 -0.4481
  280THF     C8 3635   5.630   3.368   3.384 -0.2136  0.0107  0.3969
  280THF     C9 3636   5.701   3.493   3.443 -0.0105 -0.3941 -0.5280
  280THF    H10 3637   5.620   3.374   3.275  0.4188 -1.3304 -0.5015
  280THF    H11 3638   5.697   3.273   3.391  0.7937 -1.6730  0.6636
  280THF    H12 3639   5.774   3.470   3.519 -1.1969  1.1145  1.6844
  280THF    H13 3640   5.749   3.551   3.369  0.2222  1.6832  3.3857
  281THF     O1 3641   0.738   0.288   1.562  0.2846  0.4845 -0.4433
  281THF     C2 3642   0.640   0.281   1.458  0.6554 -0.2856 -0.2156
  281THF     C3 3643   0.857   0.362   1.526 -0.0066 -0.0947  0.3922
  281THF     H4 3644   0.607   0.384   1.441 -2.6771 -1.6800 -1.8039
  281THF     H5 3645   0.549   0.214   1.474 -0.8732 -1.6840  0.6057
  281THF     H6 3646   0.838   0.466   1.556 -1.5716 -0.2966  4.1823
  281THF     H7 3647   0.941   0.323   1.582 -0.4015  0.0714  3.3000
  281THF     C8 3648   0.859   0.336   1.380  0.1643  0.2662  0.2093
  281THF     C9 3649   0.734   0.259   1.341  0.0829  0.3409 -0.0547
  281THF    H10 3650   0.949   0.291   1.339  1.8571  0.1331 -0.1074
  281THF    H11 3651   0.844   0.426   1.319  1.0542 -0.5689  0.2131
  281THF    H12 3652   0.691   0.286   1.247  0.2814  2.0165 -0.2464
  281THF    H13 3653   0.764   0.150   1.335  3.0252 -0.7784  0.2725
  282THF     O1 3654   4.758   1.302   4.322  0.0765 -0.0840 -0.0210
  282THF     C2 3655   4.751   1.371   4.198 -0.7991 -1.0074  0.2489
  282THF     C3 3656   4.864   1.219   4.299  0.4892  0.0780 -0.4940
  282THF     H4 3657   4.676   1.447   4.194  0.2842  0.2630  1.0989
  282THF     H5 3658   4.718   1.305   4.117  1.2121 -1.7483 -0.6455
  282THF     H6 3659   4.903   1.171   4.382 -1.4536 -1.7700  0.1907
  282THF     H7 3660   4.836   1.137   4.232 -0.4078 -0.8880 -0.5041
  282THF     C8 3661   4.967   1.306   4.226 -0.2860  0.1153 -0.4528
  282THF     C9 3662   4.887   1.422   4.165 -0.7283  0.7371  0.4022
  282THF    H10 3663   5.020   1.245   4.151  0.1160 -2.9061  1.3122
  282THF    H11 3664   5.043   1.349   4.288 -1.5022 -2.9139  1.3295
  282THF    H12 3665   4.919   1.509   4.224 -0.2956  1.9371  3.1576
  282THF    H13 3666   4.905   1.445   4.057  0.0563  0.8354 -1.9839
  283THF     O1 3667   4.425   4.663   4.110  0.1767  0.2255  0.0212
  283THF     C2 3668   4.426   4.526   4.063 -0.2343  0.2374  0.0607
  283THF     C3 3669   4.523   4.667   4.210  0.2241 -0.4795  0.4556
  283THF     H4 3670   4.522   4.514   4.010 -0.6436 -2.3578  1.1514
  283THF     H5 3671   4.346   4.502   3.996 -1.3113  0.6057 -0.2543
  283THF     H6 3672   4.618   4.635   4.168 -2.8027 -3.5787  0.9909
  283THF     H7 3673   4.540   4.758   4.277  0.7788  0.9586  0.8749
  283THF     C8 3674   4.489   4.546   4.291  0.0542 -0.3664 -0.0856
  283THF     C9 3675   4.430   4.450   4.195 -0.0030  0.0737  0.5357
  283THF    H10 3676   4.426   4.578   4.384  2.6690 -1.3719  4.0227
  283THF    H11 3677   4.580   4.502   4.327 -0.3160  1.0534 -0.7562
  283THF    H12 3678   4.500   4.364   4.193 -0.6563  1.9089  2.3080
  283THF    H13 3679   4.327   4.424   4.233 -2.8653  0.8091  0.4896
  284THF     O1 3680   1.629   0.391   3.053  0.3947 -0.9448  0.0318
  284THF     C2 3681   1.489   0.406   3.033 -0.4377  0.5108 -0.3398
  284THF     C3 3682   1.681   0.521   3.083 -0.8854 -0.0742  0.2791
  284THF     H4 3683   1.439   0.313   3.032 -1.0266  0.6234 -0.2896
  284THF     H5 3684   1.465   0.458   2.943 -1.3437 -1.5855  1.8069
  284THF     H6 3685   1.780   0.498   3.122  0.6646  1.9447  0.0192
  284THF     H7 3686   1.701   0.577   2.990  1.9580  0.5701  0.7348
  284THF     C8 3687   1.574   0.566   3.178  0.5258  1.1277 -0.2161
  284THF     C9 3688   1.450   0.487   3.154  0.0452  0.6044 -0.2010
  284THF    H10 3689   1.553   0.669   3.160 -0.5962  0.6330  1.2965
  284THF    H11 3690   1.599   0.555   3.285 -1.2328 -1.5798 -2.3187
  284THF    H12 3691   1.433   0.415   3.232 -0.8071 -0.4591 -2.3703
  284THF    H13 3692   1.362   0.552   3.148 -0.3061 -1.2822  0.0058
  285THF     O1 3693   1.931   4.006   5.157 -0.3899 -0.1343  0.2126
  285THF     C2 3694   1.938   3.924   5.044  0.1699 -0.0155 -0.4410
  285THF     C3 3695   1.836   3.944   5.244  0.4389 -1.2316 -0.1897
  285THF     H4 3696   2.032   3.943   4.985  0.8340  1.0376  1.5709
  285THF     H5 3697   1.859   3.951   4.970 -1.7522 -1.5931 -0.7595
  285THF     H6 3698   1.847   3.976   5.350  3.7123  1.0501 -0.5171
  285THF     H7 3699   1.736   3.968   5.203  1.5137  0.8283 -0.9473
  285THF     C8 3700   1.864   3.793   5.229 -0.3369 -0.6957  0.2226
  285THF     C9 3701   1.923   3.778   5.090 -0.0958  0.2223  0.0998
  285THF    H10 3702   1.778   3.721   5.239 -1.5905  0.6930 -1.4100
  285THF    H11 3703   1.942   3.761   5.293 -0.3561  1.9177  2.6434
  285THF    H12 3704   2.014   3.725   5.103 -0.3742 -1.1558  1.1104
  285THF    H13 3705   1.862   3.718   5.028  1.3852 -0.6554  0.8006
  286THF     O1 3706   1.426   1.175   1.783  0.7313 -0.1054 -0.2916
  286THF     C2 3707   1.350   1.056   1.769  0.1627 -0.0469 -0.2694
  286THF     C3 3708   1.341   1.254   1.862 -0.1422  0.5832 -0.0699
  286THF     H4 3709   1.352   0.999   1.863 -0.8548  1.4344  0.9233
  286THF     H5 3710   1.399   0.990   1.698  0.6755 -1.1123  1.5598
  286THF     H6 3711   1.342   1.218   1.967 -0.4608 -0.8743  2.0280
  286THF     H7 3712   1.377   1.359   1.873  1.1262  1.5015 -0.5219
  286THF     C8 3713   1.207   1.250   1.793  0.0252 -0.1524 -0.5774
  286THF     C9 3714   1.215   1.107   1.726 -0.4412  0.7346  0.1011
  286THF    H10 3715   1.187   1.327   1.722 -0.9968 -0.4685 -0.2502
  286THF    H11 3716   1.132   1.255   1.875  0.3818 -3.0496 -1.2448
  286THF    H12 3717   1.131   1.035   1.745  0.6471 -1.7530  0.7266
  286THF    H13 3718   1.223   1.120   1.621  3.1719  0.2882  3.4060
  287THF     O1 3719   5.402   1.542   1.734  0.4539  0.3084  0.5212
  287THF     C2 3720   5.311   1.648   1.713  1.3794  0.0564 -0.3368
  287THF     C3 3721   5.442   1.551   1.870  0.6518  0.0534 -0.0490
  287THF     H4 3722   5.207   1.635   1.763 -0.4593  1.2763  1.8788
  287THF     H5 3723   5.284   1.667   1.609  2.0447 -1.5147 -0.1834
  287THF     H6 3724   5.367   1.502   1.929  0.6239  0.4999 -1.3619
  287THF     H7 3725   5.536   1.500   1.883 -0.0114 -0.5356 -1.0868
  287THF     C8 3726   5.445   1.703   1.903  0.5474  0.0981 -0.2187
  287THF     C9 3727   5.376   1.771   1.782 -0.4285 -0.8309  0.0682
  287THF    H10 3728   5.547   1.736   1.906 -1.2040 -1.8722  0.8310
  287THF    H11 3729   5.396   1.725   1.997 -1.6109  0.7001  1.4178
  287THF    H12 3730   5.305   1.845   1.816 -0.2968  0.2473 -0.7360
  287THF    H13 3731   5.436   1.821   1.707  0.0812 -1.5492 -2.6184
  288THF     O1 3732   0.051   0.180   2.521  0.2071  0.5765 -0.1223
  288THF     C2 3733   0.012   0.169   2.660  0.5536 -0.1401 -0.3614
  288THF     C3 3734   0.041   0.320   2.495 -0.6096  0.2531 -0.0393
  288THF     H4 3735   0.052   0.076   2.699 -0.5325  2.7001  0.4750
  288THF     H5 3736  -0.091   0.183   2.682 -0.1752  1.6203 -1.5523
  288THF     H6 3737   0.092   0.340   2.399  0.7070 -2.2309  0.8262
  288THF     H7 3738  -0.056   0.359   2.487  2.0902  1.8411  1.0890
  288THF     C8 3739   0.116   0.386   2.617 -0.8301 -0.5713  1.0131
  288THF     C9 3740   0.109   0.272   2.720 -0.3133 -0.6298  0.4820
  288THF    H10 3741   0.060   0.478   2.658 -1.3877  0.4931  3.0503
  288THF    H11 3742   0.210   0.421   2.588 -0.5362 -2.3865 -0.1673
  288THF    H12 3743   0.217   0.243   2.728 -1.0145  3.0826  0.8779
  288THF    H13 3744   0.080   0.320   2.813 -0.8610  0.1473  3.6243
  289THF     O1 3745   4.490   1.123   2.746 -0.0331 -0.1355 -0.0724
  289THF     C2 3746   4.452   1.034   2.639 -0.2391  0.3866 -0.2251
  289THF     C3 3747   4.380   1.208   2.774 -0.5504 -0.2020  0.1396
  289THF     H4 3748   4.385   0.959   2.684  0.1431  1.7208  0.7351
  289THF     H5 3749   4.536   0.995   2.592 -0.3547 -1.4615  1.7918
  289THF     H6 3750   4.301   1.149   2.818 -0.5702  0.2020 -0.0229
  289THF     H7 3751   4.413   1.289   2.843  0.8749 -2.3138 -1.5186
  289THF     C8 3752   4.340   1.250   2.636  0.4113 -0.0386 -0.8372
  289THF     C9 3753   4.369   1.128   2.552 -0.4203 -0.2983 -0.2138
  289THF    H10 3754   4.401   1.322   2.593 -0.4899 -0.2874 -2.0019
  289THF    H11 3755   4.240   1.299   2.616 -0.8184  0.9743 -1.4032
  289THF    H12 3756   4.282   1.071   2.515 -0.6200  0.3330 -0.9942
  289THF    H13 3757   4.431   1.153   2.467 -3.1186 -2.0296  1.6425
  290THF     O1 3758   2.883   1.432   3.609  0.7312  0.5064  0.0224
  290THF     C2 3759   2.934   1.500   3.495 -0.0869 -0.2577  0.0335
  290THF     C3 3760   2.754   1.475   3.643  0.6577  0.2248  0.2507
  290THF     H4 3761   2.919   1.449   3.401 -0.3470 -1.2160 -0.0183
  290THF     H5 3762   3.039   1.527   3.518  2.3061  2.8100  0.0554
  290THF     H6 3763   2.684   1.418   3.585  2.5765 -2.2301 -2.6797
  290THF     H7 3764   2.726   1.465   3.747 -1.1488  0.4438  0.1479
  290THF     C8 3765   2.749   1.629   3.599 -0.0534  0.0067  0.1878
  290THF     C9 3766   2.861   1.637   3.494  0.0140  0.6862  0.0961
  290THF    H10 3767   2.770   1.688   3.693  0.8349 -0.0798  0.0334
  290THF    H11 3768   2.653   1.652   3.554 -0.3466  0.4683  0.3611
  290THF    H12 3769   2.820   1.660   3.396 -3.5394  2.7955 -0.2306
  290THF    H13 3770   2.933   1.707   3.530 -0.4516  0.0566 -0.4282
  291THF     O1 3771   5.182   4.031   1.457 -0.4296 -0.1862  0.1572
  291THF     C2 3772   5.190   3.964   1.333 -0.2468  0.1892 -0.7777
  291THF     C3 3773   5.309   4.092   1.491 -1.0574 -0.2633  0.6753
  291THF     H4 3774   5.150   4.025   1.253  0.4583 -0.1827  0.4717
  291THF     H5 3775   5.135   3.870   1.332 -0.2530  1.2547 -2.4709
  291THF     H6 3776   5.323   4.184   1.449 -2.2600 -0.9811  1.0824
  291THF     H7 3777   5.323   4.098   1.598 -1.5945 -0.9015 -0.0311
  291THF     C8 3778   5.405   3.986   1.438 -0.0205  0.0856  0.1038
  291THF     C9 3779   5.343   3.941   1.303  0.2911 -0.6044  0.0861
  291THF    H10 3780   5.400   3.898   1.505 -1.0611 -2.2222 -0.7685
  291THF    H11 3781   5.507   4.014   1.429  0.9190  1.5475  1.5942
  291THF    H12 3782   5.377   4.005   1.216  2.0107 -0.8696 -1.8350
  291THF    H13 3783   5.379   3.840   1.278 -0.2757 -0.9132 -0.3662
  292THF     O1 3784   2.387   1.363   3.312 -0.6505  0.5653 -0.7808
  292THF     C2 3785   2.324   1.491   3.277 -0.8507 -0.0360 -0.0261
  292THF     C3 3786   2.514   1.370   3.245 -0.1869 -0.7584 -0.4035
  292THF     H4 3787   2.255   1.518   3.353 -0.1894  0.0514  1.8961
  292THF     H5 3788   2.270   1.484   3.184  2.4972 -2.3903  0.5957
  292THF     H6 3789   2.586   1.304   3.294  2.5225  1.5150  1.0810
  292THF     H7 3790   2.505   1.349   3.139  0.7395  1.0598  0.4126
  292THF     C8 3791   2.561   1.517   3.264  0.0742  0.3605  0.5799
  292THF     C9 3792   2.435   1.593   3.264  0.1739 -0.6172 -0.3461
  292THF    H10 3793   2.630   1.551   3.193  0.5200  0.4151  0.4711
  292THF    H11 3794   2.602   1.538   3.359  0.2175  0.6051 -3.5084
  292THF    H12 3795   2.423   1.656   3.358 -1.7273  0.4713  2.3678
  292THF    H13 3796   2.411   1.651   3.174 -3.7756  0.6733 -0.4345
  293THF     O1 3797   2.929   3.054   5.479  0.0918  0.6483  0.3729
  293THF     C2 3798   2.909   3.177   5.546 -0.1301  0.6586  0.3684
  293THF     C3 3799   3.057   3.000   5.516 -0.0320  0.6488 -0.5711
  293THF     H4 3800   2.815   3.176   5.600 -2.0067 -0.2440 -1.0342
  293THF     H5 3801   2.905   3.255   5.470  0.0738  1.6932  1.3359
  293THF     H6 3802   3.050   2.920   5.585 -0.5527 -0.3969  0.2039
  293THF     H7 3803   3.102   2.964   5.422 -2.1703  0.4117 -0.0793
  293THF     C8 3804   3.136   3.120   5.581 -0.2774  0.1156 -0.4711
  293THF     C9 3805   3.027   3.200   5.644  0.1387  0.1307 -0.1798
  293THF    H10 3806   3.177   3.180   5.497 -0.8076  0.1749 -2.4919
  293THF    H11 3807   3.211   3.085   5.653 -0.2582 -1.7405  2.1659
  293THF    H12 3808   3.008   3.160   5.741 -3.1316  1.7039  0.8729
  293THF    H13 3809   3.067   3.300   5.662  1.4908 -2.3369 -0.3747
  294THF     O1 3810   2.908   2.584   0.759 -0.3411  0.3947 -0.1409
  294THF     C2 3811   2.815   2.684   0.762 -0.4262 -0.1090  0.0187
  294THF     C3 3812   3.026   2.631   0.819 -0.5191  0.3456  0.7699
  294THF     H4 3813   2.714   2.641   0.746 -2.1413 -0.8202 -2.3530
  294THF     H5 3814   2.838   2.768   0.682  1.1746  1.7178 -1.1666
  294THF     H6 3815   3.074   2.540   0.857 -2.8346 -2.4338 -0.5902
  294THF     H7 3816   3.095   2.671   0.741 -0.9356  0.8587 -2.9536
  294THF     C8 3817   2.973   2.726   0.933 -0.0266  0.0657 -0.5842
  294THF     C9 3818   2.824   2.744   0.903  0.5822  0.3658  0.3736
  294THF    H10 3819   3.023   2.826   0.929 -1.3499 -0.1676 -1.2651
  294THF    H11 3820   2.987   2.694   1.038 -0.5189 -0.7038  0.8118
  294THF    H12 3821   2.777   2.676   0.964 -1.1834 -1.6436 -1.7600
  294THF    H13 3822   2.773   2.844   0.900  0.1104  3.0466 -0.1416
  295THF     O1 3823   3.294   4.329   3.832 -0.5174  0.3862 -0.1869
  295THF     C2 3824   3.317   4.460   3.787  0.9090  0.3823 -0.5767
  295THF     C3 3825   3.181   4.337   3.918 -0.0651  0.5805  0.1633
  295THF     H4 3826   3.260   4.493   3.706 -0.9741 -1.0399  1.3882
  295THF     H5 3827   3.422   4.469   3.749  0.6845 -0.8256  0.8209
  295THF     H6 3828   3.096   4.360   3.857  0.1268 -0.7484 -0.8788
  295THF     H7 3829   3.152   4.248   3.968  0.0910 -0.0535  0.6924
  295THF     C8 3830   3.204   4.467   3.999 -0.2665  1.0304  0.8629
  295THF     C9 3831   3.305   4.545   3.914  0.1496  0.2200 -0.0326
  295THF    H10 3832   3.245   4.466   4.098  1.1570 -3.7503  0.8273
  295THF    H11 3833   3.113   4.526   3.995  2.1830  1.8628 -2.0855
  295THF    H12 3834   3.267   4.647   3.891  1.4595 -3.3421 -0.9050
  295THF    H13 3835   3.403   4.553   3.954  1.3424 -1.3222  0.6952
  296THF     O1 3836   3.244   4.015   2.344  0.8183  0.1491 -0.1551
  296THF     C2 3837   3.232   3.926   2.236 -0.0077 -0.0669  0.3922
  296THF     C3 3838   3.227   4.145   2.292 -0.1292  0.2299 -0.0527
  296THF     H4 3839   3.126   3.901   2.218  1.7581  1.8377  0.2798
  296THF     H5 3840   3.295   3.837   2.239  0.9891  1.3489 -1.2880
  296THF     H6 3841   3.122   4.179   2.287 -0.7208 -2.9419  0.0383
  296THF     H7 3842   3.285   4.209   2.361 -0.4508  2.6972  0.1334
  296THF     C8 3843   3.293   4.147   2.160  1.0064 -0.8488  0.1205
  296THF     C9 3844   3.287   4.004   2.112 -0.4505  0.5226  0.3089
  296THF    H10 3845   3.392   4.188   2.176 -1.1006  0.5036  0.0274
  296THF    H11 3846   3.251   4.212   2.086  0.9233 -2.1153 -0.5897
  296THF    H12 3847   3.218   3.997   2.025 -0.6287 -0.8448  0.2400
  296THF    H13 3848   3.384   3.966   2.093 -0.1237  3.3246 -1.9999
  297THF     O1 3849   2.972   5.461   0.362  0.3930 -0.3495 -0.1380
  297THF     C2 3850   2.839   5.444   0.406 -0.2052  0.4843 -0.1975
  297THF     C3 3851   3.057   5.407   0.458  0.0641  0.2720 -0.4079
  297THF     H4 3852   2.802   5.339   0.398 -1.3873  0.9829  2.1147
  297THF     H5 3853   2.775   5.504   0.338 -0.0371 -0.2226 -0.5839
  297THF     H6 3854   3.041   5.297   0.467 -0.7233  3.3264  1.8184
  297THF     H7 3855   3.156   5.427   0.438 -2.4027 -0.1470  0.2167
  297THF     C8 3856   3.012   5.489   0.581  0.1297 -0.4512 -0.2828
  297THF     C9 3857   2.861   5.499   0.559  0.3062  0.1353  0.6824
  297THF    H10 3858   3.063   5.581   0.576 -0.2535  0.4433  2.9575
  297THF    H11 3859   3.048   5.458   0.679 -1.1473 -0.3227  0.7533
  297THF    H12 3860   2.793   5.455   0.647 -0.6520  0.6165  1.1114
  297THF    H13 3861   2.834   5.600   0.559  1.7137 -0.3019  1.8652
  298THF     O1 3862   5.126   3.388   1.252  0.6022  0.3770 -0.2308
  298THF     C2 3863   5.253   3.460   1.256  0.5764 -0.0107 -0.4013
  298THF     C3 3864   5.024   3.483   1.291  0.8899  0.3971  0.2794
  298THF     H4 3865   5.344   3.415   1.204 -1.7395 -2.0169 -0.4473
  298THF     H5 3866   5.267   3.468   1.363  2.1821 -2.9342 -1.0861
  298THF     H6 3867   4.924   3.459   1.269 -2.4677 -0.4838 -0.0224
  298THF     H7 3868   5.036   3.498   1.399  0.1331  1.0491  1.7748
  298THF     C8 3869   5.075   3.595   1.190  0.4088 -0.0207 -0.9931
  298THF     C9 3870   5.223   3.589   1.180  0.5410  0.3075  0.5060
  298THF    H10 3871   5.055   3.696   1.231  2.4152  2.9281  0.6344
  298THF    H11 3872   5.035   3.578   1.089  2.3855 -2.7448 -0.9183
  298THF    H12 3873   5.256   3.583   1.084  0.2380 -1.1064  1.1912
  298THF    H13 3874   5.267   3.673   1.228 -0.9669 -2.3419  0.5772
  299THF     O1 3875   2.354   0.920   1.979  0.1793  0.1740 -0.4730
  299THF     C2 3876   2.490   0.929   2.024  0.1353 -0.1804 -0.4317
  299THF     C3 3877   2.348   0.887   1.843  1.7665 -0.6094 -0.6433
  299THF     H4 3878   2.511   0.871   2.111 -2.3760  0.3557 -1.3613
  299THF     H5 3879   2.518   1.028   2.037  3.2792 -2.4137  0.4656
  299THF     H6 3880   2.313   0.784   1.846 -4.1589  0.0538 -0.7705
  299THF     H7 3881   2.279   0.949   1.786 -2.6180  0.3009 -0.4274
  299THF     C8 3882   2.485   0.902   1.789  0.0113 -0.1375  0.2669
  299THF     C9 3883   2.572   0.875   1.905  0.2806 -0.4387  0.4632
  299THF    H10 3884   2.490   1.002   1.752  1.9193 -1.2531 -2.4953
  299THF    H11 3885   2.498   0.835   1.702 -1.3621  0.2993  0.0903
  299THF    H12 3886   2.585   0.768   1.924  0.9619 -0.3741 -2.1282
  299THF    H13 3887   2.664   0.921   1.899 -2.1257  1.8185  2.3118
  300THF     O1 3888   2.331   5.110   2.788 -0.0460  0.1947  0.3221
  300THF     C2 3889   2.280   5.030   2.891  0.0965  0.5590  1.0936
  300THF     C3 3890   2.240   5.224   2.771  0.2114 -0.0811  0.2616
  300THF     H4 3891   2.347   4.956   2.933  2.1830 -0.9045 -1.1555
  300THF     H5 3892   2.198   4.982   2.847 -0.1070  2.0505  2.6525
  300THF     H6 3893   2.295   5.308   2.727  0.6397 -1.0469 -3.7937
  300THF     H7 3894   2.165   5.180   2.702  0.4509  0.8207  1.1442
  300THF     C8 3895   2.184   5.254   2.912  0.5467  0.1373  0.1273
  300THF     C9 3896   2.230   5.130   2.997 -0.0738  0.0359  0.3794
  300THF    H10 3897   2.070   5.246   2.912 -2.0158  0.3375  0.4797
  300THF    H11 3898   2.215   5.345   2.954 -1.5709 -2.2449 -0.7620
  300THF    H12 3899   2.322   5.159   3.044  0.6049  0.9310  1.6599
  300THF    H13 3900   2.161   5.092   3.071  0.9437  1.8573  0.5999
  301THF     O1 3901   5.127   2.696   0.026 -0.2874 -0.5302 -0.4322
  301THF     C2 3902   5.176   2.779   0.129 -0.3565  0.5588  0.0965
  301THF     C3 3903   4.999   2.638   0.070  0.4410  0.4906 -0.8669
  301THF     H4 3904   5.257   2.851   0.090  1.7937  0.3695 -2.0996
  301THF     H5 3905   5.219   2.719   0.207 -1.0568 -1.0890  1.5344
  301THF     H6 3906   4.932   2.604  -0.002 -2.3015  0.7011  0.8109
  301THF     H7 3907   5.015   2.555   0.137 -2.7132 -1.1174 -1.0396
  301THF     C8 3908   4.936   2.753   0.152 -0.9780  0.4969 -0.4714
  301THF     C9 3909   5.051   2.851   0.176  0.0833 -0.1357 -0.3170
  301THF    H10 3910   4.884   2.725   0.247 -0.1837 -0.0971  1.4136
  301THF    H11 3911   4.860   2.808   0.106  0.8513  0.4125  1.3139
  301THF    H12 3912   5.051   2.937   0.112 -1.1463  2.1959  1.9925
  301THF    H13 3913   5.062   2.895   0.278  2.5989 -0.3981 -0.6883
  302THF     O1 3914   3.184   1.816   4.626 -0.2989 -0.3658  0.6931
  302THF     C2 3915   3.101   1.710   4.661  0.0230  0.1572  0.6118
  302THF     C3 3916   3.317   1.767   4.591  0.0934 -0.4819  0.2994
  302THF     H4 3917   3.048   1.687   4.569 -1.5506  1.9641 -2.6893
  302THF     H5 3918   3.019   1.723   4.735 -2.5001 -1.8603  0.0799
  302THF     H6 3919   3.369   1.815   4.506  2.0994  1.8814  0.4414
  302THF     H7 3920   3.390   1.801   4.672 -0.3167  2.1333  2.3851
  302THF     C8 3921   3.308   1.615   4.592  0.4112 -0.5394 -0.0624
  302THF     C9 3922   3.192   1.592   4.691  0.8750  0.1165  0.2053
  302THF    H10 3923   3.405   1.583   4.622 -0.6633  1.2815  1.2720
  302THF    H11 3924   3.298   1.582   4.491  0.2594  4.8652 -0.2608
  302THF    H12 3925   3.141   1.506   4.662  0.0629  1.1474 -0.0539
  302THF    H13 3926   3.228   1.601   4.797  1.3207 -0.2971 -0.2444
  303THF     O1 3927   3.433   3.360   2.564  0.3026  0.2120 -0.2392
  303THF     C2 3928   3.564   3.418   2.572  0.3913  0.0918  0.1605
  303THF     C3 3929   3.432   3.239   2.634 -0.2982  0.7009 -0.1943
  303THF     H4 3930   3.573   3.518   2.535  0.4982  2.0493 -1.9469
  303THF     H5 3931   3.639   3.368   2.515  0.3204  1.2523 -0.3011
  303THF     H6 3932   3.334   3.194   2.665 -1.2415 -0.7955  0.5658
  303THF     H7 3933   3.487   3.166   2.571  0.8347 -2.0064 -1.2519
  303THF     C8 3934   3.513   3.265   2.756 -0.0832 -0.1128  0.8194
  303THF     C9 3935   3.591   3.392   2.716 -0.0784  0.3558 -0.0057
  303THF    H10 3936   3.576   3.184   2.768 -1.5006  3.0343 -1.2258
  303THF    H11 3937   3.446   3.271   2.839  2.2567 -1.8802  0.4135
  303THF    H12 3938   3.549   3.472   2.776  0.6856  0.5533 -1.6070
  303THF    H13 3939   3.703   3.383   2.735  3.0598  0.4974  2.0293
  304THF     O1 3940   0.537   0.874   3.352 -0.0545  0.4145  0.0116
  304THF     C2 3941   0.510   0.749   3.293 -0.5123 -0.1412  0.0699
  304THF     C3 3942   0.663   0.918   3.314 -0.5435 -0.2616  0.8840
  304THF     H4 3943   0.405   0.735   3.292 -1.9068  0.5253 -1.5455
  304THF     H5 3944   0.555   0.664   3.346 -2.3183 -0.2711  0.3235
  304THF     H6 3945   0.681   1.023   3.312 -1.7382 -0.5555  0.5914
  304THF     H7 3946   0.735   0.867   3.382 -0.2061 -0.1800  0.8542
  304THF     C8 3947   0.670   0.878   3.165  0.4355  0.5832 -0.2333
  304THF     C9 3948   0.562   0.772   3.152 -0.3279 -0.4535  0.0508
  304THF    H10 3949   0.765   0.840   3.133  0.2992  0.0436  1.1251
  304THF    H11 3950   0.654   0.965   3.103  2.4233  3.5320  0.1464
  304THF    H12 3951   0.485   0.812   3.090  1.9111 -1.0609  0.2700
  304THF    H13 3952   0.587   0.689   3.102 -0.4172  0.7546  0.6187
  305THF     O1 3953   5.108   1.931   2.463  0.2051  0.1404 -0.7308
  305THF     C2 3954   5.203   1.850   2.534 -0.1319 -0.7087 -0.5459
  305THF     C3 3955   5.006   1.835   2.423 -0.5229 -0.8764 -0.1308
  305THF     H4 3956   5.257   1.907   2.607 -0.2064 -1.7765  0.2408
  305THF     H5 3957   5.271   1.792   2.470 -0.2745  1.4355 -1.3935
  305THF     H6 3958   4.912   1.897   2.403  1.7419  2.4162 -0.8745
  305THF     H7 3959   5.041   1.806   2.329  0.9403  0.6649  3.1153
  305THF     C8 3960   4.989   1.734   2.537  0.2762  0.3287  0.7642
  305THF     C9 3961   5.109   1.754   2.614 -0.2727 -0.1664  0.2542
  305THF    H10 3962   4.989   1.634   2.492 -0.8716  0.6178 -1.5916
  305THF    H11 3963   4.906   1.757   2.609 -0.0930  3.8309  1.1745
  305THF    H12 3964   5.082   1.797   2.713 -1.5505  1.0325 -2.5002
  305THF    H13 3965   5.160   1.656   2.642 -0.6963 -0.5515  0.0188
  306THF     O1 3966   1.127   3.555   3.581  0.5740  0.9251  0.0901
  306THF     C2 3967   1.167   3.568   3.715 -0.8887 -0.1088 -0.6561
  306THF     C3 3968   1.017   3.468   3.560 -0.5772  0.8267  0.1064
  306THF     H4 3969   1.126   3.663   3.748  1.8345 -0.5856 -0.5337
  306THF     H5 3970   1.274   3.573   3.728  0.1965  1.6277 -0.1010
  306THF     H6 3971   0.942   3.504   3.494  1.5264 -0.6371 -0.2072
  306THF     H7 3972   1.052   3.367   3.533 -1.6906 -2.6379  0.4585
  306THF     C8 3973   0.958   3.452   3.699 -0.8126 -0.1706 -0.3145
  306THF     C9 3974   1.081   3.459   3.791 -0.5565 -0.0458  0.4862
  306THF    H10 3975   0.890   3.367   3.717 -1.8756  2.9384 -0.2703
  306THF    H11 3976   0.904   3.543   3.717  1.9267  3.3797 -1.7585
  306THF    H12 3977   1.066   3.486   3.893  1.5536  0.4402 -0.1608
  306THF    H13 3978   1.130   3.358   3.792 -1.1328 -0.3651  0.6916
  307THF     O1 3979   5.189   4.737   4.086 -0.0853  0.4942  0.2470
  307THF     C2 3980   5.092   4.680   4.006  0.1378 -0.3720  0.0153
  307THF     C3 3981   5.206   4.649   4.201 -0.1666 -0.1995 -0.1267
  307THF     H4 3982   5.149   4.607   3.942  0.1964 -0.3611  2.9548
  307THF     H5 3983   5.045   4.751   3.935  0.2225  1.0736 -1.3293
  307THF     H6 3984   5.292   4.586   4.177  1.2698 -2.7153  1.3789
  307THF     H7 3985   5.230   4.710   4.290  2.2550 -0.7125 -1.8282
  307THF     C8 3986   5.083   4.565   4.210  0.7892 -0.2371 -0.0191
  307THF     C9 3987   4.992   4.605   4.094  0.5644 -0.1691 -0.4828
  307THF    H10 3988   5.034   4.590   4.308  0.8110 -2.4306  0.9891
  307THF    H11 3989   5.118   4.458   4.203 -1.1765  0.6966 -3.0306
  307THF    H12 3990   4.945   4.519   4.045 -0.0333  2.7380  2.1795
  307THF    H13 3991   4.909   4.663   4.126 -1.3121  1.5351 -1.2468
  308THF     O1 3992   3.498   2.910   1.032  0.7336  0.2620  0.2906
  308THF     C2 3993   3.519   2.768   1.063 -0.0705  0.2584 -0.3243
  308THF     C3 3994   3.443   2.922   0.897  0.4052 -0.2998 -0.2528
  308THF     H4 3995   3.453   2.739   1.142  0.1521 -1.5806 -0.6601
  308THF     H5 3996   3.624   2.755   1.089  3.4033  1.3537  1.0123
  308THF     H6 3997   3.362   2.990   0.908  0.3467  0.0613  0.0045
  308THF     H7 3998   3.523   2.969   0.844 -3.1367  1.6080 -0.1764
  308THF     C8 3999   3.401   2.783   0.849 -0.5474 -0.9906 -0.2513
  308THF     C9 4000   3.501   2.694   0.928  0.1406  0.8412  0.0717
  308THF    H10 4001   3.388   2.772   0.741 -1.2440  1.8322  2.3539
  308THF    H11 4002   3.302   2.764   0.883  0.9445  1.2226  1.3651
  308THF    H12 4003   3.484   2.587   0.948  2.3181 -0.9637 -2.1122
  308THF    H13 4004   3.596   2.693   0.876 -0.0938  1.0797 -0.6002
  309THF     O1 4005   4.409   2.931   2.555  0.1221  0.1340 -0.5483
  309THF     C2 4006   4.413   2.977   2.686 -0.8300  0.3983  0.4601
  309THF     C3 4007   4.316   3.024   2.490 -0.1674 -0.3495  0.2192
  309THF     H4 4008   4.504   2.931   2.739 -0.3250 -3.6161  0.9996
  309THF     H5 4009   4.328   2.948   2.746  1.6698 -3.0215  0.9687
  309THF     H6 4010   4.313   3.011   2.383 -0.7309  0.5104  1.5948
  309THF     H7 4011   4.221   3.017   2.528 -1.4041  1.8295  1.6389
  309THF     C8 4012   4.354   3.160   2.534  0.2169 -0.2088 -0.9780
  309THF     C9 4013   4.415   3.127   2.667  0.4888  0.4925 -0.2769
  309THF    H10 4014   4.269   3.228   2.559  0.9040  0.2601  1.2266
  309THF    H11 4015   4.422   3.210   2.468  0.4150 -0.1677  2.4376
  309THF    H12 4016   4.517   3.157   2.663 -0.9816  0.7863 -2.8948
  309THF    H13 4017   4.360   3.173   2.754 -2.4447  0.6565  2.0735
  310THF     O1 4018   1.428   1.892   0.733  0.2693 -0.3412 -0.3751
  310THF     C2 4019   1.334   1.922   0.829  0.3255 -0.1540 -0.4367
  310THF     C3 4020   1.372   1.924   0.605  0.2084 -0.1568 -0.5885
  310THF     H4 4021   1.329   2.026   0.851 -1.9480 -0.1974 -1.9242
  310THF     H5 4022   1.360   1.867   0.918 -1.2385  0.2658 -0.6020
  310THF     H6 4023   1.346   2.030   0.596  0.1665 -0.1537 -1.1603
  310THF     H7 4024   1.434   1.891   0.521 -3.0280  1.6369  0.6162
  310THF     C8 4025   1.241   1.848   0.619 -0.1786  0.6665 -0.7735
  310THF     C9 4026   1.207   1.877   0.766  0.7694  0.2177  0.0392
  310THF    H10 4027   1.260   1.740   0.612  0.3203  0.7592 -1.2028
  310THF    H11 4028   1.160   1.883   0.553 -1.3061  0.6857 -0.6985
  310THF    H12 4029   1.121   1.952   0.766 -1.5821  1.7771 -0.0178
  310THF    H13 4030   1.173   1.789   0.819  4.1933  0.0867  1.3171
  311THF     O1 4031   3.712   4.642   3.134 -0.4285  0.4663 -0.6537
  311THF     C2 4032   3.756   4.622   3.267  0.2923 -0.1077 -0.4511
  311THF     C3 4033   3.833   4.664   3.056  0.1352  0.1565  0.3048
  311THF     H4 4034   3.791   4.519   3.280 -0.6518  0.9683 -0.5962
  311THF     H5 4035   3.662   4.641   3.324 -0.6026  2.6663  1.3031
  311THF     H6 4036   3.864   4.563   3.030  0.6642  0.2532 -0.8517
  311THF     H7 4037   3.814   4.724   2.969  2.9078  0.0093  1.0056
  311THF     C8 4038   3.931   4.727   3.149 -0.5009  0.0344 -0.4713
  311THF     C9 4039   3.870   4.717   3.289 -0.2278 -0.3836 -0.0383
  311THF    H10 4040   3.949   4.829   3.117 -0.8427  2.0418 -1.8492
  311THF    H11 4041   4.023   4.683   3.138  0.1204  1.7653 -0.3072
  311THF    H12 4042   3.944   4.686   3.370 -0.8720  2.1595  1.4811
  311THF    H13 4043   3.824   4.809   3.324  1.1845 -1.9812  0.9192
  312THF     O1 4044   4.552   4.143   0.788  0.1998 -0.1119 -0.1863
  312THF     C2 4045   4.510   4.051   0.690  0.1982 -0.0486  0.1233
  312THF     C3 4046   4.561   4.281   0.752 -0.2125 -0.1019 -0.0158
  312THF     H4 4047   4.401   4.022   0.691  0.1922 -2.6514 -1.5712
  312THF     H5 4048   4.567   3.967   0.700 -1.7428 -0.3166  3.3443
  312THF     H6 4049   4.468   4.341   0.767 -0.6156  1.9285  1.6384
  312THF     H7 4050   4.643   4.329   0.805  1.2309 -1.1980  0.9337
  312THF     C8 4051   4.599   4.262   0.602 -0.0419 -0.8306  0.3311
  312THF     C9 4052   4.553   4.129   0.561 -0.4095  0.0173 -0.5937
  312THF    H10 4053   4.705   4.276   0.593 -3.3546 -1.5375 -0.5920
  312THF    H11 4054   4.544   4.340   0.546 -1.8076 -0.0710  2.0930
  312THF    H12 4055   4.463   4.134   0.497 -0.6964  3.0718  1.1819
  312THF    H13 4056   4.630   4.076   0.500 -2.0621  2.6034 -1.3814
  313THF     O1 4057   0.646   3.543   2.858  0.5886 -0.2418 -0.1173
  313THF     C2 4058   0.579   3.505   2.985 -0.5140 -0.3267 -0.5444
  313THF     C3 4059   0.651   3.427   2.776  0.6186  0.6050  0.2485
  313THF     H4 4060   0.478   3.521   2.995  0.2437 -0.9312  1.9965
  313THF     H5 4061   0.627   3.566   3.065 -1.0520 -1.3907  0.7954
  313THF     H6 4062   0.549   3.412   2.744 -1.8307 -1.5963  1.0261
  313THF     H7 4063   0.722   3.428   2.696 -1.5922  1.6937 -1.0563
  313THF     C8 4064   0.688   3.323   2.882  0.2913  0.3169 -0.7526
  313THF     C9 4065   0.598   3.356   3.003  0.2078  0.3576  0.5447
  313THF    H10 4066   0.793   3.327   2.912  2.5624 -0.4192 -0.5129
  313THF    H11 4067   0.678   3.218   2.846  0.0332 -1.1743  1.7079
  313THF    H12 4068   0.497   3.310   2.993 -1.2199  0.1180  0.7135
  313THF    H13 4069   0.636   3.314   3.095 -1.8501  2.2596 -3.3809
  314THF     O1 4070   4.099   3.892   3.598  0.1588 -0.7116  0.1890
  314THF     C2 4071   4.046   3.918   3.468 -0.4041  0.4889  0.2617
  314THF     C3 4072   3.992   3.918   3.692  0.0249 -0.5807 -0.3130
  314THF     H4 4073   4.099   3.876   3.382  2.9879 -0.3052 -0.2648
  314THF     H5 4074   4.044   4.027   3.457 -1.1101 -3.8629  1.9503
  314THF     H6 4075   4.004   3.879   3.796  1.8024 -2.7291  0.9510
  314THF     H7 4076   3.967   4.023   3.702  1.1735 -0.3935  0.4964
  314THF     C8 4077   3.878   3.843   3.627  0.2179  0.4497 -0.3040
  314THF     C9 4078   3.908   3.853   3.476  0.7678  0.1545 -0.2388
  314THF    H10 4079   3.782   3.883   3.663  0.0350 -1.1055 -0.6144
  314THF    H11 4080   3.880   3.734   3.651  0.2003  2.3972 -1.4007
  314THF    H12 4081   3.898   3.756   3.432 -1.1315  1.7899  0.4993
  314THF    H13 4082   3.842   3.908   3.414  1.1859  1.2375  0.3108
  315THF     O1 4083   1.482   3.751   2.376  0.2265  0.1568 -1.1358
  315THF     C2 4084   1.487   3.898   2.384 -0.4673 -0.2752 -0.3551
  315THF     C3 4085   1.398   3.708   2.478  0.1187 -0.1557  0.8374
  315THF     H4 4086   1.511   3.957   2.291  0.1796  0.4385 -0.3865
  315THF     H5 4087   1.560   3.941   2.450 -0.2347  2.5049 -0.9525
  315THF     H6 4088   1.357   3.609   2.450  3.2487  1.3223 -1.2963
  315THF     H7 4089   1.451   3.710   2.569 -0.0149  0.1615 -1.1246
  315THF     C8 4090   1.283   3.806   2.487 -0.2737 -0.0459  0.3263
  315THF     C9 4091   1.344   3.933   2.429  0.2672 -0.2878 -0.6274
  315THF    H10 4092   1.249   3.817   2.590  1.9236 -3.5032 -0.7134
  315THF    H11 4093   1.194   3.779   2.429  1.1272  2.5059  0.0083
  315THF    H12 4094   1.283   3.957   2.341 -2.0185 -0.7323  1.0864
  315THF    H13 4095   1.343   4.017   2.500 -0.7086  4.6336 -1.1054
  316THF     O1 4096   3.126   1.418   3.804 -0.5462 -0.0278 -0.1845
  316THF     C2 4097   3.269   1.416   3.797  0.2180 -0.1869  0.1743
  316THF     C3 4098   3.091   1.548   3.841  0.4018  0.0591 -0.6943
  316THF     H4 4099   3.306   1.331   3.744  0.3212  1.2815 -0.5804
  316THF     H5 4100   3.315   1.416   3.893 -0.9982  0.6561 -2.1151
  316THF     H6 4101   2.988   1.576   3.805  0.3722 -0.3295 -1.4620
  316THF     H7 4102   3.105   1.560   3.950  1.0789  0.0669 -0.7259
  316THF     C8 4103   3.192   1.642   3.770 -0.1819  0.2908  0.1826
  316THF     C9 4104   3.305   1.548   3.731 -0.6857 -0.4751  0.0727
  316THF    H10 4105   3.218   1.719   3.835 -0.4371  0.0339  0.8663
  316THF    H11 4106   3.160   1.688   3.675 -0.0483 -1.1655 -0.8472
  316THF    H12 4107   3.305   1.523   3.625  0.6175 -0.9707  1.0976
  316THF    H13 4108   3.407   1.587   3.744 -0.6918 -2.6591  2.1029
  317THF     O1 4109   3.191   2.906   3.062 -0.8085  0.0194 -0.2919
  317THF     C2 4110   3.240   2.806   2.971  0.0561 -0.3054  0.4558
  317THF     C3 4111   3.093   2.973   2.984 -0.3976  0.1066 -0.3029
  317THF     H4 4112   3.288   2.736   3.037 -0.2546 -2.8527 -2.7092
  317THF     H5 4113   3.316   2.842   2.905 -1.6589  0.4348 -2.5104
  317THF     H6 4114   3.031   3.038   3.051 -0.6421 -1.5985  1.0446
  317THF     H7 4115   3.141   3.046   2.922  1.3301 -0.5242  0.5558
  317THF     C8 4116   3.015   2.861   2.914 -0.8650  0.0341  0.3382
  317THF     C9 4117   3.120   2.753   2.897  0.4690 -0.7257  0.2521
  317THF    H10 4118   2.983   2.899   2.820 -1.1773 -0.1764  1.3602
  317THF    H11 4119   2.926   2.828   2.971  1.7198  0.7998 -1.7988
  317THF    H12 4120   3.072   2.664   2.944  0.5960 -0.4682 -3.8809
  317THF    H13 4121   3.144   2.728   2.796  1.4377 -1.6850 -1.7177
  318THF     O1 4122   2.206   4.692   3.851  0.3110  0.6663 -0.7521
  318THF     C2 4123   2.297   4.596   3.904 -0.5081 -0.1499 -0.4687
  318THF     C3 4124   2.102   4.617   3.797 -0.2120 -0.3746 -0.1908
  318THF     H4 4125   2.269   4.580   4.009  0.2149 -0.3889  2.2330
  318THF     H5 4126   2.389   4.647   3.896  0.0901  0.5209  1.2832
  318THF     H6 4127   2.038   4.589   3.876  2.3846 -0.7503  0.9915
  318THF     H7 4128   2.040   4.673   3.727 -1.1238  1.5123  2.5846
  318THF     C8 4129   2.171   4.500   3.728 -0.3733 -0.2563 -1.1479
  318THF     C9 4130   2.292   4.471   3.817 -0.3741  0.7999 -0.4282
  318THF    H10 4131   2.198   4.542   3.637 -0.7494 -1.7686 -0.2175
  318THF    H11 4132   2.107   4.415   3.709 -0.9464 -1.2753 -3.0382
  318THF    H12 4133   2.264   4.399   3.897  0.5624 -1.9999 -1.8649
  318THF    H13 4134   2.392   4.443   3.775 -1.3926  1.6053  1.1218
  319THF     O1 4135   3.191   3.344   1.778  0.1674 -0.1100 -0.2947
  319THF     C2 4136   3.145   3.295   1.651 -0.2875  0.2130  0.1814
  319THF     C3 4137   3.117   3.272   1.874 -0.0476  0.0139  0.3904
  319THF     H4 4138   3.203   3.220   1.604  0.0565 -0.5032  1.5143
  319THF     H5 4139   3.140   3.382   1.587  1.0640 -2.7921 -1.5077
  319THF     H6 4140   3.152   3.169   1.890  0.9961 -0.8072  1.2808
  319THF     H7 4141   3.121   3.323   1.967  3.9375  1.2649  0.7202
  319THF     C8 4142   2.979   3.276   1.806  0.4667 -0.4385  0.5102
  319THF     C9 4143   3.008   3.239   1.662  0.2046  0.3024  0.2758
  319THF    H10 4144   2.935   3.374   1.804  0.8899  1.7865  0.6651
  319THF    H11 4145   2.908   3.214   1.853  2.2847 -0.8077 -2.2194
  319THF    H12 4146   3.005   3.135   1.661  0.4520  1.1676 -0.2572
  319THF    H13 4147   2.940   3.281   1.584 -0.1170 -0.2376  1.4515
  320THF     O1 4148   3.477   4.705   4.775  0.2080 -0.5727  0.1130
  320THF     C2 4149   3.514   4.655   4.906 -0.8351 -0.0622 -0.3969
  320THF     C3 4150   3.334   4.701   4.773  0.6107  0.4109  0.4147
  320THF     H4 4151   3.488   4.719   4.990  1.6102 -1.7800 -0.5488
  320THF     H5 4152   3.616   4.633   4.910 -1.0541 -2.1889  0.7949
  320THF     H6 4153   3.282   4.792   4.819  0.1657  1.2388  2.9832
  320THF     H7 4154   3.303   4.695   4.668 -1.2717 -1.7922  0.6780
  320THF     C8 4155   3.297   4.573   4.847  0.6839 -0.3258  0.2164
  320THF     C9 4156   3.437   4.526   4.897  0.4154 -0.4935  0.4581
  320THF    H10 4157   3.262   4.503   4.772  2.6885 -0.3928 -1.5178
  320THF    H11 4158   3.228   4.598   4.931  0.5404 -2.0319 -0.1173
  320THF    H12 4159   3.436   4.473   4.999 -2.1158 -0.2578 -3.9880
  320THF    H13 4160   3.491   4.458   4.823  1.1443 -2.5654 -0.7804
  321THF     O1 4161   2.586   2.295   2.642 -0.1617  0.4127 -0.2808
  321THF     C2 4162   2.454   2.283   2.579  0.0392  0.4555  0.1574
  321THF     C3 4163   2.578   2.209   2.751  0.5537  0.1640 -0.4699
  321THF     H4 4164   2.450   2.205   2.507 -1.6782  2.4824 -1.5081
  321THF     H5 4165   2.441   2.366   2.514 -1.3650 -1.6398 -0.6276
  321THF     H6 4166   2.587   2.113   2.702  0.7180  1.8517  1.2819
  321THF     H7 4167   2.663   2.218   2.819 -0.8656  0.3529  0.3662
  321THF     C8 4168   2.437   2.227   2.806  0.0920 -0.6829 -0.5634
  321THF     C9 4169   2.350   2.261   2.685 -0.0634  0.2555 -0.1269
  321THF    H10 4170   2.433   2.311   2.866  0.4224  0.5024  0.1781
  321THF    H11 4171   2.413   2.136   2.856 -1.7243 -1.1546  0.8191
  321THF    H12 4172   2.282   2.182   2.663  1.8138  1.7007 -0.6072
  321THF    H13 4173   2.291   2.347   2.712  1.1127 -1.4522  0.3204
  322THF     O1 4174   2.541   4.410   1.624 -0.3569 -0.5884  0.0349
  322THF     C2 4175   2.459   4.308   1.685 -0.1950 -0.1959 -0.2401
  322THF     C3 4176   2.603   4.361   1.507  0.4067  0.4442  0.4290
  322THF     H4 4177   2.360   4.338   1.680  1.6751 -0.5653 -0.9528
  322THF     H5 4178   2.486   4.296   1.792  2.5216  2.6498  0.4781
  322THF     H6 4179   2.609   4.438   1.432 -0.9593  1.0159  0.6089
  322THF     H7 4180   2.703   4.328   1.522 -1.5836  1.0827  0.5105
  322THF     C8 4181   2.515   4.252   1.461  0.1013 -1.1753 -0.1547
  322THF     C9 4182   2.484   4.189   1.597  0.0655 -0.1978 -0.3260
  322THF    H10 4183   2.567   4.196   1.386  0.2993 -3.0190  0.5491
  322THF    H11 4184   2.415   4.287   1.429  1.1639 -2.9673 -1.5616
  322THF    H12 4185   2.404   4.119   1.608 -0.5094 -2.0004  0.4441
  322THF    H13 4186   2.581   4.141   1.624  0.3293  1.2450  0.3129
  323THF     O1 4187   3.600   4.436   2.911  0.0123 -0.2807 -0.7889
  323THF     C2 4188   3.660   4.309   2.942  0.3484 -0.4893 -0.6713
  323THF     C3 4189   3.672   4.486   2.803 -0.3886 -0.1209 -0.4663
  323THF     H4 4190   3.592   4.249   3.007 -0.9956  1.6304 -0.1955
  323THF     H5 4191   3.753   4.330   2.998  3.0897  0.4484  0.3973
  323THF     H6 4192   3.607   4.559   2.758 -2.6492 -0.3559  0.8055
  323THF     H7 4193   3.773   4.518   2.825  5.1486 -1.6767 -2.1585
  323THF     C8 4194   3.681   4.361   2.714 -0.2250  0.7156 -0.4726
  323THF     C9 4195   3.686   4.242   2.806  0.2085 -0.6532 -1.3450
  323THF    H10 4196   3.767   4.351   2.652  1.0523 -0.3366  3.3780
  323THF    H11 4197   3.590   4.339   2.660  0.5195 -3.1832 -0.1224
  323THF    H12 4198   3.610   4.171   2.792  1.1372 -4.5912 -0.8080
  323THF    H13 4199   3.782   4.190   2.799  0.5177  1.1584 -1.0311
  324THF     O1 4200   2.288   4.787   0.529 -0.1115  0.2154 -0.5461
  324THF     C2 4201   2.317   4.788   0.671 -0.0087  0.0024  0.5765
  324THF     C3 4202   2.349   4.673   0.484  0.8171  0.3279  0.1736
  324THF     H4 4203   2.261   4.869   0.715  0.6486 -0.6706 -1.7367
  324THF     H5 4204   2.414   4.816   0.698 -1.0240  0.3555 -0.3423
  324THF     H6 4205   2.287   4.645   0.398 -0.0369 -0.5569 -0.6232
  324THF     H7 4206   2.446   4.719   0.455  0.5647  0.1983  1.1425
  324THF     C8 4207   2.350   4.565   0.597  0.5225  0.2398 -0.1503
  324THF     C9 4208   2.292   4.644   0.709 -0.3679  0.5777 -0.3873
  324THF    H10 4209   2.450   4.543   0.627  1.5537  0.0746  2.4597
  324THF    H11 4210   2.297   4.478   0.565  0.9614  0.5494 -1.0103
  324THF    H12 4211   2.188   4.626   0.721  0.1094  1.4837  1.3427
  324THF    H13 4212   2.350   4.623   0.799 -1.3277 -0.6532 -1.2684
  325THF     O1 4213   1.809   4.634   1.592 -0.3549  0.5708 -0.3771
  325THF     C2 4214   1.785   4.771   1.623 -0.2482 -0.8590  0.4115
  325THF     C3 4215   1.819   4.559   1.711  1.1829 -0.2450 -0.1441
  325THF     H4 4216   1.754   4.820   1.537  1.9766  2.4587  2.1139
  325THF     H5 4217   1.873   4.827   1.669  1.3764 -0.5383  0.9198
  325THF     H6 4218   1.801   4.453   1.696 -1.1652  1.6239  1.3334
  325THF     H7 4219   1.915   4.581   1.758 -0.2932 -0.7043  3.9568
  325THF     C8 4220   1.703   4.619   1.801 -0.1527  0.5106 -0.0393
  325THF     C9 4221   1.670   4.747   1.719 -0.3501 -0.1779  0.1045
  325THF    H10 4222   1.728   4.659   1.901 -1.9343  0.7119  0.3399
  325THF    H11 4223   1.615   4.557   1.817 -0.3785 -3.9540  0.7140
  325THF    H12 4224   1.578   4.727   1.660 -2.5671 -0.7038 -1.6023
  325THF    H13 4225   1.649   4.841   1.775 -0.9869  1.4475  1.2711
  326THF     O1 4226   3.662   4.195   1.465 -0.6668  0.6335 -0.5484
  326THF     C2 4227   3.540   4.191   1.397 -0.8606 -1.2500 -0.0894
  326THF     C3 4228   3.679   4.324   1.517  0.1619 -0.1904  0.5666
  326THF     H4 4229   3.467   4.190   1.475  0.3804 -0.9504  1.1659
  326THF     H5 4230   3.535   4.101   1.329  1.4185  1.2017 -1.3078
  326THF     H6 4231   3.615   4.326   1.609 -1.8797 -0.4813  1.3232
  326THF     H7 4232   3.780   4.345   1.552 -1.8933 -0.4377  0.7753
  326THF     C8 4233   3.635   4.410   1.398  0.1036 -0.5212  0.2874
  326THF     C9 4234   3.537   4.323   1.312  0.8274  0.8371 -0.4972
  326THF    H10 4235   3.726   4.423   1.335 -1.3257  1.7200  0.4147
  326THF    H11 4236   3.604   4.508   1.414 -0.4927 -0.0446 -0.9736
  326THF    H12 4237   3.437   4.351   1.303  1.5026 -2.8598 -0.8631
  326THF    H13 4238   3.584   4.313   1.215  2.9785  1.2611 -0.8948
  327THF     O1 4239   2.085   0.937   3.187 -0.4116 -0.2632  0.4499
  327THF     C2 4240   2.069   1.069   3.231 -0.2517 -0.3210  0.0656
  327THF     C3 4241   1.953   0.884   3.158 -0.7633 -1.4203  1.0245
  327THF     H4 4242   2.129   1.137   3.164 -2.1286 -0.7874 -0.4076
  327THF     H5 4243   2.108   1.078   3.334 -1.2437  1.9261 -0.4947
  327THF     H6 4244   1.956   0.807   3.081  0.3661 -1.6310  2.5716
  327THF     H7 4245   1.912   0.833   3.252 -3.7087 -2.6167  0.4972
  327THF     C8 4246   1.869   1.004   3.133  0.2669 -0.1544 -0.3275
  327THF     C9 4247   1.920   1.098   3.236 -0.5003  0.2464  0.4595
  327THF    H10 4248   1.765   0.973   3.151  0.0550  1.8217 -2.2952
  327THF    H11 4249   1.868   1.042   3.033 -2.7158 -1.0778 -0.5529
  327THF    H12 4250   1.899   1.197   3.202  0.8292 -0.9122 -2.5566
  327THF    H13 4251   1.871   1.080   3.331  0.0732 -2.0335 -0.2389
  328THF     O1 4252   1.850   1.245   4.941  0.3275  0.1184  0.6091
  328THF     C2 4253   1.943   1.199   4.838  0.7076 -0.6629 -0.2101
  328THF     C3 4254   1.788   1.128   4.991 -0.3406 -0.2839 -0.0633
  328THF     H4 4255   2.042   1.205   4.873 -0.3416 -1.6798 -2.9012
  328THF     H5 4256   1.937   1.260   4.749 -0.1145 -1.1505  0.2191
  328THF     H6 4257   1.850   1.094   5.074  1.1666  0.6794 -0.6711
  328THF     H7 4258   1.681   1.147   5.014 -0.8277 -1.0345 -0.6695
  328THF     C8 4259   1.776   1.033   4.870 -0.2472  0.2967  0.9491
  328THF     C9 4260   1.903   1.053   4.798 -0.9974 -0.2792  0.3723
  328THF    H10 4261   1.693   1.052   4.805 -1.2600  0.9743  2.0097
  328THF    H11 4262   1.760   0.931   4.901  0.1953  0.3755  0.0783
  328THF    H12 4263   1.971   0.980   4.834 -0.0070  1.5264 -1.0118
  328THF    H13 4264   1.882   1.037   4.691  0.4431  1.4871  3.0400
  329THF     O1 4265   3.805   0.604   0.494 -0.3682  0.5391 -0.3342
  329THF     C2 4266   3.934   0.645   0.509  0.5261  0.1091  0.0636
  329THF     C3 4267   3.798   0.475   0.549  0.4042 -0.1884 -0.0463
  329THF     H4 4268   3.939   0.749   0.489  0.1413  0.1347  0.6998
  329THF     H5 4269   3.992   0.587   0.442  0.0379 -0.6023  1.0677
  329THF     H6 4270   3.699   0.431   0.538 -2.6915  2.7455 -0.1327
  329THF     H7 4271   3.865   0.398   0.500 -1.3005 -0.8938  2.0024
  329THF     C8 4272   3.849   0.497   0.687  0.7180 -0.4099 -0.1058
  329THF     C9 4273   3.953   0.600   0.659  0.1730  0.5491  0.1025
  329THF    H10 4274   3.883   0.402   0.741  1.8200 -2.7875  2.6990
  329THF    H11 4275   3.767   0.554   0.736 -0.9898 -0.3285  2.8336
  329THF    H12 4276   3.944   0.693   0.717  0.7821 -3.6294  1.6245
  329THF    H13 4277   4.058   0.560   0.678  0.8397  1.9882  0.4791
  330THF     O1 4278   0.513   0.927   0.068 -0.0006 -0.1908  0.4375
  330THF     C2 4279   0.536   1.035  -0.022 -0.3820  0.1090  0.5980
  330THF     C3 4280   0.436   0.990   0.177  0.3708 -0.0190 -0.7957
  330THF     H4 4281   0.457   1.059  -0.097  1.3189 -1.5690 -1.0649
  330THF     H5 4282   0.622   1.022  -0.080 -0.4631 -2.0663  0.1947
  330THF     H6 4283   0.331   1.010   0.154 -0.8699  0.3492  0.7158
  330THF     H7 4284   0.443   0.929   0.264 -0.6227  0.9712 -1.8633
  330THF     C8 4285   0.529   1.104   0.201  0.1362 -0.3023  0.2384
  330THF     C9 4286   0.566   1.151   0.064  0.1561 -0.0661 -0.5446
  330THF    H10 4287   0.611   1.071   0.262 -1.9161 -0.6793 -1.5064
  330THF    H11 4288   0.477   1.187   0.246 -1.7255  1.7075 -0.0040
  330THF    H12 4289   0.491   1.228   0.034 -0.4822 -0.5272  0.3294
  330THF    H13 4290   0.659   1.199   0.050  3.2008  1.3893 -1.3375
  331THF     O1 4291   1.464   3.204   5.208 -0.0902  0.4016 -0.3121
  331THF     C2 4292   1.331   3.239   5.226 -0.7935  0.2214 -0.1924
  331THF     C3 4293   1.473   3.065   5.185  0.7246  0.2703  0.5165
  331THF     H4 4294   1.304   3.328   5.177 -1.2246 -2.0234 -0.7232
  331THF     H5 4295   1.308   3.261   5.323  0.7714 -0.7485 -1.2166
  331THF     H6 4296   1.506   3.064   5.075  2.6546 -0.3419 -0.3843
  331THF     H7 4297   1.558   3.014   5.234  0.0306 -2.4793 -1.3679
  331THF     C8 4298   1.342   3.006   5.214  0.5030  0.0137  0.2036
  331THF     C9 4299   1.248   3.122   5.175 -0.4776  0.2702 -0.1048
  331THF    H10 4300   1.340   2.990   5.322 -1.1666  1.5475 -1.3888
  331THF    H11 4301   1.317   2.921   5.146 -0.3428 -2.4747 -0.1591
  331THF    H12 4302   1.236   3.130   5.069 -2.4969 -1.5945  0.6208
  331THF    H13 4303   1.147   3.114   5.215  0.4891  0.8022 -1.2945
  332THF     O1 4304   4.842   4.275   4.312 -0.0819 -0.3635 -0.5607
  332THF     C2 4305   4.757   4.262   4.426 -0.2322 -0.3070  0.5759
  332THF     C3 4306   4.824   4.169   4.218 -0.2122 -0.2318  0.3966
  332THF     H4 4307   4.719   4.360   4.459  0.8302 -1.4472  1.6226
  332THF     H5 4308   4.819   4.213   4.506 -1.4966 -0.4956 -1.6336
  332THF     H6 4309   4.842   4.191   4.115 -0.5207 -2.6628  1.8092
  332THF     H7 4310   4.885   4.081   4.240 -2.1021  0.3322  0.0618
  332THF     C8 4311   4.677   4.142   4.230 -0.5570  0.5983  0.5778
  332THF     C9 4312   4.640   4.170   4.381 -0.0847 -0.3096 -0.0071
  332THF    H10 4313   4.674   4.037   4.209 -1.5202  1.8004 -4.3751
  332THF    H11 4314   4.628   4.199   4.149  2.1368 -3.8895 -0.6753
  332THF    H12 4315   4.543   4.215   4.387  2.1564 -0.8404  0.9824
  332THF    H13 4316   4.635   4.076   4.437 -2.6014 -2.3670  0.0654
  333THF     O1 4317   1.099   4.815   0.885  0.3041  0.1849 -0.2126
  333THF     C2 4318   1.215   4.738   0.878 -0.3759 -0.5954  0.9262
  333THF     C3 4319   1.095   4.876   1.017 -0.9479  0.4556 -0.1408
  333THF     H4 4320   1.285   4.774   0.809  0.1182 -0.1190  1.3983
  333THF     H5 4321   1.175   4.639   0.836 -3.0307  0.4630 -0.4314
  333THF     H6 4322   1.147   4.970   1.013  0.5113  1.1966  0.0917
  333THF     H7 4323   0.995   4.907   1.031  1.1029  3.5766 -0.6902
  333THF     C8 4324   1.161   4.765   1.104  0.0055  0.0015 -0.1102
  333THF     C9 4325   1.277   4.724   1.018 -0.0067  0.6689 -0.2924
  333THF    H10 4326   1.101   4.672   1.118  0.4117 -1.3775 -0.1491
  333THF    H11 4327   1.198   4.792   1.199  1.1402 -0.2053 -1.5569
  333THF    H12 4328   1.355   4.800   1.036  1.3649 -0.6435  1.7605
  333THF    H13 4329   1.308   4.622   1.047 -1.9007 -0.8696 -0.3813
  334THF     O1 4330   1.284   0.864   3.252 -0.1534  0.5340 -0.0565
  334THF     C2 4331   1.195   0.977   3.245  0.5763 -0.2029  0.3947
  334THF     C3 4332   1.213   0.747   3.305 -0.3861 -0.0118 -0.1416
  334THF     H4 4333   1.183   1.015   3.141 -1.2992  0.7817  1.1109
  334THF     H5 4334   1.231   1.061   3.308 -1.5495 -0.4270 -0.1046
  334THF     H6 4335   1.195   0.676   3.229  1.4020  0.0783  1.9403
  334THF     H7 4336   1.285   0.690   3.369 -0.4399 -2.6765  0.1666
  334THF     C8 4337   1.082   0.802   3.370 -0.5478  0.7115  0.2314
  334THF     C9 4338   1.060   0.919   3.282  0.0156  0.6034 -0.2487
  334THF    H10 4339   1.097   0.841   3.468 -2.1926 -1.1341 -0.9889
  334THF    H11 4340   0.999   0.736   3.367 -0.5215  1.4905 -0.5564
  334THF    H12 4341   1.001   0.894   3.185 -1.6242  2.2468 -0.9407
  334THF    H13 4342   1.009   0.995   3.331  2.3025 -3.5581 -0.4281
  335THF     O1 4343   3.279   3.073   5.068 -0.2718  0.3815  0.3109
  335THF     C2 4344   3.390   2.987   5.030 -0.7497 -0.5946 -0.1480
  335THF     C3 4345   3.166   2.992   5.087 -0.3522  0.4995  0.1169
  335THF     H4 4346   3.428   2.954   5.131  0.3059 -3.6922 -1.5962
  335THF     H5 4347   3.459   3.039   4.967  1.3832  0.5514 -1.5685
  335THF     H6 4348   3.129   2.996   5.187  1.1248 -2.0333  1.5529
  335THF     H7 4349   3.089   3.016   5.016  0.2988 -3.3916 -1.5047
  335THF     C8 4350   3.204   2.853   5.062 -0.9789  0.0816  0.0178
  335THF     C9 4351   3.324   2.863   4.970 -0.7297  0.3583  0.1807
  335THF    H10 4352   3.116   2.804   5.011 -1.0822 -0.5175  0.4283
  335THF    H11 4353   3.235   2.807   5.163  0.0513 -0.0158  2.2461
  335THF    H12 4354   3.392   2.774   4.972  1.4842  0.0400  2.5704
  335THF    H13 4355   3.288   2.900   4.880  1.5379  0.0106  1.3613
  336THF     O1 4356   4.846   3.807   5.382  0.1749 -0.8285 -0.0663
  336THF     C2 4357   4.808   3.767   5.246  0.2175  0.2013  0.1378
  336THF     C3 4358   4.762   3.728   5.470  0.1769 -0.6168 -0.0172
  336THF     H4 4359   4.880   3.687   5.243 -2.6989 -2.3687  1.9179
  336THF     H5 4360   4.830   3.844   5.176  0.1475  0.5758 -0.1638
  336THF     H6 4361   4.803   3.627   5.461  1.0084  0.0956 -2.0247
  336THF     H7 4362   4.754   3.755   5.572  1.9750  1.7105  0.2519
  336THF     C8 4363   4.632   3.718   5.390  0.0118 -0.6334 -0.4873
  336THF     C9 4364   4.663   3.720   5.245  0.0959 -0.2343 -0.5424
  336THF    H10 4365   4.560   3.791   5.408 -1.4029  0.8823 -0.5292
  336THF    H11 4366   4.578   3.626   5.405  0.4344  3.2218 -1.3825
  336THF    H12 4367   4.654   3.623   5.197 -1.8301  0.2383 -1.8476
  336THF    H13 4368   4.590   3.786   5.200 -3.2710  1.8646 -2.8041
  337THF     O1 4369   2.884   2.920   3.470 -0.0913  0.2925  0.0967
  337THF     C2 4370   2.906   2.829   3.363 -0.2356 -0.5649  0.3018
  337THF     C3 4371   2.996   3.004   3.469 -0.6796  0.0135 -0.0798
  337THF     H4 4372   2.889   2.884   3.276 -0.2590  0.4342  1.5329
  337THF     H5 4373   2.837   2.752   3.352 -1.3250  0.4622  0.6791
  337THF     H6 4374   2.976   3.085   3.395 -0.5995 -0.7835  1.3231
  337THF     H7 4375   3.025   3.042   3.567  2.1948  0.8911 -0.0634
  337THF     C8 4376   3.114   2.919   3.424  0.6152 -0.1759 -0.4014
  337THF     C9 4377   3.052   2.792   3.375  0.2953  0.2722  0.2737
  337THF    H10 4378   3.189   2.889   3.506 -1.3230 -0.7954  1.8794
  337THF    H11 4379   3.167   2.967   3.348  1.1763 -0.6773  0.6599
  337THF    H12 4380   3.080   2.755   3.276 -0.4391 -2.0157 -2.6187
  337THF    H13 4381   3.064   2.710   3.442  0.8663  0.2118  0.3968
  338THF     O1 4382   0.528   4.015   3.031  0.1640 -0.2694 -0.1060
  338THF     C2 4383   0.484   4.071   3.157 -0.6220  0.1089  0.2976
  338THF     C3 4384   0.564   3.876   3.052 -0.3782 -0.7721 -0.0382
  338THF     H4 4385   0.414   4.152   3.147 -2.4138 -0.7444 -0.9572
  338THF     H5 4386   0.574   4.111   3.205  1.0624 -3.5529 -0.1006
  338THF     H6 4387   0.573   3.823   2.956 -2.0185  2.6334  2.0535
  338THF     H7 4388   0.662   3.860   3.099 -0.4932 -2.3755 -0.6138
  338THF     C8 4389   0.448   3.831   3.141  0.3427 -0.1994  0.0055
  338THF     C9 4390   0.437   3.954   3.230  0.3142  0.0418  0.2050
  338THF    H10 4391   0.470   3.740   3.202  1.2374  2.9820 -1.9890
  338THF    H11 4392   0.362   3.820   3.080  0.4968  0.4852  1.2479
  338THF    H12 4393   0.344   3.958   3.276  0.3791 -1.6302 -0.4717
  338THF    H13 4394   0.500   3.938   3.317  2.1458  1.6518 -0.0444
  339THF     O1 4395   2.716   1.162   1.490 -0.0902  0.1046 -0.6814
  339THF     C2 4396   2.749   1.115   1.356 -0.0449 -0.4962 -0.1179
  339THF     C3 4397   2.843   1.193   1.552  0.2125 -0.3898 -0.2244
  339THF     H4 4398   2.791   1.187   1.280 -3.2455  0.1409  1.0514
  339THF     H5 4399   2.657   1.063   1.326 -0.0417 -1.7326 -1.7891
  339THF     H6 4400   2.878   1.282   1.501 -0.4808 -0.6276 -3.0085
  339THF     H7 4401   2.830   1.217   1.660 -0.3749 -0.3386 -2.6538
  339THF     C8 4402   2.936   1.081   1.506 -0.3649  0.5952  0.1929
  339THF     C9 4403   2.861   1.016   1.395  0.4149 -0.6364 -0.0055
  339THF    H10 4404   2.958   1.008   1.588 -1.7875  0.6214  0.2695
  339THF    H11 4405   3.035   1.111   1.467  0.7773 -0.3230 -1.8866
  339THF    H12 4406   2.931   0.985   1.316 -0.7650  2.1967  1.3876
  339THF    H13 4407   2.821   0.918   1.433 -0.9480 -0.8719  0.3497
  340THF     O1 4408   1.019   0.783   5.139  0.3756 -0.0392 -0.3658
  340THF     C2 4409   0.928   0.889   5.149 -0.4612 -0.2342 -0.7516
  340THF     C3 4410   0.976   0.681   5.225 -0.3817  0.4520  0.1607
  340THF     H4 4411   0.933   0.958   5.066  2.0527 -2.4835  0.2814
  340THF     H5 4412   0.943   0.956   5.237  1.4442  0.3175  0.5779
  340THF     H6 4413   1.046   0.596   5.219 -0.2068 -0.8268  1.4975
  340THF     H7 4414   0.979   0.716   5.327  1.7318 -1.9675  0.9584
  340THF     C8 4415   0.829   0.660   5.179  0.1120 -0.5185  0.4552
  340THF     C9 4416   0.792   0.815   5.163 -0.2823 -0.4616  0.1430
  340THF    H10 4417   0.763   0.606   5.253  2.9606 -2.0395  1.2131
  340THF    H11 4418   0.823   0.620   5.078  1.2467 -1.2187 -1.2145
  340THF    H12 4419   0.735   0.820   5.069 -1.1164  0.1147 -1.0925
  340THF    H13 4420   0.722   0.843   5.245 -1.1081  1.9387  0.2041
  341THF     O1 4421   5.091   2.878   4.285 -0.2458 -0.1085  0.5468
  341THF     C2 4422   5.099   2.807   4.159 -0.3075 -0.1582 -0.4004
  341THF     C3 4423   4.956   2.887   4.331  0.3254  0.7018 -0.5359
  341THF     H4 4424   5.192   2.748   4.144 -1.9971  1.8964  1.2136
  341THF     H5 4425   5.080   2.862   4.068  0.1966 -0.5792  0.4117
  341THF     H6 4426   4.960   2.850   4.435 -2.7378 -1.4795  1.4941
  341THF     H7 4427   4.918   2.984   4.340  0.8840 -1.6342  2.3967
  341THF     C8 4428   4.875   2.808   4.237 -0.3916 -0.2343 -0.3517
  341THF     C9 4429   4.983   2.712   4.182  0.0867 -0.5938  0.2356
  341THF    H10 4430   4.831   2.868   4.159  0.7054 -1.4034  2.1386
  341THF    H11 4431   4.798   2.755   4.297  0.2428 -0.2312  1.0150
  341THF    H12 4432   5.009   2.636   4.260 -0.1671 -0.4975 -0.7728
  341THF    H13 4433   4.952   2.668   4.092  0.1211  1.7624  1.2156
  342THF     O1 4434   1.400   2.357   4.012 -0.0982  0.1908 -0.1230
  342THF     C2 4435   1.336   2.351   4.139 -0.2905 -0.1845  0.1781
  342THF     C3 4436   1.339   2.457   3.928  0.3560  0.7754 -0.5522
  342THF     H4 4437   1.400   2.297   4.207 -0.9691  0.9934 -1.9022
  342THF     H5 4438   1.263   2.274   4.132 -2.6842  1.0033  2.1902
  342THF     H6 4439   1.396   2.496   3.851  1.4792  2.0500 -0.7703
  342THF     H7 4440   1.262   2.408   3.872  1.8595 -0.0298 -1.1356
  342THF     C8 4441   1.304   2.566   4.032  0.1240 -0.6910 -0.7587
  342THF     C9 4442   1.306   2.493   4.173 -0.1917 -1.2816 -0.7414
  342THF    H10 4443   1.212   2.621   4.026  2.9913  3.1933  1.9259
  342THF    H11 4444   1.375   2.646   4.037  0.2412  1.5137  2.8997
  342THF    H12 4445   1.381   2.529   4.244 -1.0525 -0.8050 -0.3854
  342THF    H13 4446   1.210   2.497   4.213 -1.1435 -1.0952 -1.4780
  343THF     O1 4447   3.363   2.427   1.651 -0.1222  0.9337  0.0638
  343THF     C2 4448   3.227   2.467   1.621  0.0531  0.0339 -0.2772
  343THF     C3 4449   3.354   2.294   1.692 -0.3791 -0.2018 -0.5323
  343THF     H4 4450   3.223   2.558   1.559 -1.0485  0.3491 -2.9325
  343THF     H5 4451   3.178   2.490   1.720 -1.3182 -0.3422  0.0174
  343THF     H6 4452   3.453   2.252   1.677 -0.2861 -0.5033  1.7963
  343THF     H7 4453   3.331   2.292   1.796  1.0822 -2.3602  2.3712
  343THF     C8 4454   3.248   2.222   1.612  0.1960  0.1929 -0.2912
  343THF     C9 4455   3.170   2.339   1.552 -0.4789  1.1696 -0.0158
  343THF    H10 4456   3.180   2.162   1.676  0.4778  0.8924 -0.5540
  343THF    H11 4457   3.295   2.159   1.537  1.2918  3.4429  3.5415
  343THF    H12 4458   3.197   2.341   1.438 -0.1135 -0.0575  0.4688
  343THF    H13 4459   3.064   2.324   1.552  1.5000 -0.7704  0.0767
  344THF     O1 4460   3.349   2.197   4.045  0.4015  0.3461 -0.4538
  344THF     C2 4461   3.431   2.101   4.099 -0.5766 -0.2200 -0.2580
  344THF     C3 4462   3.366   2.322   4.117  0.2829  0.2740  0.0418
  344THF     H4 4463   3.533   2.123   4.071 -2.2352 -2.3688  0.6470
  344THF     H5 4464   3.388   2.003   4.072  0.1764  0.9773  1.1213
  344THF     H6 4465   3.443   2.383   4.076  0.8112 -1.4175  1.5407
  344THF     H7 4466   3.275   2.384   4.107 -1.6021  1.6325 -1.7708
  344THF     C8 4467   3.419   2.288   4.261  0.2874  0.2149 -0.4950
  344THF     C9 4468   3.424   2.135   4.253 -0.9147 -0.4065 -0.3224
  344THF    H10 4469   3.354   2.332   4.342  0.1680  0.0544 -2.6618
  344THF    H11 4470   3.521   2.324   4.271  0.9896  0.8206  0.5442
  344THF    H12 4471   3.499   2.089   4.320 -1.5159 -0.6967 -2.6932
  344THF    H13 4472   3.325   2.093   4.283 -1.9031 -1.5777  2.0870
  345THF     O1 4473   0.409   4.070   4.018  0.4280  0.0790  0.0400
  345THF     C2 4474   0.286   4.096   4.081 -0.1527 -0.3225  0.5086
  345THF     C3 4475   0.513   4.122   4.100 -0.1897  0.7653 -0.3843
  345THF     H4 4476   0.207   4.031   4.044  2.6959 -2.1440 -0.5151
  345THF     H5 4477   0.259   4.199   4.058  0.9599 -0.3380  0.8751
  345THF     H6 4478   0.592   4.051   4.100  1.9117  1.2404 -2.3725
  345THF     H7 4479   0.551   4.211   4.056 -0.6311 -2.2274  0.0625
  345THF     C8 4480   0.445   4.132   4.241 -0.4427  0.1208  0.4878
  345THF     C9 4481   0.313   4.073   4.228  0.8304  0.0456 -0.6667
  345THF    H10 4482   0.433   4.237   4.274  1.4352  2.2872 -0.1345
  345THF    H11 4483   0.498   4.073   4.316 -1.7548 -0.3613  0.2583
  345THF    H12 4484   0.313   3.965   4.242 -0.7558 -0.5811  0.1199
  345THF    H13 4485   0.234   4.129   4.289 -2.0061  0.1132 -1.9639
  346THF     O1 4486   3.771   2.995   0.405 -0.2554 -0.3385 -0.1573
  346THF     C2 4487   3.868   2.903   0.469 -0.4148  0.7800  0.0274
  346THF     C3 4488   3.713   3.068   0.509  0.4448  0.4236  0.2344
  346THF     H4 4489   3.943   2.862   0.403 -0.7051  0.2321 -0.7007
  346THF     H5 4490   3.813   2.818   0.515  0.6160 -0.4359  1.3326
  346THF     H6 4491   3.673   3.163   0.468  0.9449  3.7455 -1.9921
  346THF     H7 4492   3.647   3.006   0.562  1.1917 -1.8057  0.5822
  346THF     C8 4493   3.843   3.106   0.599  0.0112  0.1329 -0.0214
  346THF     C9 4494   3.940   2.994   0.570 -0.4677 -0.4453 -0.0270
  346THF    H10 4495   3.823   3.140   0.706 -1.1393  1.8979  0.9247
  346THF    H11 4496   3.883   3.194   0.558 -2.9942 -1.2676  1.8354
  346THF    H12 4497   4.029   3.032   0.527  0.3411  2.6448  0.8174
  346THF    H13 4498   3.976   2.954   0.672  1.8003 -0.8231 -0.5563
  347THF     O1 4499   4.672   1.668   1.227  0.1159 -0.3554 -0.0144
  347THF     C2 4500   4.591   1.698   1.337 -0.0583  0.5304  0.3609
  347THF     C3 4501   4.690   1.526   1.233 -0.6539 -0.1000 -0.4054
  347THF     H4 4502   4.535   1.783   1.302  0.5353 -0.2052  0.2743
  347THF     H5 4503   4.659   1.742   1.410  0.1562  3.3715 -3.4256
  347THF     H6 4504   4.718   1.480   1.136 -0.6581  1.3738 -0.4984
  347THF     H7 4505   4.785   1.503   1.288  2.2259  1.2551 -0.0020
  347THF     C8 4506   4.567   1.464   1.294  0.2621  0.2919 -0.2844
  347THF     C9 4507   4.517   1.576   1.384 -0.0051 -0.3359  0.3824
  347THF    H10 4508   4.579   1.369   1.348 -0.9278  1.7817 -2.2163
  347THF    H11 4509   4.489   1.457   1.228 -0.3031 -0.3132 -2.3093
  347THF    H12 4510   4.405   1.586   1.368 -0.1838  0.3974  1.5556
  347THF    H13 4511   4.531   1.550   1.491 -0.0938 -0.1938 -0.2579
  348THF     O1 4512   0.326   3.113   1.039  0.5557 -0.3895  0.5574
  348THF     C2 4513   0.227   3.174   1.121  0.3039  1.1111 -0.3041
  348THF     C3 4514   0.449   3.189   1.039  0.4465 -0.6825  0.4109
  348THF     H4 4515   0.180   3.096   1.175  1.3290 -0.9128  1.8300
  348THF     H5 4516   0.151   3.232   1.059  0.0376  1.1665  2.4255
  348THF     H6 4517   0.539   3.128   1.056 -0.6024  0.5066  0.3732
  348THF     H7 4518   0.465   3.231   0.940 -2.6790  0.2677  0.4110
  348THF     C8 4519   0.426   3.302   1.135  0.5427  0.5819  0.7321
  348THF     C9 4520   0.309   3.255   1.220  0.1005  0.2363 -0.3408
  348THF    H10 4521   0.391   3.388   1.079 -0.5655 -0.1210 -2.7426
  348THF    H11 4522   0.513   3.349   1.181  0.9966  1.8035  3.8884
  348THF    H12 4523   0.339   3.183   1.294 -1.8957 -0.0136  0.6256
  348THF    H13 4524   0.247   3.337   1.268  0.3984  1.6599 -3.2804
  349THF     O1 4525   4.675   3.256   4.262  0.0410 -0.5230  0.0489
  349THF     C2 4526   4.537   3.221   4.300 -0.9058 -0.9347 -0.2581
  349THF     C3 4527   4.707   3.164   4.166 -0.5964 -0.6818  0.1687
  349THF     H4 4528   4.469   3.304   4.336 -0.4670 -0.5184 -0.2296
  349THF     H5 4529   4.534   3.158   4.388 -3.5454  3.2726 -1.8290
  349THF     H6 4530   4.801   3.189   4.124 -1.8809 -3.1091 -1.4537
  349THF     H7 4531   4.716   3.066   4.206  0.8648  1.0555 -0.2264
  349THF     C8 4532   4.587   3.156   4.069 -0.0240  0.2768 -0.5744
  349THF     C9 4533   4.469   3.161   4.175 -0.2832 -0.7920 -0.1111
  349THF    H10 4534   4.591   3.084   3.997  0.1819  2.5742 -3.2550
  349THF    H11 4535   4.593   3.246   4.010  0.4889  1.7710  1.1133
  349THF    H12 4536   4.395   3.234   4.130  0.5032  3.3719  0.3815
  349THF    H13 4537   4.426   3.063   4.204 -1.7399 -1.3830 -0.9350
  350THF     O1 4538   0.434   0.110   3.950 -0.4958  0.2467  0.2414
  350THF     C2 4539   0.505   0.226   3.986 -0.7933  0.5429  0.1918
  350THF     C3 4540   0.300   0.143   3.972 -0.0257 -0.2294  0.4522
  350THF     H4 4541   0.498   0.298   3.904  0.7879 -4.5546 -0.5403
  350THF     H5 4542   0.604   0.199   4.020  0.3272 -1.3222  0.8562
  350THF     H6 4543   0.268   0.207   3.887  1.4095  0.4276  1.3488
  350THF     H7 4544   0.234   0.054   3.976 -2.7389 -0.1083  2.9920
  350THF     C8 4545   0.303   0.211   4.110  0.3956 -0.2583 -0.2787
  350THF     C9 4546   0.440   0.276   4.113  0.1778  0.6115  0.2900
  350THF    H10 4547   0.290   0.154   4.195  1.6432  0.0671  0.2686
  350THF    H11 4548   0.230   0.289   4.115  0.5975 -3.3948  0.0005
  350THF    H12 4549   0.430   0.385   4.117 -0.1903  2.5878 -1.9162
  350THF    H13 4550   0.498   0.244   4.195  1.9943 -0.5621 -1.2381
  351THF     O1 4551   4.470   4.891   3.261 -0.1066  0.6954  0.0798
  351THF     C2 4552   4.444   5.024   3.261 -0.4096 -0.0169 -0.0943
  351THF     C3 4553   4.350   4.826   3.296  0.2654 -0.2477  0.5035
  351THF     H4 4554   4.514   5.056   3.183 -0.8613 -0.3183 -0.6129
  351THF     H5 4555   4.488   5.065   3.357 -2.4676  1.8615 -3.2586
  351THF     H6 4556   4.340   4.727   3.272  0.9655  1.5008  1.1041
  351THF     H7 4557   4.336   4.811   3.403 -1.1184  0.4707  0.8377
  351THF     C8 4558   4.228   4.909   3.240 -0.2873  0.3416  0.2432
  351THF     C9 4559   4.299   5.047   3.222 -0.5126 -0.2606  0.1145
  351THF    H10 4560   4.139   4.914   3.300  0.5232 -1.3040  0.6797
  351THF    H11 4561   4.195   4.861   3.143  0.9895 -0.9629 -0.0393
  351THF    H12 4562   4.280   5.098   3.125  2.6766 -1.6767  1.8439
  351THF    H13 4563   4.262   5.128   3.291  1.5934  0.4853 -1.9889
  352THF     O1 4564   1.294   0.581   0.260  0.3539 -0.0987  0.3640
  352THF     C2 4565   1.246   0.449   0.239  0.5245 -0.2032  0.1649
  352THF     C3 4566   1.371   0.613   0.145  0.1114 -0.8738  0.1220
  352THF     H4 4567   1.165   0.427   0.310  3.0938 -2.7259 -0.7713
  352THF     H5 4568   1.329   0.392   0.262 -1.1568 -0.4953  1.1600
  352THF     H6 4569   1.375   0.725   0.151 -3.4751 -0.1656  0.9420
  352THF     H7 4570   1.473   0.574   0.156  0.9350 -2.5859 -1.2752
  352THF     C8 4571   1.308   0.537   0.027 -0.1962  0.3616 -0.0679
  352THF     C9 4572   1.206   0.440   0.094 -0.2375 -0.5610 -0.2465
  352THF    H10 4573   1.380   0.482  -0.021  0.2217  1.1032 -1.8470
  352THF    H11 4574   1.246   0.603  -0.040  0.4866  3.7379 -1.6553
  352THF    H12 4575   1.102   0.477   0.089  2.3092  0.0470  2.0177
  352THF    H13 4576   1.189   0.339   0.054  0.0034  0.8037 -0.8527
  353THF     O1 4577   3.390   1.174   1.303  0.0731 -0.8699  0.3232
  353THF     C2 4578   3.511   1.191   1.366 -0.7955 -0.8272 -0.7673
  353THF     C3 4579   3.284   1.186   1.403 -0.4177 -0.3116  0.6331
  353THF     H4 4580   3.578   1.228   1.295 -0.7773 -3.5051 -1.6080
  353THF     H5 4581   3.557   1.097   1.406 -1.7434 -1.5076 -0.9981
  353THF     H6 4582   3.198   1.225   1.352  0.4462 -1.8440  0.8923
  353THF     H7 4583   3.268   1.094   1.464 -3.4728  0.8355  0.2720
  353THF     C8 4584   3.349   1.300   1.494  0.6409  0.0101 -0.6049
  353THF     C9 4585   3.499   1.303   1.463  0.5595  0.9949 -1.0590
  353THF    H10 4586   3.330   1.271   1.599  1.2042 -2.3557  1.5093
  353THF    H11 4587   3.305   1.399   1.474  0.0357 -1.6607  2.0956
  353THF    H12 4588   3.527   1.395   1.418  0.6341  1.3805  0.3876
  353THF    H13 4589   3.567   1.277   1.542  0.8500  2.3454  1.3623
  354THF     O1 4590   0.132   1.313   3.093 -0.0282 -0.2005 -0.3839
  354THF     C2 4591   0.198   1.309   2.963  0.0767 -0.2617 -0.5451
  354THF     C3 4592   0.131   1.443   3.148 -0.0578 -0.3250 -0.2079
  354THF     H4 4593   0.142   1.250   2.896  2.0736  0.4262  0.7872
  354THF     H5 4594   0.301   1.273   2.967  1.7957 -1.6716 -0.9787
  354THF     H6 4595   0.040   1.469   3.205 -2.0147 -1.4097 -0.2087
  354THF     H7 4596   0.205   1.443   3.225 -0.6479  1.5031 -0.4313
  354THF     C8 4597   0.167   1.540   3.031  0.3431 -0.3246 -0.1680
  354THF     C9 4598   0.193   1.451   2.910  0.1671  0.1352  0.3659
  354THF    H10 4599   0.252   1.602   3.055  0.8452  1.4774 -0.8157
  354THF    H11 4600   0.080   1.603   3.005  1.6137 -0.7982 -3.9758
  354THF    H12 4601   0.113   1.461   2.834 -1.9127 -2.7018 -1.8609
  354THF    H13 4602   0.288   1.472   2.857 -0.2753  0.5585 -0.6040
  355THF     O1 4603   2.807   3.975   0.364  0.1727 -0.2556 -0.2683
  355THF     C2 4604   2.751   3.905   0.252 -0.0592 -0.6365  0.3945
  355THF     C3 4605   2.851   3.895   0.461  0.4661  0.1020  0.2062
  355THF     H4 4606   2.826   3.878   0.182 -1.8968 -0.3135 -1.6673
  355THF     H5 4607   2.680   3.970   0.202 -0.0510  0.2084 -0.2312
  355THF     H6 4608   2.954   3.856   0.450 -2.3663  0.5824 -0.2626
  355THF     H7 4609   2.841   3.953   0.554 -0.5416 -1.5557  1.2374
  355THF     C8 4610   2.763   3.774   0.445 -0.5941  0.7187 -0.4190
  355THF     C9 4611   2.682   3.784   0.322  0.6642  0.1121  0.2037
  355THF    H10 4612   2.692   3.776   0.534 -2.1181 -1.4727  0.7604
  355THF    H11 4613   2.826   3.678   0.436 -1.3807 -0.7833 -1.1929
  355THF    H12 4614   2.676   3.687   0.265  0.0332 -0.3314  0.8108
  355THF    H13 4615   2.574   3.807   0.344  0.9329 -1.7973 -1.5737
  356THF     O1 4616   0.184   3.505   1.941  0.2624 -0.7607  0.4594
  356THF     C2 4617   0.118   3.433   2.039  0.0834  0.9296  0.0241
  356THF     C3 4618   0.253   3.409   1.863  0.5541  0.5458 -0.5565
  356THF     H4 4619   0.029   3.490   2.074  3.4520 -1.2730 -0.8426
  356THF     H5 4620   0.184   3.430   2.126  1.7523  0.3237  0.9351
  356THF     H6 4621   0.269   3.431   1.757 -0.6843  1.7961  0.0372
  356THF     H7 4622   0.346   3.386   1.907 -0.0008  0.8804  0.1668
  356THF     C8 4623   0.162   3.278   1.868  0.5152  0.7214 -0.5905
  356THF     C9 4624   0.079   3.295   1.992 -0.2113 -0.6419 -0.7304
  356THF    H10 4625   0.214   3.188   1.859  0.7470 -2.7506  2.0038
  356THF    H11 4626   0.088   3.293   1.790 -1.2947 -0.1001  0.4813
  356THF    H12 4627  -0.028   3.296   1.976  1.8363 -0.9190  3.3374
  356THF    H13 4628   0.105   3.216   2.066 -2.6123 -1.8438  0.2346
  357THF     O1 4629   4.201   2.701   5.335  0.0867 -0.4621  0.1965
  357THF     C2 4630   4.209   2.564   5.357 -0.0557 -0.0215  0.0043
  357THF     C3 4631   4.102   2.761   5.423 -0.1224 -0.4094  0.1577
  357THF     H4 4632   4.309   2.528   5.382  0.4266 -3.7278  1.9903
  357THF     H5 4633   4.167   2.494   5.281  0.3498 -2.8437 -5.7663
  357THF     H6 4634   4.153   2.804   5.510  1.9418  0.5608  1.2646
  357THF     H7 4635   4.060   2.843   5.371  1.6776  0.9703  5.3621
  357THF     C8 4636   4.003   2.649   5.455  0.2016  0.4580 -0.2042
  357THF     C9 4637   4.105   2.540   5.471 -0.7023  0.1646  0.2042
  357THF    H10 4638   3.928   2.611   5.377  0.6639 -1.2607  0.6031
  357THF    H11 4639   3.942   2.677   5.533 -0.9561 -0.7187 -0.0888
  357THF    H12 4640   4.146   2.549   5.570  2.3209 -1.9160  1.2663
  357THF    H13 4641   4.068   2.437   5.483  0.6155  1.7394  1.1382
  358THF     O1 4642   1.466   3.753   0.766 -0.1093 -0.3589  0.1174
  358THF     C2 4643   1.542   3.778   0.890 -0.0056  0.6598 -0.5013
  358THF     C3 4644   1.432   3.612   0.786  0.2880 -0.7636 -0.3463
  358THF     H4 4645   1.473   3.788   0.975 -0.3066  0.1155 -0.3290
  358THF     H5 4646   1.606   3.868   0.888 -0.8687  0.4454 -2.2003
  358THF     H6 4647   1.363   3.609   0.867  0.1499 -1.4780 -1.5229
  358THF     H7 4648   1.388   3.569   0.701  2.0439 -1.8424 -0.0742
  358THF     C8 4649   1.562   3.543   0.824  0.0606  0.3210  0.4805
  358THF     C9 4650   1.629   3.652   0.900  0.8166  0.4313 -0.1161
  358THF    H10 4651   1.628   3.516   0.741  2.2187 -0.1139 -4.1468
  358THF    H11 4652   1.545   3.457   0.889  0.3321 -0.2136  0.1550
  358THF    H12 4653   1.652   3.624   1.008  1.5595  0.2521 -1.2743
  358THF    H13 4654   1.720   3.667   0.847  0.2049  1.9714  2.8220
  359THF     O1 4655   2.347   0.572   4.402 -0.6586 -0.3000  1.1042
  359THF     C2 4656   2.237   0.484   4.407  0.1577  0.1178 -0.7904
  359THF     C3 4657   2.304   0.686   4.332  0.0013  0.1504  0.3369
  359THF     H4 4658   2.250   0.410   4.493 -0.7359  1.5405  0.4023
  359THF     H5 4659   2.243   0.428   4.307  0.3229 -0.1569 -1.3862
  359THF     H6 4660   2.370   0.769   4.367 -0.6434  1.3713  0.9384
  359THF     H7 4661   2.320   0.673   4.224 -1.2535 -2.0215 -0.3421
  359THF     C8 4662   2.150   0.708   4.379  0.0866  0.3769  0.5864
  359THF     C9 4663   2.115   0.563   4.433 -0.5690 -0.9054 -1.2510
  359THF    H10 4664   2.085   0.737   4.292  0.3090  0.5446 -0.6555
  359THF    H11 4665   2.131   0.783   4.458 -0.4790 -0.7604  0.6505
  359THF    H12 4666   2.107   0.568   4.546  0.9023 -0.9140 -0.6783
  359THF    H13 4667   2.027   0.513   4.391  0.7693 -0.8190 -0.3823
  360THF     O1 4668   4.090   1.665   3.301  0.0972  0.0331 -0.1604
  360THF     C2 4669   4.224   1.701   3.286  0.6420  0.7397  0.1555
  360THF     C3 4670   4.079   1.659   3.447 -0.1305 -0.0362 -0.4491
  360THF     H4 4671   4.238   1.742   3.189 -1.7557  0.2444  2.3768
  360THF     H5 4672   4.281   1.608   3.299  0.9109  0.1338 -0.1153
  360THF     H6 4673   3.973   1.654   3.477  0.9886  1.9971  2.4034
  360THF     H7 4674   4.119   1.568   3.493  1.0202  0.8353 -0.0733
  360THF     C8 4675   4.148   1.781   3.506 -0.6867 -0.3926  0.4936
  360THF     C9 4676   4.252   1.805   3.392  0.5788  0.3199  0.1353
  360THF    H10 4677   4.195   1.772   3.606 -0.8915 -1.9703 -0.5292
  360THF    H11 4678   4.087   1.866   3.497 -0.1342  1.7028  0.7427
  360THF    H12 4679   4.252   1.902   3.353 -0.7242  1.5536  0.7760
  360THF    H13 4680   4.352   1.810   3.434  2.2497 -2.0079 -2.1435
  361THF     O1 4681   2.470   5.301   2.205 -0.3938 -0.1109  0.7173
  361THF     C2 4682   2.490   5.161   2.211 -0.0913  0.1262 -0.0138
  361THF     C3 4683   2.336   5.330   2.185 -0.2956 -0.6748  0.4530
  361THF     H4 4684   2.537   5.126   2.306 -0.7424  0.2374  0.2331
  361THF     H5 4685   2.563   5.143   2.136 -1.4508  1.0403  1.4780
  361THF     H6 4686   2.286   5.360   2.276  0.4953  0.6451 -0.8591
  361THF     H7 4687   2.338   5.417   2.121 -0.7817  3.1087  1.9032
  361THF     C8 4688   2.273   5.210   2.114 -0.0317  0.7948  0.3298
  361THF     C9 4689   2.352   5.095   2.173  0.3703  0.4325 -0.1140
  361THF    H10 4690   2.301   5.216   2.008  0.7399 -4.4762  2.1188
  361THF    H11 4691   2.164   5.197   2.125 -0.8478 -0.7462  0.2574
  361THF    H12 4692   2.286   5.051   2.253  2.9471 -0.1272  0.5977
  361THF    H13 4693   2.367   5.023   2.087  2.7644  1.4856 -4.6564
  362THF     O1 4694   2.896   1.722   1.627  0.0057  0.1481 -0.1278
  362THF     C2 4695   2.887   1.673   1.761 -0.2776 -0.2717  0.4751
  362THF     C3 4696   3.023   1.678   1.582  0.0061  0.2785  0.6910
  362THF     H4 4697   2.788   1.685   1.793 -1.2204  0.4198  0.6707
  362THF     H5 4698   2.946   1.730   1.833  0.9263 -2.0178  0.1480
  362THF     H6 4699   3.022   1.669   1.469  0.8308 -1.5380  1.0858
  362THF     H7 4700   3.099   1.754   1.613  0.0861  2.1466  1.6285
  362THF     C8 4701   3.046   1.539   1.645  0.2969 -0.7074  0.7247
  362THF     C9 4702   2.934   1.534   1.746  0.2770 -0.1071 -0.1442
  362THF    H10 4703   3.149   1.540   1.678  0.4175 -0.0105  0.5665
  362THF    H11 4704   3.039   1.468   1.566  0.8080  2.1259  2.1827
  362THF    H12 4705   2.853   1.479   1.703  2.5726  1.1851  0.2513
  362THF    H13 4706   2.962   1.493   1.843 -0.6647 -0.2158  0.4289
  363THF     O1 4707   5.076   4.959   4.829  0.2176  0.5801 -0.5174
  363THF     C2 4708   5.131   5.035   4.725  0.9849 -0.2598 -0.5052
  363THF     C3 4709   5.145   4.836   4.832  0.2419 -0.2562  0.2758
  363THF     H4 4710   5.106   5.140   4.731  2.7508  1.7483 -1.2704
  363THF     H5 4711   5.089   5.004   4.632  1.7134 -0.2218 -1.0155
  363THF     H6 4712   5.137   4.780   4.925 -0.0159 -2.2285 -2.7152
  363THF     H7 4713   5.115   4.767   4.756 -1.5349 -1.9636 -3.1863
  363THF     C8 4714   5.289   4.873   4.810 -0.1690  0.1031  0.1842
  363THF     C9 4715   5.280   5.010   4.731 -0.6403 -1.4710  0.3494
  363THF    H10 4716   5.336   4.798   4.739  1.6740  1.0406 -4.5302
  363THF    H11 4717   5.344   4.857   4.901 -1.4192 -2.0862  0.1763
  363THF    H12 4718   5.314   5.094   4.789 -0.3921  2.1471  1.6139
  363THF    H13 4719   5.329   4.999   4.634  0.1315 -0.6899 -2.1333
  364THF     O1 4720   0.550   2.475   4.408 -0.7786  0.0477 -0.3797
  364THF     C2 4721   0.469   2.593   4.410 -0.1569 -0.7732 -0.7475
  364THF     C3 4722   0.577   2.442   4.542 -0.5810 -0.3547 -0.2304
  364THF     H4 4723   0.367   2.575   4.444  1.4986  0.1296 -2.5204
  364THF     H5 4724   0.451   2.651   4.322 -1.1613 -3.2657  0.8426
  364THF     H6 4725   0.496   2.382   4.574 -1.4389 -0.7348  1.5434
  364THF     H7 4726   0.668   2.387   4.543  2.8015  0.3624 -0.8216
  364THF     C8 4727   0.599   2.575   4.613  0.1148 -0.2161  0.2730
  364THF     C9 4728   0.542   2.680   4.507 -0.1788  0.4399 -0.2775
  364THF    H10 4729   0.705   2.593   4.645 -1.9385  0.4914  0.5028
  364THF    H11 4730   0.523   2.595   4.685  0.6131  1.7361  0.8403
  364THF    H12 4731   0.467   2.744   4.549  0.7668  1.8059  4.0703
  364THF    H13 4732   0.630   2.728   4.461  1.5451  2.6517  0.3441
  365THF     O1 4733   3.476   2.171   3.153 -0.2345 -0.1338  0.2980
  365THF     C2 4734   3.436   2.099   3.040 -0.4491  0.5111 -0.1788
  365THF     C3 4735   3.576   2.262   3.120  0.2909 -1.0859 -0.2322
  365THF     H4 4736   3.337   2.064   3.056 -1.1897 -0.9139 -0.0571
  365THF     H5 4737   3.499   2.015   3.010 -1.4289  0.6743 -0.8643
  365THF     H6 4738   3.557   2.353   3.169  0.8578 -0.3577  3.3011
  365THF     H7 4739   3.677   2.215   3.130  0.5512  0.9610 -1.0426
  365THF     C8 4740   3.560   2.284   2.968 -0.0539 -0.1224 -0.8786
  365THF     C9 4741   3.444   2.196   2.924 -0.2818  0.9873 -0.6024
  365THF    H10 4742   3.658   2.268   2.912 -0.4361  0.5975  0.1608
  365THF    H11 4743   3.545   2.396   2.947 -0.9552 -0.4029  0.8622
  365THF    H12 4744   3.355   2.255   2.915  0.6987 -1.5317  0.1084
  365THF    H13 4745   3.470   2.147   2.831  2.3212  1.3552 -1.2712
  366THF     O1 4746   2.193   2.256   0.502  0.1773  0.0269  0.4237
  366THF     C2 4747   2.177   2.132   0.432 -0.2828  0.1475 -0.3108
  366THF     C3 4748   2.327   2.304   0.487  0.3012  0.5606 -0.3009
  366THF     H4 4749   2.093   2.120   0.360  0.7801  0.9340  1.7053
  366THF     H5 4750   2.180   2.051   0.508  3.7112 -2.0575  0.6928
  366THF     H6 4751   2.328   2.378   0.407  1.2100 -0.9558 -0.4687
  366THF     H7 4752   2.376   2.350   0.571  0.3981 -3.0993  1.6321
  366THF     C8 4753   2.402   2.192   0.437  0.6353  0.0832  0.1015
  366THF     C9 4754   2.304   2.117   0.351 -0.2005 -0.5445  0.1863
  366THF    H10 4755   2.436   2.116   0.504  0.7410  0.3131  2.6887
  366THF    H11 4756   2.487   2.224   0.377 -0.1783  3.1680  1.0771
  366THF    H12 4757   2.298   2.128   0.241  0.8974  0.9102 -3.2989
  366THF    H13 4758   2.338   2.015   0.359 -0.5968  2.6718 -0.2577
  367THF     O1 4759   4.202   2.495   1.985 -0.7479  0.4966  0.5619
  367THF     C2 4760   4.145   2.372   1.943 -0.1271 -0.8637  0.9715
  367THF     C3 4761   4.325   2.508   1.917 -0.1852 -0.4715  0.1930
  367THF     H4 4762   4.038   2.381   1.961  0.4297 -2.1767  1.9408
  367THF     H5 4763   4.184   2.287   1.998 -1.0139  0.6400  0.3340
  367THF     H6 4764   4.340   2.618   1.922  0.7984  0.1016 -1.5847
  367THF     H7 4765   4.405   2.469   1.980  2.6882  1.5502  0.2632
  367THF     C8 4766   4.310   2.458   1.778 -0.2047 -0.2545 -0.4228
  367THF     C9 4767   4.203   2.352   1.800 -0.0351 -0.7568  0.5417
  367THF    H10 4768   4.403   2.422   1.733 -0.8427 -1.9179 -0.0449
  367THF    H11 4769   4.272   2.545   1.720 -0.3895 -0.5969  0.2718
  367THF    H12 4770   4.121   2.349   1.733  0.1698 -0.4155  0.8788
  367THF    H13 4771   4.242   2.251   1.787 -1.5240 -1.0662 -1.5133
  368THF     O1 4772   4.112   0.727   2.926 -0.4139 -0.1843 -0.8079
  368THF     C2 4773   4.179   0.816   2.836  0.1472  0.2113  0.1834
  368THF     C3 4774   3.972   0.731   2.889  0.0596  0.1303 -0.4051
  368THF     H4 4775   4.288   0.793   2.833  0.8940  0.3405 -1.5822
  368THF     H5 4776   4.161   0.918   2.870  1.1204  0.3020  0.1916
  368THF     H6 4777   3.920   0.637   2.913 -1.0341  1.7317  0.3390
  368THF     H7 4778   3.925   0.818   2.932 -1.5842  2.0424  0.2388
  368THF     C8 4779   3.970   0.746   2.739  0.2681  0.1594 -0.4238
  368THF     C9 4780   4.113   0.787   2.707  0.4783 -0.1341  0.2429
  368THF    H10 4781   3.896   0.819   2.705  0.4690 -0.2879 -1.2819
  368THF    H11 4782   3.946   0.653   2.687  1.1096  0.6756 -0.4361
  368THF    H12 4783   4.169   0.712   2.653 -0.5663  0.4910 -0.4220
  368THF    H13 4784   4.111   0.881   2.652  3.5305  0.5655 -1.7857
  369THF     O1 4785   4.886   1.437   2.558 -0.4038  0.8424 -0.3062
  369THF     C2 4786   4.910   1.347   2.668 -0.6446 -0.1947  0.0668
  369THF     C3 4787   4.908   1.361   2.437  0.2538 -0.0672  0.2267
  369THF     H4 4788   4.821   1.309   2.715 -1.2413 -1.6496  1.3923
  369THF     H5 4789   4.965   1.394   2.746 -0.1882 -0.9071 -0.9631
  369THF     H6 4790   4.827   1.379   2.365  0.0563 -0.2302 -0.2825
  369THF     H7 4791   4.996   1.399   2.381 -0.9207 -1.6541 -1.2497
  369THF     C8 4792   4.926   1.222   2.468 -0.3176  0.7146 -0.1493
  369THF     C9 4793   4.981   1.228   2.606 -0.2305 -0.2816  0.3689
  369THF    H10 4794   4.988   1.174   2.397  0.5871 -1.0172  2.7652
  369THF    H11 4795   4.831   1.175   2.459 -0.2243 -0.6109 -0.9596
  369THF    H12 4796   4.968   1.138   2.665  0.2772  1.4837  1.3254
  369THF    H13 4797   5.088   1.246   2.601  0.0875  1.6701 -1.6873
  370THF     O1 4798   4.221   4.307   3.123 -0.8635  0.1222 -0.0307
  370THF     C2 4799   4.140   4.423   3.127  0.6737 -0.0064 -0.1112
  370THF     C3 4800   4.202   4.238   3.243  0.5950  0.7736  0.2557
  370THF     H4 4801   4.113   4.441   3.019 -2.4547 -0.2789 -2.6026
  370THF     H5 4802   4.196   4.509   3.164 -4.3435 -0.9027  1.0092
  370THF     H6 4803   4.240   4.138   3.228 -1.5983 -2.3786 -1.0212
  370THF     H7 4804   4.258   4.270   3.332 -1.3521 -1.1846 -0.5258
  370THF     C8 4805   4.052   4.247   3.258  1.3200  0.7517 -0.2186
  370THF     C9 4806   4.013   4.380   3.205  0.8082  0.0435 -0.1292
  370THF    H10 4807   4.030   4.228   3.360 -0.2554  1.7050 -1.7942
  370THF    H11 4808   4.002   4.162   3.212  2.8988  2.8606  1.1197
  370THF    H12 4809   3.924   4.367   3.149 -0.8013  0.1231  1.0806
  370THF    H13 4810   3.998   4.452   3.283  1.7851 -2.9612 -0.7695
  371THF     O1 4811   5.324   2.129   2.264 -0.2184  0.0823 -0.0586
  371THF     C2 4812   5.316   2.024   2.169  0.6993 -0.0944  0.3473
  371THF     C3 4813   5.361   2.246   2.186  0.3239  0.2504  0.1526
  371THF     H4 4814   5.216   2.034   2.120 -0.2660  3.5860 -2.5025
  371THF     H5 4815   5.317   1.923   2.213 -3.4940 -1.3363  0.1335
  371THF     H6 4816   5.298   2.270   2.101  0.2754 -1.7811 -0.7334
  371THF     H7 4817   5.387   2.340   2.230  0.8347 -1.6379 -1.6438
  371THF     C8 4818   5.487   2.184   2.117  0.8522  1.0149 -1.0281
  371THF     C9 4819   5.435   2.048   2.069 -0.0285 -0.4621 -0.6816
  371THF    H10 4820   5.565   2.182   2.195 -0.7741 -1.2672  0.5699
  371THF    H11 4821   5.534   2.241   2.044  0.9117 -0.7074  1.1396
  371THF    H12 4822   5.409   2.044   1.966  1.7656  0.3294  2.5905
  371THF    H13 4823   5.508   1.974   2.097 -0.5281  4.5157 -0.3669
  372THF     O1 4824   2.968   0.257   2.422 -0.0400 -0.2971  0.7470
  372THF     C2 4825   2.922   0.343   2.526  0.1973  0.6324 -0.9002
  372THF     C3 4826   3.093   0.201   2.457  0.0361  0.0462 -0.7884
  372THF     H4 4827   2.822   0.322   2.534  4.7136 -1.3155 -0.4230
  372THF     H5 4828   2.939   0.446   2.493 -2.7823 -3.5245 -1.6640
  372THF     H6 4829   3.077   0.093   2.468  2.7944  0.2906 -0.1262
  372THF     H7 4830   3.167   0.208   2.381  0.8269 -1.7476  1.6334
  372THF     C8 4831   3.135   0.257   2.593 -0.0853  0.6003  0.7310
  372THF     C9 4832   2.994   0.293   2.645 -0.2519  0.3178 -0.0005
  372THF    H10 4833   3.193   0.350   2.583 -0.2171  1.1356 -0.0271
  372THF    H11 4834   3.194   0.188   2.648  0.9619  1.6258 -1.3308
  372THF    H12 4835   2.950   0.204   2.691 -0.9045 -2.4054  1.6982
  372THF    H13 4836   3.010   0.378   2.708 -0.1842 -0.1019 -0.6849
  373THF     O1 4837   2.256   2.096   4.772 -0.6894 -0.2332 -0.3799
  373THF     C2 4838   2.291   2.189   4.877 -0.2477  0.8083 -0.3178
  373THF     C3 4839   2.309   1.963   4.812  0.2016 -0.3864  0.1716
  373THF     H4 4840   2.215   2.266   4.874 -0.2589  1.5232  2.3314
  373THF     H5 4841   2.396   2.239   4.860 -1.5899  2.5676 -1.1901
  373THF     H6 4842   2.269   1.890   4.743  0.9910  1.5243 -0.2707
  373THF     H7 4843   2.421   1.967   4.810  1.3527  1.7373 -0.6549
  373THF     C8 4844   2.260   1.963   4.951  0.7127 -0.7783  1.0183
  373THF     C9 4845   2.295   2.103   5.003 -0.1867  0.9033  0.0752
  373THF    H10 4846   2.308   1.878   4.991  0.0741  2.7895  0.4653
  373THF    H11 4847   2.152   1.949   4.955  4.3255 -2.2511  0.0022
  373THF    H12 4848   2.223   2.141   5.070  0.0036 -1.3016  0.1575
  373THF    H13 4849   2.387   2.104   5.059  0.0416  0.4083  0.1718
  374THF     O1 4850   0.000   1.092   2.073 -0.1373 -0.3908 -0.1408
  374THF     C2 4851  -0.082   1.192   2.008 -0.4878  0.6566 -0.3276
  374THF     C3 4852   0.028   1.001   1.969  0.5719  0.2430 -0.1131
  374THF     H4 4853  -0.026   1.286   2.016  1.0317 -0.7428  1.8110
  374THF     H5 4854  -0.174   1.213   2.064  1.6545  4.5953  0.1671
  374THF     H6 4855   0.111   1.034   1.908 -2.0184 -1.6447  0.8398
  374THF     H7 4856   0.054   0.909   2.017 -0.4163 -0.0989 -2.4223
  374THF     C8 4857  -0.095   0.994   1.880  0.2305 -0.5132  0.1925
  374THF     C9 4858  -0.118   1.143   1.870 -0.2742  0.0887  0.0638
  374THF    H10 4859  -0.183   0.972   1.942  1.2152  1.2514 -1.0765
  374THF    H11 4860  -0.090   0.934   1.793 -2.5242  0.8765  1.2534
  374THF    H12 4861  -0.044   1.187   1.801  1.2126 -0.0122 -1.3310
  374THF    H13 4862  -0.221   1.170   1.830 -0.8816 -0.0910 -1.0204
  375THF     O1 4863   2.841   0.227   5.018  0.0813 -0.5030 -0.0928
  375THF     C2 4864   2.896   0.297   5.133  0.4042 -0.2918 -0.1037
  375THF     C3 4865   2.703   0.238   5.034  0.3450 -0.9093  0.2841
  375THF     H4 4866   2.895   0.401   5.106  1.1189  3.3401  0.9675
  375THF     H5 4867   3.004   0.273   5.144 -0.8837 -1.3783 -1.9935
  375THF     H6 4868   2.666   0.336   4.998 -0.2011 -1.3460  0.7958
  375THF     H7 4869   2.666   0.167   4.963  0.2209 -1.1650  3.1623
  375THF     C8 4870   2.676   0.205   5.182 -0.2446  0.0664  0.2331
  375THF     C9 4871   2.799   0.270   5.250  0.2454  0.6379 -0.2968
  375THF    H10 4872   2.688   0.098   5.205 -2.6515 -0.2793  0.3222
  375THF    H11 4873   2.582   0.239   5.221  2.3452  0.6391  2.8091
  375THF    H12 4874   2.761   0.363   5.290 -2.5491  1.3302  0.3080
  375THF    H13 4875   2.835   0.198   5.330 -0.6620 -1.6580 -1.6990
  376THF     O1 4876   0.622   1.684   1.018 -0.1651  0.3150  0.4762
  376THF     C2 4877   0.591   1.791   0.927  0.6504  0.3098  0.4447
  376THF     C3 4878   0.760   1.643   0.989  0.0757  0.2219 -0.4433
  376THF     H4 4879   0.523   1.856   0.966  1.6734 -0.9063 -0.3243
  376THF     H5 4880   0.539   1.736   0.848 -1.5681 -2.1719 -0.8738
  376THF     H6 4881   0.812   1.597   1.063 -2.0535  2.7637 -1.6446
  376THF     H7 4882   0.744   1.565   0.908 -0.5335  0.6298  0.1534
  376THF     C8 4883   0.831   1.764   0.931  0.2716  0.4555  0.3047
  376THF     C9 4884   0.723   1.852   0.874 -0.1998 -1.6052  0.1769
  376THF    H10 4885   0.911   1.740   0.860  2.9322  2.6340 -0.8534
  376THF    H11 4886   0.873   1.823   1.010  0.5779 -0.4627 -2.0220
  376THF    H12 4887   0.729   1.951   0.918 -1.8901  2.3999 -1.6622
  376THF    H13 4888   0.730   1.853   0.765 -0.0770  0.1048 -0.8888
  377THF     O1 4889   2.846   4.124   5.324  0.2186  0.3554 -0.3847
  377THF     C2 4890   2.798   4.055   5.210  0.1565  0.3467  0.0986
  377THF     C3 4891   2.883   4.020   5.420  0.1213 -0.4734  0.4999
  377THF     H4 4892   2.878   4.011   5.153  0.3961 -0.1597  2.3658
  377THF     H5 4893   2.743   4.121   5.146  2.0178  0.9799  1.1911
  377THF     H6 4894   2.966   3.970   5.383  0.7497 -0.0092  0.0240
  377THF     H7 4895   2.906   4.058   5.521 -2.1176  1.6362  0.6129
  377THF     C8 4896   2.762   3.925   5.404 -0.0611 -0.9344  0.1184
  377THF     C9 4897   2.700   3.958   5.267 -0.8047  0.1048  0.5942
  377THF    H10 4898   2.698   3.939   5.480  3.1091 -0.4164  0.1752
  377THF    H11 4899   2.800   3.823   5.397 -0.6817 -0.0409 -2.7627
  377THF    H12 4900   2.687   3.872   5.207  1.3652  0.2729 -1.5289
  377THF    H13 4901   2.607   4.012   5.279 -1.9752  0.6943 -0.3381
  378THF     O1 4902   2.611   1.334   5.195 -0.5197  0.1561 -0.0975
  378THF     C2 4903   2.582   1.435   5.296 -0.9281  0.5665  0.1223
  378THF     C3 4904   2.570   1.393   5.074 -0.1814 -0.4271  0.5643
  378THF     H4 4905   2.663   1.425   5.365  2.6985 -0.3044 -3.7517
  378THF     H5 4906   2.485   1.418   5.345 -0.8095 -2.1228  0.1994
  378THF     H6 4907   2.630   1.355   4.985  0.5881  1.2180 -0.3685
  378THF     H7 4908   2.466   1.366   5.052 -0.2884  1.6754 -1.1878
  378THF     C8 4909   2.570   1.541   5.086 -0.8400  0.1210  0.0086
  378THF     C9 4910   2.607   1.564   5.229  0.2611 -0.8056 -0.1928
  378THF    H10 4911   2.476   1.579   5.062  4.6068  0.1264  3.2229
  378THF    H11 4912   2.641   1.586   5.022  0.5731 -1.4664  1.8602
  378THF    H12 4913   2.714   1.601   5.240 -0.4879  0.6696 -4.2160
  378THF    H13 4914   2.537   1.641   5.274 -0.7665  0.6895  1.1872
  379THF     O1 4915   0.781   3.467   1.489 -0.5465 -0.4736 -0.7778
  379THF     C2 4916   0.735   3.509   1.363  0.7883 -0.0205 -0.1053
  379THF     C3 4917   0.752   3.568   1.581  0.0065 -0.6269 -0.0073
  379THF     H4 4918   0.759   3.436   1.284  0.1396 -1.2037  0.0004
  379THF     H5 4919   0.788   3.603   1.338 -1.6162  0.8581 -2.8869
  379THF     H6 4920   0.765   3.540   1.680  0.7251  0.7198 -5.4709
  379THF     H7 4921   0.819   3.660   1.572  1.6555  3.2834 -1.3234
  379THF     C8 4922   0.606   3.581   1.540  0.2490 -0.0860  0.3117
  379THF     C9 4923   0.591   3.542   1.390 -0.8522  0.0382 -0.4104
  379THF    H10 4924   0.564   3.675   1.552  0.4104 -0.6833  0.7027
  379THF    H11 4925   0.547   3.505   1.595 -1.6368 -1.2494  0.9024
  379THF    H12 4926   0.530   3.456   1.382  3.1254  1.0624  1.5099
  379THF    H13 4927   0.553   3.621   1.328  1.9721 -1.7591  1.0143
  380THF     O1 4928   2.264   0.038   1.147  0.1451 -0.3916 -0.3036
  380THF     C2 4929   2.211   0.155   1.215 -0.3779 -0.4536 -0.4624
  380THF     C3 4930   2.208  -0.077   1.214  0.2156 -1.0887  0.8925
  380THF     H4 4931   2.116   0.187   1.180 -0.4329 -0.6023 -2.7030
  380THF     H5 4932   2.285   0.239   1.202  0.4753 -0.8158  1.4314
  380THF     H6 4933   2.137  -0.127   1.146  0.1948  0.4941  0.5993
  380THF     H7 4934   2.296  -0.133   1.239 -0.3089  0.9129 -2.0393
  380THF     C8 4935   2.145  -0.024   1.347  0.3698 -0.6711 -0.3801
  380THF     C9 4936   2.200   0.117   1.363 -0.2038  0.2666  0.3109
  380THF    H10 4937   2.186  -0.079   1.434 -1.0659  4.3053 -0.2989
  380THF    H11 4938   2.034  -0.037   1.358  0.4151  0.5375 -2.4194
  380THF    H12 4939   2.135   0.194   1.408  0.4535 -0.0678  1.3287
  380THF    H13 4940   2.303   0.111   1.404 -0.3927  0.9200 -3.8954
  381THF     O1 4941   2.421   1.525   3.909  0.2046 -0.1147  0.1155
  381THF     C2 4942   2.360   1.547   4.038  0.2273  0.0017  0.1864
  381THF     C3 4943   2.396   1.645   3.830 -0.8988  0.5935  0.9610
  381THF     H4 4944   2.415   1.503   4.126  0.7739  1.3176 -0.4158
  381THF     H5 4945   2.259   1.510   4.031 -2.0967  2.2086  0.0761
  381THF     H6 4946   2.465   1.653   3.739  1.1852 -1.0264 -0.1448
  381THF     H7 4947   2.294   1.631   3.791 -1.3732 -1.9029 -0.0736
  381THF     C8 4948   2.410   1.756   3.934  0.4157 -0.6082  0.1736
  381THF     C9 4949   2.355   1.703   4.061 -0.1342 -1.1653  0.5367
  381THF    H10 4950   2.359   1.852   3.901 -2.8033 -0.1934  1.4467
  381THF    H11 4951   2.517   1.772   3.948 -1.6135  1.7159  0.4516
  381THF    H12 4952   2.420   1.725   4.143  0.4379  1.7283  1.2013
  381THF    H13 4953   2.255   1.743   4.081  1.9633 -0.3381  2.9567
  382THF     O1 4954   3.426   4.733   3.572 -0.2960 -0.1003  0.3516
  382THF     C2 4955   3.562   4.719   3.578 -0.4811  0.3123 -0.3859
  382THF     C3 4956   3.372   4.866   3.592  0.2986  0.1297 -0.1060
  382THF     H4 4957   3.613   4.776   3.508 -2.5385  0.4406 -0.2323
  382THF     H5 4958   3.589   4.618   3.568 -0.6803  2.3269  0.5608
  382THF     H6 4959   3.391   4.924   3.508 -3.3008 -1.9839  0.4456
  382THF     H7 4960   3.263   4.857   3.605  2.4537  0.9664  1.6477
  382THF     C8 4961   3.463   4.907   3.707  0.0552  0.3974  0.1088
  382THF     C9 4962   3.569   4.800   3.717 -0.4486  0.9445  0.0056
  382THF    H10 4963   3.412   4.917   3.807  1.3593 -0.0697  0.7721
  382THF    H11 4964   3.511   5.001   3.676 -1.2420  1.3166  1.1663
  382THF    H12 4965   3.672   4.827   3.747  1.4471  1.0246 -0.9132
  382THF    H13 4966   3.545   4.735   3.800  1.2493 -0.0455 -0.8204
  383THF     O1 4967   2.103   3.504   1.197  0.0166  0.6723 -0.1078
  383THF     C2 4968   2.064   3.638   1.186 -0.7008 -0.5687  0.3365
  383THF     C3 4969   2.212   3.498   1.289  0.9614  0.3773 -0.6982
  383THF     H4 4970   2.008   3.668   1.275 -2.4610  0.5879  0.1734
  383THF     H5 4971   1.995   3.669   1.107  1.7620  1.0376 -1.4824
  383THF     H6 4972   2.175   3.495   1.392  2.5242  0.4894  0.2149
  383THF     H7 4973   2.279   3.412   1.280  0.6728 -1.7384  1.9031
  383THF     C8 4974   2.286   3.636   1.272  0.4359 -0.1976 -0.1395
  383THF     C9 4975   2.197   3.718   1.181  0.4374 -0.1451 -0.4456
  383THF    H10 4976   2.390   3.616   1.237  1.9071  1.5274 -1.8055
  383THF    H11 4977   2.286   3.690   1.364  0.7308 -1.3150 -1.5576
  383THF    H12 4978   2.186   3.823   1.204  0.6218 -0.0994 -0.8472
  383THF    H13 4979   2.232   3.713   1.076 -1.5097 -3.9002 -2.8112
  384THF     O1 4980   3.751   0.388   0.037 -0.2820  0.3289  0.3606
  384THF     C2 4981   3.876   0.423  -0.028 -0.0387  0.0583 -0.1498
  384THF     C3 4982   3.678   0.502   0.067  0.8324  0.4904 -0.1196
  384THF     H4 4983   3.841   0.438  -0.132  0.0924  0.5429 -3.4203
  384THF     H5 4984   3.957   0.350  -0.030 -0.4844 -0.2325 -1.0272
  384THF     H6 4985   3.635   0.546  -0.027 -1.0674 -0.8930  1.3760
  384THF     H7 4986   3.609   0.485   0.148  2.6208  0.5171  0.7779
  384THF     C8 4987   3.787   0.599   0.114  0.2431  0.6650  0.6519
  384THF     C9 4988   3.915   0.556   0.046  0.3310  0.0824  0.3089
  384THF    H10 4989   3.799   0.578   0.221 -0.3849  0.7124 -1.1791
  384THF    H11 4990   3.760   0.703   0.103  0.2926 -0.0015 -0.5154
  384THF    H12 4991   3.948   0.624  -0.031  1.7416  3.0955  1.6386
  384THF    H13 4992   3.991   0.537   0.120 -0.0437 -2.5458  1.6829
  385THF     O1 4993   3.035   0.240   2.021 -0.9191 -0.1131  0.1220
  385THF     C2 4994   3.017   0.251   1.879  0.3067  0.4669 -0.1927
  385THF     C3 4995   3.175   0.229   2.058 -0.5148 -0.4901  0.3255
  385THF     H4 4996   2.959   0.345   1.863  1.2191  2.7008  1.8713
  385THF     H5 4997   2.968   0.164   1.836  2.3461  0.2687 -0.2979
  385THF     H6 4998   3.183   0.281   2.152 -3.0604 -0.3049 -1.8747
  385THF     H7 4999   3.200   0.126   2.056 -1.0959  1.6051 -0.7285
  385THF     C8 5000   3.242   0.296   1.943 -0.3633 -0.2730  1.0513
  385THF     C9 5001   3.158   0.277   1.819 -0.4464 -0.0571  0.0485
  385THF    H10 5002   3.338   0.251   1.932 -0.3248  1.5183 -2.4091
  385THF    H11 5003   3.259   0.399   1.958 -0.5492  0.9244  0.3402
  385THF    H12 5004   3.169   0.348   1.733  0.5539 -4.1403  1.3486
  385THF    H13 5005   3.208   0.192   1.773  1.3406 -0.8328 -0.2130
  386THF     O1 5006   1.615   0.259   2.389  0.0785 -0.3616 -0.7730
  386THF     C2 5007   1.635   0.395   2.436  0.9604 -0.3530  0.3617
  386THF     C3 5008   1.530   0.203   2.492 -0.3223  0.3613 -0.2130
  386THF     H4 5009   1.533   0.441   2.424 -1.2173  0.6819 -0.7982
  386THF     H5 5010   1.707   0.455   2.367  2.6242 -1.4883 -1.5502
  386THF     H6 5011   1.421   0.231   2.471 -2.1289  1.8860  0.9030
  386THF     H7 5012   1.538   0.094   2.491  1.8947 -1.1357 -2.0100
  386THF     C8 5013   1.592   0.259   2.619  0.1357 -0.3023  0.0132
  386THF     C9 5014   1.672   0.378   2.581 -0.0732 -0.0023  0.0319
  386THF    H10 5015   1.657   0.194   2.673 -1.4424  0.8139  0.2411
  386THF    H11 5016   1.517   0.296   2.679  1.6967 -1.6105 -0.0252
  386THF    H12 5017   1.633   0.463   2.638 -1.1302  1.5000 -1.6752
  386THF    H13 5018   1.782   0.379   2.592 -1.3916 -2.0964  4.2727
  387THF     O1 5019   1.044   3.459   1.262  0.6571  0.0164 -0.2586
  387THF     C2 5020   1.027   3.474   1.121 -0.5070  0.5290 -0.1575
  387THF     C3 5021   1.108   3.335   1.278 -0.3510  0.4043 -0.3703
  387THF     H4 5022   0.999   3.574   1.095 -0.0407 -1.0045 -0.8464
  387THF     H5 5023   0.951   3.399   1.088 -0.8073 -0.0492 -1.4088
  387THF     H6 5024   1.151   3.329   1.374 -2.8111 -1.1251 -0.0568
  387THF     H7 5025   1.029   3.261   1.265 -2.1651  0.0797  0.7075
  387THF     C8 5026   1.219   3.329   1.172 -0.2335 -0.3127  0.3556
  387THF     C9 5027   1.163   3.416   1.066 -0.0573 -0.4158 -0.0030
  387THF    H10 5028   1.232   3.229   1.130  2.1067 -2.4220  2.0069
  387THF    H11 5029   1.309   3.377   1.204 -0.4103  1.8385  0.1289
  387THF    H12 5030   1.235   3.490   1.027  1.6299 -1.2522 -2.7504
  387THF    H13 5031   1.149   3.360   0.976 -1.1589  0.5101  1.6220
  388THF     O1 5032   4.252   4.881   4.584  0.1454  0.0331 -0.0981
  388THF     C2 5033   4.247   4.891   4.446  0.9485  0.4380  0.0900
  388THF     C3 5034   4.136   4.949   4.639 -0.1180  0.2714  0.3204
  388THF     H4 5035   4.167   4.821   4.414 -0.6557 -1.5032  3.1160
  388THF     H5 5036   4.350   4.880   4.393  1.7685 -0.0064  0.2140
  388THF     H6 5037   4.055   4.884   4.638  0.5945 -1.4442  0.4019
  388THF     H7 5038   4.146   4.987   4.743  3.3042 -0.4376  1.9380
  388THF     C8 5039   4.116   5.074   4.553  0.1720 -0.0549  0.2384
  388THF     C9 5040   4.202   5.039   4.434 -0.2567  0.0249  0.6496
  388THF    H10 5041   4.160   5.157   4.614  0.4826  0.1584  0.6519
  388THF    H11 5042   4.022   5.103   4.523  0.1803 -0.9487 -1.7787
  388THF    H12 5043   4.151   5.050   4.334  2.8982 -0.6128 -0.1024
  388THF    H13 5044   4.298   5.095   4.425  0.9351 -0.2844  3.0917
  389THF     O1 5045   0.371   0.913   5.205 -0.4648  0.1487 -0.1471
  389THF     C2 5046   0.465   0.979   5.119  0.0202 -0.4647 -0.0319
  389THF     C3 5047   0.287   0.828   5.129  0.2586 -0.1345  0.0858
  389THF     H4 5048   0.564   0.966   5.157  1.0720  0.4922  2.0658
  389THF     H5 5049   0.440   1.085   5.137 -0.6864  1.3524  0.8563
  389THF     H6 5050   0.318   0.719   5.149 -0.3636 -0.7013 -1.8080
  389THF     H7 5051   0.187   0.848   5.163 -1.4219 -1.4364 -3.2099
  389THF     C8 5052   0.310   0.867   4.982 -0.4888 -0.3481 -0.1809
  389THF     C9 5053   0.449   0.924   4.977  0.0211 -0.3337  0.3489
  389THF    H10 5054   0.229   0.943   4.958 -2.2334  0.1471  1.9584
  389THF    H11 5055   0.294   0.789   4.911 -2.3619 -0.1555 -1.9371
  389THF    H12 5056   0.524   0.852   4.952 -2.8809 -1.3524  1.0053
  389THF    H13 5057   0.465   1.002   4.897 -0.2419 -0.4639  0.0074
  390THF     O1 5058   4.834   1.152   4.979  0.6060  0.4110 -0.6854
  390THF     C2 5059   4.710   1.232   4.993  0.2615 -0.1483 -0.0146
  390THF     C3 5060   4.802   1.024   4.932 -0.1196  0.3491 -0.4731
  390THF     H4 5061   4.723   1.343   4.970 -0.3373  1.2570  0.6186
  390THF     H5 5062   4.679   1.217   5.091  0.8792  1.1590 -0.7542
  390THF     H6 5063   4.894   0.979   4.893 -1.6254 -1.7338  1.4009
  390THF     H7 5064   4.776   0.969   5.024  0.3974  1.5546  1.8389
  390THF     C8 5065   4.684   1.048   4.842  1.0090  0.0058  0.2734
  390THF     C9 5066   4.605   1.170   4.893  0.0037 -0.0838 -0.3483
  390THF    H10 5067   4.622   0.958   4.834  1.0691  0.0997 -0.2521
  390THF    H11 5068   4.713   1.075   4.741 -0.7161  2.5366 -1.4604
  390THF    H12 5069   4.601   1.237   4.805  3.3079 -0.3444  3.0559
  390THF    H13 5070   4.511   1.154   4.946 -1.4980 -2.4242 -2.4779
  391THF     O1 5071   3.646   2.110   3.455  0.3569  0.2079 -0.2304
  391THF     C2 5072   3.778   2.130   3.412  0.1373  0.5032  0.1871
  391THF     C3 5073   3.648   1.985   3.539 -0.3483 -0.1624  0.2699
  391THF     H4 5074   3.814   2.207   3.480 -2.8986 -0.3139  0.7263
  391THF     H5 5075   3.790   2.166   3.314  0.3904 -3.0326  0.6731
  391THF     H6 5076   3.694   2.000   3.628  0.2459 -3.1101 -0.3144
  391THF     H7 5077   3.546   1.946   3.540  2.1670  0.9409  2.0477
  391THF     C8 5078   3.745   1.907   3.461 -0.2013 -0.3513 -0.4130
  391THF     C9 5079   3.858   2.003   3.425  0.2806 -0.0803 -0.5058
  391THF    H10 5080   3.704   1.869   3.366 -0.1151  0.6655 -1.1594
  391THF    H11 5081   3.781   1.819   3.515  0.6941 -0.4035  0.1776
  391THF    H12 5082   3.932   2.014   3.503 -2.0722  0.9108  1.7459
  391THF    H13 5083   3.914   1.968   3.335  0.7948 -1.7735  0.2227
  392THF     O1 5084   1.414   4.411   4.463 -0.2279  0.0809  0.4235
  392THF     C2 5085   1.340   4.442   4.347 -0.0333  0.3241  0.4638
  392THF     C3 5086   1.395   4.272   4.476  0.6865 -0.5132  0.0096
  392THF     H4 5087   1.365   4.542   4.320  1.0374 -2.9452  0.8684
  392THF     H5 5088   1.236   4.428   4.364 -1.1729 -0.3291 -0.3456
  392THF     H6 5089   1.486   4.232   4.517 -1.1871 -3.1653  1.2390
  392THF     H7 5090   1.319   4.255   4.557 -3.1348  2.0551  2.0256
  392THF     C8 5091   1.367   4.212   4.335 -0.0269 -0.4944  0.1445
  392THF     C9 5092   1.386   4.340   4.247  0.1110  0.0526  0.5045
  392THF    H10 5093   1.270   4.171   4.332  3.7335  0.6043  1.1513
  392THF    H11 5094   1.436   4.132   4.305 -3.2169 -1.9651 -0.0744
  392THF    H12 5095   1.498   4.360   4.219  3.5126  3.2272 -3.4149
  392THF    H13 5096   1.325   4.345   4.156 -0.5987  2.0317 -1.5020
  393THF     O1 5097   1.851   0.274   3.521 -1.0226 -0.0466  0.3209
  393THF     C2 5098   1.842   0.352   3.404  0.1614  0.5917 -0.0925
  393THF     C3 5099   1.943   0.334   3.611 -0.0186  0.1432  0.0079
  393THF     H4 5100   1.744   0.343   3.351 -2.3070  1.2268 -0.6099
  393THF     H5 5101   1.921   0.309   3.341 -0.5365  0.5651 -1.0406
  393THF     H6 5102   1.917   0.318   3.713 -2.6548  1.2400  2.6327
  393THF     H7 5103   2.044   0.300   3.581  0.3858  0.2326  1.9018
  393THF     C8 5104   1.922   0.483   3.584 -0.1607  0.9168  1.1879
  393THF     C9 5105   1.855   0.498   3.448 -0.2643 -0.4500  0.8736
  393THF    H10 5106   2.016   0.539   3.593 -0.9400 -0.8924  0.4950
  393THF    H11 5107   1.850   0.523   3.663 -1.3276 -1.1405  0.5241
  393THF    H12 5108   1.753   0.540   3.464  1.1619  0.3123 -0.7971
  393THF    H13 5109   1.924   0.558   3.385 -1.2130  0.0308 -0.8752
  394THF     O1 5110   2.344   5.436   4.617 -0.2359 -0.2484  0.0694
  394THF     C2 5111   2.279   5.511   4.717  0.7505  0.9646 -0.5732
  394THF     C3 5112   2.456   5.377   4.675 -0.2679 -0.2762  0.4242
  394THF     H4 5113   2.172   5.531   4.693  0.9997 -0.4101 -0.5518
  394THF     H5 5114   2.317   5.611   4.732  2.9451  0.2490  0.3758
  394THF     H6 5115   2.479   5.282   4.619  3.9777 -0.4279  1.8325
  394THF     H7 5116   2.548   5.434   4.667  3.6974  1.5593  0.0148
  394THF     C8 5117   2.413   5.347   4.818  0.1152  0.1858  0.2509
  394THF     C9 5118   2.294   5.430   4.847  0.2087  0.0951  0.0555
  394THF    H10 5119   2.499   5.367   4.872 -2.7791 -0.6096  0.6552
  394THF    H11 5120   2.382   5.237   4.833 -0.0491 -0.6036 -1.5214
  394THF    H12 5121   2.210   5.361   4.826  0.4532 -0.5804 -1.2412
  394THF    H13 5122   2.281   5.482   4.948 -0.5274 -1.6629  2.7661
  395THF     O1 5123   4.001   0.161   0.714  0.2757  0.3995  0.0349
  395THF     C2 5124   4.040   0.044   0.640 -0.0676 -0.2768  0.5850
  395THF     C3 5125   4.118   0.247   0.720  0.0826 -0.7015 -0.0572
  395THF     H4 5126   3.994   0.020   0.544 -2.3295  0.6835  2.2491
  395THF     H5 5127   4.011  -0.040   0.690  1.6042  2.2829 -2.4983
  395THF     H6 5128   4.120   0.304   0.624  0.2956 -3.3292  0.6817
  395THF     H7 5129   4.118   0.320   0.803  1.6517  3.4116 -0.0485
  395THF     C8 5130   4.233   0.149   0.734  0.8901  0.5029  0.4849
  395THF     C9 5131   4.193   0.041   0.632  0.5616  0.3587 -0.2761
  395THF    H10 5132   4.231   0.116   0.834 -1.6585 -0.1927  1.4876
  395THF    H11 5133   4.328   0.192   0.704 -1.3316  1.0005  0.8891
  395THF    H12 5134   4.232   0.071   0.538 -2.7792 -0.9796  1.6168
  395THF    H13 5135   4.232  -0.056   0.662 -0.7680  1.4335  1.3674
  396THF     O1 5136   3.218   1.064   1.791  0.2224  0.7810  0.1551
  396THF     C2 5137   3.119   0.976   1.855  0.6642 -0.5053  0.2416
  396THF     C3 5138   3.168   1.196   1.818  0.3339  0.6401  0.0788
  396THF     H4 5139   3.166   0.931   1.944 -2.6673  3.0936  0.5750
  396THF     H5 5140   3.090   0.891   1.792  1.2289 -1.0727 -1.2870
  396THF     H6 5141   3.250   1.264   1.838  0.1460 -1.1114  1.3618
  396THF     H7 5142   3.116   1.240   1.733 -0.9974  3.5865  1.8081
  396THF     C8 5143   3.080   1.190   1.936  0.8245 -0.0608 -0.0448
  396THF     C9 5144   3.009   1.068   1.901  1.2388 -0.3498  0.1118
  396THF    H10 5145   3.008   1.275   1.950 -0.8633  0.0850  2.3259
  396THF    H11 5146   3.136   1.176   2.024  0.3931 -2.8647  0.3536
  396THF    H12 5147   2.960   1.025   1.990  0.3896  1.8973  0.0720
  396THF    H13 5148   2.944   1.075   1.812  0.2397  0.8052  0.7131
  397THF     O1 5149   0.912   2.743   0.590  0.1844  0.2292 -0.2012
  397THF     C2 5150   0.949   2.698   0.721  0.4496 -0.4720  0.0644
  397THF     C3 5151   1.004   2.683   0.502  0.5850  0.4262 -0.2251
  397THF     H4 5152   0.902   2.602   0.740  0.8484 -3.3046 -2.6906
  397THF     H5 5153   0.905   2.761   0.803 -0.6960  2.6257  0.7302
  397THF     H6 5154   0.962   2.599   0.450  1.1077  0.3914  1.5135
  397THF     H7 5155   1.052   2.752   0.431 -1.0199 -0.4902 -0.3749
  397THF     C8 5156   1.123   2.635   0.588 -0.1109 -0.2371 -0.4631
  397THF     C9 5157   1.097   2.684   0.727 -0.3707  0.1980  0.2821
  397THF    H10 5158   1.218   2.649   0.530  0.1726  0.4035  0.0211
  397THF    H11 5159   1.111   2.532   0.601  1.4218  0.1540  1.8245
  397THF    H12 5160   1.124   2.607   0.803  0.0185 -0.5306  2.6775
  397THF    H13 5161   1.150   2.779   0.745 -0.2622  3.2206 -2.1518
  398THF     O1 5162   1.458   1.202   1.491 -0.0876 -0.3982  0.2943
  398THF     C2 5163   1.538   1.115   1.410  0.3652  0.6081 -0.2762
  398THF     C3 5164   1.355   1.245   1.407 -0.7671 -0.3726  0.0143
  398THF     H4 5165   1.475   1.022   1.392 -1.1050  0.3781  0.8545
  398THF     H5 5166   1.630   1.083   1.443  0.1039 -1.9590 -0.4540
  398THF     H6 5167   1.273   1.174   1.399 -0.1612 -1.4048  0.6621
  398THF     H7 5168   1.331   1.346   1.456 -1.5709 -1.3845 -4.1643
  398THF     C8 5169   1.424   1.265   1.272 -0.0782  0.0346 -0.1128
  398THF     C9 5170   1.549   1.181   1.274  0.3008  0.0248 -0.3599
  398THF    H10 5171   1.449   1.373   1.264  2.5885  0.9397 -1.1356
  398THF    H11 5172   1.347   1.242   1.192 -0.2934 -0.3706  1.0228
  398THF    H12 5173   1.552   1.110   1.195 -2.9888 -1.0339 -0.9969
  398THF    H13 5174   1.637   1.237   1.281  0.1128 -0.1221  2.2734
  399THF     O1 5175   2.562   0.511   2.829 -0.0406 -0.1006 -0.8206
  399THF     C2 5176   2.434   0.445   2.817 -0.5163 -0.5656 -0.7219
  399THF     C3 5177   2.608   0.545   2.704 -0.2175 -0.9179 -0.0337
  399THF     H4 5178   2.381   0.483   2.904  2.1187 -0.2695  1.4689
  399THF     H5 5179   2.441   0.340   2.831 -1.0973  1.0677 -2.6366
  399THF     H6 5180   2.689   0.620   2.712 -0.7680  1.8420  0.4645
  399THF     H7 5181   2.670   0.470   2.655  0.7909 -2.5765  1.2798
  399THF     C8 5182   2.484   0.585   2.629 -0.2846 -0.4100  1.4424
  399THF     C9 5183   2.373   0.495   2.686 -0.2126  0.4251 -0.0836
  399THF    H10 5184   2.503   0.573   2.526  0.5723 -1.3404  4.6254
  399THF    H11 5185   2.459   0.692   2.643 -0.4348  0.1128  0.0462
  399THF    H12 5186   2.286   0.549   2.703  1.3759  2.6391  0.2671
  399THF    H13 5187   2.363   0.407   2.615 -1.0406  0.4116  0.0656
  400THF     O1 5188   0.483   0.069   2.291  0.3877 -0.0031 -0.1433
  400THF     C2 5189   0.350   0.031   2.326  0.4140  0.3700 -0.9284
  400THF     C3 5190   0.486   0.035   2.153  0.7388 -1.1107 -0.1099
  400THF     H4 5191   0.328   0.062   2.430  1.4772  1.4934 -1.7660
  400THF     H5 5192   0.338  -0.082   2.332  0.4914 -0.2409  1.8116
  400THF     H6 5193   0.558   0.075   2.091  1.4679  0.9498  0.5153
  400THF     H7 5194   0.499  -0.075   2.142  0.0346 -0.0750 -2.7033
  400THF     C8 5195   0.351   0.089   2.095 -0.4073  0.1985  0.4654
  400THF     C9 5196   0.267   0.102   2.215 -0.2299 -0.2000 -0.2910
  400THF    H10 5197   0.315   0.023   2.014 -2.1850 -0.3053 -0.2920
  400THF    H11 5198   0.372   0.189   2.055 -1.1258 -5.1176  2.2722
  400THF    H12 5199   0.250   0.207   2.240 -1.3170 -0.1980  1.3365
  400THF    H13 5200   0.160   0.069   2.198 -1.0534 -1.8754 -1.3473
  401THF     O1 5201   3.241   2.707   0.475  0.0961  0.1352 -0.7044
  401THF     C2 5202   3.147   2.803   0.514  0.4540  0.2832  0.1223
  401THF     C3 5203   3.356   2.774   0.433  0.0592 -0.3941 -0.1550
  401THF     H4 5204   3.149   2.834   0.617 -1.9258  2.3060  2.1735
  401THF     H5 5205   3.042   2.772   0.488  1.2072 -0.5589 -2.0020
  401THF     H6 5206   3.404   2.811   0.521  4.3856 -1.5694  0.8189
  401THF     H7 5207   3.419   2.708   0.378 -4.0720 -0.9260  2.3946
  401THF     C8 5208   3.307   2.884   0.353  0.3916 -0.2103 -0.2426
  401THF     C9 5209   3.182   2.928   0.427  0.5724  0.0069  0.0520
  401THF    H10 5210   3.263   2.857   0.260 -0.6554  0.3609 -2.6033
  401THF    H11 5211   3.379   2.962   0.347 -0.6717 -1.2898 -1.9765
  401THF    H12 5212   3.189   3.021   0.485 -1.4777  1.0052 -0.8596
  401THF    H13 5213   3.104   2.955   0.354  1.4987  1.0561  0.5858
  402THF     O1 5214   0.504   2.043   3.168  0.0899 -0.1931 -0.1816
  402THF     C2 5215   0.570   1.949   3.090 -0.1561  0.3666  0.2647
  402THF     C3 5216   0.365   2.025   3.153  0.4292 -1.1302 -0.5108
  402THF     H4 5217   0.655   1.912   3.151 -0.0780  0.4022  1.9149
  402THF     H5 5218   0.597   1.998   2.999 -2.1553 -0.8351 -1.0468
  402THF     H6 5219   0.336   1.978   3.250 -0.5295  0.2572  1.3526
  402THF     H7 5220   0.311   2.115   3.140 -0.1896  0.6970 -2.1240
  402THF     C8 5221   0.331   1.916   3.046 -0.0069  0.0740 -0.2494
  402THF     C9 5222   0.463   1.845   3.052 -0.7061 -0.0782  0.0325
  402THF    H10 5223   0.320   1.958   2.953 -0.4085 -0.6287  1.7554
  402THF    H11 5224   0.242   1.856   3.063  0.3325 -0.0953 -0.0682
  402THF    H12 5225   0.463   1.760   3.124 -0.9949  0.2131 -2.2807
  402THF    H13 5226   0.485   1.797   2.960  0.2700 -0.5050  1.7273
  403THF     O1 5227   4.303   0.258   5.080  0.1661 -0.2258  0.0748
  403THF     C2 5228   4.161   0.262   5.072 -0.1502 -0.0980 -0.2596
  403THF     C3 5229   4.348   0.148   5.155 -0.3739  0.2753  0.3918
  403THF     H4 5230   4.136   0.306   4.975  0.4847 -1.2710 -0.9349
  403THF     H5 5231   4.108   0.319   5.152  0.4310  0.0280  2.1339
  403THF     H6 5232   4.452   0.136   5.137  2.8676 -2.1976 -0.6574
  403THF     H7 5233   4.338   0.177   5.260 -0.0147  0.2497  0.5622
  403THF     C8 5234   4.255   0.039   5.113 -0.1897  0.3293  0.1524
  403THF     C9 5235   4.125   0.108   5.082  0.4547 -0.0062  0.7847
  403THF    H10 5236   4.246  -0.033   5.194 -1.5044  0.6715 -1.4192
  403THF    H11 5237   4.302  -0.009   5.027  0.7860 -1.3410  1.6517
  403THF    H12 5238   4.093   0.073   4.988 -1.2814 -1.4403 -2.1108
  403THF    H13 5239   4.050   0.109   5.161  0.3593  0.1065 -0.7645
  404THF     O1 5240   3.088   4.432   4.404 -0.0516  0.1128  0.7962
  404THF     C2 5241   3.017   4.552   4.422  0.0251 -0.3330  0.5665
  404THF     C3 5242   3.127   4.375   4.535  0.2514 -0.3881  0.6303
  404THF     H4 5243   2.928   4.534   4.367 -3.1198  0.0106 -0.0673
  404THF     H5 5244   3.071   4.633   4.378 -0.9960  0.3539 -1.5523
  404THF     H6 5245   3.157   4.273   4.524  0.4672  0.2103 -0.1738
  404THF     H7 5246   3.220   4.437   4.558 -0.2545  0.9065  0.4953
  404THF     C8 5247   3.012   4.418   4.621  0.7199  0.2319 -0.5148
  404THF     C9 5248   2.976   4.558   4.571  0.2380 -0.4434  0.2264
  404THF    H10 5249   3.026   4.405   4.726  0.2148  1.6616  1.6053
  404THF    H11 5250   2.925   4.358   4.598  1.4141  0.3880 -0.9298
  404THF    H12 5251   2.883   4.605   4.593 -1.7101 -0.2609  1.6323
  404THF    H13 5252   3.044   4.618   4.621  0.9043  3.7623 -2.1826
  405THF     O1 5253   0.242   4.953   2.996 -0.1757 -0.2436  0.0268
  405THF     C2 5254   0.313   4.929   3.117 -0.5141  0.3733  0.1461
  405THF     C3 5255   0.165   5.070   3.038  0.1606  0.0336  0.0824
  405THF     H4 5256   0.405   4.880   3.084 -0.8038  0.5438 -0.6053
  405THF     H5 5257   0.250   4.875   3.179 -1.3804  2.6030 -1.8762
  405THF     H6 5258   0.111   5.116   2.945  1.5916 -1.0159 -1.0363
  405THF     H7 5259   0.089   5.048   3.110  0.2592  1.5061  0.3421
  405THF     C8 5260   0.266   5.162   3.096  0.8352 -0.0539  0.1053
  405THF     C9 5261   0.361   5.073   3.170  0.1749  0.0807 -0.5784
  405THF    H10 5262   0.227   5.238   3.155  2.2822 -1.4052  0.1206
  405THF    H11 5263   0.322   5.213   3.013 -0.0363  2.1185 -1.5340
  405THF    H12 5264   0.452   5.108   3.147 -2.7623  0.6601 -0.2849
  405THF    H13 5265   0.360   5.086   3.276  1.1323  1.0718  1.3824
  406THF     O1 5266   4.996   0.113   4.568 -0.1415 -0.3478  0.5471
  406THF     C2 5267   5.034  -0.016   4.508  0.6306 -0.2187  0.3179
  406THF     C3 5268   4.952   0.198   4.462 -0.0435  0.4566 -0.5733
  406THF     H4 5269   4.964  -0.090   4.547  1.0153 -2.0659 -0.5731
  406THF     H5 5270   5.140  -0.039   4.536  0.2230  1.0204  0.2699
  406THF     H6 5271   4.840   0.200   4.449 -0.9093  0.9514  0.9601
  406THF     H7 5272   4.999   0.293   4.477 -1.9068 -1.4601 -0.7805
  406THF     C8 5273   5.009   0.137   4.327  0.3390  0.0353  1.2115
  406THF     C9 5274   5.003  -0.011   4.352 -0.1004  0.4659 -0.2706
  406THF    H10 5275   5.113   0.165   4.319 -1.5700  1.7989 -0.7120
  406THF    H11 5276   4.967   0.167   4.229  1.3876  0.8673 -1.2900
  406THF    H12 5277   4.913  -0.056   4.333  1.6758 -1.2109 -1.2547
  406THF    H13 5278   5.065  -0.078   4.303 -2.9393  0.4419  0.7936
  407THF     O1 5279   1.337   4.841   3.962  0.0552  0.1776 -0.0489
  407THF     C2 5280   1.323   4.759   4.076 -0.4604  0.0815 -0.4434
  407THF     C3 5281   1.264   4.770   3.860 -0.6974 -0.1986  0.0396
  407THF     H4 5282   1.335   4.807   4.173  0.2716  1.5217  1.9029
  407THF     H5 5283   1.403   4.686   4.062 -0.3737  4.5502  2.8788
  407THF     H6 5284   1.229   4.838   3.784  0.0513 -0.3642  0.1127
  407THF     H7 5285   1.337   4.715   3.804 -1.3402  2.8528 -0.9192
  407THF     C8 5286   1.160   4.678   3.928 -0.5261  0.3519 -0.4477
  407THF     C9 5287   1.176   4.701   4.075 -0.6275 -1.4525  0.5963
  407THF    H10 5288   1.206   4.579   3.895 -0.6227 -1.5107 -1.4981
  407THF    H11 5289   1.064   4.689   3.897 -0.0917  1.0932 -0.3547
  407THF    H12 5290   1.110   4.784   4.107 -0.6211 -1.3370 -1.5001
  407THF    H13 5291   1.177   4.614   4.139  0.7990 -1.4881 -0.3109
  408THF     O1 5292   0.505   0.376   5.300  0.0068 -0.2884 -0.0655
  408THF     C2 5293   0.560   0.324   5.424 -0.6354 -0.1140  0.4768
  408THF     C3 5294   0.455   0.505   5.336  0.0634 -0.0711  0.3027
  408THF     H4 5295   0.661   0.366   5.433 -0.0336 -0.7058 -0.2758
  408THF     H5 5296   0.575   0.214   5.414 -0.4843  0.9069 -1.4996
  408THF     H6 5297   0.530   0.573   5.343  1.2747 -3.4848  0.5883
  408THF     H7 5298   0.387   0.533   5.264  1.4140  0.1636  2.5561
  408THF     C8 5299   0.400   0.489   5.477  0.6685 -0.0175  0.0949
  408THF     C9 5300   0.457   0.358   5.534 -0.6685  0.1335  0.0749
  408THF    H10 5301   0.287   0.508   5.472 -0.6652  1.7503 -1.2991
  408THF    H11 5302   0.438   0.574   5.533 -1.9844  0.3976 -2.4744
  408THF    H12 5303   0.521   0.369   5.628  0.6638 -2.1078  2.4535
  408THF    H13 5304   0.377   0.280   5.549 -2.6786  2.2995  0.7803
  409THF     O1 5305   4.073   2.779   4.847  0.2814 -0.4015 -0.0186
  409THF     C2 5306   4.095   2.699   4.966  0.1830  0.1651  0.2494
  409THF     C3 5307   3.953   2.862   4.864 -0.2013  0.0366 -0.3592
  409THF     H4 5308   4.202   2.712   4.988  0.1401  0.3659  0.4746
  409THF     H5 5309   4.075   2.592   4.947 -0.0969  2.1913  1.3225
  409THF     H6 5310   3.989   2.964   4.884  0.6205 -0.4231  2.3141
  409THF     H7 5311   3.892   2.866   4.778 -0.2188 -0.2766 -1.3194
  409THF     C8 5312   3.888   2.803   4.986  0.2031  0.6630  0.1166
  409THF     C9 5313   4.003   2.752   5.072 -0.4423  0.0862  0.3267
  409THF    H10 5314   3.818   2.728   4.945  0.4174  0.7768 -0.8866
  409THF    H11 5315   3.829   2.888   5.031 -2.9059 -0.6231 -0.2812
  409THF    H12 5316   4.051   2.842   5.124  1.1689  1.7677 -1.1475
  409THF    H13 5317   3.969   2.681   5.147  2.8950  0.6762  0.9787
  410THF     O1 5318   5.390   1.569   0.024 -0.1940  0.4568  0.1474
  410THF     C2 5319   5.497   1.668   0.027  0.5111 -0.4178  0.1727
  410THF     C3 5320   5.314   1.577   0.142 -1.1828 -0.3051  0.8663
  410THF     H4 5321   5.500   1.732  -0.056 -0.1106 -2.6484 -1.3857
  410THF     H5 5322   5.589   1.615   0.040 -1.2972  0.3233  2.1365
  410THF     H6 5323   5.220   1.536   0.138  0.1498  0.2323 -0.3260
  410THF     H7 5324   5.369   1.520   0.211 -2.1516  0.9677  0.0327
  410THF     C8 5325   5.328   1.725   0.193  0.2014  0.0843 -0.6723
  410THF     C9 5326   5.474   1.751   0.157 -0.1579 -0.2777 -0.1339
  410THF    H10 5327   5.301   1.738   0.298 -0.3134 -0.2236  1.1979
  410THF    H11 5328   5.274   1.801   0.141 -1.4464 -1.1729  1.2199
  410THF    H12 5329   5.500   1.848   0.146 -1.7497  0.0689  1.3180
  410THF    H13 5330   5.546   1.716   0.234  0.4332  1.3550  0.3755
  411THF     O1 5331   1.310   1.161   0.517 -0.0827 -0.1028  0.3777
  411THF     C2 5332   1.447   1.164   0.488  0.3602 -0.0747  1.1263
  411THF     C3 5333   1.263   1.036   0.473  0.0294  0.3070 -0.3603
  411THF     H4 5334   1.507   1.240   0.546  1.6685 -0.1462  0.7396
  411THF     H5 5335   1.469   1.193   0.386  0.0344 -0.0422  1.3301
  411THF     H6 5336   1.168   1.013   0.509  0.4562 -1.0855  0.6076
  411THF     H7 5337   1.252   1.056   0.364  0.9716  0.7098 -0.2801
  411THF     C8 5338   1.377   0.935   0.521 -0.0081 -0.0365 -0.1894
  411THF     C9 5339   1.505   1.023   0.515 -0.4870  0.5271 -0.3518
  411THF    H10 5340   1.390   0.849   0.465  1.9265 -0.7531  0.8358
  411THF    H11 5341   1.354   0.908   0.624  1.7757 -0.8733 -1.5342
  411THF    H12 5342   1.572   1.020   0.605  0.5297 -0.4493 -1.1270
  411THF    H13 5343   1.562   0.980   0.428  0.5737 -2.5786  0.1923
  412THF     O1 5344   4.790   4.471   3.485  0.2101  0.6326  0.6386
  412THF     C2 5345   4.906   4.554   3.461  0.0169 -0.6646  0.2658
  412THF     C3 5346   4.821   4.385   3.588 -0.1780 -0.5876 -0.6089
  412THF     H4 5347   4.877   4.644   3.410 -0.8568  0.4631 -3.2270
  412THF     H5 5348   4.967   4.495   3.396  1.2239  1.5050  1.3695
  412THF     H6 5349   4.734   4.337   3.624  0.1030 -0.0068 -0.5268
  412THF     H7 5350   4.879   4.309   3.542  2.3219  1.5085 -1.4343
  412THF     C8 5351   4.906   4.474   3.684  0.5951  0.0728 -0.6201
  412THF     C9 5352   4.973   4.574   3.594 -0.5518 -0.2432  0.0045
  412THF    H10 5353   4.966   4.411   3.752 -0.0094 -1.7045  0.4707
  412THF    H11 5354   4.826   4.520   3.747 -0.2461 -0.3587 -1.5854
  412THF    H12 5355   4.977   4.672   3.647 -0.9801 -0.7144  1.5851
  412THF    H13 5356   5.079   4.559   3.568 -0.3885 -0.5648  1.3668
  413THF     O1 5357   0.622   5.174   4.904 -0.4261 -0.2920 -0.4438
  413THF     C2 5358   0.594   5.125   5.039  0.3003  1.2045 -0.4199
  413THF     C3 5359   0.658   5.313   4.919  0.2247  0.1885  0.7614
  413THF     H4 5360   0.668   5.040   5.049  1.1572  2.6821 -3.9213
  413THF     H5 5361   0.487   5.091   5.039  0.5340  1.1808 -0.5891
  413THF     H6 5362   0.765   5.333   4.911  1.7623  0.1214  2.0014
  413THF     H7 5363   0.622   5.383   4.843  1.1982  2.6102  1.9414
  413THF     C8 5364   0.602   5.369   5.055  0.5806 -0.6791 -0.4804
  413THF     C9 5365   0.620   5.245   5.130 -0.2918  0.1462  0.2715
  413THF    H10 5366   0.496   5.396   5.053  1.1183  2.9462  0.6258
  413THF    H11 5367   0.658   5.458   5.097  2.5355  0.1278 -1.3989
  413THF    H12 5368   0.722   5.240   5.170  2.4222 -2.7206  0.8533
  413THF    H13 5369   0.551   5.242   5.213  0.4324  2.0993 -1.6260
  414THF     O1 5370   2.173   1.567   0.412 -0.3051  0.1845 -0.7700
  414THF     C2 5371   2.193   1.500   0.534 -0.6791  0.6820 -0.9941
  414THF     C3 5372   2.188   1.703   0.439  0.2461  0.0094 -0.7751
  414THF     H4 5373   2.292   1.454   0.551 -1.3791  0.6948 -1.8713
  414THF     H5 5374   2.121   1.417   0.540  0.2809 -2.9652 -2.6524
  414THF     H6 5375   2.291   1.735   0.421 -0.7831 -1.5532 -0.1396
  414THF     H7 5376   2.118   1.752   0.378  0.0596 -0.0761 -2.7150
  414THF     C8 5377   2.154   1.733   0.583 -0.0002 -0.0462 -0.4794
  414THF     C9 5378   2.160   1.592   0.644 -0.4594 -0.6020  0.1643
  414THF    H10 5379   2.061   1.784   0.595 -0.3172  1.8199  0.9688
  414THF    H11 5380   2.237   1.790   0.628  0.5651  2.1246 -0.0815
  414THF    H12 5381   2.208   1.581   0.739 -0.7052  0.6116  3.2186
  414THF    H13 5382   2.057   1.570   0.679 -0.4823 -0.3044  0.6692
  415THF     O1 5383   5.194   5.235   3.902 -0.3098  0.2034  0.3250
  415THF     C2 5384   5.053   5.250   3.899  0.4203  0.9123  0.8481
  415THF     C3 5385   5.231   5.144   3.792  0.0342  0.3633  0.2932
  415THF     H4 5386   5.021   5.332   3.964  1.0459  1.4942 -1.8949
  415THF     H5 5387   5.001   5.162   3.936  0.6100  1.9556 -1.5628
  415THF     H6 5388   5.325   5.180   3.749  0.4835 -1.3447  1.4011
  415THF     H7 5389   5.242   5.035   3.806  0.5476 -1.9440  0.8820
  415THF     C8 5390   5.117   5.154   3.689 -0.0630 -0.9608  0.4114
  415THF     C9 5391   5.028   5.260   3.751  0.1976 -0.6118  0.2619
  415THF    H10 5392   5.061   5.064   3.670 -2.0834 -0.7541 -0.5398
  415THF    H11 5393   5.162   5.184   3.593 -3.1912  1.3269  1.7590
  415THF    H12 5394   5.053   5.360   3.710  0.9108  1.5653 -0.4379
  415THF    H13 5395   4.923   5.241   3.722  2.0828 -0.4562  0.3279
  416THF     O1 5396   3.798   0.039   3.566 -0.4038  0.4060 -0.5021
  416THF     C2 5397   3.858  -0.026   3.680  0.2038  0.3010  0.0924
  416THF     C3 5398   3.856  -0.002   3.449 -0.4142 -0.6031  0.1457
  416THF     H4 5399   3.815  -0.128   3.680  1.2278 -2.3523 -3.0689
  416THF     H5 5400   3.843   0.041   3.768  1.8509  3.2819  3.0724
  416THF     H6 5401   3.804  -0.085   3.401  0.2842 -0.0747 -1.6126
  416THF     H7 5402   3.853   0.089   3.378 -0.3740  3.5754 -3.6302
  416THF     C8 5403   3.999  -0.038   3.482 -0.4288 -0.1952 -0.3849
  416THF     C9 5404   4.003  -0.011   3.630  0.1697 -0.6034 -0.0883
  416THF    H10 5405   4.069   0.025   3.420  0.9403 -0.6106 -1.2665
  416THF    H11 5406   4.029  -0.147   3.461  0.7228  0.9927  0.5278
  416THF    H12 5407   4.059  -0.087   3.682 -2.4275 -2.2748 -0.5474
  416THF    H13 5408   4.046   0.090   3.655 -3.3530  1.3388  0.2214
  417THF     O1 5409   4.983   0.838   0.682  0.1769 -0.0152  0.6444
  417THF     C2 5410   4.991   0.933   0.569 -0.2044 -0.2767  0.2433
  417THF     C3 5411   4.843   0.812   0.692 -0.0001 -0.5082 -0.0330
  417THF     H4 5412   5.094   0.945   0.535 -1.7119  3.1653  1.1227
  417THF     H5 5413   4.963   1.036   0.599 -0.0080  1.7956  4.0382
  417THF     H6 5414   4.832   0.715   0.743  1.0356 -0.2895 -0.8795
  417THF     H7 5415   4.785   0.890   0.752 -0.1280 -0.7439  2.5823
  417THF     C8 5416   4.798   0.795   0.547  0.1976 -0.0919  0.3047
  417THF     C9 5417   4.898   0.871   0.463 -0.7592  1.3583 -0.7590
  417THF    H10 5418   4.697   0.844   0.540 -1.7446 -0.0517 -0.2345
  417THF    H11 5419   4.815   0.691   0.514  1.0005 -0.5689  0.4340
  417THF    H12 5420   4.952   0.805   0.392 -3.1165 -0.0977  0.2332
  417THF    H13 5421   4.849   0.954   0.416 -0.4929  0.5914 -0.2221
  418THF     O1 5422   3.256   1.078   4.400  0.5314  0.5620  0.5397
  418THF     C2 5423   3.322   1.196   4.411  0.2209 -0.2153 -0.2069
  418THF     C3 5424   3.238   1.038   4.263 -0.0720 -0.8292  0.2132
  418THF     H4 5425   3.429   1.168   4.396  2.3000  0.9588 -0.1600
  418THF     H5 5426   3.305   1.240   4.505 -2.4558 -0.5248 -1.0288
  418THF     H6 5427   3.330   0.978   4.239 -0.5903  0.4116  2.4230
  418THF     H7 5428   3.149   0.975   4.258 -4.0926 -2.0684 -0.2715
  418THF     C8 5429   3.219   1.173   4.186 -0.3687 -0.3170 -0.0203
  418THF     C9 5430   3.267   1.278   4.292 -0.4709 -0.3586 -0.2064
  418THF    H10 5431   3.111   1.179   4.147 -2.4569 -1.5627 -1.2956
  418THF    H11 5432   3.285   1.191   4.101  0.1752  3.6014 -0.1977
  418THF    H12 5433   3.336   1.335   4.232 -1.3219 -1.2809  2.4666
  418THF    H13 5434   3.180   1.338   4.330  0.8054 -0.6296  0.0052
  419THF     O1 5435   4.925   0.164   1.353  0.4454  0.0131 -0.0383
  419THF     C2 5436   4.851   0.142   1.479 -0.7150 -0.5190 -0.1858
  419THF     C3 5437   4.886   0.062   1.261 -0.3533 -0.6893 -0.2353
  419THF     H4 5438   4.784   0.230   1.493  1.8851  0.6866 -0.6827
  419THF     H5 5439   4.922   0.141   1.566 -2.0073  1.0467  0.4480
  419THF     H6 5440   4.797   0.104   1.219 -0.6080 -0.3791  0.7692
  419THF     H7 5441   4.968   0.043   1.191  0.5287 -0.9398  4.5955
  419THF     C8 5442   4.848  -0.056   1.345 -0.2335 -0.2149  0.1521
  419THF     C9 5443   4.783   0.008   1.460 -0.0097  0.8354 -0.4817
  419THF    H10 5444   4.931  -0.122   1.364 -0.0793  1.0211  1.1024
  419THF    H11 5445   4.776  -0.113   1.295 -2.3747  2.0435  0.7870
  419THF    H12 5446   4.679   0.028   1.428  3.2753  1.6420  0.4483
  419THF    H13 5447   4.784  -0.058   1.548  2.6537  0.8540  1.5205
  420THF     O1 5448   4.373   1.722   1.975  0.1803 -0.1691 -0.0856
  420THF     C2 5449   4.246   1.755   1.944  0.5836  0.0632  1.1354
  420THF     C3 5450   4.454   1.822   2.018  0.0683 -0.4743  0.2535
  420THF     H4 5451   4.167   1.698   1.994 -1.9156  1.2093 -0.1422
  420THF     H5 5452   4.226   1.742   1.840 -0.4247  0.5451 -0.6594
  420THF     H6 5453   4.504   1.774   2.105  1.9316 -2.6902  0.2271
  420THF     H7 5454   4.524   1.847   1.937 -3.6393 -0.3775 -0.1925
  420THF     C8 5455   4.354   1.926   2.064  0.4726  0.5554 -0.2171
  420THF     C9 5456   4.230   1.901   1.972 -1.1322  0.4635  0.0055
  420THF    H10 5457   4.403   2.018   2.067  0.7262  1.7063  0.5843
  420THF    H11 5458   4.316   1.900   2.161 -0.1649 -3.7123 -0.0989
  420THF    H12 5459   4.140   1.931   2.016  3.1341 -2.1894  1.3169
  420THF    H13 5460   4.259   1.962   1.889  2.3370 -0.0924 -1.5166
  421THF     O1 5461   0.975   4.334   3.450 -0.3756  0.0918 -0.0981
  421THF     C2 5462   0.948   4.445   3.529  0.7694  0.2332 -0.0651
  421THF     C3 5463   0.911   4.343   3.321 -0.5402 -0.4629 -0.2429
  421THF     H4 5464   1.033   4.513   3.515  1.5891 -0.3854  1.1315
  421THF     H5 5465   0.941   4.425   3.634 -0.5019  3.2076  0.7225
  421THF     H6 5466   0.970   4.411   3.266 -1.7305 -0.9767  1.2231
  421THF     H7 5467   0.898   4.251   3.265  2.4192 -0.8649  3.3424
  421THF     C8 5468   0.784   4.413   3.351  0.0267 -0.4556  0.0039
  421THF     C9 5469   0.828   4.509   3.463  0.0357 -0.3386  0.9903
  421THF    H10 5470   0.711   4.342   3.386  0.5132 -1.2629 -2.5629
  421THF    H11 5471   0.750   4.464   3.266 -1.2711  1.5517 -0.1550
  421THF    H12 5472   0.853   4.609   3.439 -2.5396  0.1842 -0.3345
  421THF    H13 5473   0.748   4.524   3.542  0.4432  2.0914  0.5468
  422THF     O1 5474   1.005   3.395   0.499  0.2376 -0.3579 -0.3166
  422THF     C2 5475   1.115   3.478   0.512  0.7653 -0.0954  0.6780
  422THF     C3 5476   1.039   3.270   0.559  0.1190 -0.5325  0.0892
  422THF     H4 5477   1.106   3.537   0.605 -1.0675  0.7697  3.3631
  422THF     H5 5478   1.117   3.562   0.445  0.0734 -0.1577  2.3593
  422THF     H6 5479   1.009   3.268   0.663 -0.6402 -0.6172 -1.2899
  422THF     H7 5480   0.988   3.188   0.505  0.4399  3.0089 -2.4166
  422THF     C8 5481   1.186   3.251   0.560 -0.1488  0.3022  0.2931
  422THF     C9 5482   1.225   3.379   0.489  0.0421  0.2887  0.2137
  422THF    H10 5483   1.225   3.164   0.503  0.0057  0.0634  0.4911
  422THF    H11 5484   1.220   3.253   0.667  1.3864 -1.9474 -2.2293
  422THF    H12 5485   1.317   3.435   0.529 -1.0968  0.8331  1.8313
  422THF    H13 5486   1.233   3.365   0.376  4.2891 -0.1995 -1.0293
  423THF     O1 5487   5.158   0.218   0.052  0.1655  0.3868  0.1682
  423THF     C2 5488   5.062   0.132   0.002  0.0209  0.0586 -0.3629
  423THF     C3 5489   5.122   0.252   0.184  0.2161 -0.3661  0.2530
  423THF     H4 5490   5.092   0.031   0.035 -2.1996  0.4321 -0.3177
  423THF     H5 5491   5.049   0.144  -0.106 -3.6576  2.0756  0.4512
  423THF     H6 5492   5.174   0.187   0.260  0.5688  0.5501  0.8431
  423THF     H7 5493   5.137   0.357   0.206 -1.0325 -1.4704  0.8701
  423THF     C8 5494   4.976   0.209   0.205  0.0250  0.3786  0.0117
  423THF     C9 5495   4.929   0.171   0.059  0.0734  0.2078 -1.0067
  423THF    H10 5496   4.907   0.269   0.269 -0.1452  4.2925 -1.2735
  423THF    H11 5497   4.982   0.117   0.253  0.8382 -1.2661  2.0315
  423THF    H12 5498   4.855   0.095   0.056  1.8974  0.8781  1.2786
  423THF    H13 5499   4.884   0.250   0.003 -1.1962 -0.7466 -1.1810
  424THF     O1 5500   3.672   4.078   2.427 -0.2317 -0.7836 -0.1523
  424THF     C2 5501   3.766   3.992   2.490  0.8969 -0.2793  1.0430
  424THF     C3 5502   3.543   4.036   2.457  0.7436  0.0807 -0.8283
  424THF     H4 5503   3.762   3.996   2.602  2.5450 -2.6728  2.4223
  424THF     H5 5504   3.866   4.007   2.453  0.7558  0.5930 -0.0002
  424THF     H6 5505   3.509   4.074   2.557  1.7588 -0.2657  0.5734
  424THF     H7 5506   3.491   4.082   2.376 -0.3722 -1.2792  0.7962
  424THF     C8 5507   3.557   3.888   2.474 -0.7798 -0.2645  0.4197
  424THF     C9 5508   3.703   3.862   2.464 -0.8247 -0.4772  0.9480
  424THF    H10 5509   3.504   3.837   2.394  3.0493  0.4137 -0.6078
  424THF    H11 5510   3.515   3.853   2.568 -2.1171  2.8490 -1.6238
  424THF    H12 5511   3.736   3.785   2.535  4.5969  1.3960  0.3522
  424THF    H13 5512   3.724   3.837   2.358  2.5226  0.5788 -0.9475
  425THF     O1 5513   1.583   2.578   2.363 -0.5754 -0.3810 -0.5125
  425THF     C2 5514   1.546   2.586   2.498 -0.2125  0.1154 -0.0253
  425THF     C3 5515   1.470   2.634   2.296  0.0644  0.2340  0.2134
  425THF     H4 5516   1.635   2.569   2.556  0.7878 -1.2035  0.8738
  425THF     H5 5517   1.476   2.509   2.514 -0.6034 -0.0288  0.1832
  425THF     H6 5518   1.484   2.665   2.193 -1.0049 -0.7650  2.0848
  425THF     H7 5519   1.394   2.554   2.302  2.6805  1.9611  0.1932
  425THF     C8 5520   1.426   2.750   2.381  0.3804  0.6380  0.1580
  425THF     C9 5521   1.494   2.727   2.513  0.0778 -0.2275 -0.3565
  425THF    H10 5522   1.322   2.764   2.382  0.5439 -1.0828  1.3571
  425THF    H11 5523   1.466   2.840   2.335 -1.0349  2.8606  0.4973
  425THF    H12 5524   1.580   2.802   2.513  1.1046  0.3647  0.9612
  425THF    H13 5525   1.424   2.738   2.598  0.6165  2.3249 -2.5025
  426THF     O1 5526   3.666   1.297   3.544 -0.1746  0.0761 -0.2680
  426THF     C2 5527   3.796   1.285   3.595  0.1764  0.3227 -0.1001
  426THF     C3 5528   3.646   1.434   3.505  0.3465  0.1308  0.3217
  426THF     H4 5529   3.868   1.275   3.511  1.6651  1.3167  1.0925
  426THF     H5 5530   3.814   1.208   3.669  0.6570  1.5359  1.8394
  426THF     H6 5531   3.693   1.459   3.407 -0.3204 -1.4090 -1.8285
  426THF     H7 5532   3.542   1.464   3.498  0.2385  2.4349  0.4458
  426THF     C8 5533   3.707   1.508   3.613  0.4669  0.3249 -0.1836
  426THF     C9 5534   3.824   1.426   3.660  0.4826  0.6018  0.2237
  426THF    H10 5535   3.640   1.530   3.693  0.6584 -0.6354 -1.9593
  426THF    H11 5536   3.745   1.596   3.570  2.2647 -0.6518  0.8340
  426THF    H12 5537   3.919   1.476   3.618  3.4398  0.0181 -1.9572
  426THF    H13 5538   3.813   1.414   3.770 -1.2699 -3.1534  1.1560
  427THF     O1 5539   2.031   5.285   5.470  0.1246  0.6269  0.1047
  427THF     C2 5540   1.950   5.209   5.377 -0.6245 -0.6420  0.1701
  427THF     C3 5541   2.039   5.410   5.412  0.0352  0.0524 -0.2037
  427THF     H4 5542   1.844   5.236   5.402 -1.3572 -3.5499 -1.3969
  427THF     H5 5543   1.960   5.102   5.385 -0.6432  0.3746 -0.7291
  427THF     H6 5544   1.951   5.474   5.431 -0.2173  0.6719  0.2286
  427THF     H7 5545   2.128   5.472   5.457  1.6850  0.8148 -1.0246
  427THF     C8 5546   2.048   5.400   5.266 -0.7767  0.5435  0.6240
  427THF     C9 5547   1.997   5.254   5.240  0.1911 -0.5231  0.3874
  427THF    H10 5548   2.154   5.403   5.232  0.5748  0.9848  1.0737
  427THF    H11 5549   1.994   5.477   5.209  0.0384  0.2266  1.4134
  427THF    H12 5550   1.918   5.247   5.156  0.3990 -2.1540 -1.9577
  427THF    H13 5551   2.088   5.200   5.199  0.3315 -1.1101  1.6364
  428THF     O1 5552   1.522   1.844   3.052 -0.0873 -0.6170  0.3262
  428THF     C2 5553   1.556   1.944   2.965 -0.0010  0.8923  0.5394
  428THF     C3 5554   1.533   1.711   2.993 -0.1065 -0.1018  0.3790
  428THF     H4 5555   1.638   2.004   3.007 -0.8986 -0.5909  0.9471
  428THF     H5 5556   1.469   2.002   2.941  1.9438 -0.1138 -0.0699
  428THF     H6 5557   1.622   1.662   3.029 -1.9697 -1.6860 -0.2974
  428THF     H7 5558   1.447   1.652   3.029  0.1864 -1.5220 -1.5605
  428THF     C8 5559   1.531   1.738   2.840  0.8720  0.3628 -0.4612
  428THF     C9 5560   1.605   1.872   2.837 -0.3392 -0.4502 -0.8288
  428THF    H10 5561   1.427   1.739   2.822 -0.7438  1.0116 -0.0184
  428THF    H11 5562   1.575   1.655   2.793 -0.5604  0.3584  0.7827
  428THF    H12 5563   1.711   1.860   2.842 -0.8641 -2.7148 -1.4278
  428THF    H13 5564   1.581   1.938   2.761 -1.5819  0.3540  0.7718
  429THF     O1 5565   4.510   5.322   0.974 -0.0540 -0.0623 -0.1532
  429THF     C2 5566   4.479   5.273   0.843  0.4645  0.0377 -0.6635
  429THF     C3 5567   4.609   5.420   0.954  0.5099  0.2849  0.0938
  429THF     H4 5568   4.431   5.351   0.785  0.2158 -0.3844 -0.6733
  429THF     H5 5569   4.415   5.182   0.843 -0.8136 -0.7400 -1.9696
  429THF     H6 5570   4.560   5.512   0.921  0.0580 -2.4408  0.7289
  429THF     H7 5571   4.674   5.442   1.047  1.3935  0.1432  1.2042
  429THF     C8 5572   4.693   5.362   0.839  0.3628  0.4917  0.3866
  429THF     C9 5573   4.614   5.251   0.774  0.0624  0.0736  0.3150
  429THF    H10 5574   4.792   5.329   0.864 -2.9751 -0.5181 -0.5528
  429THF    H11 5575   4.705   5.445   0.764  1.3695 -0.2589 -1.8948
  429THF    H12 5576   4.617   5.253   0.670  1.7438 -0.8399  0.5358
  429THF    H13 5577   4.651   5.164   0.813  1.3859  1.5931  2.0488
  430THF     O1 5578   1.188   2.594   0.236  0.2913 -0.3792  0.2706
  430THF     C2 5579   1.147   2.467   0.210 -0.0195 -0.1805 -0.1052
  430THF     C3 5580   1.327   2.578   0.239 -0.2965 -0.5887 -0.3400
  430THF     H4 5581   1.159   2.443   0.105 -1.4188 -2.3701 -0.2146
  430THF     H5 5582   1.044   2.456   0.238 -3.9769 -0.4969  0.9082
  430THF     H6 5583   1.378   2.569   0.146  1.6293 -2.3820  0.1084
  430THF     H7 5584   1.364   2.664   0.295  0.2641 -0.1734  0.7011
  430THF     C8 5585   1.360   2.455   0.320  0.1477 -0.4344 -0.0147
  430THF     C9 5586   1.244   2.362   0.277  0.0094  0.1145  0.5534
  430THF    H10 5587   1.340   2.470   0.424 -1.2555  0.6604  1.9196
  430THF    H11 5588   1.456   2.411   0.305 -0.5561 -1.4354 -0.0019
  430THF    H12 5589   1.281   2.274   0.221  2.4314  1.3601 -1.5965
  430THF    H13 5590   1.206   2.331   0.373 -2.0558 -1.9511  1.5158
  431THF     O1 5591   4.112   3.419   1.846  0.7392 -0.0336  0.5748
  431THF     C2 5592   4.033   3.533   1.893 -0.0623  0.3636 -0.1761
  431THF     C3 5593   4.130   3.453   1.706 -0.5247 -0.1616  0.0421
  431THF     H4 5594   4.098   3.620   1.912  0.1561 -0.9506  2.2753
  431THF     H5 5595   3.976   3.509   1.987 -0.1877 -2.2188  0.6969
  431THF     H6 5596   4.195   3.538   1.679  2.0891 -2.2065 -1.8494
  431THF     H7 5597   4.159   3.366   1.657  2.6754 -0.9561 -1.4549
  431THF     C8 5598   3.989   3.492   1.662 -0.3404  0.1087 -0.2407
  431THF     C9 5599   3.929   3.565   1.787 -0.0860  0.1265 -0.0872
  431THF    H10 5600   3.933   3.399   1.645  1.3282  0.3614 -1.9016
  431THF    H11 5601   3.982   3.552   1.575  0.1997  2.9148 -2.1232
  431THF    H12 5602   3.919   3.678   1.780  1.8632 -2.1003  1.2093
  431THF    H13 5603   3.834   3.519   1.807 -0.5312 -0.6699  1.0307
  432THF     O1 5604   4.406   2.732   0.650 -0.0135  0.2859 -0.1273
  432THF     C2 5605   4.380   2.644   0.543 -0.1090  0.4294  0.3762
  432THF     C3 5606   4.279   2.754   0.708  0.7147  0.2626 -0.1268
  432THF     H4 5607   4.390   2.550   0.575  1.6239  0.8593  1.0648
  432THF     H5 5608   4.462   2.657   0.469 -0.4898 -2.1375 -0.7427
  432THF     H6 5609   4.288   2.727   0.819  1.4684  0.3432  2.1673
  432THF     H7 5610   4.277   2.862   0.693 -0.6405  0.0054  0.1210
  432THF     C8 5611   4.171   2.667   0.630 -0.9885 -0.3547  0.0391
  432THF     C9 5612   4.238   2.673   0.497 -0.2379 -0.3416  0.0539
  432THF    H10 5613   4.066   2.711   0.628  0.3742 -1.1003 -2.6836
  432THF    H11 5614   4.156   2.562   0.657 -2.5341  1.7630 -1.4846
  432THF    H12 5615   4.198   2.604   0.419  0.2939  0.0466  1.9341
  432THF    H13 5616   4.234   2.770   0.453 -2.0976  1.4414  1.7089
  433THF     O1 5617   5.336   2.123   5.351  0.1101  0.5552  0.0072
  433THF     C2 5618   5.291   2.007   5.293 -0.8301 -0.0562 -0.0940
  433THF     C3 5619   5.435   2.185   5.272  0.2721 -0.0952  0.5811
  433THF     H4 5620   5.200   2.036   5.242 -0.8608  0.4622  2.0464
  433THF     H5 5621   5.270   1.933   5.362 -1.0346  3.9043 -0.8060
  433THF     H6 5622   5.404   2.284   5.253  1.5681 -1.9496 -0.8180
  433THF     H7 5623   5.529   2.182   5.316 -0.9048  1.2099 -1.5866
  433THF     C8 5624   5.441   2.101   5.146  0.3148 -0.5335  0.0011
  433THF     C9 5625   5.393   1.967   5.194  0.0186  0.0963 -0.1047
  433THF    H10 5626   5.548   2.111   5.104  0.6051  1.6479  0.3032
  433THF    H11 5627   5.378   2.133   5.065 -0.3579 -0.5580  0.6380
  433THF    H12 5628   5.351   1.908   5.114  2.1263  0.9324 -2.8433
  433THF    H13 5629   5.473   1.917   5.242 -2.0528 -3.8350 -0.3094
  434THF     O1 5630   1.641   0.332   1.490 -0.8835 -0.3879 -0.4114
  434THF     C2 5631   1.665   0.191   1.489 -0.2832 -0.5256 -0.5701
  434THF     C3 5632   1.673   0.382   1.359 -0.1441  0.3109  0.7933
  434THF     H4 5633   1.583   0.134   1.446  0.5629  0.9520 -1.2475
  434THF     H5 5634   1.677   0.145   1.589  3.2239  0.9956  0.9516
  434THF     H6 5635   1.589   0.358   1.289 -1.7403  2.5390 -0.1980
  434THF     H7 5636   1.702   0.488   1.360 -1.9811  2.7212  0.2262
  434THF     C8 5637   1.796   0.305   1.315  0.3911  0.6297  0.0363
  434THF     C9 5638   1.792   0.182   1.411  0.3113 -0.1566  0.3627
  434THF    H10 5639   1.889   0.358   1.331 -0.4910 -1.6160  0.0438
  434THF    H11 5640   1.795   0.273   1.203  1.6408  0.2628 -0.0445
  434THF    H12 5641   1.784   0.082   1.364  3.1885 -1.3612  0.4880
  434THF    H13 5642   1.877   0.182   1.478  2.4173  1.2045 -0.6328
  435THF     O1 5643   0.640   5.348   4.394  0.1172 -0.0642  0.0352
  435THF     C2 5644   0.647   5.227   4.323  0.0291  0.3873 -0.0945
  435THF     C3 5645   0.603   5.456   4.304  0.1903 -0.9551  0.6333
  435THF     H4 5646   0.548   5.183   4.327 -0.9948 -2.0081 -2.4291
  435THF     H5 5647   0.719   5.157   4.369  0.4331  2.5694 -3.3630
  435THF     H6 5648   0.502   5.497   4.323 -1.0952  0.7689 -1.9328
  435THF     H7 5649   0.675   5.543   4.308 -0.5138 -0.1193  1.8316
  435THF     C8 5650   0.614   5.396   4.165 -0.6750 -0.3313  0.2488
  435THF     C9 5651   0.690   5.268   4.185 -0.0297  0.0468  0.6190
  435THF    H10 5652   0.661   5.458   4.091 -0.6265 -1.6383  1.7389
  435THF    H11 5653   0.514   5.371   4.128  1.7564 -0.4733  0.5728
  435THF    H12 5654   0.662   5.208   4.101  1.0968 -1.4226  0.6231
  435THF    H13 5655   0.795   5.278   4.178 -0.4036  1.7741  2.5055
  436THF     O1 5656   1.255   1.165   3.571  0.5369  0.7014 -0.1375
  436THF     C2 5657   1.201   1.084   3.673 -0.1998  0.3724 -0.3363
  436THF     C3 5658   1.245   1.309   3.604 -0.7009 -0.8152  0.3815
  436THF     H4 5659   1.248   0.989   3.668 -0.0158 -0.3134  1.5621
  436THF     H5 5660   1.100   1.075   3.642  0.5038  4.2275  1.3730
  436THF     H6 5661   1.314   1.372   3.545 -4.8031  0.3922 -4.5169
  436THF     H7 5662   1.149   1.353   3.577 -0.2296  0.2385 -3.4855
  436THF     C8 5663   1.271   1.310   3.753  0.0733  0.3395 -0.9359
  436THF     C9 5664   1.211   1.169   3.805  0.0016  0.1572  0.0063
  436THF    H10 5665   1.232   1.395   3.801 -1.1132 -0.9259 -0.7148
  436THF    H11 5666   1.379   1.310   3.777 -1.0145  0.6143 -1.5486
  436THF    H12 5667   1.270   1.112   3.875 -1.7577 -0.9914 -0.9846
  436THF    H13 5668   1.114   1.167   3.853 -1.3538  1.0723  3.3601
  437THF     O1 5669   0.789   1.314   1.758 -0.4319 -0.2645 -0.5293
  437THF     C2 5670   0.733   1.215   1.839  0.0007  0.0268  0.2314
  437THF     C3 5671   0.772   1.438   1.823 -0.6038  0.1034 -0.1896
  437THF     H4 5672   0.760   1.113   1.807 -1.1660 -0.4109  0.0561
  437THF     H5 5673   0.627   1.223   1.819  0.6269  1.0731 -2.5266
  437THF     H6 5674   0.833   1.509   1.775  3.2068 -0.9480  2.5523
  437THF     H7 5675   0.671   1.480   1.822 -2.7727  0.5729 -0.3030
  437THF     C8 5676   0.812   1.401   1.965 -0.6177  0.4629  0.7827
  437THF     C9 5677   0.772   1.261   1.983  0.2975 -0.5285  0.3587
  437THF    H10 5678   0.769   1.462   2.038  0.3641 -1.9349  0.5792
  437THF    H11 5679   0.920   1.410   1.982 -2.4595  0.0922 -0.1980
  437THF    H12 5680   0.862   1.215   2.027  0.8816  1.3388 -0.8984
  437THF    H13 5681   0.680   1.251   2.038  1.5647  0.8131  2.0353
  438THF     O1 5682   4.358   3.277   3.779  0.5480 -0.0885 -0.1756
  438THF     C2 5683   4.349   3.283   3.642  0.4802  0.5338 -0.2923
  438THF     C3 5684   4.389   3.407   3.830  0.9076  0.1917  0.1610
  438THF     H4 5685   4.289   3.202   3.598  0.8392 -0.5075 -0.7615
  438THF     H5 5686   4.443   3.252   3.601 -0.3265 -1.6660 -0.5074
  438THF     H6 5687   4.311   3.428   3.901 -0.5959  2.6908  2.1689
  438THF     H7 5688   4.481   3.404   3.888  0.1006  0.8439  1.7591
  438THF     C8 5689   4.398   3.511   3.713 -0.0786 -0.2459 -0.0192
  438THF     C9 5690   4.323   3.435   3.611 -0.1669  0.3554 -0.2944
  438THF    H10 5691   4.499   3.543   3.687  3.0675 -1.4389 -2.1792
  438THF    H11 5692   4.348   3.599   3.739  2.1649 -0.2510  0.4085
  438THF    H12 5693   4.217   3.443   3.628  0.7359  0.4040 -1.1378
  438THF    H13 5694   4.347   3.459   3.508  2.9575  1.6158  0.3503
  439THF     O1 5695   2.751   2.764   0.068 -0.1306 -0.6993  0.1481
  439THF     C2 5696   2.724   2.628   0.083  0.3002 -0.1631 -0.3797
  439THF     C3 5697   2.786   2.817   0.197 -0.0384  0.3644  0.3880
  439THF     H4 5698   2.750   2.586  -0.012  0.1085  0.4367  0.4981
  439THF     H5 5699   2.611   2.602   0.091  1.3311 -0.1738 -0.6099
  439THF     H6 5700   2.840   2.909   0.202  2.4012 -0.8398  1.0799
  439THF     H7 5701   2.690   2.842   0.245  2.6192  0.8968 -2.2788
  439THF     C8 5702   2.874   2.706   0.263  1.1428  0.7276 -0.4757
  439THF     C9 5703   2.811   2.580   0.203 -0.4782 -0.6982  0.4895
  439THF    H10 5704   2.870   2.704   0.369  3.7094 -1.8635  0.4338
  439THF    H11 5705   2.974   2.733   0.243 -2.2056  1.5303 -2.0959
  439THF    H12 5706   2.887   2.502   0.172 -0.1040  0.6000  0.5437
  439THF    H13 5707   2.767   2.527   0.284  1.7825 -0.4320  4.1630
  440THF     O1 5708   2.775   5.267   3.648  0.3376 -0.5575  0.1296
  440THF     C2 5709   2.697   5.192   3.734  0.2393 -0.0370  0.3443
  440THF     C3 5710   2.736   5.408   3.639  0.1152  0.0286 -0.6312
  440THF     H4 5711   2.750   5.134   3.804 -3.9164 -0.6314 -0.4854
  440THF     H5 5712   2.637   5.128   3.669 -0.4777 -0.5276 -0.5895
  440THF     H6 5713   2.815   5.465   3.684  2.0871  1.5618 -0.3687
  440THF     H7 5714   2.715   5.432   3.535  0.9609 -2.7317  0.4558
  440THF     C8 5715   2.605   5.413   3.718 -0.5968  0.0063  0.1734
  440THF     C9 5716   2.614   5.292   3.811  0.2019 -0.0767 -0.5016
  440THF    H10 5717   2.519   5.385   3.653  1.5627  3.5820 -1.5639
  440THF    H11 5718   2.589   5.516   3.765 -0.0598 -0.8406 -3.5262
  440THF    H12 5719   2.666   5.327   3.898 -2.6085  1.8274  0.7726
  440THF    H13 5720   2.518   5.256   3.848  0.5507  1.3822 -0.0549
  441THF     O1 5721   3.886   3.409   1.307  0.1428 -0.0537 -0.9181
  441THF     C2 5722   3.929   3.272   1.317 -0.1639  0.1170 -0.3777
  441THF     C3 5723   3.999   3.485   1.267  0.2356  0.2311  0.6171
  441THF     H4 5724   3.861   3.201   1.266 -1.8033  1.3321 -0.9594
  441THF     H5 5725   3.929   3.236   1.431 -0.0727 -1.0387  6.6017
  441THF     H6 5726   3.986   3.521   1.166  1.5388 -0.6051  1.5662
  441THF     H7 5727   4.016   3.576   1.327 -0.2677 -3.5719 -2.1899
  441THF     C8 5728   4.122   3.399   1.276 -0.6046  0.3117  0.5553
  441THF     C9 5729   4.064   3.264   1.242  0.9019  0.0894  0.1090
  441THF    H10 5730   4.162   3.404   1.377  1.1512 -0.3315  0.7513
  441THF    H11 5731   4.190   3.435   1.199 -0.3251 -0.2012  2.1774
  441THF    H12 5732   4.042   3.251   1.135  0.1193 -1.5673  2.2100
  441THF    H13 5733   4.131   3.186   1.279  1.1797 -1.9624  1.9019
  442THF     O1 5734   5.304   2.926   1.829 -0.2760  0.1004  0.0832
  442THF     C2 5735   5.434   2.884   1.784 -0.1074 -0.6272 -0.2295
  442THF     C3 5736   5.315   2.956   1.971 -0.1287 -0.0242  0.0618
  442THF     H4 5737   5.444   2.936   1.691 -1.4049  2.2725  3.6619
  442THF     H5 5738   5.439   2.780   1.754 -1.6923 -0.1154 -1.0654
  442THF     H6 5739   5.312   3.062   1.985 -1.1224  0.8007 -2.4012
  442THF     H7 5740   5.241   2.898   2.021  0.5451 -3.9417 -0.0266
  442THF     C8 5741   5.453   2.905   2.018  0.1322 -0.0586  0.1363
  442THF     C9 5742   5.535   2.916   1.892 -0.4323  0.0616  0.4423
  442THF    H10 5743   5.459   2.803   2.063 -1.1466  0.2529  3.2558
  442THF    H11 5744   5.491   2.973   2.097  1.1844  2.3148  1.7607
  442THF    H12 5745   5.580   3.011   1.882  2.0404 -0.4721  0.8538
  442THF    H13 5746   5.607   2.840   1.899 -4.9401 -3.2531  1.3025
  443THF     O1 5747   3.624   3.537   1.502  0.0358  0.2307  0.0957
  443THF     C2 5748   3.536   3.619   1.575 -0.2487 -0.3245 -0.5742
  443THF     C3 5749   3.634   3.412   1.558  0.0373 -1.5646 -0.2936
  443THF     H4 5750   3.502   3.704   1.525 -0.7393 -1.7218  3.0331
  443THF     H5 5751   3.593   3.644   1.665 -0.2974 -0.1430 -0.3835
  443THF     H6 5752   3.665   3.344   1.478 -0.0866  1.2913  0.0075
  443THF     H7 5753   3.698   3.424   1.649  1.3029 -0.8093  1.3826
  443THF     C8 5754   3.486   3.383   1.595  0.0734  0.6477 -0.0823
  443THF     C9 5755   3.421   3.523   1.593  1.1331 -0.0913  0.1388
  443THF    H10 5756   3.463   3.329   1.694 -0.9422 -1.2214 -1.0039
  443THF    H11 5757   3.443   3.313   1.525  1.4018  0.6608  1.8547
  443THF    H12 5758   3.350   3.536   1.511 -1.6127 -0.6874 -1.3786
  443THF    H13 5759   3.372   3.543   1.689  2.9264  0.0466  0.3021
  444THF     O1 5760   5.474   4.655   5.377 -0.1626  0.6569 -0.0876
  444THF     C2 5761   5.367   4.679   5.297  0.2342 -0.4480 -0.0830
  444THF     C3 5762   5.589   4.720   5.330 -0.2944  0.0881  1.0917
  444THF     H4 5763   5.333   4.779   5.312 -0.6533  1.6243  0.9394
  444THF     H5 5764   5.291   4.610   5.321  1.0638 -0.9475 -0.1071
  444THF     H6 5765   5.576   4.822   5.371 -0.0344 -0.3810 -1.3124
  444THF     H7 5766   5.684   4.676   5.362  1.7319 -0.6559  1.1959
  444THF     C8 5767   5.564   4.696   5.177 -0.7741 -0.2594 -0.6186
  444THF     C9 5768   5.417   4.658   5.160  0.3496 -0.4036  0.1148
  444THF    H10 5769   5.629   4.613   5.154  0.3020  1.5362 -2.2831
  444THF    H11 5770   5.588   4.786   5.116  0.0333 -0.5000 -1.5118
  444THF    H12 5771   5.361   4.709   5.082 -0.3203 -0.9817  0.8865
  444THF    H13 5772   5.416   4.553   5.120 -2.3269 -1.6494 -0.8375
  445THF     O1 5773   1.325   1.794   1.612  0.3684  0.1098  0.2430
  445THF     C2 5774   1.247   1.907   1.608 -0.0935 -0.1448  0.2050
  445THF     C3 5775   1.250   1.677   1.628 -0.2231 -0.0823 -1.1411
  445THF     H4 5776   1.193   1.915   1.519 -1.2678 -1.2364  1.6165
  445THF     H5 5777   1.310   1.990   1.638  1.1162 -0.3964 -0.5566
  445THF     H6 5778   1.221   1.637   1.532  1.7061 -1.5775 -1.8810
  445THF     H7 5779   1.304   1.605   1.693 -0.5843 -0.9665 -0.3323
  445THF     C8 5780   1.123   1.730   1.701 -0.8139  0.4370  0.0467
  445THF     C9 5781   1.157   1.878   1.725  0.0859  0.1906  0.2409
  445THF    H10 5782   1.117   1.676   1.794  0.5403  0.7471 -1.0501
  445THF    H11 5783   1.032   1.720   1.643 -0.2161  2.6034  0.2166
  445THF    H12 5784   1.073   1.948   1.701  1.8458  1.6886  0.5422
  445THF    H13 5785   1.203   1.895   1.819  2.6473  2.0280 -0.2995
  446THF     O1 5786   1.609   1.880   4.322  0.2821  0.0140  0.2154
  446THF     C2 5787   1.579   2.014   4.286 -0.0321 -0.6918 -0.0037
  446THF     C3 5788   1.489   1.808   4.302 -0.4435  0.8681 -0.2288
  446THF     H4 5789   1.676   2.070   4.261 -0.4859 -0.3014 -1.9410
  446THF     H5 5790   1.530   2.060   4.372  2.1316 -2.3816  2.4478
  446THF     H6 5791   1.505   1.699   4.318 -1.0616  0.1123 -0.6782
  446THF     H7 5792   1.408   1.856   4.364 -1.6474  1.0006 -1.3825
  446THF     C8 5793   1.449   1.854   4.158 -0.8853 -0.0544 -0.0915
  446THF     C9 5794   1.493   2.004   4.164  0.3361  0.5800  0.7892
  446THF    H10 5795   1.343   1.840   4.143  2.0289  0.5942  0.7267
  446THF    H11 5796   1.509   1.800   4.083  3.6531 -0.8530  1.3090
  446THF    H12 5797   1.528   2.043   4.068 -1.3242 -1.0014  0.8387
  446THF    H13 5798   1.397   2.061   4.184  0.0374 -0.5376 -0.1509
  447THF     O1 5799   4.066   2.463   3.663 -0.1553 -0.1210  0.3073
  447THF     C2 5800   3.955   2.452   3.758 -0.5648 -0.2781  0.1475
  447THF     C3 5801   4.171   2.383   3.710 -0.5249 -1.0252 -0.2603
  447THF     H4 5802   3.861   2.497   3.718  0.3640  0.4914 -1.5856
  447THF     H5 5803   3.990   2.500   3.850  3.9032  2.5986  2.2737
  447THF     H6 5804   4.233   2.365   3.621 -0.8656  1.7348  1.6866
  447THF     H7 5805   4.216   2.447   3.787  1.1114 -0.9205  0.2053
  447THF     C8 5806   4.092   2.265   3.764  0.0255  0.3270  0.0703
  447THF     C9 5807   3.941   2.304   3.770 -0.7849  0.3304  0.2783
  447THF    H10 5808   4.128   2.235   3.861 -1.3738 -0.4045  1.4313
  447THF    H11 5809   4.098   2.179   3.698  2.1944  2.8149 -0.1408
  447THF    H12 5810   3.880   2.264   3.685  2.0243  3.0649 -1.3366
  447THF    H13 5811   3.889   2.281   3.862  2.0186 -0.1767  0.5833
  448THF     O1 5812   3.062   2.080   5.401 -0.2918 -0.0019  0.0034
  448THF     C2 5813   3.024   1.990   5.298 -0.2278  0.0328 -0.0290
  448THF     C3 5814   3.184   2.145   5.366 -0.6456  0.4359 -0.5814
  448THF     H4 5815   2.971   2.047   5.219 -0.4548  1.3385 -0.0016
  448THF     H5 5816   2.962   1.905   5.334 -1.2024 -0.9824  1.3340
  448THF     H6 5817   3.160   2.225   5.300 -2.1074 -1.2109  0.4017
  448THF     H7 5818   3.243   2.193   5.445  0.9546  0.2321 -0.6785
  448THF     C8 5819   3.258   2.034   5.296  0.1280 -0.3312  0.1709
  448THF     C9 5820   3.156   1.945   5.236  0.0537  0.3305  0.1876
  448THF    H10 5821   3.312   1.974   5.376  0.8796  0.4411  1.5868
  448THF    H11 5822   3.328   2.075   5.221  1.2725 -0.3018 -1.1913
  448THF    H12 5823   3.153   1.961   5.129 -0.3340  0.6866  3.2335
  448THF    H13 5824   3.174   1.840   5.259  1.0736  0.2082  0.1930
  449THF     O1 5825   5.063   5.055   1.720  0.5417 -0.0057 -0.2919
  449THF     C2 5826   5.114   5.165   1.642  0.0834  0.6856  0.1206
  449THF     C3 5827   4.945   4.998   1.654 -0.2978 -0.0164  0.1879
  449THF     H4 5828   5.219   5.172   1.659 -1.4835 -1.4799 -1.0552
  449THF     H5 5829   5.057   5.255   1.668 -2.5987 -0.3472  0.3512
  449THF     H6 5830   4.943   4.893   1.665 -3.5377  1.6820 -0.3976
  449THF     H7 5831   4.845   5.020   1.695 -3.0438  0.4557 -0.0166
  449THF     C8 5832   4.957   5.041   1.505 -0.3685  0.1708  0.0752
  449THF     C9 5833   5.090   5.117   1.501 -0.0100  0.0588 -0.0504
  449THF    H10 5834   4.880   5.111   1.492  0.6482 -3.1085  0.4190
  449THF    H11 5835   4.932   4.961   1.437 -5.7292 -1.9501 -0.9798
  449THF    H12 5836   5.176   5.058   1.459 -0.5212 -0.1292  0.0276
  449THF    H13 5837   5.084   5.206   1.433  0.7162  2.1022  0.3988
  450THF     O1 5838   0.040   0.861   2.860 -0.0989 -0.3475 -0.6327
  450THF     C2 5839   0.078   0.719   2.868  0.6238  0.0404  0.3994
  450THF     C3 5840   0.167   0.929   2.856  0.1276  0.7699 -0.1799
  450THF     H4 5841   0.019   0.649   2.816 -0.6325  1.9992  0.1557
  450THF     H5 5842   0.093   0.677   2.976  0.4727  0.8591 -0.5714
  450THF     H6 5843   0.158   1.034   2.821  2.4017  1.3118 -2.0797
  450THF     H7 5844   0.210   0.939   2.955  2.8796 -0.3953  0.5065
  450THF     C8 5845   0.251   0.843   2.761 -0.0064  0.9436 -0.3402
  450THF     C9 5846   0.221   0.707   2.828 -0.4122  0.4453 -0.4893
  450THF    H10 5847   0.355   0.871   2.764 -2.7069 -0.7526 -0.7371
  450THF    H11 5848   0.222   0.846   2.653 -1.9408  1.1852 -2.8320
  450THF    H12 5849   0.245   0.612   2.777 -0.8090  1.2877 -0.2135
  450THF    H13 5850   0.285   0.714   2.917  0.6618  1.8531 -1.0362
  451THF     O1 5851   3.911   3.207   1.887 -0.6697 -0.5608  0.1922
  451THF     C2 5852   3.857   3.095   1.828 -0.3248  1.0951 -0.3774
  451THF     C3 5853   3.833   3.233   1.998 -0.9274  0.4904  0.0769
  451THF     H4 5854   3.904   3.003   1.882  0.8967 -2.0402  3.3524
  451THF     H5 5855   3.879   3.094   1.719  0.6622 -2.2379  0.2124
  451THF     H6 5856   3.867   3.198   2.088  1.6043  1.7653 -1.2047
  451THF     H7 5857   3.838   3.339   2.013  0.2540 -0.7741 -1.7999
  451THF     C8 5858   3.693   3.193   1.975  0.2400 -0.0554  0.3610
  451THF     C9 5859   3.705   3.117   1.849  0.3725 -0.1203 -0.7144
  451THF    H10 5860   3.626   3.276   1.956  3.4321 -3.7234 -0.0916
  451THF    H11 5861   3.646   3.140   2.057 -1.1540 -0.1384 -0.5914
  451THF    H12 5862   3.639   3.025   1.849  0.9418 -0.6247 -1.3138
  451THF    H13 5863   3.664   3.177   1.761 -0.4617  1.4617  0.4089
  452THF     O1 5864   1.148   1.764   2.398  0.3348  0.4137 -0.2965
  452THF     C2 5865   1.224   1.781   2.514 -0.3356 -0.0152 -0.5684
  452THF     C3 5866   1.140   1.883   2.327 -0.4109 -0.6148 -0.2181
  452THF     H4 5867   1.324   1.735   2.507  1.6835 -0.0125  0.4732
  452THF     H5 5868   1.177   1.728   2.595 -2.6191  2.0810 -1.0376
  452THF     H6 5869   1.166   1.870   2.221 -1.3780  1.3831  0.0398
  452THF     H7 5870   1.029   1.921   2.337 -0.9257 -0.9281 -1.4396
  452THF     C8 5871   1.240   1.982   2.395 -0.3510  0.6922  0.3446
  452THF     C9 5872   1.229   1.932   2.542  0.9489  0.0020  0.2567
  452THF    H10 5873   1.213   2.092   2.384  0.5004 -0.8821  1.1553
  452THF    H11 5874   1.343   1.973   2.351  0.3136 -0.2680 -1.5105
  452THF    H12 5875   1.312   1.971   2.598  2.7595  1.2740 -0.8134
  452THF    H13 5876   1.136   1.957   2.588  5.5975  1.2762 -0.1911
  453THF     O1 5877   2.831   1.595   2.645  0.0917 -0.8221 -0.1358
  453THF     C2 5878   2.748   1.502   2.576 -0.2102 -0.9492  0.5899
  453THF     C3 5879   2.747   1.681   2.718 -0.8741  0.3439  0.3037
  453THF     H4 5880   2.758   1.392   2.612 -1.6418 -2.0542  3.6914
  453THF     H5 5881   2.776   1.501   2.472  0.4746 -1.0266 -3.0348
  453THF     H6 5882   2.735   1.621   2.810 -0.2816  0.1174 -3.2872
  453THF     H7 5883   2.798   1.771   2.736 -1.2776 -0.7935 -2.6084
  453THF     C8 5884   2.616   1.688   2.639 -0.0712 -0.0394  0.1475
  453THF     C9 5885   2.606   1.546   2.596  0.0444 -0.1634  0.3317
  453THF    H10 5886   2.628   1.755   2.551 -0.5220  0.8289  1.2690
  453THF    H11 5887   2.538   1.731   2.687 -0.0711 -1.7842 -2.1023
  453THF    H12 5888   2.569   1.482   2.677  2.3296  0.4610  2.7902
  453THF    H13 5889   2.542   1.528   2.507  0.9218  1.8062 -0.5746
  454THF     O1 5890   4.366   3.020   3.262 -0.1892 -0.2283  0.1010
  454THF     C2 5891   4.312   3.157   3.268 -0.2969 -0.8644 -0.6545
  454THF     C3 5892   4.440   2.998   3.142  0.5082 -0.2750  0.1365
  454THF     H4 5893   4.324   3.211   3.364  0.2542  3.9424  0.5212
  454THF     H5 5894   4.209   3.143   3.238  1.3325 -2.0461 -2.0091
  454THF     H6 5895   4.532   2.952   3.169 -1.9873  2.1554 -0.5922
  454THF     H7 5896   4.388   2.928   3.076 -1.0592  2.3421  3.6330
  454THF     C8 5897   4.467   3.133   3.085  0.1499  0.1155 -0.1913
  454THF     C9 5898   4.388   3.237   3.164  0.1687  0.0388 -0.5709
  454THF    H10 5899   4.426   3.125   2.982 -0.5949  1.5422  1.1523
  454THF    H11 5900   4.565   3.170   3.089 -1.5863  0.5706  1.6564
  454THF    H12 5901   4.455   3.303   3.222  0.7630  1.1978  1.4953
  454THF    H13 5902   4.326   3.301   3.096 -2.5476 -1.0269  0.4191
  455THF     O1 5903   0.985   2.316   5.001  0.3267  0.0783  0.1480
  455THF     C2 5904   0.998   2.356   4.864  0.1499  0.2449  0.2171
  455THF     C3 5905   1.067   2.201   5.027 -0.0678 -0.6500 -0.1974
  455THF     H4 5906   0.996   2.465   4.844  0.2137 -0.3105  3.0224
  455THF     H5 5907   0.918   2.301   4.814 -2.5821 -0.1240  2.2185
  455THF     H6 5908   1.141   2.247   5.091 -1.9341 -1.6616  1.7846
  455THF     H7 5909   1.039   2.114   5.084  1.4456 -0.4670 -0.1736
  455THF     C8 5910   1.143   2.171   4.898  0.6669 -0.0791 -0.2092
  455THF     C9 5911   1.131   2.297   4.821  0.6454  0.2456 -0.7148
  455THF    H10 5912   1.080   2.095   4.845  0.3352  1.2510 -2.1181
  455THF    H11 5913   1.244   2.141   4.926 -1.0468  2.0362  0.3874
  455THF    H12 5914   1.221   2.356   4.838 -2.4370 -0.0908 -0.4223
  455THF    H13 5915   1.130   2.281   4.713 -0.4239 -2.5542 -1.0153
  456THF     O1 5916   1.422   1.143   2.231  0.0624 -0.1416  0.3057
  456THF     C2 5917   1.462   1.221   2.344  0.0912  0.2223 -0.1700
  456THF     C3 5918   1.457   1.008   2.251  0.9645 -0.4639  0.1005
  456THF     H4 5919   1.370   1.279   2.365 -0.7204 -0.7074  0.3440
  456THF     H5 5920   1.550   1.281   2.328  0.8007 -0.6183  1.8427
  456THF     H6 5921   1.355   0.972   2.281  1.8558  1.7368 -1.2445
  456THF     H7 5922   1.492   0.960   2.163 -1.6081 -1.4339  0.6691
  456THF     C8 5923   1.543   1.001   2.374  0.4963 -0.1954 -0.3892
  456THF     C9 5924   1.486   1.117   2.452  0.3354  0.2644 -0.0606
  456THF    H10 5925   1.646   1.002   2.338  1.9169 -2.4808  0.6554
  456THF    H11 5926   1.522   0.910   2.430  0.2452  0.9157  1.8297
  456THF    H12 5927   1.388   1.096   2.491 -0.9806 -0.9904  0.7679
  456THF    H13 5928   1.536   1.153   2.541 -0.5580 -0.9604 -1.7345
  457THF     O1 5929   3.234   3.916   0.125  0.3522 -0.4464  0.4479
  457THF     C2 5930   3.193   3.798   0.070 -0.2774 -0.0358 -0.1208
  457THF     C3 5931   3.366   3.886   0.172  0.4968  0.3472 -0.3795
  457THF     H4 5932   3.226   3.783  -0.028  1.5882  0.3723  2.7118
  457THF     H5 5933   3.087   3.792   0.060  0.2733 -0.8732 -0.7783
  457THF     H6 5934   3.429   3.899   0.090  1.6621  1.3266  0.0791
  457THF     H7 5935   3.388   3.956   0.255  1.4237  1.5117  0.0473
  457THF     C8 5936   3.374   3.740   0.201 -0.0618  0.0692 -0.1282
  457THF     C9 5937   3.235   3.694   0.178 -0.1175 -0.0473  0.2111
  457THF    H10 5938   3.420   3.704   0.293  2.8131  0.9150 -2.5647
  457THF    H11 5939   3.443   3.699   0.127  0.3812 -0.1186  0.8392
  457THF    H12 5940   3.215   3.595   0.154 -0.2948 -0.0118 -0.0337
  457THF    H13 5941   3.178   3.710   0.271 -0.0604 -1.5446  0.5987
  458THF     O1 5942   3.153   3.820   2.636  0.3565  0.3378 -0.6416
  458THF     C2 5943   3.178   3.764   2.506 -0.2948 -0.0396  0.0528
  458THF     C3 5944   3.155   3.725   2.738 -0.0766 -0.0494 -0.1166
  458THF     H4 5945   3.271   3.798   2.460 -0.8570  1.1388 -0.9463
  458THF     H5 5946   3.101   3.790   2.438 -1.4641  0.4687 -0.4619
  458THF     H6 5947   3.196   3.765   2.824 -1.6927  1.0567  0.9263
  458THF     H7 5948   3.049   3.694   2.760 -2.1271  0.9717  2.0107
  458THF     C8 5949   3.238   3.615   2.672  0.5337 -0.0487 -0.0201
  458THF     C9 5950   3.189   3.618   2.530  0.6167 -1.0432  0.1116
  458THF    H10 5951   3.228   3.511   2.712 -2.7052 -3.0568 -0.5317
  458THF    H11 5952   3.343   3.650   2.678  2.6597  0.1600 -0.6022
  458THF    H12 5953   3.250   3.565   2.453  1.2445  0.8555 -1.2778
  458THF    H13 5954   3.089   3.570   2.527 -1.8961  2.1199  0.7482
  459THF     O1 5955   0.729   4.277   1.138 -0.0013 -0.2166  0.2100
  459THF     C2 5956   0.696   4.244   1.004 -0.6649 -0.2505  0.0814
  459THF     C3 5957   0.682   4.410   1.160 -0.6422 -0.1142 -0.1048
  459THF     H4 5958   0.704   4.141   0.985  2.8134 -0.4060  0.0019
  459THF     H5 5959   0.769   4.301   0.939 -0.8171  1.5675  0.8806
  459THF     H6 5960   0.660   4.432   1.266 -0.6573  1.9342  2.0982
  459THF     H7 5961   0.753   4.484   1.124 -2.7023 -0.9170  0.2197
  459THF     C8 5962   0.549   4.416   1.081 -0.4439  0.2178 -0.5046
  459THF     C9 5963   0.550   4.291   1.000 -0.2160  0.1079 -0.1000
  459THF    H10 5964   0.569   4.500   1.016  1.7478 -3.4491 -0.8892
  459THF    H11 5965   0.454   4.415   1.139  1.3597 -2.1336 -1.7131
  459THF    H12 5966   0.492   4.216   1.043  0.6687  0.0028  0.4752
  459THF    H13 5967   0.514   4.302   0.896 -0.1360 -0.8662 -0.2829
  460THF     O1 5968   4.079   3.108   4.067 -0.1456  0.0030 -0.1891
  460THF     C2 5969   3.945   3.067   4.062 -0.1159 -0.2273  0.2159
  460THF     C3 5970   4.143   3.099   3.944  0.1505 -0.1301  0.6332
  460THF     H4 5971   3.889   3.115   4.143  0.1708  0.0482  0.7050
  460THF     H5 5972   3.945   2.958   4.077 -0.2764 -1.2273 -0.0217
  460THF     H6 5973   4.235   3.161   3.947 -0.3233  0.2357  0.7684
  460THF     H7 5974   4.171   2.997   3.923  1.2189 -1.0407 -1.0688
  460THF     C8 5975   4.030   3.147   3.848  0.5889  0.0232  0.5607
  460THF     C9 5976   3.903   3.104   3.917 -0.2016 -0.4308  0.4713
  460THF    H10 5977   4.031   3.100   3.749 -0.8961 -2.0824  1.8826
  460THF    H11 5978   4.036   3.255   3.827  0.4554  1.9429 -1.1100
  460THF    H12 5979   3.815   3.170   3.915 -2.2154 -0.9388  1.1669
  460THF    H13 5980   3.867   3.010   3.875 -4.2835 -0.3264  0.3486
  461THF     O1 5981   3.996   0.702   0.993 -0.1122 -0.4274  0.2999
  461THF     C2 5982   3.989   0.568   1.034 -0.2760  0.1840 -0.2042
  461THF     C3 5983   4.120   0.767   1.019  0.7794 -0.7302  0.5508
  461THF     H4 5984   4.001   0.505   0.945  1.7753 -0.5023  1.5031
  461THF     H5 5985   3.887   0.546   1.080 -1.2463 -0.9288 -0.8852
  461THF     H6 5986   4.178   0.742   0.931 -0.6274 -0.5624  1.1698
  461THF     H7 5987   4.122   0.881   1.030 -3.0932  0.2476  4.2038
  461THF     C8 5988   4.164   0.691   1.142  0.6819 -0.7504 -0.8998
  461THF     C9 5989   4.105   0.552   1.136  0.4362  0.0627  0.5911
  461THF    H10 5990   4.142   0.736   1.240  3.0406  2.1537 -0.6317
  461THF    H11 5991   4.274   0.693   1.134  1.1568 -0.6312  0.7819
  461THF    H12 5992   4.170   0.489   1.077  2.4887 -0.9141  1.2969
  461THF    H13 5993   4.071   0.505   1.228 -3.0967 -0.1728  0.2450
  462THF     O1 5994   5.011   4.959   0.164 -0.0025  0.4059 -0.5277
  462THF     C2 5995   5.146   4.996   0.131  0.1371  0.4489  0.0344
  462THF     C3 5996   4.965   4.872   0.061 -0.0476 -0.1946 -0.7598
  462THF     H4 5997   5.196   5.032   0.221  0.9073 -0.2581 -1.0661
  462THF     H5 5998   5.142   5.076   0.058  1.6140 -0.8173 -1.3840
  462THF     H6 5999   4.883   4.805   0.101 -0.3487 -0.6396  3.5371
  462THF     H7 6000   4.928   4.925  -0.032 -0.5133 -1.2774 -0.5224
  462THF     C8 6001   5.085   4.783   0.034  0.6769  0.1614  0.5093
  462THF     C9 6002   5.202   4.866   0.075 -0.0326 -0.5124  0.2908
  462THF    H10 6003   5.076   4.755  -0.070 -1.6941 -1.4999  1.1663
  462THF    H11 6004   5.067   4.692   0.085  0.6626 -0.7926 -2.1369
  462THF    H12 6005   5.251   4.809   0.163  2.4250  0.2552 -0.4238
  462THF    H13 6006   5.274   4.890  -0.001  1.0286  0.3169 -0.0236
  463THF     O1 6007   2.505   4.960   5.049 -0.3487 -0.2219 -0.0112
  463THF     C2 6008   2.369   4.956   5.077  0.4984  0.3841 -0.0533
  463THF     C3 6009   2.570   4.875   5.143 -0.1891  0.1739 -0.3888
  463THF     H4 6010   2.308   4.977   4.989  1.3501  0.1589 -1.6928
  463THF     H5 6011   2.356   5.031   5.146  0.3529 -0.0682 -0.7739
  463THF     H6 6012   2.636   4.801   5.088 -0.4715  0.6631 -1.2814
  463THF     H7 6013   2.635   4.938   5.205 -1.6557  0.5136 -3.3901
  463THF     C8 6014   2.455   4.810   5.231  0.5386 -0.3362  0.4362
  463THF     C9 6015   2.337   4.828   5.145 -0.0682  0.2845 -0.1619
  463THF    H10 6016   2.441   4.882   5.317 -0.1498  3.2764  2.9037
  463THF    H11 6017   2.475   4.713   5.271  1.4841 -0.4808 -2.2569
  463THF    H12 6018   2.332   4.745   5.077 -0.5558 -1.3356 -0.7094
  463THF    H13 6019   2.245   4.826   5.207  0.1857 -0.5857  1.0545
  464THF     O1 6020   3.283   0.981   5.400 -0.3191 -0.0575 -0.5578
  464THF     C2 6021   3.364   1.050   5.306  0.2766 -0.4423 -0.4363
  464THF     C3 6022   3.373   0.910   5.479 -0.6479 -0.2368  0.5987
  464THF     H4 6023   3.315   1.130   5.253 -0.5496 -1.7207  0.5625
  464THF     H5 6024   3.400   0.980   5.231  0.2608 -0.9070 -0.8077
  464THF     H6 6025   3.328   0.862   5.571  1.2628  3.2472  3.1417
  464THF     H7 6026   3.405   0.819   5.428  1.0129 -1.1362 -2.0465
  464THF     C8 6027   3.479   1.012   5.517  0.0972 -0.2373  0.2596
  464THF     C9 6028   3.488   1.094   5.386 -0.5084 -0.1589 -0.6502
  464THF    H10 6029   3.576   0.966   5.535  0.1873 -1.8231 -1.7233
  464THF    H11 6030   3.442   1.075   5.595  1.0297  0.8453  1.3151
  464THF    H12 6031   3.483   1.207   5.400  0.1804  0.7996 -2.1131
  464THF    H13 6032   3.575   1.077   5.327 -0.0619 -1.2435 -0.0809
  465THF     O1 6033   4.080   3.794   0.190  0.0405  0.3701 -0.0907
  465THF     C2 6034   4.140   3.661   0.203  0.1138  0.1387  0.8255
  465THF     C3 6035   4.070   3.817   0.048 -0.8419 -0.4761  0.3395
  465THF     H4 6036   4.069   3.608   0.264 -0.7896  0.9063 -1.4855
  465THF     H5 6037   4.240   3.673   0.252  1.4296  2.2833  0.0756
  465THF     H6 6038   3.968   3.784   0.026 -0.9222 -1.2914 -0.0983
  465THF     H7 6039   4.086   3.923   0.033 -1.7260  0.4320  0.2777
  465THF     C8 6040   4.171   3.726  -0.018 -0.3013  0.3201  0.4679
  465THF     C9 6041   4.154   3.604   0.062 -0.2663  0.3094  0.0749
  465THF    H10 6042   4.274   3.773  -0.017  2.1015 -0.6809 -0.3462
  465THF    H11 6043   4.151   3.706  -0.131 -1.1479 -0.3288 -1.9066
  465THF    H12 6044   4.068   3.552   0.021 -2.2584 -0.8443 -0.5216
  465THF    H13 6045   4.247   3.554   0.056 -1.4131 -2.5705 -2.1107
  466THF     O1 6046   0.283   5.245   1.353 -0.1122  0.2871 -0.8586
  466THF     C2 6047   0.170   5.266   1.434 -0.1328 -0.0924  0.5828
  466THF     C3 6048   0.247   5.246   1.213 -0.0563  0.5415  0.0205
  466THF     H4 6049   0.179   5.369   1.478 -1.1398  3.9411 -0.9611
  466THF     H5 6050   0.167   5.187   1.515 -1.9734 -0.5589 -0.7337
  466THF     H6 6051   0.330   5.286   1.151 -1.2366  3.9501  0.9779
  466THF     H7 6052   0.246   5.147   1.188 -3.7040 -1.1536  1.3419
  466THF     C8 6053   0.110   5.315   1.210  0.2482 -0.1544 -0.2505
  466THF     C9 6054   0.049   5.275   1.344  0.1472  0.2377  0.0873
  466THF    H10 6055   0.064   5.275   1.124 -0.9285 -0.9402 -1.7878
  466THF    H11 6056   0.108   5.428   1.202 -1.0411  1.1516 -0.8062
  466THF    H12 6057  -0.017   5.355   1.373  0.0542 -0.3318  2.5565
  466THF    H13 6058  -0.006   5.180   1.337 -0.7113  1.7419  1.3342
  467THF     O1 6059   1.049   0.435   3.372  0.5237  0.3994 -0.7417
  467THF     C2 6060   1.079   0.441   3.517 -0.0199 -0.9668  0.7519
  467THF     C3 6061   1.128   0.329   3.316  0.2021 -0.7070  0.9814
  467THF     H4 6062   0.994   0.404   3.581  0.2750 -2.0785  0.0703
  467THF     H5 6063   1.113   0.541   3.546  1.2471  0.3800 -0.2587
  467THF     H6 6064   1.085   0.258   3.245 -0.1829 -2.4767  0.9532
  467THF     H7 6065   1.208   0.374   3.266 -0.2056  1.4211  1.5543
  467THF     C8 6066   1.179   0.251   3.434  0.0528  0.6972  0.2931
  467THF     C9 6067   1.202   0.349   3.541  0.3681  0.2149 -0.3493
  467THF    H10 6068   1.273   0.204   3.400 -1.6464 -0.4066 -0.6856
  467THF    H11 6069   1.119   0.167   3.463  0.1268 -0.2190  0.0053
  467THF    H12 6070   1.214   0.310   3.645 -0.8189 -1.9633 -1.3653
  467THF    H13 6071   1.292   0.406   3.523 -1.7221  1.6087  0.0130
  468THF     O1 6072   3.582   3.864   1.817 -0.4456 -0.0484  0.7081
  468THF     C2 6073   3.704   3.871   1.893  0.7727 -0.0444  0.5207
  468THF     C3 6074   3.547   3.993   1.774 -0.0256  0.1232 -0.5561
  468THF     H4 6075   3.787   3.877   1.821 -2.1165 -0.4825  0.7438
  468THF     H5 6076   3.712   3.778   1.948 -0.6133  0.3543  0.1493
  468THF     H6 6077   3.592   4.022   1.672  2.0753 -1.9694 -2.0016
  468THF     H7 6078   3.438   4.007   1.762  0.7554 -1.5365 -1.0112
  468THF     C8 6079   3.597   4.084   1.894  0.0760 -0.0364  0.5404
  468THF     C9 6080   3.674   3.992   1.984  0.0010  0.6767 -0.0892
  468THF    H10 6081   3.504   4.116   1.946  1.2001 -3.4514  0.6559
  468THF    H11 6082   3.661   4.166   1.858  1.7334  0.7725 -2.9514
  468THF    H12 6083   3.751   4.049   2.029 -1.1166  1.4762 -0.6068
  468THF    H13 6084   3.621   3.943   2.064  1.4448 -1.7208  0.9761
  469THF     O1 6085   3.499   0.237   0.762  0.2606  0.5452  0.4257
  469THF     C2 6086   3.449   0.342   0.841 -0.2752  0.7091  0.2494
  469THF     C3 6087   3.564   0.143   0.851 -0.3057  0.4524  0.1210
  469THF     H4 6088   3.361   0.304   0.886 -0.3956  1.3902 -1.3359
  469THF     H5 6089   3.421   0.426   0.776 -0.7524 -0.9807 -0.0104
  469THF     H6 6090   3.490   0.077   0.892  0.0267 -0.4783  2.7257
  469THF     H7 6091   3.640   0.078   0.797 -1.5911 -0.1557 -0.8355
  469THF     C8 6092   3.611   0.225   0.972 -0.0068 -0.2545 -0.5371
  469THF     C9 6093   3.560   0.362   0.944  0.0939  0.7838 -0.1031
  469THF    H10 6094   3.721   0.225   0.987 -1.8738 -0.9690 -0.0397
  469THF    H11 6095   3.578   0.187   1.074 -0.7948 -1.8535 -1.6557
  469THF    H12 6096   3.521   0.406   1.031 -0.4324 -1.0375 -1.7748
  469THF    H13 6097   3.652   0.412   0.901  3.2293  0.4597  0.3685
  470THF     O1 6098   4.315   4.502   3.440  0.2596  0.1080 -0.0252
  470THF     C2 6099   4.221   4.490   3.553 -0.0063 -0.4607  0.7024
  470THF     C3 6100   4.450   4.490   3.492 -0.3074 -0.1101  0.0980
  470THF     H4 6101   4.174   4.393   3.550 -0.1635 -0.5720 -0.8761
  470THF     H5 6102   4.143   4.563   3.562  0.7865 -0.5866  1.4050
  470THF     H6 6103   4.484   4.389   3.480 -2.4351 -0.0569 -0.8702
  470THF     H7 6104   4.517   4.558   3.438 -0.6656 -2.9843  0.6095
  470THF     C8 6105   4.441   4.534   3.632 -0.3490  0.4887  0.3135
  470THF     C9 6106   4.310   4.482   3.672 -0.0318  0.5691 -0.6898
  470THF    H10 6107   4.447   4.642   3.647 -0.6931 -1.3052 -0.5052
  470THF    H11 6108   4.526   4.502   3.690 -0.7234  0.2264  0.4927
  470THF    H12 6109   4.328   4.384   3.707  1.2968  0.7737 -0.1391
  470THF    H13 6110   4.261   4.542   3.747  1.2069  0.4057 -1.6253
  471THF     O1 6111   0.541   1.961   4.669 -0.2374  0.0212  0.7595
  471THF     C2 6112   0.527   1.860   4.571 -0.1514 -0.5270 -0.0121
  471THF     C3 6113   0.490   2.080   4.609 -0.2951 -0.0306  0.9012
  471THF     H4 6114   0.445   1.792   4.599  1.1658  0.1123  0.0279
  471THF     H5 6115   0.615   1.807   4.572  1.0890  0.2419 -0.4715
  471THF     H6 6116   0.385   2.083   4.627 -1.0601  0.2911  2.1554
  471THF     H7 6117   0.535   2.163   4.642 -3.5431  2.9758 -2.1887
  471THF     C8 6118   0.525   2.077   4.462 -0.0118 -0.6643  0.5685
  471THF     C9 6119   0.517   1.932   4.434  0.2456 -0.2469  0.0770
  471THF    H10 6120   0.621   2.110   4.449 -0.8758  0.6531 -0.3374
  471THF    H11 6121   0.464   2.139   4.394  2.1252 -0.6615  1.0307
  471THF    H12 6122   0.424   1.908   4.382  2.0792 -1.1464 -1.5111
  471THF    H13 6123   0.589   1.889   4.360 -0.0201  0.4851 -1.2006
  472THF     O1 6124   4.223   5.041   3.674 -0.0067 -0.1847  0.1945
  472THF     C2 6125   4.261   4.901   3.677  0.1175  0.0041 -0.0628
  472THF     C3 6126   4.083   5.063   3.675  0.3858 -0.3851 -0.2154
  472THF     H4 6127   4.278   4.868   3.776  0.9859 -3.0420 -1.8535
  472THF     H5 6128   4.345   4.876   3.615  0.2304 -0.0518 -1.9207
  472THF     H6 6129   4.037   5.069   3.775 -2.4343  1.6377  0.6018
  472THF     H7 6130   4.054   5.154   3.630  1.3476  2.2401  0.9007
  472THF     C8 6131   4.031   4.939   3.594  0.3855 -0.0439  1.1449
  472THF     C9 6132   4.130   4.830   3.629 -0.7001  0.2107 -0.1238
  472THF    H10 6133   4.029   4.958   3.488 -1.8847  0.4053  0.7254
  472THF    H11 6134   3.931   4.926   3.631  0.6604  1.0236 -2.5869
  472THF    H12 6135   4.084   4.763   3.701  1.1259  0.6480 -3.9087
  472THF    H13 6136   4.155   4.767   3.544 -2.0122 -2.2842  1.8417
  473THF     O1 6137   2.209   0.782   3.871  0.3552  0.6156  0.8459
  473THF     C2 6138   2.304   0.841   3.958 -0.9020 -0.1589 -0.0727
  473THF     C3 6139   2.227   0.840   3.748 -0.2095  0.7150  0.3776
  473THF     H4 6140   2.403   0.798   3.929  0.5937  1.3839  0.8809
  473THF     H5 6141   2.297   0.825   4.060  1.0879 -1.2182  1.5212
  473THF     H6 6142   2.320   0.813   3.694  1.4787  1.1329  0.3150
  473THF     H7 6143   2.149   0.818   3.683 -1.2588 -0.0926  0.2412
  473THF     C8 6144   2.239   0.985   3.770  0.1578  0.2736 -0.4666
  473THF     C9 6145   2.286   0.985   3.914 -0.5998 -0.1071 -0.2596
  473THF    H10 6146   2.134   1.017   3.752  0.2508  2.2115  2.3129
  473THF    H11 6147   2.304   1.043   3.705 -1.7044 -0.5155 -1.2132
  473THF    H12 6148   2.371   1.049   3.934  0.7414 -0.4508  1.9892
  473THF    H13 6149   2.202   1.014   3.979 -1.1885  1.2406  0.7967
  474THF     O1 6150   4.111   0.316   4.450 -0.7974 -0.0652 -0.5431
  474THF     C2 6151   4.103   0.395   4.339 -0.0582 -0.5176  0.1241
  474THF     C3 6152   4.164   0.401   4.560 -0.7382 -0.0622  0.7429
  474THF     H4 6153   4.011   0.452   4.335  2.9544 -1.0215  0.0267
  474THF     H5 6154   4.101   0.334   4.248 -0.4646 -1.4439  1.4712
  474THF     H6 6155   4.096   0.481   4.594  0.5523  3.3976  0.2292
  474THF     H7 6156   4.196   0.345   4.651 -0.6416  2.0028 -0.6633
  474THF     C8 6157   4.280   0.467   4.491 -1.2421 -0.1330  0.3885
  474THF     C9 6158   4.215   0.498   4.353 -0.7165  0.6083 -0.3377
  474THF    H10 6159   4.361   0.395   4.486  1.7994  0.5219  1.1862
  474THF    H11 6160   4.303   0.561   4.544 -0.3334 -1.3084  1.9527
  474THF    H12 6161   4.175   0.599   4.348 -1.2826  2.5457  0.7897
  474THF    H13 6162   4.286   0.477   4.277 -1.5231 -0.3248 -0.1237
  475THF     O1 6163   5.021   2.492   1.914 -0.3242  0.5949  0.1289
  475THF     C2 6164   5.046   2.397   1.813 -0.0614 -0.8727  0.6465
  475THF     C3 6165   5.112   2.600   1.916 -0.6869 -0.4365  0.0886
  475THF     H4 6166   4.976   2.437   1.738  2.0219 -0.7345 -0.6018
  475THF     H5 6167   5.012   2.298   1.841 -0.4965  1.1230  0.9658
  475THF     H6 6168   5.072   2.679   1.849  0.7293  1.2660 -1.4439
  475THF     H7 6169   5.134   2.642   2.012  0.4696  0.0709 -1.6297
  475THF     C8 6170   5.241   2.538   1.866 -0.3096 -0.5515 -0.0088
  475THF     C9 6171   5.196   2.412   1.790  0.4496 -0.0150  0.0376
  475THF    H10 6172   5.318   2.515   1.947  1.0257  1.7811 -0.3900
  475THF    H11 6173   5.287   2.605   1.796 -0.7876 -1.4864  1.3494
  475THF    H12 6174   5.222   2.406   1.686 -3.3532  0.4761  1.4929
  475THF    H13 6175   5.244   2.326   1.837  0.2051  1.5043  0.8596
  476THF     O1 6176   0.451   0.910   1.805 -1.0709 -0.0534 -0.7653
  476THF     C2 6177   0.327   0.880   1.746 -0.3200  0.6675 -0.2810
  476THF     C3 6178   0.562   0.891   1.715  0.3370 -0.6584 -0.9722
  476THF     H4 6179   0.290   0.965   1.687 -0.5418  1.8437 -0.7963
  476THF     H5 6180   0.260   0.854   1.836 -3.0983 -1.1801  2.5865
  476THF     H6 6181   0.569   0.981   1.653 -0.3166 -0.5544  0.1483
  476THF     H7 6182   0.649   0.870   1.778 -0.9263 -0.5296 -0.9363
  476THF     C8 6183   0.515   0.764   1.639 -1.0223 -0.2939 -0.5990
  476THF     C9 6184   0.363   0.758   1.654 -0.2380 -0.3905  0.6585
  476THF    H10 6185   0.555   0.674   1.678 -2.2633  0.7857  1.8605
  476THF    H11 6186   0.541   0.759   1.534  0.3969 -1.9750  1.7716
  476THF    H12 6187   0.325   0.769   1.556  0.6322  0.9635 -0.7458
  476THF    H13 6188   0.321   0.673   1.697  1.5063  1.7838 -1.7394
  477THF     O1 6189   0.025   2.812   1.100  0.0695 -0.5579 -0.3492
  477THF     C2 6190   0.082   2.886   0.984 -0.0684 -0.0201 -0.1530
  477THF     C3 6191   0.031   2.674   1.073  0.1527  0.6706 -0.1665
  477THF     H4 6192   0.189   2.904   1.003  0.5193 -0.2238  0.3044
  477THF     H5 6193   0.037   2.985   0.963 -1.6049 -0.3519 -2.1354
  477THF     H6 6194   0.126   2.631   1.090  0.5621  1.2998 -0.6528
  477THF     H7 6195  -0.046   2.629   1.141  1.3338  1.3293  1.6902
  477THF     C8 6196  -0.005   2.667   0.923 -0.2777  0.1243  0.1171
  477THF     C9 6197   0.047   2.792   0.869  0.3248  0.8159  0.5861
  477THF    H10 6198  -0.108   2.646   0.892 -1.7721 -0.9101 -1.4073
  477THF    H11 6199   0.048   2.584   0.884 -0.0814  0.4125 -1.1046
  477THF    H12 6200   0.137   2.772   0.810 -1.6720 -1.4915  1.7721
  477THF    H13 6201  -0.028   2.836   0.808 -0.6434 -1.9722 -0.0390
  478THF     O1 6202   5.309   1.223   2.755 -0.0352 -0.0806  0.2480
  478THF     C2 6203   5.326   1.110   2.834  0.0726 -0.7586 -1.1067
  478THF     C3 6204   5.298   1.333   2.843  0.2290 -0.2233  0.3682
  478THF     H4 6205   5.417   1.098   2.895 -2.1232 -0.9760 -1.1301
  478THF     H5 6206   5.312   1.023   2.773 -1.2072  0.9705  0.8890
  478THF     H6 6207   5.397   1.369   2.869 -0.3106  1.5427 -0.9324
  478THF     H7 6208   5.237   1.415   2.796 -0.8731  0.5429  0.2047
  478THF     C8 6209   5.218   1.281   2.959  0.1057 -0.2572 -0.1318
  478THF     C9 6210   5.206   1.135   2.919 -0.2450  0.4563 -0.2232
  478THF    H10 6211   5.113   1.316   2.977 -1.6958  1.1603 -1.4501
  478THF    H11 6212   5.272   1.296   3.049 -1.1520 -0.4040 -1.8655
  478THF    H12 6213   5.189   1.070   3.004  0.4452  1.2971 -0.7165
  478THF    H13 6214   5.116   1.127   2.857  0.5680  1.0272 -1.2357
  479THF     O1 6215   5.463   5.198   2.751 -0.4312  0.1687  0.1010
  479THF     C2 6216   5.477   5.277   2.633  0.0451  0.6073 -0.0663
  479THF     C3 6217   5.391   5.084   2.724  0.1808 -0.2384  0.0792
  479THF     H4 6218   5.545   5.359   2.641  1.5542 -0.3554  0.3539
  479THF     H5 6219   5.372   5.315   2.609 -0.6621  2.2906 -1.6227
  479THF     H6 6220   5.389   4.995   2.786  1.3077  0.7046 -2.6953
  479THF     H7 6221   5.290   5.118   2.709 -1.8967 -0.0460 -0.3540
  479THF     C8 6222   5.466   5.036   2.597  0.0279  0.6891 -0.0098
  479THF     C9 6223   5.532   5.163   2.540 -0.0216 -0.2379 -0.5892
  479THF    H10 6224   5.397   4.991   2.525 -0.6924  1.2591 -2.6113
  479THF    H11 6225   5.542   4.959   2.620 -1.4810  0.5258  0.3237
  479THF    H12 6226   5.635   5.159   2.552 -1.2861 -1.1668  1.7088
  479THF    H13 6227   5.521   5.189   2.435 -0.3114  1.9452 -1.0766
  480THF     O1 6228   2.206   3.419   4.849  0.5220  0.3846  0.4619
  480THF     C2 6229   2.273   3.517   4.930  0.2663  0.1840  0.0603
  480THF     C3 6230   2.269   3.293   4.858 -0.2716 -0.4421 -0.2857
  480THF     H4 6231   2.219   3.603   4.968 -0.7516 -2.4173 -1.4265
  480THF     H5 6232   2.357   3.553   4.873 -1.5334 -0.7579  0.7666
  480THF     H6 6233   2.193   3.225   4.887  1.1402 -0.6979  1.3961
  480THF     H7 6234   2.326   3.258   4.774  0.0743 -0.1717 -0.9433
  480THF     C8 6235   2.356   3.292   4.984  0.6532  0.1325  0.5058
  480THF     C9 6236   2.340   3.425   5.045  0.1201 -0.1631 -0.0060
  480THF    H10 6237   2.462   3.286   4.966  0.4840  3.3139 -0.3814
  480THF    H11 6238   2.323   3.226   5.067 -0.9627 -0.4116  1.5130
  480THF    H12 6239   2.260   3.423   5.118 -0.2897 -0.7644  0.9906
  480THF    H13 6240   2.411   3.477   5.097  0.2545 -0.5039  0.4215
  481THF     O1 6241   3.592   4.079   4.064  0.5273  0.1540  0.5678
  481THF     C2 6242   3.506   4.152   3.974  0.6481 -0.7457 -0.3183
  481THF     C3 6243   3.610   3.945   4.015 -0.7282  0.3288  0.6094
  481THF     H4 6244   3.569   4.189   3.897 -0.0663 -0.2140  0.6174
  481THF     H5 6245   3.453   4.234   4.027 -1.3493  2.6788  1.7421
  481THF     H6 6246   3.679   3.929   3.932  1.9535 -1.6242  1.5169
  481THF     H7 6247   3.650   3.873   4.089 -1.0711  0.4515 -2.4351
  481THF     C8 6248   3.466   3.910   3.984  0.3347  0.4572  1.0211
  481THF     C9 6249   3.406   4.039   3.935 -0.4558  0.3841 -0.6931
  481THF    H10 6250   3.408   3.867   4.063  1.4481 -1.4504 -1.2823
  481THF    H11 6251   3.446   3.837   3.909 -1.5194  0.0822  3.2570
  481THF    H12 6252   3.416   4.035   3.825 -1.4621 -1.3428  2.6259
  481THF    H13 6253   3.295   4.047   3.963  2.5637  0.1467 -1.4013
  482THF     O1 6254   3.892   2.851   3.626 -0.2969  0.9108  0.3073
  482THF     C2 6255   4.027   2.826   3.666 -0.0551  0.1628 -0.3195
  482THF     C3 6256   3.889   2.825   3.491 -0.2239 -0.7130 -0.1057
  482THF     H4 6257   4.054   2.721   3.661 -1.9397  0.3253  0.0881
  482THF     H5 6258   4.057   2.862   3.762 -0.4550  0.7612 -0.3776
  482THF     H6 6259   3.899   2.718   3.473  3.0022 -1.4643  2.1939
  482THF     H7 6260   3.791   2.859   3.456  1.8372 -1.7479 -2.0721
  482THF     C8 6261   4.016   2.882   3.435 -0.0578 -0.0745 -0.5054
  482THF     C9 6262   4.109   2.895   3.561 -0.6687 -1.0262 -0.0950
  482THF    H10 6263   4.011   2.985   3.394  1.6987 -0.4770  2.0231
  482THF    H11 6264   4.060   2.823   3.352  0.2523 -0.6915 -3.0399
  482THF    H12 6265   4.206   2.845   3.552  0.0823 -3.0302  0.7881
  482THF    H13 6266   4.124   3.002   3.590 -3.7584 -0.3079  0.4375
  483THF     O1 6267   4.762   3.201   4.721  0.5297  0.3243  0.1910
  483THF     C2 6268   4.650   3.287   4.717  0.3085 -0.4559 -0.5467
  483THF     C3 6269   4.816   3.202   4.590 -0.0875 -0.2945 -0.0634
  483THF     H4 6270   4.621   3.330   4.811 -0.3088 -1.5508 -0.1403
  483THF     H5 6271   4.564   3.236   4.677 -1.9746  1.1062  0.1738
  483THF     H6 6272   4.910   3.161   4.583 -3.3165 -0.6882 -0.9976
  483THF     H7 6273   4.749   3.155   4.523 -1.0706  1.6378 -0.8900
  483THF     C8 6274   4.833   3.354   4.570 -0.5075  0.0309  0.3013
  483THF     C9 6275   4.706   3.411   4.632 -0.5127 -0.1613 -0.0533
  483THF    H10 6276   4.854   3.380   4.466  1.3745  1.3871  1.4004
  483THF    H11 6277   4.923   3.392   4.617  0.0817 -1.7547 -0.9415
  483THF    H12 6278   4.724   3.501   4.689 -0.8991 -1.9792 -2.3487
  483THF    H13 6279   4.627   3.433   4.558  2.3123 -1.2207  1.0527
  484THF     O1 6280   4.942   0.141   0.753  0.2094  0.1607 -0.4064
  484THF     C2 6281   5.054   0.219   0.741  0.2917 -0.1476 -0.0049
  484THF     C3 6282   4.907   0.134   0.889 -0.1704 -0.0345 -0.0476
  484THF     H4 6283   5.064   0.273   0.653  2.1950  0.5336  0.9647
  484THF     H5 6284   5.136   0.152   0.757 -1.8729 -1.9528 -0.9893
  484THF     H6 6285   4.805   0.097   0.907 -0.6314  1.0583  0.8092
  484THF     H7 6286   4.975   0.061   0.937 -2.2618 -0.5207 -2.0505
  484THF     C8 6287   4.934   0.275   0.944  0.1954 -0.3701 -0.2285
  484THF     C9 6288   5.052   0.317   0.862  0.8550  0.5192 -0.4302
  484THF    H10 6289   4.945   0.271   1.054  0.2772  0.7986  1.3119
  484THF    H11 6290   4.850   0.333   0.918  0.3882  0.3181  2.0409
  484THF    H12 6291   5.037   0.419   0.826  0.3899 -1.6737  0.7264
  484THF    H13 6292   5.137   0.305   0.930 -3.3699 -0.6354  0.1145
  485THF     O1 6293   1.778   1.243   2.648  0.0252 -0.0148  0.0695
  485THF     C2 6294   1.802   1.242   2.788 -0.3191 -0.3330 -0.1142
  485THF     C3 6295   1.903   1.216   2.580 -0.0240 -0.6197 -0.1876
  485THF     H4 6296   1.801   1.140   2.824  0.2295  0.3468  0.6338
  485THF     H5 6297   1.747   1.316   2.851  0.0771  0.5811  2.0620
  485THF     H6 6298   1.919   1.107   2.604  2.1552 -1.5710 -0.5410
  485THF     H7 6299   1.893   1.233   2.472 -0.3005 -0.5412 -0.7660
  485THF     C8 6300   2.000   1.304   2.656  0.5362  0.1617 -0.1943
  485THF     C9 6301   1.944   1.299   2.794 -0.9090  0.1153 -1.1508
  485THF    H10 6302   1.996   1.404   2.609  1.3139  3.1571  0.4286
  485THF    H11 6303   2.105   1.261   2.655 -0.0044 -0.3962  0.1844
  485THF    H12 6304   2.003   1.239   2.862 -1.6748  0.8569 -1.4268
  485THF    H13 6305   1.940   1.399   2.824 -0.6476 -1.0653 -0.3719
  486THF     O1 6306   2.167   5.144   0.894 -0.3988 -1.1679  0.2418
  486THF     C2 6307   2.267   5.081   0.969  0.8295 -0.0162  0.2998
  486THF     C3 6308   2.047   5.084   0.903  0.2931  0.1518  0.0923
  486THF     H4 6309   2.285   5.139   1.061 -0.6748  1.5069 -0.1647
  486THF     H5 6310   2.355   5.074   0.906 -1.0666  2.2622 -0.7476
  486THF     H6 6311   1.980   5.126   0.974  1.1370  2.0812  1.5203
  486THF     H7 6312   1.986   5.111   0.811 -1.6883  0.4892 -0.1352
  486THF     C8 6313   2.078   4.944   0.935  0.1130  0.0863 -0.1122
  486THF     C9 6314   2.197   4.954   1.026 -0.5530  0.0186  0.2197
  486THF    H10 6315   2.106   4.891   0.842 -0.3987 -0.6961 -0.4214
  486THF    H11 6316   2.006   4.890   0.987  2.0526 -1.5105  0.5232
  486THF    H12 6317   2.167   4.979   1.127 -2.1971 -1.2237 -0.1906
  486THF    H13 6318   2.268   4.875   1.024 -0.9789  1.1967 -1.0727
  487THF     O1 6319   0.139   3.878   3.724  0.5249  0.3013  0.1282
  487THF     C2 6320   0.058   3.968   3.643  0.0503 -0.1690  0.6033
  487THF     C3 6321   0.273   3.917   3.711  0.1652  0.3678 -0.3897
  487THF     H4 6322   0.035   4.058   3.688  1.4315 -1.6121  0.6619
  487THF     H5 6323  -0.036   3.928   3.613 -1.3327  1.6413  0.4319
  487THF     H6 6324   0.292   4.003   3.765  1.7198 -0.9782 -2.8709
  487THF     H7 6325   0.336   3.838   3.747 -0.1432 -0.9921  1.6813
  487THF     C8 6326   0.290   3.950   3.563  0.0831 -0.1594 -0.2902
  487THF     C9 6327   0.149   3.996   3.522 -0.2463 -0.2356 -0.8345
  487THF    H10 6328   0.302   3.852   3.516 -0.3948 -0.9708 -0.1818
  487THF    H11 6329   0.373   4.023   3.544 -0.6785  2.0810 -0.2761
  487THF    H12 6330   0.149   4.104   3.496 -1.3130 -0.7965 -1.2043
  487THF    H13 6331   0.113   3.945   3.430 -0.1390  1.8894 -1.7459
  488THF     O1 6332   5.390   5.023   2.163  0.0232  0.3317 -0.1736
  488THF     C2 6333   5.327   4.905   2.115  0.7580 -0.3301 -0.4543
  488THF     C3 6334   5.306   5.129   2.133  0.2469  0.5245  0.3726
  488THF     H4 6335   5.279   4.855   2.195  1.5335  1.8668 -0.8622
  488THF     H5 6336   5.404   4.842   2.066  0.2742 -0.0592 -1.1635
  488THF     H6 6337   5.221   5.122   2.207  0.9951 -1.2122  2.4301
  488THF     H7 6338   5.357   5.221   2.135  3.6769 -0.7686 -0.9463
  488THF     C8 6339   5.256   5.098   1.994  0.3511 -0.3636  0.2901
  488THF     C9 6340   5.230   4.951   2.007  0.3045 -0.1517 -0.2700
  488THF    H10 6341   5.324   5.113   1.912 -1.4718 -0.3468 -3.4131
  488THF    H11 6342   5.162   5.154   1.959  0.1527  0.7248  1.5063
  488THF    H12 6343   5.128   4.931   2.026 -2.2732  2.1417  0.5536
  488THF    H13 6344   5.240   4.894   1.911 -0.9945 -2.5307 -2.6511
  489THF     O1 6345   2.302   4.636   1.822  0.0404 -0.4953  0.3391
  489THF     C2 6346   2.228   4.744   1.874 -0.0184 -0.4567  0.0476
  489THF     C3 6347   2.252   4.520   1.879  0.1364  0.0667 -0.1450
  489THF     H4 6348   2.128   4.753   1.831 -0.4375 -1.6181 -1.5378
  489THF     H5 6349   2.284   4.841   1.868 -0.6993  2.2307  0.8479
  489THF     H6 6350   2.197   4.456   1.806  0.1710 -0.8276  0.2611
  489THF     H7 6351   2.334   4.454   1.889  3.2760 -0.8274 -1.4489
  489THF     C8 6352   2.178   4.547   2.009  0.3864  0.4367 -0.7386
  489THF     C9 6353   2.213   4.695   2.023  0.1428 -0.1374 -0.1124
  489THF    H10 6354   2.205   4.493   2.098  0.7324  1.4809 -0.6250
  489THF    H11 6355   2.072   4.535   1.985 -0.0881  0.1658 -0.0194
  489THF    H12 6356   2.141   4.756   2.071  0.3521  1.2026  1.2777
  489THF    H13 6357   2.307   4.723   2.074 -0.2182  1.6528  0.7439
  490THF     O1 6358   4.932   5.255   3.392  0.1243 -0.5333  0.1233
  490THF     C2 6359   4.914   5.116   3.385  0.8767 -0.0139 -0.2637
  490THF     C3 6360   4.863   5.311   3.277 -0.2837  0.8607 -0.2781
  490THF     H4 6361   4.916   5.075   3.486 -0.3815  3.7954 -1.1383
  490THF     H5 6362   4.992   5.070   3.325  2.3802  0.7572 -0.7487
  490THF     H6 6363   4.814   5.390   3.319  1.3410 -0.0761 -0.0243
  490THF     H7 6364   4.928   5.358   3.203 -1.0457  1.2608  2.5508
  490THF     C8 6365   4.774   5.201   3.221  0.7415 -0.3666  0.5063
  490THF     C9 6366   4.771   5.102   3.335  0.4591  0.2743  1.3327
  490THF    H10 6367   4.808   5.143   3.136 -3.4235  1.2035 -1.4331
  490THF    H11 6368   4.664   5.228   3.195 -1.6949 -1.4749  0.5805
  490THF    H12 6369   4.698   5.139   3.412  0.2965  0.8840  1.0284
  490THF    H13 6370   4.748   5.002   3.305 -1.0448  2.3422  4.7868
  491THF     O1 6371   0.839   1.710   5.043 -0.0714  0.0570 -0.0263
  491THF     C2 6372   0.710   1.711   4.981 -0.2786 -0.1276 -0.7607
  491THF     C3 6373   0.846   1.804   5.146 -0.0499  0.0350 -0.1723
  491THF     H4 6374   0.630   1.641   5.006 -3.5595  0.1195 -1.5676
  491THF     H5 6375   0.727   1.681   4.877 -1.4272  1.6526 -0.2090
  491THF     H6 6376   0.805   1.759   5.244  0.1849  1.7473  1.5471
  491THF     H7 6377   0.949   1.824   5.160 -1.9109  0.9025 -2.2160
  491THF     C8 6378   0.765   1.920   5.088 -0.1508  0.0238 -0.9472
  491THF     C9 6379   0.675   1.857   4.987  0.5615  0.4436 -0.3939
  491THF    H10 6380   0.833   1.997   5.045 -1.7709  1.0076 -0.3885
  491THF    H11 6381   0.701   1.968   5.170  0.5365  1.3249 -0.2097
  491THF    H12 6382   0.573   1.864   5.026 -0.6255  2.6977  1.6366
  491THF    H13 6383   0.675   1.915   4.896 -0.0716  2.4154  1.7669
  492THF     O1 6384   2.591   1.905   3.676  0.4786  0.0978  0.3035
  492THF     C2 6385   2.710   1.980   3.692  0.2156 -0.4843 -0.6610
  492THF     C3 6386   2.535   1.936   3.548 -0.2600  0.6894 -0.0230
  492THF     H4 6387   2.776   1.917   3.746  2.0309  2.6021 -1.3329
  492THF     H5 6388   2.702   2.073   3.755 -0.2181  0.2630  0.4642
  492THF     H6 6389   2.480   1.851   3.496 -1.3629  1.1937  1.8077
  492THF     H7 6390   2.463   2.020   3.559 -0.0535  0.4062  0.4901
  492THF     C8 6391   2.651   1.976   3.458  0.3796  0.2820 -0.1657
  492THF     C9 6392   2.770   1.982   3.553 -0.4609 -0.5297 -0.1567
  492THF    H10 6393   2.642   2.076   3.412  1.4274 -0.2424  2.2104
  492THF    H11 6394   2.674   1.917   3.367 -0.1861  0.9593  1.2213
  492THF    H12 6395   2.851   1.910   3.538 -2.1505  0.1376  0.8630
  492THF    H13 6396   2.814   2.079   3.538 -0.4885 -0.8783 -0.2314
  493THF     O1 6397   4.744   3.639   3.060  0.3050 -0.4776 -0.5904
  493THF     C2 6398   4.759   3.669   2.922 -0.6136  0.5392 -0.0316
  493THF     C3 6399   4.682   3.510   3.055 -0.5572  0.7688  0.2574
  493THF     H4 6400   4.833   3.750   2.900 -1.6547  3.0270  0.7554
  493THF     H5 6401   4.673   3.692   2.856 -1.7825  1.2664 -2.0681
  493THF     H6 6402   4.690   3.480   3.166  2.7034 -1.5323  0.6215
  493THF     H7 6403   4.579   3.502   3.020 -0.6517 -0.9809 -0.4171
  493THF     C8 6404   4.769   3.429   2.965 -0.6427  0.6986  0.7302
  493THF     C9 6405   4.833   3.540   2.881  0.5732 -0.5022  0.8591
  493THF    H10 6406   4.702   3.362   2.908  0.2201 -3.0281  0.9043
  493THF    H11 6407   4.856   3.369   3.006  1.9394  0.3556 -1.7040
  493THF    H12 6408   4.943   3.531   2.903  0.6069  2.0200 -1.6818
  493THF    H13 6409   4.825   3.522   2.768  0.1007 -2.0367  0.0387
  494THF     O1 6410   1.678   2.254   5.135  0.0277  0.3092  0.0297
  494THF     C2 6411   1.771   2.147   5.141  0.0537 -0.3792 -0.4352
  494THF     C3 6412   1.754   2.370   5.083  0.2872  0.3067 -0.1460
  494THF     H4 6413   1.794   2.107   5.044  0.7043 -0.2440 -0.9683
  494THF     H5 6414   1.742   2.068   5.214  1.9764 -1.7331 -0.2378
  494THF     H6 6415   1.774   2.345   4.982 -0.1854 -2.4260  0.5329
  494THF     H7 6416   1.705   2.470   5.078 -1.3097  1.7199  1.6264
  494THF     C8 6417   1.884   2.365   5.164 -0.1442 -0.1035 -0.0200
  494THF     C9 6418   1.888   2.218   5.206  0.0064 -0.5943 -0.1056
  494THF    H10 6419   1.890   2.432   5.247 -0.3868 -0.2932 -0.7652
  494THF    H11 6420   1.974   2.389   5.107 -1.0940  0.7625  0.5192
  494THF    H12 6421   1.986   2.174   5.191 -1.9481 -0.3789  1.0147
  494THF    H13 6422   1.871   2.224   5.312  0.9062  2.2796  1.3905
  495THF     O1 6423   2.797   2.275   1.725  0.0218 -0.3858 -0.3096
  495THF     C2 6424   2.861   2.321   1.843  0.3201 -0.4037  0.0550
  495THF     C3 6425   2.780   2.135   1.725 -0.0051 -0.1132 -0.2127
  495THF     H4 6426   2.800   2.399   1.894  0.8172  0.4384  1.7504
  495THF     H5 6427   2.941   2.385   1.822 -0.4676 -3.4190 -1.9926
  495THF     H6 6428   2.687   2.102   1.763  2.4815 -1.5484  2.3932
  495THF     H7 6429   2.798   2.110   1.619 -0.2491 -2.4077  2.6112
  495THF     C8 6430   2.891   2.083   1.814 -0.3553 -0.3224 -0.4004
  495THF     C9 6431   2.887   2.191   1.920  0.0570  0.0187  0.9352
  495THF    H10 6432   2.988   2.087   1.765  0.8357  2.9325 -2.1194
  495THF    H11 6433   2.876   1.983   1.838 -2.6483  2.2253  0.7133
  495THF    H12 6434   2.839   2.172   2.013  1.0309  1.1037  0.1359
  495THF    H13 6435   2.992   2.193   1.953  1.5047 -1.9869 -0.5425
  496THF     O1 6436   2.041   0.667   2.183  0.0148 -0.3371  0.9463
  496THF     C2 6437   2.089   0.800   2.198  0.3465 -0.3383 -0.5710
  496THF     C3 6438   1.972   0.675   2.064  0.6525 -0.2005 -0.2135
  496THF     H4 6439   2.147   0.821   2.106 -0.4134  0.7898 -1.4811
  496THF     H5 6440   2.134   0.813   2.300  1.5071  2.0917  0.5491
  496THF     H6 6441   2.034   0.675   1.968  2.6677 -0.1370  1.7049
  496THF     H7 6442   1.917   0.583   2.054  1.0298 -1.2750 -1.7388
  496THF     C8 6443   1.893   0.800   2.077 -0.6927 -0.7920 -0.0302
  496THF     C9 6444   1.971   0.887   2.174 -0.1961 -0.5616 -0.3025
  496THF    H10 6445   1.793   0.767   2.112 -2.2402 -6.0031 -3.5536
  496THF    H11 6446   1.891   0.850   1.975  1.1222 -1.2765  0.3513
  496THF    H12 6447   2.013   0.984   2.133 -2.2284  1.6064 -0.2631
  496THF    H13 6448   1.915   0.908   2.267  0.8190 -0.0416  1.4159
  497THF     O1 6449   0.800   0.900   2.869  0.3888  0.2137 -0.3067
  497THF     C2 6450   0.838   0.998   2.773 -0.6879  0.6468 -0.7454
  497THF     C3 6451   0.694   0.831   2.802 -0.4202 -0.2834 -0.0088
  497THF     H4 6452   0.933   1.043   2.802 -0.0915 -1.3433  1.3317
  497THF     H5 6453   0.760   1.080   2.760 -5.5625  1.5831 -0.5278
  497THF     H6 6454   0.667   0.744   2.863 -2.3022 -0.2544  2.2735
  497THF     H7 6455   0.607   0.895   2.808  1.1137  1.2633 -0.2076
  497THF     C8 6456   0.764   0.802   2.664 -0.1525  0.8472  0.2894
  497THF     C9 6457   0.870   0.915   2.649  0.8484 -0.2706 -0.6421
  497THF    H10 6458   0.680   0.810   2.592  1.1261 -1.4593 -0.8905
  497THF    H11 6459   0.800   0.704   2.664 -0.9992  1.8707  1.0326
  497THF    H12 6460   0.970   0.879   2.638 -0.6954  3.3409 -0.3239
  497THF    H13 6461   0.854   0.977   2.567 -1.0332  2.5505  0.7105
  498THF     O1 6462   5.458   2.665   0.404 -0.4832  0.4726  0.4797
  498THF     C2 6463   5.364   2.582   0.461  0.6304  0.5176  0.5388
  498THF     C3 6464   5.579   2.672   0.480 -0.0568  0.4185  0.2560
  498THF     H4 6465   5.332   2.515   0.382  1.0204 -0.4586  0.2392
  498THF     H5 6466   5.277   2.646   0.493 -0.5783 -2.5821 -1.7390
  498THF     H6 6467   5.664   2.678   0.412  2.1247  1.8027 -0.5894
  498THF     H7 6468   5.575   2.767   0.537 -2.4532  1.0906 -0.4413
  498THF     C8 6469   5.567   2.544   0.561 -0.2358 -1.0052 -0.9894
  498THF     C9 6470   5.422   2.508   0.572 -0.6831  0.1658  0.2557
  498THF    H10 6471   5.599   2.570   0.662 -1.5218  0.0738  2.2094
  498THF    H11 6472   5.629   2.457   0.538  0.2125  0.7530 -0.6640
  498THF    H12 6473   5.408   2.402   0.571  1.5779  0.0392  2.0067
  498THF    H13 6474   5.380   2.550   0.666  0.8601  2.9710  0.1890
  499THF     O1 6475   0.978   2.760   4.527  1.0788 -0.1970 -0.5382
  499THF     C2 6476   1.090   2.708   4.596  0.5947 -0.3559  0.0604
  499THF     C3 6477   1.025   2.823   4.414 -0.1906 -0.5535  0.7277
  499THF     H4 6478   1.063   2.640   4.675 -2.9438  2.2219 -0.2977
  499THF     H5 6479   1.154   2.785   4.638 -0.1184  2.7589  2.8270
  499THF     H6 6480   0.958   2.863   4.338  0.7276  1.0901  2.5971
  499THF     H7 6481   1.085   2.916   4.439 -0.9874  1.3730 -1.3406
  499THF     C8 6482   1.117   2.714   4.360 -0.1574  1.1910 -0.4936
  499THF     C9 6483   1.163   2.636   4.484 -0.1910 -0.1839 -0.5235
  499THF    H10 6484   1.197   2.753   4.305  1.6733 -0.1593  3.8655
  499THF    H11 6485   1.061   2.654   4.287 -2.2123 -1.5706 -2.3188
  499THF    H12 6486   1.124   2.533   4.483  1.2410  0.4531  0.1052
  499THF    H13 6487   1.272   2.623   4.504 -0.6772 -3.6095 -0.1528
  500THF     O1 6488   3.914   2.832   2.268  0.3468 -0.2684 -0.2059
  500THF     C2 6489   3.878   2.934   2.358  0.1220 -0.4604  0.2117
  500THF     C3 6490   3.808   2.821   2.172 -0.6257 -0.7481  0.0913
  500THF     H4 6491   3.909   3.028   2.317  1.3533 -0.6337 -0.9350
  500THF     H5 6492   3.917   2.907   2.457 -1.2847 -1.7722 -0.1630
  500THF     H6 6493   3.837   2.879   2.083  0.2778 -1.8162 -1.6316
  500THF     H7 6494   3.789   2.717   2.144 -3.8920 -0.7497 -0.2107
  500THF     C8 6495   3.686   2.885   2.242 -0.2269  0.7817  0.1112
  500THF     C9 6496   3.734   2.916   2.381  0.5240  0.6398  0.7297
  500THF    H10 6497   3.598   2.818   2.263  0.0767  1.3784 -1.4131
  500THF    H11 6498   3.654   2.980   2.191  0.5611  0.6105 -1.1472
  500THF    H12 6499   3.692   3.004   2.430 -1.6332 -0.0331  0.1003
  500THF    H13 6500   3.716   2.829   2.440 -3.0412  0.0467 -0.6145
  501THF     O1 6501   3.445   2.782   1.398 -0.2896  0.4649  0.4829
  501THF     C2 6502   3.531   2.776   1.509 -0.0057  0.2885  0.1046
  501THF     C3 6503   3.409   2.922   1.388  0.0826 -0.1193 -0.2233
  501THF     H4 6504   3.589   2.688   1.507 -0.1097 -0.1350  1.5477
  501THF     H5 6505   3.475   2.780   1.600 -0.0584  1.4299 -2.7453
  501THF     H6 6506   3.351   2.942   1.296  1.4303 -0.9034 -3.1981
  501THF     H7 6507   3.357   2.961   1.474  1.2751  1.0315  0.0575
  501THF     C8 6508   3.540   2.992   1.394 -0.1524  0.2449  0.1631
  501THF     C9 6509   3.611   2.907   1.498 -0.5121 -0.6262  0.1211
  501THF    H10 6510   3.531   3.096   1.417 -1.0406  0.9374 -0.4451
  501THF    H11 6511   3.582   2.989   1.294  0.4885  2.5604 -0.3429
  501THF    H12 6512   3.711   2.882   1.446  2.0847 -0.2723  0.1073
  501THF    H13 6513   3.641   2.959   1.591 -0.1097  3.8415 -1.2553
  502THF     O1 6514   0.780   4.860   0.814  0.2663 -0.6168  0.1882
  502THF     C2 6515   0.728   4.747   0.893 -0.3883  0.5562 -0.6478
  502THF     C3 6516   0.665   4.932   0.764  0.6012  0.4420  0.0756
  502THF     H4 6517   0.808   4.698   0.953 -1.8654  0.7511  0.0877
  502THF     H5 6518   0.689   4.669   0.833 -3.3418 -0.1732 -2.1541
  502THF     H6 6519   0.696   5.036   0.745  1.3311  0.4242  0.5425
  502THF     H7 6520   0.629   4.891   0.669 -0.0069  1.5423  0.7182
  502THF     C8 6521   0.559   4.909   0.874  0.0382 -0.1251 -0.0053
  502THF     C9 6522   0.620   4.810   0.971 -0.6398 -0.6455 -0.5086
  502THF    H10 6523   0.479   4.854   0.836  0.5009  1.1632  1.9544
  502THF    H11 6524   0.521   4.990   0.932 -2.5051  0.6237 -0.0451
  502THF    H12 6525   0.638   4.847   1.071 -1.4258  1.8649 -0.7296
  502THF    H13 6526   0.536   4.747   0.992 -2.1310 -0.5075  0.9839
  503THF     O1 6527   2.012   2.152   2.823 -0.5075 -0.1876  0.1996
  503THF     C2 6528   2.009   2.023   2.894  0.3147 -0.6154  0.2469
  503THF     C3 6529   2.042   2.256   2.913 -0.3588 -0.0620 -0.4426
  503THF     H4 6530   2.104   1.986   2.895 -2.2989  1.2891 -2.5001
  503THF     H5 6531   1.945   1.948   2.843 -2.4740 -0.4302 -0.1439
  503THF     H6 6532   2.150   2.278   2.926  2.2922 -1.2551  1.8208
  503THF     H7 6533   1.989   2.344   2.877 -0.8176 -1.9456 -0.2329
  503THF     C8 6534   1.965   2.221   3.039 -0.3571 -0.2707 -0.1868
  503THF     C9 6535   1.977   2.064   3.037  0.6506 -0.3840 -0.6184
  503THF    H10 6536   1.861   2.248   3.041 -1.9145  0.3921 -1.4095
  503THF    H11 6537   2.024   2.258   3.130  1.0611 -0.3568  1.2361
  503THF    H12 6538   2.051   2.035   3.121  0.3222  1.1990  2.4265
  503THF    H13 6539   1.880   2.031   3.077  0.3373 -1.3644  0.0965
  504THF     O1 6540   4.193   1.178   1.039  0.1769 -0.4655  0.2910
  504THF     C2 6541   4.231   1.310   0.995  0.4148  0.8364  0.2422
  504THF     C3 6542   4.053   1.171   1.027  0.5209  0.2043 -0.9408
  504THF     H4 6543   4.217   1.323   0.885 -0.0847  1.8019 -0.9220
  504THF     H5 6544   4.328   1.345   1.023  0.5213 -0.4692  0.9023
  504THF     H6 6545   4.028   1.168   0.916  0.8803  1.4183  0.4219
  504THF     H7 6546   4.000   1.096   1.097 -1.7035 -0.5928  0.8329
  504THF     C8 6547   4.007   1.313   1.084  0.2400  0.1738  0.6302
  504THF     C9 6548   4.125   1.401   1.058 -0.0821  0.4746 -0.0602
  504THF    H10 6549   3.965   1.309   1.180 -2.3623 -1.0804 -1.5443
  504THF    H11 6550   3.920   1.338   1.024  0.0190 -0.5881  0.1415
  504THF    H12 6551   4.104   1.486   0.996  1.2140 -1.3271  0.6199
  504THF    H13 6552   4.156   1.444   1.156 -0.8759 -1.3667  2.2022
  505THF     O1 6553   1.526   2.820   4.237 -0.3697 -0.1123  0.3312
  505THF     C2 6554   1.548   2.931   4.329  0.0074  0.2418 -0.8222
  505THF     C3 6555   1.566   2.857   4.107  0.1312 -0.2785 -0.3071
  505THF     H4 6556   1.560   2.904   4.434 -1.0427 -1.6431  0.4347
  505THF     H5 6557   1.451   2.989   4.320 -1.0496 -0.7325  0.9758
  505THF     H6 6558   1.634   2.774   4.078 -0.3575  0.7912  0.3484
  505THF     H7 6559   1.473   2.863   4.055 -0.3003  1.4118  0.6634
  505THF     C8 6560   1.637   2.995   4.126  0.1605 -0.2863  0.1986
  505THF     C9 6561   1.668   3.014   4.278  0.1316  0.2285  0.9595
  505THF    H10 6562   1.558   3.065   4.110  2.7860  0.4667 -0.7126
  505THF    H11 6563   1.711   3.027   4.062 -1.9925 -0.5274  1.9038
  505THF    H12 6564   1.753   2.958   4.306  1.9329 -0.6497 -0.8504
  505THF    H13 6565   1.689   3.118   4.310 -0.3910  3.6395  0.7174
  506THF     O1 6566   3.315   5.327   3.026  0.1908 -0.1263  0.4516
  506THF     C2 6567   3.257   5.444   3.077  0.2710  0.2374  0.4511
  506THF     C3 6568   3.405   5.362   2.921  0.2654 -0.0551 -0.0122
  506THF     H4 6569   3.313   5.502   3.157 -1.2609  1.3636  0.8378
  506THF     H5 6570   3.160   5.418   3.122  0.0055 -1.1713  3.0007
  506THF     H6 6571   3.511   5.384   2.952  1.0262 -0.9300  3.7825
  506THF     H7 6572   3.407   5.276   2.852 -0.3005 -0.4395  1.6730
  506THF     C8 6573   3.332   5.487   2.863 -0.2407  0.6124  0.4417
  506THF     C9 6574   3.234   5.535   2.965  0.5260 -0.0718 -0.4503
  506THF    H10 6575   3.287   5.451   2.773 -2.6140 -1.3088  0.3244
  506THF    H11 6576   3.408   5.571   2.857  2.1398 -1.6484 -0.4172
  506THF    H12 6577   3.256   5.633   3.000  1.2087  0.7830  2.1251
  506THF    H13 6578   3.134   5.542   2.924 -0.4143  1.4608 -0.5789
  507THF     O1 6579   0.209   1.359   2.048  0.2472  0.2732 -0.0377
  507THF     C2 6580   0.266   1.312   1.922 -0.2079  0.2710 -0.3429
  507THF     C3 6581   0.295   1.466   2.095 -0.2684  0.0402 -0.0286
  507THF     H4 6582   0.205   1.253   1.857  1.6895  2.3309 -2.0157
  507THF     H5 6583   0.349   1.251   1.940  0.5328 -0.4990 -1.4780
  507THF     H6 6584   0.226   1.515   2.167 -1.1560  0.0260  1.9768
  507THF     H7 6585   0.386   1.425   2.137 -0.9082 -2.6842 -0.2080
  507THF     C8 6586   0.318   1.549   1.967 -0.6602 -0.5852 -1.1593
  507THF     C9 6587   0.330   1.436   1.860  0.0228  0.1980  0.1620
  507THF    H10 6588   0.405   1.625   1.969 -0.0660 -2.5866 -1.2115
  507THF    H11 6589   0.228   1.613   1.955 -1.4599  0.8064  1.0364
  507THF    H12 6590   0.295   1.453   1.757  0.7176  0.6791  1.2427
  507THF    H13 6591   0.433   1.420   1.831 -0.5555 -1.0430  1.3800
  508THF     O1 6592   2.744   0.131   1.572 -0.0321  0.2178 -0.4081
  508THF     C2 6593   2.624   0.063   1.528  0.2230 -0.1214 -0.0327
  508THF     C3 6594   2.866   0.066   1.524  0.1795  0.4977 -0.5296
  508THF     H4 6595   2.533   0.120   1.542  2.4940 -0.8626  2.0719
  508THF     H5 6596   2.602  -0.026   1.587 -0.4701 -0.4475 -2.9218
  508THF     H6 6597   2.941   0.142   1.490 -0.5470  2.2633 -2.1710
  508THF     H7 6598   2.909   0.008   1.607 -0.5697 -1.2905 -0.8937
  508THF     C8 6599   2.815  -0.018   1.402  0.7175  0.1323 -0.3040
  508THF     C9 6600   2.665   0.019   1.388 -0.1502  0.3222 -0.2449
  508THF    H10 6601   2.810  -0.120   1.419  2.2996 -1.1570 -0.2533
  508THF    H11 6602   2.878  -0.004   1.315  2.2997  3.8732  0.2285
  508THF    H12 6603   2.638   0.088   1.309 -0.1489  0.5241 -1.2855
  508THF    H13 6604   2.607  -0.075   1.369 -1.0952 -1.1640 -0.4995
  509THF     O1 6605   2.209   4.936   3.416  0.7317 -0.3087 -0.6091
  509THF     C2 6606   2.307   5.031   3.369 -0.2163 -0.2303  0.0340
  509THF     C3 6607   2.224   4.926   3.559 -0.8080  0.6035 -0.1743
  509THF     H4 6608   2.284   5.055   3.268  1.9337 -1.7539  0.5367
  509THF     H5 6609   2.401   4.984   3.370 -0.7823  0.6611  2.1775
  509THF     H6 6610   2.129   4.891   3.599 -0.4568  0.0274  1.6017
  509THF     H7 6611   2.309   4.861   3.586  0.1603 -1.7135 -0.6490
  509THF     C8 6612   2.250   5.074   3.599 -0.0083 -0.4093  0.2203
  509THF     C9 6613   2.307   5.140   3.474 -0.0143 -0.0935  0.1969
  509THF    H10 6614   2.301   5.091   3.699 -1.6071  1.1914  1.8135
  509THF    H11 6615   2.162   5.134   3.615  0.0319  0.7304 -1.2887
  509THF    H12 6616   2.247   5.223   3.446 -0.9665  0.6105 -0.9545
  509THF    H13 6617   2.408   5.173   3.476 -0.1789 -0.7002 -2.3211
  510THF     O1 6618   1.167   0.613   4.579  0.2230 -0.4865  0.2565
  510THF     C2 6619   1.185   0.730   4.656 -0.0507  0.5378  0.2460
  510THF     C3 6620   1.077   0.528   4.643  0.2483  0.0135  0.4142
  510THF     H4 6621   1.117   0.800   4.614 -2.8751 -2.3239 -2.9311
  510THF     H5 6622   1.283   0.782   4.655  1.6345 -2.2075 -2.4189
  510THF     H6 6623   0.984   0.578   4.621 -0.1813 -2.9132 -0.0243
  510THF     H7 6624   1.091   0.427   4.608 -0.3708 -1.6076 -1.3484
  510THF     C8 6625   1.099   0.546   4.786  0.4422  0.5681 -0.1966
  510THF     C9 6626   1.143   0.691   4.802 -0.3110  0.2999  1.0123
  510THF    H10 6627   1.176   0.479   4.809 -1.3246  1.7176  1.5037
  510THF    H11 6628   1.011   0.519   4.851 -1.4765 -0.1151 -3.3252
  510THF    H12 6629   1.067   0.755   4.847  0.1294  2.0280  0.9154
  510THF    H13 6630   1.234   0.688   4.867 -0.0299  0.7532  0.7189
  511THF     O1 6631   4.455   5.147   5.035  0.0833  0.0918 -0.3477
  511THF     C2 6632   4.397   5.127   5.164  0.3142  0.2787 -0.1906
  511THF     C3 6633   4.356   5.105   4.943 -0.0060 -0.5451 -0.2536
  511THF     H4 6634   4.444   5.195   5.232 -1.7014  0.4879 -0.0890
  511THF     H5 6635   4.417   5.028   5.204  2.0983 -1.0011  0.8533
  511THF     H6 6636   4.371   5.153   4.847  0.0315 -0.4656  0.1281
  511THF     H7 6637   4.352   4.997   4.933 -0.7083 -1.3159 -0.0508
  511THF     C8 6638   4.223   5.153   4.999  0.4572 -0.0338 -0.7329
  511THF     C9 6639   4.241   5.142   5.146  0.1911 -0.0290 -0.3265
  511THF    H10 6640   4.140   5.105   4.948 -0.5435  3.1951 -1.4872
  511THF    H11 6641   4.203   5.252   4.966  0.2888 -1.3359 -0.1774
  511THF    H12 6642   4.192   5.225   5.197  0.6121 -0.0258  0.9438
  511THF    H13 6643   4.186   5.058   5.179 -0.7082 -2.1999  2.8878
  512THF     O1 6644   0.911   4.158   2.324  0.7587 -0.3289 -0.1599
  512THF     C2 6645   1.037   4.116   2.366  0.7037  0.6160  0.3402
  512THF     C3 6646   0.881   4.293   2.367  0.2120  0.0588 -0.5793
  512THF     H4 6647   1.101   4.092   2.284  1.9820  2.1600  1.5177
  512THF     H5 6648   1.030   4.020   2.419  0.0714 -2.1496  0.2982
  512THF     H6 6649   0.899   4.369   2.294 -0.9701 -2.1561  0.0588
  512THF     H7 6650   0.779   4.312   2.395  1.0337  0.8832  1.0340
  512THF     C8 6651   0.973   4.321   2.485  0.8882  0.2967 -0.6025
  512THF     C9 6652   1.091   4.225   2.448  0.3230  0.0392  0.2567
  512THF    H10 6653   0.923   4.293   2.576 -0.4131  0.2394  0.9614
  512THF    H11 6654   0.994   4.430   2.502  0.5657 -0.8356 -2.5385
  512THF    H12 6655   1.173   4.273   2.393 -2.5199  0.8017  1.1803
  512THF    H13 6656   1.133   4.177   2.537  3.0621 -0.4316 -1.2641
  513THF     O1 6657   0.375   3.069   4.895  0.0541 -0.2580 -0.1687
  513THF     C2 6658   0.241   3.042   4.919  0.5747  0.4025 -0.0946
  513THF     C3 6659   0.435   2.964   4.820  0.0365  0.4527 -0.2264
  513THF     H4 6660   0.183   3.077   4.835  0.5098 -1.4336  0.6496
  513THF     H5 6661   0.210   3.079   5.020  2.9341 -0.8402 -2.8157
  513THF     H6 6662   0.412   2.978   4.712  2.6062  0.1598 -0.9926
  513THF     H7 6663   0.540   2.972   4.851  0.5700  1.2720 -0.0789
  513THF     C8 6664   0.362   2.838   4.875  0.7998 -0.1392 -0.4458
  513THF     C9 6665   0.230   2.891   4.929 -0.7308 -0.1356  0.7766
  513THF    H10 6666   0.413   2.766   4.937 -0.9814 -3.1217  0.6266
  513THF    H11 6667   0.350   2.782   4.784 -1.8383 -0.0808 -3.0768
  513THF    H12 6668   0.146   2.847   4.877  0.4313  0.2752 -0.2539
  513THF    H13 6669   0.220   2.869   5.037  0.5078 -3.0155 -2.5528
  514THF     O1 6670   2.420   3.324   2.725  0.3740  0.8210 -0.3421
  514THF     C2 6671   2.430   3.461   2.746  0.0567  0.1058  0.5467
  514THF     C3 6672   2.285   3.298   2.680  0.3963 -0.1919  0.6747
  514THF     H4 6673   2.429   3.506   2.644  0.5069 -0.9797 -0.7457
  514THF     H5 6674   2.506   3.488   2.815 -0.8253 -2.0809  0.3389
  514THF     H6 6675   2.262   3.344   2.580 -0.9745 -0.8524 -2.1384
  514THF     H7 6676   2.255   3.190   2.687 -1.5509  1.5626 -2.6820
  514THF     C8 6677   2.202   3.376   2.778  0.4014 -0.5263 -0.0034
  514THF     C9 6678   2.301   3.493   2.821  0.1387  0.2669  0.0824
  514THF    H10 6679   2.163   3.321   2.867  0.3990 -0.1322  1.1910
  514THF    H11 6680   2.112   3.414   2.734  1.3366 -0.2243  2.0007
  514THF    H12 6681   2.261   3.590   2.795 -1.0906 -0.4923 -0.3928
  514THF    H13 6682   2.314   3.480   2.932 -1.7052 -0.4622 -1.9327
  515THF     O1 6683   3.667   1.735   2.441 -0.7245  0.8569 -0.1770
  515THF     C2 6684   3.745   1.730   2.560  0.0167 -0.5287  0.3218
  515THF     C3 6685   3.617   1.610   2.414 -0.6852 -1.3778  0.0540
  515THF     H4 6686   3.754   1.825   2.609 -2.0858  0.5372 -1.0694
  515THF     H5 6687   3.838   1.691   2.544  0.7592  1.5591 -1.8252
  515THF     H6 6688   3.524   1.614   2.365 -1.5839  1.0751  1.4728
  515THF     H7 6689   3.679   1.566   2.335  2.1711  0.5936 -3.5206
  515THF     C8 6690   3.615   1.533   2.545 -0.5305 -0.3032 -0.2465
  515THF     C9 6691   3.674   1.628   2.649 -0.0300  0.0157  0.5161
  515THF    H10 6692   3.671   1.443   2.534 -0.2498 -2.1790 -0.2621
  515THF    H11 6693   3.517   1.494   2.559  0.3584  2.5965  0.7804
  515THF    H12 6694   3.587   1.660   2.702  0.6536  0.5733  0.4813
  515THF    H13 6695   3.741   1.581   2.725  1.0713  0.0871 -0.8717
  516THF     O1 6696   0.230   1.325   4.176 -0.4858  0.6749  0.1490
  516THF     C2 6697   0.296   1.376   4.063  1.1151 -0.3419 -0.2295
  516THF     C3 6698   0.254   1.407   4.289 -0.0481 -0.6624 -0.2503
  516THF     H4 6699   0.241   1.345   3.974 -1.3500  2.2011 -1.6546
  516THF     H5 6700   0.397   1.343   4.056  1.2456  2.1188 -2.1098
  516THF     H6 6701   0.200   1.382   4.377 -0.6203  0.0644 -0.8949
  516THF     H7 6702   0.363   1.404   4.309 -0.4166  0.3618 -0.4970
  516THF     C8 6703   0.220   1.539   4.226 -0.5867 -0.3404 -0.0474
  516THF     C9 6704   0.292   1.532   4.089  0.0984 -0.8619 -0.8255
  516THF    H10 6705   0.256   1.627   4.292  0.9333 -1.0883  1.2474
  516THF    H11 6706   0.113   1.550   4.222 -0.2185  1.1720  0.8235
  516THF    H12 6707   0.229   1.582   4.014  0.6621  1.9166 -0.6644
  516THF    H13 6708   0.389   1.578   4.075  1.6723  0.7879 -0.3170
  517THF     O1 6709   1.592   3.058   0.092  0.1426  0.3382 -0.1075
  517THF     C2 6710   1.553   3.186   0.140  0.1147  0.3757  0.7773
  517THF     C3 6711   1.572   2.966   0.196 -0.0669  0.1494 -0.1525
  517THF     H4 6712   1.523   3.252   0.057  2.1772  0.5475  2.4556
  517THF     H5 6713   1.642   3.233   0.184 -1.4582  1.1653 -1.3400
  517THF     H6 6714   1.555   2.867   0.149 -0.8566  1.2589  0.6524
  517THF     H7 6715   1.656   2.960   0.264 -2.3452 -1.1431 -1.0038
  517THF     C8 6716   1.459   3.022   0.286 -0.4991  0.2416 -0.1055
  517THF     C9 6717   1.443   3.172   0.248  0.0508  0.6675 -0.3873
  517THF    H10 6718   1.476   2.998   0.387 -0.8561  0.0967 -1.4087
  517THF    H11 6719   1.365   2.965   0.262 -0.3797 -2.1057 -2.8606
  517THF    H12 6720   1.347   3.181   0.189  2.1105 -0.2805  1.1780
  517THF    H13 6721   1.458   3.224   0.345 -0.1103  0.6742  0.2315
  518THF     O1 6722   2.007   5.292   2.535  0.5463  0.2276 -0.2642
  518THF     C2 6723   1.943   5.283   2.409 -0.9671  0.3669  0.6518
  518THF     C3 6724   1.908   5.335   2.628  0.1302 -0.4664 -0.2858
  518THF     H4 6725   1.994   5.212   2.332  3.1272  0.0757  1.1616
  518THF     H5 6726   1.937   5.382   2.363  2.7165 -0.7997 -0.0254
  518THF     H6 6727   1.936   5.318   2.728  3.2932  1.0068  1.9291
  518THF     H7 6728   1.893   5.446   2.618  0.4940 -0.8801  0.1446
  518THF     C8 6729   1.787   5.270   2.588  0.2110 -0.1166 -0.1390
  518THF     C9 6730   1.800   5.233   2.440 -0.6423 -0.6883  0.4266
  518THF    H10 6731   1.705   5.335   2.599 -0.9535 -3.8700 -0.2065
  518THF    H11 6732   1.766   5.190   2.663 -0.3818  0.5742  2.9160
  518THF    H12 6733   1.783   5.126   2.437 -0.3311 -1.8326 -0.5748
  518THF    H13 6734   1.730   5.286   2.375 -2.8165  0.4828 -1.1028
  519THF     O1 6735   3.116   0.346   0.428  0.3567  0.4356  0.3187
  519THF     C2 6736   3.208   0.449   0.459  0.1904 -0.1228 -0.0382
  519THF     C3 6737   2.992   0.402   0.469 -0.5034 -0.0117 -0.1282
  519THF     H4 6738   3.230   0.521   0.378 -0.7786  2.1299  0.7454
  519THF     H5 6739   3.302   0.413   0.500 -1.4555  1.7929 -2.7849
  519THF     H6 6740   2.976   0.479   0.401  0.5152  1.6354  0.9583
  519THF     H7 6741   2.906   0.330   0.482  2.0609  1.4263 -0.6660
  519THF     C8 6742   3.022   0.451   0.607 -0.1827 -0.7628 -0.0734
  519THF     C9 6743   3.151   0.532   0.574  0.8355  0.2154 -0.0207
  519THF    H10 6744   3.038   0.358   0.668  1.4430 -2.5373 -2.6801
  519THF    H11 6745   2.947   0.507   0.667  0.5368 -1.6406  0.2046
  519THF    H12 6746   3.131   0.633   0.541 -2.0901  2.2527 -0.8864
  519THF    H13 6747   3.224   0.528   0.656  0.2425 -0.9422  1.1508
  520THF     O1 6748   0.580   2.412   2.764 -0.4620  0.3735 -0.1368
  520THF     C2 6749   0.510   2.292   2.761  0.3559  0.0696 -0.4125
  520THF     C3 6750   0.607   2.435   2.897 -0.0537  0.0361 -0.1213
  520THF     H4 6751   0.567   2.215   2.799 -1.1126  0.3604 -0.2982
  520THF     H5 6752   0.471   2.267   2.662  0.0848  1.5513  0.8408
  520THF     H6 6753   0.692   2.372   2.932 -2.3935  0.9263 -1.2983
  520THF     H7 6754   0.631   2.547   2.907  1.0031 -0.1191  1.1737
  520THF     C8 6755   0.483   2.384   2.968 -0.0557  0.0885  0.0078
  520THF     C9 6756   0.411   2.310   2.864 -0.1263  0.0668 -0.0133
  520THF    H10 6757   0.420   2.475   2.994  0.2919  0.8645  1.2549
  520THF    H11 6758   0.499   2.327   3.060 -2.4224 -3.1027 -2.0804
  520THF    H12 6759   0.373   2.215   2.900 -0.5281  1.1629  0.6553
  520THF    H13 6760   0.331   2.365   2.815  0.8806  0.5139  4.6828
  521THF     O1 6761   0.704   3.438   0.679  0.2716  0.1237 -0.5627
  521THF     C2 6762   0.610   3.429   0.788  0.0155 -0.2086 -0.1991
  521THF     C3 6763   0.821   3.512   0.726  0.2310  0.5703  0.0152
  521THF     H4 6764   0.639   3.345   0.851  0.4538 -0.6289  1.7776
  521THF     H5 6765   0.503   3.415   0.762 -3.6118 -0.1401  0.0031
  521THF     H6 6766   0.913   3.450   0.753  1.9170  1.5227  0.6702
  521THF     H7 6767   0.846   3.573   0.637  2.0031 -0.7312 -2.1316
  521THF     C8 6768   0.776   3.607   0.840  0.4732  0.3082  0.0012
  521THF     C9 6769   0.623   3.573   0.845 -0.6154 -0.2793 -0.7915
  521THF    H10 6770   0.791   3.717   0.824  1.7043  1.1741  0.5647
  521THF    H11 6771   0.814   3.576   0.939 -0.3523 -0.2027 -0.6209
  521THF    H12 6772   0.589   3.581   0.956 -3.1382  0.5676  1.7911
  521THF    H13 6773   0.557   3.634   0.782 -1.3405 -1.2151  0.1150
  522THF     O1 6774   2.475   3.424   0.280  0.7778  0.0253 -0.4571
  522THF     C2 6775   2.520   3.309   0.341 -0.6997 -0.4772 -0.5339
  522THF     C3 6776   2.341   3.437   0.317  0.6281 -0.5314 -0.5539
  522THF     H4 6777   2.629   3.310   0.328  0.5453  1.9654  0.6882
  522THF     H5 6778   2.487   3.212   0.293  1.2986 -0.9699 -2.2729
  522THF     H6 6779   2.299   3.535   0.301  1.1881  2.1236 -1.7954
  522THF     H7 6780   2.287   3.367   0.260 -1.2612 -0.7121  1.4645
  522THF     C8 6781   2.339   3.401   0.459  0.0530  0.7065  0.1774
  522THF     C9 6782   2.472   3.321   0.479 -0.4727 -0.2229  0.3088
  522THF    H10 6783   2.252   3.339   0.485 -1.2070 -1.2531  0.0778
  522THF    H11 6784   2.333   3.487   0.524  3.2694 -1.3763  1.8441
  522THF    H12 6785   2.542   3.371   0.550 -0.2344 -0.1397  1.0032
  522THF    H13 6786   2.449   3.221   0.520  1.5214  0.4773  0.8979
  523THF     O1 6787   1.041   1.947   1.218 -0.3057  0.4229 -0.1941
  523THF     C2 6788   1.183   1.931   1.208 -0.2819 -0.6810 -0.1343
  523THF     C3 6789   1.021   2.082   1.166 -0.6254  0.2221 -0.5494
  523THF     H4 6790   1.204   1.919   1.101  0.0870 -1.0912 -1.7021
  523THF     H5 6791   1.207   1.847   1.280 -1.5633 -0.0334  0.8662
  523THF     H6 6792   1.024   2.077   1.054 -2.8235 -1.5441  0.0730
  523THF     H7 6793   0.931   2.125   1.197 -0.0317 -0.7611 -2.4041
  523THF     C8 6794   1.138   2.163   1.226  0.3033 -0.0681 -0.2426
  523THF     C9 6795   1.246   2.061   1.258  0.9228  0.1740  0.0380
  523THF    H10 6796   1.108   2.216   1.313  1.7668 -1.4919 -0.4337
  523THF    H11 6797   1.161   2.229   1.147  0.1279 -2.1614  0.5984
  523THF    H12 6798   1.330   2.079   1.191  0.4723 -0.0895 -2.3134
  523THF    H13 6799   1.269   2.070   1.361  0.0366  3.5411  0.5235
  524THF     O1 6800   1.713   2.395   1.752  0.1256  0.0313 -0.1498
  524THF     C2 6801   1.828   2.442   1.685 -0.1558 -0.0318 -0.1600
  524THF     C3 6802   1.704   2.258   1.736  0.3482 -0.4858  0.5780
  524THF     H4 6803   1.913   2.422   1.749 -0.7351  1.3713  0.9480
  524THF     H5 6804   1.840   2.544   1.681  1.3150 -1.1344  0.6838
  524THF     H6 6805   1.786   2.210   1.794  1.8192  0.5898 -1.3551
  524THF     H7 6806   1.605   2.239   1.745 -0.3992 -1.5291  0.2716
  524THF     C8 6807   1.738   2.249   1.590  0.0168  0.1065  0.3799
  524THF     C9 6808   1.818   2.368   1.550 -0.4997  0.3090  0.1455
  524THF    H10 6809   1.636   2.234   1.542  1.1737 -0.6558 -0.0737
  524THF    H11 6810   1.804   2.161   1.583  1.0751  0.5410  0.1758
  524THF    H12 6811   1.917   2.344   1.518 -0.7376  0.5041  1.0441
  524THF    H13 6812   1.765   2.438   1.488 -0.5349  0.3680 -1.9205
  525THF     O1 6813   2.744   1.238   3.867 -0.3576  0.3973  0.5986
  525THF     C2 6814   2.816   1.285   3.977 -0.5507  0.4711  0.2957
  525THF     C3 6815   2.611   1.199   3.897  0.2729 -0.0004 -0.0415
  525THF     H4 6816   2.843   1.385   3.960 -1.7491 -0.6606  0.6896
  525THF     H5 6817   2.906   1.227   3.977  0.3846  1.9245  1.3337
  525THF     H6 6818   2.539   1.272   3.856 -0.5356  0.9329 -0.5494
  525THF     H7 6819   2.598   1.104   3.846 -1.3724 -0.0626 -0.2688
  525THF     C8 6820   2.606   1.188   4.054 -0.6780  0.0922  0.5114
  525THF     C9 6821   2.721   1.279   4.091 -0.3714 -0.2055 -0.4048
  525THF    H10 6822   2.634   1.086   4.081  1.3322  1.3975 -2.8967
  525THF    H11 6823   2.509   1.223   4.094  0.6517  1.8860  3.1255
  525THF    H12 6824   2.683   1.380   4.087 -0.8003 -1.6288 -0.8774
  525THF    H13 6825   2.770   1.258   4.188 -0.2865  3.4393 -1.5155
  526THF     O1 6826   3.263   2.976   2.434 -0.1620 -0.0523  0.3845
  526THF     C2 6827   3.216   2.922   2.559 -0.6639 -0.0556  0.0809
  526THF     C3 6828   3.161   3.036   2.359 -0.2436  0.3901 -0.4992
  526THF     H4 6829   3.275   2.971   2.647  1.0732 -0.9624  0.0436
  526THF     H5 6830   3.230   2.817   2.567 -0.7616 -0.1089 -1.2367
  526THF     H6 6831   3.167   3.139   2.382  2.9106 -0.3391 -1.6034
  526THF     H7 6832   3.169   3.022   2.247 -1.9130 -2.0651 -3.0974
  526THF     C8 6833   3.033   2.964   2.415  0.3766  0.0805 -0.4881
  526THF     C9 6834   3.067   2.940   2.559  0.3834 -0.4839  1.0200
  526THF    H10 6835   3.013   2.869   2.360  2.8757 -2.2567 -1.5354
  526THF    H11 6836   2.942   3.028   2.404  0.4570  0.6775 -1.0752
  526THF    H12 6837   3.052   3.031   2.608 -1.4566 -2.3472 -0.8279
  526THF    H13 6838   3.015   2.859   2.605 -1.0139  1.3093  1.8373
  527THF     O1 6839   2.927   2.346   2.637 -0.0916  0.3553  0.4928
  527THF     C2 6840   2.935   2.433   2.754 -0.0562  0.5260 -0.4069
  527THF     C3 6841   2.983   2.225   2.674  0.2263  0.4074 -0.5602
  527THF     H4 6842   2.859   2.409   2.832 -1.4400 -1.5663  1.1162
  527THF     H5 6843   2.908   2.536   2.745 -2.6289 -0.8161  2.5901
  527THF     H6 6844   2.905   2.166   2.718 -0.3459  0.3956 -0.8477
  527THF     H7 6845   3.014   2.160   2.594 -0.2189 -2.0591  0.9650
  527THF     C8 6846   3.092   2.255   2.780  0.1401 -1.0922 -0.3257
  527THF     C9 6847   3.074   2.406   2.801  0.3409 -0.2205 -0.3418
  527THF    H10 6848   3.185   2.231   2.739 -4.1545 -0.0040  2.3494
  527THF    H11 6849   3.084   2.199   2.874  2.0731 -0.4467 -1.7890
  527THF    H12 6850   3.090   2.446   2.897 -0.4261 -2.6089  0.3827
  527THF    H13 6851   3.134   2.467   2.735  1.4381  1.8781  1.2384
  528THF     O1 6852   0.011   4.952   0.297  0.1863 -0.2934  0.1658
  528THF     C2 6853   0.143   4.912   0.352 -0.1076  0.3570  0.5822
  528THF     C3 6854   0.050   4.973   0.160 -0.3679 -0.2944  0.1734
  528THF     H4 6855   0.161   4.805   0.317 -0.2365 -0.3621  0.3915
  528THF     H5 6856   0.136   4.913   0.466 -1.3360  0.3811  1.1700
  528THF     H6 6857   0.070   4.871   0.122 -2.1845  0.7977  1.0541
  528THF     H7 6858  -0.028   5.017   0.097  0.2952  0.7027 -0.8773
  528THF     C8 6859   0.186   5.056   0.171 -1.1369 -0.6829 -0.1908
  528THF     C9 6860   0.255   5.002   0.299  0.0266  0.3567  0.0993
  528THF    H10 6861   0.151   5.160   0.190 -0.4221  0.3767  0.8329
  528THF    H11 6862   0.248   5.045   0.086 -1.6522 -0.2225 -0.4613
  528THF    H12 6863   0.351   4.953   0.284 -1.9277 -0.5604  2.2295
  528THF    H13 6864   0.265   5.083   0.369  0.6653 -0.5083  0.2482
  529THF     O1 6865   3.364   2.365   4.781  0.6892  0.6717 -0.0236
  529THF     C2 6866   3.427   2.236   4.775  0.0823 -0.6047 -0.3502
  529THF     C3 6867   3.231   2.355   4.791  0.2438  0.4592  0.1056
  529THF     H4 6868   3.534   2.227   4.809  1.4502  0.7841  1.2674
  529THF     H5 6869   3.402   2.177   4.685 -1.4799  1.2915 -1.2361
  529THF     H6 6870   3.199   2.416   4.873 -0.0429 -0.6922  1.7576
  529THF     H7 6871   3.184   2.383   4.699  0.3218  1.6248  1.4407
  529THF     C8 6872   3.204   2.203   4.826 -0.4921  0.0401  0.1071
  529THF     C9 6873   3.343   2.157   4.866  0.7151 -0.3731 -0.4184
  529THF    H10 6874   3.168   2.145   4.744  0.1615  0.5772 -0.7650
  529THF    H11 6875   3.125   2.196   4.901 -0.0397  3.2238 -0.4274
  529THF    H12 6876   3.368   2.211   4.960 -0.8094  0.4960  1.8822
  529THF    H13 6877   3.349   2.048   4.868  0.2636 -0.0202  0.5293
  530THF     O1 6878   3.519   2.440   1.901 -0.4039  0.3291  0.3143
  530THF     C2 6879   3.533   2.371   2.021  0.3210  0.3566 -0.0727
  530THF     C3 6880   3.432   2.553   1.928 -0.4205  0.3458  1.1481
  530THF     H4 6881   3.636   2.340   2.023  0.4711 -0.5515 -0.3262
  530THF     H5 6882   3.469   2.283   2.032 -1.4916 -1.6981 -0.6004
  530THF     H6 6883   3.451   2.633   1.850  0.6790  3.0260  1.6038
  530THF     H7 6884   3.324   2.520   1.925  0.0745  1.8748 -3.0527
  530THF     C8 6885   3.481   2.600   2.064 -0.0573 -0.0180  0.1927
  530THF     C9 6886   3.505   2.469   2.130  0.4117  0.3264 -0.1063
  530THF    H10 6887   3.396   2.641   2.120  0.2390  0.5194  1.4888
  530THF    H11 6888   3.577   2.656   2.053 -0.4674  0.5759 -0.9980
  530THF    H12 6889   3.581   2.471   2.206  0.5288 -0.3541 -1.2116
  530THF    H13 6890   3.413   2.427   2.186 -0.8487 -2.3544  1.1277
  531THF     O1 6891   4.534   4.532   4.824  0.0461  0.0497  0.2424
  531THF     C2 6892   4.672   4.537   4.795 -0.4331  0.2697  0.9956
  531THF     C3 6893   4.471   4.596   4.717  0.0926  0.5476  0.0155
  531THF     H4 6894   4.713   4.452   4.740 -0.8300  3.8558  0.9832
  531THF     H5 6895   4.732   4.530   4.889 -0.3711 -0.8209  1.7599
  531THF     H6 6896   4.465   4.525   4.629  1.0817  1.7626  2.1005
  531THF     H7 6897   4.366   4.618   4.740 -1.0941 -0.4815 -0.4126
  531THF     C8 6898   4.566   4.717   4.687  0.1490 -0.1726  0.3928
  531THF     C9 6899   4.699   4.664   4.722 -0.6264  0.1939  0.8651
  531THF    H10 6900   4.543   4.809   4.747 -1.1896  1.3259  2.2456
  531THF    H11 6901   4.537   4.767   4.589 -1.6186 -0.4825  0.8589
  531THF    H12 6902   4.756   4.638   4.635  0.3107 -1.8664 -1.0078
  531THF    H13 6903   4.755   4.734   4.789 -0.1335 -1.9877 -0.5914
  532THF     O1 6904   1.737   3.110   1.161 -0.5501 -0.3531 -0.0016
  532THF     C2 6905   1.881   3.114   1.155 -0.3775 -0.8364 -0.5400
  532THF     C3 6906   1.693   3.238   1.114  0.0757 -0.1784  0.2104
  532THF     H4 6907   1.917   3.093   1.059 -0.5700  0.4568  0.7443
  532THF     H5 6908   1.911   3.030   1.224  0.0511 -1.1781  0.7328
  532THF     H6 6909   1.691   3.238   1.011  1.6650 -1.3131  0.0066
  532THF     H7 6910   1.598   3.263   1.147 -1.5011 -0.5019  0.8948
  532THF     C8 6911   1.806   3.338   1.152  0.4497  1.1310 -0.5189
  532THF     C9 6912   1.919   3.256   1.202  0.2568  0.5187 -0.3839
  532THF    H10 6913   1.787   3.409   1.230  0.5764  1.9694  2.1880
  532THF    H11 6914   1.845   3.397   1.071 -0.8179  1.9336 -1.0315
  532THF    H12 6915   2.014   3.289   1.158 -0.4140  3.3491 -1.5682
  532THF    H13 6916   1.910   3.248   1.313  0.3625 -0.8759  0.6384
  533THF     O1 6917   0.462   4.570   3.861 -0.2414  0.0187 -0.1646
  533THF     C2 6918   0.405   4.442   3.890 -0.1224 -0.4522 -0.7633
  533THF     C3 6919   0.507   4.577   3.730 -0.8791  0.8327 -0.7995
  533THF     H4 6920   0.319   4.446   3.953 -0.6572 -1.4794  2.3883
  533THF     H5 6921   0.484   4.374   3.918 -2.4280  0.6992  2.3533
  533THF     H6 6922   0.509   4.679   3.697 -1.1414 -0.1603  0.6867
  533THF     H7 6923   0.617   4.556   3.732  0.6184  1.0310  0.1894
  533THF     C8 6924   0.427   4.471   3.649 -0.3279  0.4899 -0.7674
  533THF     C9 6925   0.355   4.388   3.754  0.6445 -0.0448 -0.4560
  533THF    H10 6926   0.482   4.430   3.572 -1.4047 -1.8938 -2.9151
  533THF    H11 6927   0.357   4.528   3.585  0.1660 -0.9229  0.1882
  533THF    H12 6928   0.246   4.392   3.729  0.5472 -0.4357  0.9809
  533THF    H13 6929   0.386   4.287   3.736  3.1982 -0.6042 -0.9287
  534THF     O1 6930   1.464   1.432   0.867  0.5008  0.1294  0.0757
  534THF     C2 6931   1.467   1.553   0.941 -0.7547  0.4165  0.4295
  534THF     C3 6932   1.329   1.408   0.830  0.2769 -0.2573  0.7637
  534THF     H4 6933   1.439   1.629   0.868  2.2798 -2.3100 -3.4444
  534THF     H5 6934   1.562   1.574   0.993 -1.1938 -2.1513 -0.7595
  534THF     H6 6935   1.296   1.460   0.734 -3.1812 -1.8884 -0.3958
  534THF     H7 6936   1.301   1.305   0.813 -0.9034  1.9929  1.4737
  534THF     C8 6937   1.253   1.456   0.958  0.1516  0.1486 -0.1709
  534THF     C9 6938   1.340   1.561   1.027  0.3243 -0.0922  0.7439
  534THF    H10 6939   1.244   1.377   1.032 -0.7944  1.4319  0.6002
  534THF    H11 6940   1.150   1.481   0.946  1.2965 -0.1377  0.5807
  534THF    H12 6941   1.301   1.661   1.029  0.5317  0.0206  0.5382
  534THF    H13 6942   1.364   1.524   1.131  1.1836 -2.2857  0.8633
  535THF     O1 6943   4.958   4.398   1.582  0.1825  0.1612  0.2016
  535THF     C2 6944   5.003   4.514   1.640  0.4958  0.2576 -0.1308
  535THF     C3 6945   5.072   4.312   1.564  0.2396  0.1599 -0.4841
  535THF     H4 6946   4.918   4.575   1.667 -1.5489  2.0842 -1.7269
  535THF     H5 6947   5.044   4.574   1.560 -0.7177  1.7102  0.2167
  535THF     H6 6948   5.048   4.203   1.558  1.8697  2.3306  1.3535
  535THF     H7 6949   5.133   4.328   1.474 -2.7001  3.3547  0.6699
  535THF     C8 6950   5.166   4.344   1.678 -0.5945 -0.4515 -0.0302
  535THF     C9 6951   5.100   4.467   1.748 -0.3837  0.5847 -0.2547
  535THF    H10 6952   5.265   4.352   1.628  0.0075  2.7443 -1.4076
  535THF    H11 6953   5.176   4.252   1.740  1.9850  1.4014  2.2483
  535THF    H12 6954   5.057   4.442   1.845  1.5119  0.1790  0.4941
  535THF    H13 6955   5.175   4.543   1.774  1.1595 -3.1730 -1.4156
  536THF     O1 6956   4.813   0.294   4.826  0.9422 -0.1111  0.5920
  536THF     C2 6957   4.671   0.278   4.832 -0.5941 -0.6153  0.3973
  536THF     C3 6958   4.834   0.432   4.817 -0.1885  0.9435 -0.2737
  536THF     H4 6959   4.639   0.176   4.873 -2.2175 -1.8015  0.0556
  536THF     H5 6960   4.614   0.279   4.740  1.4341 -0.6294  1.9972
  536THF     H6 6961   4.938   0.444   4.843 -0.2061 -1.1066  4.2011
  536THF     H7 6962   4.810   0.461   4.719  0.5463  2.5868  0.8783
  536THF     C8 6963   4.744   0.499   4.925  0.0794  0.1411  0.8325
  536THF     C9 6964   4.632   0.395   4.929  0.2069  0.4499 -0.4215
  536THF    H10 6965   4.720   0.603   4.894 -1.1824 -1.7848 -2.1217
  536THF    H11 6966   4.800   0.504   5.023 -1.3733  0.6866  0.1470
  536THF    H12 6967   4.605   0.371   5.035  0.5889 -0.5374 -0.8934
  536THF    H13 6968   4.544   0.433   4.879 -1.0691  0.3294 -0.5798
  537THF     O1 6969   3.349   2.504   0.097 -0.3073 -0.5274 -0.4617
  537THF     C2 6970   3.444   2.403   0.053  0.0277  0.0343 -0.4062
  537THF     C3 6971   3.268   2.447   0.192 -0.0884  0.2397  1.4275
  537THF     H4 6972   3.537   2.449   0.029 -2.1347 -1.7250 -0.2788
  537THF     H5 6973   3.417   2.368  -0.047  1.7072  0.7584  2.4096
  537THF     H6 6974   3.225   2.528   0.253  0.8131  1.7496 -0.7949
  537THF     H7 6975   3.179   2.399   0.143  0.3724  3.3609  1.6871
  537THF     C8 6976   3.347   2.346   0.270  0.2373 -0.7149  0.2375
  537THF     C9 6977   3.441   2.294   0.166 -0.8615 -1.0387  0.9730
  537THF    H10 6978   3.277   2.270   0.309  2.5559  0.4675  3.9132
  537THF    H11 6979   3.403   2.392   0.355  0.9998  0.6524  2.5859
  537THF    H12 6980   3.538   2.292   0.213 -0.6339  0.8343 -1.4832
  537THF    H13 6981   3.410   2.192   0.127 -1.7564  1.1866 -2.2325
  538THF     O1 6982   2.003   2.356   2.191  0.0826  0.1017  0.1423
  538THF     C2 6983   1.942   2.274   2.099  0.3150  0.0518  0.2456
  538THF     C3 6984   2.123   2.409   2.127 -0.1344  0.1738  0.6970
  538THF     H4 6985   1.870   2.331   2.040 -3.4544 -2.0913 -1.8440
  538THF     H5 6986   1.890   2.190   2.147 -0.5058 -1.0407  1.6399
  538THF     H6 6987   2.105   2.497   2.063 -3.5208 -1.4416 -0.1391
  538THF     H7 6988   2.196   2.442   2.206 -0.2003  1.3298  1.8626
  538THF     C8 6989   2.179   2.284   2.054  0.1893  0.4592 -0.2796
  538THF     C9 6990   2.053   2.209   2.009  0.0885  0.8067  0.5549
  538THF    H10 6991   2.224   2.220   2.123  0.5631 -3.7838 -0.1168
  538THF    H11 6992   2.233   2.316   1.962 -0.8442  1.3858 -0.1332
  538THF    H12 6993   2.019   2.240   1.908 -1.2817 -1.6174  0.8271
  538THF    H13 6994   2.064   2.101   2.013 -0.2920  0.5560  1.7465
  539THF     O1 6995   2.892   3.407   4.193 -0.4591 -0.4093  0.0073
  539THF     C2 6996   2.901   3.379   4.329  0.0233 -0.4615  0.0800
  539THF     C3 6997   2.761   3.458   4.171 -0.0635  0.4736  0.2421
  539THF     H4 6998   3.001   3.412   4.365  1.2195  0.3939 -1.4443
  539THF     H5 6999   2.901   3.268   4.330  0.1871 -0.2667  0.4255
  539THF     H6 7000   2.773   3.561   4.160 -0.1081 -0.7428 -3.8584
  539THF     H7 7001   2.724   3.419   4.076 -1.7587 -0.2258 -0.3820
  539THF     C8 7002   2.680   3.414   4.296 -0.3753 -0.4211 -0.3514
  539THF     C9 7003   2.779   3.432   4.405 -0.5897 -0.4231 -0.2104
  539THF    H10 7004   2.649   3.316   4.286  0.7076 -0.5753 -3.2926
  539THF    H11 7005   2.587   3.468   4.301 -0.4960  3.6448  1.0221
  539THF    H12 7006   2.779   3.541   4.421 -0.5947  1.4391 -1.5138
  539THF    H13 7007   2.750   3.380   4.497  0.7703  0.4184  0.7063
  540THF     O1 7008   1.708   5.407   1.846  0.4069  0.2901 -0.2245
  540THF     C2 7009   1.579   5.398   1.794 -0.5682 -0.0330  0.3769
  540THF     C3 7010   1.741   5.295   1.926  0.2230 -0.5692 -1.1066
  540THF     H4 7011   1.586   5.323   1.711 -1.7175  1.1699  0.4359
  540THF     H5 7012   1.539   5.485   1.758  0.8485 -1.2143  1.1963
  540THF     H6 7013   1.770   5.208   1.869 -1.5165  0.2077 -0.5253
  540THF     H7 7014   1.833   5.318   1.993  2.8796  0.0366  1.3965
  540THF     C8 7015   1.607   5.267   1.997 -0.5741 -0.2759  0.2879
  540THF     C9 7016   1.497   5.330   1.907  0.2936  0.3959 -0.6712
  540THF    H10 7017   1.595   5.318   2.097  1.5593 -4.4292  0.1247
  540THF    H11 7018   1.587   5.164   2.025 -1.6731 -0.8931  0.1316
  540THF    H12 7019   1.421   5.261   1.869 -0.9802 -1.6282 -3.5208
  540THF    H13 7020   1.450   5.403   1.963 -0.9335 -2.8221 -2.2536
  541THF     O1 7021   0.291   3.745   0.223  0.3839  0.3569 -0.5463
  541THF     C2 7022   0.190   3.691   0.134  0.2633 -0.3980  0.2348
  541THF     C3 7023   0.219   3.795   0.337  0.4677 -0.0528  0.5779
  541THF     H4 7024   0.149   3.596   0.166 -2.1385  2.2245 -0.1636
  541THF     H5 7025   0.230   3.674   0.033  1.1836 -0.1768  0.1203
  541THF     H6 7026   0.202   3.719   0.410  3.1478  0.7719  0.6946
  541THF     H7 7027   0.278   3.874   0.384  2.8243 -0.3943 -1.1603
  541THF     C8 7028   0.094   3.864   0.285  0.2535 -0.0076  0.5708
  541THF     C9 7029   0.070   3.793   0.148 -0.0534  0.6359  0.3918
  541THF    H10 7030   0.091   3.970   0.268  1.9388  0.6156  1.7114
  541THF    H11 7031   0.010   3.846   0.346  1.5206 -0.6648 -1.3654
  541THF    H12 7032  -0.023   3.733   0.132 -0.3587 -3.0319 -2.9241
  541THF    H13 7033   0.077   3.869   0.064  0.4753  0.2310  0.1988
  542THF     O1 7034   4.853   1.761   5.493 -0.0077 -0.7639 -0.5407
  542THF     C2 7035   4.850   1.668   5.604 -0.3590  0.1901  0.1731
  542THF     C3 7036   4.765   1.873   5.515 -0.2018  0.0430  0.7006
  542THF     H4 7037   4.949   1.614   5.615  2.3570  0.7222  1.8438
  542THF     H5 7038   4.766   1.599   5.604  1.5835 -0.6537 -2.4415
  542THF     H6 7039   4.837   1.958   5.509  0.8757 -0.4680  1.1233
  542THF     H7 7040   4.688   1.891   5.440  0.5325  1.3619  0.0489
  542THF     C8 7041   4.712   1.856   5.662 -0.1390  0.5957 -0.1645
  542THF     C9 7042   4.824   1.769   5.718  0.0070  0.1244  0.0023
  542THF    H10 7043   4.615   1.809   5.682 -1.6292  0.2638  0.5003
  542THF    H11 7044   4.708   1.960   5.707  0.6736  1.0960  1.4536
  542THF    H12 7045   4.905   1.836   5.735  0.5505  1.2986 -1.0173
  542THF    H13 7046   4.788   1.725   5.815 -3.0518  0.6321 -1.7199
  543THF     O1 7047   0.884   3.206   1.900  0.2770 -0.1298 -0.2631
  543THF     C2 7048   0.851   3.300   1.801 -0.5081 -0.0418 -0.2369
  543THF     C3 7049   0.967   3.109   1.843  0.3638 -0.9197  0.3283
  543THF     H4 7050   0.819   3.388   1.852  0.1007 -1.1450 -1.6182
  543THF     H5 7051   0.761   3.274   1.742 -0.3105  0.3364  0.1509
  543THF     H6 7052   1.012   3.050   1.921  1.5492 -0.0193 -0.4133
  543THF     H7 7053   0.904   3.046   1.779 -0.9949  0.3289  1.2084
  543THF     C8 7054   1.067   3.197   1.758  0.0050 -0.4140  0.2283
  543THF     C9 7055   0.983   3.317   1.720 -0.5276  0.6136 -0.2628
  543THF    H10 7056   1.101   3.143   1.664 -0.7358 -1.5221 -1.7841
  543THF    H11 7057   1.148   3.234   1.822 -0.6589 -1.2394  2.7343
  543THF    H12 7058   1.030   3.407   1.758 -3.4618  1.0732  2.5296
  543THF    H13 7059   0.966   3.319   1.613 -1.0851 -3.9604  1.6009
  544THF     O1 7060   4.171   0.870   3.562  0.4006 -0.6766 -0.4209
  544THF     C2 7061   4.056   0.961   3.572  0.4998 -0.1448  0.0104
  544THF     C3 7062   4.270   0.903   3.658  0.4712  0.4320  0.0825
  544THF     H4 7063   3.962   0.926   3.532  2.7054  1.5882 -0.0800
  544THF     H5 7064   4.079   1.057   3.526  2.5830  1.2881 -0.9920
  544THF     H6 7065   4.320   0.821   3.711 -0.3764 -2.5382 -2.1913
  544THF     H7 7066   4.352   0.947   3.604 -1.0952 -0.4322 -4.0799
  544THF     C8 7067   4.208   0.994   3.760  0.1626  0.3982 -0.5657
  544THF     C9 7068   4.055   0.988   3.727 -1.1176  0.6622 -0.0119
  544THF    H10 7069   4.257   1.092   3.740  0.0311  4.0813  1.4573
  544THF    H11 7070   4.230   0.951   3.860 -1.5188  0.7741 -0.4076
  544THF    H12 7071   4.021   0.895   3.768 -1.8007  0.7509 -1.2142
  544THF    H13 7072   3.995   1.074   3.758  1.4440  0.2553  2.2532
  545THF     O1 7073   4.109   3.174   4.448  0.2665 -0.1702 -0.6085
  545THF     C2 7074   4.218   3.203   4.536  0.1158 -0.4758  0.7297
  545THF     C3 7075   4.048   3.290   4.398 -0.3777 -0.0957  0.4147
  545THF     H4 7076   4.308   3.206   4.477 -0.7992  2.3419  0.5406
  545THF     H5 7077   4.221   3.131   4.614  0.7638 -0.8185 -0.4027
  545THF     H6 7078   4.040   3.283   4.291  0.3829  0.8204  1.3960
  545THF     H7 7079   3.948   3.291   4.441 -0.1875 -1.1555 -0.9290
  545THF     C8 7080   4.124   3.410   4.457 -0.3550 -0.0358 -0.3319
  545THF     C9 7081   4.180   3.340   4.582  0.1447 -0.1748  0.3196
  545THF    H10 7082   4.075   3.502   4.487  1.2613 -4.7159  0.5201
  545THF    H11 7083   4.201   3.431   4.383 -0.7764  0.4430  1.1175
  545THF    H12 7084   4.271   3.392   4.622  1.5942 -0.6599 -2.3157
  545THF    H13 7085   4.106   3.343   4.660 -0.1394 -2.2364  1.2688
  546THF     O1 7086   0.766   4.596   2.172  0.2585  0.1187  0.9241
  546THF     C2 7087   0.824   4.726   2.192 -0.8803 -0.4741 -0.7263
  546THF     C3 7088   0.670   4.571   2.274  0.5332 -0.0888  0.6369
  546THF     H4 7089   0.830   4.769   2.094 -0.6016 -0.0027  2.3084
  546THF     H5 7090   0.925   4.707   2.225  3.5635  0.3166  1.6132
  546THF     H6 7091   0.587   4.516   2.242  2.0033  3.5929  1.5676
  546THF     H7 7092   0.714   4.516   2.360 -0.0786 -2.8022 -0.0042
  546THF     C8 7093   0.616   4.707   2.318  0.0040  0.0437 -0.2239
  546THF     C9 7094   0.742   4.788   2.303  1.3243 -0.5304  0.4968
  546THF    H10 7095   0.566   4.714   2.414  0.6356  0.1982 -0.6292
  546THF    H11 7096   0.533   4.748   2.256  2.0121  2.5595  1.4323
  546THF    H12 7097   0.719   4.886   2.280  0.8658 -0.5735  1.7269
  546THF    H13 7098   0.794   4.786   2.398 -1.1160  1.1025  1.9001
  547THF     O1 7099   1.890   3.439   5.305  0.0768 -0.0497  0.0489
  547THF     C2 7100   1.871   3.488   5.442 -0.0163  0.1353  0.0910
  547THF     C3 7101   2.027   3.415   5.282 -0.7947 -0.0204 -0.8433
  547THF     H4 7102   1.778   3.447   5.484 -0.9643 -0.7121  0.0536
  547THF     H5 7103   1.869   3.600   5.455  0.6618  0.5970  1.5759
  547THF     H6 7104   2.044   3.335   5.209 -0.2074 -2.2805  3.2711
  547THF     H7 7105   2.079   3.502   5.246  2.1134  2.1021  0.2810
  547THF     C8 7106   2.087   3.375   5.426  0.2563  0.3969 -0.2055
  547THF     C9 7107   1.981   3.415   5.526 -0.5309 -0.0420 -0.0419
  547THF    H10 7108   2.186   3.416   5.440  0.9523 -0.1534  0.8067
  547THF    H11 7109   2.105   3.271   5.437  0.9255  2.2103  2.7548
  547THF    H12 7110   1.936   3.331   5.573 -0.5081 -2.4653 -1.3993
  547THF    H13 7111   2.022   3.475   5.609 -0.1534 -0.9377  0.9929
  548THF     O1 7112   4.288   3.310   0.936 -0.2456  0.5146  1.3822
  548THF     C2 7113   4.166   3.341   0.860  0.7313 -0.7617  0.1504
  548THF     C3 7114   4.392   3.340   0.846  0.5447 -0.0322 -0.7816
  548THF     H4 7115   4.141   3.446   0.885 -3.3674 -1.1775  0.4979
  548THF     H5 7116   4.081   3.281   0.904 -1.9954  1.2932 -0.4812
  548THF     H6 7117   4.387   3.442   0.836 -0.2185 -0.3032  1.9650
  548THF     H7 7118   4.488   3.301   0.876 -1.1990 -0.4076 -2.1667
  548THF     C8 7119   4.349   3.292   0.706  0.1307  0.5872 -0.5233
  548THF     C9 7120   4.196   3.307   0.716 -0.6416 -0.3213 -0.0336
  548THF    H10 7121   4.376   3.188   0.699 -1.9680 -1.3715  1.7650
  548THF    H11 7122   4.390   3.340   0.616  2.4728  2.3158 -0.2920
  548THF    H12 7123   4.156   3.395   0.667  3.5740  0.7224 -0.6736
  548THF    H13 7124   4.132   3.227   0.690  3.5894  1.0461  1.3611
  549THF     O1 7125   2.817   2.208   4.552 -0.2851  0.1847  0.3919
  549THF     C2 7126   2.944   2.161   4.584 -0.0695  0.3545  0.0239
  549THF     C3 7127   2.766   2.132   4.444  0.3425 -0.5327  0.1162
  549THF     H4 7128   2.936   2.090   4.670  0.7331  3.5450  1.5361
  549THF     H5 7129   3.009   2.241   4.624 -1.0604 -3.5856  2.5440
  549THF     H6 7130   2.705   2.049   4.479  1.7372  0.8885 -1.3665
  549THF     H7 7131   2.702   2.180   4.374  0.6286  2.1018  0.3300
  549THF     C8 7132   2.885   2.065   4.376 -0.7849 -0.4470 -0.3803
  549THF     C9 7133   3.005   2.105   4.465 -0.3376 -0.1005  0.2140
  549THF    H10 7134   2.906   2.107   4.272 -1.7571  1.5640  0.3721
  549THF    H11 7135   2.875   1.957   4.363 -3.3126  2.8859 -1.0854
  549THF    H12 7136   3.073   2.018   4.479  0.3076  1.2055  4.3495
  549THF    H13 7137   3.064   2.178   4.413 -0.8481  1.0864  3.5096
  550THF     O1 7138   0.198   5.436   3.653  0.0087 -0.1462 -0.3214
  550THF     C2 7139   0.129   5.318   3.604  0.6518  0.4245  0.3962
  550THF     C3 7140   0.333   5.415   3.616  0.1403 -0.3854 -0.7113
  550THF     H4 7141   0.028   5.358   3.606 -0.3965  0.1764 -1.2653
  550THF     H5 7142   0.147   5.237   3.676  0.3953  0.7935  0.8476
  550THF     H6 7143   0.385   5.519   3.620  0.0126  2.6864  1.6176
  550THF     H7 7144   0.369   5.355   3.697  0.6868  0.7050  0.9946
  550THF     C8 7145   0.332   5.344   3.481  0.0618  0.0992  0.8427
  550THF     C9 7146   0.193   5.294   3.460 -0.7813 -0.4859 -0.6385
  550THF    H10 7147   0.402   5.261   3.477 -0.7825 -1.4025 -2.2327
  550THF    H11 7148   0.362   5.415   3.407  0.0665  0.3068  0.0762
  550THF    H12 7149   0.146   5.347   3.376  0.2071  0.7236  0.4156
  550THF    H13 7150   0.192   5.191   3.434  3.3452  0.2651  3.4160
  551THF     O1 7151   2.317   4.785   4.802 -0.4585 -0.7463 -0.2563
  551THF     C2 7152   2.300   4.849   4.680  1.0433  0.8253 -0.6394
  551THF     C3 7153   2.349   4.652   4.773  0.0970  0.2721 -0.1967
  551THF     H4 7154   2.400   4.871   4.637  0.1334 -0.0978 -0.8496
  551THF     H5 7155   2.249   4.948   4.675  0.0481  0.5514 -0.6619
  551THF     H6 7156   2.461   4.639   4.753  0.7833 -0.5940  2.2812
  551THF     H7 7157   2.324   4.600   4.867 -0.2076  1.3645  0.5662
  551THF     C8 7158   2.254   4.614   4.660 -0.3031  0.0476 -0.3805
  551THF     C9 7159   2.217   4.751   4.597  0.5121 -0.1389  0.0479
  551THF    H10 7160   2.157   4.574   4.689 -0.9384  0.5831 -1.2887
  551THF    H11 7161   2.304   4.554   4.585 -0.9345  0.1119  2.8373
  551THF    H12 7162   2.238   4.759   4.488  1.7567 -1.7097 -2.3409
  551THF    H13 7163   2.109   4.783   4.606  0.4395 -0.1881  1.3049
  552THF     O1 7164   1.942   1.723   4.053 -0.3406 -0.1919  0.1389
  552THF     C2 7165   1.898   1.640   4.163 -0.3676  1.2453  0.6963
  552THF     C3 7166   1.918   1.861   4.079  0.1412 -0.4105  0.2124
  552THF     H4 7167   1.940   1.538   4.178 -2.6436 -1.9648 -1.2510
  552THF     H5 7168   1.789   1.639   4.156  1.6674  0.8996  2.7399
  552THF     H6 7169   1.971   1.935   4.017  0.1302 -2.9582  0.7975
  552THF     H7 7170   1.813   1.872   4.061  1.2010 -0.6045  0.4604
  552THF     C8 7171   1.945   1.875   4.223 -0.7885  0.2052  0.1694
  552THF     C9 7172   1.955   1.733   4.274  0.5244  0.4489  0.6529
  552THF    H10 7173   1.871   1.939   4.276  0.0817  2.7332 -1.0827
  552THF    H11 7174   2.038   1.935   4.230 -1.2617 -0.3962  3.4954
  552THF    H12 7175   2.055   1.703   4.294 -1.0528 -1.2698 -1.2576
  552THF    H13 7176   1.902   1.729   4.368 -2.5131  0.9016  0.9349
  553THF     O1 7177   0.174   3.740   4.657  0.6435  0.2321  0.2852
  553THF     C2 7178   0.137   3.869   4.711 -0.2496  0.7104  0.0859
  553THF     C3 7179   0.108   3.728   4.535 -0.2232 -0.0329  0.1288
  553THF     H4 7180   0.201   3.907   4.794  3.7420  2.0063  0.3999
  553THF     H5 7181   0.030   3.860   4.755 -0.1708  1.1804  2.7293
  553THF     H6 7182   0.164   3.660   4.475 -1.4981  1.8291  1.1535
  553THF     H7 7183   0.000   3.708   4.543  0.0001  2.7916  0.1062
  553THF     C8 7184   0.138   3.862   4.466  0.5436  0.0360  0.2096
  553THF     C9 7185   0.150   3.960   4.585  0.3129  0.5491  1.1388
  553THF    H10 7186   0.076   3.897   4.386 -0.0976 -1.3438  1.2075
  553THF    H11 7187   0.239   3.846   4.422  0.3800 -1.8371  0.0448
  553THF    H12 7188   0.241   4.014   4.593 -0.8238  4.3034  0.1142
  553THF    H13 7189   0.065   4.033   4.572 -2.5996 -1.3544  1.1429
  554THF     O1 7190   5.408   0.012   3.209 -0.0143 -0.1062  0.5501
  554THF     C2 7191   5.463  -0.070   3.112 -0.5133 -0.2260  1.0478
  554THF     C3 7192   5.322  -0.056   3.293 -0.8093 -0.1364 -0.9843
  554THF     H4 7193   5.554  -0.110   3.164 -0.9965  0.6924 -0.9649
  554THF     H5 7194   5.500  -0.017   3.023 -0.3756  1.8890 -0.4261
  554THF     H6 7195   5.370  -0.105   3.375 -0.7867  0.0699 -1.0753
  554THF     H7 7196   5.249   0.017   3.334 -2.3077  0.9756 -1.3688
  554THF     C8 7197   5.254  -0.160   3.195  1.0593 -0.0512 -0.8557
  554THF     C9 7198   5.363  -0.180   3.086 -0.7041 -0.1379 -0.1636
  554THF    H10 7199   5.161  -0.122   3.142  1.1722  1.9861 -2.8209
  554THF    H11 7200   5.220  -0.257   3.236 -0.5970 -2.8319  0.7570
  554THF    H12 7201   5.414  -0.280   3.105 -2.6462 -0.0908  0.8804
  554THF    H13 7202   5.318  -0.169   2.983 -3.6201 -0.8027  1.4227
  555THF     O1 7203   1.547   3.664   3.251  0.6346 -0.4989  0.6113
  555THF     C2 7204   1.608   3.627   3.370  0.8180  0.5007 -1.1618
  555THF     C3 7205   1.406   3.651   3.262 -0.0174 -0.4063  0.1642
  555THF     H4 7206   1.706   3.660   3.373 -0.4015  0.6916  0.2775
  555THF     H5 7207   1.603   3.525   3.382 -0.2265 -0.6949 -0.3387
  555THF     H6 7208   1.349   3.733   3.219 -0.2448 -0.8288 -1.4975
  555THF     H7 7209   1.367   3.548   3.234 -3.2222 -3.1804 -0.6950
  555THF     C8 7210   1.391   3.652   3.416  0.2304 -0.1730 -0.1916
  555THF     C9 7211   1.520   3.696   3.473 -0.9874  0.3810  0.3049
  555THF    H10 7212   1.355   3.554   3.453  1.0918  1.1721  0.3360
  555THF    H11 7213   1.319   3.730   3.432  1.3125 -1.0929 -1.4144
  555THF    H12 7214   1.531   3.804   3.473  1.2814  1.6803  0.5407
  555THF    H13 7215   1.530   3.661   3.576 -1.0722  0.3357 -2.0842
  556THF     O1 7216   2.759   5.140   0.211  0.5826  0.2850 -0.0244
  556THF     C2 7217   2.901   5.106   0.206  0.2230  0.1334  1.0647
  556THF     C3 7218   2.691   5.026   0.162  0.1985  0.0529  0.2051
  556THF     H4 7219   2.928   5.043   0.291  0.5209  2.0354  0.1182
  556THF     H5 7220   2.946   5.206   0.225 -0.9433  0.5493 -0.1298
  556THF     H6 7221   2.686   4.960   0.245 -0.2130  1.2482 -1.3909
  556THF     H7 7222   2.587   5.050   0.129 -0.8153  1.0288  0.6804
  556THF     C8 7223   2.776   4.979   0.040 -0.2068 -0.3028  1.0098
  556THF     C9 7224   2.910   5.046   0.065 -0.5651  0.2574 -0.1558
  556THF    H10 7225   2.739   5.014  -0.063 -1.3871 -0.6749 -1.0345
  556THF    H11 7226   2.804   4.869   0.038 -1.3965  1.5161  3.8525
  556THF    H12 7227   2.997   4.972   0.060  1.2045 -0.3553 -0.1026
  556THF    H13 7228   2.939   5.125  -0.008  0.2657  2.6666 -1.6336
  557THF     O1 7229   4.701   4.141   4.819  0.2751  0.2385 -0.0787
  557THF     C2 7230   4.636   4.010   4.828  0.1807  0.3363  0.3001
  557THF     C3 7231   4.842   4.119   4.816  0.2430 -1.5535 -0.0179
  557THF     H4 7232   4.644   3.964   4.727  1.2771  0.8452 -0.1898
  557THF     H5 7233   4.533   4.026   4.859  0.2446  0.8875 -2.4729
  557THF     H6 7234   4.870   4.096   4.716 -0.0583 -0.0486  2.2968
  557THF     H7 7235   4.887   4.213   4.841  2.6349  1.8737 -0.8778
  557THF     C8 7236   4.860   4.003   4.911  0.1713  0.0916  0.5340
  557THF     C9 7237   4.720   3.947   4.941 -0.9957  0.1640 -0.1155
  557THF    H10 7238   4.918   4.025   4.999  0.4726  0.0360 -1.8433
  557THF    H11 7239   4.916   3.927   4.857 -1.7889 -1.9614 -0.6873
  557THF    H12 7240   4.725   3.839   4.956 -0.5605 -1.3128 -1.4748
  557THF    H13 7241   4.680   3.986   5.033 -0.0545  0.5796 -0.4950
  558THF     O1 7242   0.437   3.072   2.001  0.4146 -0.1169  0.1843
  558THF     C2 7243   0.548   3.138   1.940 -0.0020  0.4819  0.4315
  558THF     C3 7244   0.408   2.965   1.922 -0.1062 -0.1929 -0.6876
  558THF     H4 7245   0.589   3.203   2.019 -1.9112 -1.9969 -0.4112
  558THF     H5 7246   0.524   3.202   1.854  0.0748  1.1621 -1.5109
  558THF     H6 7247   0.343   2.897   1.977 -2.2701  2.4439  1.9240
  558THF     H7 7248   0.349   2.997   1.832 -1.8384  2.8778 -1.5987
  558THF     C8 7249   0.548   2.898   1.895  0.2374  0.2117  1.1241
  558THF     C9 7250   0.638   3.020   1.899 -0.0148 -0.2966 -0.0723
  558THF    H10 7251   0.540   2.845   1.791 -1.0882  0.4297  3.0116
  558THF    H11 7252   0.578   2.830   1.970 -1.9870  0.0963  2.3945
  558THF    H12 7253   0.723   2.991   1.965 -1.6938 -0.6193 -0.4104
  558THF    H13 7254   0.680   3.042   1.805 -0.8018 -0.0862  0.4303
  559THF     O1 7255   1.380   1.722   4.775  0.0926 -0.1358  0.3596
  559THF     C2 7256   1.292   1.715   4.882  0.9280 -0.0256  0.2400
  559THF     C3 7257   1.310   1.701   4.650  0.0376 -0.1496 -0.4095
  559THF     H4 7258   1.314   1.752   4.978  1.4037  1.9461 -1.9245
  559THF     H5 7259   1.263   1.615   4.904  2.4974  0.1540  0.6925
  559THF     H6 7260   1.378   1.744   4.576  0.0916 -0.8735 -0.0506
  559THF     H7 7261   1.291   1.598   4.634  2.1132  1.1622 -1.3413
  559THF     C8 7262   1.190   1.792   4.681  0.1039  0.7854 -0.2737
  559THF     C9 7263   1.173   1.797   4.829 -0.3333 -0.6619 -1.2030
  559THF    H10 7264   1.096   1.745   4.645  0.3672 -1.9149  1.3088
  559THF    H11 7265   1.214   1.894   4.647 -0.6156  2.5471  2.6519
  559THF    H12 7266   1.183   1.897   4.858 -1.7322  0.1568 -0.9279
  559THF    H13 7267   1.077   1.756   4.865 -0.9862  2.1490  3.9759
  560THF     O1 7268   4.172   4.818   2.069 -0.0322  0.2142  0.2538
  560THF     C2 7269   4.073   4.915   2.111  0.5013  0.4091  0.7153
  560THF     C3 7270   4.216   4.743   2.187  0.6389 -0.3941  0.5010
  560THF     H4 7271   4.003   4.934   2.032  1.1532  0.1455 -1.1973
  560THF     H5 7272   4.121   5.008   2.137 -1.9536  0.6440 -1.0073
  560THF     H6 7273   4.212   4.636   2.175  1.4170 -0.1068  0.9840
  560THF     H7 7274   4.315   4.758   2.219 -2.3717  0.8981 -0.6963
  560THF     C8 7275   4.116   4.777   2.295  0.3373 -0.2473  0.2092
  560THF     C9 7276   4.006   4.851   2.228  0.5940  0.2416 -0.3970
  560THF    H10 7277   4.162   4.846   2.362 -0.5414 -1.1896  1.5428
  560THF    H11 7278   4.073   4.695   2.354  0.2862  0.2582  0.1228
  560THF    H12 7279   3.915   4.789   2.199 -1.6485  1.4885 -1.7212
  560THF    H13 7280   3.964   4.929   2.296  2.9805  1.5664  0.2673
  561THF     O1 7281   0.662   5.366   0.617  0.3298 -0.3664  0.0768
  561THF     C2 7282   0.580   5.482   0.601 -0.3498  0.2606  0.0025
  561THF     C3 7283   0.579   5.248   0.625 -0.1049 -0.2367  0.2696
  561THF     H4 7284   0.638   5.569   0.553 -0.1097  0.0106 -2.3237
  561THF     H5 7285   0.560   5.524   0.705 -1.4462  0.6624 -0.3730
  561THF     H6 7286   0.633   5.168   0.579 -0.1363  1.8233  0.4655
  561THF     H7 7287   0.564   5.223   0.732  2.6510  0.0342 -0.3377
  561THF     C8 7288   0.446   5.282   0.566 -0.1898 -0.1177 -0.4535
  561THF     C9 7289   0.465   5.428   0.517  0.3367  0.0940 -0.0950
  561THF    H10 7290   0.370   5.286   0.644 -2.9564  2.1628  3.7132
  561THF    H11 7291   0.424   5.205   0.480  1.2739 -3.8506  0.6598
  561THF    H12 7292   0.481   5.432   0.413 -1.1915 -0.6646 -0.4473
  561THF    H13 7293   0.374   5.489   0.534 -1.7878  2.0778 -1.8969
  562THF     O1 7294   3.053   1.048   2.729 -0.5453 -0.6731  0.6187
  562THF     C2 7295   3.160   0.960   2.759  0.4394 -0.2138  0.0473
  562THF     C3 7296   3.005   1.024   2.598 -1.1155  0.0510  0.2811
  562THF     H4 7297   3.190   0.944   2.858 -0.6574 -2.2702 -4.2569
  562THF     H5 7298   3.247   0.991   2.701 -0.2765  1.1139  4.1099
  562THF     H6 7299   2.899   1.025   2.611 -1.2063  0.9477 -1.5640
  562THF     H7 7300   3.052   1.098   2.526  3.5641  1.4575  2.4751
  562THF     C8 7301   3.041   0.879   2.562 -0.2548 -0.1558  0.5472
  562THF     C9 7302   3.110   0.837   2.693 -0.2197  0.4848 -0.4360
  562THF    H10 7303   3.115   0.864   2.488  2.0430 -0.3116  0.0173
  562THF    H11 7304   2.962   0.815   2.537 -0.6376 -1.3785 -3.9013
  562THF    H12 7305   3.038   0.789   2.758 -0.9235  2.2704 -0.7409
  562THF    H13 7306   3.182   0.758   2.674  1.3341 -0.1505  1.7918
  563THF     O1 7307   0.751   1.035   0.881  0.3918 -0.3758 -0.0675
  563THF     C2 7308   0.789   1.151   0.813 -0.4901 -0.7188 -0.8350
  563THF     C3 7309   0.695   1.074   1.003 -0.5824  0.1991  0.2010
  563THF     H4 7310   0.698   1.197   0.771 -0.1472 -1.8063  0.7043
  563THF     H5 7311   0.863   1.123   0.738  2.9468  0.0835  0.2564
  563THF     H6 7312   0.589   1.094   0.991 -1.1888 -1.4320 -1.1268
  563THF     H7 7313   0.697   0.997   1.085 -0.2533  0.9729  0.5374
  563THF     C8 7314   0.780   1.192   1.047  0.1947 -0.5181 -0.1245
  563THF     C9 7315   0.844   1.244   0.917 -0.0370  0.3445 -1.3546
  563THF    H10 7316   0.857   1.149   1.111  0.2140  0.8322  0.9707
  563THF    H11 7317   0.720   1.274   1.093 -0.9278  0.8849 -0.9319
  563THF    H12 7318   0.821   1.348   0.899 -0.0106 -0.2590  0.0193
  563THF    H13 7319   0.946   1.217   0.934 -0.1028 -0.2932 -0.7446
  564THF     O1 7320   5.457   1.463   3.672  0.4639 -0.2871  0.3881
  564THF     C2 7321   5.493   1.536   3.793 -0.2888  0.1525 -0.4962
  564THF     C3 7322   5.454   1.327   3.710  0.2626 -0.3684 -0.0643
  564THF     H4 7323   5.456   1.636   3.783  2.6610 -0.7663 -0.7739
  564THF     H5 7324   5.600   1.540   3.807  1.3596  1.7146 -0.7312
  564THF     H6 7325   5.398   1.263   3.640 -0.2774  3.1674 -0.2450
  564THF     H7 7326   5.560   1.287   3.715 -1.2461 -0.9223  0.2059
  564THF     C8 7327   5.396   1.327   3.852  0.1347  0.5239 -0.2208
  564THF     C9 7328   5.425   1.469   3.908 -0.3328 -0.3058 -0.4908
  564THF    H10 7329   5.437   1.254   3.915  1.1326  0.2310 -1.5943
  564THF    H11 7330   5.290   1.308   3.844 -1.6462  0.8415  3.2902
  564THF    H12 7331   5.340   1.523   3.947  2.1911  0.1226  1.1709
  564THF    H13 7332   5.502   1.470   3.984  0.3702  2.1553  1.9095
  565THF     O1 7333   0.451   2.435   0.454  0.5961 -0.1192  0.1450
  565THF     C2 7334   0.588   2.433   0.429 -0.3665 -0.0962  0.1296
  565THF     C3 7335   0.392   2.441   0.327  0.1247 -0.1050  0.2906
  565THF     H4 7336   0.616   2.326   0.427  0.0657  0.4930 -1.2131
  565THF     H5 7337   0.640   2.482   0.512 -1.4318  1.0149 -1.1573
  565THF     H6 7338   0.362   2.350   0.280  2.3482 -0.6756  0.5867
  565THF     H7 7339   0.304   2.499   0.353 -2.7276  1.5132  0.5253
  565THF     C8 7340   0.481   2.517   0.229  0.2713 -0.1067 -0.0114
  565THF     C9 7341   0.619   2.501   0.293  0.3016 -0.0272  0.1750
  565THF    H10 7342   0.452   2.625   0.232 -3.4489  1.5485 -0.3560
  565THF    H11 7343   0.471   2.475   0.130  0.9549 -0.9155  1.7308
  565THF    H12 7344   0.682   2.440   0.225 -1.2959  1.9732 -0.7707
  565THF    H13 7345   0.660   2.607   0.310  2.2413  0.6458 -0.8621
  566THF     O1 7346   3.870   1.598   1.472 -0.1445 -0.0434 -0.5010
  566THF     C2 7347   3.780   1.592   1.584 -0.2610  0.6510  0.6488
  566THF     C3 7348   3.793   1.594   1.352 -0.2453  0.2750 -0.1092
  566THF     H4 7349   3.824   1.630   1.679 -2.3175  0.2344 -2.2205
  566THF     H5 7350   3.738   1.487   1.598 -0.5108  0.3743 -0.1308
  566THF     H6 7351   3.859   1.630   1.272  1.7549  1.4061  3.5958
  566THF     H7 7352   3.772   1.490   1.337 -0.4631 -0.0346 -0.6638
  566THF     C8 7353   3.666   1.677   1.384  0.0042  0.0884 -0.4921
  566THF     C9 7354   3.669   1.682   1.533 -0.4664 -1.0571  0.0862
  566THF    H10 7355   3.584   1.631   1.337 -0.2351  1.0582  1.6811
  566THF    H11 7356   3.689   1.772   1.348  0.9204 -1.2018  2.2383
  566THF    H12 7357   3.695   1.782   1.551  1.2995 -0.7580 -2.1402
  566THF    H13 7358   3.576   1.649   1.575 -1.3896 -0.4821  1.5621
  567THF     O1 7359   2.343   3.736   1.822  0.1425  0.0437  0.2714
  567THF     C2 7360   2.425   3.629   1.802 -0.5103  0.3236  0.7832
  567THF     C3 7361   2.406   3.846   1.757  0.0679 -0.3924 -0.5586
  567THF     H4 7362   2.357   3.539   1.825 -2.7739 -2.1679  2.9537
  567THF     H5 7363   2.495   3.628   1.882  0.0962  0.8360 -2.9877
  567THF     H6 7364   2.345   3.937   1.742  0.1714  0.4704  0.7874
  567THF     H7 7365   2.488   3.869   1.822 -1.6742 -0.1367 -1.0120
  567THF     C8 7366   2.445   3.787   1.623  0.5116 -0.0480  0.3710
  567THF     C9 7367   2.487   3.647   1.662 -0.3442  0.0977 -0.3919
  567THF    H10 7368   2.527   3.839   1.579 -0.2442  2.1673 -2.8276
  567THF    H11 7369   2.356   3.786   1.552 -1.7842  1.4867 -2.1384
  567THF    H12 7370   2.445   3.573   1.596  0.5550  3.6950 -1.4896
  567THF    H13 7371   2.591   3.642   1.668  0.3177 -0.3703 -4.0426
  568THF     O1 7372   1.093   5.081   4.834 -0.4519 -0.2329  0.0195
  568THF     C2 7373   1.066   5.215   4.796  0.5541  0.2649 -0.5387
  568THF     C3 7374   1.002   4.981   4.779  0.3522  0.8625  0.4625
  568THF     H4 7375   1.154   5.282   4.804  2.1270  0.9337  0.6738
  568THF     H5 7376   0.985   5.247   4.859  2.2147  0.0529 -2.7712
  568THF     H6 7377   1.046   4.882   4.780  0.9776 -0.2631  0.5702
  568THF     H7 7378   0.905   4.980   4.837 -2.2547  0.4442  0.2713
  568THF     C8 7379   0.976   5.037   4.644 -0.1725  0.5767 -0.5603
  568THF     C9 7380   1.015   5.181   4.653  0.5690 -0.0093 -0.3060
  568THF    H10 7381   0.876   5.022   4.614  3.7227  0.7793  0.0700
  568THF    H11 7382   1.043   4.986   4.574  2.3357 -1.4972  0.9938
  568THF    H12 7383   1.092   5.186   4.578 -2.0046  0.2417 -1.3714
  568THF    H13 7384   0.933   5.248   4.620  0.5285 -0.3517  1.1472
  569THF     O1 7385   1.697   2.326   4.422  0.0654  0.0686  0.0121
  569THF     C2 7386   1.826   2.349   4.486 -0.0077  0.6346 -0.0872
  569THF     C3 7387   1.658   2.452   4.370  0.0571 -0.4238 -0.9130
  569THF     H4 7388   1.888   2.261   4.492  1.7776  2.6869 -1.0959
  569THF     H5 7389   1.832   2.405   4.581 -2.1538 -1.2781  0.3902
  569THF     H6 7390   1.589   2.438   4.284  1.4084 -1.8525  0.8320
  569THF     H7 7391   1.612   2.515   4.453 -2.2048  0.2378  0.2728
  569THF     C8 7392   1.787   2.517   4.317  0.0450  0.5805  0.0950
  569THF     C9 7393   1.900   2.432   4.380 -0.2007 -0.1449 -0.1041
  569THF    H10 7394   1.794   2.618   4.352  1.0170  1.6860 -0.3170
  569THF    H11 7395   1.792   2.511   4.212 -1.3011 -1.0866 -1.1161
  569THF    H12 7396   1.933   2.367   4.297  1.0566  3.0801 -1.8240
  569THF    H13 7397   1.984   2.494   4.410 -1.8964  1.1760 -3.3458
  570THF     O1 7398   0.939   1.621   3.847 -0.0378 -0.1199 -0.0206
  570THF     C2 7399   1.061   1.688   3.827 -0.1959 -0.3922  1.0593
  570THF     C3 7400   0.957   1.524   3.950  0.3905 -0.0538 -0.4899
  570THF     H4 7401   1.056   1.778   3.766 -2.8925 -0.2635  0.9818
  570THF     H5 7402   1.132   1.629   3.769 -0.5307  0.7848 -2.1802
  570THF     H6 7403   0.864   1.504   4.009 -2.5643  1.2643  1.7370
  570THF     H7 7404   1.006   1.439   3.894  0.3665  1.1978 -0.8514
  570THF     C8 7405   1.073   1.587   4.035  0.2849  0.6868 -0.1526
  570THF     C9 7406   1.106   1.714   3.968  0.9794  0.4317  0.3677
  570THF    H10 7407   1.158   1.523   4.021 -0.5395  3.6129  0.6879
  570THF    H11 7408   1.045   1.591   4.140 -2.6977  0.0111 -1.4959
  570THF    H12 7409   1.044   1.790   4.007  0.2056 -1.9449  0.4116
  570THF    H13 7410   1.213   1.747   3.975 -1.8406  0.9688  1.8031
  571THF     O1 7411   1.458   3.200   0.747  0.1074  0.1471 -0.1253
  571THF     C2 7412   1.418   3.152   0.877  1.0584  0.3561 -0.0202
  571THF     C3 7413   1.522   3.103   0.667  0.2032  0.4041  0.0212
  571THF     H4 7414   1.315   3.179   0.904 -0.9856 -0.6351 -0.4399
  571THF     H5 7415   1.477   3.193   0.958 -0.7079  0.0430  0.2340
  571THF     H6 7416   1.467   3.100   0.572  2.2032 -1.8336  1.3992
  571THF     H7 7417   1.627   3.129   0.648 -0.9524 -2.1080  1.2810
  571THF     C8 7418   1.496   2.963   0.737 -0.6498 -0.7348  0.5407
  571THF     C9 7419   1.452   3.000   0.880  0.0119 -0.0965 -0.2888
  571THF    H10 7420   1.579   2.891   0.735  2.0556  0.6621  0.0108
  571THF    H11 7421   1.407   2.913   0.695 -0.4141 -0.3150  0.5152
  571THF    H12 7422   1.381   2.935   0.925  3.4703 -1.6448 -2.2096
  571THF    H13 7423   1.540   2.987   0.938 -0.0321 -2.7133 -0.3389
  572THF     O1 7424   0.476   4.641   5.428  0.0968 -0.1347  0.0229
  572THF     C2 7425   0.555   4.677   5.313 -0.1800 -0.5197 -0.5181
  572THF     C3 7426   0.476   4.752   5.517  0.8701  0.2686  0.1371
  572THF     H4 7427   0.545   4.602   5.238 -0.8822 -0.6670  0.8998
  572THF     H5 7428   0.658   4.668   5.340  1.0217  0.1416  1.4274
  572THF     H6 7429   0.383   4.762   5.556  1.5465  0.6191 -3.8564
  572THF     H7 7430   0.548   4.740   5.598  1.7405  3.0305 -0.1179
  572THF     C8 7431   0.511   4.876   5.435  0.3566  0.0874  0.3323
  572THF     C9 7432   0.517   4.822   5.288  0.2312  0.4818 -0.6551
  572THF    H10 7433   0.611   4.918   5.462 -0.1842 -0.9355 -0.6507
  572THF    H11 7434   0.427   4.948   5.447  2.7815  2.3044  2.5799
  572THF    H12 7435   0.416   4.833   5.239  1.4171  0.3992 -2.6529
  572THF    H13 7436   0.593   4.868   5.224 -2.1716 -0.8646  1.3378
  573THF     O1 7437   1.556   0.492   4.289 -0.1625  0.3511  0.7061
  573THF     C2 7438   1.668   0.417   4.338  0.0107 -0.5625 -0.7230
  573THF     C3 7439   1.452   0.484   4.384 -0.0247  0.2666 -0.0820
  573THF     H4 7440   1.749   0.484   4.380 -0.9694 -2.9948 -1.3320
  573THF     H5 7441   1.729   0.358   4.266  0.9042 -4.7270 -0.6477
  573THF     H6 7442   1.399   0.572   4.404  0.0441 -0.1323 -4.1781
  573THF     H7 7443   1.390   0.404   4.348 -3.0265 -0.1985 -1.3514
  573THF     C8 7444   1.515   0.434   4.509 -0.1906  0.0554 -0.3249
  573THF     C9 7445   1.611   0.336   4.451 -0.2855 -0.4159 -0.4101
  573THF    H10 7446   1.440   0.392   4.580  1.4676 -1.1538 -0.2327
  573THF    H11 7447   1.564   0.506   4.565  1.4859 -2.6831 -0.5233
  573THF    H12 7448   1.683   0.287   4.521  0.2464 -1.1078  1.4332
  573THF    H13 7449   1.556   0.258   4.404 -1.2204 -1.0475  1.3580
  574THF     O1 7450   4.601   2.978   4.991  0.0996 -0.3564  1.0407
  574THF     C2 7451   4.484   2.953   4.915  0.0976  0.1340  0.5002
  574THF     C3 7452   4.564   3.053   5.110  0.0926  0.4686 -0.5474
  574THF     H4 7453   4.470   2.840   4.923 -1.8465  2.4766 -1.3999
  574THF     H5 7454   4.504   2.987   4.813 -0.8275  0.1957 -3.7208
  574THF     H6 7455   4.620   3.002   5.190  0.1495 -1.2318 -2.8898
  574THF     H7 7456   4.580   3.165   5.111  0.4783  0.1600  0.6334
  574THF     C8 7457   4.422   3.030   5.126 -0.1177 -0.5978  0.2704
  574THF     C9 7458   4.375   3.030   4.982  0.0354  0.1103  0.2360
  574THF    H10 7459   4.373   3.108   5.180  1.4945 -1.3692 -1.8536
  574THF    H11 7460   4.393   2.933   5.163  3.9340 -0.2599 -1.9776
  574THF    H12 7461   4.275   2.988   4.965 -0.9209  0.7487  2.0050
  574THF    H13 7462   4.371   3.130   4.942 -0.1899  2.9195  0.6345
  575THF     O1 7463   5.494   3.639   0.754  0.1505  0.1855 -0.1317
  575THF     C2 7464   5.373   3.569   0.779 -0.5690  0.1024  0.3755
  575THF     C3 7465   5.588   3.550   0.702  0.8535 -0.6787  0.0228
  575THF     H4 7466   5.310   3.585   0.686  0.2725  2.4001  1.0441
  575THF     H5 7467   5.313   3.601   0.866 -1.9368  2.2453 -0.9844
  575THF     H6 7468   5.561   3.534   0.596  0.8912 -0.4322 -3.0970
  575THF     H7 7469   5.695   3.581   0.708  0.2144 -0.1492 -0.8027
  575THF     C8 7470   5.564   3.426   0.778 -0.5171  0.0223  0.5385
  575THF     C9 7471   5.416   3.423   0.799  0.2423 -0.6138 -0.2074
  575THF    H10 7472   5.608   3.438   0.878 -2.0021 -0.4280  1.3917
  575THF    H11 7473   5.594   3.329   0.729  0.1159 -2.3710 -1.2035
  575THF    H12 7474   5.361   3.368   0.722  0.4759 -1.4920 -2.8678
  575THF    H13 7475   5.402   3.384   0.899  2.0115  3.3991  0.2849
  576THF     O1 7476   2.795   2.663   1.963 -0.1945 -0.2957  0.2298
  576THF     C2 7477   2.807   2.778   2.042 -0.1258  0.5720  0.6482
  576THF     C3 7478   2.861   2.685   1.839 -0.3300  0.1561  0.0078
  576THF     H4 7479   2.912   2.798   2.080  3.0358  0.1140  1.7459
  576THF     H5 7480   2.745   2.776   2.128 -0.4717 -1.2610  0.6420
  576THF     H6 7481   2.968   2.666   1.856  0.4933  0.0036 -0.3045
  576THF     H7 7482   2.837   2.625   1.750 -1.4608  2.4377 -0.1625
  576THF     C8 7483   2.853   2.832   1.817  0.0149  0.0808 -0.0393
  576THF     C9 7484   2.772   2.885   1.936  0.2426  0.0532 -0.4973
  576THF    H10 7485   2.791   2.846   1.732 -1.9574  0.6736  0.3822
  576THF    H11 7486   2.948   2.872   1.791  0.1703 -2.6792 -0.4129
  576THF    H12 7487   2.797   2.987   1.963 -0.3077  0.3006 -0.2836
  576THF    H13 7488   2.666   2.879   1.922 -0.0616  0.4274  2.7435
  577THF     O1 7489   1.687   1.949   0.252 -0.5652  0.0375  0.2117
  577THF     C2 7490   1.602   2.037   0.317 -0.3414 -0.3100 -0.2121
  577THF     C3 7491   1.818   1.991   0.243  0.5684 -0.5758  0.4246
  577THF     H4 7492   1.615   2.042   0.423 -1.4459 -2.4920 -0.6096
  577THF     H5 7493   1.502   2.011   0.299  0.5090 -0.4812 -0.0716
  577THF     H6 7494   1.881   1.959   0.330  0.3474 -3.4207  1.9406
  577THF     H7 7495   1.867   1.937   0.164 -0.2580  1.5182  1.5249
  577THF     C8 7496   1.797   2.144   0.222  0.2213 -0.8549  1.3844
  577THF     C9 7497   1.647   2.160   0.250  0.3845  0.1557 -0.0194
  577THF    H10 7498   1.811   2.182   0.123 -0.6330  0.0046 -0.1002
  577THF    H11 7499   1.854   2.210   0.286 -0.3401  0.8625 -1.5900
  577THF    H12 7500   1.620   2.243   0.311  2.0870 -0.9095  2.7873
  577THF    H13 7501   1.587   2.169   0.164  2.0468 -0.6929  1.4885
  578THF     O1 7502   4.711   4.773   1.877 -0.8697  0.5475  0.0141
  578THF     C2 7503   4.735   4.645   1.931 -0.4500  0.3876  0.1039
  578THF     C3 7504   4.774   4.864   1.964 -0.5833  0.4749 -0.1670
  578THF     H4 7505   4.758   4.563   1.856  0.5562 -0.0488  0.6727
  578THF     H5 7506   4.642   4.613   1.985 -2.5481 -3.1530 -0.4147
  578THF     H6 7507   4.841   4.936   1.918  1.1025  2.0095  0.2971
  578THF     H7 7508   4.703   4.934   2.009  0.7439  1.1171  0.2879
  578THF     C8 7509   4.836   4.791   2.084  0.7886 -0.2085  0.2343
  578THF     C9 7510   4.847   4.647   2.031  0.2259  0.2250 -1.3658
  578THF    H10 7511   4.761   4.809   2.166 -1.4304 -2.2640  1.3551
  578THF    H11 7512   4.942   4.820   2.107  0.6777 -0.6638  0.4338
  578THF    H12 7513   4.947   4.632   1.986  0.7481  0.5337  0.2744
  578THF    H13 7514   4.828   4.569   2.111  1.0498 -0.6777  0.5335
  579THF     O1 7515   0.844   4.961   0.474  0.3069  0.0157 -0.1930
  579THF     C2 7516   0.772   4.877   0.387 -0.0400 -0.2662  0.8837
  579THF     C3 7517   0.915   5.056   0.398  0.4865  0.2616  0.3461
  579THF     H4 7518   0.681   4.844   0.443 -1.2384  2.1238  3.3493
  579THF     H5 7519   0.827   4.790   0.340  0.7218 -1.5683 -0.5436
  579THF     H6 7520   0.891   5.153   0.448  0.1300 -0.4294  1.6665
  579THF     H7 7521   1.020   5.049   0.397  2.3013  0.2604 -0.3551
  579THF     C8 7522   0.855   5.037   0.249 -0.6545 -0.1826 -0.2653
  579THF     C9 7523   0.734   4.956   0.263  0.1740 -0.0409  0.0333
  579THF    H10 7524   0.925   4.994   0.182 -1.2527 -0.0973 -1.6185
  579THF    H11 7525   0.824   5.137   0.218 -0.5013  0.8263 -2.3686
  579THF    H12 7526   0.656   5.028   0.273  0.3063 -0.4362 -1.6047
  579THF    H13 7527   0.727   4.896   0.172  0.3905 -0.8405 -1.6523
  580THF     O1 7528   0.905   3.244   4.443 -0.6403  0.1410  0.6188
  580THF     C2 7529   0.982   3.360   4.452  0.4304 -0.1995  0.1475
  580THF     C3 7530   0.902   3.210   4.309 -0.2819  0.6233 -0.3354
  580THF     H4 7531   1.026   3.381   4.552  0.4014 -0.9040 -2.3269
  580THF     H5 7532   0.921   3.449   4.431 -2.0437 -1.2117 -0.5091
  580THF     H6 7533   0.880   3.101   4.288  2.2795 -1.1650 -0.1285
  580THF     H7 7534   0.831   3.273   4.257  0.8866 -1.5208  2.6355
  580THF     C8 7535   1.039   3.235   4.252 -0.3001 -0.6444  0.0123
  580THF     C9 7536   1.091   3.345   4.349  0.7103  0.0157  0.0176
  580THF    H10 7537   1.025   3.273   4.147  2.0168 -1.8458 -0.3888
  580THF    H11 7538   1.118   3.165   4.257 -4.2254 -1.4723  1.0729
  580THF    H12 7539   1.185   3.321   4.386 -1.6892 -0.4928 -3.0932
  580THF    H13 7540   1.096   3.438   4.292  3.8000 -0.5287 -1.0636
  581THF     O1 7541   2.559   0.730   4.084 -0.1553  0.1154 -0.0021
  581THF     C2 7542   2.684   0.766   4.022 -0.8552  0.2251 -0.1988
  581THF     C3 7543   2.574   0.593   4.123 -0.0533  0.4124  0.2230
  581THF     H4 7544   2.764   0.784   4.086  1.4661 -0.6151 -0.1362
  581THF     H5 7545   2.682   0.856   3.964  0.2795  0.4856 -2.3210
  581THF     H6 7546   2.593   0.589   4.229 -2.9262 -1.1591 -2.0410
  581THF     H7 7547   2.478   0.532   4.117  0.5329 -0.1311  0.3227
  581THF     C8 7548   2.675   0.533   4.023 -0.0202  0.2226 -0.9810
  581THF     C9 7549   2.700   0.649   3.931  0.7669 -0.0782 -0.5833
  581THF    H10 7550   2.631   0.449   3.972  1.7676 -0.5366  1.2700
  581THF    H11 7551   2.759   0.506   4.087 -1.5477  0.5508  0.1200
  581THF    H12 7552   2.802   0.633   3.888  0.1591  3.2065  1.2449
  581THF    H13 7553   2.624   0.648   3.854  1.9485  0.9479 -1.2063
  582THF     O1 7554   2.166   3.902   2.041 -0.3318 -0.6010  0.2147
  582THF     C2 7555   2.285   3.955   2.093  0.2877  0.0241  0.7151
  582THF     C3 7556   2.063   3.998   2.051 -0.0638 -0.2188 -0.0064
  582THF     H4 7557   2.363   3.906   2.039 -0.2133 -1.9175  1.1247
  582THF     H5 7558   2.296   3.936   2.200 -0.0567  2.2484 -0.3174
  582THF     H6 7559   2.019   3.995   1.956  0.6551 -0.4958  0.9859
  582THF     H7 7560   1.981   3.968   2.121 -0.1701 -1.4704  0.2032
  582THF     C8 7561   2.131   4.127   2.099  0.1165 -0.4379 -0.7126
  582THF     C9 7562   2.274   4.098   2.079 -0.3455 -0.0699  0.6925
  582THF    H10 7563   2.112   4.161   2.199 -1.4326  1.6668 -1.9061
  582THF    H11 7564   2.091   4.215   2.041 -0.8889  1.6830 -2.9789
  582THF    H12 7565   2.292   4.124   1.967  1.5088  1.2353 -3.6811
  582THF    H13 7566   2.340   4.162   2.134  2.4442  1.2367  1.4634
  583THF     O1 7567   3.644   4.251   0.979  0.0938  0.1555 -0.4102
  583THF     C2 7568   3.617   4.118   1.013  0.4655 -0.1022  0.2509
  583THF     C3 7569   3.786   4.266   0.990 -0.6641 -0.2149 -0.3923
  583THF     H4 7570   3.523   4.091   0.965 -3.9174 -0.0241 -1.3673
  583THF     H5 7571   3.619   4.105   1.125  1.5261 -0.9628  1.3790
  583THF     H6 7572   3.830   4.320   0.905  2.1658  0.2949 -0.1855
  583THF     H7 7573   3.811   4.324   1.078  2.2808  1.3198  0.9687
  583THF     C8 7574   3.853   4.125   0.993 -0.0030  0.8657 -0.2211
  583THF     C9 7575   3.738   4.040   0.948 -0.1085  0.1033 -0.4672
  583THF    H10 7576   3.879   4.091   1.095  2.0600  2.7739  0.7098
  583THF    H11 7577   3.942   4.114   0.930 -2.1442 -1.3766 -1.0637
  583THF    H12 7578   3.738   4.052   0.837 -1.9079  1.0367  1.6742
  583THF    H13 7579   3.745   3.937   0.973  1.1421 -2.0277 -1.4442
  584THF     O1 7580   3.052   3.607   3.702  0.6849 -0.1300 -0.7053
  584THF     C2 7581   3.148   3.502   3.671  0.6022 -0.5362  0.1170
  584THF     C3 7582   3.123   3.707   3.767  0.7978 -0.2964  0.2984
  584THF     H4 7583   3.211   3.542   3.586  0.4779  1.0495 -1.1709
  584THF     H5 7584   3.100   3.404   3.643  1.1814  0.0641 -1.1150
  584THF     H6 7585   3.192   3.769   3.709  1.2464  0.4839  0.2291
  584THF     H7 7586   3.060   3.781   3.808  0.1713 -0.8739 -0.8314
  584THF     C8 7587   3.197   3.622   3.875  0.0432 -0.0239  0.0597
  584THF     C9 7588   3.236   3.493   3.799  0.3643  0.2796 -0.5753
  584THF    H10 7589   3.109   3.608   3.951 -2.4622 -1.0643 -0.4236
  584THF    H11 7590   3.277   3.671   3.928 -0.8068 -1.5818 -0.8880
  584THF    H12 7591   3.343   3.494   3.779  1.7068 -2.2612  0.0658
  584THF    H13 7592   3.216   3.402   3.854  3.5975  1.3121  0.9160
  585THF     O1 7593   2.198   0.493   1.442 -0.0451  0.0825 -0.1958
  585THF     C2 7594   2.293   0.431   1.525 -0.0341  0.3063 -0.1841
  585THF     C3 7595   2.100   0.564   1.515  0.0879 -0.4936 -0.3077
  585THF     H4 7596   2.384   0.409   1.478 -1.9373 -1.0749  2.0263
  585THF     H5 7597   2.257   0.328   1.561  1.3740  3.0182 -1.0254
  585THF     H6 7598   2.074   0.644   1.442  0.5222  2.1961 -0.5184
  585THF     H7 7599   2.023   0.484   1.533 -0.8153  2.0701 -0.1752
  585THF     C8 7600   2.182   0.622   1.629 -0.2877 -0.0232 -0.2071
  585THF     C9 7601   2.298   0.527   1.644  0.4271 -0.2733  0.1701
  585THF    H10 7602   2.114   0.639   1.715  1.1288 -0.1039  0.9917
  585THF    H11 7603   2.225   0.717   1.604  0.7965  2.1706 -0.1156
  585THF    H12 7604   2.386   0.592   1.646 -0.3938  0.1187  1.9768
  585THF    H13 7605   2.292   0.459   1.735  0.3683  1.0839  0.2430
  586THF     O1 7606   1.709   2.743   3.735 -0.2698 -0.1505  0.7005
  586THF     C2 7607   1.633   2.857   3.721 -0.3861  0.5773  0.4498
  586THF     C3 7608   1.646   2.635   3.676 -0.5166 -0.2920  0.0710
  586THF     H4 7609   1.695   2.946   3.714  2.7017 -1.9436 -0.6158
  586THF     H5 7610   1.565   2.868   3.803 -0.2330  0.0757 -1.4731
  586THF     H6 7611   1.714   2.563   3.630  1.3999 -1.6416 -1.1360
  586THF     H7 7612   1.582   2.588   3.748 -0.2879  0.0846  1.8940
  586THF     C8 7613   1.571   2.696   3.555 -0.1308  0.2047 -0.4008
  586THF     C9 7614   1.550   2.836   3.601 -0.2793  0.2683  0.3382
  586THF    H10 7615   1.471   2.645   3.539  1.1003 -1.3557  1.0839
  586THF    H11 7616   1.635   2.690   3.464 -0.1161  0.2733  0.0233
  586THF    H12 7617   1.587   2.905   3.530 -0.8659 -1.7413  1.7448
  586THF    H13 7618   1.441   2.850   3.610 -1.1857  1.6684 -0.9481
  587THF     O1 7619   2.922   2.434   2.329  0.0646 -0.1854 -0.1894
  587THF     C2 7620   3.047   2.459   2.383  0.5237 -0.0092 -0.1821
  587THF     C3 7621   2.936   2.411   2.189 -0.0745 -0.5720 -0.3285
  587THF     H4 7622   3.086   2.388   2.453 -0.5992  1.2952  1.9361
  587THF     H5 7623   3.033   2.553   2.440 -0.1349  3.0338  1.0493
  587THF     H6 7624   2.959   2.305   2.153 -2.9807 -2.5400  0.0319
  587THF     H7 7625   2.838   2.429   2.139 -0.1173 -1.7441 -0.1291
  587THF     C8 7626   3.047   2.509   2.152  0.7881 -0.8770 -0.2696
  587THF     C9 7627   3.148   2.480   2.264  0.9988  0.3361 -0.2854
  587THF    H10 7628   3.017   2.615   2.155 -0.0932  0.6639  1.3953
  587THF    H11 7629   3.091   2.489   2.047 -0.6524  0.2823 -2.2944
  587THF    H12 7630   3.205   2.389   2.251 -0.2791 -1.9521  1.3001
  587THF    H13 7631   3.211   2.561   2.272 -2.7050 -2.3532  2.9850
  588THF     O1 7632   3.302   0.119   0.343 -0.0854 -0.8037  0.5466
  588THF     C2 7633   3.401   0.174   0.252 -0.5415 -0.3539  0.3960
  588THF     C3 7634   3.370   0.119   0.472 -0.1691  0.2606  0.5523
  588THF     H4 7635   3.428   0.281   0.259 -2.2724 -0.7924 -2.1014
  588THF     H5 7636   3.372   0.147   0.148 -3.6680 -1.6872  1.4999
  588THF     H6 7637   3.364   0.217   0.521 -2.8864  1.6196  0.7230
  588THF     H7 7638   3.336   0.046   0.546  3.8868 -0.8146  0.8341
  588THF     C8 7639   3.514   0.092   0.432  0.2004  0.4980  0.0742
  588THF     C9 7640   3.528   0.093   0.279 -0.1709  0.9929 -0.3857
  588THF    H10 7641   3.540  -0.015   0.455  0.5238  1.5149 -0.3579
  588THF    H11 7642   3.582   0.164   0.473 -2.2861  0.1431 -1.9732
  588THF    H12 7643   3.619   0.154   0.248  0.6764 -0.2736  0.6003
  588THF    H13 7644   3.524  -0.010   0.241 -0.4032 -0.7646 -0.5986
  589THF     O1 7645   3.622   2.975   5.417  0.6819  0.2378  0.0496
  589THF     C2 7646   3.621   2.979   5.559 -0.2229  0.6727 -0.0345
  589THF     C3 7647   3.689   2.850   5.379 -0.9148  0.2533  0.1569
  589THF     H4 7648   3.544   3.038   5.609  1.5818  2.5011 -0.1350
  589THF     H5 7649   3.712   3.030   5.590 -1.2544  0.2813  0.1635
  589THF     H6 7650   3.645   2.821   5.278  0.6031  0.4802 -0.7706
  589THF     H7 7651   3.796   2.882   5.365  1.9849  1.2970 -2.3634
  589THF     C8 7652   3.662   2.744   5.495 -0.0679 -0.4256 -0.5391
  589THF     C9 7653   3.655   2.838   5.622  0.4177  0.1630 -0.2017
  589THF    H10 7654   3.734   2.662   5.506  0.5458  1.5169  0.4553
  589THF    H11 7655   3.568   2.699   5.479  4.5889 -0.2182  1.7139
  589THF    H12 7656   3.570   2.807   5.688  2.3368  1.5931 -0.5180
  589THF    H13 7657   3.747   2.848   5.674  1.9284 -2.4216  0.8703
  590THF     O1 7658   3.546   5.093   3.372  0.2007 -0.4799  0.1410
  590THF     C2 7659   3.481   5.021   3.269 -0.4876 -0.1048 -0.2993
  590THF     C3 7660   3.686   5.091   3.357 -0.6942 -0.1035  0.0157
  590THF     H4 7661   3.385   5.067   3.268 -0.1471  4.1081 -1.2677
  590THF     H5 7662   3.473   4.919   3.303 -2.0677 -0.7991  0.5698
  590THF     H6 7663   3.735   5.165   3.418 -1.0652 -0.9740  0.8594
  590THF     H7 7664   3.722   4.989   3.392 -0.1673 -0.5013  0.9501
  590THF     C8 7665   3.697   5.104   3.208  0.1565  0.3900  0.5210
  590THF     C9 7666   3.574   5.046   3.149 -0.2162  0.0823 -0.4551
  590THF    H10 7667   3.786   5.048   3.177  0.8583 -1.3414 -2.2651
  590THF    H11 7668   3.708   5.205   3.187  0.9645 -2.4170  1.4614
  590THF    H12 7669   3.526   5.110   3.077  0.4639  1.9477  0.6914
  590THF    H13 7670   3.600   4.961   3.086 -1.2483  1.8297 -2.5565
  591THF     O1 7671   3.665   2.465   0.443  0.4145  0.4856  0.2222
  591THF     C2 7672   3.700   2.550   0.335 -0.0369 -0.1603  0.0632
  591THF     C3 7673   3.733   2.337   0.439  0.3591  0.4054  0.2281
  591THF     H4 7674   3.695   2.655   0.364  1.0079 -0.1961 -1.1494
  591THF     H5 7675   3.626   2.556   0.261 -0.1324  0.7233 -1.9682
  591THF     H6 7676   3.752   2.293   0.532 -1.4271  0.9845 -1.8722
  591THF     H7 7677   3.666   2.271   0.385 -1.0830 -0.4282  0.5908
  591THF     C8 7678   3.844   2.362   0.336  0.1243 -0.0487  0.3178
  591THF     C9 7679   3.835   2.506   0.286 -0.9044 -0.7431 -1.2899
  591THF    H10 7680   3.824   2.290   0.248 -1.4522 -0.1862 -0.2744
  591THF    H11 7681   3.939   2.346   0.383 -1.6643  0.9111 -0.7514
  591THF    H12 7682   3.915   2.563   0.336  2.5432 -0.3763 -0.8977
  591THF    H13 7683   3.859   2.522   0.182  0.2525  2.0371  0.1340
  592THF     O1 7684   0.544   2.783   1.103  0.0448  0.1999  0.8035
  592THF     C2 7685   0.512   2.792   0.967 -0.0851  0.1287 -0.2898
  592THF     C3 7686   0.454   2.704   1.166 -0.1631  0.3481  0.4519
  592THF     H4 7687   0.603   2.811   0.908 -0.7853 -0.3132  0.1718
  592THF     H5 7688   0.430   2.857   0.941 -0.0594 -1.0619 -1.4647
  592THF     H6 7689   0.487   2.680   1.266 -0.0285  1.2014 -0.4321
  592THF     H7 7690   0.360   2.762   1.178 -1.5817  0.3238 -1.2630
  592THF     C8 7691   0.433   2.586   1.069  0.1410  0.1139  0.1399
  592THF     C9 7692   0.464   2.648   0.938 -0.3414 -0.2656  0.3366
  592THF    H10 7693   0.333   2.540   1.065 -0.8509  1.4271 -1.2303
  592THF    H11 7694   0.512   2.512   1.091  1.9543  3.8078 -0.6122
  592THF    H12 7695   0.532   2.595   0.875 -1.5068  1.2013 -0.9090
  592THF    H13 7696   0.379   2.633   0.877  0.7283  0.4009  0.9759
  593THF     O1 7697   2.688   4.265   3.084  0.4162  0.6642  0.2370
  593THF     C2 7698   2.773   4.214   3.184 -0.5094  0.4465 -0.2463
  593THF     C3 7699   2.699   4.170   2.975 -0.4622  1.3194 -0.5170
  593THF     H4 7700   2.738   4.126   3.241  0.6086 -1.2957 -1.0251
  593THF     H5 7701   2.782   4.297   3.259  1.6196  1.8467  1.1973
  593THF     H6 7702   2.659   4.074   3.000 -1.8560 -1.3963  0.0915
  593THF     H7 7703   2.652   4.223   2.883 -1.4990 -0.9507 -0.8767
  593THF     C8 7704   2.852   4.159   2.965 -0.3572 -0.6866  0.3227
  593THF     C9 7705   2.894   4.178   3.112 -0.1959  0.1587  0.5005
  593THF    H10 7706   2.889   4.250   2.918  1.8842 -0.3398  0.1931
  593THF    H11 7707   2.880   4.077   2.900 -5.2441 -0.2640 -1.6277
  593THF    H12 7708   2.937   4.090   3.163 -0.6628  0.0803  0.9663
  593THF    H13 7709   2.971   4.258   3.116  1.7263  0.9417 -2.0942
  594THF     O1 7710   5.432   0.800   3.272 -0.3857 -0.1234  0.7591
  594THF     C2 7711   5.527   0.903   3.266 -0.3729  0.7743  0.2802
  594THF     C3 7712   5.304   0.857   3.253  0.7113  0.2787 -0.5260
  594THF     H4 7713   5.571   0.893   3.165 -0.0111 -3.2289 -1.3386
  594THF     H5 7714   5.606   0.880   3.345 -0.5442  0.2960  0.5019
  594THF     H6 7715   5.271   0.865   3.153  1.7417  1.0213  2.2607
  594THF     H7 7716   5.222   0.796   3.286 -2.2566  2.5250 -0.7506
  594THF     C8 7717   5.300   0.994   3.319 -0.3414  0.6468  0.7759
  594THF     C9 7718   5.450   1.032   3.289  1.0587  0.1940 -0.3275
  594THF    H10 7719   5.272   0.980   3.420  0.3761 -0.5805 -1.1394
  594THF    H11 7720   5.222   1.058   3.283 -3.0518 -1.5435  0.0316
  594THF    H12 7721   5.463   1.090   3.197 -1.9439  0.2084  3.2996
  594THF    H13 7722   5.492   1.096   3.364 -0.0740 -0.1076 -1.1572
  595THF     O1 7723   3.673   0.007   5.396 -0.3644 -0.1449  0.4714
  595THF     C2 7724   3.729   0.088   5.294  0.3774 -0.3442  0.1546
  595THF     C3 7725   3.556   0.071   5.431  0.0645  0.2477 -0.3641
  595THF     H4 7726   3.791   0.029   5.237 -3.1274  2.7137  3.9166
  595THF     H5 7727   3.767   0.181   5.340  0.7967  0.6922  0.4747
  595THF     H6 7728   3.496   0.003   5.491 -0.9680 -1.3139 -0.7198
  595THF     H7 7729   3.592   0.150   5.488 -0.8937 -0.6949 -1.0936
  595THF     C8 7730   3.494   0.120   5.297  0.0424 -0.3269 -0.9159
  595THF     C9 7731   3.608   0.108   5.204  0.3681  0.3297  0.5874
  595THF    H10 7732   3.448   0.224   5.303  1.8611 -0.8166  1.5123
  595THF    H11 7733   3.416   0.055   5.261  1.2457  0.1116  1.6687
  595THF    H12 7734   3.585   0.031   5.137 -0.0156  1.6336  1.6090
  595THF    H13 7735   3.626   0.189   5.135  1.6023  1.1133  0.0262
  596THF     O1 7736   1.546   1.513   3.320 -0.5055  0.0848 -0.5405
  596THF     C2 7737   1.655   1.443   3.383 -0.9700 -0.3067 -0.3344
  596THF     C3 7738   1.503   1.431   3.216 -0.3331 -0.3918  0.5515
  596THF     H4 7739   1.659   1.479   3.486  0.8896  0.3612 -0.1301
  596THF     H5 7740   1.752   1.465   3.334  0.4087 -0.0031  0.5936
  596THF     H6 7741   1.409   1.461   3.176  2.1456 -0.5235 -0.5925
  596THF     H7 7742   1.579   1.430   3.133 -0.0888  2.7343  0.9485
  596THF     C8 7743   1.492   1.295   3.285 -0.2699  0.7905  0.0565
  596THF     C9 7744   1.612   1.297   3.376 -0.3089  0.0380 -0.2440
  596THF    H10 7745   1.504   1.205   3.214  1.7974  0.3441 -1.8256
  596THF    H11 7746   1.397   1.285   3.341 -0.4706 -1.9866  0.7548
  596THF    H12 7747   1.574   1.258   3.473 -1.7025 -1.1476  1.0677
  596THF    H13 7748   1.695   1.226   3.348  1.1965  4.6093  2.1145
  597THF     O1 7749   4.673   1.249   3.855  0.1141  0.4895  0.0313
  597THF     C2 7750   4.807   1.194   3.874 -1.1982  0.1637 -0.1609
  597THF     C3 7751   4.586   1.155   3.910  0.1492  0.3041  1.1919
  597THF     H4 7752   4.843   1.213   3.977  1.2163 -1.2524  1.3771
  597THF     H5 7753   4.881   1.245   3.813 -2.7579  4.8697  3.6311
  597THF     H6 7754   4.544   1.176   4.009  0.8574  2.2855 -0.7120
  597THF     H7 7755   4.507   1.153   3.838 -0.2543 -0.4429  0.5209
  597THF     C8 7756   4.659   1.015   3.898  0.0639 -0.0566 -0.3286
  597THF     C9 7757   4.798   1.042   3.840  0.0977  0.3473 -0.0347
  597THF    H10 7758   4.606   0.923   3.856 -0.1483 -1.7589 -0.4234
  597THF    H11 7759   4.682   0.982   4.003 -0.8457  0.5068 -1.6431
  597THF    H12 7760   4.878   0.984   3.893  1.2529  1.6240  1.9150
  597THF    H13 7761   4.809   1.035   3.729 -0.8207 -0.6987 -1.7884
  598THF     O1 7762   2.885   1.370   2.895  0.8078 -0.0189 -0.6482
  598THF     C2 7763   2.833   1.239   2.914 -0.3064 -0.2503 -0.1743
  598THF     C3 7764   2.864   1.440   3.015  0.6041  0.2078  0.6737
  598THF     H4 7765   2.866   1.170   2.834  1.8347  1.1370  0.6268
  598THF     H5 7766   2.729   1.234   2.917 -0.7680 -1.1425  0.2880
  598THF     H6 7767   2.918   1.536   3.021  0.5937  1.9493  1.7095
  598THF     H7 7768   2.757   1.459   3.027 -0.3720 -0.0501  0.6507
  598THF     C8 7769   2.899   1.348   3.125  0.3207  0.3270 -0.7017
  598THF     C9 7770   2.904   1.211   3.054 -0.1046  0.6699  0.3912
  598THF    H10 7771   2.833   1.353   3.215  0.3892 -0.0540  2.7789
  598THF    H11 7772   2.990   1.377   3.172 -1.3926  0.7137  1.5071
  598THF    H12 7773   3.007   1.177   3.023  0.7720 -0.0517 -0.6266
  598THF    H13 7774   2.873   1.121   3.111 -0.7860  0.4597 -1.7371
  599THF     O1 7775   0.883   4.093   2.032 -0.0957 -0.2331  0.2586
  599THF     C2 7776   0.812   4.186   1.955  0.3953  0.0129 -0.6318
  599THF     C3 7777   1.011   4.083   1.967 -0.8807  0.2651 -0.0382
  599THF     H4 7778   0.835   4.287   1.981  0.8530 -1.9774 -0.9332
  599THF     H5 7779   0.711   4.166   1.976 -0.0760  0.8110  2.0105
  599THF     H6 7780   1.071   4.155   2.018 -2.6045 -3.3509 -0.8974
  599THF     H7 7781   1.063   3.986   1.988 -2.4299  0.8561 -1.2298
  599THF     C8 7782   0.991   4.097   1.813  0.2983  0.8251  0.1247
  599THF     C9 7783   0.854   4.166   1.803 -0.8363 -0.1172 -0.1088
  599THF    H10 7784   1.002   4.005   1.756 -1.6155 -0.0102 -2.2587
  599THF    H11 7785   1.065   4.162   1.765  0.4984  0.3673  1.3254
  599THF    H12 7786   0.850   4.255   1.740  0.2759  0.4430  0.7326
  599THF    H13 7787   0.788   4.084   1.753  0.4291  0.8400  0.8773
  600THF     O1 7788   0.651   1.689   1.475 -0.3950  0.2735  0.1145
  600THF     C2 7789   0.691   1.759   1.588 -0.7060 -0.4598  0.8032
  600THF     C3 7790   0.650   1.782   1.362  0.0861  0.6912  0.0367
  600THF     H4 7791   0.774   1.720   1.645  1.1489  0.1991  1.3493
  600THF     H5 7792   0.606   1.767   1.656  1.6180  3.2626 -3.2781
  600THF     H6 7793   0.690   1.725   1.279 -0.8821 -1.9987 -3.2220
  600THF     H7 7794   0.554   1.807   1.329 -2.1312  1.7491 -1.2284
  600THF     C8 7795   0.742   1.898   1.394 -0.2811  1.1446 -0.4073
  600THF     C9 7796   0.724   1.906   1.548  0.1242  0.1808  0.4337
  600THF    H10 7797   0.707   1.990   1.354 -1.4356 -0.8835  3.2734
  600THF    H11 7798   0.847   1.880   1.375 -1.2261  0.4370 -2.6931
  600THF    H12 7799   0.814   1.938   1.594  2.0490 -3.6302 -1.0650
  600THF    H13 7800   0.639   1.974   1.575  1.9519  0.5613 -1.1972
  601THF     O1 7801   5.101   1.393   1.538  0.3784 -0.3869 -0.1376
  601THF     C2 7802   5.093   1.446   1.407  0.2165  0.8705  0.4586
  601THF     C3 7803   5.197   1.282   1.534  0.3547 -0.1602 -0.3178
  601THF     H4 7804   5.042   1.540   1.407  0.2508  0.9823  2.7082
  601THF     H5 7805   5.036   1.384   1.334  0.3074  0.3736 -1.3753
  601THF     H6 7806   5.229   1.236   1.623 -0.8694 -1.4826  0.1059
  601THF     H7 7807   5.147   1.200   1.484 -2.1189  1.7419 -3.9064
  601THF     C8 7808   5.302   1.336   1.440  0.4241 -0.2914 -0.8999
  601THF     C9 7809   5.234   1.452   1.356  1.1299 -0.0942 -0.7015
  601THF    H10 7810   5.338   1.252   1.381 -0.4554 -0.6862 -0.3844
  601THF    H11 7811   5.384   1.378   1.494  0.5956 -0.2943 -1.9357
  601THF    H12 7812   5.268   1.553   1.373 -3.4500 -1.9700 -2.0285
  601THF    H13 7813   5.232   1.432   1.249  0.9881 -2.1897 -0.2019
  602THF     O1 7814   2.663   0.401   2.158  0.4757  0.1000  0.3442
  602THF     C2 7815   2.562   0.435   2.260  0.0221  0.3213 -0.0609
  602THF     C3 7816   2.607   0.426   2.036  0.0944  0.0193  0.7378
  602THF     H4 7817   2.586   0.534   2.311 -0.6405 -0.4892  0.5342
  602THF     H5 7818   2.575   0.356   2.342  1.3625  1.8531  1.5025
  602THF     H6 7819   2.617   0.537   2.027  1.3443 -0.1121  0.4043
  602THF     H7 7820   2.673   0.379   1.955  2.3455 -0.7677  0.6437
  602THF     C8 7821   2.459   0.382   2.062 -0.3225  0.4765  0.3116
  602THF     C9 7822   2.423   0.411   2.201  0.0749 -0.3235  0.2944
  602THF    H10 7823   2.454   0.276   2.051 -1.0222  2.1168  1.7907
  602THF    H11 7824   2.399   0.431   1.986 -0.7074  0.2725 -0.7997
  602THF    H12 7825   2.372   0.501   2.223  0.5265  0.5181 -0.0714
  602THF    H13 7826   2.377   0.331   2.253 -0.7210  2.3059  0.5204
  603THF     O1 7827   4.094   3.816   0.566  0.0234 -0.1586  0.8194
  603THF     C2 7828   4.032   3.918   0.645 -0.2680  0.1405 -0.6324
  603THF     C3 7829   4.116   3.695   0.645  0.3573 -0.0916 -0.6983
  603THF     H4 7830   3.977   4.008   0.597  0.7481 -0.1997  0.8032
  603THF     H5 7831   4.116   3.968   0.705  0.2327  1.9742  0.9730
  603THF     H6 7832   4.083   3.603   0.587 -0.0114 -1.3926 -2.3709
  603THF     H7 7833   4.221   3.687   0.669  1.5477 -0.6798  1.0060
  603THF     C8 7834   4.057   3.731   0.779 -0.4787  0.1276  0.2063
  603THF     C9 7835   3.953   3.841   0.747  0.5004 -1.0005 -0.7468
  603THF    H10 7836   4.133   3.772   0.846 -0.8612 -0.7308 -0.4623
  603THF    H11 7837   4.006   3.645   0.824  2.2936 -1.9014  1.1183
  603THF    H12 7838   3.855   3.795   0.721 -1.6363 -2.7453  1.0255
  603THF    H13 7839   3.922   3.905   0.832  0.2654 -2.0457  1.3610
  604THF     O1 7840   3.044   0.347   0.939 -0.4361  0.3254 -0.3330
  604THF     C2 7841   2.999   0.217   0.904 -0.9734  0.1333  0.3807
  604THF     C3 7842   2.993   0.381   1.070 -0.6024  0.0476 -0.4985
  604THF     H4 7843   3.058   0.152   0.827  0.0556 -1.7293  0.6720
  604THF     H5 7844   2.908   0.232   0.849  1.6622 -2.1563  0.7757
  604THF     H6 7845   3.064   0.442   1.136  2.7404  0.5256  0.2321
  604THF     H7 7846   2.903   0.439   1.061  1.1150  1.3816 -3.0480
  604THF     C8 7847   2.938   0.257   1.129  0.2940 -0.2149 -0.1776
  604THF     C9 7848   2.989   0.150   1.034  0.3152 -0.2584 -0.5823
  604THF    H10 7849   2.823   0.261   1.133  0.0847 -0.5104  1.0262
  604THF    H11 7850   2.972   0.236   1.232  1.1278 -0.2988 -1.2501
  604THF    H12 7851   3.082   0.112   1.074 -1.8778 -0.9132  0.8800
  604THF    H13 7852   2.926   0.066   1.031 -1.5493  1.4599  1.9603
  605THF     O1 7853   0.392   4.366   5.110 -0.7441  0.0869 -0.1178
  605THF     C2 7854   0.319   4.384   5.226 -0.0154 -0.0887 -0.1989
  605THF     C3 7855   0.309   4.363   4.994 -0.8384 -0.1658  0.0326
  605THF     H4 7856   0.308   4.494   5.232  2.0173  0.3657  4.4863
  605THF     H5 7857   0.375   4.354   5.319  0.4218 -1.1330  1.3061
  605THF     H6 7858   0.278   4.465   4.968 -1.6534  2.0813 -0.7127
  605THF     H7 7859   0.357   4.315   4.912 -0.9399  4.0523 -0.3497
  605THF     C8 7860   0.183   4.294   5.046  0.7301  0.2416  0.6604
  605THF     C9 7861   0.181   4.321   5.194 -0.1757 -0.1374  0.2581
  605THF    H10 7862   0.200   4.185   5.033 -0.4216 -1.2334 -0.4250
  605THF    H11 7863   0.087   4.335   5.008 -0.4757  0.3016 -0.6531
  605THF    H12 7864   0.105   4.395   5.224  2.1761 -0.3340  1.2170
  605THF    H13 7865   0.163   4.233   5.258 -1.2316 -0.5629 -0.1195
  606THF     O1 7866   4.172   3.265   0.205  0.3842 -0.4318 -0.2942
  606THF     C2 7867   4.293   3.209   0.240 -0.0720  0.1358  0.3206
  606THF     C3 7868   4.066   3.174   0.239 -0.3120 -0.0789 -0.5678
  606THF     H4 7869   4.325   3.212   0.343 -0.0775 -2.0899  0.3196
  606THF     H5 7870   4.368   3.254   0.173 -4.4606  0.3788 -0.2486
  606THF     H6 7871   4.063   3.173   0.347 -0.6195  3.1268  1.8237
  606THF     H7 7872   3.976   3.203   0.185  0.6351  2.1061 -0.0929
  606THF     C8 7873   4.131   3.051   0.175 -0.4948  0.3097  0.6330
  606THF     C9 7874   4.285   3.061   0.200  0.0946  0.2395 -0.4825
  606THF    H10 7875   4.105   3.066   0.064 -2.3176 -0.8635 -0.6221
  606THF    H11 7876   4.084   2.954   0.203  1.2183 -1.8364  0.8171
  606THF    H12 7877   4.319   2.985   0.278  2.1079 -2.6345  2.4595
  606THF    H13 7878   4.340   3.038   0.106 -1.5976 -1.1730  1.3707
  607THF     O1 7879   0.538   1.494   3.166 -0.1986 -0.1407 -0.1216
  607THF     C2 7880   0.661   1.526   3.107  0.5555 -0.8720 -0.3116
  607THF     C3 7881   0.524   1.354   3.172 -0.4731  1.3557  0.0375
  607THF     H4 7882   0.743   1.535   3.178  2.5638  1.2418  0.8060
  607THF     H5 7883   0.645   1.633   3.066 -2.7165  1.1598  0.7184
  607THF     H6 7884   0.590   1.319   3.253  0.3126 -0.7785  0.0168
  607THF     H7 7885   0.419   1.334   3.204 -1.8408  0.1620 -0.7508
  607THF     C8 7886   0.568   1.319   3.028  0.4157 -0.4540  0.0442
  607THF     C9 7887   0.683   1.418   3.003  0.3538 -0.4395 -0.6130
  607THF    H10 7888   0.490   1.351   2.958 -1.2474  0.9478  0.5877
  607THF    H11 7889   0.583   1.213   3.012  1.7020  1.3976  0.8154
  607THF    H12 7890   0.774   1.361   3.017  0.2219  0.4824 -0.1284
  607THF    H13 7891   0.691   1.443   2.896  1.1483  0.0845 -2.6725
  608THF     O1 7892   1.405   3.075   3.141 -0.0561 -0.3996  0.0499
  608THF     C2 7893   1.341   3.175   3.219  1.2593  0.0202 -0.3789
  608THF     C3 7894   1.530   3.043   3.190 -0.1117  0.2027  0.6602
  608THF     H4 7895   1.299   3.139   3.313  1.7791 -1.6731  3.4263
  608THF     H5 7896   1.263   3.222   3.163 -1.0190  3.7880 -2.0353
  608THF     H6 7897   1.524   2.953   3.250 -2.5038  0.5382 -1.1551
  608THF     H7 7898   1.598   3.031   3.112 -1.4058  0.7990  1.2963
  608THF     C8 7899   1.576   3.174   3.264  0.6290  0.8473 -0.3837
  608THF     C9 7900   1.458   3.269   3.251 -0.1429  0.2689 -0.3513
  608THF    H10 7901   1.672   3.207   3.226 -1.4005  0.7757 -0.5634
  608THF    H11 7902   1.598   3.141   3.373  2.4715 -0.4052 -0.9514
  608THF    H12 7903   1.440   3.325   3.343 -2.5716  1.1592  0.4388
  608THF    H13 7904   1.472   3.341   3.168  0.1113  2.2913  4.8265
  609THF     O1 7905   4.344   4.004   0.202 -0.1809 -0.0497 -0.4858
  609THF     C2 7906   4.454   3.976   0.117  0.1754 -0.5869  0.1855
  609THF     C3 7907   4.315   4.142   0.189  0.2196 -0.3802 -0.0265
  609THF     H4 7908   4.416   3.973   0.012 -1.3257 -0.9567 -0.2776
  609THF     H5 7909   4.507   3.883   0.135  0.6050 -1.7394  0.8436
  609THF     H6 7910   4.262   4.155   0.093  1.7499  0.9677  0.8667
  609THF     H7 7911   4.259   4.185   0.269  0.8080 -2.2048  1.6761
  609THF     C8 7912   4.457   4.211   0.180 -0.0911  0.4547  0.6966
  609THF     C9 7913   4.552   4.088   0.144 -0.3431 -0.5752 -0.2767
  609THF    H10 7914   4.479   4.257   0.274  2.2185  1.1897 -3.0266
  609THF    H11 7915   4.461   4.281   0.100 -0.5202  1.8307  1.4014
  609THF    H12 7916   4.630   4.107   0.067 -2.7102  0.1849  0.2227
  609THF    H13 7917   4.600   4.061   0.238 -1.2893  0.7136  1.7281
  610THF     O1 7918   4.179   0.460   3.653 -0.4004 -0.0305  0.1594
  610THF     C2 7919   4.268   0.354   3.692  0.2211 -0.2228  0.2335
  610THF     C3 7920   4.125   0.515   3.767 -0.6743  0.1298  0.0956
  610THF     H4 7921   4.359   0.357   3.634  2.9763  0.6594 -0.1248
  610THF     H5 7922   4.237   0.251   3.684 -2.6996  0.1503  1.5714
  610THF     H6 7923   4.086   0.619   3.758  2.0885  2.6146  0.5507
  610THF     H7 7924   4.042   0.445   3.797 -0.7657  0.2678  0.3662
  610THF     C8 7925   4.243   0.507   3.866 -0.3653 -0.3381  0.4397
  610THF     C9 7926   4.311   0.383   3.827 -0.2134  0.4091 -0.8458
  610THF    H10 7927   4.223   0.510   3.970  0.3859  3.4015 -2.1016
  610THF    H11 7928   4.314   0.587   3.827  3.3395  0.3318  0.3846
  610THF    H12 7929   4.418   0.377   3.846 -2.4091 -2.3517 -0.0045
  610THF    H13 7930   4.263   0.303   3.883  1.0839  1.6908 -2.6931
  611THF     O1 7931   3.103   1.252   3.355  0.2450 -0.0511 -0.3974
  611THF     C2 7932   3.092   1.115   3.330  0.3225 -0.3970  0.5383
  611THF     C3 7933   3.238   1.299   3.347 -0.1454 -0.2928 -0.1337
  611THF     H4 7934   3.089   1.102   3.220 -3.3048  2.7024 -0.1501
  611THF     H5 7935   2.993   1.097   3.371 -2.4936 -1.2515  1.7268
  611THF     H6 7936   3.249   1.333   3.248 -2.3101  0.5165 -0.0292
  611THF     H7 7937   3.263   1.370   3.425  0.4979 -0.3484  1.4142
  611THF     C8 7938   3.318   1.167   3.364  0.1895 -0.5583 -0.2516
  611THF     C9 7939   3.212   1.064   3.403  0.6988 -0.0144  0.6356
  611THF    H10 7940   3.393   1.175   3.444  1.2717 -0.9827  4.4032
  611THF    H11 7941   3.370   1.135   3.273  0.8683 -2.2817 -0.2999
  611THF    H12 7942   3.244   0.959   3.391 -0.4539 -0.5198 -3.3289
  611THF    H13 7943   3.191   1.081   3.510 -0.8876 -0.0428 -3.6651
  612THF     O1 7944   1.923   4.162   0.651  0.1372 -0.4688 -0.1725
  612THF     C2 7945   2.003   4.073   0.732 -0.0258  0.2174  0.0361
  612THF     C3 7946   1.822   4.084   0.596 -0.0049  0.6651  0.3144
  612THF     H4 7947   2.066   4.124   0.806  2.2611 -1.8589 -0.1989
  612THF     H5 7948   2.070   4.014   0.666  2.7355  1.0507  0.6875
  612THF     H6 7949   1.724   4.125   0.592  1.4559  0.7319 -2.3866
  612THF     H7 7950   1.857   4.053   0.496 -0.3576 -0.4897  2.8237
  612THF     C8 7951   1.806   3.958   0.678  0.4139  0.5454  0.2309
  612THF     C9 7952   1.904   3.977   0.788 -0.4632 -0.0054 -0.5014
  612THF    H10 7953   1.835   3.884   0.609  0.8663 -0.6488  4.7646
  612THF    H11 7954   1.706   3.948   0.716 -0.4637  1.5160  1.0303
  612THF    H12 7955   1.847   4.030   0.866 -2.7864  0.8367 -1.0624
  612THF    H13 7956   1.948   3.884   0.827 -1.7329 -1.7113 -1.6919
  613THF     O1 7957   5.154   1.068   5.107 -0.5512  0.0587  0.4020
  613THF     C2 7958   5.262   1.120   5.176  0.2424 -0.2083 -0.0040
  613THF     C3 7959   5.133   0.937   5.151  0.4985  0.2806  0.3125
  613THF     H4 7960   5.235   1.150   5.275 -2.0934  0.1359 -1.6431
  613THF     H5 7961   5.303   1.201   5.118  0.6428 -2.0678  0.4330
  613THF     H6 7962   5.064   0.944   5.233  0.5413  0.8397  1.2168
  613THF     H7 7963   5.088   0.868   5.082  0.4184  1.2530  0.3526
  613THF     C8 7964   5.271   0.888   5.185  0.1709  0.3568  0.6378
  613THF     C9 7965   5.359   1.004   5.183  0.5312  0.2083  0.1937
  613THF    H10 7966   5.291   0.811   5.107  0.4745 -0.2608  0.6710
  613THF    H11 7967   5.267   0.846   5.278 -0.9132 -0.4887 -1.1358
  613THF    H12 7968   5.440   1.004   5.255  0.8409  1.4970 -2.0968
  613THF    H13 7969   5.413   1.013   5.088  1.1412  1.7661  0.8945
  614THF     O1 7970   2.236   4.369   3.266 -0.3221 -0.0401 -0.0638
  614THF     C2 7971   2.245   4.294   3.386 -0.2099 -0.7844  0.3884
  614THF     C3 7972   2.339   4.457   3.281 -0.0035 -0.1613  0.2957
  614THF     H4 7973   2.182   4.209   3.366 -0.5951  1.3743 -2.1501
  614THF     H5 7974   2.217   4.350   3.475 -0.3579  0.3053  0.4638
  614THF     H6 7975   2.360   4.500   3.184 -0.3884  0.8609 -0.3711
  614THF     H7 7976   2.315   4.535   3.351  1.5076 -1.6802  0.5551
  614THF     C8 7977   2.451   4.371   3.318 -0.4049  0.0817  0.6838
  614THF     C9 7978   2.391   4.260   3.402  0.5950 -0.1195  0.4190
  614THF    H10 7979   2.536   4.425   3.372 -1.9582  1.6545  0.1182
  614THF    H11 7980   2.490   4.334   3.225  1.8390 -1.1450  2.0214
  614THF    H12 7981   2.417   4.157   3.370 -1.4403  0.0209  3.1939
  614THF    H13 7982   2.429   4.267   3.506 -0.7645 -1.2251 -0.7479
  615THF     O1 7983   0.852   3.526   4.141  0.3777 -0.6249  0.5599
  615THF     C2 7984   0.856   3.656   4.095 -0.8552 -0.0045  0.4387
  615THF     C3 7985   0.774   3.445   4.050 -0.1964 -0.4626  0.9103
  615THF     H4 7986   0.942   3.660   4.028 -1.2572  1.8390  2.9155
  615THF     H5 7987   0.882   3.726   4.174  0.7180  0.2523  1.0670
  615THF     H6 7988   0.833   3.410   3.968 -2.5191 -1.7153  0.5696
  615THF     H7 7989   0.725   3.360   4.089  1.7116  0.7857 -0.7743
  615THF     C8 7990   0.670   3.545   3.986  0.0115 -0.3221 -0.3996
  615THF     C9 7991   0.711   3.679   4.034  0.3105 -0.5003 -0.0320
  615THF    H10 7992   0.578   3.512   4.034  4.1162 -0.5430  0.5909
  615THF    H11 7993   0.652   3.533   3.880  1.3681  2.9105  0.5654
  615THF    H12 7994   0.718   3.762   3.956 -0.6190 -0.0526  3.9524
  615THF    H13 7995   0.638   3.709   4.110 -0.8350  1.8706 -0.9727
  616THF     O1 7996   0.025   3.216   1.361  0.5455  0.1075 -0.3980
  616THF     C2 7997  -0.082   3.128   1.327 -0.1663 -0.0619  0.4736
  616THF     C3 7998   0.040   3.198   1.502 -0.7319  0.6253 -0.0289
  616THF     H4 7999  -0.053   3.022   1.315  1.1323 -1.7016 -0.9685
  616THF     H5 8000  -0.129   3.164   1.237  0.3511 -0.2315 -1.4763
  616THF     H6 8001   0.108   3.118   1.525 -1.8924 -0.4282  2.3688
  616THF     H7 8002   0.095   3.281   1.545  1.2343 -3.1474 -0.4280
  616THF     C8 8003  -0.105   3.201   1.554  0.2051  0.2313  0.4754
  616THF     C9 8004  -0.183   3.138   1.442  0.6712  0.1382  0.2678
  616THF    H10 8005  -0.139   3.298   1.583 -1.0925  1.4111  0.6543
  616THF    H11 8006  -0.109   3.141   1.646  0.7604 -1.3141 -0.6109
  616THF    H12 8007  -0.235   3.041   1.467 -0.6472  2.1539  0.5332
  616THF    H13 8008  -0.266   3.198   1.397  0.5836 -0.7136 -2.4570
  617THF     O1 8009   3.017   4.172   3.441 -0.0688 -0.7493 -0.3525
  617THF     C2 8010   2.950   4.179   3.567 -0.4471 -1.2025  0.3127
  617THF     C3 8011   3.150   4.166   3.473  0.1108 -0.4158  0.2266
  617THF     H4 8012   2.851   4.139   3.549  1.0812  1.7754  1.2152
  617THF     H5 8013   2.948   4.280   3.610  0.3296 -1.1893 -1.8536
  617THF     H6 8014   3.216   4.140   3.390 -1.0326  0.2976  1.2887
  617THF     H7 8015   3.177   4.260   3.528 -3.1459 -0.4345 -0.5359
  617THF     C8 8016   3.161   4.057   3.580 -0.0442  0.1466  0.3153
  617THF     C9 8017   3.034   4.080   3.657 -0.1431 -0.4588  0.8447
  617THF    H10 8018   3.252   4.072   3.639 -1.4641 -0.1838 -1.2067
  617THF    H11 8019   3.164   3.956   3.543 -1.1352  0.9630  0.7877
  617THF    H12 8020   2.986   3.985   3.675 -0.5923  0.6204  0.1274
  617THF    H13 8021   3.064   4.125   3.752  0.7840  2.7377 -1.9494
  618THF     O1 8022   1.939   2.761   0.656 -0.9844  0.1768 -0.0289
  618THF     C2 8023   2.080   2.742   0.659  0.3249 -0.6609  0.2538
  618THF     C3 8024   1.906   2.810   0.786 -0.0677  0.4638 -0.4463
  618THF     H4 8025   2.113   2.835   0.622 -1.4542  1.0031  0.9831
  618THF     H5 8026   2.120   2.663   0.600 -0.0341  2.3520 -3.5993
  618THF     H6 8027   1.934   2.914   0.785  4.1726  0.4427 -1.6848
  618THF     H7 8028   1.802   2.785   0.812 -0.2149 -0.2715  1.9578
  618THF     C8 8029   1.997   2.742   0.887 -0.2995  0.2409  1.1349
  618THF     C9 8030   2.122   2.715   0.806 -0.3635 -0.3833  0.3700
  618THF    H10 8031   1.937   2.654   0.906 -1.7160 -0.0470  0.3157
  618THF    H11 8032   2.020   2.783   0.974 -0.2499  0.2915  0.4889
  618THF    H12 8033   2.205   2.782   0.843 -2.0631 -0.1135  0.2150
  618THF    H13 8034   2.164   2.616   0.816  1.9925  2.2037 -0.3065
  619THF     O1 8035   3.535   3.512   2.221 -0.3510 -0.8045 -0.1858
  619THF     C2 8036   3.436   3.430   2.160  0.5894 -0.5447 -0.2755
  619THF     C3 8037   3.519   3.646   2.182 -0.1293  0.5918 -0.6758
  619THF     H4 8038   3.356   3.392   2.225  1.1580 -1.2345  2.9362
  619THF     H5 8039   3.490   3.339   2.114  0.8329  1.5614  0.1092
  619THF     H6 8040   3.442   3.681   2.246 -0.1589  1.2486  0.6516
  619THF     H7 8041   3.612   3.695   2.191 -0.5294  0.4511 -2.0569
  619THF     C8 8042   3.463   3.637   2.043  0.3818  0.2077  0.6511
  619THF     C9 8043   3.366   3.521   2.058  0.3197  0.4817  0.1480
  619THF    H10 8044   3.534   3.617   1.956  0.0258 -2.2126  1.1223
  619THF    H11 8045   3.415   3.735   2.016  1.9477  0.6774  2.1967
  619THF    H12 8046   3.265   3.552   2.091  2.6547  0.5049 -0.5298
  619THF    H13 8047   3.348   3.460   1.970  0.8754 -1.2261 -1.6751
  620THF     O1 8048   3.851   1.039   1.331  0.5811 -0.0560 -0.3823
  620THF     C2 8049   3.932   0.930   1.328  0.1905  0.6711 -0.0069
  620THF     C3 8050   3.906   1.120   1.427  0.2929 -0.2005  0.0981
  620THF     H4 8051   4.012   0.954   1.254  1.1646  1.9321 -0.1559
  620THF     H5 8052   3.887   0.842   1.282 -1.0960 -0.3980  2.0662
  620THF     H6 8053   3.973   1.183   1.374 -2.3007 -0.5318  3.3021
  620THF     H7 8054   3.822   1.183   1.466  0.9645  0.6884 -2.5552
  620THF     C8 8055   3.980   1.038   1.536 -0.4146 -0.2443  0.1530
  620THF     C9 8056   3.966   0.899   1.476 -0.0208 -0.3171  0.5719
  620THF    H10 8057   3.932   1.039   1.640  0.0263 -1.7355  0.5404
  620THF    H11 8058   4.083   1.082   1.540  0.7947  0.1875  3.5895
  620THF    H12 8059   4.058   0.835   1.467 -0.4676 -1.1024 -1.1555
  620THF    H13 8060   3.888   0.847   1.529  0.0762 -0.7912 -0.6636
  621THF     O1 8061   0.297   2.824   2.621 -0.4414  0.3924 -0.1737
  621THF     C2 8062   0.434   2.835   2.584  0.2298  0.3312 -0.2526
  621THF     C3 8063   0.292   2.851   2.757 -0.0690 -0.8595  0.3849
  621THF     H4 8064   0.467   2.937   2.580 -1.1897 -0.5281 -2.8701
  621THF     H5 8065   0.454   2.807   2.482 -2.6962 -1.0523 -1.7664
  621THF     H6 8066   0.252   2.953   2.777 -1.1090  0.5483 -0.8400
  621THF     H7 8067   0.208   2.793   2.797 -1.2124 -2.7091 -2.6030
  621THF     C8 8068   0.431   2.821   2.826  0.4562  0.5255  0.6536
  621THF     C9 8069   0.503   2.766   2.707 -0.3046 -0.4936 -0.3161
  621THF    H10 8070   0.428   2.751   2.909  0.8018 -0.5128 -4.4793
  621THF    H11 8071   0.474   2.908   2.867 -2.1486 -1.4022 -1.0667
  621THF    H12 8072   0.612   2.770   2.709 -1.6405 -1.5201  0.8438
  621THF    H13 8073   0.481   2.661   2.691 -1.1942  1.0037  0.1131
  622THF     O1 8074   0.981   5.151   5.256  0.0581  0.0203  0.7306
  622THF     C2 8075   0.954   5.080   5.377  0.3287  0.5210  0.1883
  622THF     C3 8076   0.974   5.057   5.146  0.2190  0.2818 -0.0981
  622THF     H4 8077   0.848   5.107   5.403 -0.5509  0.2621  2.2325
  622THF     H5 8078   1.023   5.117   5.459  2.1882 -2.3763  1.8462
  622THF     H6 8079   0.927   5.083   5.056  1.1652 -3.6179 -1.2094
  622THF     H7 8080   1.075   5.026   5.112 -0.2962  3.8948 -1.7321
  622THF     C8 8081   0.914   4.929   5.205  0.2870 -0.1058 -0.4329
  622THF     C9 8082   0.970   4.933   5.340  0.1320  0.0867  0.2131
  622THF    H10 8083   0.955   4.842   5.150 -0.2551 -1.0955  0.3968
  622THF    H11 8084   0.804   4.927   5.209 -1.0096 -2.7108  2.0502
  622THF    H12 8085   0.909   4.863   5.396  0.5550 -2.1351 -3.0888
  622THF    H13 8086   1.077   4.912   5.350  0.4338 -0.6645 -0.8780
  623THF     O1 8087   5.306   4.344   5.007 -0.1591  0.0505  0.4940
  623THF     C2 8088   5.191   4.425   4.991  0.3268 -0.2113  0.0667
  623THF     C3 8089   5.299   4.282   5.139 -0.2038 -0.6245  0.5578
  623THF     H4 8090   5.136   4.384   4.907 -0.7844  0.5649 -0.3207
  623THF     H5 8091   5.226   4.524   4.976  0.5802 -0.6594  0.2042
  623THF     H6 8092   5.355   4.189   5.139 -1.5493  1.3932 -0.4646
  623THF     H7 8093   5.344   4.350   5.214  1.5704 -0.0636 -2.4786
  623THF     C8 8094   5.150   4.270   5.173  0.1151  0.1183  0.9443
  623THF     C9 8095   5.103   4.408   5.120  0.2715 -0.3095  0.0140
  623THF    H10 8096   5.130   4.256   5.271  0.4229  0.2408 -1.7769
  623THF    H11 8097   5.105   4.189   5.115  1.3212 -2.1837 -0.0211
  623THF    H12 8098   5.001   4.401   5.096  0.4087  1.5497 -2.4392
  623THF    H13 8099   5.116   4.489   5.201  0.5955  1.9317 -0.0423
  624THF     O1 8100   2.393   2.839   0.374 -0.0832  0.3916  0.0162
  624THF     C2 8101   2.416   2.701   0.357 -0.3577 -0.0943 -0.7195
  624THF     C3 8102   2.415   2.883   0.502  0.5910 -0.3309 -0.0680
  624THF     H4 8103   2.448   2.671   0.258  0.3230  1.0603 -1.5470
  624THF     H5 8104   2.333   2.642   0.389  1.5944  0.8147  0.2466
  624THF     H6 8105   2.444   2.984   0.508 -1.5856 -2.7464 -0.3127
  624THF     H7 8106   2.322   2.863   0.566 -1.1586 -1.7701  1.9026
  624THF     C8 8107   2.522   2.790   0.557 -0.3227  1.0957  0.5838
  624THF     C9 8108   2.532   2.680   0.448  0.3756 -0.4942 -0.0174
  624THF    H10 8109   2.500   2.743   0.647 -0.8203 -1.5489 -0.6049
  624THF    H11 8110   2.622   2.837   0.557  3.3458 -0.1329 -1.5304
  624THF    H12 8111   2.618   2.697   0.388  5.1424 -0.3965  2.2135
  624THF    H13 8112   2.534   2.577   0.486  2.3646  0.1569 -0.0555
  625THF     O1 8113   1.429   0.309   4.871  0.5159  0.3674  0.7305
  625THF     C2 8114   1.512   0.196   4.843 -0.3327  1.0108  0.4850
  625THF     C3 8115   1.344   0.294   4.981  0.1761 -0.7255 -0.4042
  625THF     H4 8116   1.592   0.229   4.790 -2.5341  1.2916  2.1178
  625THF     H5 8117   1.470   0.116   4.777 -0.8723 -1.6253 -2.7319
  625THF     H6 8118   1.306   0.394   5.015  1.2420  1.3265  2.9824
  625THF     H7 8119   1.265   0.226   4.947  1.7603 -1.2342 -1.1023
  625THF     C8 8120   1.440   0.224   5.079  0.7041  0.6241 -0.6297
  625THF     C9 8121   1.526   0.137   4.986  0.5535 -0.0232 -1.0460
  625THF    H10 8122   1.396   0.168   5.165  0.7994  1.0089  1.8391
  625THF    H11 8123   1.510   0.302   5.120  1.7967  1.7752  0.5867
  625THF    H12 8124   1.627   0.121   5.029  0.7232  0.4713 -1.2396
  625THF    H13 8125   1.480   0.036   4.987 -1.8354  1.6303  0.2445
  626THF     O1 8126   2.581   2.459   2.282 -0.5212  0.0564  0.6194
  626THF     C2 8127   2.505   2.582   2.287 -1.9515 -0.2211 -0.3037
  626THF     C3 8128   2.527   2.376   2.182 -0.2740  0.1242 -0.1447
  626THF     H4 8129   2.568   2.665   2.319  0.1802 -1.1794 -2.5521
  626THF     H5 8130   2.422   2.587   2.349 -0.2085 -0.3987 -0.3112
  626THF     H6 8131   2.600   2.297   2.150 -2.0020 -0.9085 -0.7933
  626THF     H7 8132   2.430   2.330   2.213 -0.0112  1.1247  2.4529
  626THF     C8 8133   2.510   2.479   2.069 -0.1828  0.2081  0.4776
  626THF     C9 8134   2.450   2.602   2.140  0.1309 -0.0250 -1.1247
  626THF    H10 8135   2.456   2.432   1.989 -0.8849  2.0013  0.6462
  626THF    H11 8136   2.617   2.494   2.034  3.7469 -1.8853 -1.1142
  626THF    H12 8137   2.471   2.692   2.083 -1.7505  0.4012  2.0124
  626THF    H13 8138   2.346   2.602   2.141  2.8980  0.5521  4.0589
  627THF     O1 8139   3.277   4.586   3.194 -0.2901  0.4834 -0.0956
  627THF     C2 8140   3.265   4.705   3.275  0.5190 -0.3493 -0.6009
  627THF     C3 8141   3.185   4.489   3.234  0.2778 -0.5487 -0.0917
  627THF     H4 8142   3.273   4.791   3.218 -2.2710 -1.5208  0.9503
  627THF     H5 8143   3.347   4.696   3.345 -0.3924  0.4332 -1.4717
  627THF     H6 8144   3.111   4.490   3.148 -0.5077 -1.3701  1.4860
  627THF     H7 8145   3.222   4.380   3.235  1.0388  0.8897  1.2399
  627THF     C8 8146   3.125   4.539   3.364 -0.3288  0.2732 -0.2108
  627THF     C9 8147   3.121   4.684   3.329 -0.4086  0.3854  0.4436
  627THF    H10 8148   3.194   4.512   3.439  0.4973 -0.7504 -1.7668
  627THF    H11 8149   3.033   4.484   3.381 -0.4066 -1.9517  0.5388
  627THF    H12 8150   3.058   4.718   3.247  2.0522  0.1893  0.4376
  627THF    H13 8151   3.108   4.734   3.430  1.5304 -0.2543 -0.5044
  628THF     O1 8152   0.447   2.068   0.784  0.0592 -0.5855 -0.4555
  628THF     C2 8153   0.343   2.141   0.836 -0.5992  0.6188  0.0881
  628THF     C3 8154   0.538   2.156   0.712 -0.9411 -0.5880  0.7838
  628THF     H4 8155   0.351   2.137   0.944  1.1060  0.0173 -1.4843
  628THF     H5 8156   0.250   2.107   0.793  3.4472  1.8906 -1.8254
  628THF     H6 8157   0.629   2.101   0.707  0.1868 -1.4432  0.4253
  628THF     H7 8158   0.508   2.173   0.606 -0.0144  0.2772 -1.5608
  628THF     C8 8159   0.535   2.289   0.798  0.4363 -0.2494 -0.3697
  628THF     C9 8160   0.383   2.287   0.821  0.0520 -0.5545  0.0411
  628THF    H10 8161   0.554   2.371   0.734  2.0196 -1.1580 -1.3181
  628THF    H11 8162   0.603   2.283   0.887 -1.0147 -3.3164 -0.3566
  628THF    H12 8163   0.355   2.343   0.909 -0.7450  2.0961 -0.2724
  628THF    H13 8164   0.324   2.331   0.742  0.5394 -0.2509 -0.0012
  629THF     O1 8165   5.249   0.173   4.067  0.6946 -0.5063  0.6744
  629THF     C2 8166   5.360   0.196   4.153  0.2425 -0.4823 -0.0493
  629THF     C3 8167   5.260   0.046   4.001  0.7045 -0.0363 -1.2868
  629THF     H4 8168   5.320   0.252   4.242  0.6693  0.3681  3.4280
  629THF     H5 8169   5.435   0.264   4.104  1.8017 -0.3618 -3.3944
  629THF     H6 8170   5.172  -0.010   3.982  0.1700  0.0626 -1.2966
  629THF     H7 8171   5.323   0.046   3.911  0.4435  0.1007  4.2893
  629THF     C8 8172   5.330  -0.037   4.110 -0.4801  0.3649 -0.2158
  629THF     C9 8173   5.432   0.063   4.175 -0.2093 -0.7517  0.4219
  629THF    H10 8174   5.381  -0.128   4.067  0.2681 -0.7055  0.3907
  629THF    H11 8175   5.262  -0.073   4.186 -0.7576  0.5155 -3.3458
  629THF    H12 8176   5.450   0.033   4.280  1.8020 -0.0217  0.5187
  629THF    H13 8177   5.528   0.069   4.126  0.2583  0.0428  0.1471
  630THF     O1 8178   3.182   2.831   1.869 -0.3081  0.1872  0.0646
  630THF     C2 8179   3.189   2.874   2.007 -0.6021  0.0915  0.7235
  630THF     C3 8180   3.243   2.932   1.780 -0.6701 -0.7793  0.1722
  630THF     H4 8181   3.183   2.779   2.071 -1.4356  0.4969  4.2503
  630THF     H5 8182   3.115   2.945   2.037  0.7023 -1.6471  0.8272
  630THF     H6 8183   3.272   2.870   1.691 -0.3217  1.0588  4.5833
  630THF     H7 8184   3.181   3.014   1.754  1.1667 -2.7390  0.4379
  630THF     C8 8185   3.368   2.960   1.853  0.7091 -0.1493 -0.2432
  630THF     C9 8186   3.324   2.940   2.004  0.1927 -0.1165 -0.2835
  630THF    H10 8187   3.414   3.055   1.827  0.0350 -2.0625  2.9410
  630THF    H11 8188   3.449   2.886   1.832  3.3964  0.0746 -1.6349
  630THF    H12 8189   3.395   2.870   2.050  0.2802  0.8485  0.2080
  630THF    H13 8190   3.339   3.028   2.058  1.1484 -0.6128  0.1437
  631THF     O1 8191   2.744   3.172   3.712  0.1356 -0.1855  0.3340
  631THF     C2 8192   2.680   3.264   3.620  0.1273  0.1273  0.9730
  631THF     C3 8193   2.749   3.240   3.836 -0.2716  0.6815 -0.3696
  631THF     H4 8194   2.575   3.269   3.634  0.9955  0.0884  0.7437
  631THF     H5 8195   2.695   3.233   3.510  2.2995 -0.1726  0.1662
  631THF     H6 8196   2.670   3.210   3.910 -2.5263 -4.1552  1.0711
  631THF     H7 8197   2.839   3.205   3.890  1.2700 -0.6951  0.5643
  631THF     C8 8198   2.739   3.396   3.807  0.0642 -0.5009 -0.7523
  631THF     C9 8199   2.740   3.398   3.657 -0.5563 -0.0388  0.0605
  631THF    H10 8200   2.825   3.452   3.852  0.0914  0.3070  1.6532
  631THF    H11 8201   2.650   3.447   3.844  0.5996 -0.0995 -0.5553
  631THF    H12 8202   2.695   3.485   3.612 -0.8212 -0.4990 -0.0140
  631THF    H13 8203   2.845   3.404   3.625  1.1891 -0.4236  2.7428
  632THF     O1 8204   3.905   4.598   0.402 -0.3958 -0.0038 -0.4256
  632THF     C2 8205   3.918   4.657   0.537 -0.4553 -0.7607  0.1618
  632THF     C3 8206   3.826   4.686   0.317 -0.4050  0.5535 -0.1666
  632THF     H4 8207   4.021   4.675   0.557 -2.7036  0.9041  0.2892
  632THF     H5 8208   3.879   4.583   0.612  0.7324 -0.5632  1.6253
  632THF     H6 8209   3.901   4.743   0.256  2.5705  0.6155 -0.7677
  632THF     H7 8210   3.771   4.635   0.232  0.6744 -0.0580  1.9653
  632THF     C8 8211   3.746   4.772   0.412  0.4523 -0.0328  0.3726
  632THF     C9 8212   3.841   4.795   0.528  0.1360 -0.8917 -0.2367
  632THF    H10 8213   3.665   4.709   0.454 -0.2481  0.5285  1.3176
  632THF    H11 8214   3.701   4.863   0.370  2.2578 -2.1520 -0.1557
  632THF    H12 8215   3.901   4.877   0.499  1.2551 -0.1065  1.2221
  632THF    H13 8216   3.785   4.807   0.621  0.8131  0.7828  2.3578
  633THF     O1 8217   3.720   0.211   4.373  0.3164 -0.4996  0.3067
  633THF     C2 8218   3.793   0.193   4.256  0.6109  0.4187 -0.1552
  633THF     C3 8219   3.617   0.299   4.332 -0.2838  0.3027 -0.7499
  633THF     H4 8220   3.830   0.085   4.255  3.4918 -2.2794 -1.6999
  633THF     H5 8221   3.879   0.247   4.251 -0.4769 -0.5625 -0.0050
  633THF     H6 8222   3.542   0.279   4.405  0.1245  0.0217 -1.0384
  633THF     H7 8223   3.653   0.406   4.346  0.8925 -0.6366  0.2690
  633THF     C8 8224   3.571   0.257   4.193 -0.1066 -0.4533 -0.3028
  633THF     C9 8225   3.699   0.213   4.139 -0.2766 -0.0632 -0.9851
  633THF    H10 8226   3.522   0.343   4.149 -0.8811 -0.2222  2.3106
  633THF    H11 8227   3.505   0.166   4.198  0.9208  1.7109  0.3227
  633THF    H12 8228   3.689   0.121   4.082  0.6545  0.0527 -0.3929
  633THF    H13 8229   3.746   0.288   4.067 -0.3430  1.0887  0.4534
  634THF     O1 8230   1.459   3.388   1.695 -0.1721  0.6917  0.0513
  634THF     C2 8231   1.498   3.388   1.829  0.0163  0.3799 -0.7452
  634THF     C3 8232   1.436   3.260   1.648 -0.2725 -0.0166 -0.1538
  634THF     H4 8233   1.419   3.381   1.898  1.4215  1.9542 -1.1208
  634THF     H5 8234   1.566   3.472   1.850 -2.8832 -0.7936 -0.5093
  634THF     H6 8235   1.339   3.230   1.682 -0.1472 -0.3653  1.2780
  634THF     H7 8236   1.439   3.234   1.543 -1.4403 -0.3703  0.0585
  634THF     C8 8237   1.548   3.185   1.717  0.0595  1.3578  0.2860
  634THF     C9 8238   1.565   3.251   1.848  0.8865 -0.8345 -0.0568
  634THF    H10 8239   1.644   3.186   1.654 -0.0435 -4.1805 -1.5736
  634THF    H11 8240   1.526   3.077   1.731 -0.5391 -2.8117 -1.5563
  634THF    H12 8241   1.520   3.197   1.938 -0.2397 -0.3017  0.0598
  634THF    H13 8242   1.667   3.269   1.873 -1.1285  0.6503 -1.2445
  635THF     O1 8243   0.751   4.470   4.063  0.4164  0.3397 -0.6257
  635THF     C2 8244   0.796   4.386   3.954 -0.1159 -0.6375 -0.5162
  635THF     C3 8245   0.786   4.394   4.178 -0.2548  0.2319  0.1832
  635THF     H4 8246   0.780   4.427   3.855  2.9078 -0.9416 -2.0988
  635THF     H5 8247   0.734   4.295   3.946  0.1034  0.5773  1.2206
  635THF     H6 8248   0.777   4.444   4.270  1.3032 -1.2409 -3.9625
  635THF     H7 8249   0.719   4.311   4.187  2.3134  0.5675  0.6967
  635THF     C8 8250   0.929   4.343   4.141  1.1452 -0.6008 -0.9542
  635THF     C9 8251   0.938   4.361   3.987 -0.9869 -0.3044 -0.4446
  635THF    H10 8252   0.961   4.238   4.171  1.8533  1.9314  0.7176
  635THF    H11 8253   0.995   4.417   4.195  1.8956  1.2673 -0.4182
  635THF    H12 8254   0.991   4.453   3.958 -1.1329 -1.9983  0.4310
  635THF    H13 8255   0.986   4.272   3.940 -1.4834  1.5043 -0.6098
  636THF     O1 8256   4.993   0.960   1.778 -0.1124  0.6058 -0.2967
  636THF     C2 8257   4.933   0.891   1.673  0.2697  0.2022  0.2662
  636THF     C3 8258   4.918   1.082   1.799  0.2413  0.5571  0.3203
  636THF     H4 8259   4.856   0.815   1.705 -0.6165 -1.3797 -2.2799
  636THF     H5 8260   5.010   0.830   1.623 -0.7697 -2.9614  1.0942
  636THF     H6 8261   4.835   1.054   1.868  0.1661  1.5031 -0.1225
  636THF     H7 8262   4.976   1.156   1.855  2.9541 -0.5896  0.4032
  636THF     C8 8263   4.859   1.115   1.663 -0.5292 -0.2670  0.9895
  636THF     C9 8264   4.858   0.986   1.587 -0.6146  0.3950 -0.0354
  636THF    H10 8265   4.908   1.190   1.611  0.5060 -1.3671  1.5487
  636THF    H11 8266   4.759   1.150   1.683  0.9107 -2.4383  0.0092
  636THF    H12 8267   4.758   0.946   1.578 -0.6094  2.2506 -0.2944
  636THF    H13 8268   4.903   1.001   1.488  0.9307 -0.3334 -0.0779
  637THF     O1 8269   4.652   3.875   1.047 -0.2172  0.2154  0.0473
  637THF     C2 8270   4.665   3.853   1.187  1.0283  0.3688 -0.8410
  637THF     C3 8271   4.626   3.736   0.992  0.1818  0.1126  0.6232
  637THF     H4 8272   4.596   3.915   1.232  3.6336 -1.6160 -0.1866
  637THF     H5 8273   4.768   3.884   1.220  2.9034  1.4288 -2.5841
  637THF     H6 8274   4.522   3.716   0.979  1.0580  2.8248  1.2935
  637THF     H7 8275   4.659   3.733   0.883 -1.6366 -1.2449  0.0658
  637THF     C8 8276   4.684   3.639   1.091 -0.6310  0.4516  0.1101
  637THF     C9 8277   4.644   3.706   1.220 -0.2484  0.8743  0.0302
  637THF    H10 8278   4.795   3.642   1.086 -0.5267  2.1059  0.0826
  637THF    H11 8279   4.652   3.536   1.076 -1.1016  2.1544  0.8339
  637THF    H12 8280   4.547   3.663   1.248  3.4470 -1.9551  2.0620
  637THF    H13 8281   4.708   3.689   1.306  0.4700  1.3438  3.6167
  638THF     O1 8282   1.128   3.107   2.204 -0.5851 -0.2567 -0.1425
  638THF     C2 8283   1.161   3.073   2.336  0.1336 -0.3021 -0.9202
  638THF     C3 8284   1.195   3.227   2.171  0.2689  0.2171 -0.7547
  638THF     H4 8285   1.155   2.967   2.348 -0.7194  0.5700  1.9179
  638THF     H5 8286   1.089   3.107   2.417 -3.4224  1.9019 -0.7058
  638THF     H6 8287   1.246   3.206   2.077  3.5810  0.1450  0.8635
  638THF     H7 8288   1.126   3.310   2.153 -0.3385 -2.9391  0.8514
  638THF     C8 8289   1.292   3.253   2.284  0.5460 -0.7617  0.0441
  638THF     C9 8290   1.302   3.126   2.362 -0.5058  0.6435  0.2138
  638THF    H10 8291   1.241   3.330   2.345  3.9243  1.8037 -1.3083
  638THF    H11 8292   1.384   3.291   2.251 -2.6539  0.4027  0.5607
  638THF    H12 8293   1.376   3.062   2.319  0.4172  1.9757 -0.2729
  638THF    H13 8294   1.313   3.130   2.468  0.1330 -1.6083 -1.7890
  639THF     O1 8295   0.382   1.679   3.546  0.2925  0.2967 -0.3513
  639THF     C2 8296   0.487   1.681   3.638  0.5559 -0.0246 -0.3327
  639THF     C3 8297   0.426   1.688   3.414 -0.3131  0.4624  0.1604
  639THF     H4 8298   0.528   1.586   3.637 -1.9188 -2.3737  0.3331
  639THF     H5 8299   0.443   1.702   3.729  0.6358  2.1505 -1.7697
  639THF     H6 8300   0.450   1.589   3.378 -2.3647 -1.2927  0.0895
  639THF     H7 8301   0.347   1.729   3.350  0.5952 -2.7769  5.4551
  639THF     C8 8302   0.538   1.790   3.435  0.0583  0.9808 -0.0956
  639THF     C9 8303   0.561   1.804   3.583 -0.6198  0.1159 -0.1817
  639THF    H10 8304   0.524   1.883   3.387  1.2357 -0.8135 -1.0226
  639THF    H11 8305   0.622   1.741   3.389  0.0016  1.1976 -3.6498
  639THF    H12 8306   0.669   1.804   3.601  0.0043 -1.4414  1.0538
  639THF    H13 8307   0.516   1.891   3.636 -0.9953 -1.0687  0.0939
  640THF     O1 8308   2.773   2.244   0.757 -0.1362 -0.5760  0.3120
  640THF     C2 8309   2.641   2.276   0.730  0.2046 -0.2397  0.7525
  640THF     C3 8310   2.768   2.202   0.891  0.0190 -0.0961 -0.2419
  640THF     H4 8311   2.589   2.188   0.700  0.1512  0.6574 -2.3624
  640THF     H5 8312   2.638   2.327   0.629 -1.3158  1.6148 -2.0492
  640THF     H6 8313   2.712   2.110   0.899 -1.1793  1.6956  1.3286
  640THF     H7 8314   2.865   2.175   0.937  1.7524 -0.8708 -1.4958
  640THF     C8 8315   2.691   2.307   0.963 -0.3106  0.0416 -0.3472
  640THF     C9 8316   2.581   2.339   0.855  0.1807 -0.0304  0.2249
  640THF    H10 8317   2.751   2.391   0.992  1.7657  0.2550  0.6924
  640THF    H11 8318   2.641   2.271   1.053 -2.5274  0.2951 -0.3045
  640THF    H12 8319   2.496   2.280   0.886 -1.4427  2.9382  3.9430
  640THF    H13 8320   2.565   2.453   0.850 -0.6352  0.2207  0.7076
  641THF     O1 8321   5.213   1.727   0.843  0.3598 -0.1357 -0.1332
  641THF     C2 8322   5.140   1.792   0.950  0.7360  0.3173 -0.4124
  641THF     C3 8323   5.174   1.589   0.856  0.6938  0.9289  0.0773
  641THF     H4 8324   5.056   1.854   0.911  0.7997 -0.8921 -2.0057
  641THF     H5 8325   5.208   1.862   1.000  1.7012 -0.9534  0.9108
  641THF     H6 8326   5.076   1.576   0.802 -2.8274 -0.4452  1.0137
  641THF     H7 8327   5.234   1.517   0.798 -0.5736  0.2761  0.8108
  641THF     C8 8328   5.158   1.567   1.005 -0.2970  0.9315  0.0824
  641THF     C9 8329   5.092   1.692   1.058  0.3709  0.7721  0.0309
  641THF    H10 8330   5.247   1.564   1.062  0.0359  3.1665 -2.4273
  641THF    H11 8331   5.095   1.487   1.030  2.3383  1.3407  0.7950
  641THF    H12 8332   4.986   1.686   1.071  1.0669  1.8589  1.3772
  641THF    H13 8333   5.135   1.715   1.156 -0.2453  1.7258  0.8935
  642THF     O1 8334   1.905   1.358   3.726  0.0340 -0.4611 -0.7347
  642THF     C2 8335   2.033   1.407   3.777  0.1599  0.3742 -0.3087
  642THF     C3 8336   1.924   1.306   3.599  0.2822  0.4002  0.0418
  642THF     H4 8337   2.036   1.402   3.881 -1.1142 -0.1549 -1.0006
  642THF     H5 8338   2.039   1.516   3.768  1.8049  2.3397 -1.6584
  642THF     H6 8339   1.857   1.228   3.570 -0.3079  0.8672 -0.0398
  642THF     H7 8340   1.900   1.391   3.536  0.1102 -1.3529 -0.1509
  642THF     C8 8341   2.069   1.268   3.586  0.5031  0.5562  0.0740
  642THF     C9 8342   2.139   1.336   3.707  0.3896  0.1475 -0.3161
  642THF    H10 8343   2.095   1.302   3.489 -0.4782  0.9319 -2.4749
  642THF    H11 8344   2.079   1.155   3.571  0.3142 -0.0724 -0.6357
  642THF    H12 8345   2.192   1.268   3.777 -0.3277  0.8854 -1.1603
  642THF    H13 8346   2.207   1.417   3.687 -3.0307 -0.6882  2.5388
  643THF     O1 8347   3.240   5.204   0.159 -0.2442  0.5168  0.5773
  643THF     C2 8348   3.303   5.126   0.064  0.1837 -0.8872  0.5277
  643THF     C3 8349   3.320   5.187   0.281  0.3121  0.4418  0.1143
  643THF     H4 8350   3.383   5.180   0.018 -0.2175  1.6757  0.0303
  643THF     H5 8351   3.234   5.091  -0.009 -1.1216  1.8045 -0.1050
  643THF     H6 8352   3.391   5.267   0.281 -1.4257  0.8346 -1.9713
  643THF     H7 8353   3.262   5.201   0.366  0.2246  1.1497  1.0243
  643THF     C8 8354   3.380   5.045   0.284  0.3573 -0.9981  0.7783
  643THF     C9 8355   3.359   5.007   0.138 -0.8992  1.2395 -0.6037
  643THF    H10 8356   3.325   4.982   0.344  2.7810 -1.8923 -0.6795
  643THF    H11 8357   3.482   5.050   0.310 -0.1771 -2.2970  1.6019
  643THF    H12 8358   3.457   4.977   0.095 -0.4804  0.6165  0.2527
  643THF    H13 8359   3.295   4.919   0.123  0.9434 -2.0003 -2.7532
  644THF     O1 8360   2.949   1.376   1.072  0.7914  0.1692 -0.1356
  644THF     C2 8361   3.048   1.275   1.070 -0.0164 -0.1292  0.2559
  644THF     C3 8362   2.983   1.473   0.975  0.4151  0.7132  0.2984
  644THF     H4 8363   3.010   1.184   1.117 -0.9346  1.1037 -0.2292
  644THF     H5 8364   3.135   1.303   1.123 -0.9997 -1.0828 -2.4288
  644THF     H6 8365   2.898   1.540   0.961 -2.1897 -1.5383  1.1875
  644THF     H7 8366   3.063   1.539   0.995 -1.9380  0.5694 -0.3477
  644THF     C8 8367   3.026   1.387   0.855  0.9459 -0.0808  0.2446
  644THF     C9 8368   3.073   1.257   0.917 -0.4204 -0.3907  0.4412
  644THF    H10 8369   3.105   1.435   0.799 -0.0640 -4.2808 -2.1598
  644THF    H11 8370   2.936   1.383   0.794 -2.3741  0.4010 -0.9415
  644THF    H12 8371   3.024   1.158   0.890 -0.7725 -2.3615 -0.8353
  644THF    H13 8372   3.178   1.249   0.902 -1.7330  0.0759 -1.0652
  645THF     O1 8373   0.835   5.347   3.505  0.1531  0.1205  0.2155
  645THF     C2 8374   0.701   5.310   3.518 -0.2426 -0.1888  0.0136
  645THF     C3 8375   0.864   5.448   3.602  0.6102 -0.2809 -0.0930
  645THF     H4 8376   0.701   5.210   3.468  0.4150  2.1997 -1.7933
  645THF     H5 8377   0.632   5.370   3.470  0.9269 -1.3506 -1.5081
  645THF     H6 8378   0.966   5.441   3.632  0.6596 -1.1557 -1.6717
  645THF     H7 8379   0.851   5.548   3.569 -1.5681 -0.4023 -1.4751
  645THF     C8 8380   0.777   5.405   3.725  0.4966 -0.1596  0.4166
  645THF     C9 8381   0.677   5.304   3.664  0.0713  0.0363  0.0232
  645THF    H10 8382   0.720   5.489   3.764  1.0302 -2.2207 -2.4163
  645THF    H11 8383   0.831   5.354   3.807  1.6487  1.9248 -2.5969
  645THF    H12 8384   0.687   5.199   3.701  1.9010 -0.9324 -0.3560
  645THF    H13 8385   0.583   5.337   3.685  1.4889 -0.1466  1.0999
  646THF     O1 8386   1.893   4.982   5.058 -0.3887  0.4684 -0.1410
  646THF     C2 8387   2.022   4.926   5.048 -0.1300 -0.0789 -0.8107
  646THF     C3 8388   1.782   4.911   5.011 -0.4979  0.2792 -0.4378
  646THF     H4 8389   2.058   4.945   5.149 -1.4278  0.4180  0.6438
  646THF     H5 8390   2.075   4.969   4.959 -0.2512 -1.1970  0.8609
  646THF     H6 8391   1.707   4.872   5.088 -1.2247  1.1043 -0.3031
  646THF     H7 8392   1.728   4.963   4.928 -0.5179 -0.5524  1.0366
  646THF     C8 8393   1.854   4.794   4.939 -0.1150  0.2623  0.1117
  646THF     C9 8394   1.987   4.786   5.009 -0.6928  0.1328 -0.1481
  646THF    H10 8395   1.861   4.828   4.835 -0.0712 -1.4553  1.5262
  646THF    H11 8396   1.798   4.698   4.953 -0.8679 -0.2167  0.6418
  646THF    H12 8397   1.978   4.716   5.099 -1.7905  0.8321 -0.7466
  646THF    H13 8398   2.062   4.751   4.943 -2.4619  1.7124 -1.0811
  647THF     O1 8399   2.523   1.949   2.978  0.4905 -0.4498 -0.5701
  647THF     C2 8400   2.406   1.948   3.062 -0.2680  0.1585  0.0738
  647THF     C3 8401   2.633   2.002   3.063  0.0409  0.4789  0.8206
  647THF     H4 8402   2.402   1.848   3.102 -1.5635  1.2166  1.4412
  647THF     H5 8403   2.321   1.954   2.994  2.1465 -0.1558 -0.3749
  647THF     H6 8404   2.665   1.921   3.129  1.0711  0.2790  2.0189
  647THF     H7 8405   2.715   2.061   3.021 -1.1603  0.2883  0.2945
  647THF     C8 8406   2.560   2.112   3.132 -0.3093  0.2799  0.7063
  647THF     C9 8407   2.432   2.053   3.174  0.4377 -0.3094 -0.6537
  647THF    H10 8408   2.552   2.185   3.051 -1.1490 -2.6693  0.0270
  647THF    H11 8409   2.622   2.155   3.215  1.5960  3.3015  0.8193
  647THF    H12 8410   2.444   2.001   3.267  3.9096  0.8629  1.9195
  647THF    H13 8411   2.365   2.136   3.177 -0.8414  2.6205 -0.9579
  648THF     O1 8412   0.124   4.550   0.790 -0.0651 -0.1996  0.5356
  648THF     C2 8413   0.133   4.640   0.680 -0.0894  0.4519 -0.0352
  648THF     C3 8414   0.260   4.498   0.800  0.0662  0.7178  0.6835
  648THF     H4 8415   0.050   4.715   0.680 -0.2043 -1.7719  0.8938
  648THF     H5 8416   0.121   4.580   0.591  1.4070 -0.0893  3.7171
  648THF     H6 8417   0.283   4.453   0.894 -0.4146 -2.4825 -3.1467
  648THF     H7 8418   0.284   4.418   0.740  1.1980  2.0710  0.1055
  648THF     C8 8419   0.352   4.601   0.774 -0.0231 -0.0239 -0.5748
  648THF     C9 8420   0.270   4.705   0.696  0.2805 -0.5704 -0.4648
  648THF    H10 8421   0.429   4.570   0.703  1.3306  2.6973  0.5202
  648THF    H11 8422   0.394   4.646   0.856  1.6698  0.2962 -1.4265
  648THF    H12 8423   0.256   4.798   0.754 -2.5062 -1.1866 -0.1162
  648THF    H13 8424   0.311   4.725   0.600  1.6774  2.4771  2.1772
  649THF     O1 8425   1.264   1.777   0.296  0.2355  0.2711  0.2777
  649THF     C2 8426   1.287   1.815   0.163 -0.3738  0.8386  0.6401
  649THF     C3 8427   1.314   1.642   0.315  0.0469 -0.2354 -0.3602
  649THF     H4 8428   1.310   1.921   0.148  0.9812 -2.7398 -1.2410
  649THF     H5 8429   1.203   1.790   0.098  3.1001  0.2262 -0.7906
  649THF     H6 8430   1.382   1.645   0.397  0.3910 -0.2296  0.4221
  649THF     H7 8431   1.236   1.573   0.347  1.3682 -1.3626 -0.1330
  649THF     C8 8432   1.376   1.597   0.179 -1.0195 -0.0859  0.2065
  649THF     C9 8433   1.407   1.733   0.119  0.6658 -0.3996  0.7337
  649THF    H10 8434   1.296   1.544   0.119  1.0918  2.3831  3.3462
  649THF    H11 8435   1.464   1.529   0.191  1.3823  0.6103 -2.7424
  649THF    H12 8436   1.485   1.784   0.160 -1.7324 -1.3026 -0.1806
  649THF    H13 8437   1.423   1.728   0.011  1.4231  2.0015  0.6641
  650THF     O1 8438   0.054   0.513   3.738 -0.0906 -0.4332  0.4110
  650THF     C2 8439   0.018   0.532   3.598 -0.7568 -0.1993  0.4030
  650THF     C3 8440   0.037   0.376   3.767 -0.1828 -0.0119  0.2998
  650THF     H4 8441   0.107   0.507   3.543  0.7580  2.6002 -0.9609
  650THF     H5 8442   0.007   0.632   3.577  1.8706 -2.5549  0.5889
  650THF     H6 8443   0.114   0.308   3.731  0.0269  1.4287 -0.0253
  650THF     H7 8444   0.024   0.349   3.869 -0.8213  1.1369 -0.2144
  650THF     C8 8445  -0.096   0.344   3.697 -0.4489  0.0051  0.3118
  650THF     C9 8446  -0.091   0.425   3.570  0.3081  1.0042  0.2327
  650THF    H10 8447  -0.179   0.372   3.770  1.0649  2.3192  0.4951
  650THF    H11 8448  -0.092   0.239   3.681  0.1357 -0.8901  0.4361
  650THF    H12 8449  -0.057   0.360   3.485 -0.1143  0.4993 -2.3284
  650THF    H13 8450  -0.182   0.470   3.543  2.0936 -1.0945 -0.9029
  651THF     O1 8451   3.658   3.684   2.949  0.0754  0.2194  0.0978
  651THF     C2 8452   3.732   3.795   2.995 -0.0655  0.2056  0.3289
  651THF     C3 8453   3.516   3.721   2.944 -0.3415 -0.2931  0.6824
  651THF     H4 8454   3.769   3.876   2.923  2.1061 -0.1582  1.2918
  651THF     H5 8455   3.827   3.759   3.037 -0.4464 -1.4733 -0.9200
  651THF     H6 8456   3.471   3.708   2.846 -1.6069 -3.3481  0.6837
  651THF     H7 8457   3.470   3.644   3.011 -0.0371 -0.2572 -0.7165
  651THF     C8 8458   3.504   3.857   3.013 -0.8784  0.2257 -1.2875
  651THF     C9 8459   3.636   3.874   3.092 -0.3634 -0.2670 -0.5383
  651THF    H10 8460   3.422   3.874   3.086  0.4572 -1.9497 -1.8180
  651THF    H11 8461   3.491   3.924   2.925  0.3318  0.7590 -2.5055
  651THF    H12 8462   3.678   3.978   3.105  0.7911 -0.3864  0.6328
  651THF    H13 8463   3.623   3.822   3.183 -0.8638  3.7644 -3.8156
  652THF     O1 8464   2.487   1.704   0.611  0.0533  0.1786  0.6297
  652THF     C2 8465   2.529   1.840   0.599  0.2264 -0.1406 -0.7076
  652THF     C3 8466   2.517   1.672   0.746 -0.2829  0.8178  0.2216
  652THF     H4 8467   2.453   1.906   0.635  1.0554  0.8656 -2.0040
  652THF     H5 8468   2.546   1.870   0.499  3.7651  1.7270  0.6821
  652THF     H6 8469   2.428   1.673   0.813 -2.1526 -1.6596 -2.2211
  652THF     H7 8470   2.554   1.571   0.744 -3.0680 -0.5455 -0.4677
  652THF     C8 8471   2.618   1.764   0.795  0.5075 -0.1113  0.1672
  652THF     C9 8472   2.659   1.843   0.674 -0.0061 -0.2265  0.2756
  652THF    H10 8473   2.706   1.709   0.838  0.0091  1.0206  1.7417
  652THF    H11 8474   2.591   1.843   0.864  2.5299  1.0054 -0.5884
  652THF    H12 8475   2.699   1.947   0.691  3.4758  0.8419  0.4705
  652THF    H13 8476   2.735   1.781   0.617  1.2530 -0.1812 -1.4924
  653THF     O1 8477   3.758   0.482   1.299 -0.4769 -0.1776  0.1432
  653THF     C2 8478   3.645   0.398   1.321 -1.0087  0.5025 -0.5441
  653THF     C3 8479   3.758   0.576   1.405  0.5303 -0.5032  0.0838
  653THF     H4 8480   3.652   0.297   1.271 -0.1755 -1.9454 -0.4605
  653THF     H5 8481   3.557   0.453   1.295  0.1359 -3.8438  1.2937
  653THF     H6 8482   3.860   0.603   1.443 -0.0831  0.7419  0.0260
  653THF     H7 8483   3.716   0.670   1.372 -1.1215 -0.5020  0.7454
  653THF     C8 8484   3.693   0.518   1.535  0.1842 -0.8760 -0.2837
  653THF     C9 8485   3.658   0.383   1.473  0.3351  0.0536 -0.6321
  653THF    H10 8486   3.599   0.563   1.561  0.8614  0.5033 -0.0460
  653THF    H11 8487   3.760   0.514   1.621 -1.3497 -1.1969  1.3126
  653THF    H12 8488   3.743   0.324   1.501 -1.2117  0.3322 -0.6239
  653THF    H13 8489   3.574   0.332   1.517  0.8884 -0.9011 -0.2155
  654THF     O1 8490   3.593   2.350   1.431  0.1256 -0.8646  0.7876
  654THF     C2 8491   3.489   2.404   1.341  0.1074 -0.5746 -0.0742
  654THF     C3 8492   3.602   2.211   1.403 -0.5907 -0.8602 -0.2055
  654THF     H4 8493   3.499   2.510   1.339  0.8955  2.4893  2.3516
  654THF     H5 8494   3.390   2.381   1.384 -1.2066 -0.0841 -1.1706
  654THF     H6 8495   3.690   2.172   1.454 -0.8727 -0.5388  4.4307
  654THF     H7 8496   3.510   2.169   1.438 -0.3214 -0.6939 -2.0995
  654THF     C8 8497   3.600   2.225   1.253  0.8486  0.0777  0.1141
  654THF     C9 8498   3.500   2.326   1.217  0.4327 -0.0763  1.0534
  654THF    H10 8499   3.571   2.127   1.209 -3.3120 -0.6272  2.0724
  654THF    H11 8500   3.699   2.255   1.217 -1.6638  0.1080 -1.7614
  654THF    H12 8501   3.518   2.377   1.128  0.0735 -1.3643 -0.3847
  654THF    H13 8502   3.405   2.277   1.186  0.4167 -1.3667  1.5238
  655THF     O1 8503   3.723   1.519   4.229 -0.4610  0.2857  0.1798
  655THF     C2 8504   3.641   1.630   4.240  0.3415  0.4437  0.3884
  655THF     C3 8505   3.761   1.476   4.359  1.0068 -0.2829 -0.1595
  655THF     H4 8506   3.595   1.643   4.142 -0.9555  0.7408  1.0386
  655THF     H5 8507   3.693   1.712   4.270  2.9600  0.9038  2.5441
  655THF     H6 8508   3.797   1.374   4.378 -0.9249  0.7079  0.5750
  655THF     H7 8509   3.840   1.543   4.401  0.4245 -2.7110  0.6865
  655THF     C8 8510   3.628   1.495   4.430  0.3438 -0.2084  0.4659
  655THF     C9 8511   3.546   1.588   4.351 -0.5675 -0.1782  0.9727
  655THF    H10 8512   3.649   1.551   4.521  1.4399  1.7006  0.8391
  655THF    H11 8513   3.569   1.406   4.459  1.6873 -2.7956 -1.8554
  655THF    H12 8514   3.458   1.539   4.312  3.3845  2.2433  2.3103
  655THF    H13 8515   3.517   1.673   4.405  4.4553  0.1612  3.4825
  656THF     O1 8516   4.426   2.218   3.286 -0.0137  0.1706 -0.5185
  656THF     C2 8517   4.510   2.104   3.307  0.1960  0.2948 -0.7807
  656THF     C3 8518   4.337   2.185   3.181  0.6588  0.0962  1.2481
  656THF     H4 8519   4.453   2.031   3.366 -1.1736  1.4375 -1.9391
  656THF     H5 8520   4.602   2.127   3.361 -2.2163 -0.2829 -0.6640
  656THF     H6 8521   4.237   2.156   3.219 -0.7189  0.5487  0.4559
  656THF     H7 8522   4.331   2.269   3.113  2.2526  1.4318  0.6390
  656THF     C8 8523   4.403   2.064   3.100  0.3049  0.3449 -0.1698
  656THF     C9 8524   4.537   2.062   3.167 -0.4261  0.0454  0.4989
  656THF    H10 8525   4.409   2.081   2.994 -0.3882  0.2844 -0.4158
  656THF    H11 8526   4.356   1.961   3.126  0.6494 -2.5064  0.2874
  656THF    H12 8527   4.575   1.963   3.154  0.7738  2.3533  0.4979
  656THF    H13 8528   4.598   2.130   3.115  0.7791  3.2427  0.8418
  657THF     O1 8529   4.816   1.023   3.038  0.0871  0.0801 -0.5987
  657THF     C2 8530   4.753   1.105   2.934  0.2229 -0.0919 -0.1428
  657THF     C3 8531   4.888   1.109   3.124  0.1154  0.3888  0.2563
  657THF     H4 8532   4.667   1.044   2.895 -3.6179  1.0332 -1.2129
  657THF     H5 8533   4.830   1.118   2.859  0.7034  1.8774 -2.3398
  657THF     H6 8534   4.870   1.085   3.223  0.5911  1.9830 -0.3295
  657THF     H7 8535   4.990   1.113   3.109 -2.3639 -2.1544 -0.6312
  657THF     C8 8536   4.837   1.254   3.098 -0.5641  0.8155  0.1447
  657THF     C9 8537   4.718   1.234   3.008  0.0449  0.3249 -0.5320
  657THF    H10 8538   4.889   1.326   3.037 -0.7617  2.0220  3.1754
  657THF    H11 8539   4.808   1.308   3.180  1.0721 -2.0555 -0.5186
  657THF    H12 8540   4.633   1.209   3.074 -2.6950  1.7860  2.3475
  657THF    H13 8541   4.694   1.324   2.952  0.3663  0.1506  0.6630
  658THF     O1 8542   5.413   0.240   1.083  0.2370  0.3247 -0.3120
  658THF     C2 8543   5.327   0.125   1.094 -0.3626 -0.9943 -0.0252
  658THF     C3 8544   5.505   0.227   1.186 -0.4576 -0.0590  0.3534
  658THF     H4 8545   5.374   0.040   1.046 -0.1897 -0.0266 -0.4540
  658THF     H5 8546   5.231   0.149   1.051 -0.7146 -0.9876  0.6084
  658THF     H6 8547   5.582   0.169   1.134 -0.5640 -2.9316 -0.5571
  658THF     H7 8548   5.543   0.329   1.223 -0.9777  0.4855 -0.1250
  658THF     C8 8549   5.438   0.158   1.306 -0.5058 -0.9603  0.1604
  658THF     C9 8550   5.306   0.111   1.245 -0.5443  0.0091 -0.2087
  658THF    H10 8551   5.421   0.234   1.386  0.1272  1.3476 -1.8850
  658THF    H11 8552   5.508   0.087   1.346  0.9593 -3.3600 -0.3495
  658THF    H12 8553   5.286   0.004   1.269  1.3517 -1.3209 -4.0512
  658THF    H13 8554   5.223   0.170   1.277  0.3737  1.0858  0.8334
  659THF     O1 8555   3.116   4.356   5.144  0.6994  0.8552 -0.8520
  659THF     C2 8556   3.242   4.378   5.201  0.3925 -0.9151  0.3008
  659THF     C3 8557   3.132   4.268   5.031 -0.7701 -0.0021  0.1001
  659THF     H4 8558   3.227   4.403   5.306 -1.2935 -2.7618 -0.1822
  659THF     H5 8559   3.286   4.469   5.152  0.0623 -1.1677  0.2297
  659THF     H6 8560   3.041   4.228   4.989 -1.2446  1.0442  1.8905
  659THF     H7 8561   3.162   4.323   4.945 -2.6365 -2.9357 -1.2524
  659THF     C8 8562   3.231   4.163   5.087  0.2162  0.3707 -0.3907
  659THF     C9 8563   3.325   4.248   5.178 -0.3503  0.4523 -0.0518
  659THF    H10 8564   3.279   4.122   5.001  2.1457  0.1378  1.0031
  659THF    H11 8565   3.169   4.088   5.138 -0.7517  2.0458 -4.6940
  659THF    H12 8566   3.329   4.191   5.271  0.7466  2.1743 -1.1288
  659THF    H13 8567   3.423   4.279   5.133  2.9454 -1.1997 -1.2298
  660THF     O1 8568   1.381   2.660   1.831 -0.4990  0.9388 -0.7498
  660THF     C2 8569   1.412   2.789   1.792 -0.4399 -0.3745 -0.0151
  660THF     C3 8570   1.253   2.673   1.892 -0.3633 -0.8267  0.2098
  660THF     H4 8571   1.357   2.801   1.688  0.2849  0.7039 -4.9053
  660THF     H5 8572   1.513   2.802   1.766  0.1343 -2.9408  0.9290
  660THF     H6 8573   1.174   2.677   1.810 -1.6033  1.0004  0.4869
  660THF     H7 8574   1.231   2.588   1.962  0.3804  0.3533  1.9674
  660THF     C8 8575   1.255   2.815   1.963  0.0998 -0.3466 -0.7067
  660THF     C9 8576   1.350   2.891   1.883  0.1983  0.1247 -0.5110
  660THF    H10 8577   1.281   2.814   2.068  1.4526  0.5980 -0.6639
  660THF    H11 8578   1.161   2.862   1.969  0.4538 -0.9623 -2.4044
  660THF    H12 8579   1.305   2.977   1.829  0.4305  0.6481  1.2236
  660THF    H13 8580   1.423   2.924   1.950  2.0255  1.4475  2.3171
  661THF     O1 8581   3.332   2.093   3.611 -0.4992 -0.0158  0.1224
  661THF     C2 8582   3.281   1.974   3.674 -0.9362 -0.4983 -0.3509
  661THF     C3 8583   3.289   2.196   3.699 -1.0003 -0.8228  0.3543
  661THF     H4 8584   3.343   1.964   3.770 -1.2674  1.7362  1.5713
  661THF     H5 8585   3.302   1.883   3.622 -0.0214 -1.3828 -0.9329
  661THF     H6 8586   3.347   2.199   3.797 -1.0269 -0.1117 -0.0039
  661THF     H7 8587   3.305   2.294   3.655 -2.1989  0.3233 -2.1849
  661THF     C8 8588   3.142   2.161   3.718  0.0739  0.4776 -0.0341
  661THF     C9 8589   3.137   2.006   3.702  0.4565  0.1092 -0.2356
  661THF    H10 8590   3.072   2.215   3.645 -0.6654  1.2020  0.7156
  661THF    H11 8591   3.104   2.183   3.820 -2.1353 -0.3095  2.5961
  661THF    H12 8592   3.107   1.954   3.791 -0.8300  3.2841  2.3471
  661THF    H13 8593   3.071   1.978   3.620  0.0435 -0.6877  1.8491
  662THF     O1 8594   3.743   1.397   5.496  0.1877  0.3094 -0.8922
  662THF     C2 8595   3.648   1.379   5.606 -0.2988  0.0084 -0.3166
  662THF     C3 8596   3.668   1.471   5.399 -0.3816  0.3985 -0.7754
  662THF     H4 8597   3.696   1.347   5.694  2.6012  0.9490  1.7378
  662THF     H5 8598   3.565   1.307   5.587  0.7401  0.0913 -1.0526
  662THF     H6 8599   3.732   1.543   5.345  0.7456  1.3648  0.4078
  662THF     H7 8600   3.621   1.404   5.321 -1.5957 -1.9630 -3.2185
  662THF     C8 8601   3.571   1.553   5.475  0.0583 -0.4562 -0.3130
  662THF     C9 8602   3.600   1.522   5.619  0.3530 -0.7203  0.2957
  662THF    H10 8603   3.466   1.517   5.438  1.0924 -2.4183  0.0999
  662THF    H11 8604   3.575   1.657   5.450 -1.3977  0.2620 -0.7689
  662THF    H12 8605   3.678   1.582   5.667 -0.2151  0.6841  2.6672
  662THF    H13 8606   3.508   1.533   5.681 -0.8429 -1.6286 -2.1473
  663THF     O1 8607   5.467   2.142   4.486 -0.2041 -0.1871 -0.1941
  663THF     C2 8608   5.453   2.225   4.372 -0.0058 -0.3188 -0.0723
  663THF     C3 8609   5.602   2.089   4.480 -0.0282 -0.1998 -0.2065
  663THF     H4 8610   5.507   2.322   4.376 -0.5829 -0.0963 -2.3564
  663THF     H5 8611   5.348   2.234   4.352 -3.4072  2.5790  2.2795
  663THF     H6 8612   5.672   2.153   4.527 -0.9200 -1.0149 -0.2314
  663THF     H7 8613   5.618   1.994   4.536  1.2857  0.1043  0.9192
  663THF     C8 8614   5.623   2.065   4.332 -0.3719  0.1435  0.6366
  663THF     C9 8615   5.517   2.148   4.258 -0.5033  0.6171 -0.1915
  663THF    H10 8616   5.603   1.954   4.313 -0.8096  0.6515 -0.9748
  663THF    H11 8617   5.725   2.094   4.301  0.5503 -1.6378  1.0428
  663THF    H12 8618   5.559   2.201   4.177  2.6284 -1.0937  0.9066
  663THF    H13 8619   5.451   2.078   4.211  1.9821  0.8676  1.2214
  664THF     O1 8620   3.475   2.029   2.369 -0.5487 -0.5325 -0.5486
  664THF     C2 8621   3.518   2.022   2.497  0.9046 -0.1772 -0.5100
  664THF     C3 8622   3.331   2.047   2.367 -0.3217  0.0788 -0.5157
  664THF     H4 8623   3.522   2.120   2.542  1.2323  0.5923 -0.4253
  664THF     H5 8624   3.621   1.981   2.501 -1.5763  0.9031  0.9949
  664THF     H6 8625   3.302   2.149   2.370  2.4982  0.1620 -0.3742
  664THF     H7 8626   3.294   1.995   2.282 -1.0277 -1.0088  1.0293
  664THF     C8 8627   3.280   1.974   2.495 -0.0918 -1.0294  0.0815
  664THF     C9 8628   3.408   1.937   2.566  0.1667 -0.1803 -0.4585
  664THF    H10 8629   3.224   1.894   2.465  1.0599  0.3298 -1.4718
  664THF    H11 8630   3.205   2.033   2.541 -0.2865 -1.6572  0.0566
  664THF    H12 8631   3.405   1.951   2.672 -1.0679 -0.5205  0.3363
  664THF    H13 8632   3.436   1.837   2.549 -0.1082  2.3415 -1.8853
  665THF     O1 8633   3.153   2.301   0.780  0.1295  0.0169  0.0694
  665THF     C2 8634   3.219   2.282   0.904 -0.4322 -0.3358  0.7994
  665THF     C3 8635   3.257   2.306   0.672 -0.2369 -0.8504  0.3351
  665THF     H4 8636   3.176   2.209   0.971 -1.1967  1.9857 -0.2746
  665THF     H5 8637   3.215   2.378   0.956  0.6560  2.1893 -0.8078
  665THF     H6 8638   3.253   2.208   0.618  0.2096  0.5288  1.0447
  665THF     H7 8639   3.236   2.373   0.590 -2.0028  1.0928 -0.5930
  665THF     C8 8640   3.388   2.328   0.744  0.2335  0.4370  0.1200
  665THF     C9 8641   3.358   2.239   0.860 -0.1215  0.7353 -0.0457
  665THF    H10 8642   3.407   2.432   0.778 -0.7525  0.4542 -1.3629
  665THF    H11 8643   3.473   2.295   0.684  1.3621  0.6259 -0.0999
  665THF    H12 8644   3.358   2.137   0.825 -0.4611 -2.8282  1.8305
  665THF    H13 8645   3.426   2.254   0.945  0.2501 -0.9027  0.7629
  666THF     O1 8646   0.889   5.107   2.701 -0.1841 -0.3493 -0.2116
  666THF     C2 8647   0.820   5.019   2.790 -0.0692 -0.0133 -0.5448
  666THF     C3 8648   1.024   5.064   2.679 -0.1447  0.4906  0.3349
  666THF     H4 8649   0.712   5.030   2.795 -1.4243 -2.0998 -1.0368
  666THF     H5 8650   0.864   5.032   2.885  1.4914 -0.3460  2.9040
  666THF     H6 8651   1.049   5.105   2.583  1.0525  0.3009  0.5210
  666THF     H7 8652   1.078   5.100   2.761  1.5343 -2.0755 -0.3933
  666THF     C8 8653   1.006   4.907   2.688 -0.8565 -0.2334 -0.5511
  666THF     C9 8654   0.865   4.890   2.732  0.2784 -0.2471 -0.4588
  666THF    H10 8655   1.086   4.872   2.752 -0.4460 -1.0638  2.0793
  666THF    H11 8656   1.026   4.856   2.594  2.0375 -0.3886  2.1800
  666THF    H12 8657   0.812   4.872   2.644  1.8997  1.3033  1.8022
  666THF    H13 8658   0.845   4.807   2.794 -1.1500  0.2227  1.8877
  667THF     O1 8659   4.209   0.943   0.536  0.1213  0.6503 -0.0335
  667THF     C2 8660   4.204   1.007   0.661  0.5326  0.2241 -0.0011
  667THF     C3 8661   4.295   1.019   0.448  0.2838 -0.0099  0.1386
  667THF     H4 8662   4.299   1.004   0.703 -1.9420  0.4620 -1.8982
  667THF     H5 8663   4.129   0.974   0.728 -1.0460  2.6477  0.3113
  667THF     H6 8664   4.400   0.991   0.448 -2.5937 -1.8676 -0.3607
  667THF     H7 8665   4.263   1.018   0.348 -1.6393 -0.3927  0.1085
  667THF     C8 8666   4.298   1.164   0.504  0.3877  0.7593 -0.2508
  667THF     C9 8667   4.188   1.154   0.609 -0.9423 -0.1520  0.1770
  667THF    H10 8668   4.285   1.243   0.433  1.4015 -1.1167  0.8701
  667THF    H11 8669   4.393   1.187   0.560 -2.9390 -2.6541  0.6293
  667THF    H12 8670   4.197   1.229   0.688 -0.3758  0.8875  0.4138
  667THF    H13 8671   4.094   1.170   0.556  2.2440 -1.8593 -2.5563
  668THF     O1 8672   3.056   4.324   0.033  0.2675  0.1005  0.0953
  668THF     C2 8673   3.083   4.438   0.114  0.1523  0.0032  0.1212
  668THF     C3 8674   3.129   4.212   0.087  0.2048 -0.2712 -0.4513
  668THF     H4 8675   3.039   4.417   0.215  0.9467 -0.2541 -0.7753
  668THF     H5 8676   3.037   4.532   0.078  2.7491 -1.4573 -0.6921
  668THF     H6 8677   3.082   4.184   0.182 -1.0838  0.4282  0.3195
  668THF     H7 8678   3.114   4.127   0.017  0.2282 -0.5689 -0.5480
  668THF     C8 8679   3.261   4.282   0.081 -1.2634  0.0153  0.0495
  668THF     C9 8680   3.233   4.437   0.119 -0.8795 -0.5490  0.2005
  668THF    H10 8681   3.315   4.297  -0.013  1.1680  0.1781  0.9466
  668THF    H11 8682   3.330   4.237   0.150 -1.6975  0.8613  1.6673
  668THF    H12 8683   3.275   4.473   0.218  0.7287 -1.3054  1.2641
  668THF    H13 8684   3.273   4.501   0.044  2.0487 -1.1700  0.7665
  669THF     O1 8685   5.180   5.253   2.476  0.3751  0.0033 -0.5053
  669THF     C2 8686   5.144   5.351   2.377  0.0541  0.5149  0.0247
  669THF     C3 8687   5.072   5.241   2.567 -0.2710 -0.4110  0.8129
  669THF     H4 8688   5.193   5.328   2.284  0.0586  2.0734  0.2227
  669THF     H5 8689   5.167   5.453   2.412 -0.1237 -0.6427  0.6231
  669THF     H6 8690   5.072   5.146   2.626 -3.0243  0.4795  1.3821
  669THF     H7 8691   5.069   5.330   2.635 -0.0652 -0.8854  0.3204
  669THF     C8 8692   4.952   5.241   2.478 -0.1037 -0.2897  0.4782
  669THF     C9 8693   4.991   5.328   2.358  0.6671  0.6461 -0.4490
  669THF    H10 8694   4.878   5.293   2.536  2.5973  1.1984 -0.7365
  669THF    H11 8695   4.914   5.139   2.466  0.2599  0.5979 -2.2671
  669THF    H12 8696   4.962   5.276   2.271  1.1549 -1.0507  2.9075
  669THF    H13 8697   4.942   5.423   2.376  0.6050  0.1870  0.4648
  670THF     O1 8698   1.853   2.926   3.340 -0.5537 -0.0089  0.5688
  670THF     C2 8699   1.907   2.982   3.463  0.4078  0.4579  0.3442
  670THF     C3 8700   1.960   2.948   3.252 -0.5810 -0.2067  0.7454
  670THF     H4 8701   1.985   2.916   3.508  0.9302 -2.3579 -1.0609
  670THF     H5 8702   1.824   2.977   3.537 -1.6353  1.0295  1.3720
  670THF     H6 8703   2.031   2.868   3.246  0.8572  0.4528 -0.2762
  670THF     H7 8704   1.920   2.952   3.150  0.4820  0.4648 -2.1896
  670THF     C8 8705   2.030   3.084   3.284  0.2627  0.6022  0.7449
  670THF     C9 8706   1.965   3.120   3.413  0.4276  0.6692  0.0493
  670THF    H10 8707   2.023   3.156   3.210  0.1324  1.4583  1.9056
  670THF    H11 8708   2.127   3.069   3.307 -1.9244 -1.3741  0.0304
  670THF    H12 8709   2.028   3.162   3.492  0.4578 -2.7340 -0.0055
  670THF    H13 8710   1.877   3.178   3.387 -0.0139 -2.8866  1.4367
  671THF     O1 8711   1.158   3.502   2.917 -0.0942  0.0953 -0.0912
  671THF     C2 8712   1.096   3.376   2.906  0.3423  0.0421  1.4740
  671THF     C3 8713   1.244   3.502   2.808  0.7383  0.2148 -0.5004
  671THF     H4 8714   1.013   3.366   2.971  1.7277 -1.5350 -1.2530
  671THF     H5 8715   1.165   3.300   2.942 -0.4516  3.0732  0.6674
  671THF     H6 8716   1.274   3.606   2.773  0.0715  1.7821 -1.2566
  671THF     H7 8717   1.334   3.457   2.837 -0.4112  1.1637  1.4197
  671THF     C8 8718   1.169   3.429   2.701  0.3775 -0.6048 -0.5960
  671THF     C9 8719   1.047   3.360   2.764  0.0797 -0.0039  0.1228
  671THF    H10 8720   1.238   3.375   2.640 -2.2399  0.3878 -0.7145
  671THF    H11 8721   1.127   3.507   2.631 -0.5389  1.1216 -3.5761
  671THF    H12 8722   0.952   3.408   2.736  0.9871  2.3820  0.4376
  671THF    H13 8723   1.042   3.251   2.748  1.0903  0.2608  1.3959
  672THF     O1 8724   0.661   3.044   2.435 -0.1905 -0.3335 -0.2892
  672THF     C2 8725   0.671   2.964   2.320  0.0473  0.1943  0.3559
  672THF     C3 8726   0.776   3.035   2.510  0.0560  0.5083  0.4214
  672THF     H4 8727   0.725   3.011   2.242  1.0602 -1.1918  0.6869
  672THF     H5 8728   0.573   2.939   2.286  3.1292  1.3955 -1.4596
  672THF     H6 8729   0.858   3.090   2.463  1.1722  0.0132  1.8708
  672THF     H7 8730   0.753   3.082   2.608 -0.0399 -2.4993  0.7147
  672THF     C8 8731   0.807   2.887   2.513  0.6129  0.2199 -0.0152
  672THF     C9 8732   0.744   2.842   2.378  0.2505 -0.0291  0.2012
  672THF    H10 8733   0.769   2.827   2.592 -1.1212 -1.4321  0.6840
  672THF    H11 8734   0.915   2.870   2.508 -2.5320 -0.2287 -1.6601
  672THF    H12 8735   0.823   2.807   2.307  0.5922  2.0643 -0.3713
  672THF    H13 8736   0.678   2.755   2.396  0.1276 -1.1639 -1.1983
  673THF     O1 8737   4.698   4.953   0.603 -0.0886 -0.1557  0.2502
  673THF     C2 8738   4.704   4.954   0.462  0.3957 -0.7035 -0.7616
  673THF     C3 8739   4.781   4.850   0.654  0.1236 -0.8207  0.0929
  673THF     H4 8740   4.735   5.058   0.445 -1.8360  0.5293 -1.9403
  673THF     H5 8741   4.611   4.935   0.424  1.4714 -0.9990 -0.2869
  673THF     H6 8742   4.875   4.890   0.681  0.6194  2.6568 -1.2084
  673THF     H7 8743   4.741   4.795   0.740  0.0593  0.2866 -0.3883
  673THF     C8 8744   4.804   4.758   0.536 -0.7387  0.9350 -0.7187
  673THF     C9 8745   4.806   4.852   0.418 -0.1767  0.0957  0.3059
  673THF    H10 8746   4.724   4.689   0.515  0.9361 -0.1033 -4.3724
  673THF    H11 8747   4.894   4.697   0.534  2.7261 -0.9970 -2.0573
  673THF    H12 8748   4.899   4.904   0.404  0.6332  2.2312 -2.2710
  673THF    H13 8749   4.777   4.805   0.323 -0.8790  2.0478 -3.0372
  674THF     O1 8750   1.948   4.387   5.329  0.5102  0.0766 -0.5204
  674THF     C2 8751   2.039   4.345   5.235  0.0347  0.2227 -0.3182
  674THF     C3 8752   1.814   4.339   5.293 -0.3510 -0.1138  0.1589
  674THF     H4 8753   2.061   4.242   5.251  2.1690  1.2605 -0.7532
  674THF     H5 8754   2.129   4.397   5.245 -0.7777  0.9279 -1.7285
  674THF     H6 8755   1.802   4.237   5.335 -1.3404 -2.7215 -1.3390
  674THF     H7 8756   1.736   4.389   5.351 -1.6536 -0.0727 -0.1632
  674THF     C8 8757   1.821   4.330   5.142  0.7606  0.4582 -0.7450
  674THF     C9 8758   1.965   4.360   5.106 -0.5241 -0.6925 -0.6895
  674THF    H10 8759   1.751   4.399   5.091 -0.9449  0.9358  0.7073
  674THF    H11 8760   1.797   4.229   5.119 -0.8503 -0.6038 -0.4844
  674THF    H12 8761   2.016   4.298   5.031 -1.3044  0.4747 -2.5257
  674THF    H13 8762   1.986   4.465   5.079 -0.3614  1.5410 -2.7738
  675THF     O1 8763   3.593   1.597   2.096 -0.4864  0.6188  0.0704
  675THF     C2 8764   3.686   1.614   1.990 -0.4175  0.8371  0.3336
  675THF     C3 8765   3.493   1.501   2.053 -0.0500 -0.6830  0.1755
  675THF     H4 8766   3.784   1.651   2.025 -0.5300  2.3350 -2.1558
  675THF     H5 8767   3.656   1.682   1.914  3.2171  0.5660 -0.7750
  675THF     H6 8768   3.483   1.427   2.132  0.8876  0.1046  0.9333
  675THF     H7 8769   3.391   1.543   2.042  3.1214  0.1563 -2.6446
  675THF     C8 8770   3.558   1.426   1.938  0.1029  1.0638 -0.3495
  675THF     C9 8771   3.695   1.478   1.930  0.1280  0.0114  0.4108
  675THF    H10 8772   3.501   1.432   1.843  2.3315 -3.4622  0.1599
  675THF    H11 8773   3.549   1.316   1.950  0.4542 -0.5257  0.2341
  675THF    H12 8774   3.743   1.410   2.000 -2.2439  2.6921  0.3947
  675THF    H13 8775   3.734   1.482   1.829 -1.8768  0.8669  2.3490
  676THF     O1 8776   3.106   1.374   5.138  0.3960 -0.1246  0.2634
  676THF     C2 8777   3.203   1.448   5.197 -0.3176  0.2049 -0.0617
  676THF     C3 8778   2.990   1.453   5.142  0.6899  0.9911 -0.4185
  676THF     H4 8779   3.301   1.404   5.187 -2.6608  1.7475  0.9740
  676THF     H5 8780   3.188   1.474   5.299 -3.1766 -1.2557 -0.1222
  676THF     H6 8781   2.919   1.414   5.070  3.5393  2.6267 -1.9634
  676THF     H7 8782   2.945   1.442   5.236 -0.0491  1.7223  2.6346
  676THF     C8 8783   3.026   1.599   5.116 -1.0926  0.2999  0.8530
  676THF     C9 8784   3.186   1.584   5.115  0.1329  0.5421 -0.4285
  676THF    H10 8785   2.983   1.665   5.189 -0.0289 -0.7100  0.2837
  676THF    H11 8786   2.994   1.622   5.017  0.7042  2.6022  2.1984
  676THF    H12 8787   3.239   1.571   5.018 -1.0855 -1.2013  0.3565
  676THF    H13 8788   3.232   1.669   5.169  2.0019  0.0180  0.4239
  677THF     O1 8789   2.585   4.156   2.051 -1.2190 -0.3007  0.4404
  677THF     C2 8790   2.654   4.076   1.945 -0.3553  0.3570 -0.0463
  677THF     C3 8791   2.649   4.278   2.052 -0.4071  0.5692 -0.3161
  677THF     H4 8792   2.608   4.094   1.841  0.6810  1.2641 -3.0121
  677THF     H5 8793   2.641   3.972   1.973 -0.8558  1.5523  1.3163
  677THF     H6 8794   2.620   4.336   1.963  0.1707  0.4006 -0.1881
  677THF     H7 8795   2.623   4.330   2.141  2.9715  1.8432  0.0674
  677THF     C8 8796   2.792   4.239   2.061 -0.3434  0.0053  0.2125
  677THF     C9 8797   2.793   4.129   1.951 -0.5082 -0.2190 -0.6176
  677THF    H10 8798   2.828   4.196   2.151 -0.5190  0.6194 -0.1987
  677THF    H11 8799   2.850   4.334   2.046 -0.1667  1.8509 -2.2993
  677THF    H12 8800   2.811   4.180   1.857 -1.7511 -3.2130  1.0375
  677THF    H13 8801   2.874   4.060   1.982 -2.0266 -0.4664 -0.5864
  678THF     O1 8802   2.136   0.161   1.745  0.1496 -1.1428  0.0596
  678THF     C2 8803   2.196   0.156   1.873  0.2669 -1.1631 -0.0144
  678THF     C3 8804   1.997   0.160   1.767 -0.5538 -0.6556 -0.7632
  678THF     H4 8805   2.199   0.256   1.913 -0.5279 -1.8024  1.4941
  678THF     H5 8806   2.298   0.111   1.867  2.9227 -2.7914 -2.6757
  678THF     H6 8807   1.958   0.265   1.751 -2.1232  2.9981  0.3101
  678THF     H7 8808   1.944   0.100   1.692 -1.5189  4.2208 -2.0792
  678THF     C8 8809   1.971   0.112   1.914  0.0036 -0.1550  0.2760
  678THF     C9 8810   2.111   0.056   1.949 -0.5048 -0.0364 -0.3614
  678THF    H10 8811   1.891   0.044   1.926  1.7800  2.6515 -3.9559
  678THF    H11 8812   1.955   0.193   1.988  3.3124  0.0297 -1.3772
  678THF    H12 8813   2.140   0.055   2.052  1.1245  4.3659  0.2655
  678THF    H13 8814   2.119  -0.053   1.920 -0.3145 -1.1645 -2.2562
  679THF     O1 8815   5.126   1.653   2.023  0.2973 -0.3911 -0.9415
  679THF     C2 8816   5.048   1.534   2.002 -0.0298 -0.2130  0.3830
  679THF     C3 8817   5.043   1.761   2.000  0.2992 -0.5330 -0.2722
  679THF     H4 8818   5.092   1.448   2.051  1.2482 -0.3842 -0.5544
  679THF     H5 8819   5.042   1.518   1.893  0.0003 -2.5804 -2.3952
  679THF     H6 8820   5.085   1.857   2.041 -2.2133  2.2698 -0.7480
  679THF     H7 8821   5.034   1.787   1.890 -1.5996  0.2440 -3.4499
  679THF     C8 8822   4.911   1.725   2.061  0.2878  0.5737 -0.7364
  679THF     C9 8823   4.917   1.578   2.054  0.6914 -0.2039  0.0406
  679THF    H10 8824   4.814   1.757   2.016 -0.4407 -0.9387 -0.6545
  679THF    H11 8825   4.891   1.752   2.164 -1.1576  0.5154 -1.0212
  679THF    H12 8826   4.899   1.547   2.154  0.4282  2.2260 -1.1886
  679THF    H13 8827   4.830   1.538   2.003 -2.8393  0.6283  1.2006
  680THF     O1 8828   2.509   3.655   3.892  0.6994 -0.4528 -0.4694
  680THF     C2 8829   2.626   3.736   3.912  0.2520  0.0395 -0.2894
  680THF     C3 8830   2.448   3.702   3.776 -0.7657  0.4918  0.2262
  680THF     H4 8831   2.700   3.695   3.985  0.5177  2.8509  1.5446
  680THF     H5 8832   2.585   3.830   3.948 -0.3269  0.8810 -2.0863
  680THF     H6 8833   2.384   3.629   3.729 -1.1273 -0.0244  2.6958
  680THF     H7 8834   2.388   3.794   3.800  1.4167 -1.0051  1.6393
  680THF     C8 8835   2.558   3.743   3.687  0.3129 -0.4278 -0.0512
  680THF     C9 8836   2.685   3.751   3.771  0.8141 -0.7902  0.4745
  680THF    H10 8837   2.521   3.834   3.642  0.0792  0.6434 -2.9225
  680THF    H11 8838   2.578   3.680   3.596 -0.4783 -0.0902 -2.3005
  680THF    H12 8839   2.756   3.665   3.740  1.0440  0.6970 -0.9561
  680THF    H13 8840   2.733   3.845   3.755 -0.6633  0.8936  2.2547
  681THF     O1 8841   3.261   3.529   5.077 -0.0186 -1.2031  0.2025
  681THF     C2 8842   3.133   3.548   5.139 -1.6653  0.4516  0.5341
  681THF     C3 8843   3.282   3.642   5.001 -0.1078 -0.4946 -0.1160
  681THF     H4 8844   3.123   3.463   5.211  1.7866 -1.9782  1.3095
  681THF     H5 8845   3.059   3.534   5.061  3.1384  1.5405 -0.5451
  681THF     H6 8846   3.387   3.655   4.971 -0.6589  0.3634 -0.8144
  681THF     H7 8847   3.222   3.628   4.904 -0.4818 -1.9275  0.1258
  681THF     C8 8848   3.229   3.750   5.093 -0.2451  0.2397  0.0576
  681THF     C9 8849   3.138   3.689   5.187 -0.0386 -0.7320 -0.3040
  681THF    H10 8850   3.189   3.823   5.022 -0.0140  0.5454  0.2422
  681THF    H11 8851   3.308   3.786   5.151  1.3473 -0.1345 -3.3619
  681THF    H12 8852   3.173   3.687   5.293  1.4176 -2.6059 -0.5427
  681THF    H13 8853   3.040   3.732   5.192  0.3742 -0.9810  1.1787
  682THF     O1 8854   4.906   1.489   0.394  0.2591  0.7234 -0.3342
  682THF     C2 8855   5.031   1.547   0.418 -0.4874 -0.0269  0.4686
  682THF     C3 8856   4.915   1.374   0.309  0.0259  0.3506 -0.2943
  682THF     H4 8857   5.038   1.615   0.506 -2.1877 -1.4765 -0.8910
  682THF     H5 8858   5.045   1.620   0.343 -0.7334 -1.5755  1.7226
  682THF     H6 8859   4.827   1.306   0.336 -3.4279 -0.3971  0.4637
  682THF     H7 8860   4.905   1.414   0.209  0.7080  0.1111 -1.3812
  682THF     C8 8861   5.059   1.325   0.338  0.0493  0.5636  0.3846
  682THF     C9 8862   5.123   1.429   0.425 -0.2945  0.3386  0.0404
  682THF    H10 8863   5.098   1.327   0.241 -0.4684  1.0884  1.8993
  682THF    H11 8864   5.064   1.223   0.384  0.4809  0.5268  0.9304
  682THF    H12 8865   5.121   1.402   0.532  0.1056 -0.3284 -0.2240
  682THF    H13 8866   5.232   1.448   0.417  2.0225 -1.8772  1.7239
  683THF     O1 8867   0.631   0.407   2.657 -0.0549 -0.8662  0.4285
  683THF     C2 8868   0.663   0.387   2.518 -0.2758  0.0360 -0.2660
  683THF     C3 8869   0.496   0.441   2.659 -0.1984 -0.0554  0.3010
  683THF     H4 8870   0.639   0.283   2.488 -0.4000  0.9274 -2.2095
  683THF     H5 8871   0.771   0.404   2.492 -0.0833  0.8833 -1.2592
  683THF     H6 8872   0.436   0.340   2.654  1.0833 -1.8728  0.8614
  683THF     H7 8873   0.471   0.491   2.749 -0.0374 -1.5570  1.6435
  683THF     C8 8874   0.476   0.530   2.541  0.1425 -0.4996 -0.1879
  683THF     C9 8875   0.577   0.477   2.438 -0.2407  0.5033 -0.4058
  683THF    H10 8876   0.513   0.626   2.580  0.8551  0.0498  0.8983
  683THF    H11 8877   0.372   0.532   2.505  0.6129  2.9489  0.6789
  683THF    H12 8878   0.521   0.422   2.358 -0.7569  1.3104  0.3086
  683THF    H13 8879   0.617   0.562   2.379 -2.0272  0.8109 -1.1786
  684THF     O1 8880   0.475   4.201   5.495  0.4170  0.2809 -1.2694
  684THF     C2 8881   0.373   4.121   5.555 -0.0510  0.2597  0.5918
  684THF     C3 8882   0.587   4.115   5.461 -0.2191  0.4002  0.2451
  684THF     H4 8883   0.299   4.095   5.484 -2.4969  0.7080  1.7312
  684THF     H5 8884   0.322   4.183   5.621 -0.4109 -0.5793 -1.9436
  684THF     H6 8885   0.559   4.056   5.377  1.0610 -0.0618  0.6749
  684THF     H7 8886   0.680   4.168   5.445 -1.1143 -0.8646  3.6680
  684THF     C8 8887   0.585   4.032   5.590 -0.3883 -0.2303 -0.0736
  684THF     C9 8888   0.439   4.009   5.619  0.3119 -0.4319 -0.3265
  684THF    H10 8889   0.632   4.080   5.674 -0.5735 -0.2326 -0.5143
  684THF    H11 8890   0.623   3.931   5.573 -2.5303  0.0433  0.8998
  684THF    H12 8891   0.413   3.921   5.564 -1.6751  1.1399  0.1276
  684THF    H13 8892   0.413   3.980   5.725  1.4292 -1.4474 -0.0705
  685THF     O1 8893   4.313   5.432   3.508  0.0357  0.0758  0.2617
  685THF     C2 8894   4.347   5.333   3.609  0.4964 -0.1035  0.2611
  685THF     C3 8895   4.423   5.442   3.423 -0.6423  0.6342  0.3883
  685THF     H4 8896   4.350   5.239   3.554 -1.4288 -1.4011 -3.6491
  685THF     H5 8897   4.270   5.325   3.685 -0.9744  0.6106 -0.7406
  685THF     H6 8898   4.428   5.352   3.364  1.6586 -0.1335 -0.5047
  685THF     H7 8899   4.410   5.518   3.348  1.2451  1.9598  0.2104
  685THF     C8 8900   4.538   5.458   3.526  0.3710 -0.2550 -0.3955
  685THF     C9 8901   4.490   5.376   3.651 -0.4031 -0.0180 -0.0101
  685THF    H10 8902   4.550   5.567   3.550 -1.0251  2.2398  0.4696
  685THF    H11 8903   4.634   5.430   3.491  0.9255  1.6809 -0.1979
  685THF    H12 8904   4.556   5.288   3.658 -0.7802  2.8915 -0.7768
  685THF    H13 8905   4.507   5.449   3.733 -2.3818  1.7007  1.0458
  686THF     O1 8906   4.308   2.226   2.532 -0.3199  0.0613  0.2691
  686THF     C2 8907   4.247   2.143   2.435  0.7925 -0.4738 -0.4126
  686THF     C3 8908   4.418   2.169   2.597 -0.7388 -0.0574  0.3982
  686THF     H4 8909   4.213   2.189   2.340  0.9252 -2.4863  1.1680
  686THF     H5 8910   4.158   2.089   2.476 -2.1638 -2.7232 -0.9747
  686THF     H6 8911   4.477   2.257   2.634 -1.4186  1.0411  2.3757
  686THF     H7 8912   4.381   2.115   2.686 -2.1201 -0.6798  0.6700
  686THF     C8 8913   4.478   2.082   2.491  0.8923  0.6202 -0.6729
  686THF     C9 8914   4.359   2.046   2.404 -0.3322  0.3364 -0.2933
  686THF    H10 8915   4.522   1.994   2.533  2.5155  0.4842 -0.3248
  686THF    H11 8916   4.550   2.133   2.430 -2.3676 -1.7635 -0.4266
  686THF    H12 8917   4.395   2.046   2.298 -2.6194  2.0333 -0.8212
  686THF    H13 8918   4.333   1.941   2.428  1.6735 -0.7952  0.9168
  687THF     O1 8919   3.766   1.795   3.915  0.3719 -0.0408  0.3108
  687THF     C2 8920   3.848   1.853   4.013  0.0916  0.6912 -0.8291
  687THF     C3 8921   3.857   1.759   3.809 -0.6406 -0.3380 -0.1226
  687THF     H4 8922   3.909   1.781   4.070 -0.6122  1.0464  0.1703
  687THF     H5 8923   3.779   1.900   4.088  1.2505  2.4256 -1.4995
  687THF     H6 8924   3.905   1.664   3.820 -1.2676  2.4932 -0.6694
  687THF     H7 8925   3.794   1.772   3.717 -0.1603 -4.4437 -0.4930
  687THF     C8 8926   3.958   1.876   3.814  0.7070 -0.2907  0.0735
  687THF     C9 8927   3.920   1.959   3.940  0.8980  0.2238 -0.2992
  687THF    H10 8928   3.968   1.944   3.726  2.5187  3.5079  1.4186
  687THF    H11 8929   4.062   1.850   3.815  2.0553  0.5880 -1.7255
  687THF    H12 8930   4.008   1.990   3.993  0.3617  1.8515 -0.7236
  687THF    H13 8931   3.858   2.049   3.910  2.3204  0.5425  0.8492
  688THF     O1 8932   0.695   5.135   2.306  0.1926 -0.4540 -0.1777
  688THF     C2 8933   0.736   5.199   2.184 -0.2712  0.3697 -0.6215
  688THF     C3 8934   0.803   5.123   2.402  0.3319  0.2558  0.2391
  688THF     H4 8935   0.676   5.287   2.168 -1.7983  2.0580  0.3915
  688THF     H5 8936   0.713   5.127   2.105  1.4104  1.2213  0.4805
  688THF     H6 8937   0.779   5.194   2.478  0.6820  0.4542  1.2422
  688THF     H7 8938   0.801   5.031   2.459 -1.8684  0.3397 -1.1271
  688THF     C8 8939   0.934   5.138   2.320  0.2791 -0.2860 -0.6454
  688THF     C9 8940   0.890   5.231   2.208 -0.0106  0.2318 -0.0249
  688THF    H10 8941   0.964   5.045   2.273 -0.5798  0.5983  0.4034
  688THF    H11 8942   1.027   5.175   2.373  0.5865  1.5887  0.3033
  688THF    H12 8943   0.888   5.334   2.245 -1.6635  3.4140  0.9848
  688THF    H13 8944   0.933   5.218   2.114  1.7186  0.1193  1.7131
  689THF     O1 8945   1.844   2.016   1.368  0.2606 -0.2318 -0.0380
  689THF     C2 8946   1.708   1.985   1.361  0.0840  0.3930  0.0798
  689THF     C3 8947   1.880   2.070   1.240  0.2123 -0.0306  0.2470
  689THF     H4 8948   1.656   1.978   1.463 -3.5369 -0.2086 -0.5107
  689THF     H5 8949   1.683   1.882   1.321  1.7156 -1.4666 -2.8260
  689THF     H6 8950   1.977   2.119   1.242  0.8493 -1.9924  0.0941
  689THF     H7 8951   1.882   1.989   1.167 -1.4676 -2.5662  1.0063
  689THF     C8 8952   1.765   2.170   1.220 -0.5027  0.5767 -0.2078
  689THF     C9 8953   1.647   2.095   1.275 -0.1398 -0.4211  0.6084
  689THF    H10 8954   1.753   2.200   1.114  0.3054 -3.4399  1.8615
  689THF    H11 8955   1.781   2.261   1.278  0.1863  0.0201 -0.9045
  689THF    H12 8956   1.570   2.151   1.327  1.0880 -0.2357  1.4939
  689THF    H13 8957   1.590   2.074   1.186 -1.0282  2.8377 -0.9158
  690THF     O1 8958   2.356   2.038   4.284 -0.1802  0.7630 -0.3747
  690THF     C2 8959   2.297   2.046   4.417 -0.5367  0.4124 -0.0125
  690THF     C3 8960   2.340   2.159   4.220  0.5463 -0.0554 -0.3852
  690THF     H4 8961   2.367   2.100   4.488 -2.3089  2.6321  1.5247
  690THF     H5 8962   2.267   1.949   4.456 -1.3280  0.1143 -1.0215
  690THF     H6 8963   2.422   2.219   4.263  0.1263 -0.3228  1.5898
  690THF     H7 8964   2.345   2.155   4.111 -0.8553  0.7185  0.1228
  690THF     C8 8965   2.199   2.202   4.272 -0.1009  0.5006 -0.3372
  690THF     C9 8966   2.182   2.143   4.415 -0.2912 -0.3928 -0.1869
  690THF    H10 8967   2.130   2.155   4.196 -1.1293  0.0038 -1.4499
  690THF    H11 8968   2.186   2.310   4.286  0.6473  0.3150  1.4104
  690THF    H12 8969   2.181   2.211   4.498 -0.6132  1.0489 -2.2206
  690THF    H13 8970   2.090   2.088   4.417  0.8407  1.1270 -1.4812
  691THF     O1 8971   1.208   5.188   3.928  0.8573  0.3150 -0.1792
  691THF     C2 8972   1.174   5.124   4.051 -0.4155  0.0514  0.4544
  691THF     C3 8973   1.116   5.292   3.898  0.5051  0.0798  0.2564
  691THF     H4 8974   1.258   5.108   4.118  2.2360 -3.1292  1.5178
  691THF     H5 8975   1.136   5.030   4.024  1.5066 -0.0821  0.1944
  691THF     H6 8976   1.169   5.372   3.852 -0.2724  0.9302 -0.7589
  691THF     H7 8977   1.034   5.257   3.837  0.0482  1.6819 -0.1170
  691THF     C8 8978   1.066   5.334   4.037 -0.3709 -0.2307  0.7098
  691THF     C9 8979   1.068   5.205   4.123 -0.2471  0.3924  0.4938
  691THF    H10 8980   0.974   5.393   4.029  2.4089  0.6298  0.5876
  691THF    H11 8981   1.147   5.393   4.081 -0.2861 -0.8697  2.2853
  691THF    H12 8982   1.089   5.223   4.227  2.3526  0.3479  0.2712
  691THF    H13 8983   0.968   5.156   4.113 -0.2499  0.1384 -0.6336
  692THF     O1 8984   4.351   1.486   0.392 -0.4863 -0.7813  0.3448
  692THF     C2 8985   4.486   1.477   0.358 -0.0773 -0.3293  0.3737
  692THF     C3 8986   4.346   1.547   0.520 -0.0277  0.3619  1.3609
  692THF     H4 8987   4.506   1.462   0.252  0.9021 -0.2143  0.4963
  692THF     H5 8988   4.522   1.390   0.410 -0.4033  1.3129 -1.9330
  692THF     H6 8989   4.252   1.608   0.517 -1.6658  1.9243 -0.8689
  692THF     H7 8990   4.325   1.477   0.600 -1.5081  2.1978 -1.9008
  692THF     C8 8991   4.477   1.632   0.542  0.3543 -0.8059  0.2019
  692THF     C9 8992   4.557   1.605   0.418  0.3429 -0.7358 -0.5259
  692THF    H10 8993   4.525   1.611   0.634 -1.1131  1.4449 -1.4479
  692THF    H11 8994   4.449   1.742   0.525 -0.5649 -0.9348 -0.4986
  692THF    H12 8995   4.544   1.688   0.348 -2.9907  0.8691 -0.3594
  692THF    H13 8996   4.661   1.582   0.440  1.3058  0.5784  0.0659
  693THF     O1 8997   5.489   0.367   0.059 -0.7271 -0.1189  0.1063
  693THF     C2 8998   5.454   0.504   0.056  0.3227  0.4326  0.3020
  693THF     C3 8999   5.505   0.328   0.193  0.3132  0.4564 -0.3151
  693THF     H4 9000   5.352   0.519   0.093  2.6798 -3.3785  2.0470
  693THF     H5 9001   5.456   0.541  -0.048 -2.2004  1.0425 -0.6713
  693THF     H6 9002   5.409   0.322   0.244  0.2242 -2.1138  0.0226
  693THF     H7 9003   5.555   0.229   0.200 -1.5151 -0.6809  0.4676
  693THF     C8 9004   5.595   0.438   0.247  0.7663  0.7711 -0.3118
  693THF     C9 9005   5.555   0.558   0.159  0.4831 -0.3896 -0.5484
  693THF    H10 9006   5.705   0.414   0.238  0.2121 -3.1349  1.0228
  693THF    H11 9007   5.557   0.439   0.356  0.5306 -1.2824 -0.8486
  693THF    H12 9008   5.498   0.628   0.218 -2.2358  0.2952 -0.3673
  693THF    H13 9009   5.644   0.600   0.117  3.5487  1.8154  0.3138
  694THF     O1 9010   3.213   2.725   4.407  1.0319  0.2111  0.0876
  694THF     C2 9011   3.138   2.809   4.496 -0.3241  0.4206  0.5722
  694THF     C3 9012   3.268   2.619   4.487 -0.0246  0.0977  0.8564
  694THF     H4 9013   3.031   2.785   4.488 -1.7539 -1.4895 -0.0905
  694THF     H5 9014   3.138   2.904   4.456  0.6727 -0.2810 -0.7825
  694THF     H6 9015   3.207   2.533   4.475 -0.0236 -0.9755  1.9686
  694THF     H7 9016   3.371   2.596   4.452 -0.7812 -1.9989  0.5427
  694THF     C8 9017   3.263   2.665   4.634 -0.3736 -0.6374 -0.2860
  694THF     C9 9018   3.207   2.807   4.629  0.1789 -0.0105 -0.1783
  694THF    H10 9019   3.369   2.670   4.670 -0.0534  3.9721  2.1204
  694THF    H11 9020   3.205   2.605   4.701 -2.1095  2.2544  2.6133
  694THF    H12 9021   3.129   2.843   4.697  0.2176  2.4387 -0.8638
  694THF    H13 9022   3.297   2.878   4.635  0.2390  1.5339 -0.2652
  695THF     O1 9023   0.172   3.386   0.353  0.3615 -0.0983  0.7085
  695THF     C2 9024   0.268   3.310   0.416 -0.3177  0.4244 -0.5613
  695THF     C3 9025   0.160   3.338   0.223 -0.0851  0.7622  0.2896
  695THF     H4 9026   0.269   3.324   0.528  1.2904  0.9258  1.6599
  695THF     H5 9027   0.360   3.340   0.370  1.4865  1.1983  0.5424
  695THF     H6 9028   0.063   3.360   0.183 -5.6709  2.9692  1.1668
  695THF     H7 9029   0.228   3.384   0.159 -0.4496  0.7640  4.3354
  695THF     C8 9030   0.188   3.185   0.232  0.0877 -0.1373  0.3643
  695THF     C9 9031   0.234   3.173   0.379 -0.6208 -0.8198  0.6661
  695THF    H10 9032   0.262   3.157   0.162  0.9671 -0.3908 -1.9892
  695THF    H11 9033   0.096   3.125   0.213 -2.1238 -0.6090  0.8995
  695THF    H12 9034   0.147   3.144   0.445  1.8507 -1.6647 -0.7081
  695THF    H13 9035   0.316   3.108   0.400  2.4854 -1.6961  0.9573
  696THF     O1 9036   3.728   3.504   4.143  0.0347 -0.4608  0.0058
  696THF     C2 9037   3.672   3.423   4.243 -0.7802  0.0213  0.0258
  696THF     C3 9038   3.625   3.552   4.058  0.2034  0.1292  0.5788
  696THF     H4 9039   3.610   3.478   4.313 -0.2036  0.8934  1.9852
  696THF     H5 9040   3.753   3.370   4.297  1.7165 -1.6567  0.6185
  696THF     H6 9041   3.574   3.640   4.112  1.3068  3.2299  1.2600
  696THF     H7 9042   3.655   3.587   3.955 -0.5388  1.4164 -4.2809
  696THF     C8 9043   3.534   3.435   4.043 -0.6977 -0.7657 -0.5670
  696THF     C9 9044   3.577   3.341   4.157 -0.2964  0.3654 -0.1190
  696THF    H10 9045   3.569   3.389   3.947 -2.7190  2.6252  1.9586
  696THF    H11 9046   3.425   3.454   4.034  0.6569  1.0182 -0.2966
  696THF    H12 9047   3.494   3.304   4.213 -0.6053  1.2786 -0.7362
  696THF    H13 9048   3.637   3.254   4.124  1.5649 -2.8986  0.5707
  697THF     O1 9049   4.986   5.305   1.103 -0.4047  0.3813 -0.0984
  697THF     C2 9050   5.118   5.335   1.061 -0.4408  0.0683  0.2641
  697THF     C3 9051   4.955   5.173   1.056  0.1341 -0.2193  0.1700
  697THF     H4 9052   5.192   5.296   1.128 -1.2716 -0.7325  0.3441
  697THF     H5 9053   5.125   5.442   1.065  0.4897  0.8723  4.5960
  697THF     H6 9054   4.977   5.116   1.151 -1.8590  0.2201  0.9706
  697THF     H7 9055   4.853   5.152   1.041 -0.4732  2.7471  1.8268
  697THF     C8 9056   5.052   5.156   0.942 -0.3814 -0.3823  0.3211
  697THF     C9 9057   5.110   5.288   0.914  0.8820 -0.2881  0.0489
  697THF    H10 9058   5.017   5.112   0.850  0.5265 -0.5520 -0.2830
  697THF    H11 9059   5.121   5.083   0.985 -1.2897 -0.4075 -2.6087
  697THF    H12 9060   5.205   5.283   0.866 -0.2544  3.6061 -0.2982
  697THF    H13 9061   5.046   5.347   0.851  2.3178 -0.5371  1.0385
  698THF     O1 9062   3.309   3.824   0.719  0.2688  0.2316  0.1758
  698THF     C2 9063   3.407   3.904   0.792  0.6601 -0.3751  0.3470
  698THF     C3 9064   3.260   3.907   0.617  0.2015 -0.3911  0.0821
  698THF     H4 9065   3.482   3.848   0.841 -1.7464 -1.1731 -2.1367
  698THF     H5 9066   3.340   3.962   0.863 -0.5993  1.0290  2.1713
  698THF     H6 9067   3.205   3.848   0.547  2.6009  0.4732  0.8941
  698THF     H7 9068   3.188   3.980   0.656 -2.6616 -1.4010 -2.4447
  698THF     C8 9069   3.386   3.977   0.565 -0.5165 -0.4406  0.7802
  698THF     C9 9070   3.468   3.998   0.691 -0.2373 -0.1235 -0.6640
  698THF    H10 9071   3.368   4.072   0.516 -0.1690 -1.8896 -0.8613
  698THF    H11 9072   3.451   3.912   0.498  1.2676  0.4576 -3.1164
  698THF    H12 9073   3.569   3.965   0.664  1.4346  0.6501 -2.4303
  698THF    H13 9074   3.479   4.105   0.724 -1.2310 -1.2639  2.0082
  699THF     O1 9075   0.003   4.502   3.952  0.1642  0.1771  0.0723
  699THF     C2 9076  -0.112   4.448   3.888 -0.5954  0.2487 -0.0554
  699THF     C3 9077   0.028   4.634   3.911 -0.2646 -0.3364 -0.2094
  699THF     H4 9078  -0.192   4.458   3.960 -0.4192 -0.2474 -1.8861
  699THF     H5 9079  -0.103   4.339   3.874 -0.9503 -0.4450  3.0937
  699THF     H6 9080   0.036   4.705   3.989  1.7889 -1.7705 -1.2796
  699THF     H7 9081   0.131   4.629   3.861  0.9143  1.9497 -1.7343
  699THF     C8 9082  -0.076   4.672   3.801  0.0193 -0.1482  0.2321
  699THF     C9 9083  -0.135   4.537   3.759  0.4612 -0.3923  0.8610
  699THF    H10 9084  -0.039   4.728   3.714  1.3763 -4.5050 -1.2591
  699THF    H11 9085  -0.144   4.744   3.840  2.8142  2.6568 -4.3936
  699THF    H12 9086  -0.238   4.547   3.731  1.0853  1.4243 -0.7331
  699THF    H13 9087  -0.082   4.505   3.671  0.7423 -1.6340 -0.1230
  700THF     O1 9088   1.800   1.765   2.508  0.0772  0.3764  0.8037
  700THF     C2 9089   1.713   1.655   2.546  0.6365  0.4247 -0.2207
  700THF     C3 9090   1.787   1.780   2.367  0.4089  0.1754 -0.3318
  700THF     H4 9091   1.607   1.678   2.535  1.6026  2.4932  1.6578
  700THF     H5 9092   1.742   1.616   2.643 -1.6217 -0.0222 -4.4639
  700THF     H6 9093   1.689   1.825   2.352  1.2117  0.7525 -0.4656
  700THF     H7 9094   1.869   1.839   2.320  0.7172  0.8257  1.0764
  700THF     C8 9095   1.798   1.636   2.323 -0.2939  0.1763 -0.4164
  700THF     C9 9096   1.746   1.553   2.437 -0.1568  0.1632 -0.0906
  700THF    H10 9097   1.901   1.602   2.291  0.1987  2.0293  0.3227
  700THF    H11 9098   1.731   1.623   2.239 -0.2081 -0.0567 -1.2935
  700THF    H12 9099   1.668   1.485   2.414  1.1104  2.3325  0.6728
  700THF    H13 9100   1.831   1.485   2.463  0.3251  1.0627  0.4031
  701THF     O1 9101   0.600   4.706   5.008  0.1306 -0.0824 -0.0556
  701THF     C2 9102   0.508   4.684   4.906  0.0551  0.1728 -0.5206
  701THF     C3 9103   0.733   4.724   4.954  0.6338 -0.6976 -0.0489
  701THF     H4 9104   0.447   4.772   4.922  2.5610  1.1850  1.7784
  701THF     H5 9105   0.445   4.601   4.922  0.5143 -1.0907 -0.2742
  701THF     H6 9106   0.777   4.811   4.991  0.0072 -0.1164  1.5323
  701THF     H7 9107   0.789   4.635   4.972 -0.7985 -0.5251 -2.0124
  701THF     C8 9108   0.705   4.756   4.806  0.3237  0.2502  0.6769
  701THF     C9 9109   0.584   4.676   4.770 -0.5524 -0.0239 -0.2500
  701THF    H10 9110   0.789   4.728   4.740  2.0880 -0.6983  0.2639
  701THF    H11 9111   0.683   4.863   4.791 -0.3772 -1.2944  2.2252
  701THF    H12 9112   0.528   4.722   4.692 -2.0800  0.4254 -0.4874
  701THF    H13 9113   0.599   4.578   4.731  0.4264  0.1588  0.3214
  702THF     O1 9114   1.947   0.825   5.490 -0.3528 -0.0047  0.2914
  702THF     C2 9115   1.862   0.745   5.574  0.3914 -0.2814 -0.3944
  702THF     C3 9116   1.941   0.760   5.358 -0.1883 -0.5940  0.2847
  702THF     H4 9117   1.763   0.797   5.572  0.4046  1.3585 -0.5587
  702THF     H5 9118   1.903   0.756   5.673  0.0599  1.9446 -0.4188
  702THF     H6 9119   1.853   0.797   5.316 -0.8245  0.8691 -2.8553
  702THF     H7 9120   2.022   0.788   5.285  0.8789  1.5050  1.0174
  702THF     C8 9121   1.956   0.614   5.400  0.3161 -1.1208 -0.0013
  702THF     C9 9122   1.879   0.600   5.528 -0.1800  0.0536  0.2242
  702THF    H10 9123   2.063   0.605   5.431 -0.3759 -0.5482 -0.9461
  702THF    H11 9124   1.934   0.554   5.319  1.4505  1.8599  2.1682
  702THF    H12 9125   1.779   0.567   5.512 -1.7759 -1.1331 -0.9750
  702THF    H13 9126   1.932   0.542   5.599  2.1423  0.3204  0.8706
  703THF     O1 9127   1.343   0.123   0.449 -0.7174  0.7916  0.6169
  703THF     C2 9128   1.395   0.068   0.569 -1.0894 -0.3995 -0.1655
  703THF     C3 9129   1.452   0.167   0.372 -0.2033 -0.0879 -0.0250
  703THF     H4 9130   1.313   0.010   0.612  0.6270 -2.3156  1.5482
  703THF     H5 9131   1.444   0.132   0.644 -0.2370  0.6485  1.4402
  703THF     H6 9132   1.430   0.184   0.270 -0.8154  0.5218  3.3584
  703THF     H7 9133   1.469   0.263   0.416 -3.2317 -0.8005 -2.2660
  703THF     C8 9134   1.562   0.061   0.396 -0.2738 -0.4318 -0.1641
  703THF     C9 9135   1.509  -0.017   0.521 -0.1264 -0.0058 -0.5125
  703THF    H10 9136   1.665   0.109   0.414  1.8591 -0.5523  0.5306
  703THF    H11 9137   1.561  -0.004   0.311  0.2271 -0.3012 -0.2594
  703THF    H12 9138   1.491  -0.115   0.485  1.9063 -0.5293 -2.2789
  703THF    H13 9139   1.590  -0.036   0.585 -2.2162 -1.4189  0.0783
  704THF     O1 9140   4.210   2.989   1.504  0.2439 -0.1635 -0.3516
  704THF     C2 9141   4.199   2.991   1.651  0.7065 -0.8085  0.2115
  704THF     C3 9142   4.183   2.852   1.473  0.2412  0.3246  0.5991
  704THF     H4 9143   4.093   2.995   1.672 -0.5317 -0.0804 -1.8047
  704THF     H5 9144   4.239   3.086   1.690  1.1605  0.3572 -0.2393
  704THF     H6 9145   4.075   2.832   1.477 -1.5073  1.1508  0.1740
  704THF     H7 9146   4.223   2.815   1.380  1.4371  0.1454  0.1296
  704THF     C8 9147   4.241   2.766   1.581 -0.0850 -0.1032  0.2388
  704THF     C9 9148   4.263   2.861   1.699 -0.0215 -0.4416 -0.2973
  704THF    H10 9149   4.340   2.729   1.552 -0.9441 -0.1082 -3.7631
  704THF    H11 9150   4.169   2.690   1.594  0.1366 -0.0566 -1.1303
  704THF    H12 9151   4.217   2.840   1.793  2.2377 -0.7968  0.9416
  704THF    H13 9152   4.364   2.870   1.711  0.0666  0.2912 -0.5653
  705THF     O1 9153   3.407   3.332   5.251  0.0660  0.3284  0.3164
  705THF     C2 9154   3.472   3.226   5.326  0.4336  0.0386 -0.3076
  705THF     C3 9155   3.461   3.453   5.290 -0.4532 -0.3548  0.2486
  705THF     H4 9156   3.567   3.204   5.281  1.0556 -0.3902 -0.8017
  705THF     H5 9157   3.422   3.130   5.328  0.8333  0.2356  0.4290
  705THF     H6 9158   3.568   3.461   5.247  0.1211 -1.3905 -1.6556
  705THF     H7 9159   3.394   3.531   5.259  1.0481 -1.6635  0.2509
  705THF     C8 9160   3.482   3.428   5.441 -0.6407  0.4360  0.1882
  705THF     C9 9161   3.513   3.283   5.460 -0.1688  0.6529  0.1761
  705THF    H10 9162   3.397   3.463   5.498  0.1380  0.6047 -0.5454
  705THF    H11 9163   3.566   3.488   5.484 -1.0928 -0.1418  0.1625
  705THF    H12 9164   3.616   3.253   5.488  0.9091  0.2870 -0.0391
  705THF    H13 9165   3.447   3.234   5.534  1.8756  0.2432  2.4086
  706THF     O1 9166   3.452   1.393   4.861 -0.1922  0.0383  0.3673
  706THF     C2 9167   3.354   1.299   4.857  0.5167 -0.0108  0.3134
  706THF     C3 9168   3.562   1.345   4.937  0.3738 -0.1064 -0.2188
  706THF     H4 9169   3.276   1.337   4.788  2.0008  1.1120 -0.1879
  706THF     H5 9170   3.336   1.278   4.961 -1.1080  0.2958 -0.7497
  706THF     H6 9171   3.656   1.391   4.916  0.7494  0.4525 -2.8618
  706THF     H7 9172   3.543   1.330   5.041  2.5304  1.5994 -0.4075
  706THF     C8 9173   3.572   1.203   4.873 -0.7795  0.3559 -0.1215
  706THF     C9 9174   3.434   1.178   4.809 -0.1593 -0.2779  0.3100
  706THF    H10 9175   3.604   1.122   4.934 -0.9793  3.1440 -0.8312
  706THF    H11 9176   3.640   1.215   4.793  0.7302 -1.2937 -1.1781
  706THF    H12 9177   3.453   1.192   4.702 -0.2886  0.8815 -1.2786
  706THF    H13 9178   3.388   1.078   4.842  1.2028 -0.3967  4.2458
  707THF     O1 9179   0.953   2.383   4.284 -0.5236 -0.3255 -0.5722
  707THF     C2 9180   0.954   2.341   4.150 -0.1199 -0.0297 -0.0364
  707THF     C3 9181   0.833   2.457   4.289  0.1205  0.4237 -1.0455
  707THF     H4 9182   0.873   2.264   4.128  0.0042 -1.6565 -0.2831
  707THF     H5 9183   1.044   2.297   4.111  0.6890  0.3680 -2.3344
  707THF     H6 9184   0.753   2.384   4.286 -1.8858 -2.4082  0.0658
  707THF     H7 9185   0.820   2.512   4.388 -0.6104  0.0218 -0.2313
  707THF     C8 9186   0.828   2.549   4.171  0.2064 -0.1470  0.3862
  707THF     C9 9187   0.915   2.467   4.071 -0.7777  1.0064 -0.2744
  707THF    H10 9188   0.871   2.643   4.182  2.8143 -1.2380  0.1539
  707THF    H11 9189   0.721   2.549   4.136 -1.2478 -0.5141  0.1947
  707THF    H12 9190   0.865   2.427   3.984  1.1893  0.7966  2.2761
  707THF    H13 9191   1.000   2.520   4.050 -1.1656  0.4572  2.0245
  708THF     O1 9192   0.714   0.676   3.809  0.5060 -0.2302  0.8695
  708THF     C2 9193   0.689   0.794   3.734  0.1502 -0.2319 -0.0035
  708THF     C3 9194   0.840   0.617   3.765 -0.4220 -0.6808 -0.4848
  708THF     H4 9195   0.641   0.862   3.802  2.4778 -0.5730  0.9544
  708THF     H5 9196   0.617   0.757   3.659  0.2389 -0.8119  0.4296
  708THF     H6 9197   0.911   0.614   3.849  1.6321  0.4189  1.0084
  708THF     H7 9198   0.822   0.518   3.725 -0.9314  2.1181 -1.0050
  708THF     C8 9199   0.896   0.706   3.655 -0.5325 -0.2672  0.7931
  708THF     C9 9200   0.820   0.839   3.678 -0.4565 -0.1194 -0.3601
  708THF    H10 9201   0.877   0.648   3.559 -0.3015  1.4214 -3.5197
  708THF    H11 9202   1.002   0.716   3.661 -1.0361 -0.8784  2.4638
  708THF    H12 9203   0.878   0.900   3.752  0.4128 -1.0022 -1.9534
  708THF    H13 9204   0.806   0.893   3.592 -0.2677  0.2254 -0.9692
  709THF     O1 9205   4.188   5.047   0.288  0.5165 -0.1305  0.0592
  709THF     C2 9206   4.266   5.058   0.406  0.1781  0.0834  0.7477
  709THF     C3 9207   4.248   5.136   0.192  0.2256 -0.3563  0.6577
  709THF     H4 9208   4.371   5.022   0.372 -0.0767  1.5810  0.5659
  709THF     H5 9209   4.233   4.996   0.481  0.0733 -0.5564 -0.9089
  709THF     H6 9210   4.346   5.109   0.151  0.8561  1.7288  0.7056
  709THF     H7 9211   4.186   5.139   0.104 -0.5632  3.0887 -1.5118
  709THF     C8 9212   4.252   5.269   0.277  0.1398 -0.4434 -0.5566
  709THF     C9 9213   4.271   5.212   0.419 -1.2465 -0.2456 -0.0967
  709THF    H10 9214   4.153   5.319   0.269  1.5051  2.4171 -2.9821
  709THF    H11 9215   4.333   5.343   0.245 -2.2790 -0.8709 -0.0678
  709THF    H12 9216   4.363   5.237   0.470 -1.1282 -1.3520 -0.9477
  709THF    H13 9217   4.197   5.257   0.480  0.2465 -0.0334 -0.7988
  710THF     O1 9218   2.362   5.313   5.470 -0.3192  0.6407  0.1555
  710THF     C2 9219   2.409   5.238   5.356 -0.2793 -0.7565 -0.4816
  710THF     C3 9220   2.475   5.382   5.527 -0.4206 -0.3716 -0.2454
  710THF     H4 9221   2.331   5.209   5.284 -0.0563 -1.1173  1.1058
  710THF     H5 9222   2.469   5.151   5.382  0.2919  1.6642 -0.9350
  710THF     H6 9223   2.444   5.476   5.580 -1.0846  0.7817 -0.5544
  710THF     H7 9224   2.521   5.313   5.598 -0.4402 -1.8921  0.9728
  710THF     C8 9225   2.548   5.434   5.407 -0.6288  0.6944  0.7426
  710THF     C9 9226   2.498   5.345   5.297 -0.5755  0.3636  0.0597
  710THF    H10 9227   2.653   5.418   5.411 -0.5421 -0.0741  1.8037
  710THF    H11 9228   2.529   5.533   5.381 -0.5824 -1.1336  1.6316
  710THF    H12 9229   2.429   5.401   5.237 -0.8099 -2.1894  1.1275
  710THF    H13 9230   2.586   5.306   5.235  2.4158 -1.4112  1.1995
  711THF     O1 9231   4.124   0.068   4.584 -0.0011  0.0799  0.3711
  711THF     C2 9232   4.213   0.002   4.493  0.1066 -0.0742  0.7124
  711THF     C3 9233   4.171   0.043   4.718  0.6299  0.1180 -0.3674
  711THF     H4 9234   4.233   0.063   4.405  1.9166  3.6489  1.2396
  711THF     H5 9235   4.173  -0.090   4.455  0.2577 -0.4098  1.8284
  711THF     H6 9236   4.196   0.138   4.764  0.6274 -1.3514 -0.4656
  711THF     H7 9237   4.082   0.004   4.762  0.5898  0.8896 -1.0860
  711THF     C8 9238   4.292  -0.044   4.705  0.0012  0.5001 -0.1000
  711THF     C9 9239   4.345  -0.027   4.563  0.8097  0.0577  0.2664
  711THF    H10 9240   4.278  -0.149   4.725  0.4155  0.5575  0.4321
  711THF    H11 9241   4.368   0.004   4.769  0.6105  1.3683 -1.0926
  711THF    H12 9242   4.403   0.062   4.562 -2.1657  1.4804  2.4013
  711THF    H13 9243   4.398  -0.115   4.537 -2.7942 -0.9324 -1.0952
  712THF     O1 9244   0.753   4.537   2.817  0.1137 -0.5457  0.2107
  712THF     C2 9245   0.648   4.497   2.907  0.3167  0.0641 -0.1939
  712THF     C3 9246   0.703   4.531   2.687  0.6938 -0.5562 -0.7060
  712THF     H4 9247   0.661   4.511   3.011 -2.4502 -0.6991 -1.5044
  712THF     H5 9248   0.618   4.395   2.894 -2.2052 -1.0480  1.4667
  712THF     H6 9249   0.741   4.594   2.607 -0.5593 -0.2861  2.1082
  712THF     H7 9250   0.711   4.430   2.651 -0.6688 -2.3636  0.7787
  712THF     C8 9251   0.556   4.567   2.709 -1.2251  0.0750 -0.4861
  712THF     C9 9252   0.531   4.573   2.854  0.3199  0.2128  0.1292
  712THF    H10 9253   0.486   4.500   2.659  2.0888 -0.9275 -0.9617
  712THF    H11 9254   0.534   4.660   2.654  1.4358  0.0371  0.2643
  712THF    H12 9255   0.538   4.672   2.884 -2.3097 -4.4990 -0.4410
  712THF    H13 9256   0.437   4.533   2.887 -1.9308 -1.8147 -1.5591
  713THF     O1 9257   3.694   1.967   1.043 -0.6319  0.5155  0.6661
  713THF     C2 9258   3.688   1.891   0.928  0.2949 -0.3600 -0.8556
  713THF     C3 9259   3.819   1.942   1.117  0.1261 -0.4131  0.1870
  713THF     H4 9260   3.719   1.952   0.840  1.5989 -0.0281  0.6186
  713THF     H5 9261   3.599   1.839   0.925 -0.4071  0.8652  1.6324
  713THF     H6 9262   3.867   2.032   1.153  0.1276  2.6180  2.8270
  713THF     H7 9263   3.791   1.902   1.208  0.3401 -0.2900  0.3278
  713THF     C8 9264   3.904   1.847   1.030 -0.2592 -0.3242  0.1563
  713THF     C9 9265   3.790   1.784   0.955  0.1283 -0.3629 -0.1021
  713THF    H10 9266   3.967   1.779   1.087  1.3697 -0.8114  0.3161
  713THF    H11 9267   3.959   1.905   0.958 -1.0586 -0.9402  0.6633
  713THF    H12 9268   3.811   1.718   0.870 -0.2869 -0.1949 -1.5367
  713THF    H13 9269   3.744   1.713   1.030  2.4210  0.2307  0.0299
  714THF     O1 9270   5.461   4.234   0.736 -0.2363 -0.4327 -0.1220
  714THF     C2 9271   5.559   4.189   0.644  0.4492  0.1867  0.7042
  714THF     C3 9272   5.350   4.142   0.740  0.9240  0.0072 -0.0304
  714THF     H4 9273   5.618   4.107   0.690  1.4795 -2.3298  0.2891
  714THF     H5 9274   5.629   4.265   0.614 -0.6200 -0.9084 -1.2536
  714THF     H6 9275   5.377   4.061   0.812  1.4690 -1.3748  0.2731
  714THF     H7 9276   5.255   4.187   0.776 -0.0198 -3.2808  2.4951
  714THF     C8 9277   5.352   4.082   0.601  0.4031  0.1200  0.6535
  714THF     C9 9278   5.479   4.133   0.530  0.3014  0.1370  0.5445
  714THF    H10 9279   5.260   4.121   0.555 -0.6397 -1.4731  0.2702
  714THF    H11 9280   5.348   3.971   0.607 -0.3942 -3.6733  1.9659
  714THF    H12 9281   5.539   4.054   0.488 -1.0558  0.7350 -1.0886
  714THF    H13 9282   5.452   4.207   0.459 -0.8397 -0.0767  0.3332
  715THF     O1 9283   0.270   4.949   4.755 -0.2667  0.4357  0.0348
  715THF     C2 9284   0.144   4.988   4.706  0.0562 -0.2168  0.3275
  715THF     C3 9285   0.373   5.031   4.690  0.2401 -0.3014  0.2667
  715THF     H4 9286   0.121   5.079   4.756 -0.5157 -0.1436 -0.2098
  715THF     H5 9287   0.071   4.913   4.722 -0.3319 -1.3412  1.6519
  715THF     H6 9288   0.368   5.133   4.715 -0.0325  0.6162  0.0081
  715THF     H7 9289   0.477   5.011   4.702 -1.6710  4.5938 -1.7914
  715THF     C8 9290   0.325   5.008   4.549 -0.5328  0.2581 -0.6181
  715THF     C9 9291   0.168   5.013   4.558 -0.3500  0.4804 -0.2684
  715THF    H10 9292   0.361   4.911   4.512 -0.3418 -2.0020  2.7014
  715THF    H11 9293   0.383   5.081   4.484  1.6436 -0.6551 -2.1049
  715THF    H12 9294   0.132   5.113   4.521  1.8511  1.7418  1.3402
  715THF    H13 9295   0.130   4.943   4.487 -1.4032  1.1190  2.6247
  716THF     O1 9296   2.759   5.105   0.749 -0.5154 -0.2606 -0.9517
  716THF     C2 9297   2.753   4.966   0.788  0.2159  0.3088 -0.1632
  716THF     C3 9298   2.875   5.110   0.668  0.5272 -0.0537 -0.4387
  716THF     H4 9299   2.721   4.908   0.704 -1.4620 -0.3740 -0.1409
  716THF     H5 9300   2.675   4.939   0.865 -0.6255 -2.8322 -0.2056
  716THF     H6 9301   2.859   5.051   0.568  1.5911  1.4111 -1.3270
  716THF     H7 9302   2.912   5.206   0.658 -1.5937 -1.6272  0.7533
  716THF     C8 9303   2.973   5.021   0.751  0.7104 -0.0596  0.7087
  716THF     C9 9304   2.889   4.932   0.838 -0.4803 -0.3965 -0.1975
  716THF    H10 9305   3.040   5.079   0.814  0.0141 -0.4142  2.2642
  716THF    H11 9306   3.042   4.960   0.689 -3.5042 -0.4889  1.7009
  716THF    H12 9307   2.921   4.827   0.817  0.7745  0.3680  1.6812
  716THF    H13 9308   2.912   4.939   0.942 -0.8453  1.2184 -0.4093
  717THF     O1 9309   2.473   0.598   1.286 -0.0991 -0.4480  0.2133
  717THF     C2 9310   2.416   0.728   1.302 -0.3942  0.3911 -0.1247
  717THF     C3 9311   2.612   0.614   1.243  0.8242  0.9101  0.2947
  717THF     H4 9312   2.430   0.763   1.403 -0.2971  1.0472 -3.0247
  717THF     H5 9313   2.312   0.727   1.267  0.6489 -1.7293  1.3216
  717THF     H6 9314   2.671   0.574   1.324 -2.5082  0.1171 -2.0006
  717THF     H7 9315   2.622   0.552   1.154 -0.7708 -1.4323 -1.0283
  717THF     C8 9316   2.636   0.761   1.226 -0.0206 -0.3648  0.0276
  717THF     C9 9317   2.501   0.814   1.200 -0.3711 -0.4080  0.1488
  717THF    H10 9318   2.700   0.786   1.147  1.0942  2.4748 -2.0218
  717THF    H11 9319   2.677   0.811   1.314  1.4229  1.3244  0.0017
  717THF    H12 9320   2.491   0.923   1.216  0.1289 -0.0312 -1.3839
  717THF    H13 9321   2.469   0.786   1.094 -0.5292  1.5339 -0.4627
  718THF     O1 9322   4.998   0.766   2.627  0.5659  0.1049 -0.4867
  718THF     C2 9323   5.035   0.646   2.704  0.6163  0.7592  0.3541
  718THF     C3 9324   4.991   0.870   2.723  0.3223 -0.6450  0.1950
  718THF     H4 9325   5.112   0.578   2.655  0.2632 -1.2769  3.2928
  718THF     H5 9326   4.940   0.589   2.708 -0.9162  0.1159 -0.7004
  718THF     H6 9327   5.075   0.936   2.714 -0.5148 -1.4837  1.0897
  718THF     H7 9328   4.901   0.938   2.698  1.0251 -0.2614  1.7495
  718THF     C8 9329   4.980   0.817   2.866  0.0880 -0.8116  0.3496
  718THF     C9 9330   5.081   0.705   2.838 -0.3479 -0.0981  0.0915
  718THF    H10 9331   4.883   0.783   2.885  1.6423  0.0804  1.5712
  718THF    H11 9332   5.020   0.887   2.949 -0.4003 -2.5617  0.9771
  718THF    H12 9333   5.175   0.754   2.835  1.2341  0.9578  2.0229
  718THF    H13 9334   5.089   0.625   2.911 -3.7464 -1.1945  0.3399
  719THF     O1 9335   3.098   0.915   5.114  0.6077  0.2338  0.1632
  719THF     C2 9336   3.128   0.809   5.018 -1.0654  0.3513 -0.6797
  719THF     C3 9337   3.094   1.041   5.040  0.1204  0.6598  0.7727
  719THF     H4 9338   3.099   0.713   5.067 -0.0938 -2.3457  0.2098
  719THF     H5 9339   3.233   0.805   4.987 -0.2179 -0.8740 -1.1167
  719THF     H6 9340   3.032   1.114   5.092  3.0153  2.1466  2.2581
  719THF     H7 9341   3.195   1.087   5.030  0.7583 -0.5981  0.8106
  719THF     C8 9342   3.056   0.999   4.900  0.5034  0.0472  0.5972
  719THF     C9 9343   3.045   0.846   4.897 -0.0750 -0.0698  0.5127
  719THF    H10 9344   3.147   1.020   4.842 -1.3730  1.0563 -1.6894
  719THF    H11 9345   2.975   1.067   4.858  0.9067  0.5006  0.0766
  719THF    H12 9346   2.943   0.828   4.919  0.8617  1.2155  1.1614
  719THF    H13 9347   3.071   0.794   4.801 -1.5175 -0.1800 -1.4017
  720THF     O1 9348   3.927   4.608   1.223  0.4310  0.0922 -0.6719
  720THF     C2 9349   3.962   4.649   1.351 -0.1325  0.1656  0.4283
  720THF     C3 9350   4.016   4.668   1.129 -0.1635 -0.4869  0.0333
  720THF     H4 9351   3.900   4.587   1.422 -3.1739 -2.4338 -2.5531
  720THF     H5 9352   3.939   4.756   1.365 -3.6054 -0.9747  0.0486
  720THF     H6 9353   4.019   4.605   1.034 -3.1718 -0.2891  0.7660
  720THF     H7 9354   3.980   4.771   1.100  0.1329 -0.7038 -1.9602
  720THF     C8 9355   4.155   4.670   1.204  1.2526  0.1024 -0.3338
  720THF     C9 9356   4.117   4.626   1.344 -0.4615 -0.6526 -0.5267
  720THF    H10 9357   4.203   4.769   1.202  3.3139 -0.2378  0.5544
  720THF    H11 9358   4.222   4.613   1.136  1.5048 -3.6903 -1.7305
  720THF    H12 9359   4.143   4.521   1.346 -0.6360 -0.9030 -2.9370
  720THF    H13 9360   4.182   4.667   1.422  1.6978 -0.3684  0.1332
  721THF     O1 9361   1.271   0.594   2.561  0.3098 -0.0379  0.1329
  721THF     C2 9362   1.295   0.622   2.425 -0.1638  0.9617  0.4661
  721THF     C3 9363   1.134   0.541   2.563 -0.0950  0.6569 -0.3201
  721THF     H4 9364   1.397   0.637   2.405 -0.0254 -0.0090  2.8335
  721THF     H5 9365   1.256   0.720   2.403 -2.3213  0.3395 -0.9328
  721THF     H6 9366   1.117   0.500   2.663  1.2195 -0.2026 -0.8711
  721THF     H7 9367   1.053   0.613   2.550 -0.3808 -1.2960  1.9425
  721THF     C8 9368   1.122   0.445   2.445  0.2410  0.8163  0.5840
  721THF     C9 9369   1.231   0.502   2.351  0.3044  0.1369  0.0545
  721THF    H10 9370   1.029   0.453   2.400 -0.9067  2.9647  3.0366
  721THF    H11 9371   1.130   0.341   2.472 -1.7784  3.6209 -1.3054
  721THF    H12 9372   1.308   0.433   2.331  1.6178  0.1640  0.2105
  721THF    H13 9373   1.189   0.521   2.257 -0.8035 -0.9595  2.3258
  722THF     O1 9374   2.333   2.217   1.576  0.0399  0.3085 -0.2511
  722THF     C2 9375   2.352   2.153   1.706 -0.3638  0.2807  0.3682
  722THF     C3 9376   2.190   2.231   1.559  0.6340  0.1397  0.3880
  722THF     H4 9377   2.348   2.232   1.785  0.3482 -0.1302  1.1394
  722THF     H5 9378   2.449   2.106   1.710  0.4407  0.8380  1.5589
  722THF     H6 9379   2.163   2.317   1.626 -0.3398  0.4763  0.5061
  722THF     H7 9380   2.158   2.241   1.463  0.1455  1.4784  0.3995
  722THF     C8 9381   2.131   2.107   1.620 -0.6744 -0.4025  0.0262
  722THF     C9 9382   2.233   2.062   1.726 -0.0714  0.1878 -0.0359
  722THF    H10 9383   2.122   2.028   1.546 -0.1664 -1.8095  0.4476
  722THF    H11 9384   2.043   2.138   1.674 -3.0858 -0.1231 -0.4552
  722THF    H12 9385   2.186   2.067   1.824 -0.5171 -0.5548  0.6878
  722THF    H13 9386   2.262   1.956   1.707  0.9010 -0.8063 -0.6748
  723THF     O1 9387   1.003   0.120   4.153 -0.1545 -0.8551  0.0003
  723THF     C2 9388   1.087   0.216   4.233 -0.3039 -0.7257  0.7994
  723THF     C3 9389   0.901   0.199   4.091 -0.0358  0.3196  0.1800
  723THF     H4 9390   1.186   0.179   4.258  1.6192 -0.8159 -0.4706
  723THF     H5 9391   1.027   0.232   4.323 -1.0995  0.7468  0.0414
  723THF     H6 9392   0.865   0.141   4.003  0.6564  0.0695  2.3300
  723THF     H7 9393   0.830   0.233   4.162 -0.0715  0.5604  1.1195
  723THF     C8 9394   0.985   0.320   4.043 -0.0378 -0.4115 -0.5785
  723THF     C9 9395   1.093   0.342   4.147  0.1522  1.1613 -0.1627
  723THF    H10 9396   0.920   0.415   4.040 -0.4077  1.9920 -0.1787
  723THF    H11 9397   1.030   0.305   3.945  1.0882 -0.0114  4.2952
  723THF    H12 9398   1.193   0.360   4.107  2.7130 -1.1079 -2.9399
  723THF    H13 9399   1.068   0.434   4.206 -3.1197  1.7751  1.4561
  724THF     O1 9400   3.914   4.154   4.393 -0.2993  0.4241 -0.2185
  724THF     C2 9401   3.973   4.041   4.339 -0.6445 -0.1026 -0.0692
  724THF     C3 9402   3.858   4.212   4.283  0.7342 -0.2829 -0.2491
  724THF     H4 9403   3.901   3.966   4.319  0.8651  0.2651  0.5539
  724THF     H5 9404   4.043   3.995   4.407  1.1309 -1.5780  0.8255
  724THF     H6 9405   3.768   4.152   4.242 -3.8062  0.6098  1.2087
  724THF     H7 9406   3.817   4.315   4.297 -0.7705  0.2422 -0.3778
  724THF     C8 9407   3.966   4.218   4.177 -0.5383 -0.4629  0.2365
  724THF     C9 9408   4.047   4.092   4.212 -0.4788 -0.0321 -0.2596
  724THF    H10 9409   4.031   4.300   4.190  0.4416 -0.9824 -1.2002
  724THF    H11 9410   3.928   4.214   4.079 -1.1868 -0.4065 -0.0231
  724THF    H12 9411   4.018   4.009   4.148 -0.9611 -1.6839 -2.2310
  724THF    H13 9412   4.153   4.111   4.219 -0.1311  1.3094 -2.6796
  725THF     O1 9413   2.561   4.339   4.424  0.7398 -0.2428 -0.0480
  725THF     C2 9414   2.442   4.265   4.451  0.2678 -0.0249  0.3882
  725THF     C3 9415   2.583   4.433   4.534 -0.0175 -0.1869 -0.9111
  725THF     H4 9416   2.441   4.176   4.398  0.1012  2.3722 -0.4171
  725THF     H5 9417   2.354   4.322   4.413  0.3163 -0.8314 -2.0458
  725THF     H6 9418   2.699   4.437   4.544 -0.0571  1.9939  3.0008
  725THF     H7 9419   2.525   4.528   4.508  0.0199 -1.8464  2.6627
  725THF     C8 9420   2.524   4.349   4.652  0.3538 -0.1434 -0.8199
  725THF     C9 9421   2.439   4.240   4.598 -0.4004 -0.2218  0.5334
  725THF    H10 9422   2.490   4.408   4.734 -0.5379  1.0821 -1.1811
  725THF    H11 9423   2.607   4.294   4.697  2.5203 -0.8068 -0.8875
  725THF    H12 9424   2.471   4.139   4.620 -0.6270 -1.1628 -0.2171
  725THF    H13 9425   2.335   4.239   4.626  2.6413 -0.0760 -1.2800
  726THF     O1 9426   2.228   3.581   4.430  0.4306  0.1480  0.5119
  726THF     C2 9427   2.285   3.475   4.510 -0.0826  0.1538 -0.2304
  726THF     C3 9428   2.108   3.534   4.363 -0.2036  0.1104 -0.3022
  726THF     H4 9429   2.307   3.515   4.612  0.0441  0.0394 -0.1392
  726THF     H5 9430   2.387   3.457   4.475 -1.8613 -3.4891  1.3886
  726THF     H6 9431   2.022   3.599   4.364 -0.4619  0.7007  0.5011
  726THF     H7 9432   2.133   3.507   4.259  0.9158  0.8690 -1.5946
  726THF     C8 9433   2.075   3.396   4.438  0.0160 -0.6418  0.0285
  726THF     C9 9434   2.205   3.350   4.504 -0.1942  0.6869 -0.1189
  726THF    H10 9435   2.034   3.328   4.367 -0.4942  0.0600  0.9803
  726THF    H11 9436   1.998   3.424   4.513 -1.9462 -1.6360  1.5515
  726THF    H12 9437   2.195   3.292   4.600 -1.9825  1.0371  1.0109
  726THF    H13 9438   2.252   3.278   4.432 -0.3525 -0.7429 -3.4670
  727THF     O1 9439   5.029   0.551   3.920  0.1366 -0.1455  0.0577
  727THF     C2 9440   4.908   0.596   3.976  0.5785 -0.2013 -0.9833
  727THF     C3 9441   5.095   0.467   4.010  0.0975 -0.7706 -0.1337
  727THF     H4 9442   4.839   0.509   3.968 -0.9512  0.3953 -0.3945
  727THF     H5 9443   4.869   0.683   3.923  2.8695 -2.5464 -0.6626
  727THF     H6 9444   5.067   0.367   3.980  0.2399 -1.5582 -0.3709
  727THF     H7 9445   5.203   0.466   3.997  2.2234 -0.9442 -0.3407
  727THF     C8 9446   5.055   0.519   4.147  0.9465  0.5680 -0.3831
  727THF     C9 9447   4.929   0.608   4.126 -0.3883 -0.6654  0.5664
  727THF    H10 9448   5.141   0.580   4.176  0.5572  0.2616 -3.9561
  727THF    H11 9449   5.040   0.441   4.224  1.8348  1.8348  0.5567
  727THF    H12 9450   4.845   0.571   4.181 -0.6225 -1.0159 -2.6081
  727THF    H13 9451   4.948   0.711   4.167 -0.6169  0.6685 -0.3602
  728THF     O1 9452   2.547   2.877   5.415 -0.4363  0.6885  0.2621
  728THF     C2 9453   2.524   3.008   5.473  0.3261  0.3082 -0.9718
  728THF     C3 9454   2.436   2.798   5.448 -0.4705  0.1100  0.2938
  728THF     H4 9455   2.593   3.083   5.452 -3.8511  0.4235 -1.0081
  728THF     H5 9456   2.524   3.000   5.583 -1.5748  2.2060  0.0623
  728THF     H6 9457   2.444   2.708   5.389  1.0909  1.1084  0.3978
  728THF     H7 9458   2.434   2.774   5.552  1.0944 -2.2231  0.3291
  728THF     C8 9459   2.320   2.894   5.426  0.3706 -0.3312 -0.4027
  728THF     C9 9460   2.387   3.033   5.418 -0.2663 -0.5408 -0.0034
  728THF    H10 9461   2.258   2.891   5.510  2.7329 -3.3596 -0.0377
  728THF    H11 9462   2.258   2.872   5.337  1.1069  1.0045  2.2182
  728THF    H12 9463   2.391   3.063   5.311 -0.6176  0.0573 -2.2142
  728THF    H13 9464   2.333   3.110   5.467 -2.8939 -1.0482  0.0421
  729THF     O1 9465   0.922   4.615   0.637 -0.4400  0.1863  0.7919
  729THF     C2 9466   1.037   4.539   0.610  0.0975 -0.9327 -0.0301
  729THF     C3 9467   0.813   4.531   0.583 -0.1963 -0.0743 -0.1277
  729THF     H4 9468   1.123   4.545   0.668 -1.6450 -0.4891 -1.0618
  729THF     H5 9469   1.052   4.560   0.504 -0.1315 -2.9085  2.6005
  729THF     H6 9470   0.726   4.585   0.617  2.5254 -2.0423 -1.0304
  729THF     H7 9471   0.812   4.531   0.475 -0.0407 -0.7930 -2.3349
  729THF     C8 9472   0.842   4.395   0.638  0.0293 -0.1536  0.1042
  729THF     C9 9473   0.998   4.399   0.625 -0.6048  0.0436  0.0891
  729THF    H10 9474   0.803   4.313   0.578  3.0620 -0.8607  1.1305
  729THF    H11 9475   0.805   4.404   0.742 -1.7755 -1.7852  2.1152
  729THF    H12 9476   1.043   4.355   0.711  1.3636 -0.5512 -2.2246
  729THF    H13 9477   1.028   4.337   0.542  1.4200 -1.0611  0.0600
  730THF     O1 9478   1.387   4.257   4.805  0.5892 -0.8606  0.1276
  730THF     C2 9479   1.341   4.253   4.940 -0.2569  0.3294  0.4243
  730THF     C3 9480   1.454   4.131   4.797 -0.6845  0.5433 -0.2544
  730THF     H4 9481   1.255   4.184   4.958  0.8210 -0.2827 -0.3737
  730THF     H5 9482   1.304   4.355   4.961 -0.9741  0.2883 -1.4562
  730THF     H6 9483   1.389   4.043   4.783  1.3586 -0.3811 -0.0508
  730THF     H7 9484   1.527   4.121   4.713  0.1121 -0.5035  2.0444
  730THF     C8 9485   1.525   4.118   4.938 -0.3635 -0.1205  0.8888
  730THF     C9 9486   1.458   4.218   5.021 -0.3591  0.0540 -0.4277
  730THF    H10 9487   1.630   4.136   4.936 -0.3280  1.1761 -0.5467
  730THF    H11 9488   1.515   4.013   4.974  0.0460  0.1714  2.9174
  730THF    H12 9489   1.422   4.198   5.119  0.0911 -1.1975 -1.1763
  730THF    H13 9490   1.507   4.318   5.018 -2.1055 -1.1762 -2.1576
  731THF     O1 9491   0.650   3.938   3.574 -0.6443 -0.8940  0.3972
  731THF     C2 9492   0.744   4.033   3.543 -0.5839 -0.3703  0.0815
  731THF     C3 9493   0.642   3.909   3.710 -0.7430 -0.5646 -0.5582
  731THF     H4 9494   0.731   4.085   3.443  1.9551 -1.6337 -3.3054
  731THF     H5 9495   0.829   3.972   3.549  1.4476 -1.6655 -2.8380
  731THF     H6 9496   0.561   3.860   3.748  1.8647  0.5886 -1.1438
  731THF     H7 9497   0.710   3.832   3.731 -2.4115 -2.3651  0.9201
  731THF     C8 9498   0.686   4.033   3.781  0.1021 -0.0713 -0.1168
  731THF     C9 9499   0.723   4.129   3.669 -0.1836  0.1900  0.1135
  731THF    H10 9500   0.774   4.005   3.855  0.7903  0.2871  0.4661
  731THF    H11 9501   0.595   4.057   3.831  1.0043  1.9188  1.1865
  731THF    H12 9502   0.640   4.199   3.650  0.6433 -0.9224 -0.6757
  731THF    H13 9503   0.811   4.182   3.701 -2.4120 -1.6965  0.5164
  732THF     O1 9504   1.073   2.197   3.801 -0.2513  0.6554  0.3118
  732THF     C2 9505   1.126   2.078   3.856 -0.0110  0.0398  0.2842
  732THF     C3 9506   1.127   2.218   3.672 -0.1811 -0.1802 -0.0572
  732THF     H4 9507   1.070   1.989   3.827 -0.4927 -0.2401  1.3031
  732THF     H5 9508   1.133   2.080   3.964 -0.7698 -0.3988  1.8577
  732THF     H6 9509   1.046   2.208   3.599  0.6619 -2.4067 -0.6694
  732THF     H7 9510   1.152   2.324   3.668  1.0481  2.5873 -0.0186
  732THF     C8 9511   1.249   2.135   3.659  0.4335 -0.3047  0.0551
  732THF     C9 9512   1.265   2.070   3.797 -0.2684  0.7335 -0.0778
  732THF    H10 9513   1.343   2.185   3.628 -0.9120 -2.3608  0.3772
  732THF    H11 9514   1.240   2.068   3.569  0.5881 -1.0967 -3.9392
  732THF    H12 9515   1.305   1.967   3.803  1.4367 -1.3048  2.9355
  732THF    H13 9516   1.322   2.140   3.852 -1.8138  1.4421  0.8368
  733THF     O1 9517   3.929   5.227   0.422 -0.8065 -0.2483  0.0943
  733THF     C2 9518   3.829   5.216   0.516 -0.6146  0.4836  0.5501
  733THF     C3 9519   3.916   5.151   0.309 -0.0505 -0.7253 -0.4823
  733THF     H4 9520   3.831   5.304   0.574  2.5911  0.4608  1.7350
  733THF     H5 9521   3.847   5.133   0.580 -0.1097  1.5155  0.5183
  733THF     H6 9522   3.985   5.184   0.228 -1.9076 -2.0538 -0.1737
  733THF     H7 9523   3.928   5.044   0.325  2.6111  1.1126 -0.5622
  733THF     C8 9524   3.775   5.189   0.283  0.4081  0.2169 -0.6647
  733THF     C9 9525   3.710   5.194   0.429 -0.0613  0.4927  0.3513
  733THF    H10 9526   3.725   5.124   0.214 -3.7732 -0.2202 -0.1908
  733THF    H11 9527   3.778   5.285   0.242 -3.3286 -0.2153  2.1276
  733THF    H12 9528   3.624   5.262   0.458 -0.7474  0.9067 -1.4354
  733THF    H13 9529   3.665   5.095   0.454 -4.1113  0.6619  0.8017
  734THF     O1 9530   4.996   1.772   3.881  0.0024  0.5488  0.0942
  734THF     C2 9531   5.107   1.856   3.838 -0.4200 -0.2938 -0.4208
  734THF     C3 9532   5.036   1.635   3.856  0.2426  0.6796  0.4176
  734THF     H4 9533   5.172   1.882   3.916 -3.2684 -3.1935  0.6307
  734THF     H5 9534   5.068   1.945   3.795 -0.5970  0.2259  2.6675
  734THF     H6 9535   5.100   1.613   3.936 -0.4313 -0.2059 -1.4809
  734THF     H7 9536   4.942   1.582   3.853  2.0598  0.4998  2.1230
  734THF     C8 9537   5.106   1.651   3.721  0.6594  0.5021  0.2771
  734THF     C9 9538   5.194   1.777   3.738  0.0620 -0.7612  0.1403
  734THF    H10 9539   5.038   1.672   3.637 -0.1242 -0.3867 -1.5605
  734THF    H11 9540   5.163   1.560   3.687  2.0517  0.5509 -0.1758
  734THF    H12 9541   5.282   1.740   3.778 -1.2596 -0.3612 -0.9671
  734THF    H13 9542   5.213   1.835   3.648  2.9044 -0.2135  2.4024
  735THF     O1 9543   2.608   5.190   4.413 -0.0562 -0.1567  0.4781
  735THF     C2 9544   2.591   5.221   4.273 -0.1532 -0.3466 -0.3203
  735THF     C3 9545   2.724   5.257   4.459 -0.2267 -0.4771 -0.0042
  735THF     H4 9546   2.548   5.325   4.286 -0.4570 -0.2277  1.8693
  735THF     H5 9547   2.519   5.160   4.220 -1.1669 -2.1723  0.5574
  735THF     H6 9548   2.714   5.361   4.448 -1.0569  1.1249 -2.3544
  735THF     H7 9549   2.750   5.234   4.560 -2.3126  2.8213  1.3234
  735THF     C8 9550   2.821   5.208   4.350  0.7785 -0.7618  0.7380
  735THF     C9 9551   2.740   5.228   4.223 -0.4106  0.5604 -0.1497
  735THF    H10 9552   2.845   5.108   4.378 -1.0629  0.5047 -0.4309
  735THF    H11 9553   2.913   5.267   4.346 -0.5133  2.1804  1.3385
  735THF    H12 9554   2.757   5.331   4.189 -0.4567 -0.8890  1.0561
  735THF    H13 9555   2.769   5.148   4.147  0.8579 -1.4132  2.1463
  736THF     O1 9556   2.561   4.992   2.642 -0.3625 -1.0212 -0.1857
  736THF     C2 9557   2.678   4.932   2.686  0.7585 -0.1302 -0.8709
  736THF     C3 9558   2.500   4.904   2.550  0.3138  0.2367  0.1010
  736THF     H4 9559   2.660   4.841   2.742  1.5961  0.8230 -0.4476
  736THF     H5 9560   2.737   4.997   2.748  0.1958  0.4673 -0.5362
  736THF     H6 9561   2.424   4.846   2.588  2.0133  2.4705  1.3214
  736THF     H7 9562   2.442   4.949   2.470 -0.0850 -1.4144 -0.1028
  736THF     C8 9563   2.616   4.832   2.487  0.5254  0.1024 -0.2820
  736THF     C9 9564   2.741   4.900   2.549 -0.1519 -0.2968 -0.0463
  736THF    H10 9565   2.614   4.834   2.378 -0.7928 -3.9966  2.2902
  736THF    H11 9566   2.632   4.731   2.527  0.8104 -0.6418 -1.9090
  736THF    H12 9567   2.822   4.827   2.554 -1.2324  3.1031  1.8704
  736THF    H13 9568   2.760   4.987   2.485 -1.9781 -1.2242 -3.4649
  737THF     O1 9569   2.265   1.590   1.497 -0.4298  0.4088  0.0217
  737THF     C2 9570   2.230   1.510   1.608 -0.0426 -0.5653  0.1053
  737THF     C3 9571   2.402   1.625   1.501 -0.3324 -0.3657 -0.2813
  737THF     H4 9572   2.260   1.401   1.595 -1.8456  0.8288 -0.4274
  737THF     H5 9573   2.124   1.504   1.622  2.6948 -1.4988  1.2348
  737THF     H6 9574   2.464   1.558   1.438  2.0347  0.9781 -1.6241
  737THF     H7 9575   2.406   1.726   1.472 -0.6269  1.4845  0.0366
  737THF     C8 9576   2.434   1.617   1.652  0.0045  0.1514 -0.0959
  737THF     C9 9577   2.305   1.574   1.721  0.2744 -0.3880  0.0300
  737THF    H10 9578   2.489   1.704   1.684 -0.2963  0.5926  1.7511
  737THF    H11 9579   2.499   1.523   1.658 -0.5432 -2.2222  1.3062
  737THF    H12 9580   2.315   1.508   1.806 -2.3755 -0.5499  0.6912
  737THF    H13 9581   2.243   1.664   1.751  1.6263  0.4417  0.8409
  738THF     O1 9582   2.748   0.933   4.549 -0.4475  0.1302 -0.6898
  738THF     C2 9583   2.884   0.896   4.582  0.5073  0.1913 -0.5024
  738THF     C3 9584   2.717   0.896   4.417  0.2340  0.2386 -0.7701
  738THF     H4 9585   2.901   0.886   4.692 -1.5781 -2.5468  1.1169
  738THF     H5 9586   2.956   0.973   4.563 -0.1697  0.1284 -0.6945
  738THF     H6 9587   2.603   0.888   4.415  0.1223 -0.2467  1.6084
  738THF     H7 9588   2.743   0.966   4.334  0.0423  1.1670 -1.9826
  738THF     C8 9589   2.796   0.768   4.404  0.2328  0.4601 -0.1568
  738THF     C9 9590   2.914   0.773   4.495  0.0464  0.3778  0.2489
  738THF    H10 9591   2.819   0.760   4.297  0.6297  2.6542 -0.9416
  738THF    H11 9592   2.731   0.681   4.430  0.0374 -0.7841 -1.0120
  738THF    H12 9593   2.937   0.688   4.564  1.8096  1.7256  2.7745
  738THF    H13 9594   3.009   0.795   4.442  2.3570  0.9594 -0.7452
  739THF     O1 9595   0.992   0.958   0.213 -0.8045  0.2954  0.2119
  739THF     C2 9596   0.916   0.970   0.095 -0.2671 -0.5592 -0.1943
  739THF     C3 9597   1.050   0.830   0.206  0.6843  0.9471  0.9001
  739THF     H4 9598   0.975   0.979   0.007  0.4480  1.1985 -0.0917
  739THF     H5 9599   0.848   1.064   0.105  0.7845  0.9852  1.8876
  739THF     H6 9600   1.129   0.817   0.134  1.7496 -1.1031  1.5962
  739THF     H7 9601   1.090   0.810   0.303 -1.6617  0.5531 -0.9754
  739THF     C8 9602   0.936   0.745   0.151  0.0039 -0.4309  0.0068
  739THF     C9 9603   0.837   0.841   0.100  0.4988  0.0390 -0.4474
  739THF    H10 9604   0.889   0.703   0.235  1.1579  0.4332 -1.3372
  739THF    H11 9605   0.964   0.674   0.071  3.1844  0.6576  3.1104
  739THF    H12 9606   0.794   0.812   0.000  0.4380  0.0443 -0.3555
  739THF    H13 9607   0.767   0.841   0.177  0.9349 -0.0694 -0.3567
  740THF     O1 9608   5.013   2.986   2.956  0.1855 -0.3387  0.0211
  740THF     C2 9609   5.043   2.859   2.894 -0.3013 -1.1579  0.6296
  740THF     C3 9610   4.893   3.025   2.891  0.1045  0.3624  0.3583
  740THF     H4 9611   5.086   2.796   2.974  1.6525 -1.0545 -1.1956
  740THF     H5 9612   5.121   2.870   2.816  0.9033 -3.7292  1.0799
  740THF     H6 9613   4.843   3.091   2.968 -1.8410  0.5498  1.2522
  740THF     H7 9614   4.909   3.081   2.798 -1.9409 -1.6072  2.0243
  740THF     C8 9615   4.818   2.899   2.850  0.1315 -0.9264  1.3226
  740THF     C9 9616   4.921   2.793   2.837 -0.8040  0.8277 -0.5194
  740THF    H10 9617   4.760   2.905   2.762 -0.8866  1.5338  0.7632
  740THF    H11 9618   4.745   2.881   2.926  1.4031  1.4708  0.9643
  740THF    H12 9619   4.897   2.703   2.891  1.4526 -0.4471 -1.2102
  740THF    H13 9620   4.951   2.755   2.738 -2.1825  1.3459 -0.0708
  741THF     O1 9621   2.050   1.754   3.607 -0.1245 -0.3831 -0.1605
  741THF     C2 9622   2.061   1.848   3.711  0.2547 -0.1184  0.0450
  741THF     C3 9623   1.998   1.821   3.491 -0.0552  0.6112  0.6863
  741THF     H4 9624   2.140   1.842   3.788 -1.6409  1.9201  0.5058
  741THF     H5 9625   1.971   1.853   3.774 -0.4048 -1.6936 -1.0291
  741THF     H6 9626   2.068   1.813   3.410 -1.8106  1.6072  0.2285
  741THF     H7 9627   1.901   1.771   3.457 -1.3284  0.2179  0.6459
  741THF     C8 9628   1.972   1.968   3.526  0.2091 -0.0875  0.2640
  741THF     C9 9629   2.070   1.989   3.639 -0.3602 -0.1723 -0.3511
  741THF    H10 9630   1.869   1.994   3.544  2.5553  1.2563  0.6764
  741THF    H11 9631   1.985   2.037   3.445 -1.3970 -1.1436 -0.2286
  741THF    H12 9632   2.172   2.012   3.599 -1.1697 -0.1831 -0.1416
  741THF    H13 9633   2.037   2.065   3.706 -4.4619 -0.6482 -1.3399
  742THF     O1 9634   3.230   1.456   2.836 -0.5229 -0.2937 -0.5559
  742THF     C2 9635   3.321   1.495   2.932  0.4266  0.2862 -0.2557
  742THF     C3 9636   3.241   1.322   2.822  0.3459  1.0612 -0.0424
  742THF     H4 9637   3.276   1.464   3.031  2.5593  0.2508  2.2615
  742THF     H5 9638   3.352   1.603   2.946 -0.5949 -0.1737 -1.3699
  742THF     H6 9639   3.186   1.273   2.903 -2.0483 -1.5221 -1.1291
  742THF     H7 9640   3.185   1.284   2.735  3.7550 -2.1845  0.5127
  742THF     C8 9641   3.396   1.301   2.822 -0.0179  0.3008 -0.2230
  742THF     C9 9642   3.447   1.413   2.904  0.4793 -0.0621  0.9720
  742THF    H10 9643   3.436   1.300   2.721 -0.6650  1.9343  2.2768
  742THF    H11 9644   3.429   1.205   2.860  0.6234  1.4886 -1.4787
  742THF    H12 9645   3.491   1.376   2.995  0.8854 -3.1032  0.8253
  742THF    H13 9646   3.520   1.472   2.845  1.7050 -1.3789 -1.6203
  743THF     O1 9647   2.106   5.045   0.139  0.7165  0.2766 -0.3089
  743THF     C2 9648   2.167   4.994   0.024 -0.1149 -0.0836 -0.3239
  743THF     C3 9649   2.122   4.951   0.245  0.1821  0.0503  0.0312
  743THF     H4 9650   2.220   5.080  -0.020  0.2086 -0.0618  1.0730
  743THF     H5 9651   2.096   4.943  -0.042 -2.9062  1.2179 -1.0926
  743THF     H6 9652   2.115   4.990   0.349 -1.5258 -0.0136  1.0803
  743THF     H7 9653   2.048   4.863   0.231 -0.2062 -0.3526 -0.2003
  743THF     C8 9654   2.262   4.893   0.222  0.3621  0.1371 -0.7102
  743THF     C9 9655   2.267   4.890   0.072  0.8924 -0.0611  0.0296
  743THF    H10 9656   2.275   4.786   0.247 -0.0498  0.5966 -2.5607
  743THF    H11 9657   2.342   4.960   0.253  1.5518 -2.5610 -0.2227
  743THF    H12 9658   2.368   4.909   0.043  1.9607 -1.2162  0.6207
  743THF    H13 9659   2.237   4.790   0.032  1.2898  0.4490 -0.5877
  744THF     O1 9660   4.093   1.524   2.267 -0.5479  0.3243  0.1168
  744THF     C2 9661   3.987   1.459   2.326 -0.2609 -0.1631 -0.2489
  744THF     C3 9662   4.143   1.433   2.171 -0.6649  0.6072  0.6696
  744THF     H4 9663   3.893   1.479   2.275  0.9192  0.1324 -0.9555
  744THF     H5 9664   3.961   1.505   2.421 -1.4780  1.8833 -0.1714
  744THF     H6 9665   4.084   1.455   2.088 -0.9957 -0.6054  0.9517
  744THF     H7 9666   4.244   1.446   2.150  2.2557  0.2786 -2.3789
  744THF     C8 9667   4.111   1.287   2.205 -0.3712 -0.6984  0.0906
  744THF     C9 9668   4.036   1.314   2.339  0.2584  0.1034 -0.2523
  744THF    H10 9669   4.196   1.223   2.204  1.1655 -1.7304  0.2954
  744THF    H11 9670   4.033   1.243   2.137 -1.6020 -0.7944 -1.4023
  744THF    H12 9671   3.961   1.234   2.352  0.6918  0.7722 -0.3000
  744THF    H13 9672   4.111   1.304   2.418  0.3233  0.0549 -0.6960
  745THF     O1 9673   5.094   3.848   2.840 -0.7486  0.7305  0.2809
  745THF     C2 9674   5.090   3.773   2.720 -0.6574  0.4901  0.5407
  745THF     C3 9675   5.147   3.768   2.942  0.5281 -0.3681 -0.6147
  745THF     H4 9676   5.090   3.828   2.634 -0.8397 -1.9595  2.1064
  745THF     H5 9677   5.003   3.706   2.707  0.1389  1.1810  1.1537
  745THF     H6 9678   5.168   3.828   3.032  1.5360  0.3579 -0.0101
  745THF     H7 9679   5.065   3.706   2.987 -1.4940 -1.0111  0.0087
  745THF     C8 9680   5.255   3.683   2.882 -0.6877  0.1099  0.2091
  745THF     C9 9681   5.224   3.695   2.731  0.1570 -0.4858  0.1193
  745THF    H10 9682   5.264   3.581   2.914  1.7234 -0.1308 -1.5485
  745THF    H11 9683   5.354   3.724   2.908  0.7773 -1.2438 -0.4187
  745THF    H12 9684   5.299   3.749   2.679 -0.6784 -1.2276 -0.7314
  745THF    H13 9685   5.216   3.594   2.694 -0.2216  0.1939 -1.6284
  746THF     O1 9686   1.447   4.887   3.088  0.1887  0.0599 -0.4928
  746THF     C2 9687   1.438   4.936   2.954 -0.3067  0.1393 -0.2137
  746THF     C3 9688   1.445   5.010   3.162  0.5515  0.3771  0.4286
  746THF     H4 9689   1.433   4.859   2.874  0.8455 -1.1862 -0.9482
  746THF     H5 9690   1.528   4.985   2.927  1.4420 -1.8483  1.0488
  746THF     H6 9691   1.431   4.981   3.264  0.5912 -0.8147 -1.6438
  746THF     H7 9692   1.541   5.063   3.158 -0.0334  1.1364 -0.0682
  746THF     C8 9693   1.326   5.080   3.106 -0.2267  0.2064  0.3245
  746THF     C9 9694   1.322   5.035   2.963 -0.4255  0.4651  0.4523
  746THF    H10 9695   1.344   5.185   3.104 -0.9678 -1.4019  2.0617
  746THF    H11 9696   1.227   5.068   3.148 -3.3599 -0.5345 -0.5842
  746THF    H12 9697   1.228   4.980   2.938  0.1424 -0.5008 -1.1604
  746THF    H13 9698   1.345   5.114   2.884 -1.4121  0.6062 -0.9441
  747THF     O1 9699   3.659   3.605   0.385 -0.6020 -0.1368 -0.3318
  747THF     C2 9700   3.778   3.571   0.463  0.3208 -0.5287 -0.3508
  747THF     C3 9701   3.672   3.553   0.252 -0.2655  0.1429 -0.4775
  747THF     H4 9702   3.747   3.546   0.563 -1.5497  0.4976 -1.1297
  747THF     H5 9703   3.860   3.651   0.473  1.3340  3.9183 -1.6766
  747THF     H6 9704   3.569   3.512   0.231 -0.0033  0.6311  0.5192
  747THF     H7 9705   3.713   3.625   0.182 -2.5852  0.1367  3.3392
  747THF     C8 9706   3.768   3.428   0.264  0.6109 -0.8510  0.1665
  747THF     C9 9707   3.846   3.452   0.394  1.0596  0.6562 -0.4100
  747THF    H10 9708   3.847   3.428   0.188 -1.9527  2.2312  0.9392
  747THF    H11 9709   3.718   3.331   0.255  1.5176 -2.6128  1.4304
  747THF    H12 9710   3.825   3.380   0.472  1.1836 -3.2583  0.8898
  747THF    H13 9711   3.958   3.458   0.390 -1.6441  0.4165  2.5593
  748THF     O1 9712   4.444   2.628   4.569 -0.1398 -0.3691 -0.2729
  748THF     C2 9713   4.327   2.683   4.622  0.8753 -0.2154 -0.1219
  748THF     C3 9714   4.536   2.736   4.546 -0.3169 -0.1584  0.4378
  748THF     H4 9715   4.335   2.689   4.725  0.3438  0.3119 -1.4301
  748THF     H5 9716   4.242   2.620   4.603  0.3816  0.1292  1.8806
  748THF     H6 9717   4.602   2.744   4.635 -0.4475  0.4691  1.5311
  748THF     H7 9718   4.595   2.710   4.455 -1.2796 -0.1233  1.0303
  748THF     C8 9719   4.452   2.861   4.519 -0.5423  0.2762  0.9207
  748THF     C9 9720   4.318   2.831   4.576  0.1104 -0.5651  0.3304
  748THF    H10 9721   4.443   2.879   4.411 -0.6544  0.5996 -0.7761
  748THF    H11 9722   4.485   2.951   4.572 -0.6977  3.7442 -2.1617
  748THF    H12 9723   4.281   2.890   4.663 -0.2281  0.6286 -1.9944
  748THF    H13 9724   4.244   2.851   4.493 -0.9937  1.7566 -1.0412
  749THF     O1 9725   3.548   2.429   5.246  0.0071  0.4401  0.1650
  749THF     C2 9726   3.548   2.503   5.126  0.2700 -0.3687 -0.4655
  749THF     C3 9727   3.641   2.320   5.234 -0.1337 -0.0529 -0.3068
  749THF     H4 9728   3.531   2.608   5.143 -0.5653 -0.1552  0.4895
  749THF     H5 9729   3.470   2.464   5.059 -0.9345 -1.2866  1.0190
  749THF     H6 9730   3.707   2.313   5.316 -1.4534 -0.4090 -2.4209
  749THF     H7 9731   3.586   2.223   5.230  0.5030 -1.9515 -4.9484
  749THF     C8 9732   3.714   2.338   5.095  0.6510  0.0423  0.7110
  749THF     C9 9733   3.687   2.482   5.075 -0.0573 -0.2118 -0.0622
  749THF    H10 9734   3.665   2.284   5.017 -3.0102  0.6247 -1.6742
  749THF    H11 9735   3.822   2.304   5.095 -0.6428 -0.9522  2.1035
  749THF    H12 9736   3.741   2.544   5.141 -0.1508 -0.9581 -1.1606
  749THF    H13 9737   3.711   2.525   4.974 -0.8687  1.1291 -0.3456
  750THF     O1 9738   5.250   3.004   0.909  0.2609  0.3222 -0.2755
  750THF     C2 9739   5.181   2.896   0.968 -0.1650  0.0006 -0.1835
  750THF     C3 9740   5.238   3.122   0.987  0.0159 -0.5092  0.0508
  750THF     H4 9741   5.238   2.807   0.972  1.1314  1.2146 -1.2123
  750THF     H5 9742   5.095   2.883   0.909  0.4127 -0.0518 -0.4982
  750THF     H6 9743   5.338   3.140   1.036  0.4412  1.2107  3.7172
  750THF     H7 9744   5.222   3.210   0.928 -0.2543 -1.4993  0.7806
  750THF     C8 9745   5.124   3.097   1.087 -0.3514 -0.1727  0.7432
  750THF     C9 9746   5.148   2.948   1.110 -0.1907  0.5262 -0.6477
  750THF    H10 9747   5.025   3.106   1.049  2.5404  0.5789 -0.8777
  750THF    H11 9748   5.129   3.154   1.177  1.9301 -1.2722  0.6978
  750THF    H12 9749   5.230   2.941   1.188  0.0647 -1.8585 -1.0547
  750THF    H13 9750   5.057   2.896   1.145 -2.7153  1.6939  0.2682
  751THF     O1 9751   1.343   3.791   0.293 -0.1559 -0.1843 -0.3181
  751THF     C2 9752   1.388   3.761   0.423 -0.3592 -0.3391 -0.1535
  751THF     C3 9753   1.341   3.672   0.219  0.0051 -0.0020 -0.0267
  751THF     H4 9754   1.306   3.716   0.489  0.8046 -1.1132 -0.6638
  751THF     H5 9755   1.433   3.862   0.455 -0.3685  2.5341 -1.3689
  751THF     H6 9756   1.249   3.614   0.239 -0.9368 -3.0607  1.4705
  751THF     H7 9757   1.340   3.694   0.117 -0.4361 -0.3927 -0.0539
  751THF     C8 9758   1.464   3.588   0.272  0.7301  0.1698 -0.5446
  751THF     C9 9759   1.503   3.662   0.398  0.1237 -0.1766 -0.3691
  751THF    H10 9760   1.550   3.584   0.203 -0.6738  3.4376 -1.3560
  751THF    H11 9761   1.429   3.484   0.300  0.2137 -2.3948  1.4515
  751THF    H12 9762   1.512   3.598   0.487 -1.2808  2.2217 -0.9051
  751THF    H13 9763   1.608   3.702   0.395  0.8276 -0.2191 -3.7649
  752THF     O1 9764   4.430   1.155   3.516  0.5261  0.3819  0.3415
  752THF     C2 9765   4.327   1.218   3.432 -0.4241  0.6966  0.6020
  752THF     C3 9766   4.499   1.273   3.568  0.0096 -0.1521 -0.2702
  752THF     H4 9767   4.247   1.253   3.495 -0.4135  0.9023  0.5075
  752THF     H5 9768   4.276   1.146   3.363 -1.1321  1.6973 -1.4034
  752THF     H6 9769   4.459   1.305   3.666  1.2908 -0.1203 -2.1288
  752THF     H7 9770   4.596   1.237   3.585 -2.3727  0.7374 -1.2042
  752THF     C8 9771   4.506   1.387   3.466 -0.6798  0.0325  0.1587
  752THF     C9 9772   4.406   1.336   3.355  0.0599  0.0583 -0.7327
  752THF    H10 9773   4.609   1.386   3.425  1.0258 -1.0294  1.4155
  752THF    H11 9774   4.477   1.481   3.513 -1.4890 -2.3678  2.0021
  752THF    H12 9775   4.338   1.402   3.311  2.6700 -1.1764 -0.9115
  752THF    H13 9776   4.455   1.278   3.276 -0.9740  0.2564 -2.0766
  753THF     O1 9777   4.863   4.403   0.223  0.2628 -0.2497  0.0226
  753THF     C2 9778   4.839   4.386   0.358 -0.4466 -0.4717 -0.2000
  753THF     C3 9779   4.968   4.310   0.175  0.0846 -0.2926  0.5976
  753THF     H4 9780   4.775   4.299   0.384  1.3966 -1.5230  3.1578
  753THF     H5 9781   4.786   4.466   0.400 -0.6224 -1.5248 -1.1760
  753THF     H6 9782   4.924   4.215   0.156  1.6430  0.0723 -0.0934
  753THF     H7 9783   4.998   4.357   0.084  0.2518  1.3952 -0.2375
  753THF     C8 9784   5.065   4.322   0.296  0.1375  0.0793  0.6004
  753THF     C9 9785   4.973   4.348   0.416 -0.6039 -0.0228  0.5215
  753THF    H10 9786   5.138   4.406   0.272  1.0535 -0.0785  0.6064
  753THF    H11 9787   5.123   4.226   0.306  0.5647  2.9620  0.5704
  753THF    H12 9788   4.974   4.259   0.480  1.0380  0.8007  3.8454
  753THF    H13 9789   5.015   4.426   0.475  2.4823  2.7520 -0.4420
  754THF     O1 9790   2.807   1.457   4.491  0.2422 -0.2275  0.4089
  754THF     C2 9791   2.727   1.538   4.581 -0.6776 -0.4461 -0.0636
  754THF     C3 9792   2.777   1.320   4.521 -0.7012 -0.5915  0.3490
  754THF     H4 9793   2.640   1.586   4.524 -0.5041  1.0511 -0.3676
  754THF     H5 9794   2.783   1.624   4.611 -0.6913 -1.0792 -3.2333
  754THF     H6 9795   2.732   1.283   4.435 -0.6535  0.0664 -0.7583
  754THF     H7 9796   2.865   1.257   4.532  2.1601 -0.8189  1.8680
  754THF     C8 9797   2.664   1.315   4.632 -0.7184 -0.2715 -0.1681
  754THF     C9 9798   2.672   1.453   4.697  0.4500  0.5541  0.0864
  754THF    H10 9799   2.683   1.229   4.699 -0.1318  1.7856 -2.2365
  754THF    H11 9800   2.568   1.309   4.590 -0.2702  2.1999 -0.3542
  754THF    H12 9801   2.582   1.490   4.746  0.5180  1.5988  0.7565
  754THF    H13 9802   2.749   1.437   4.780 -1.6238 -0.2190  1.9794
  755THF     O1 9803   1.907   0.169   4.370 -0.7541  0.1745 -0.2905
  755THF     C2 9804   1.982   0.172   4.246  0.3535  0.2312  0.2133
  755THF     C3 9805   1.957   0.056   4.431 -0.6101  0.1753 -0.5694
  755THF     H4 9806   2.087   0.210   4.261  1.4846 -0.6747  0.3440
  755THF     H5 9807   1.939   0.233   4.164  1.3796 -0.8487 -0.9032
  755THF     H6 9808   2.055   0.074   4.469 -1.7087 -0.2139  0.1706
  755THF     H7 9809   1.902   0.012   4.513  0.7827 -0.3256  1.4455
  755THF     C8 9810   1.962  -0.055   4.324 -0.2266 -0.3981  0.3851
  755THF     C9 9811   1.983   0.025   4.196  0.3738  0.2662 -0.4389
  755THF    H10 9812   1.869  -0.111   4.318 -1.6949 -3.1747 -0.2137
  755THF    H11 9813   2.041  -0.127   4.327  1.4417 -2.9196 -2.2563
  755THF    H12 9814   2.080   0.003   4.148 -0.1134  1.9628 -1.4492
  755THF    H13 9815   1.910   0.011   4.123  1.2697  1.2335  0.8201
  756THF     O1 9816   2.713   2.130   5.489 -0.2178 -0.1893  0.1509
  756THF     C2 9817   2.590   2.087   5.439 -0.3554  0.0373 -0.4597
  756THF     C3 9818   2.716   2.271   5.489 -0.4869 -0.1996 -0.4433
  756THF     H4 9819   2.578   1.981   5.465 -0.5184 -1.5448  1.5805
  756THF     H5 9820   2.582   2.111   5.328 -2.4753  1.0039  0.9564
  756THF     H6 9821   2.798   2.310   5.537 -0.7428  0.9879  0.2048
  756THF     H7 9822   2.721   2.308   5.385  1.3430 -0.8962 -3.3658
  756THF     C8 9823   2.590   2.296   5.559  0.6176  0.1385 -0.9521
  756THF     C9 9824   2.496   2.186   5.508 -0.3240  0.1929  0.1067
  756THF    H10 9825   2.552   2.391   5.533  1.6291 -0.5562 -1.5607
  756THF    H11 9826   2.605   2.285   5.666 -0.1451  1.9494 -0.3015
  756THF    H12 9827   2.446   2.136   5.587  1.1312  1.4812 -0.8813
  756THF    H13 9828   2.422   2.216   5.429 -0.2644  0.8208 -0.5774
  757THF     O1 9829   4.947   0.725   4.794 -0.3053 -0.0605  0.3621
  757THF     C2 9830   4.925   0.797   4.671 -0.4773  0.2958  0.0187
  757THF     C3 9831   5.085   0.695   4.810  0.3703 -0.2862  1.0491
  757THF     H4 9832   4.964   0.898   4.673  0.9680 -0.5643 -1.4362
  757THF     H5 9833   4.825   0.805   4.649  2.6927 -0.1158  0.1811
  757THF     H6 9834   5.140   0.789   4.825  0.4253 -0.2972  0.5411
  757THF     H7 9835   5.101   0.617   4.894  0.4555 -0.7094  1.1490
  757THF     C8 9836   5.124   0.653   4.665  0.2330 -0.0616 -0.1751
  757THF     C9 9837   5.017   0.711   4.580  0.2807 -0.4640  0.8277
  757THF    H10 9838   5.128   0.545   4.652 -2.3680  0.6729  0.5120
  757THF    H11 9839   5.224   0.694   4.638  2.4399  0.9831  0.8928
  757THF    H12 9840   5.059   0.775   4.504  0.8445 -1.3508 -2.4721
  757THF    H13 9841   4.965   0.628   4.545 -0.9568 -0.1875 -1.0605
  758THF     O1 9842   1.736   1.319   4.115 -0.9081  0.5180  0.1696
  758THF     C2 9843   1.667   1.396   4.032 -0.0177  0.2879  0.5161
  758THF     C3 9844   1.801   1.219   4.040  0.2682 -0.0728  0.1160
  758THF     H4 9845   1.733   1.475   3.985  2.2975  2.5998  3.2916
  758THF     H5 9846   1.596   1.449   4.088  2.9467 -0.7381  0.0692
  758THF     H6 9847   1.887   1.255   3.999 -5.0266 -3.3230 -3.9149
  758THF     H7 9848   1.826   1.141   4.108 -0.8310 -1.3600  1.3209
  758THF     C8 9849   1.701   1.184   3.926  0.4625 -0.3920 -0.2410
  758THF     C9 9850   1.606   1.302   3.925 -0.7440  0.5411 -0.0259
  758THF    H10 9851   1.642   1.094   3.943 -1.8133  2.3913  2.7836
  758THF    H11 9852   1.748   1.171   3.837  0.0359 -1.3042  0.5412
  758THF    H12 9853   1.619   1.350   3.821  0.1443 -0.4606 -2.9116
  758THF    H13 9854   1.500   1.274   3.942 -1.0360 -0.8839 -1.2075
  759THF     O1 9855   5.276   2.547   3.236 -0.3664  0.1416  0.2581
  759THF     C2 9856   5.226   2.600   3.110 -0.0327  0.6212  0.2041
  759THF     C3 9857   5.406   2.494   3.203  0.5693  0.8217  0.0548
  759THF     H4 9858   5.285   2.689   3.090  0.7760 -0.6521 -1.0151
  759THF     H5 9859   5.116   2.621   3.105  1.1695  0.8046 -0.0174
  759THF     H6 9860   5.488   2.563   3.193  0.3042 -0.8587 -2.3857
  759THF     H7 9861   5.438   2.433   3.286  1.8311 -1.6383  1.2981
  759THF     C8 9862   5.387   2.408   3.079 -0.8542 -0.6045  0.0330
  759THF     C9 9863   5.276   2.489   3.010  0.0059 -0.1882  0.6762
  759THF    H10 9864   5.346   2.307   3.106  0.9801 -2.8529  2.6727
  759THF    H11 9865   5.479   2.396   3.013 -1.0438 -1.1324  0.5015
  759THF    H12 9866   5.292   2.533   2.911 -0.2236  2.0289 -0.5496
  759THF    H13 9867   5.199   2.418   2.987  0.7637 -1.0322 -2.7066
  760THF     O1 9868   0.166   1.527   0.834  0.4207  0.4959  0.3818
  760THF     C2 9869   0.233   1.638   0.789  0.5521  0.6411  1.0473
  760THF     C3 9870   0.030   1.559   0.825 -1.0918 -0.1643 -0.3860
  760THF     H4 9871   0.229   1.654   0.674 -0.9186  1.8737 -0.9828
  760THF     H5 9872   0.338   1.650   0.811  0.4708  1.4157 -0.8224
  760THF     H6 9873  -0.001   1.530   0.725  0.7549  0.7961 -0.7512
  760THF     H7 9874  -0.033   1.498   0.892 -0.3951  0.8655 -2.1247
  760THF     C8 9875   0.015   1.716   0.845 -0.1413 -0.7087 -0.3521
  760THF     C9 9876   0.161   1.759   0.842 -1.0228  0.8461 -0.0998
  760THF    H10 9877  -0.047   1.744   0.937  1.6119  2.1261  3.1240
  760THF    H11 9878  -0.042   1.769   0.763  0.4213 -1.0954 -0.7937
  760THF    H12 9879   0.173   1.844   0.773  0.7700 -1.1430 -2.0229
  760THF    H13 9880   0.199   1.790   0.940 -2.3799 -1.1191  1.0555
  761THF     O1 9881   1.491   2.606   1.046 -0.0869  0.1863 -0.1369
  761THF     C2 9882   1.529   2.615   0.908 -0.1209  0.2380  0.0774
  761THF     C3 9883   1.449   2.473   1.070  0.0516 -0.4150 -1.4730
  761THF     H4 9884   1.631   2.574   0.894 -0.4448 -1.2172  1.8358
  761THF     H5 9885   1.538   2.715   0.873 -2.7283 -0.2984  0.6385
  761THF     H6 9886   1.538   2.420   1.101  0.5198  0.1384  0.3805
  761THF     H7 9887   1.373   2.461   1.150 -2.2408  0.2417  0.0085
  761THF     C8 9888   1.398   2.426   0.934  0.0270 -0.3100 -0.5176
  761THF     C9 9889   1.422   2.538   0.836  0.1143 -0.1964  0.7982
  761THF    H10 9890   1.296   2.391   0.943 -0.4008  0.3547  1.1716
  761THF    H11 9891   1.452   2.334   0.901 -0.4130 -0.2924  1.7131
  761THF    H12 9892   1.469   2.490   0.749  0.3474  0.5315 -1.9568
  761THF    H13 9893   1.349   2.608   0.811  3.8931  0.3751  1.9024
  762THF     O1 9894   3.567   0.867   0.839  0.2898 -0.1902  0.4784
  762THF     C2 9895   3.621   0.795   0.947  0.4716 -0.2458 -0.1744
  762THF     C3 9896   3.503   0.974   0.897  0.5613 -0.2654  0.0919
  762THF     H4 9897   3.714   0.843   0.972 -2.4481 -0.0142 -1.0103
  762THF     H5 9898   3.644   0.689   0.926 -0.6925  2.5033 -3.2304
  762THF     H6 9899   3.576   1.038   0.930  1.5660  0.4169 -0.8830
  762THF     H7 9900   3.438   1.017   0.828 -1.3743 -3.7875 -0.1691
  762THF     C8 9901   3.430   0.916   1.018 -0.0262 -0.3369  0.1869
  762THF     C9 9902   3.518   0.801   1.063  0.5151 -0.5005 -0.3419
  762THF    H10 9903   3.338   0.872   0.980 -0.1504  3.4888 -1.1681
  762THF    H11 9904   3.398   0.980   1.099  0.7234 -1.0672 -2.7447
  762THF    H12 9905   3.552   0.810   1.162 -0.6728 -0.4620 -1.8938
  762THF    H13 9906   3.451   0.711   1.073  2.1438 -2.0918  0.7334
  763THF     O1 9907   0.963   5.134   1.811  0.0136 -0.0536 -0.4647
  763THF     C2 9908   0.971   5.168   1.667  0.2268  0.1438  0.3979
  763THF     C3 9909   0.867   5.029   1.828 -0.6775  0.1612  0.3400
  763THF     H4 9910   1.074   5.197   1.643 -1.2082  1.5836  0.5440
  763THF     H5 9911   0.893   5.245   1.654  2.7950  0.7463  1.1881
  763THF     H6 9912   0.919   4.938   1.848 -0.1883  1.5815  0.4106
  763THF     H7 9913   0.800   5.061   1.912 -0.6146  1.1462  1.9470
  763THF     C8 9914   0.797   5.011   1.695 -0.0768 -0.0966 -0.1683
  763THF     C9 9915   0.913   5.046   1.601  0.1053  0.3566 -0.2447
  763THF    H10 9916   0.711   5.080   1.682  0.2026 -0.2226 -0.7648
  763THF    H11 9917   0.750   4.914   1.681 -1.2251 -0.0562 -4.5282
  763THF    H12 9918   0.982   4.963   1.608 -0.7776 -2.3867  1.2553
  763THF    H13 9919   0.887   5.054   1.497  1.3651 -1.4756  1.5093
  764THF     O1 9920   3.847   3.752   1.353  0.2034 -0.2600 -0.1903
  764THF     C2 9921   3.884   3.855   1.266 -0.5285 -0.1710  0.3338
  764THF     C3 9922   3.817   3.820   1.476  0.7013 -0.7701  0.1868
  764THF     H4 9923   3.795   3.878   1.201 -2.0242 -0.2930 -2.9658
  764THF     H5 9924   3.952   3.827   1.190 -0.7983 -1.6219 -1.0782
  764THF     H6 9925   3.715   3.867   1.471  1.7966 -2.8336  0.5558
  764THF     H7 9926   3.819   3.758   1.560 -1.2804 -0.4026 -1.4495
  764THF     C8 9927   3.920   3.936   1.487 -0.4107 -0.6356 -0.5234
  764THF     C9 9928   3.921   3.984   1.339 -0.9050 -0.3837 -0.0553
  764THF    H10 9929   4.017   3.889   1.509  1.2571  2.0219  0.4838
  764THF    H11 9930   3.889   4.013   1.558  0.4690 -0.1253 -0.2297
  764THF    H12 9931   3.849   4.060   1.325  0.5656  0.2511 -3.1608
  764THF    H13 9932   4.016   4.026   1.324 -0.7271  0.4690  0.1786
  765THF     O1 9933   4.706   5.004   2.770  0.7010  0.1805  0.0708
  765THF     C2 9934   4.575   5.055   2.813 -0.1271  0.1774 -0.3130
  765THF     C3 9935   4.690   4.872   2.732  0.7678  0.2096  0.3217
  765THF     H4 9936   4.521   5.092   2.731  0.6030  1.1487 -1.5499
  765THF     H5 9937   4.588   5.127   2.892 -0.7550 -2.1406 -1.8102
  765THF     H6 9938   4.705   4.869   2.626  0.9426 -1.7136 -2.1761
  765THF     H7 9939   4.764   4.807   2.777  3.1254  1.2017 -0.1902
  765THF     C8 9940   4.554   4.819   2.774  0.4341 -0.8916  0.5160
  765THF     C9 9941   4.509   4.929   2.873  0.0941  0.0253 -0.1710
  765THF    H10 9942   4.557   4.718   2.815  1.6814 -2.9110  0.1647
  765THF    H11 9943   4.484   4.813   2.689 -3.6577 -0.5063 -0.2894
  765THF    H12 9944   4.405   4.933   2.892 -1.4250 -1.6590  0.7277
  765THF    H13 9945   4.550   4.900   2.971  0.3490 -1.0643 -0.0264
  766THF     O1 9946   4.447   0.607   2.737  0.6471  0.2542  0.0737
  766THF     C2 9947   4.559   0.649   2.816  0.2480  0.3214  0.0831
  766THF     C3 9948   4.431   0.466   2.758  0.7896  0.2579 -0.5740
  766THF     H4 9949   4.524   0.635   2.921  1.5120  0.5564  1.0060
  766THF     H5 9950   4.604   0.751   2.812  2.7888  2.1883 -1.3660
  766THF     H6 9951   4.391   0.446   2.862  2.6101 -1.0462  0.6821
  766THF     H7 9952   4.356   0.413   2.694 -0.2784  0.9274 -0.5751
  766THF     C8 9953   4.573   0.415   2.760 -0.3255  0.0449  0.2330
  766THF     C9 9954   4.654   0.546   2.775  0.5749 -0.3079 -0.3373
  766THF    H10 9955   4.611   0.355   2.674  1.4038  0.0960  2.3227
  766THF    H11 9956   4.585   0.357   2.850  0.9258  1.0658 -1.8954
  766THF    H12 9957   4.734   0.548   2.847  3.3223  1.9551 -2.1023
  766THF    H13 9958   4.696   0.580   2.679 -2.2897  0.2471  1.4788
  767THF     O1 9959   1.161   1.475   5.387  0.2001 -0.3461 -0.0265
  767THF     C2 9960   1.286   1.484   5.327 -0.7750  0.4161  0.4304
  767THF     C3 9961   1.090   1.589   5.351 -0.4225 -0.4719  0.0971
  767THF     H4 9962   1.328   1.386   5.303 -0.7263  1.0199 -0.2701
  767THF     H5 9963   1.354   1.530   5.393  1.0439  0.6577  0.7802
  767THF     H6 9964   0.979   1.567   5.355 -0.9397 -1.9328  1.3530
  767THF     H7 9965   1.123   1.678   5.412  1.3358 -0.4138  1.1670
  767THF     C8 9966   1.128   1.623   5.205 -0.2035  0.4271  0.3381
  767THF     C9 9967   1.264   1.560   5.192  0.1162  0.5588  0.1555
  767THF    H10 9968   1.143   1.729   5.198  0.8093 -0.9946 -0.1970
  767THF    H11 9969   1.054   1.596   5.132  3.4609  1.3205 -1.0375
  767THF    H12 9970   1.260   1.494   5.104  1.3652  2.0635 -2.7449
  767THF    H13 9971   1.347   1.632   5.173  3.9022  1.1316  2.6619
  768THF     O1 9972   1.335   0.571   0.768  0.1567 -0.2955  0.4798
  768THF     C2 9973   1.272   0.488   0.670  0.2576 -0.1653  0.2346
  768THF     C3 9974   1.277   0.538   0.904  0.5343 -0.0956 -0.4224
  768THF     H4 9975   1.336   0.480   0.584  0.4265 -0.3317  1.4604
  768THF     H5 9976   1.176   0.532   0.656 -0.9610 -2.0680  2.9313
  768THF     H6 9977   1.367   0.537   0.965  0.0276  0.9420  1.3785
  768THF     H7 9978   1.201   0.605   0.940 -0.3774 -0.1216  0.3116
  768THF     C8 9979   1.207   0.404   0.892 -0.1453 -0.4709  0.0155
  768THF     C9 9980   1.252   0.359   0.749  0.1158  0.3868  0.3811
  768THF    H10 9981   1.097   0.409   0.895  0.6299  0.7654  1.8174
  768THF    H11 9982   1.246   0.339   0.974  1.2654 -3.0749  1.3586
  768THF    H12 9983   1.346   0.296   0.757  0.2999  0.6709 -2.3938
  768THF    H13 9984   1.177   0.301   0.704 -4.8844  1.2005  1.4688
  769THF     O1 9985   4.312   1.357   4.406 -0.4401  0.0071 -0.1742
  769THF     C2 9986   4.422   1.300   4.473  0.0073  0.0778  0.5217
  769THF     C3 9987   4.368   1.451   4.311  0.8039  0.2265  0.9541
  769THF     H4 9988   4.497   1.248   4.410 -4.3751  1.8720  0.2982
  769THF     H5 9989   4.379   1.244   4.556  1.6214 -0.1630  0.6754
  769THF     H6 9990   4.427   1.387   4.239  1.6917 -0.0125  1.1669
  769THF     H7 9991   4.308   1.520   4.254 -1.6105 -2.1284 -1.9250
  769THF     C8 9992   4.466   1.525   4.400  0.0292 -0.3389 -0.1385
  769THF     C9 9993   4.489   1.430   4.512  0.4189 -0.3670 -0.8850
  769THF    H10 9994   4.409   1.605   4.445  2.2848  0.1831  3.2799
  769THF    H11 9995   4.542   1.571   4.338 -1.8338 -0.0761 -0.3399
  769THF    H12 9996   4.591   1.416   4.515 -0.0774  0.2648  0.6056
  769THF    H13 9997   4.453   1.455   4.615 -4.2384  1.1215  2.2682
  770THF     O1 9998   1.930   1.385   0.036 -0.0755  0.5540  0.0389
  770THF     C2 9999   1.798   1.330   0.019  0.3187 -0.3518  0.5710
  770THF     C310000   1.924   1.486   0.133 -0.1866 -0.4372 -0.2778
  770THF     H410001   1.760   1.271   0.104 -1.7326 -2.6934 -0.7834
  770THF     H510002   1.776   1.249  -0.054 -0.9820  0.3766 -1.8040
  770THF     H610003   1.909   1.433   0.224 -2.4533  0.8799 -1.9199
  770THF     H710004   2.016   1.548   0.139 -1.4605  1.8788 -1.6644
  770THF     C810005   1.798   1.557   0.087  0.2956 -0.0968  0.8204
  770THF     C910006   1.712   1.456   0.008 -0.3891  0.3725  0.3103
  770THF    H1010007   1.807   1.647   0.033 -0.6111  1.5368  0.9821
  770THF    H1110008   1.752   1.598   0.174  1.0108  1.1304 -1.1175
  770THF    H1210009   1.614   1.441   0.056 -0.5102 -0.6099 -0.5718
  770THF    H1310010   1.699   1.488  -0.093 -0.9937  0.4735 -0.7191
  771THF     O110011   4.087   3.999   1.735 -0.2741  0.8248 -0.1721
  771THF     C210012   4.158   3.945   1.846  0.1532 -0.1116 -0.0309
  771THF     C310013   4.064   4.141   1.753 -0.7157  0.2846 -0.3559
  771THF     H410014   4.258   3.920   1.806 -0.0937  0.5739  0.8797
  771THF     H510015   4.113   3.845   1.873  0.7169  1.7620  0.8546
  771THF     H610016   4.149   4.206   1.732 -1.5099  0.5749  0.5560
  771THF     H710017   3.985   4.186   1.689 -0.9388 -1.1834 -2.9307
  771THF     C810018   4.042   4.150   1.899 -0.4377  0.0714 -0.2856
  771THF     C910019   4.153   4.055   1.953  0.1295  0.4234 -0.1193
  771THF    H1010020   3.942   4.103   1.899 -1.2799  1.0399 -1.6625
  771THF    H1110021   4.049   4.259   1.940  1.8978  0.0646  3.9296
  771THF    H1210022   4.247   4.115   1.954  0.8306 -0.5313  1.7329
  771THF    H1310023   4.119   4.036   2.059 -0.3848  0.4138  0.9950
  772THF     O110024   5.378   2.762   4.375 -0.4373 -0.1820  0.1714
  772THF     C210025   5.309   2.639   4.407 -0.3859  1.0323 -0.1593
  772THF     C310026   5.511   2.723   4.358 -0.0669  0.1767  0.5746
  772THF     H410027   5.290   2.570   4.329 -1.4339  0.1779  0.4137
  772THF     H510028   5.206   2.657   4.435  1.0791 -1.0092 -1.8928
  772THF     H610029   5.517   2.664   4.273  0.4996 -0.7120  0.8087
  772THF     H710030   5.576   2.811   4.348 -0.7310 -1.4112 -0.3192
  772THF     C810031   5.538   2.629   4.483  0.2669 -0.2095  0.2782
  772THF     C910032   5.397   2.576   4.519  0.4220 -0.4219  0.2630
  772THF    H1010033   5.587   2.679   4.565 -2.3496 -0.1054 -1.3006
  772THF    H1110034   5.601   2.540   4.452 -0.8476  0.0204  2.0455
  772THF    H1210035   5.405   2.473   4.518  0.3318  0.3728 -1.4940
  772THF    H1310036   5.365   2.610   4.614  0.3310  0.0032  0.4532
  773THF     O110037   0.764   0.694   0.565 -0.0440 -0.5187 -0.0662
  773THF     C210038   0.878   0.638   0.626 -0.1980  0.0170  0.1342
  773THF     C310039   0.775   0.844   0.578 -0.1668  0.1756 -0.1813
  773THF     H410040   0.895   0.539   0.589 -1.5561  1.6122  0.1322
  773THF     H510041   0.875   0.647   0.732 -0.9545 -0.7182  3.2794
  773THF     H610042   0.747   0.894   0.489  2.1942 -0.2753  0.4334
  773THF     H710043   0.712   0.872   0.665 -0.3393 -2.2464 -1.6045
  773THF     C810044   0.919   0.866   0.608  0.0286  0.3165  0.1143
  773THF     C910045   0.984   0.734   0.570 -0.6839  0.0061 -0.0859
  773THF    H1010046   0.923   0.903   0.710  2.2636  0.7005  2.1219
  773THF    H1110047   0.968   0.930   0.540 -1.7450 -0.0318  0.6639
  773THF    H1210048   1.002   0.729   0.461 -0.9873  0.0255  1.3789
  773THF    H1310049   1.078   0.718   0.636  0.0775  1.1219 -0.1367
  774THF     O110050   3.496   0.670   4.637 -0.4132 -0.0396  0.1203
  774THF     C210051   3.395   0.750   4.694 -1.0488 -0.0041  0.1188
  774THF     C310052   3.431   0.577   4.546 -0.0706 -0.3143 -0.1407
  774THF     H410053   3.433   0.831   4.755 -2.6836 -1.6210 -0.4727
  774THF     H510054   3.340   0.677   4.759  1.0607 -0.0064 -2.8484
  774THF     H610055   3.496   0.531   4.479 -0.3701  1.1898  0.7256
  774THF     H710056   3.383   0.493   4.587 -0.6413 -0.6211 -0.1406
  774THF     C810057   3.345   0.682   4.469 -0.5177 -0.0726  0.1986
  774THF     C910058   3.313   0.789   4.575 -0.4123  0.0247 -0.6349
  774THF    H1010059   3.247   0.644   4.427  0.5446  1.7187 -3.0227
  774THF    H1110060   3.411   0.725   4.392 -1.5096  1.7605 -1.4370
  774THF    H1210061   3.347   0.889   4.547  1.8250  0.6644 -0.2393
  774THF    H1310062   3.204   0.805   4.595 -0.3802  1.3330 -1.1036
  775THF     O110063   3.617   4.476   0.015 -0.6495 -0.1206 -0.0467
  775THF     C210064   3.568   4.610   0.011 -0.4605 -0.2913 -0.0932
  775THF     C310065   3.593   4.423  -0.114 -0.6552 -0.0139 -0.2306
  775THF     H410066   3.600   4.683   0.076  1.2867  0.6879 -1.2536
  775THF     H510067   3.465   4.598   0.033  0.1138  0.7693  2.1621
  775THF     H610068   3.667   4.347  -0.130  4.9104 -0.7715 -1.0178
  775THF     H710069   3.498   4.380  -0.123  2.9398 -2.3413 -1.7813
  775THF     C810070   3.608   4.533  -0.213  0.5139 -0.2144 -0.8278
  775THF     C910071   3.591   4.659  -0.132 -0.3788 -0.1494  0.1891
  775THF    H1010072   3.541   4.530  -0.301 -0.6863 -0.9848 -2.0454
  775THF    H1110073   3.711   4.530  -0.243  1.0702  0.5810 -0.0801
  775THF    H1210074   3.674   4.734  -0.138  0.3875  2.1381  1.6395
  775THF    H1310075   3.499   4.712  -0.155  1.4694 -1.1227  0.9007
  776THF     O110076   3.822   4.372   4.607 -0.1278 -0.5787 -0.3209
  776THF     C210077   3.941   4.436   4.571 -0.2393 -0.0935 -0.3617
  776THF     C310078   3.729   4.462   4.654  0.4853 -0.3800 -0.4011
  776THF     H410079   4.005   4.383   4.505  0.9595  0.4024  2.1011
  776THF     H510080   3.992   4.456   4.664  2.9464 -0.6870  0.0281
  776THF     H610081   3.629   4.435   4.636 -1.6205 -0.1802 -0.0493
  776THF     H710082   3.746   4.485   4.763  0.9463 -0.9410  0.3669
  776THF     C810083   3.765   4.596   4.585 -0.1510  0.0342  0.4073
  776THF     C910084   3.892   4.564   4.507 -0.0635 -0.2208 -0.3886
  776THF    H1010085   3.776   4.677   4.659 -0.6258 -0.0377  1.7965
  776THF    H1110086   3.682   4.621   4.521  1.7059  0.0472 -2.8652
  776THF    H1210087   3.868   4.540   4.400 -1.5072 -3.0290 -1.0705
  776THF    H1310088   3.967   4.637   4.499 -0.4909 -0.6979 -1.3207
  777THF     O110089   5.466   3.916   3.048  0.0566 -0.5279 -0.5420
  777THF     C210090   5.436   4.036   2.972 -0.3623  0.6361  0.6461
  777THF     C310091   5.539   3.948   3.160  0.7571 -0.4163  0.3440
  777THF     H410092   5.328   4.048   2.958 -0.0591  0.2910  0.7352
  777THF     H510093   5.482   4.019   2.871 -2.7404  0.6116 -1.7732
  777THF     H610094   5.465   3.946   3.240  2.0930 -3.7973  1.9358
  777THF     H710095   5.610   3.874   3.196 -0.5608 -1.8661  0.9249
  777THF     C810096   5.609   4.081   3.126 -0.0811 -0.3484 -1.2271
  777THF     C910097   5.509   4.155   3.045 -0.2589 -0.5133 -0.9894
  777THF    H1010098   5.692   4.051   3.065  2.2483 -0.2131  1.7333
  777THF    H1110099   5.649   4.140   3.205  1.0592  0.8705  1.2190
  777THF    H1210100   5.452   4.209   3.114  2.1462  1.1303  0.2830
  777THF    H1310101   5.566   4.224   2.979  1.1770 -2.7908 -1.9916
  778THF     O110102   4.114   3.169   5.103  0.5146  0.1518  0.1889
  778THF     C210103   4.094   3.153   5.243  0.4050 -0.8220 -0.0897
  778THF     C310104   4.010   3.260   5.064  0.0290 -0.0443  0.4642
  778THF     H410105   4.142   3.237   5.296  0.1935 -1.3945  2.7308
  778THF     H510106   4.143   3.060   5.267 -0.6285 -3.5940 -1.7165
  778THF     H610107   4.054   3.359   5.087  0.0587  3.1208  0.5408
  778THF     H710108   3.984   3.256   4.953 -0.2838 -0.1595  0.6133
  778THF     C810109   3.884   3.220   5.160 -0.8083 -1.0326  0.2734
  778THF     C910110   3.944   3.144   5.267 -0.2130 -0.2754  0.6786
  778THF    H1010111   3.816   3.161   5.111  3.1150  0.4043 -1.9485
  778THF    H1110112   3.846   3.318   5.194  2.8750  0.4138 -0.8565
  778THF    H1210113   3.901   3.174   5.368 -2.0499 -0.5339  1.7039
  778THF    H1310114   3.919   3.042   5.257 -1.7962  2.2940  1.6236
  779THF     O110115   2.717   1.290   2.353 -0.5917 -0.6754 -0.0492
  779THF     C210116   2.818   1.210   2.293  0.4353 -0.4268 -0.5612
  779THF     C310117   2.654   1.208   2.449 -0.6411  0.2731  0.4323
  779THF     H410118   2.890   1.182   2.376  0.3752 -0.6255 -0.7817
  779THF     H510119   2.868   1.251   2.205 -3.4783  1.0669  0.3636
  779THF     H610120   2.715   1.183   2.530 -0.0451 -2.3199  2.0124
  779THF     H710121   2.558   1.256   2.472  2.1287  0.8932  0.0653
  779THF     C810122   2.638   1.082   2.363  0.1547  0.0063 -0.4355
  779THF     C910123   2.739   1.094   2.247  0.2455 -0.2820  0.7325
  779THF    H1010124   2.539   1.061   2.326  1.5910  0.2510  2.8853
  779THF    H1110125   2.661   0.993   2.433  1.1421  2.5279  1.9740
  779THF    H1210126   2.796   1.008   2.230  2.0950  0.0545  0.8514
  779THF    H1310127   2.689   1.136   2.158  1.5852 -0.0594 -0.5696
  780THF     O110128   4.858   4.002   0.892 -0.5148 -0.0050 -0.2038
  780THF     C210129   4.956   3.956   0.987 -0.1968 -0.0850 -0.2137
  780THF     C310130   4.911   4.022   0.766  0.3686 -0.2267 -1.1183
  780THF     H410131   4.928   3.853   1.013  0.1595 -1.8201 -1.0935
  780THF     H510132   4.968   4.014   1.077  1.0162  0.9467  0.4628
  780THF     H610133   4.841   3.987   0.681 -3.5661 -0.2986  0.3571
  780THF     H710134   4.936   4.126   0.752  1.5567 -3.7227 -0.3099
  780THF     C810135   5.039   3.937   0.771  0.3243 -0.6100 -0.1459
  780THF     C910136   5.095   3.946   0.912 -0.5389  0.2832  0.0653
  780THF    H1010137   5.119   3.967   0.696  1.2741 -3.7226  0.9330
  780THF    H1110138   5.037   3.828   0.751 -2.0752 -3.5976 -0.0801
  780THF    H1210139   5.163   3.860   0.926  0.5430  1.8429 -3.6349
  780THF    H1310140   5.147   4.036   0.926  0.7101 -0.3821 -0.1543
  781THF     O110141   4.523   1.812   2.887 -0.3242  0.5066 -0.4344
  781THF     C210142   4.620   1.802   2.784  0.2788 -0.1154 -0.0805
  781THF     C310143   4.561   1.720   2.988 -0.0041 -0.5615 -0.3058
  781THF     H410144   4.698   1.885   2.791 -0.1718 -2.3135 -0.6666
  781THF     H510145   4.579   1.812   2.686 -1.6880  0.0940 -0.3173
  781THF     H610146   4.634   1.783   3.044  0.4196  0.4860 -1.1199
  781THF     H710147   4.484   1.695   3.066 -1.7321  0.4454  2.7563
  781THF     C810148   4.616   1.603   2.910  0.3675  0.2097  0.1110
  781THF     C910149   4.693   1.672   2.803 -0.9676 -0.0033  0.6923
  781THF    H1010150   4.540   1.537   2.867 -2.5466 -0.1789 -1.1606
  781THF    H1110151   4.683   1.552   2.984  1.7127 -1.9195  0.5658
  781THF    H1210152   4.795   1.698   2.839  0.1623 -1.0046  2.2816
  781THF    H1310153   4.694   1.620   2.705 -1.6243 -0.7840 -0.3810
  782THF     O110154   2.086   0.333   2.860 -0.3099  0.3271  0.0465
  782THF     C210155   2.083   0.252   2.971 -0.5632 -0.0808 -0.6404
  782THF     C310156   1.959   0.337   2.801 -0.3318  0.1330  0.2644
  782THF     H410157   2.060   0.312   3.058  1.9980 -4.1086 -1.9339
  782THF     H510158   2.183   0.200   2.975  0.8454 -0.3689 -0.3164
  782THF     H610159   1.897   0.400   2.862 -1.7005 -1.6605 -0.0679
  782THF     H710160   1.966   0.373   2.697  0.5190 -0.9271  4.4050
  782THF     C810161   1.924   0.187   2.802 -0.8598 -0.5864 -0.5465
  782THF     C910162   1.969   0.155   2.947 -0.2657  0.2250  0.6555
  782THF    H1010163   1.978   0.148   2.719 -2.2358 -0.5065 -0.3734
  782THF    H1110164   1.812   0.164   2.794 -1.6774 -3.2680  0.6893
  782THF    H1210165   1.886   0.171   3.020  1.9254  0.2147  3.3332
  782THF    H1310166   1.997   0.049   2.952  2.3046 -1.9477  1.0111
  783THF     O110167   1.459   4.183   3.162  0.4194  0.1077  1.4068
  783THF     C210168   1.338   4.124   3.110  0.6089 -0.7139  1.0561
  783THF     C310169   1.421   4.240   3.295 -0.3752  0.0487 -0.1015
  783THF     H410170   1.322   4.021   3.146 -0.7747  1.5831 -1.9415
  783THF     H510171   1.361   4.117   3.006  1.3803  1.3199  1.0768
  783THF     H610172   1.413   4.149   3.360 -0.4086 -1.7993 -1.9919
  783THF     H710173   1.491   4.312   3.344  0.0222 -1.1756  0.0299
  783THF     C810174   1.274   4.291   3.269 -0.0047  0.1841 -0.8389
  783THF     C910175   1.222   4.213   3.157  0.0618 -0.3559 -0.0594
  783THF    H1010176   1.258   4.398   3.247 -0.0082  1.9231  1.4729
  783THF    H1110177   1.209   4.266   3.352  1.1389  0.4210 -1.8073
  783THF    H1210178   1.137   4.147   3.190 -0.6340  1.9112  1.0144
  783THF    H1310179   1.185   4.274   3.075  1.1527  0.2866 -0.0027
  784THF     O110180   0.382   4.924   2.571  0.0212  0.4609  0.1803
  784THF     C210181   0.506   4.983   2.559 -0.5196  0.4136  0.2902
  784THF     C310182   0.346   4.942   2.703 -0.2183  0.9389 -0.0381
  784THF     H410183   0.533   5.014   2.460 -1.1379  0.0904 -0.3551
  784THF     H510184   0.579   4.918   2.603  0.0477  0.4512  0.8372
  784THF     H610185   0.245   4.920   2.717 -2.4610  1.8304  1.1238
  784THF     H710186   0.418   4.881   2.766 -0.6274 -0.7267  0.2724
  784THF     C810187   0.381   5.087   2.733  0.6059 -0.4540  0.1148
  784THF     C910188   0.486   5.111   2.632 -0.1532  0.5780  0.1422
  784THF    H1010189   0.429   5.098   2.834  1.1201  2.1633  0.0851
  784THF    H1110190   0.291   5.148   2.716 -1.4961  1.6979 -3.3259
  784THF    H1210191   0.462   5.183   2.559  0.3814  0.3133 -0.1424
  784THF    H1310192   0.575   5.148   2.682  2.2702 -2.4238 -0.2333
  785THF     O110193   4.590   0.880   4.598 -0.5349 -0.0396 -0.0811
  785THF     C210194   4.514   0.771   4.554  0.4176 -0.5440  0.3939
  785THF     C310195   4.641   0.942   4.480 -0.6011  0.3055  0.7361
  785THF     H410196   4.422   0.815   4.520 -1.2944  1.3870 -1.2584
  785THF     H510197   4.501   0.695   4.627  0.5770  0.8844 -0.4466
  785THF     H610198   4.557   0.990   4.439  0.5678 -0.4049  3.8747
  785THF     H710199   4.720   1.019   4.498  1.0667  1.8722 -1.3167
  785THF     C810200   4.692   0.824   4.391 -0.3819 -0.5588  0.8488
  785THF     C910201   4.597   0.712   4.438  0.0536 -0.5399  0.1551
  785THF    H1010202   4.793   0.776   4.403  1.8745  1.0918  0.7808
  785THF    H1110203   4.675   0.852   4.287 -0.7055  1.2918  0.6459
  785THF    H1210204   4.543   0.670   4.360 -2.0569  0.7883  0.7588
  785THF    H1310205   4.649   0.633   4.482  1.4153 -0.3948 -2.5527
  786THF     O110206   0.937   0.703   1.469 -0.0567 -0.3462 -1.1939
  786THF     C210207   0.864   0.775   1.374 -0.0776  0.2958 -0.4329
  786THF     C310208   0.908   0.756   1.596  0.5006  0.5588 -0.1447
  786THF     H410209   0.761   0.732   1.369  0.7319  1.5100  2.5636
  786THF     H510210   0.908   0.765   1.273  2.4930 -0.1710  0.3176
  786THF     H610211   0.807   0.724   1.618 -3.3055 -0.0325 -2.3820
  786THF     H710212   0.975   0.733   1.680 -1.8478 -3.3984 -0.0004
  786THF     C810213   0.918   0.905   1.574 -0.8830  0.0489  0.4947
  786THF     C910214   0.858   0.919   1.423 -0.0242 -0.4777 -0.2784
  786THF    H1010215   1.027   0.936   1.575  0.7600  0.2194 -1.7552
  786THF    H1110216   0.862   0.976   1.646 -1.2739  2.3337  2.8536
  786THF    H1210217   0.751   0.939   1.417 -0.0267  0.1885 -1.9993
  786THF    H1310218   0.920   0.989   1.363  2.2401 -1.4707 -0.4063
  787THF     O110219   5.298   1.216   4.813  0.1083 -0.2984  0.1460
  787THF     C210220   5.422   1.150   4.788  0.0171 -0.4500  0.4838
  787THF     C310221   5.192   1.150   4.747 -0.4127  0.2183  0.0944
  787THF     H410222   5.488   1.159   4.880  0.7144 -0.4173 -0.6337
  787THF     H510223   5.477   1.192   4.702  4.1515  1.2257  3.8128
  787THF     H610224   5.122   1.121   4.820  0.6333 -2.8027  0.8556
  787THF     H710225   5.141   1.221   4.684  1.5013 -1.5953 -1.8796
  787THF     C810226   5.255   1.032   4.678  0.6181  0.1533 -0.0855
  787THF     C910227   5.379   1.009   4.760 -0.2387 -0.0626  0.8954
  787THF    H1010228   5.276   1.065   4.578 -1.6621  1.8526 -0.8629
  787THF    H1110229   5.200   0.940   4.687  0.6313  1.4246  0.4291
  787THF    H1210230   5.365   0.954   4.859  0.7364  1.7331  0.8546
  787THF    H1310231   5.452   0.962   4.698  0.9908  0.1725 -1.8136
  788THF     O110232   0.705   4.108   4.737  0.2438 -0.2922 -0.0938
  788THF     C210233   0.671   4.081   4.601  0.4739 -0.3684 -0.2275
  788THF     C310234   0.572   4.117   4.796 -0.6856 -0.1994 -0.1254
  788THF     H410235   0.629   3.979   4.590 -0.2065  0.6529 -0.3761
  788THF     H510236   0.758   4.088   4.537 -2.4995 -1.5729 -1.4928
  788THF     H610237   0.529   4.015   4.805  0.7398  1.4885  1.5480
  788THF     H710238   0.583   4.147   4.901  1.0220  1.1042  0.1525
  788THF     C810239   0.501   4.211   4.701 -0.7912  0.1176  0.3556
  788THF     C910240   0.561   4.180   4.575  0.6362  0.1195  0.7378
  788THF    H1010241   0.538   4.312   4.729  1.6665 -1.4555 -0.4753
  788THF    H1110242   0.391   4.207   4.705 -1.1673  0.8085  0.6114
  788THF    H1210243   0.480   4.144   4.511  1.5492 -2.4706 -0.6353
  788THF    H1310244   0.604   4.278   4.544 -1.0817  1.1450  0.5382
  789THF     O110245   0.066   4.272   1.766 -0.2556 -0.3273 -0.6014
  789THF     C210246   0.049   4.283   1.906 -0.0347 -0.1163 -0.3315
  789THF     C310247   0.143   4.157   1.741  0.5030 -0.0180 -1.1920
  789THF     H410248  -0.032   4.350   1.915 -1.1910  2.6547 -1.0572
  789THF     H510249   0.144   4.331   1.947 -0.0219 -0.1118  4.5017
  789THF     H610250   0.101   4.093   1.656 -0.3057  0.0489 -0.1242
  789THF     H710251   0.244   4.185   1.723 -2.0946  1.3854  1.3408
  789THF     C810252   0.128   4.065   1.860  0.3122 -0.0578 -0.3477
  789THF     C910253   0.019   4.137   1.945 -0.3943  0.6362 -0.4234
  789THF    H1010254   0.218   4.057   1.911  0.1293 -1.0780 -0.7907
  789THF    H1110255   0.102   3.963   1.841  0.1005  1.6228 -2.7083
  789THF    H1210256  -0.079   4.098   1.904 -1.9569  1.2145 -1.9705
  789THF    H1310257   0.016   4.120   2.052  1.0229  2.1875 -3.6639
  790THF     O110258   4.673   5.188   2.335  0.5687 -0.2660 -0.3290
  790THF     C210259   4.609   5.195   2.210  0.3973 -0.6704 -0.3318
  790THF     C310260   4.593   5.120   2.435  0.8548  0.1057  0.5152
  790THF     H410261   4.640   5.098   2.165  1.0469  0.6775 -1.8218
  790THF     H510262   4.629   5.281   2.147  0.1041 -0.1870  3.7051
  790THF     H610263   4.592   5.011   2.406 -0.3118 -0.4886  3.0852
  790THF     H710264   4.649   5.140   2.530 -1.4154  0.9260  1.3168
  790THF     C810265   4.458   5.178   2.405  0.2264 -0.5600 -0.3688
  790THF     C910266   4.455   5.200   2.250 -0.2503 -0.3063 -0.9637
  790THF    H1010267   4.452   5.276   2.458  1.8813 -1.0728  0.2411
  790THF    H1110268   4.386   5.104   2.444 -0.7412  0.6812  0.3300
  790THF    H1210269   4.418   5.112   2.210 -2.6746  3.5327 -2.1112
  790THF    H1310270   4.393   5.282   2.216 -0.1099  0.2130  1.8219
  791THF     O110271   4.025   4.661   5.061 -0.6290 -0.0865 -0.6979
  791THF     C210272   4.127   4.566   5.019 -0.4951  0.2146 -0.6562
  791THF     C310273   4.091   4.786   5.079  0.1302  0.5417  0.4505
  791THF     H410274   4.122   4.569   4.912 -0.9216 -0.1380 -2.3258
  791THF     H510275   4.099   4.464   5.045  1.5151 -0.3728  1.4768
  791THF     H610276   4.107   4.834   4.985 -0.5990  1.7318  0.2701
  791THF     H710277   4.039   4.859   5.146  0.2369  0.7448  2.7619
  791THF     C810278   4.223   4.748   5.145 -0.5461  0.4248  1.0607
  791THF     C910279   4.252   4.612   5.098 -0.2599 -0.9205  0.4174
  791THF    H1010280   4.209   4.746   5.251 -0.1579  1.0123 -0.7645
  791THF    H1110281   4.308   4.809   5.115  1.2637 -0.9388  0.8090
  791THF    H1210282   4.334   4.611   5.024  0.3322  1.3348 -1.0789
  791THF    H1310283   4.259   4.544   5.182 -0.5780  2.0974 -3.8337
  792THF     O110284   2.290   1.121   0.147  0.1399 -0.4052 -0.3450
  792THF     C210285   2.270   1.226   0.249  0.9345 -0.3311  0.2923
  792THF     C310286   2.429   1.102   0.143 -0.6907 -0.1229 -0.1333
  792THF     H410287   2.295   1.177   0.343  0.4817 -1.9075 -1.0978
  792THF     H510288   2.165   1.265   0.241 -1.7082  0.1883 -0.4664
  792THF     H610289   2.461   1.044   0.234  2.0116 -1.8461  2.3605
  792THF     H710290   2.462   1.057   0.049  0.5438 -1.1768 -1.1382
  792THF     C810291   2.496   1.239   0.163  0.1897  0.1100  0.0457
  792THF     C910292   2.384   1.327   0.216  0.2957  0.5813  0.5200
  792THF    H1010293   2.541   1.286   0.077 -0.4818  2.3161  1.1671
  792THF    H1110294   2.569   1.237   0.246 -0.5078 -1.6722  0.6943
  792THF    H1210295   2.416   1.392   0.301 -0.9811 -1.0732  0.6707
  792THF    H1310296   2.358   1.393   0.137 -1.4854 -1.2809  0.2317
  793THF     O110297   4.835   4.101   3.708  0.0381 -0.4372 -0.3840
  793THF     C210298   4.972   4.069   3.731  0.4314 -0.8867 -0.1902
  793THF     C310299   4.773   4.100   3.831  0.6422  0.2183  0.9810
  793THF     H410300   5.031   4.155   3.774  0.1383  3.1496  2.9206
  793THF     H510301   5.022   4.018   3.648  0.9255 -0.9459  1.1938
  793THF     H610302   4.785   4.181   3.895 -1.0000 -1.2645 -1.8519
  793THF     H710303   4.663   4.092   3.821  1.8218  1.4703 -0.7672
  793THF     C810304   4.831   3.986   3.905 -0.1050 -0.2927  0.6286
  793THF     C910305   4.962   3.962   3.837  0.5395 -0.5207 -0.7479
  793THF    H1010306   4.769   3.899   3.898 -1.4101 -0.3927 -0.5585
  793THF    H1110307   4.838   4.000   4.013 -1.7363  1.8534  1.0360
  793THF    H1210308   5.048   3.958   3.901 -2.4862  0.1771  1.4780
  793THF    H1310309   4.973   3.861   3.802 -0.4470  0.6845  0.6663
  794THF     O110310   4.242   4.114   2.833 -0.1880 -0.1995  0.4565
  794THF     C210311   4.158   4.018   2.899 -0.6036 -0.0150 -0.3485
  794THF     C310312   4.220   4.106   2.690 -0.4320  0.4810  0.7223
  794THF     H410313   4.054   4.043   2.931  0.3476  0.0935 -0.8268
  794THF     H510314   4.204   3.986   2.986 -1.2443  0.5375 -2.3858
  794THF     H610315   4.137   4.172   2.656  0.7718  2.6552 -3.7238
  794THF     H710316   4.313   4.122   2.645  0.7750 -0.9583  1.8868
  794THF     C810317   4.170   3.964   2.661 -0.6383 -0.1943 -0.0716
  794THF     C910318   4.162   3.904   2.800  0.3897 -0.5975  0.6700
  794THF    H1010319   4.238   3.916   2.596  0.5351  0.6964 -0.7360
  794THF    H1110320   4.071   3.969   2.610 -0.7987  3.1754  1.9618
  794THF    H1210321   4.067   3.853   2.812  0.4842 -2.0414 -0.2966
  794THF    H1310322   4.249   3.840   2.810  0.3159 -1.3974 -0.9393
  795THF     O110323   1.825   3.102   5.288  0.2443  0.7559  0.5893
  795THF     C210324   1.854   2.992   5.204 -1.0748 -0.4110  0.4515
  795THF     C310325   1.885   3.075   5.415 -0.4277  0.3084 -0.0413
  795THF     H410326   1.958   3.004   5.154  1.0640  1.6015 -1.1487
  795THF     H510327   1.774   2.996   5.128  0.0655 -0.8766  0.4872
  795THF     H610328   1.997   3.086   5.416 -1.5444  3.0639 -0.0026
  795THF     H710329   1.850   3.139   5.492  0.1180 -3.1593 -0.4113
  795THF     C810330   1.852   2.930   5.432 -0.2184 -0.0150 -0.7744
  795THF     C910331   1.854   2.866   5.291 -0.6470  0.6366  0.1840
  795THF    H1010332   1.751   2.917   5.482  0.8572  1.3931 -0.8748
  795THF    H1110333   1.914   2.891   5.501 -1.8207 -0.0027 -1.7601
  795THF    H1210334   1.931   2.795   5.262 -1.1168  0.6433 -2.4221
  795THF    H1310335   1.760   2.813   5.277  2.2011 -2.7776  1.3528
  796THF     O110336   1.541   1.698   3.594 -0.0430 -0.0896  0.3792
  796THF     C210337   1.661   1.714   3.673  0.5515  0.4484  0.2253
  796THF     C310338   1.437   1.641   3.673  0.9597  0.1684  0.6122
  796THF     H410339   1.710   1.804   3.645 -0.4383 -2.0055  1.5591
  796THF     H510340   1.728   1.631   3.664 -0.1944  1.9980 -1.6818
  796THF     H610341   1.344   1.690   3.676  1.9897 -0.7559  0.0042
  796THF     H710342   1.423   1.541   3.632  0.8121  1.7172  0.1503
  796THF     C810343   1.486   1.635   3.820  0.1695 -0.0518  0.3637
  796THF     C910344   1.595   1.749   3.811  0.4725 -0.3158  0.0441
  796THF    H1010345   1.528   1.539   3.826 -1.0685  0.3276 -2.0109
  796THF    H1110346   1.411   1.650   3.899  1.5245  3.2615 -1.3905
  796THF    H1210347   1.553   1.848   3.823 -1.0584  0.0822  1.1187
  796THF    H1310348   1.674   1.726   3.887  1.0836  0.1475  1.6450
  797THF     O110349   1.827   4.886   5.474 -0.2856  0.0959 -0.7457
  797THF     C210350   1.742   4.851   5.582  0.1834 -0.3538 -0.4227
  797THF     C310351   1.815   4.807   5.365  0.3854 -0.3776 -0.0984
  797THF     H410352   1.649   4.895   5.562  0.9372  0.9456  3.1542
  797THF     H510353   1.767   4.876   5.689 -0.5110  4.3327  2.3058
  797THF     H610354   1.733   4.843   5.309 -0.1485 -1.7703 -2.2048
  797THF     H710355   1.900   4.815   5.298  1.4215  0.4322  0.8662
  797THF     C810356   1.774   4.666   5.422 -1.0119  0.7573  0.0378
  797THF     C910357   1.731   4.697   5.564  0.2402 -0.2028  0.4245
  797THF    H1010358   1.863   4.604   5.416 -0.7174  0.2024  0.5093
  797THF    H1110359   1.700   4.620   5.362  0.4050 -0.9072 -0.1643
  797THF    H1210360   1.634   4.663   5.592  2.1253  2.7099 -1.3730
  797THF    H1310361   1.802   4.639   5.626 -1.0550  0.0704  1.4604
  798THF     O110362   3.800   1.459   0.395 -0.1869 -0.3014  0.6075
  798THF     C210363   3.944   1.468   0.405 -0.3787 -0.4438 -0.7271
  798THF     C310364   3.749   1.437   0.521 -0.2744 -0.5742  0.6351
  798THF     H410365   3.988   1.531   0.322  0.4488 -2.0847  0.1086
  798THF     H510366   3.999   1.371   0.402 -1.7505 -2.8667 -1.2088
  798THF     H610367   3.645   1.460   0.517  1.1118 -0.1198 -2.9192
  798THF     H710368   3.763   1.335   0.553 -0.0024  1.9733  0.7984
  798THF     C810369   3.835   1.529   0.613  0.1751  0.0086 -0.3312
  798THF     C910370   3.973   1.531   0.541  0.2028  0.3466  0.0308
  798THF    H1010371   3.834   1.492   0.715  1.3738  2.7959  0.4999
  798THF    H1110372   3.796   1.626   0.606  1.2181  1.4696  2.9233
  798THF    H1210373   4.011   1.633   0.534  1.5701  2.8593  0.4081
  798THF    H1310374   4.046   1.473   0.593  1.6092  1.0385 -0.1665
  799THF     O110375   2.646   0.159   0.869 -0.2906 -0.0991 -0.3578
  799THF     C210376   2.595   0.223   0.749 -0.4782  0.1531 -0.1497
  799THF     C310377   2.524   0.143   0.947 -0.2993  0.0283 -0.8365
  799THF     H410378   2.661   0.220   0.665 -0.9884  1.6774 -1.2769
  799THF     H510379   2.584   0.328   0.773  0.3588  1.3892  2.0965
  799THF     H610380   2.536   0.082   1.038  0.2127  0.7522  2.2920
  799THF     H710381   2.502   0.247   0.986 -0.0218  0.8481 -1.7059
  799THF     C810382   2.424   0.101   0.848  1.0789  0.8215  0.0946
  799THF     C910383   2.467   0.152   0.710 -0.2727  0.0211 -0.9307
  799THF    H1010384   2.318   0.123   0.873  1.1814  1.8168 -1.1561
  799THF    H1110385   2.425  -0.009   0.835 -0.6451  0.3968  0.9833
  799THF    H1210386   2.503   0.065   0.643 -0.7587 -2.3101  0.9580
  799THF    H1310387   2.395   0.219   0.667 -1.5900  1.1956 -2.7350
  800THF     O110388   3.822   4.127   0.234 -0.6181 -0.2426  0.3836
  800THF     C210389   3.787   4.013   0.305 -0.9657  0.4660  0.3889
  800THF     C310390   3.770   4.131   0.100 -0.3066  0.1106 -0.4992
  800THF     H410391   3.713   4.033   0.388 -2.2008  0.8024  0.7278
  800THF     H510392   3.869   3.959   0.344  0.0984  0.9354  0.3395
  800THF     H610393   3.750   4.230   0.074 -0.6652 -3.1339  0.5419
  800THF     H710394   3.853   4.104   0.032 -4.8868 -0.1804  1.4502
  800THF     C810395   3.658   4.032   0.100  0.7070  0.2029  0.1811
  800THF     C910396   3.711   3.923   0.202  0.2287 -0.3397  0.5204
  800THF    H1010397   3.638   3.977   0.003 -1.0874 -1.3140  0.3587
  800THF    H1110398   3.570   4.081   0.146 -0.8428  0.0745  2.5136
  800THF    H1210399   3.623   3.870   0.239 -2.6537  0.1593  0.5284
  800THF    H1310400   3.772   3.848   0.154  2.3804 -2.3645 -3.5172
  801THF     O110401   5.026   2.936   1.405  0.9231  0.2090  0.3288
  801THF     C210402   5.012   2.861   1.534  0.7174  0.7699 -0.4179
  801THF     C310403   4.917   3.031   1.395 -0.4269 -0.7694 -0.2118
  801THF     H410404   5.101   2.812   1.581  0.8910  0.7167  0.5110
  801THF     H510405   4.939   2.781   1.530 -0.2831  1.4186  1.1983
  801THF     H610406   4.934   3.103   1.310  2.6088  0.6403  1.1109
  801THF     H710407   4.824   2.975   1.384 -1.3142 -3.7763  1.9618
  801THF     C810408   4.919   3.087   1.533  0.1405 -0.2002 -0.9353
  801THF     C910409   4.952   2.969   1.624  0.5339  0.1611 -0.3873
  801THF    H1010410   4.820   3.116   1.550 -0.2560 -1.0612 -5.5270
  801THF    H1110411   4.992   3.173   1.550 -0.9495 -1.8933 -1.4205
  801THF    H1210412   5.010   2.999   1.701 -1.5539  0.4080  0.0218
  801THF    H1310413   4.856   2.940   1.664  0.9424 -0.3399 -0.4282
  802THF     O110414   4.511   2.635   3.606  0.2788 -0.2908 -0.0706
  802THF     C210415   4.494   2.739   3.510  0.2138  0.1218 -0.9517
  802THF     C310416   4.518   2.512   3.529  0.0114  0.1598 -0.2225
  802THF     H410417   4.593   2.770   3.474 -1.7223  1.3817  2.4822
  802THF     H510418   4.445   2.810   3.574  0.6882 -1.7489 -0.9839
  802THF     H610419   4.618   2.502   3.477  1.0722  0.8961 -3.7695
  802THF     H710420   4.507   2.422   3.585  0.7200  1.5016  1.8409
  802THF     C810421   4.415   2.529   3.424  0.4473  0.1504  0.3018
  802THF     C910422   4.404   2.675   3.406  0.2718 -0.4296  0.1144
  802THF    H1010423   4.319   2.488   3.441 -1.9111  0.5566  0.2096
  802THF    H1110424   4.446   2.490   3.329 -0.1595  0.5939 -2.2101
  802THF    H1210425   4.436   2.708   3.304 -1.1985 -1.2907 -1.3116
  802THF    H1310426   4.306   2.709   3.416 -0.1652 -2.0613 -0.0957
  803THF     O110427   0.351   4.981   1.951  0.0584  0.2407 -0.0393
  803THF     C210428   0.429   4.940   2.062  0.5576 -0.3655  0.0772
  803THF     C310429   0.225   5.028   2.000  0.4256 -0.1435 -0.6642
  803THF     H410430   0.536   4.931   2.046  2.5964 -1.9513 -3.7458
  803THF     H510431   0.386   4.839   2.082 -0.1918 -0.5538 -1.1282
  803THF     H610432   0.173   5.096   1.935 -1.4089  2.1196 -2.0147
  803THF     H710433   0.168   4.933   2.008 -0.7861 -1.1121  1.6219
  803THF     C810434   0.253   5.090   2.138  0.4065 -0.2581 -0.9385
  803THF     C910435   0.396   5.043   2.166 -0.0166  0.5771 -0.2287
  803THF    H1010436   0.181   5.042   2.211  0.1706 -1.7730 -0.5737
  803THF    H1110437   0.244   5.201   2.139 -2.3590  0.3770 -1.2317
  803THF    H1210438   0.477   5.115   2.149  1.3218  4.4950  0.3297
  803THF    H1310439   0.415   5.010   2.266 -0.4602 -1.5973  1.4225
  804THF     O110440   5.358   0.923   1.346 -0.1757  0.6634 -0.8183
  804THF     C210441   5.486   0.939   1.286  0.7445 -0.8577 -0.4506
  804THF     C310442   5.372   0.802   1.428  0.2509 -0.3432 -0.2519
  804THF     H410443   5.504   1.041   1.247  1.9910  1.7616  2.7381
  804THF     H510444   5.483   0.864   1.204  0.6358 -1.9992  0.8641
  804THF     H610445   5.330   0.836   1.530 -1.7167  3.0992  1.3257
  804THF     H710446   5.309   0.719   1.401  1.1338 -1.2495 -1.9773
  804THF     C810447   5.516   0.773   1.439  0.3504  0.4539  1.4491
  804THF     C910448   5.584   0.895   1.384 -0.5294  0.7176 -0.1666
  804THF    H1010449   5.536   0.686   1.376 -2.3484 -0.7668  0.9596
  804THF    H1110450   5.547   0.760   1.545 -0.3887  0.2459 -0.4204
  804THF    H1210451   5.614   0.977   1.454 -0.1666  0.5246 -0.6770
  804THF    H1310452   5.682   0.871   1.331 -0.9066 -1.9119 -1.9251
  805THF     O110453   3.714   2.863   3.125  0.0884  0.3747  0.0432
  805THF     C210454   3.584   2.912   3.154 -0.0853 -0.1532 -0.4723
  805THF     C310455   3.713   2.831   2.986 -0.4257 -0.3559  0.3650
  805THF     H410456   3.595   2.970   3.248 -0.6400 -0.0342  0.8389
  805THF     H510457   3.497   2.855   3.167  1.6882  0.2149 -0.6191
  805THF     H610458   3.811   2.830   2.948 -2.7468 -2.6867 -3.3619
  805THF     H710459   3.669   2.732   2.965 -1.4292  0.0270 -0.1404
  805THF     C810460   3.626   2.937   2.922  0.4628  0.4196  0.5625
  805THF     C910461   3.555   3.002   3.038  0.0046 -0.7093 -0.2404
  805THF    H1010462   3.555   2.891   2.850 -0.8535  0.8287 -1.0596
  805THF    H1110463   3.696   3.000   2.869  0.4276  1.9830  0.7250
  805THF    H1210464   3.597   3.108   3.060 -0.8707  1.2276  0.6494
  805THF    H1310465   3.449   3.029   3.016 -2.5206  2.4660 -1.6149
  806THF     O110466   0.399   4.651   4.148  0.4066 -0.1665 -0.5587
  806THF     C210467   0.345   4.776   4.116  0.2710  0.5095 -0.0503
  806THF     C310468   0.303   4.577   4.229  0.4616 -0.7826  0.2262
  806THF     H410469   0.273   4.760   4.031  1.9413  1.5481  2.0387
  806THF     H510470   0.428   4.845   4.093  1.0822 -1.9414  2.2252
  806THF     H610471   0.215   4.536   4.168  1.1295  0.5589 -4.0681
  806THF     H710472   0.346   4.488   4.278  1.8276  1.5370 -0.8173
  806THF     C810473   0.261   4.679   4.325 -0.4781 -0.0615 -0.2232
  806THF     C910474   0.268   4.805   4.247  0.1887  0.5275 -0.5615
  806THF    H1010475   0.343   4.686   4.403  1.8723 -2.8873 -0.1121
  806THF    H1110476   0.166   4.656   4.375  0.2348  2.4635 -1.3717
  806THF    H1210477   0.172   4.857   4.222 -2.4203 -2.9179 -0.8640
  806THF    H1310478   0.327   4.885   4.294  0.2926 -0.1373 -2.9403
  807THF     O110479   1.078   3.831   5.374  0.4320  0.0281  0.5569
  807THF     C210480   0.999   3.874   5.486 -0.3668 -0.6366 -0.2506
  807THF     C310481   1.142   3.947   5.309  0.2253  0.3319 -0.2160
  807THF     H410482   1.065   3.843   5.570  1.5698 -0.9124 -1.5763
  807THF     H510483   0.900   3.814   5.494 -2.4166 -2.5612 -1.1831
  807THF     H610484   1.250   3.928   5.301  2.2112  2.7395 -1.8092
  807THF     H710485   1.099   3.971   5.218 -0.1717  2.9168 -0.1148
  807THF     C810486   1.108   4.064   5.399 -0.0441 -0.3237  0.1621
  807THF     C910487   0.984   4.030   5.485  0.0416 -0.2165  0.2660
  807THF    H1010488   1.085   4.155   5.340 -2.1955  1.2192 -0.4882
  807THF    H1110489   1.198   4.080   5.463  0.7054 -0.3885  3.3608
  807THF    H1210490   0.989   4.077   5.588 -0.3414  1.9116 -0.9834
  807THF    H1310491   0.888   4.060   5.437 -0.6837 -1.2224  3.0272
  808THF     O110492   1.441   5.356   4.431  0.4696 -0.0393 -0.1168
  808THF     C210493   1.368   5.458   4.377  0.3803 -0.4001  0.5901
  808THF     C310494   1.359   5.311   4.538  0.0795 -0.5891  0.1947
  808THF     H410495   1.289   5.415   4.318  1.1581 -0.9656  0.1797
  808THF     H510496   1.429   5.514   4.309  0.7291 -2.7422 -1.0945
  808THF     H610497   1.291   5.244   4.495  2.1458 -1.6621  1.1591
  808THF     H710498   1.418   5.241   4.608  1.2455 -3.5066 -1.3547
  808THF     C810499   1.290   5.433   4.602  1.0950  0.2813  0.0915
  808THF     C910500   1.321   5.540   4.497 -0.5208 -0.3847  0.2364
  808THF    H1010501   1.328   5.457   4.691 -2.1479 -0.3147 -1.3768
  808THF    H1110502   1.186   5.399   4.608 -0.3080 -1.5763 -1.3717
  808THF    H1210503   1.232   5.601   4.486 -1.8263 -0.0710  2.3139
  808THF    H1310504   1.400   5.607   4.532 -0.6218  2.0643 -1.4263
  809THF     O110505   5.187   3.991   5.004  0.6221  0.2494 -0.2218
  809THF     C210506   5.290   3.957   4.920 -0.2290 -0.3208  0.9826
  809THF     C310507   5.209   3.910   5.125 -0.1826 -0.1219  0.7815
  809THF     H410508   5.300   4.021   4.833  0.8559 -1.2791 -0.0334
  809THF     H510509   5.251   3.870   4.864 -1.1806 -2.2393  0.6360
  809THF     H610510   5.171   3.969   5.208 -1.4868  0.5303  1.1354
  809THF     H710511   5.167   3.810   5.134  0.6520  4.2409 -1.1027
  809THF     C810512   5.360   3.905   5.137  0.0445  0.3973  0.6605
  809THF     C910513   5.413   3.933   5.001 -0.2035  0.4600 -0.4173
  809THF    H1010514   5.399   3.812   5.169  0.6954 -0.3717 -0.8611
  809THF    H1110515   5.396   3.966   5.217 -1.1515  0.6589 -1.1540
  809THF    H1210516   5.465   4.024   5.007  1.1096  0.3691 -0.2465
  809THF    H1310517   5.477   3.857   4.953  0.8898  1.0444 -3.2259
  810THF     O110518   2.862   2.008   5.022 -0.3102 -0.0175 -0.4813
  810THF     C210519   2.783   2.111   4.960 -0.2489 -0.6407  0.0754
  810THF     C310520   2.793   1.882   5.011 -0.2335 -0.0541  0.1740
  810THF     H410521   2.844   2.178   4.898 -0.5339 -1.9281  0.6162
  810THF     H510522   2.733   2.164   5.044 -0.5693  0.1839  2.9056
  810THF     H610523   2.847   1.821   4.927 -1.5585 -3.9277 -1.0643
  810THF     H710524   2.798   1.819   5.095  0.7196  0.4442 -0.5872
  810THF     C810525   2.650   1.914   4.961  0.0645  0.1055  0.1355
  810THF     C910526   2.673   2.044   4.876 -0.2866 -0.1111  0.4326
  810THF    H1010527   2.587   1.936   5.051  0.7049 -0.2969  0.5981
  810THF    H1110528   2.608   1.826   4.898  0.1275 -0.3619 -1.9913
  810THF    H1210529   2.716   2.020   4.780  1.5648  1.1543  1.8250
  810THF    H1310530   2.581   2.101   4.869  0.9108  0.1835  1.6852
  811THF     O110531   1.745   5.202   3.246 -0.0819  0.4252  0.6833
  811THF     C210532   1.786   5.113   3.349  0.4107  0.8275 -1.2421
  811THF     C310533   1.832   5.160   3.136  1.1719 -0.2314  0.2980
  811THF     H410534   1.698   5.092   3.418  3.4359  0.8594  1.2341
  811THF     H510535   1.864   5.158   3.414  3.0702 -1.1861 -0.8224
  811THF     H610536   1.791   5.196   3.048  0.1109 -1.6217  0.6263
  811THF     H710537   1.934   5.199   3.141  1.0976 -0.1251  1.6530
  811THF     C810538   1.827   5.008   3.140  1.0501  0.5641 -0.2098
  811THF     C910539   1.842   4.988   3.287  0.6709  0.7776  0.5785
  811THF    H1010540   1.907   4.960   3.078 -1.2927  1.2308 -3.5696
  811THF    H1110541   1.733   4.961   3.106  0.1712  1.0906 -2.8824
  811THF    H1210542   1.789   4.902   3.324 -1.9672  0.1679 -1.4896
  811THF    H1310543   1.947   4.983   3.313  3.1659  0.7224  0.9181
  812THF     O110544   5.178   2.334   3.471 -0.1075  0.3243  0.3950
  812THF     C210545   5.085   2.311   3.573  0.6269 -0.6240  0.8330
  812THF     C310546   5.294   2.261   3.508 -1.0842 -0.8696 -0.1090
  812THF     H410547   4.979   2.321   3.549  1.0839 -2.1010  0.3881
  812THF     H510548   5.104   2.375   3.654 -2.2306  2.2487  1.4802
  812THF     H610549   5.353   2.257   3.421 -0.1505  4.9018  0.5581
  812THF     H710550   5.354   2.316   3.577 -2.0897 -0.3610 -0.9058
  812THF     C810551   5.253   2.124   3.568 -0.0244 -0.0203 -0.3674
  812THF     C910552   5.110   2.162   3.608 -0.8464 -0.6899 -1.1056
  812THF    H1010553   5.298   2.093   3.663 -1.3978  1.3427 -1.1961
  812THF    H1110554   5.255   2.037   3.498  1.7355  0.3047  2.5357
  812THF    H1210555   5.037   2.104   3.548 -1.1936 -1.5417 -1.3024
  812THF    H1310556   5.105   2.145   3.715 -1.5939  0.8519 -0.3855
  813THF     O110557   3.004   1.685   0.746  0.2721  0.7028 -0.1882
  813THF     C210558   3.064   1.699   0.619  0.5653  0.5536 -0.0097
  813THF     C310559   2.992   1.816   0.804 -0.0249  0.6343 -0.1411
  813THF     H410560   2.979   1.722   0.554 -0.5994  1.9938 -0.6152
  813THF     H510561   3.125   1.608   0.589  2.5003 -1.3627 -1.4363
  813THF     H610562   2.904   1.868   0.772 -1.2120  0.9289  2.5578
  813THF     H710563   2.979   1.800   0.909 -1.7740  1.0629  0.5990
  813THF     C810564   3.120   1.885   0.766  0.1520 -0.1257  0.0120
  813THF     C910565   3.149   1.827   0.630 -0.1558 -0.4158 -0.7778
  813THF    H1010566   3.194   1.852   0.834  0.9254 -2.8721 -0.0757
  813THF    H1110567   3.102   1.992   0.751 -0.0125  2.1395  1.5076
  813THF    H1210568   3.112   1.886   0.554 -0.2731 -0.1410  0.6271
  813THF    H1310569   3.249   1.797   0.622 -1.4142  1.8011 -1.2773
  814THF     O110570   4.977   4.389   2.846  0.5783  0.0683  0.0193
  814THF     C210571   4.958   4.292   2.743 -0.9665  0.7458 -0.2861
  814THF     C310572   5.052   4.316   2.945  0.6995 -0.2562  0.1418
  814THF     H410573   5.051   4.278   2.693 -0.1357  1.4371 -0.9969
  814THF     H510574   4.888   4.321   2.665  1.1683  2.6666  1.1656
  814THF     H610575   5.156   4.322   2.925  0.8612 -0.7193 -0.9237
  814THF     H710576   5.032   4.372   3.040 -1.2672 -2.4223  0.7432
  814THF     C810577   4.992   4.179   2.951 -0.4253 -0.4749  0.2480
  814THF     C910578   4.922   4.170   2.819 -0.0309 -0.0755  0.6951
  814THF    H1010579   4.921   4.173   3.032 -0.1149 -1.5601 -1.0080
  814THF    H1110580   5.075   4.114   2.956 -1.5465 -0.9512 -0.1454
  814THF    H1210581   4.964   4.085   2.757  3.7535 -1.9685  0.0168
  814THF    H1310582   4.817   4.157   2.833  2.0802  0.5487  1.6166
  815THF     O110583   1.649   2.716   2.959  0.2117 -0.1828  0.0164
  815THF     C210584   1.691   2.669   3.088  0.1927  0.2621  0.5387
  815THF     C310585   1.647   2.604   2.875  0.4846 -0.0864  0.3705
  815THF     H410586   1.609   2.613   3.125 -2.6894  0.9159  1.3834
  815THF     H510587   1.717   2.748   3.155 -2.2361  0.2320 -0.3398
  815THF     H610588   1.555   2.545   2.888  1.3593 -2.1138 -2.3530
  815THF     H710589   1.653   2.643   2.779  1.9978  0.0888  2.0059
  815THF     C810590   1.770   2.519   2.913 -0.0967  0.6745  0.5795
  815THF     C910591   1.801   2.574   3.058  0.4339  0.9384  0.5630
  815THF    H1010592   1.843   2.537   2.837  0.0320 -0.9598  0.8047
  815THF    H1110593   1.749   2.410   2.898 -0.3891  0.3754  1.2999
  815THF    H1210594   1.793   2.496   3.135  2.1703  1.0617  1.7502
  815THF    H1310595   1.894   2.623   3.057  0.6610 -1.7987  0.5910
  816THF     O110596   4.627   5.172   4.151  0.1708 -0.1694 -0.6827
  816THF     C210597   4.519   5.119   4.223  0.3165  0.8011  0.0296
  816THF     C310598   4.580   5.235   4.031  0.1699  0.1779 -0.4885
  816THF     H410599   4.463   5.200   4.272 -0.1884  0.3294  0.5492
  816THF     H510600   4.551   5.042   4.294  0.4905 -0.7159 -0.9376
  816THF     H610601   4.549   5.343   4.042  1.2055  2.3941  2.0019
  816THF     H710602   4.655   5.237   3.951  0.2879 -0.1189 -3.1262
  816THF     C810603   4.461   5.143   3.996 -0.5409  0.6040  0.3804
  816THF     C910604   4.436   5.060   4.118  0.0470 -0.5733  0.0856
  816THF    H1010605   4.481   5.076   3.910 -0.6656 -2.1767 -2.8426
  816THF    H1110606   4.376   5.206   3.965  1.2537  0.4111  3.5300
  816THF    H1210607   4.332   5.047   4.130 -1.0310  1.2760 -0.3931
  816THF    H1310608   4.478   4.961   4.087  0.5556 -0.4210 -2.3988
  817THF     O110609   2.728   5.208   1.174  0.4981 -0.4221 -0.3912
  817THF     C210610   2.814   5.255   1.071 -0.6406  0.4469  0.0634
  817THF     C310611   2.603   5.169   1.117  0.0941  0.2537  0.1226
  817THF     H410612   2.834   5.175   1.009 -4.3416  1.4358  1.4782
  817THF     H510613   2.899   5.308   1.110 -0.3976 -1.1498  3.6517
  817THF     H610614   2.587   5.064   1.091 -1.8446  0.4907 -2.1433
  817THF     H710615   2.538   5.205   1.198  0.7435  1.2492 -4.0702
  817THF     C810616   2.588   5.267   1.002  0.0611  0.1395 -0.3910
  817THF     C910617   2.718   5.342   0.993  0.8781  0.0340 -0.3640
  817THF    H1010618   2.499   5.337   1.011 -0.7064 -0.8887  1.4926
  817THF    H1110619   2.574   5.205   0.915 -1.1463  1.1415  1.4786
  817THF    H1210620   2.755   5.363   0.890 -0.6455 -0.8578 -2.3376
  817THF    H1310621   2.710   5.441   1.038 -0.1916  0.5602 -2.2486
  818THF     O110622   3.573   5.182   1.089  0.0851 -0.0569  0.1820
  818THF     C210623   3.684   5.126   1.160  0.4872 -0.4393  0.1932
  818THF     C310624   3.630   5.282   1.007  0.0085 -0.1462 -0.1889
  818THF     H410625   3.733   5.047   1.100 -0.9142  0.0452  0.2873
  818THF     H510626   3.651   5.080   1.251  0.7024  1.8743  1.1790
  818THF     H610627   3.683   5.231   0.928  1.7047  0.8882 -1.4121
  818THF     H710628   3.548   5.341   0.963 -1.5247 -0.8644 -0.3468
  818THF     C810629   3.733   5.351   1.104  0.8995 -0.2894  0.0029
  818THF     C910630   3.776   5.239   1.199  0.4535  0.8354  0.0615
  818THF    H1010631   3.691   5.433   1.162 -0.8458  0.7762 -2.2764
  818THF    H1110632   3.811   5.398   1.050 -2.7988 -1.3369 -0.2570
  818THF    H1210633   3.882   5.213   1.183 -0.1354 -0.4474  2.9776
  818THF    H1310634   3.759   5.256   1.307 -0.3280  1.6595  2.7009
  819THF     O110635   2.200   4.459   0.167  0.3600 -0.7571  0.4492
  819THF     C210636   2.207   4.366   0.275 -0.1853  0.6870 -0.2237
  819THF     C310637   2.105   4.424   0.076 -0.9009 -1.0131  0.2789
  819THF     H410638   2.134   4.403   0.350  2.4661  0.5354 -0.5192
  819THF     H510639   2.304   4.374   0.319  0.4513  0.1653  0.0572
  819THF     H610640   2.015   4.492   0.084  0.5316  0.4303  3.4715
  819THF     H710641   2.147   4.438  -0.023 -3.2248  2.8059  2.3443
  819THF     C810642   2.075   4.275   0.098  0.1771  0.2477 -0.3012
  819THF     C910643   2.165   4.234   0.209  0.3469 -0.2918 -0.6574
  819THF    H1010644   2.105   4.226   0.006 -0.7954 -1.5017  0.7137
  819THF    H1110645   1.969   4.266   0.123  2.4310  1.3421  0.3150
  819THF    H1210646   2.133   4.166   0.289 -0.1915  2.1403 -1.5453
  819THF    H1310647   2.252   4.198   0.150  2.9974  0.7052 -0.5257
  820THF     O110648   0.298   2.387   3.869 -0.2435 -0.2212  0.2719
  820THF     C210649   0.263   2.465   3.970 -0.4537  0.1512 -0.6204
  820THF     C310650   0.430   2.340   3.893 -0.4934  0.6772 -0.7618
  820THF     H410651   0.156   2.459   4.002 -1.7056 -0.6874  2.7920
  820THF     H510652   0.300   2.562   3.933  3.1366  2.2528  0.7160
  820THF     H610653   0.450   2.250   3.828  0.7271 -2.3399 -1.9888
  820THF     H710654   0.520   2.408   3.877 -1.1184 -0.6748  2.0407
  820THF     C810655   0.438   2.314   4.043 -0.2214  0.5884  0.1661
  820THF     C910656   0.348   2.423   4.095 -0.4068 -0.7024 -0.3960
  820THF    H1010657   0.538   2.330   4.084  2.6620  0.4954  0.6894
  820THF    H1110658   0.399   2.213   4.068  2.7015 -2.8029  1.2883
  820THF    H1210659   0.289   2.394   4.180  0.6266  2.0953  0.3371
  820THF    H1310660   0.385   2.512   4.136  3.3196 -0.8053 -2.6126
  821THF     O110661   5.101   0.356   2.534 -0.0725 -0.4050 -0.1368
  821THF     C210662   4.969   0.387   2.496 -0.6556  0.9074 -0.2057
  821THF     C310663   5.118   0.219   2.492  0.0836 -0.4257  0.1101
  821THF     H410664   4.928   0.490   2.509 -0.2196  0.8971 -1.0875
  821THF     H510665   4.896   0.323   2.550  1.0127  3.6832 -0.7203
  821THF     H610666   5.223   0.210   2.481 -0.6714 -1.9586  0.7043
  821THF     H710667   5.080   0.150   2.562 -0.8592 -0.4516  0.6134
  821THF     C810668   5.041   0.210   2.361 -0.3029  0.0459 -0.2637
  821THF     C910669   4.978   0.341   2.355  0.0493 -0.1428  0.3555
  821THF    H1010670   4.967   0.126   2.351 -1.2367 -0.5314  1.6691
  821THF    H1110671   5.112   0.190   2.280  1.1824  1.1587  0.3173
  821THF    H1210672   5.044   0.409   2.293  1.4675  1.7388 -0.5950
  821THF    H1310673   4.886   0.328   2.306  2.2773 -0.7836  1.4853
  822THF     O110674   4.083   4.260   2.400 -0.0243 -0.2343 -0.1323
  822THF     C210675   4.182   4.244   2.297  0.5315  0.8514  0.2240
  822THF     C310676   3.963   4.316   2.341  0.7451  0.4409  0.2008
  822THF     H410677   4.179   4.154   2.232  0.3592 -2.0445 -2.6692
  822THF     H510678   4.283   4.246   2.342  2.8099  3.0661 -1.5954
  822THF     H610679   3.889   4.232   2.320 -3.3029  1.7219  0.5637
  822THF     H710680   3.909   4.379   2.415 -1.5284 -1.6673  2.0761
  822THF     C810681   4.013   4.385   2.217 -0.2378  0.3611 -0.7140
  822THF     C910682   4.165   4.358   2.202  1.1945 -0.7405  0.4701
  822THF    H1010683   3.982   4.485   2.211 -1.1623 -1.5851 -2.0504
  822THF    H1110684   3.959   4.337   2.131  0.0544  0.6759 -1.8613
  822THF    H1210685   4.203   4.344   2.104  0.0670  1.6046  1.9681
  822THF    H1310686   4.222   4.442   2.240  0.4859 -1.5205 -2.7126
  823THF     O110687   0.572   3.497   0.388 -0.6763 -0.0548 -0.3455
  823THF     C210688   0.537   3.504   0.249 -0.7529  0.0761  0.3621
  823THF     C310689   0.551   3.629   0.445 -0.2928 -0.1028  0.0603
  823THF     H410690   0.425   3.521   0.250  0.6074  0.8354 -1.8728
  823THF     H510691   0.575   3.415   0.192  3.5455  1.3484 -1.2382
  823THF     H610692   0.442   3.655   0.442 -0.2143  0.5245  0.6575
  823THF     H710693   0.602   3.632   0.541  0.3645 -0.6093  5.8698
  823THF     C810694   0.634   3.708   0.337  0.3934 -0.5089 -0.2935
  823THF     C910695   0.603   3.634   0.206 -0.1949  0.0950  0.7844
  823THF    H1010696   0.737   3.694   0.358  2.4479  1.4664  4.2177
  823THF    H1110697   0.619   3.812   0.345 -0.5485  0.9368  1.9711
  823THF    H1210698   0.540   3.706   0.141  0.3122 -0.1282 -1.9675
  823THF    H1310699   0.690   3.618   0.138  4.4729 -2.7932  1.0523
  824THF     O110700   0.236   2.409   2.572  0.3257  0.0345 -0.3662
  824THF     C210701   0.199   2.300   2.484  0.3065 -0.3987  0.9378
  824THF     C310702   0.127   2.478   2.634  0.0552 -0.0318 -0.3940
  824THF     H410703   0.243   2.207   2.518 -0.1655 -2.8626 -1.9002
  824THF     H510704   0.252   2.313   2.391  1.3013 -2.9372 -0.9665
  824THF     H610705   0.159   2.503   2.737  0.1904  0.2932  0.4230
  824THF     H710706   0.103   2.574   2.581  1.5898  4.1187  1.3200
  824THF     C810707   0.012   2.382   2.629  0.1489 -0.8897 -0.4021
  824THF     C910708   0.046   2.313   2.496 -0.2517  0.0408  0.3455
  824THF    H1010709  -0.092   2.426   2.626  0.4248  0.4863  0.3209
  824THF    H1110710   0.022   2.312   2.710 -0.4024  0.3115  0.4073
  824THF    H1210711  -0.011   2.221   2.484  0.1504  0.0504  0.6974
  824THF    H1310712   0.008   2.370   2.408  0.1021  1.6110 -1.9277
  825THF     O110713   1.705   3.143   2.674 -0.4259  0.3733  0.6326
  825THF     C210714   1.581   3.202   2.637 -0.2202  1.2425  1.1128
  825THF     C310715   1.682   3.002   2.688  0.3415 -0.3942 -0.2180
  825THF     H410716   1.543   3.155   2.550  2.2375  0.9311  0.0333
  825THF     H510717   1.565   3.313   2.623 -1.2265 -0.2737 -2.9629
  825THF     H610718   1.685   2.956   2.588 -0.3548 -0.6168  0.1957
  825THF     H710719   1.760   2.960   2.749  0.6747 -1.5979  0.2434
  825THF     C810720   1.557   3.002   2.771  0.8809 -0.4653 -0.2238
  825THF     C910721   1.494   3.143   2.747 -0.3788 -0.1549 -1.3138
  825THF    H1010722   1.559   2.998   2.880 -2.8881 -0.7342 -0.1035
  825THF    H1110723   1.493   2.923   2.733  1.5335 -0.3700 -1.5101
  825THF    H1210724   1.384   3.149   2.747  0.1828 -0.0387  2.0849
  825THF    H1310725   1.515   3.195   2.842 -2.3481  1.3717 -0.6775
  826THF     O110726   2.256   3.314   4.124 -0.2155  0.0788  0.1948
  826THF     C210727   2.358   3.400   4.075 -0.4130  0.8994  0.2398
  826THF     C310728   2.268   3.197   4.054 -0.2960  0.7531 -0.9645
  826THF     H410729   2.461   3.369   4.109  2.0758 -2.8823 -2.6694
  826THF     H510730   2.336   3.510   4.100  0.4371  0.7063  2.7004
  826THF     H610731   2.353   3.132   4.079  3.1227  0.4765 -0.8400
  826THF     H710732   2.174   3.146   4.078  0.4872  0.7349 -0.9169
  826THF     C810733   2.271   3.244   3.906  0.0872 -0.0970 -0.6521
  826THF     C910734   2.353   3.373   3.926  0.6933  0.1133  0.5559
  826THF    H1010735   2.163   3.250   3.872 -1.6989  0.0217 -0.8730
  826THF    H1110736   2.324   3.183   3.837  0.3708  0.9109 -0.8543
  826THF    H1210737   2.456   3.353   3.891  1.0250 -2.6272 -1.5274
  826THF    H1310738   2.316   3.458   3.873  0.6281 -2.5475 -2.3956
  827THF     O110739   3.176   4.317   2.943 -0.0118  0.2941 -0.0356
  827THF     C210740   3.225   4.358   2.813  0.6653  0.2834 -0.9479
  827THF     C310741   3.248   4.196   2.974 -0.4361 -0.4311 -0.1530
  827THF     H410742   3.303   4.437   2.829  2.7696  0.4660  0.1326
  827THF     H510743   3.139   4.406   2.763 -1.5205  0.3115  0.2814
  827THF     H610744   3.340   4.226   3.025  0.3718  1.1036 -1.0810
  827THF     H710745   3.191   4.139   3.048 -1.5660 -1.2442 -1.9363
  827THF     C810746   3.276   4.122   2.846  0.4225 -0.3635  0.2128
  827THF     C910747   3.253   4.225   2.739  0.3635 -0.5616 -0.2216
  827THF    H1010748   3.196   4.052   2.837  0.6113 -3.0470 -1.1193
  827THF    H1110749   3.368   4.067   2.837  1.7854  2.2876 -0.0614
  827THF    H1210750   3.332   4.247   2.666  0.7308 -0.0347  2.0857
  827THF    H1310751   3.168   4.194   2.685 -0.1771  0.5827 -0.8176
  828THF     O110752   3.034   4.357   1.333  0.4056  0.0120 -0.3200
  828THF     C210753   3.049   4.223   1.288 -0.9393  0.0988  0.3736
  828THF     C310754   3.114   4.384   1.446  0.8992  0.1965  0.2080
  828THF     H410755   3.085   4.210   1.192 -0.3405 -0.8241 -1.2358
  828THF     H510756   2.952   4.177   1.285  1.7652 -1.3066 -0.1502
  828THF     H610757   3.209   4.429   1.418  0.1930 -1.6012 -0.3909
  828THF     H710758   3.051   4.454   1.508  0.1903 -0.9157 -1.6001
  828THF     C810759   3.124   4.247   1.517  0.5099 -0.9311  0.4737
  828THF     C910760   3.128   4.148   1.403 -0.0882 -0.6453  0.5572
  828THF    H1010761   3.033   4.214   1.576 -1.2039 -1.5748  0.3730
  828THF    H1110762   3.211   4.239   1.579  0.2390 -0.2797 -0.9044
  828THF    H1210763   3.234   4.135   1.375 -0.7491  0.1155 -1.9701
  828THF    H1310764   3.094   4.057   1.439 -0.9075  1.6162 -0.5288
  829THF     O110765   5.109   3.368   3.241  0.8973 -0.5955  0.9340
  829THF     C210766   5.109   3.491   3.165 -1.0679 -0.1889 -0.0195
  829THF     C310767   5.142   3.409   3.370  0.4648 -0.3357 -0.0249
  829THF     H410768   5.057   3.476   3.070 -2.3494 -0.3930 -0.7483
  829THF     H510769   5.212   3.518   3.141  2.7569 -0.6507 -2.3658
  829THF     H610770   5.140   3.343   3.452  1.4757 -0.4812 -2.5658
  829THF     H710771   5.250   3.432   3.361  1.5370  0.1006 -0.0100
  829THF     C810772   5.052   3.534   3.389  0.0138  0.1853  0.0121
  829THF     C910773   5.030   3.591   3.252 -0.0105 -0.1953  0.0910
  829THF    H1010774   5.092   3.610   3.459 -3.6165  2.7758  3.6882
  829THF    H1110775   4.961   3.496   3.438 -0.7512 -1.0822 -2.2693
  829THF    H1210776   4.924   3.584   3.231 -0.0511 -0.7485 -1.9593
  829THF    H1310777   5.077   3.690   3.237  0.7554  0.7533  1.3975
  830THF     O110778   3.750   2.042   2.819  0.5391 -0.7276  0.8649
  830THF     C210779   3.857   1.970   2.887  0.2310 -0.6025  0.7277
  830THF     C310780   3.804   2.134   2.729 -0.0853 -0.6112 -0.4624
  830THF     H410781   3.849   1.864   2.871 -0.8861  1.7630  0.4219
  830THF     H510782   3.853   2.010   2.992  1.2246  0.6962  0.7277
  830THF     H610783   3.785   2.085   2.640  1.1456  3.2791  0.2721
  830THF     H710784   3.753   2.224   2.725  1.4666 -0.5336 -1.0112
  830THF     C810785   3.955   2.140   2.747 -0.5425  0.1944 -0.5276
  830THF     C910786   3.987   2.010   2.814  0.0383  0.2339  0.2057
  830THF    H1010787   3.984   2.215   2.825 -1.1543  1.7746  0.1845
  830THF    H1110788   4.009   2.156   2.661 -1.3529 -2.5115 -1.0609
  830THF    H1210789   3.990   1.934   2.734 -0.9226 -0.9006  0.0743
  830THF    H1310790   4.082   2.006   2.861  0.2981 -1.2262 -2.5931
  831THF     O110791   4.828   3.222   3.803  0.4468 -1.0364 -0.2934
  831THF     C210792   4.954   3.167   3.764 -0.7887  0.1618 -0.6677
  831THF     C310793   4.825   3.360   3.754 -0.5284  0.4711 -0.7259
  831THF     H410794   4.957   3.152   3.653  0.2103 -0.0551 -1.0746
  831THF     H510795   4.990   3.087   3.823  0.7117 -0.6672 -0.4706
  831THF     H610796   4.805   3.369   3.648 -0.9415 -2.4730 -1.4657
  831THF     H710797   4.764   3.429   3.807  1.6691 -1.3044  1.4105
  831THF     C810798   4.969   3.407   3.772  0.1492  0.1204  0.4445
  831THF     C910799   5.049   3.279   3.785 -0.5663 -1.2436 -0.7754
  831THF    H1010800   4.983   3.464   3.862 -0.5582  1.1616 -1.7420
  831THF    H1110801   4.999   3.468   3.687 -1.0349  0.1695 -0.6212
  831THF    H1210802   5.142   3.280   3.733 -0.1845  0.4842  1.1628
  831THF    H1310803   5.075   3.266   3.888 -0.9774  0.6056  1.0110
  832THF     O110804   1.259   4.229   0.963  0.0185  0.3491  0.6994
  832THF     C210805   1.388   4.207   1.016 -0.2539 -0.4002  0.2922
  832THF     C310806   1.207   4.329   1.047 -0.7327 -0.4047 -0.0568
  832THF     H410807   1.463   4.265   0.962 -0.9783  0.6047 -0.2497
  832THF     H510808   1.426   4.103   1.000 -0.9044  1.1603  1.0417
  832THF     H610809   1.253   4.416   1.012  0.3658 -4.3968 -0.4531
  832THF     H710810   1.099   4.348   1.028  2.7346 -2.2923  1.9232
  832THF     C810811   1.253   4.296   1.187  1.2834  0.2527  0.0312
  832THF     C910812   1.382   4.227   1.174 -0.1850  0.5123 -0.0811
  832THF    H1010813   1.181   4.244   1.246 -0.4798 -1.1507 -1.7946
  832THF    H1110814   1.274   4.388   1.245  0.2065  0.1243 -0.4160
  832THF    H1210815   1.461   4.285   1.223 -0.1539 -1.4079 -1.8262
  832THF    H1310816   1.378   4.129   1.227  1.9565 -0.0983 -1.4549
  833THF     O110817   3.011   1.161   5.378  0.4629  0.5762 -0.8274
  833THF     C210818   3.077   1.195   5.499  0.7664 -0.4731 -0.2346
  833THF     C310819   2.871   1.175   5.386 -0.9743  0.2394 -0.9432
  833THF     H410820   3.167   1.247   5.479 -0.8331  2.9306  0.4667
  833THF     H510821   3.099   1.106   5.557  0.0873  1.4365  1.3443
  833THF     H610822   2.821   1.229   5.301  0.3262 -1.2781 -1.1594
  833THF     H710823   2.828   1.066   5.384 -1.2425 -0.2963 -0.4444
  833THF     C810824   2.847   1.248   5.517  0.3343  0.3487 -0.4824
  833THF     C910825   2.978   1.292   5.570  0.8301  0.1104  0.0309
  833THF    H1010826   2.804   1.181   5.595  0.1271 -2.5516 -0.5012
  833THF    H1110827   2.776   1.336   5.521 -1.2140  0.8194  0.2813
  833THF    H1210828   3.003   1.400   5.540  0.4191 -0.4826 -1.6574
  833THF    H1310829   2.983   1.284   5.682 -0.6056  1.1412  2.3312
  834THF     O110830   2.150   1.101   4.380 -0.4747 -0.0553 -0.6502
  834THF     C210831   2.083   1.222   4.417  0.1049 -0.1355 -0.0314
  834THF     C310832   2.198   1.113   4.248 -1.0830 -0.1109 -0.0127
  834THF     H410833   2.094   1.231   4.526 -1.2919  0.1257 -0.4702
  834THF     H510834   1.975   1.211   4.390  0.5607  0.2762 -0.2287
  834THF     H610835   2.270   1.042   4.219  1.7041 -0.0310  1.8923
  834THF     H710836   2.115   1.104   4.182  2.0953  2.1268 -0.3300
  834THF     C810837   2.245   1.253   4.246 -0.1930  0.3164  0.4393
  834THF     C910838   2.152   1.322   4.338  0.1023 -0.0849 -0.3005
  834THF    H1010839   2.255   1.300   4.148 -0.5120  0.2844 -0.3064
  834THF    H1110840   2.342   1.258   4.294 -0.7941 -0.8502  2.3378
  834THF    H1210841   2.197   1.403   4.400  1.0202  1.4134  1.0703
  834THF    H1310842   2.089   1.384   4.269  1.5893  1.1920  1.4619
  835THF     O110843   2.755   1.848   1.094 -0.9230 -0.2772  0.5271
  835THF     C210844   2.854   1.928   1.157 -0.1606  0.2884  1.0068
  835THF     C310845   2.666   1.799   1.196 -0.1279  0.2750 -0.0732
  835THF     H410846   2.817   2.030   1.168  0.5473 -1.0550  0.2792
  835THF     H510847   2.946   1.931   1.093  1.6360  0.8678  1.1582
  835THF     H610848   2.603   1.882   1.233  1.1266  0.1873  2.3175
  835THF     H710849   2.598   1.723   1.162 -1.3186 -0.2743 -1.3676
  835THF     C810850   2.762   1.750   1.302  0.6723 -0.1194 -0.4093
  835THF     C910851   2.863   1.863   1.294 -0.0714 -0.2477  0.2573
  835THF    H1010852   2.810   1.660   1.273  1.1765  2.2491 -0.7585
  835THF    H1110853   2.729   1.749   1.404  0.7540  0.4317 -0.6971
  835THF    H1210854   2.836   1.941   1.365 -1.0558  1.6403 -0.2461
  835THF    H1310855   2.959   1.838   1.315 -1.9696  2.6740  0.7843
  836THF     O110856   1.189   4.849   0.510  0.4867 -0.3978 -0.3967
  836THF     C210857   1.312   4.904   0.559  0.3358 -0.4060 -0.0873
  836THF     C310858   1.210   4.804   0.380 -0.4560  0.6409  0.1495
  836THF     H410859   1.385   4.827   0.575 -0.4419 -1.6590  0.9115
  836THF     H510860   1.300   4.951   0.660  1.8350 -0.6232  0.7280
  836THF     H610861   1.278   4.717   0.378  0.5757  2.1262  1.8754
  836THF     H710862   1.112   4.784   0.335 -1.1325 -0.7330  0.5895
  836THF     C810863   1.300   4.912   0.315  0.4556  0.3877  0.0234
  836THF     C910864   1.361   4.978   0.438  0.0887 -0.0099  0.1735
  836THF    H1010865   1.246   4.985   0.255  0.1299  0.0048 -1.0236
  836THF    H1110866   1.379   4.864   0.256 -0.2272 -1.4268  0.6352
  836THF    H1210867   1.469   4.977   0.438 -2.9661 -0.1067  0.4889
  836THF    H1310868   1.326   5.084   0.432  0.6661 -1.6187 -2.5334
  837THF     O110869   2.559   3.932   0.894  0.7215  0.2131  0.0640
  837THF     C210870   2.519   3.898   1.024 -0.3453 -0.7087 -0.0357
  837THF     C310871   2.574   4.074   0.885  0.2065  0.4643  0.0009
  837THF     H410872   2.548   3.800   1.056 -0.6938  2.3119  1.7432
  837THF     H510873   2.406   3.896   1.042 -1.2690 -1.6819 -0.7470
  837THF     H610874   2.655   4.095   0.811  3.9008  0.9443 -1.2425
  837THF     H710875   2.469   4.101   0.848 -3.4468  2.6807 -1.5317
  837THF     C810876   2.609   4.125   1.027 -0.2841 -0.2392  1.1865
  837THF     C910877   2.592   4.006   1.111  0.0863  0.2798 -0.1614
  837THF    H1010878   2.531   4.193   1.063 -3.4266 -1.1368  4.0595
  837THF    H1110879   2.703   4.173   1.029 -1.5070 -0.6940 -0.8152
  837THF    H1210880   2.696   3.970   1.130  1.5714 -0.4279 -1.1277
  837THF    H1310881   2.538   4.028   1.208 -0.1893  0.8719 -0.2126
  838THF     O110882   0.042   4.147   0.063 -0.3472 -0.1275  0.2711
  838THF     C210883   0.053   4.289   0.070 -1.0755 -0.4133 -0.4903
  838THF     C310884  -0.063   4.127  -0.030  0.5690  0.7278 -0.0953
  838THF     H410885   0.120   4.348   0.000  2.7299  0.1018 -0.8779
  838THF     H510886   0.089   4.327   0.169 -2.2076 -0.3498 -2.2755
  838THF     H610887  -0.038   4.170  -0.124  0.2743 -1.5795  0.6940
  838THF     H710888  -0.084   4.023  -0.034  1.0297 -0.6931 -1.0979
  838THF     C810889  -0.171   4.208   0.038 -0.4551  0.6149 -0.5134
  838THF     C910890  -0.093   4.333   0.067  0.3466 -0.3819  0.2690
  838THF    H1010891  -0.199   4.160   0.132  0.6462  1.7511 -2.6946
  838THF    H1110892  -0.263   4.216  -0.019 -1.3586 -0.7768  1.3075
  838THF    H1210893  -0.102   4.410  -0.010  0.7420  1.0934  1.2124
  838THF    H1310894  -0.120   4.382   0.161 -1.1079 -0.2911  0.6990
  839THF     O110895   1.288   5.171   2.506  0.1272 -0.0477 -0.0054
  839THF     C210896   1.385   5.184   2.607  0.0505  0.2409  0.0279
  839THF     C310897   1.320   5.056   2.426 -0.6045  0.1361 -0.0659
  839THF     H410898   1.344   5.232   2.694  0.3799  1.5985 -4.2789
  839THF     H510899   1.468   5.249   2.578 -1.3907 -1.7590  3.2907
  839THF     H610900   1.242   4.981   2.452 -0.0820 -1.0439 -1.8120
  839THF     H710901   1.331   5.067   2.318 -1.7689 -1.2666 -1.0677
  839THF     C810902   1.458   5.000   2.480  1.2683 -0.3539 -0.4807
  839THF     C910903   1.453   5.055   2.623 -0.2561 -0.6667  0.3545
  839THF    H1010904   1.539   5.049   2.426  1.1640 -1.2208 -0.8879
  839THF    H1110905   1.485   4.890   2.472 -2.9709 -2.5337 -0.8069
  839THF    H1210906   1.393   4.988   2.673  0.0595  1.7335  0.6583
  839THF    H1310907   1.555   5.058   2.672  3.2594  0.5269  2.2755
  840THF     O110908   4.432   3.476   2.778 -0.0773  0.1885 -0.1067
  840THF     C210909   4.297   3.482   2.738  0.3473 -0.7941  0.5424
  840THF     C310910   4.520   3.491   2.668  0.3409 -0.1557  0.2026
  840THF     H410911   4.221   3.507   2.817 -0.2082  0.3782  2.8159
  840THF     H510912   4.263   3.389   2.691  2.0278  1.8979 -2.1470
  840THF     H610913   4.609   3.556   2.680  2.0948  1.3660 -1.0087
  840THF     H710914   4.553   3.399   2.628 -0.8710  2.4570  0.4953
  840THF     C810915   4.437   3.561   2.561 -0.0159 -0.0564  0.6365
  840THF     C910916   4.311   3.596   2.632  0.3760  0.0020 -0.0126
  840THF    H1010917   4.414   3.493   2.477  0.8356  0.6028  3.7996
  840THF    H1110918   4.490   3.649   2.523  0.0691 -0.5114  1.9477
  840THF    H1210919   4.332   3.686   2.688 -1.7631  0.2777  1.0360
  840THF    H1310920   4.215   3.606   2.569 -1.9301  1.0527  0.3176
  841THF     O110921   1.983   2.795   1.368  0.0387 -0.3975  0.0179
  841THF     C210922   1.888   2.714   1.306 -0.6271  0.2770 -0.2684
  841THF     C310923   1.918   2.817   1.498  0.6359 -0.6284 -0.5012
  841THF     H410924   1.880   2.617   1.356  2.4643  0.2041 -1.3283
  841THF     H510925   1.906   2.697   1.200  2.8275 -1.4553  1.2410
  841THF     H610926   1.919   2.730   1.571  2.0913 -0.3933 -0.5049
  841THF     H710927   1.961   2.912   1.546  1.4787 -2.2776 -1.5867
  841THF     C810928   1.774   2.856   1.458 -0.8284 -0.1822 -0.2823
  841THF     C910929   1.755   2.784   1.330 -0.1887 -0.2701  0.4074
  841THF    H1010930   1.766   2.963   1.438 -1.8473  1.1828 -0.3121
  841THF    H1110931   1.712   2.819   1.533  1.2297 -0.9299 -1.3415
  841THF    H1210932   1.670   2.713   1.342 -0.6443 -2.9350 -2.5984
  841THF    H1310933   1.717   2.846   1.242 -2.6063  0.7930  0.4266
  842THF     O110934   2.749   4.401   5.477  0.3231 -0.4250 -0.1659
  842THF     C210935   2.709   4.538   5.468  0.7474 -0.1692 -0.1303
  842THF     C310936   2.655   4.330   5.555 -0.3699 -0.8274  0.1382
  842THF     H410937   2.610   4.543   5.418 -2.1716 -0.8460  0.1087
  842THF     H510938   2.768   4.615   5.422  1.0972  0.1598 -0.7168
  842THF     H610939   2.557   4.319   5.501 -2.0048  1.5556  1.8518
  842THF     H710940   2.690   4.228   5.577  0.6189  0.8029  1.6332
  842THF     C810941   2.635   4.432   5.679 -0.1258  0.7522 -0.1689
  842THF     C910942   2.676   4.567   5.615 -0.4041  0.1682 -0.0582
  842THF    H1010943   2.704   4.399   5.758 -2.2791  0.6125 -0.9088
  842THF    H1110944   2.534   4.425   5.722  3.0278 -0.9258  1.4127
  842THF    H1210945   2.609   4.656   5.633 -1.3391  1.5258 -1.6044
  842THF    H1310946   2.775   4.597   5.644 -0.1910  0.6356  2.1882
  843THF     O110947   5.380   4.692   0.993  0.6319 -0.4619  0.4628
  843THF     C210948   5.270   4.719   1.074  0.5631 -0.0207  0.3656
  843THF     C310949   5.456   4.810   0.965 -0.5102  0.4054  0.2491
  843THF     H410950   5.225   4.626   1.111  2.9968 -2.1027  0.1738
  843THF     H510951   5.195   4.777   1.021  1.8959 -0.6895  2.1667
  843THF     H610952   5.557   4.792   0.948 -4.2563  0.1744 -1.0331
  843THF     H710953   5.425   4.857   0.873  0.4723  3.6816 -2.6991
  843THF     C810954   5.419   4.899   1.080  0.0717 -0.4963  0.2378
  843THF     C910955   5.340   4.812   1.175  0.9783 -0.5300  0.2835
  843THF    H1010956   5.350   4.981   1.042 -1.5700  0.5990 -1.1913
  843THF    H1110957   5.505   4.938   1.133 -0.2336 -1.1618  0.5200
  843THF    H1210958   5.403   4.749   1.248 -1.1252 -0.2638  2.6164
  843THF    H1310959   5.268   4.873   1.221  1.5985  0.0436 -0.1794
  844THF     O110960   1.067   3.456   5.115  0.1237 -0.7452  0.0818
  844THF     C210961   0.929   3.414   5.128 -0.5161  0.1807  0.7504
  844THF     C310962   1.084   3.519   4.988  0.2909  0.7010  0.0822
  844THF     H410963   0.865   3.494   5.153  1.6042 -3.9296 -0.4474
  844THF     H510964   0.918   3.337   5.203  0.0813  1.4501  1.1179
  844THF     H610965   1.069   3.630   4.999  2.0417 -2.2178 -1.4941
  844THF     H710966   1.177   3.512   4.938 -0.8915 -0.3664 -3.2162
  844THF     C810967   0.978   3.465   4.893  0.0912 -0.9548  0.1474
  844THF     C910968   0.906   3.361   4.990 -0.1175 -0.9207  0.0170
  844THF    H1010969   1.017   3.430   4.801 -1.7965 -2.2786  0.5660
  844THF    H1110970   0.905   3.540   4.866  2.8384 -0.3539 -2.0163
  844THF    H1210971   0.802   3.353   4.965 -0.7854 -0.1500 -0.4086
  844THF    H1310972   0.943   3.262   4.977 -1.4102 -0.7616  0.9375
  845THF     O110973   1.780   0.123   0.115  0.0542  0.2248 -0.0955
  845THF     C210974   1.798   0.258   0.083 -0.3261 -0.4482  0.9532
  845THF     C310975   1.701   0.058   0.013  0.1365  0.5129  0.4375
  845THF     H410976   1.908   0.285   0.070  3.9638 -0.8712  0.8930
  845THF     H510977   1.781   0.333   0.157  1.2430 -1.9956  1.0597
  845THF     H610978   1.739  -0.049  -0.014 -0.2271  1.1673 -2.1752
  845THF     H710979   1.599   0.036   0.049 -0.0129 -2.4333 -1.4284
  845THF     C810980   1.705   0.151  -0.106 -0.2037  0.4774  0.0840
  845THF     C910981   1.714   0.291  -0.041  0.7928 -0.2151  0.1203
  845THF    H1010982   1.621   0.132  -0.163 -0.1764 -3.4309 -1.2657
  845THF    H1110983   1.798   0.146  -0.167  5.4203 -0.6187 -0.6235
  845THF    H1210984   1.761   0.370  -0.099  0.0277 -0.4687  1.0533
  845THF    H1310985   1.627   0.335  -0.000  0.1995  2.5471  1.9977
  846THF     O110986   1.328   3.031   1.434 -0.2586 -0.1414 -0.2000
  846THF     C210987   1.221   2.974   1.361  1.0437 -0.2703 -0.8875
  846THF     C310988   1.441   3.010   1.351  0.2395  0.2567 -0.3057
  846THF     H410989   1.191   3.049   1.288 -3.1446 -0.5489  1.4270
  846THF     H510990   1.134   2.956   1.427  1.5426 -0.0654  0.3918
  846THF     H610991   1.448   3.080   1.266 -1.2976  1.3077 -1.2486
  846THF     H710992   1.534   3.012   1.407 -0.2164  0.7644  1.6869
  846THF     C810993   1.422   2.863   1.299 -0.1639 -0.5396 -0.0622
  846THF     C910994   1.269   2.856   1.279 -0.3142  0.0043  0.3269
  846THF    H1010995   1.445   2.803   1.390 -2.6529  2.3944 -0.6359
  846THF    H1110996   1.481   2.848   1.200 -1.2429 -1.9822 -2.7200
  846THF    H1210997   1.249   2.861   1.172  0.2754 -1.3414  1.1805
  846THF    H1310998   1.241   2.753   1.303  1.1276  2.0437  1.7278
  847THF     O110999   2.914   0.863   1.009  0.3627  0.1664 -1.2948
  847THF     C211000   2.836   0.900   0.897 -0.1623 -0.4523  0.3069
  847THF     C311001   3.052   0.850   0.963 -0.3580  0.5140 -0.5398
  847THF     H411002   2.874   1.000   0.883  1.3486  0.0357  1.3521
  847THF     H511003   2.730   0.903   0.917  0.9125 -0.7091 -1.4199
  847THF     H611004   3.096   0.953   0.979  2.5721 -1.0560  0.2537
  847THF     H711005   3.117   0.788   1.023 -0.5049  1.4929  2.3053
  847THF     C811006   3.041   0.817   0.813 -0.5684  0.4618  0.4543
  847THF     C911007   2.893   0.817   0.781 -0.0332 -0.4478 -0.1389
  847THF    H1011008   3.084   0.717   0.787 -0.7699 -1.5291  0.2270
  847THF    H1111009   3.090   0.890   0.749  0.2235 -1.4407 -0.2041
  847THF    H1211010   2.870   0.867   0.687 -1.3641 -2.2178  0.2510
  847THF    H1311011   2.851   0.717   0.777  0.7643 -0.5402  0.6291
  848THF     O111012   2.407   4.270   0.631  0.3834 -0.4644 -0.0057
  848THF     C211013   2.314   4.176   0.584 -1.0508 -0.3085 -0.8149
  848THF     C311014   2.531   4.277   0.555  1.1966  0.2352 -0.1183
  848THF     H411015   2.236   4.223   0.536  0.9803  0.0731 -2.2827
  848THF     H511016   2.288   4.107   0.668  2.0851 -2.7649  2.8493
  848THF     H611017   2.513   4.354   0.478  0.8691 -2.1733  0.4444
  848THF     H711018   2.622   4.295   0.614 -0.7353  0.3431  1.0862
  848THF     C811019   2.541   4.131   0.508 -0.2303 -0.1772  0.1751
  848THF     C911020   2.391   4.096   0.477 -0.3602 -0.7269 -0.0091
  848THF    H1011021   2.581   4.058   0.579 -1.7605 -3.6355  2.9862
  848THF    H1111022   2.605   4.118   0.416  0.8315 -0.4922  0.6317
  848THF    H1211023   2.365   4.114   0.376 -1.2249 -1.6615  3.0971
  848THF    H1311024   2.387   3.993   0.494  2.3169  0.2544 -0.4332
  849THF     O111025   4.030   0.666   3.421 -0.1197 -0.2425 -0.2421
  849THF     C211026   3.907   0.616   3.484  0.6328  0.6205 -0.3905
  849THF     C311027   4.001   0.704   3.282 -0.0563 -0.1449  0.1697
  849THF     H411028   3.843   0.693   3.512  1.0222  0.9133  0.0921
  849THF     H511029   3.922   0.549   3.571 -1.3925 -1.1608  3.0301
  849THF     H611030   3.944   0.799   3.292  0.3350  0.0065 -0.3916
  849THF     H711031   4.091   0.726   3.226  0.7811 -0.2040  2.6035
  849THF     C811032   3.911   0.590   3.240  0.6834 -0.5257 -0.1847
  849THF     C911033   3.837   0.552   3.367 -0.6197 -0.1746 -0.7172
  849THF    H1011034   3.977   0.518   3.195  1.5090  3.6314 -0.5744
  849THF    H1111035   3.847   0.612   3.157 -0.1109 -0.3654  1.6156
  849THF    H1211036   3.727   0.554   3.358 -0.4431 -1.1513  0.8492
  849THF    H1311037   3.842   0.446   3.381 -1.4692  0.6053  0.1463
  850THF     O111038   5.307   2.622   3.633 -0.1484  0.3051  0.0478
  850THF     C211039   5.441   2.598   3.604  0.2364 -0.4449  0.4034
  850THF     C311040   5.290   2.563   3.765  0.1178  0.3336  0.1968
  850THF     H411041   5.465   2.642   3.506 -1.2679 -0.1976 -0.0490
  850THF     H511042   5.477   2.495   3.603  1.0041  0.0100 -1.2594
  850THF     H611043   5.211   2.609   3.823  0.2293  2.8962  0.3794
  850THF     H711044   5.275   2.459   3.770  0.8960  0.6773 -2.3350
  850THF     C811045   5.417   2.605   3.845  0.3550 -0.2494  0.1563
  850THF     C911046   5.494   2.667   3.734  0.2148 -0.0197 -0.1337
  850THF    H1011047   5.466   2.522   3.894  0.0453 -2.5628  1.9075
  850THF    H1111048   5.387   2.681   3.918 -1.7851 -0.9474  0.2778
  850THF    H1211049   5.467   2.771   3.726 -2.1618 -1.8347  1.6240
  850THF    H1311050   5.600   2.655   3.754 -0.1844  1.5960  3.2784
  851THF     O111051   0.651   3.772   4.370  0.1560 -0.2314  0.3428
  851THF     C211052   0.722   3.684   4.448  0.0164  0.4669 -0.4235
  851THF     C311053   0.512   3.743   4.401  0.0239 -0.4859 -0.0634
  851THF     H411054   0.724   3.705   4.554  0.8479  1.6479  1.3599
  851THF     H511055   0.825   3.684   4.417 -0.6659 -2.0541  2.6755
  851THF     H611056   0.478   3.799   4.490 -2.8260 -1.2872  1.6907
  851THF     H711057   0.457   3.772   4.312  2.1218 -3.1177  0.9281
  851THF     C811058   0.500   3.593   4.414 -0.0625  1.0320 -0.2094
  851THF     C911059   0.646   3.555   4.423  0.2204 -0.2590 -0.3557
  851THF    H1011060   0.456   3.534   4.329  1.3894 -2.3715  1.7521
  851THF    H1111061   0.451   3.567   4.508 -2.0678  2.2912  1.6299
  851THF    H1211062   0.666   3.490   4.503  2.6771  0.4499  0.0250
  851THF    H1311063   0.686   3.512   4.333 -0.7223  1.1763  0.2537
  852THF     O111064   3.186   0.695   1.286  0.3059 -0.4042  0.2292
  852THF     C211065   3.200   0.575   1.362 -0.2923  0.7992 -0.1012
  852THF     C311066   3.108   0.784   1.368 -0.4278  0.1632  0.1366
  852THF     H411067   3.278   0.512   1.320  0.0028 -0.5639 -0.1332
  852THF     H511068   3.101   0.522   1.361 -1.5873  1.1591 -0.4035
  852THF     H611069   3.122   0.881   1.330 -2.6273 -1.7758 -2.4400
  852THF     H711070   3.006   0.756   1.385  0.6576  0.3745  0.7611
  852THF     C811071   3.172   0.772   1.506 -0.7503  0.6181 -0.4133
  852THF     C911072   3.237   0.625   1.500  0.6466  0.8213 -0.0512
  852THF    H1011073   3.090   0.789   1.579  0.7763  1.3076 -0.6404
  852THF    H1111074   3.254   0.841   1.515  0.7868  0.5120  1.4584
  852THF    H1211075   3.352   0.620   1.497 -1.5807 -1.1337 -0.2908
  852THF    H1311076   3.205   0.551   1.572 -1.2026  0.4793  3.1590
  853THF     O111077   1.804   3.313   2.210  0.3400 -0.1076 -0.3434
  853THF     C211078   1.899   3.214   2.230 -0.5073 -0.9126  0.1286
  853THF     C311079   1.677   3.251   2.237  0.6633 -0.7309 -0.0885
  853THF     H411080   1.997   3.261   2.264 -1.4113  1.0961  0.3588
  853THF     H511081   1.934   3.181   2.126  0.5250 -0.4633 -2.1974
  853THF     H611082   1.621   3.295   2.318  0.1891  0.8824 -2.2437
  853THF     H711083   1.608   3.256   2.157  0.3844 -2.9395  0.7702
  853THF     C811084   1.699   3.105   2.277 -0.2028 -0.4734  0.3553
  853THF     C911085   1.843   3.101   2.316  0.2051  0.4770  0.6377
  853THF    H1011086   1.678   3.041   2.191 -1.7031  0.8273  0.4926
  853THF    H1111087   1.622   3.081   2.356  1.0236 -1.1409 -3.1860
  853THF    H1211088   1.856   3.118   2.419  0.2806  0.2641  0.1789
  853THF    H1311089   1.904   3.012   2.300  0.4400  1.7645  0.8789
  854THF     O111090   0.557   3.416   4.853 -0.3000  0.4176  0.3297
  854THF     C211091   0.573   3.542   4.903 -0.4054  0.8916  0.0934
  854THF     C311092   0.412   3.396   4.847  0.1206 -0.2395  0.1336
  854THF     H411093   0.678   3.570   4.886  0.0905  1.0868 -1.8682
  854THF     H511094   0.537   3.534   5.007 -0.8319 -0.4200  2.0317
  854THF     H611095   0.383   3.311   4.784 -1.7850 -2.4575 -2.8070
  854THF     H711096   0.384   3.381   4.951 -0.3266  1.2237 -1.4779
  854THF     C811097   0.361   3.527   4.790  0.5551 -0.4033  0.2647
  854THF     C911098   0.474   3.625   4.816 -0.9796  0.7240  0.0400
  854THF    H1011099   0.281   3.569   4.858  2.7420  1.2254  0.4650
  854THF    H1111100   0.310   3.528   4.685 -3.3683  2.1965 -1.9756
  854THF    H1211101   0.528   3.634   4.719 -1.3959 -0.5618  0.2890
  854THF    H1311102   0.436   3.721   4.858  1.2657  1.1505  1.1752
  855THF     O111103   4.480   2.687   2.963 -0.2060  0.5617 -0.1311
  855THF     C211104   4.508   2.604   2.851 -0.3444 -0.3302  0.0295
  855THF     C311105   4.375   2.619   3.039  0.1915  1.1155  0.4546
  855THF     H411106   4.571   2.519   2.868 -0.8676  0.1385  2.6461
  855THF     H511107   4.562   2.666   2.776  1.1330  1.5506  0.5891
  855THF     H611108   4.418   2.539   3.104  2.7703  1.0602 -1.1277
  855THF     H711109   4.315   2.689   3.099 -1.6428  0.0869 -2.1238
  855THF     C811110   4.290   2.555   2.929 -0.1765  0.8219  0.9449
  855THF     C911111   4.372   2.553   2.800 -0.4227  0.2838 -0.2359
  855THF    H1011112   4.199   2.602   2.909  0.7678  0.0473  3.4594
  855THF    H1111113   4.269   2.446   2.946  1.0584 -1.4419 -2.2861
  855THF    H1211114   4.379   2.454   2.749  1.2165  0.3040 -2.5478
  855THF    H1311115   4.345   2.633   2.729  0.1980 -3.1605  2.0858
  856THF     O111116   3.621   0.800   4.986 -0.0454  0.6203  0.0298
  856THF     C211117   3.733   0.796   5.076  0.4315  0.3355  0.1016
  856THF     C311118   3.516   0.718   5.054  0.4843 -0.7256 -0.5502
  856THF     H411119   3.776   0.901   5.088 -0.2710 -0.0044  1.7063
  856THF     H511120   3.811   0.732   5.035 -1.7746  0.1991 -1.1042
  856THF     H611121   3.443   0.788   5.093 -0.6331 -2.1617  0.2308
  856THF     H711122   3.466   0.658   4.981 -2.7611 -1.0441  1.2921
  856THF     C811123   3.588   0.634   5.151  0.3535 -0.2836  0.3581
  856THF     C911124   3.691   0.731   5.205 -0.1897  0.2988  0.3286
  856THF    H1011125   3.641   0.546   5.114  0.0377 -2.8320 -1.2793
  856THF    H1111126   3.525   0.589   5.230 -2.7625 -1.2062  0.3691
  856THF    H1211127   3.642   0.810   5.264  0.6427 -0.6683  1.2995
  856THF    H1311128   3.771   0.676   5.250 -2.1084 -1.8860 -0.6359
  857THF     O111129   4.612   3.237   1.905  0.2282  0.4921 -0.6970
  857THF     C211130   4.537   3.215   1.788  0.0274  0.1164 -0.9065
  857THF     C311131   4.552   3.349   1.975 -0.1404  0.4084  0.2291
  857THF     H411132   4.442   3.154   1.817 -0.5654  2.2603  1.9133
  857THF     H511133   4.589   3.156   1.709  0.7022 -2.3036  2.4086
  857THF     H611134   4.503   3.312   2.064  0.7548  2.6725  1.2241
  857THF     H711135   4.639   3.410   2.001  0.8831  1.8544 -0.7945
  857THF     C811136   4.459   3.415   1.872 -0.1438 -0.5096  0.1460
  857THF     C911137   4.485   3.353   1.738  0.1618  0.3194 -0.4976
  857THF    H1011138   4.482   3.522   1.855  4.0480  0.3132 -3.3276
  857THF    H1111139   4.362   3.403   1.909 -2.0223 -1.0732 -2.6200
  857THF    H1211140   4.398   3.346   1.671  1.6827  0.5260 -1.5261
  857THF    H1311141   4.569   3.395   1.689 -2.7390 -1.4765  1.9282
  858THF     O111142   2.207   0.328   4.054  0.6138  0.0574 -0.1124
  858THF     C211143   2.226   0.223   3.959 -0.3546 -0.1238  0.2592
  858THF     C311144   2.194   0.450   3.981 -0.5210 -1.0745  0.0434
  858THF     H411145   2.130   0.204   3.910  0.1400  0.2873 -2.0005
  858THF     H511146   2.267   0.136   4.007  1.9143  1.8852 -0.7032
  858THF     H611147   2.087   0.471   3.976  4.1028 -2.5476  1.0131
  858THF     H711148   2.244   0.539   4.026 -0.1448  0.3606 -1.3951
  858THF     C811149   2.241   0.428   3.842 -0.4327 -1.0483  0.3979
  858THF     C911150   2.311   0.289   3.854  0.6959 -0.0224 -0.1181
  858THF    H1011151   2.319   0.501   3.810 -0.7113  1.7325 -0.0359
  858THF    H1111152   2.164   0.421   3.764  0.3249  2.8918 -0.3448
  858THF    H1211153   2.325   0.229   3.765 -1.7853 -0.9386 -0.9617
  858THF    H1311154   2.413   0.296   3.891  0.7408  0.4497 -0.3069
  859THF     O111155   4.143   1.264   3.177  0.4301  0.0906  0.3161
  859THF     C211156   4.127   1.147   3.089  0.9652 -0.0047  0.4660
  859THF     C311157   4.015   1.313   3.198 -0.1133 -0.4390  0.1582
  859THF     H411158   4.207   1.082   3.108 -0.1008 -1.0656 -0.2085
  859THF     H511159   4.117   1.162   2.981 -1.2296 -1.0446  0.0021
  859THF     H611160   3.997   1.350   3.300  0.1740  0.1734  3.2608
  859THF     H711161   4.014   1.394   3.132  1.1425 -2.2089  0.4357
  859THF     C811162   3.912   1.197   3.173 -0.2390  0.0086 -0.0472
  859THF     C911163   4.003   1.078   3.136  0.4668 -0.7667 -0.3855
  859THF    H1011164   3.847   1.218   3.086 -1.1767 -4.2958 -0.8596
  859THF    H1111165   3.862   1.160   3.265 -0.1925  1.3672  3.3414
  859THF    H1211166   4.016   1.012   3.224 -2.0741  1.2026  0.8825
  859THF    H1311167   3.961   1.018   3.064  1.9722  3.6283  1.0662
  860THF     O111168   2.209   3.140   0.816 -0.0577 -0.2126 -0.1357
  860THF     C211169   2.348   3.151   0.793  0.1408  0.3273 -0.3608
  860THF     C311170   2.179   3.233   0.916  1.0545 -0.3468 -0.0562
  860THF     H411171   2.365   3.108   0.691 -1.2007  1.3566  0.5595
  860THF     H511172   2.410   3.102   0.869 -0.1354  0.1342  2.0243
  860THF     H611173   2.077   3.268   0.897 -1.4049 -0.2843 -0.2557
  860THF     H711174   2.177   3.180   1.016 -0.5766  1.1272 -0.4490
  860THF     C811175   2.287   3.343   0.921 -0.1167 -0.1918  0.0869
  860THF     C911176   2.373   3.305   0.804  0.0519 -1.3708 -0.5659
  860THF    H1011177   2.351   3.344   1.008  0.3325  1.6242  0.5651
  860THF    H1111178   2.220   3.437   0.901  0.0939  0.8103  1.0317
  860THF    H1211179   2.333   3.360   0.714 -0.7513  0.3850  0.1324
  860THF    H1311180   2.482   3.329   0.814 -1.4354  0.8797 -1.8042
  861THF     O111181   4.068   3.433   2.477 -0.1843  0.7425  0.4499
  861THF     C211182   4.055   3.415   2.338 -0.4271 -0.1307  0.2679
  861THF     C311183   3.957   3.497   2.532 -0.6261  0.3146 -0.8189
  861THF     H411184   3.986   3.337   2.324  0.3958  0.1927  0.0609
  861THF     H511185   4.152   3.380   2.300  3.2598  1.2369  0.1773
  861THF     H611186   3.867   3.432   2.549 -0.0921 -3.0209  0.7446
  861THF     H711187   3.983   3.537   2.631  0.3939  1.1470  0.4211
  861THF     C811188   3.934   3.602   2.423 -0.0212  0.0096  0.8486
  861THF     C911189   4.001   3.548   2.294  0.8237  0.5257 -0.0516
  861THF    H1011190   3.984   3.694   2.452 -0.4224 -0.3862  0.8101
  861THF    H1111191   3.832   3.630   2.413  3.5256  0.3546 -2.4529
  861THF    H1211192   3.927   3.542   2.214 -0.4982 -1.1553 -0.9844
  861THF    H1311193   4.078   3.617   2.256 -0.4379  0.1833  0.2861
  862THF     O111194   0.859   3.893   0.441  0.1041 -0.4248  0.2367
  862THF     C211195   0.975   3.832   0.407 -0.4582 -0.1113  0.0104
  862THF     C311196   0.850   4.017   0.366  0.4899 -0.1336  0.7395
  862THF     H411197   0.958   3.788   0.306  0.0414 -0.1630  0.9225
  862THF     H511198   1.010   3.774   0.489 -1.9650 -1.3997 -0.8863
  862THF     H611199   0.834   3.992   0.263  0.8340  0.8249 -0.3249
  862THF     H711200   0.763   4.075   0.394 -0.9015 -0.6897 -1.0904
  862THF     C811201   0.988   4.073   0.387 -0.0174 -0.0030 -0.0658
  862THF     C911202   1.080   3.945   0.382  0.1909 -0.0498 -0.0211
  862THF    H1011203   0.998   4.112   0.482 -0.2614  0.9305 -1.7307
  862THF    H1111204   1.015   4.157   0.324 -2.7111  0.5978  1.7713
  862THF    H1211205   1.136   3.936   0.292 -2.4688 -0.7305 -4.2911
  862THF    H1311206   1.147   3.943   0.467 -1.9536 -0.5039  3.6819
  863THF     O111207   5.371   1.842   3.401  0.3390 -0.3731  0.1526
  863THF     C211208   5.380   1.911   3.275  0.9692 -0.3685  0.4422
  863THF     C311209   5.504   1.840   3.449 -0.6128 -0.5788  0.4197
  863THF     H411210   5.288   1.962   3.255  2.0917 -0.3618 -2.3201
  863THF     H511211   5.396   1.830   3.201  0.6418  1.0107 -0.7233
  863THF     H611212   5.515   1.825   3.551 -0.9481  1.8376  0.1527
  863THF     H711213   5.550   1.758   3.393  1.0628  1.1937 -0.0215
  863THF     C811214   5.562   1.979   3.411  0.2622 -0.6519  0.6242
  863THF     C911215   5.498   2.007   3.274  0.0995 -0.1809 -0.4212
  863THF    H1011216   5.666   1.966   3.401 -0.6761 -0.3060 -0.0182
  863THF    H1111217   5.525   2.045   3.490 -1.7981  0.1663 -4.6055
  863THF    H1211218   5.469   2.115   3.260 -0.3860  1.5242  1.2644
  863THF    H1311219   5.560   1.977   3.193 -0.6151 -0.4857  1.1820
  864THF     O111220   0.844   0.856   4.689 -0.4084 -0.2679  0.4360
  864THF     C211221   0.864   0.934   4.574 -0.6513 -0.7639  0.2295
  864THF     C311222   0.838   0.936   4.801 -1.1280  0.3157  0.7785
  864THF     H411223   0.846   0.876   4.485 -0.5739  2.4632  1.5090
  864THF     H511224   0.967   0.976   4.563  1.5621 -1.9669  0.8516
  864THF     H611225   0.787   0.893   4.885  0.1308 -0.4979 -0.9920
  864THF     H711226   0.938   0.957   4.843  2.2204 -1.1386 -0.2637
  864THF     C811227   0.758   1.055   4.756 -0.6010 -0.2682  0.7753
  864THF     C911228   0.756   1.036   4.602  0.0028  0.3253  0.1580
  864THF    H1011229   0.821   1.144   4.772  1.3124 -1.4930 -2.9274
  864THF    H1111230   0.656   1.054   4.799 -0.9121  0.4661 -2.6028
  864THF    H1211231   0.662   0.985   4.564  1.4253  0.4552 -1.7036
  864THF    H1311232   0.773   1.129   4.539  1.1629  2.1245 -0.0401
  865THF     O111233   0.017   0.390   4.772 -0.1249  0.3907 -0.2672
  865THF     C211234   0.048   0.461   4.652 -0.3486  0.5298 -0.2208
  865THF     C311235   0.001   0.484   4.880  0.1220 -0.4500 -0.4762
  865THF     H411236  -0.045   0.471   4.604  2.4772 -0.4828  4.0726
  865THF     H511237   0.126   0.412   4.581  1.4906  1.8845 -0.5982
  865THF     H611238  -0.107   0.506   4.877  1.2331 -0.2667  0.3265
  865THF     H711239   0.035   0.431   4.963 -0.1723  2.0664 -0.5229
  865THF     C811240   0.094   0.602   4.839  0.2748  0.4174 -0.5043
  865THF     C911241   0.089   0.613   4.688 -0.1916 -0.4547 -0.1570
  865THF    H1011242   0.199   0.588   4.872  0.7058  0.5411 -1.8410
  865THF    H1111243   0.053   0.686   4.898  1.0519 -0.7389  0.0731
  865THF    H1211244   0.019   0.681   4.643 -0.0405 -0.5293 -1.5164
  865THF    H1311245   0.186   0.640   4.651 -3.1414 -0.3608  1.8239
  866THF     O111246   1.929   0.800   2.529  0.1260  0.6020  0.0691
  866THF     C211247   2.038   0.806   2.625  0.6044 -0.4273 -0.3270
  866THF     C311248   1.842   0.696   2.569  0.3210  0.6858 -0.3674
  866THF     H411249   2.040   0.910   2.664 -0.4029 -0.9493 -0.8894
  866THF     H511250   2.137   0.794   2.583 -1.2108  2.5205  0.7959
  866THF     H611251   1.744   0.725   2.516 -1.4336 -0.5153  1.0027
  866THF     H711252   1.891   0.608   2.525 -0.1861 -0.2870 -0.5018
  866THF     C811253   1.846   0.697   2.719  0.0444 -0.0020  0.1817
  866THF     C911254   1.999   0.702   2.734 -0.1435  0.0882  0.4327
  866THF    H1011255   1.801   0.611   2.769 -3.2666  2.4376 -0.6088
  866THF    H1111256   1.804   0.791   2.755  0.9468  0.5489 -0.2510
  866THF    H1211257   2.035   0.727   2.839  0.7958  0.9653  0.8703
  866THF    H1311258   2.035   0.601   2.715  0.4325 -0.2553 -4.0200
  867THF     O111259   4.506   1.751   2.453  0.0116 -0.1038  0.0371
  867THF     C211260   4.393   1.683   2.386 -0.0178  0.3121 -0.2453
  867THF     C311261   4.622   1.748   2.370  0.6942 -0.3126  0.5117
  867THF     H411262   4.336   1.756   2.325  3.8098  1.9281  1.2219
  867THF     H511263   4.322   1.642   2.457 -0.3895 -1.0597 -1.8383
  867THF     H611264   4.622   1.836   2.297  0.5426  0.8915 -1.6424
  867THF     H711265   4.712   1.764   2.422 -0.9169  1.0333 -0.4688
  867THF     C811266   4.612   1.616   2.303  0.6834 -0.2398 -0.1244
  867THF     C911267   4.469   1.569   2.316  0.7417 -0.1355 -0.7988
  867THF    H1011268   4.676   1.540   2.354 -0.3807 -1.5928  0.7674
  867THF    H1111269   4.647   1.613   2.202 -1.7937  0.6700 -0.4594
  867THF    H1211270   4.433   1.547   2.213 -0.2186 -0.6475  0.1209
  867THF    H1311271   4.480   1.482   2.380 -2.1184  4.2119 -0.5984
  868THF     O111272   2.348   1.235   0.960 -0.0667  0.2812  0.3545
  868THF     C211273   2.426   1.224   1.083  0.2720  0.0904 -0.1066
  868THF     C311274   2.411   1.305   0.861  0.2131  0.5012 -0.1915
  868THF     H411275   2.432   1.121   1.122 -1.4214 -1.0593  0.4744
  868THF     H511276   2.393   1.281   1.173 -0.7559 -2.7253 -1.9576
  868THF     H611277   2.382   1.281   0.757  1.2381 -2.5307 -2.9846
  868THF     H711278   2.384   1.405   0.875 -0.1850  0.6559  2.2847
  868THF     C811279   2.557   1.286   0.889  0.1589 -0.2442 -0.2258
  868THF     C911280   2.565   1.272   1.039  0.1807 -0.4925 -0.3605
  868THF    H1011281   2.626   1.367   0.854 -0.9454 -0.6810  1.3322
  868THF    H1111282   2.580   1.189   0.841 -4.2115 -0.9944 -0.8040
  868THF    H1211283   2.657   1.217   1.067  1.1979  1.4774 -0.4237
  868THF    H1311284   2.576   1.372   1.091  1.4926  1.6618  0.5923
  869THF     O111285   1.945   1.084   1.401 -0.0696  0.2762 -0.3579
  869THF     C211286   2.001   1.074   1.276  0.2934  0.4216  0.3532
  869THF     C311287   2.053   1.122   1.481 -0.3283 -0.0716  0.8676
  869THF     H411288   1.925   1.070   1.199  1.4215  1.4658  0.5180
  869THF     H511289   2.055   0.986   1.262 -1.0245  2.0803  1.1962
  869THF     H611290   2.010   1.163   1.565  2.2962 -2.6292 -1.2195
  869THF     H711291   2.115   1.040   1.507  0.6655 -0.0829  2.0072
  869THF     C811292   2.119   1.237   1.400  0.7852 -0.0474 -0.1915
  869THF     C911293   2.071   1.207   1.261 -0.3553 -0.6456  0.1273
  869THF    H1011294   2.224   1.250   1.419  3.5478 -0.5032 -0.2712
  869THF    H1111295   2.074   1.332   1.433  1.7530 -0.1877  0.0798
  869THF    H1211296   1.989   1.274   1.233 -3.1903 -0.4783 -1.2037
  869THF    H1311297   2.143   1.208   1.184 -0.3160  2.4067 -0.1039
  870THF     O111298   2.533   1.053   0.637  0.0300  0.0903 -0.9827
  870THF     C211299   2.606   0.937   0.610  1.0646  0.3883  0.3804
  870THF     C311300   2.405   1.000   0.659  0.1125 -0.0602  0.2759
  870THF     H411301   2.633   0.876   0.697  2.2661  4.6701  1.1450
  870THF     H511302   2.703   0.965   0.569  2.3259  1.7111  1.1133
  870THF     H611303   2.398   0.960   0.761  1.3845  2.6016 -0.7180
  870THF     H711304   2.334   1.082   0.657 -1.0406  1.6615  1.3718
  870THF     C811305   2.387   0.900   0.545  0.3367 -0.4247  0.7433
  870THF     C911306   2.528   0.858   0.516 -0.1060 -0.0399  0.4993
  870THF    H1011307   2.341   0.954   0.458  4.3082  0.9918 -0.0328
  870THF    H1111308   2.334   0.816   0.579 -0.6452  0.0722  0.1305
  870THF    H1211309   2.538   0.747   0.519 -1.0904 -2.0735  0.9190
  870THF    H1311310   2.549   0.893   0.413 -0.0560 -2.0129 -0.4311
  871THF     O111311   1.738   1.430   4.658  0.2564  0.4119 -0.1560
  871THF     C211312   1.627   1.344   4.650  0.6465 -0.5782  0.4599
  871THF     C311313   1.776   1.475   4.526 -0.2701  0.8125  0.3912
  871THF     H411314   1.558   1.335   4.739 -1.4068 -0.0799  0.1605
  871THF     H511315   1.666   1.246   4.630 -2.7076  1.4615 -0.4748
  871THF     H611316   1.830   1.568   4.514  0.9950  3.2796 -0.7149
  871THF     H711317   1.824   1.393   4.477 -1.7633 -1.0553  2.3229
  871THF     C811318   1.637   1.492   4.456  0.0537 -0.0757  0.0704
  871THF     C911319   1.542   1.404   4.531  0.5799  0.3196 -0.0465
  871THF    H1011320   1.637   1.462   4.347 -0.5804  0.6092 -1.3308
  871THF    H1111321   1.598   1.589   4.473 -1.2439 -0.5564 -0.4307
  871THF    H1211322   1.470   1.470   4.572 -0.0520 -0.8781 -0.8687
  871THF    H1311323   1.506   1.322   4.470  0.1373  0.9296  1.2889
  872THF     O111324   1.099   2.677   2.268  0.4478 -0.6189  0.1927
  872THF     C211325   1.077   2.629   2.400  0.6134  0.0831  0.0202
  872THF     C311326   1.038   2.590   2.177 -0.5445 -0.5508  0.3268
  872THF     H411327   1.040   2.694   2.475  1.9317 -0.0077  2.6079
  872THF     H511328   1.167   2.591   2.439  0.6218  0.8200  1.2395
  872THF     H611329   1.014   2.630   2.083  2.8899 -1.8005  0.5461
  872THF     H711330   1.106   2.507   2.151  0.6820 -0.2890  2.4841
  872THF     C811331   0.918   2.531   2.253  0.1226 -0.1661 -0.0392
  872THF     C911332   0.969   2.516   2.398  0.2164 -0.1136 -0.0558
  872THF    H1011333   0.890   2.440   2.209  1.9512  1.4197  0.9601
  872THF    H1111334   0.831   2.599   2.254  0.7856 -0.7441 -0.3004
  872THF    H1211335   0.898   2.532   2.475 -0.0334 -0.3878 -2.3722
  872THF    H1311336   1.004   2.417   2.420 -1.7644  0.8337  1.1032
  873THF     O111337   2.680   2.581   4.743  0.2925  0.0889  0.2377
  873THF     C211338   2.739   2.458   4.783  0.1470 -0.1351  0.4399
  873THF     C311339   2.796   2.657   4.708  0.8805 -0.2697 -0.3562
  873THF     H411340   2.778   2.415   4.689 -1.5414  0.3403 -1.8021
  873THF     H511341   2.679   2.383   4.834  0.3910  0.8774  0.9612
  873THF     H611342   2.858   2.634   4.623  0.9878 -1.5067 -2.0539
  873THF     H711343   2.772   2.760   4.691 -0.2181  3.4888 -1.8562
  873THF     C811344   2.895   2.642   4.821 -0.4706  0.1659  1.2193
  873THF     C911345   2.866   2.504   4.872 -0.0419  0.6702 -0.5764
  873THF    H1011346   2.881   2.712   4.897  1.3515  1.6463 -2.7224
  873THF    H1111347   2.989   2.653   4.784 -1.8584  0.9520 -2.2639
  873THF    H1211348   2.950   2.436   4.871 -2.5491  0.6674 -0.0125
  873THF    H1311349   2.838   2.505   4.980 -1.8490  1.4930  0.0360
  874THF     O111350   5.296   0.428   3.026 -0.1990  0.2533  0.2791
  874THF     C211351   5.357   0.536   3.095 -0.1918  0.1802  0.3417
  874THF     C311352   5.311   0.312   3.103  0.2369  0.1482 -0.2314
  874THF     H411353   5.272   0.589   3.144 -1.8544  2.3292  0.4796
  874THF     H511354   5.405   0.593   3.019 -0.5069 -0.1547  2.5393
  874THF     H611355   5.213   0.268   3.127  1.5335  0.8140  0.9250
  874THF     H711356   5.358   0.232   3.040 -1.4668  3.3186  1.1790
  874THF     C811357   5.393   0.352   3.228  0.1395 -0.4008  0.4944
  874THF     C911358   5.459   0.478   3.195  0.7781 -0.9342  0.0889
  874THF    H1011359   5.448   0.267   3.267  2.0464  0.9267  0.5550
  874THF    H1111360   5.315   0.379   3.302 -3.1503 -0.0010 -1.4762
  874THF    H1211361   5.497   0.550   3.264  1.4594  1.8945 -1.4761
  874THF    H1311362   5.546   0.440   3.134  0.9909  0.9141 -0.8604
  875THF     O111363   1.620   4.451   2.172 -0.1423  0.0013 -0.9139
  875THF     C211364   1.706   4.397   2.069 -0.3552  0.0180  0.1944
  875THF     C311365   1.603   4.345   2.270  0.9042  0.1316  0.4044
  875THF     H411366   1.781   4.473   2.040  0.5630 -1.7532  0.8126
  875THF     H511367   1.644   4.380   1.980 -0.3601  0.7549  3.2719
  875THF     H611368   1.668   4.371   2.356  1.7592 -0.4035 -0.0857
  875THF     H711369   1.505   4.338   2.302  2.1876  1.7319  0.8075
  875THF     C811370   1.647   4.218   2.212  0.6721  0.3202  0.3464
  875THF     C911371   1.758   4.266   2.122  0.3691  0.4347  0.3044
  875THF    H1011372   1.574   4.167   2.140  1.3361  0.1548 -0.0299
  875THF    H1111373   1.678   4.136   2.277 -1.9942 -1.8809  0.9559
  875THF    H1211374   1.851   4.287   2.181  1.9071  1.8522  0.3761
  875THF    H1311375   1.785   4.195   2.044 -0.6975  0.6797 -1.9507
  876THF     O111376   5.047   2.154   2.692 -0.6291 -0.0053  0.2901
  876THF     C211377   5.066   2.234   2.811  0.2313 -0.0188 -0.1973
  876THF     C311378   4.916   2.098   2.698 -0.4026  0.4073 -0.2852
  876THF     H411379   5.147   2.299   2.795 -0.5622 -0.2224 -2.8801
  876THF     H511380   5.070   2.175   2.900 -0.9203 -1.0656  0.8894
  876THF     H611381   4.884   2.070   2.592 -2.3228  1.0430 -1.1535
  876THF     H711382   4.923   2.013   2.766 -0.9083 -0.1839  0.0303
  876THF     C811383   4.833   2.209   2.759 -0.3289  0.3988 -0.2098
  876THF     C911384   4.930   2.313   2.809  0.3246 -0.6157 -0.2452
  876THF    H1011385   4.763   2.171   2.832  0.5576 -0.2178 -1.9230
  876THF    H1111386   4.774   2.262   2.688  1.2329 -1.3942  3.0382
  876THF    H1211387   4.928   2.390   2.735  3.5043  0.7978  0.5530
  876THF    H1311388   4.906   2.355   2.904  2.8039  1.7138 -1.0558
  877THF     O111389   4.121   1.055   4.189  0.2228 -1.0979  0.8830
  877THF     C211390   4.257   1.083   4.178  0.3240 -0.4523 -0.1134
  877THF     C311391   4.098   0.910   4.186  0.0672  0.2853 -0.0772
  877THF     H411392   4.270   1.189   4.208  1.4799  0.3475 -0.4232
  877THF     H511393   4.299   1.074   4.078  0.7352 -0.4311  0.8640
  877THF     H611394   4.000   0.896   4.235 -1.9304  2.2562 -1.3881
  877THF     H711395   4.094   0.866   4.082 -2.9098  0.5030 -0.6660
  877THF     C811396   4.219   0.861   4.268  0.2134  0.2784  0.1808
  877THF     C911397   4.305   0.977   4.289 -0.8075 -0.7628  0.6402
  877THF    H1011398   4.275   0.797   4.199  0.4642  1.3820 -1.4606
  877THF    H1111399   4.204   0.815   4.360 -0.4468  0.7285 -0.1054
  877THF    H1211400   4.284   1.015   4.388 -0.7090  3.4073 -1.1512
  877THF    H1311401   4.412   0.962   4.283  0.7431 -0.7816 -0.4796
  878THF     O111402   2.541   3.154   3.025 -0.2995 -0.6228 -0.4303
  878THF     C211403   2.550   3.278   3.087  0.2798 -0.0587 -0.8465
  878THF     C311404   2.624   3.066   3.097  0.5541 -0.3336 -0.3773
  878THF     H411405   2.483   3.278   3.173  1.1297  0.3171  0.9048
  878THF     H511406   2.526   3.353   3.006  1.9030  3.5717  0.5668
  878THF     H611407   2.586   3.012   3.181  2.3263 -1.3217  0.1155
  878THF     H711408   2.666   2.992   3.033  1.1989  1.5915 -0.3793
  878THF     C811409   2.738   3.154   3.148 -0.6003 -0.1881 -0.7087
  878THF     C911410   2.694   3.293   3.114  0.0482 -0.0516 -0.6049
  878THF    H1011411   2.840   3.149   3.103 -0.8838  2.0605 -1.8844
  878THF    H1111412   2.749   3.150   3.252  0.2074  3.2516 -1.1424
  878THF    H1211413   2.713   3.363   3.194  0.9022 -2.2908  1.4520
  878THF    H1311414   2.751   3.314   3.029  0.1863 -3.1485  1.0980
  879THF     O111415   3.231   2.280   3.304 -0.4110 -0.6287  0.7868
  879THF     C211416   3.096   2.224   3.306 -0.5840 -0.0914 -0.0373
  879THF     C311417   3.237   2.389   3.212  0.3545 -0.0756 -0.2353
  879THF     H411418   3.052   2.227   3.402  2.4485  2.5990 -0.6655
  879THF     H511419   3.094   2.122   3.262 -2.4756 -1.7928 -0.6090
  879THF     H611420   3.324   2.459   3.234  1.7368 -0.0760 -1.5470
  879THF     H711421   3.244   2.340   3.119  0.6558  1.1009 -2.1064
  879THF     C811422   3.100   2.449   3.208  0.1422  0.3862 -0.7099
  879THF     C911423   3.007   2.330   3.232 -0.4181  0.0782 -0.4058
  879THF    H1011424   3.075   2.501   3.113  1.1031  1.0451 -0.1226
  879THF    H1111425   3.090   2.517   3.291 -2.6555  0.3028  1.3932
  879THF    H1211426   2.915   2.362   3.286  1.1711  1.8329  1.0936
  879THF    H1311427   2.987   2.305   3.134  1.6235  3.3162 -0.3378
  880THF     O111428   5.157   3.172   4.367  0.0827 -0.0360  0.1955
  880THF     C211429   5.061   3.209   4.272  0.1048  0.2326 -0.0804
  880THF     C311430   5.208   3.295   4.431 -0.1697  0.5197  0.4899
  880THF     H411431   4.965   3.218   4.321 -2.4376  1.8998 -0.5389
  880THF     H511432   5.052   3.133   4.187  0.9364 -0.3752 -2.4489
  880THF     H611433   5.143   3.346   4.500 -1.2034 -2.4969 -0.7532
  880THF     H711434   5.301   3.272   4.489  0.1364 -2.3142 -0.1997
  880THF     C811435   5.242   3.374   4.306 -1.0371 -0.4163  0.2331
  880THF     C911436   5.131   3.337   4.206 -0.2745 -0.2721  0.0946
  880THF    H1011437   5.323   3.321   4.259  2.8479  0.2869  2.4561
  880THF    H1111438   5.262   3.485   4.317 -2.9186 -0.0715 -0.1621
  880THF    H1211439   5.060   3.411   4.184  1.0331 -1.9710  0.4085
  880THF    H1311440   5.179   3.309   4.106 -1.6239 -0.4525  1.2628
  881THF     O111441   5.220   3.889   4.464  0.5852  0.1524  0.0134
  881THF     C211442   5.111   3.927   4.548  0.3559  0.8710  0.5966
  881THF     C311443   5.191   3.752   4.436  0.3567 -0.2476  0.3846
  881THF     H411444   5.040   3.986   4.489 -1.8840  2.1080 -0.6404
  881THF     H511445   5.128   4.013   4.618 -0.2274  3.1186  2.0482
  881THF     H611446   5.113   3.751   4.357 -2.2123  2.6134  1.1331
  881THF     H711447   5.289   3.704   4.416  1.5361  0.5325  1.6337
  881THF     C811448   5.134   3.692   4.563  0.4128 -0.1358 -0.4373
  881THF     C911449   5.055   3.804   4.622 -0.4347 -0.0674 -0.1414
  881THF    H1011450   5.229   3.684   4.622  3.0464 -1.5722 -1.1807
  881THF    H1111451   5.084   3.598   4.553 -1.1183 -2.2377  1.0519
  881THF    H1211452   4.954   3.793   4.600  0.1305  1.3123  1.7536
  881THF    H1311453   5.078   3.801   4.733  2.3170  1.2264 -1.3449
  882THF     O111454   3.867   2.438   4.104 -0.5366  0.0319 -0.2669
  882THF     C211455   3.882   2.323   4.186  0.0696 -0.0210  0.3300
  882THF     C311456   3.956   2.546   4.141  0.3035  0.0360 -0.2558
  882THF     H411457   3.843   2.241   4.125 -2.9499 -0.2815 -0.0290
  882THF     H511458   3.825   2.346   4.272  2.6465 -1.7587 -2.4753
  882THF     H611459   3.964   2.615   4.060  1.3157  1.3270  1.7977
  882THF     H711460   3.903   2.604   4.219 -1.9630  0.8661 -1.6801
  882THF     C811461   4.082   2.471   4.190 -0.7244  0.5502 -0.9152
  882THF     C911462   4.033   2.328   4.192 -1.2336  0.1551  0.0416
  882THF    H1011463   4.118   2.498   4.284  3.1932  0.3074  1.0302
  882THF    H1111464   4.168   2.483   4.126  0.1486 -2.3188 -0.0440
  882THF    H1211465   4.070   2.276   4.098 -1.4476  0.6182 -2.1608
  882THF    H1311466   4.061   2.284   4.283  1.8278  0.7105  0.1358
  883THF     O111467   4.632   4.349   5.131  0.3647 -0.2514 -0.2822
  883THF     C211468   4.643   4.482   5.184  0.1627  0.6815  0.2115
  883THF     C311469   4.697   4.249   5.211  1.1652  0.0587 -1.3416
  883THF     H411470   4.545   4.524   5.195  0.8883  0.8495  0.2678
  883THF     H511471   4.706   4.547   5.132 -1.0229 -1.4925 -1.9592
  883THF     H611472   4.659   4.142   5.203 -0.4490  0.9618 -1.1891
  883THF     H711473   4.807   4.246   5.193  0.5018  0.2144  0.8753
  883THF     C811474   4.689   4.310   5.352 -0.0638 -0.3307  0.3570
  883THF     C911475   4.702   4.455   5.325 -1.2266  0.2818 -0.1550
  883THF    H1011476   4.766   4.280   5.420  0.1499  1.3183 -1.7306
  883THF    H1111477   4.594   4.297   5.404 -2.0290 -0.4354  2.6911
  883THF    H1211478   4.653   4.499   5.406  1.1054 -1.7792  0.1356
  883THF    H1311479   4.806   4.492   5.328 -0.6776  2.2151 -3.7515
  884THF     O111480   0.300   1.082   0.717  0.1881  0.3401 -0.3531
  884THF     C211481   0.436   1.081   0.686  0.2582  0.3294 -0.7862
  884THF     C311482   0.236   0.977   0.647  0.1720 -0.2910 -0.2843
  884THF     H411483   0.493   1.002   0.733  1.4068  0.0271  3.2995
  884THF     H511484   0.484   1.174   0.707  2.4946 -0.2393  0.9470
  884THF     H611485   0.258   0.892   0.704  0.0393  1.0775 -1.4064
  884THF     H711486   0.126   0.994   0.644 -2.2737 -1.3293 -2.8621
  884THF     C811487   0.305   0.971   0.508 -0.1336 -0.0145 -0.0064
  884THF     C911488   0.434   1.063   0.539  0.2964 -0.0172  0.0001
  884THF    H1011489   0.236   1.022   0.441 -0.2480 -0.6463  1.8391
  884THF    H1111490   0.329   0.871   0.481  0.8736  1.8608 -0.5325
  884THF    H1211491   0.526   1.031   0.493  3.6507 -0.1891 -3.2192
  884THF    H1311492   0.426   1.154   0.483 -1.2970 -4.2415 -0.5615
  885THF     O111493   3.026   4.902   4.731  0.2088  0.4052  0.4571
  885THF     C211494   2.927   4.972   4.660 -0.4427 -0.0292  0.5309
  885THF     C311495   2.965   4.848   4.849  0.0056  0.0531  0.7930
  885THF     H411496   2.951   4.979   4.557  0.9964  0.2603  2.7673
  885THF     H511497   2.919   5.077   4.708 -1.1320 -1.5952  3.8809
  885THF     H611498   2.986   4.745   4.845 -0.5447  0.2245 -1.0877
  885THF     H711499   3.003   4.899   4.941  2.3178  0.9166  3.7634
  885THF     C811500   2.817   4.885   4.837 -0.9865  0.4084 -0.2155
  885THF     C911501   2.793   4.903   4.686  0.1390  0.3588 -0.5489
  885THF    H1011502   2.805   4.977   4.888 -1.3857 -0.3012 -0.2145
  885THF    H1111503   2.758   4.804   4.869 -1.1702  1.2214 -2.8145
  885THF    H1211504   2.797   4.810   4.644  1.3740  2.3435  2.4356
  885THF    H1311505   2.698   4.954   4.660  1.4530  1.1583 -1.0179
  886THF     O111506   4.581   3.967   2.603 -0.0989  0.2697 -0.0489
  886THF     C211507   4.712   3.912   2.627  0.0149  0.1291  0.9505
  886THF     C311508   4.607   4.093   2.554  0.1459 -0.9654  0.1466
  886THF     H411509   4.691   3.799   2.637  0.5912 -3.7837  0.8432
  886THF     H511510   4.756   3.944   2.726  1.3299 -3.1344  0.0403
  886THF     H611511   4.521   4.117   2.496  0.2570  0.6238  0.7941
  886THF     H711512   4.621   4.162   2.641 -1.7249 -1.7127  0.2617
  886THF     C811513   4.723   4.073   2.456 -0.9229 -0.0345  0.4930
  886THF     C911514   4.792   3.949   2.500 -0.0353 -0.5406  1.3700
  886THF    H1011515   4.789   4.163   2.466 -1.0662  0.1184 -0.5146
  886THF    H1111516   4.693   4.071   2.344 -0.4035  0.0311 -2.6770
  886THF    H1211517   4.780   3.871   2.430  0.9641  2.4217 -0.5774
  886THF    H1311518   4.895   3.951   2.517 -1.9657  1.0640 -0.7653
  887THF     O111519   4.995   0.631   3.465  0.3091 -0.2777  0.6738
  887THF     C211520   5.056   0.550   3.363  0.1449 -0.1634 -0.2530
  887THF     C311521   4.923   0.741   3.399 -0.5639 -0.1739  0.2409
  887THF     H411522   5.015   0.447   3.376  2.1133  0.4625  0.3422
  887THF     H511523   5.162   0.559   3.371  1.1150  1.5066  2.3868
  887THF     H611524   4.848   0.792   3.459 -2.3644  0.9609  1.2370
  887THF     H711525   4.996   0.817   3.367 -0.7361 -4.1333  0.9454
  887THF     C811526   4.879   0.685   3.272  0.5463 -0.3217  0.2635
  887THF     C911527   4.990   0.593   3.222 -0.0717 -0.9205  0.1465
  887THF    H1011528   4.874   0.768   3.203 -2.5465  2.0557 -0.6250
  887THF    H1111529   4.777   0.651   3.272  2.1643  0.4732 -0.3814
  887THF    H1211530   4.959   0.509   3.158 -1.0040  3.6300  1.8374
  887THF    H1311531   5.059   0.656   3.167  2.0638  1.4075 -2.5458
  888THF     O111532   1.887   4.683   3.220  0.1249 -0.5147  0.0099
  888THF     C211533   1.781   4.601   3.270  0.2123 -0.7453  0.0823
  888THF     C311534   2.007   4.617   3.243  0.3528  0.5333 -0.5094
  888THF     H411535   1.769   4.506   3.217 -0.8943  1.4126 -0.9345
  888THF     H511536   1.687   4.661   3.287 -0.5900 -0.7977  0.3801
  888THF     H611537   2.026   4.522   3.184 -0.6869 -1.8086 -0.5170
  888THF     H711538   2.097   4.677   3.229  1.2291 -0.8502 -0.5506
  888THF     C811539   1.990   4.591   3.388 -1.3763 -0.0033 -0.6160
  888THF     C911540   1.843   4.552   3.401 -0.8036  0.4430 -0.0234
  888THF    H1011541   2.001   4.676   3.452 -1.6313  0.0931 -0.0069
  888THF    H1111542   2.051   4.510   3.430  1.4614 -0.8959  0.0350
  888THF    H1211543   1.836   4.446   3.405  1.6306  1.5803 -0.3721
  888THF    H1311544   1.800   4.606   3.487 -1.7982 -2.5982 -3.9708
  889THF     O111545   0.940   0.345   0.360  0.2156  0.0849 -0.3752
  889THF     C211546   1.001   0.244   0.446 -0.1176  0.0388 -0.6036
  889THF     C311547   0.860   0.282   0.261 -0.5887 -0.3017  0.7601
  889THF     H411548   1.003   0.303   0.535  1.6614 -0.0958  2.7535
  889THF     H511549   1.102   0.222   0.400  3.6344  1.4348  0.7328
  889THF     H611550   0.783   0.337   0.217  0.0059 -4.4696 -0.2616
  889THF     H711551   0.929   0.264   0.183  0.2076  3.3189 -1.9959
  889THF     C811552   0.816   0.154   0.328  0.0714  0.6521  0.2152
  889THF     C911553   0.903   0.128   0.446  0.1937  0.3143 -0.1327
  889THF    H1011554   0.819   0.070   0.257 -0.3178 -2.7607  0.6787
  889THF    H1111555   0.712   0.165   0.368 -3.0505 -0.4737 -1.2821
  889THF    H1211556   0.839   0.114   0.541 -1.2012 -0.2413 -2.4722
  889THF    H1311557   0.956   0.032   0.443  2.9458  0.0031 -0.6841
  890THF     O111558   4.390   0.029   2.493 -0.0607 -0.0545 -0.1579
  890THF     C211559   4.519   0.037   2.548  0.2437 -0.4523  0.7346
  890THF     C311560   4.373   0.092   2.364  0.2513 -0.0203  0.0100
  890THF     H411561   4.560  -0.057   2.597  0.2306  1.0969  0.5516
  890THF     H511562   4.522   0.107   2.635  1.0207 -1.9216 -1.3751
  890THF     H611563   4.297   0.040   2.301 -2.0948  0.7378 -1.0432
  890THF     H711564   4.341   0.198   2.374 -1.6270  1.9735  1.4443
  890THF     C811565   4.512   0.073   2.308  1.0096  0.5862 -0.3899
  890THF     C911566   4.599   0.090   2.427 -0.6416 -0.2913  0.1090
  890THF    H1011567   4.534   0.148   2.228 -3.2125 -0.8366  0.3615
  890THF    H1111568   4.529  -0.027   2.265  0.8466 -3.4061 -0.2601
  890THF    H1211569   4.704   0.050   2.418  1.5700  0.0688 -2.3905
  890THF    H1311570   4.622   0.199   2.433 -0.2257 -0.6250 -1.1687
  891THF     O111571   2.779   0.108   2.200  0.8223  0.0824  0.0123
  891THF     C211572   2.876   0.003   2.219 -0.2518  0.6800  0.4957
  891THF     C311573   2.694   0.066   2.095 -0.2273 -0.2843 -0.4811
  891THF     H411574   2.901  -0.010   2.326 -1.0123  1.2338 -2.1770
  891THF     H511575   2.968   0.023   2.159 -0.5605  2.5324  0.2626
  891THF     H611576   2.598   0.068   2.142 -1.2178 -0.9288 -2.6785
  891THF     H711577   2.690   0.137   2.015 -0.7598 -0.4725  0.8960
  891THF     C811578   2.729  -0.079   2.052 -0.0855  0.1315 -0.8227
  891THF     C911579   2.813  -0.127   2.169  0.1347  0.2739 -0.0144
  891THF    H1011580   2.788  -0.078   1.969  0.1730  0.7918 -0.2693
  891THF    H1111581   2.639  -0.135   2.030  2.6031  1.2279  0.5361
  891THF    H1211582   2.753  -0.173   2.245  0.5945 -2.1474  0.7163
  891THF    H1311583   2.896  -0.199   2.141 -1.2955  0.6923  0.0953
  892THF     O111584   5.415   2.585   5.457 -0.5207 -0.3639 -0.5298
  892THF     C211585   5.414   2.514   5.581  0.6678  0.1755 -0.1855
  892THF     C311586   5.541   2.552   5.400  1.0460  0.1927  0.4269
  892THF     H411587   5.393   2.409   5.555  1.1531 -0.7205 -0.9412
  892THF     H511588   5.334   2.546   5.651  1.4158 -2.0543  2.9497
  892THF     H611589   5.522   2.481   5.321 -0.9963 -1.7659  0.2582
  892THF     H711590   5.575   2.639   5.336 -2.5392 -0.5264  0.7030
  892THF     C811591   5.639   2.506   5.508  0.0728 -0.5957  0.2713
  892THF     C911592   5.564   2.533   5.633  0.0786  0.5195  0.2468
  892THF    H1011593   5.726   2.565   5.479  0.4065  3.6386  0.9722
  892THF    H1111594   5.654   2.396   5.483  0.7150 -0.2725 -1.1977
  892THF    H1211595   5.594   2.474   5.716  1.8970 -0.6568 -0.4015
  892THF    H1311596   5.581   2.629   5.679  1.4774 -0.6102  4.3278
  893THF     O111597   4.668   2.520   2.255 -0.1346 -0.0114  0.1651
  893THF     C211598   4.548   2.455   2.293  0.4299  0.1407  0.7643
  893THF     C311599   4.702   2.614   2.353  0.2969 -0.1173  0.3747
  893THF     H411600   4.559   2.359   2.335 -1.6320  1.6690  1.9195
  893THF     H511601   4.481   2.426   2.207 -0.5179 -1.1757  0.4386
  893THF     H611602   4.751   2.559   2.430  0.2590  0.7564  0.9268
  893THF     H711603   4.769   2.683   2.313 -0.1046 -2.2474  1.1739
  893THF     C811604   4.569   2.663   2.410 -0.0272 -0.0460  0.4071
  893THF     C911605   4.471   2.547   2.392 -0.4068 -0.6589  0.7256
  893THF    H1011606   4.521   2.755   2.363 -0.4215  1.3313 -2.0635
  893THF    H1111607   4.584   2.689   2.515  1.7257 -1.4550  0.7814
  893THF    H1211608   4.453   2.484   2.480 -0.5191  2.7206 -2.9032
  893THF    H1311609   4.382   2.597   2.352 -1.5273  0.9700  1.0614
  894THF     O111610   3.485   4.963   2.480 -0.0280 -0.0695 -0.1425
  894THF     C211611   3.615   4.914   2.432  0.0371 -0.2923  0.1770
  894THF     C311612   3.493   5.106   2.469  0.1742  0.1847 -0.7449
  894THF     H411613   3.620   4.916   2.325 -0.7021  1.7130 -0.3195
  894THF     H511614   3.626   4.808   2.447 -2.0389 -0.1796 -0.6861
  894THF     H611615   3.506   5.148   2.365 -1.0869 -0.9253  0.5889
  894THF     H711616   3.417   5.149   2.525  1.2199  3.6269  0.8729
  894THF     C811617   3.623   5.125   2.542  0.3987  0.3623 -0.1270
  894THF     C911618   3.711   5.004   2.499  0.3099 -0.0640  0.1489
  894THF    H1011619   3.604   5.124   2.653 -0.1124 -0.2964  0.4508
  894THF    H1111620   3.666   5.218   2.515  0.2208 -0.1610  0.1512
  894THF    H1211621   3.793   5.042   2.431 -2.3590  1.3747  1.3666
  894THF    H1311622   3.759   4.953   2.585 -2.0468 -0.1042  0.1471
  895THF     O111623   2.354   2.918   1.315  0.2036 -0.1663  0.3524
  895THF     C211624   2.326   2.784   1.284 -0.8780  0.7088  0.2332
  895THF     C311625   2.252   2.994   1.236  0.4504 -0.1265  0.5548
  895THF     H411626   2.235   2.740   1.336  1.4980 -2.6572  1.2152
  895THF     H511627   2.408   2.725   1.324 -1.3549  0.9010 -1.7001
  895THF     H611628   2.152   2.992   1.273 -0.2494  0.8194  1.2464
  895THF     H711629   2.281   3.099   1.221 -0.4985  0.1215  0.8941
  895THF     C811630   2.274   2.932   1.100  0.5384 -0.3140 -0.1069
  895THF     C911631   2.316   2.789   1.131  0.1866 -0.4665  0.3188
  895THF    H1011632   2.352   2.975   1.041  3.7079 -2.7392  1.1725
  895THF    H1111633   2.191   2.929   1.031  2.7856 -0.2653  0.4402
  895THF    H1211634   2.242   2.724   1.082 -1.1961  0.7987  0.7496
  895THF    H1311635   2.406   2.778   1.085 -0.3609  1.6433  0.1380
  896THF     O111636   0.012   4.574   2.986  0.0473  0.2142 -0.1777
  896THF     C211637   0.121   4.549   2.886  0.3370  0.1752  0.4509
  896THF     C311638  -0.068   4.680   2.954 -0.1943 -0.2993  0.2463
  896THF     H411639   0.116   4.448   2.859 -0.1793  3.8239  1.1715
  896THF     H511640   0.216   4.582   2.919 -1.1740  2.9466  1.2017
  896THF     H611641  -0.171   4.662   2.988 -0.0180  0.9023 -2.6594
  896THF     H711642  -0.034   4.779   2.980 -1.2319 -0.3818 -0.5894
  896THF     C811643  -0.065   4.659   2.800  0.2242 -0.5883  0.6078
  896THF     C911644   0.073   4.617   2.760  0.0070 -0.3375  0.4430
  896THF    H1011645  -0.090   4.746   2.741 -0.1376 -1.7707 -1.1672
  896THF    H1111646  -0.131   4.583   2.781  2.0469  0.3442  1.6759
  896THF    H1211647   0.083   4.555   2.675 -1.2293 -2.3282  1.9604
  896THF    H1311648   0.139   4.707   2.744  0.8152  1.9261  1.0228
  897THF     O111649   5.467   5.454   1.667  0.2708 -0.0761  0.1283
  897THF     C211650   5.352   5.462   1.757 -0.0692  0.1944  0.7730
  897THF     C311651   5.565   5.385   1.740 -0.4472  0.5217  0.1463
  897THF     H411652   5.304   5.359   1.771 -0.1714 -0.4129 -0.3509
  897THF     H511653   5.270   5.529   1.715 -2.5304  4.1327 -0.3004
  897THF     H611654   5.536   5.276   1.732  2.4691 -1.1274  1.9617
  897THF     H711655   5.670   5.391   1.702  0.5205  1.0325  0.4635
  897THF     C811656   5.561   5.441   1.882 -0.1039 -0.6706 -0.1852
  897THF     C911657   5.417   5.506   1.886 -0.4572 -0.5287 -0.2376
  897THF    H1011658   5.638   5.516   1.894  3.6034 -0.6906 -2.8370
  897THF    H1111659   5.580   5.369   1.951  1.8753  2.0884 -2.8439
  897THF    H1211660   5.367   5.450   1.970 -1.6003  1.6136  1.3392
  897THF    H1311661   5.401   5.612   1.918  0.4965  1.0056  0.3551
  898THF     O111662   2.049   3.514   1.716 -0.2338  0.3235 -0.3471
  898THF     C211663   2.077   3.403   1.804 -0.4085  0.1752  0.6032
  898THF     C311664   1.924   3.486   1.654  0.0654 -0.1877 -0.1694
  898THF     H411665   2.015   3.428   1.892 -0.8109  1.0889  0.6756
  898THF     H511666   2.177   3.398   1.843  2.0085  2.1303 -0.7592
  898THF     H611667   1.840   3.499   1.718  2.8317  1.4301 -0.1220
  898THF     H711668   1.921   3.556   1.576 -1.2220  1.5952  0.4833
  898THF     C811669   1.939   3.343   1.611 -0.1920 -0.0266 -0.1082
  898THF     C911670   2.027   3.278   1.720  0.0780  0.9015 -0.4600
  898THF    H1011671   1.997   3.341   1.522  0.9602  0.4220  0.3909
  898THF    H1111672   1.840   3.304   1.583  1.8856 -0.1551 -4.7466
  898THF    H1211673   1.962   3.223   1.790  0.7227 -0.3570 -0.9169
  898THF    H1311674   2.107   3.207   1.684 -1.3111 -1.4502  0.5770
  899THF     O111675   2.675   2.939   3.922  0.3522  0.0563  0.1572
  899THF     C211676   2.763   2.933   4.031 -0.0494 -0.0551 -0.2180
  899THF     C311677   2.538   2.936   3.954 -0.0127  0.1937  0.4655
  899THF     H411678   2.766   3.023   4.086 -0.4117 -0.2950 -2.9934
  899THF     H511679   2.863   2.908   4.003 -0.3161  1.6473  1.1681
  899THF     H611680   2.499   3.034   3.980 -1.4716 -1.9637  2.1576
  899THF     H711681   2.465   2.915   3.879  2.0804  1.5463 -0.9326
  899THF     C811682   2.537   2.841   4.073 -0.2960 -0.6254  0.4460
  899THF     C911683   2.683   2.834   4.117  0.3444 -0.1544  0.2530
  899THF    H1011684   2.499   2.742   4.050  2.1096  0.9599 -0.1703
  899THF    H1111685   2.462   2.875   4.149  0.4747  0.2856 -0.7883
  899THF    H1211686   2.688   2.855   4.224  0.6290 -1.5965 -0.3056
  899THF    H1311687   2.718   2.736   4.090 -2.9751  0.8423  0.2722
  900THF     O111688   1.308   0.841   3.940 -0.2507  0.1716 -0.3674
  900THF     C211689   1.197   0.769   3.978  0.2647  0.4083  0.5092
  900THF     C311690   1.419   0.751   3.955  0.2246  0.3590 -0.4012
  900THF     H411691   1.107   0.820   3.929 -1.8839  1.3172 -3.6328
  900THF     H511692   1.182   0.750   4.085 -1.1206  1.0916  2.0196
  900THF     H611693   1.510   0.796   3.906 -1.8131  0.9376  0.7392
  900THF     H711694   1.444   0.736   4.061  1.1731  1.7525  0.1402
  900THF     C811695   1.372   0.620   3.888  0.7815 -0.0028  0.3997
  900THF     C911696   1.215   0.632   3.920  0.3286 -0.1890 -0.2192
  900THF    H1011697   1.413   0.541   3.940 -1.6918  1.1274 -1.7651
  900THF    H1111698   1.394   0.621   3.775  0.8226 -0.8412 -0.9537
  900THF    H1211699   1.161   0.621   3.824 -1.7325 -0.3108 -0.1670
  900THF    H1311700   1.184   0.552   3.984  1.4366 -2.2213 -0.1056
  901THF     O111701   4.486   4.754   0.205 -0.5950  0.3812 -0.6374
  901THF     C211702   4.382   4.761   0.303 -0.0662  0.4823 -0.1504
  901THF     C311703   4.491   4.626   0.144  0.0964 -0.2464  0.0337
  901THF     H411704   4.283   4.795   0.266  0.0957  2.9880 -1.0522
  901THF     H511705   4.423   4.822   0.384 -1.8074 -1.6726 -0.9806
  901THF     H611706   4.426   4.624   0.054  0.4217 -0.3893 -1.4873
  901THF     H711707   4.586   4.606   0.103  3.0448  0.4509  1.0913
  901THF     C811708   4.432   4.534   0.252  0.2228 -0.4105 -0.2918
  901THF     C911709   4.363   4.624   0.351 -0.7039 -0.5025  0.2563
  901THF    H1011710   4.523   4.481   0.296  1.4979 -0.2400 -0.1546
  901THF    H1111711   4.368   4.458   0.203 -2.6018 -1.8888 -0.3747
  901THF    H1211712   4.255   4.602   0.364  0.2354 -0.2435  0.0923
  901THF    H1311713   4.412   4.611   0.444 -0.6876 -2.1188  0.5422
  902THF     O111714   0.625   5.409   0.104 -0.9985  0.2073  0.1553
  902THF     C211715   0.494   5.448   0.119  0.0740  0.5896 -0.6086
  902THF     C311716   0.640   5.296   0.012  0.0808 -1.2931 -0.6233
  902THF     H411717   0.471   5.523   0.044 -0.1777 -0.6103 -0.1230
  902THF     H511718   0.466   5.483   0.217 -1.3534  0.8610  0.6410
  902THF     H611719   0.700   5.346  -0.062 -0.8184 -2.0692  1.2278
  902THF     H711720   0.685   5.207   0.058  0.4465 -0.8758 -0.7738
  902THF     C811721   0.501   5.252  -0.017  0.2120  0.2122  1.2262
  902THF     C911722   0.414   5.314   0.094  0.2411  0.5987  0.7064
  902THF    H1011723   0.497   5.146  -0.033 -0.7967 -2.5320 -1.2276
  902THF    H1111724   0.454   5.295  -0.106 -2.7488  0.1133  1.3850
  902THF    H1211725   0.311   5.335   0.072 -0.3881  0.5640 -0.9396
  902THF    H1311726   0.420   5.244   0.174  1.4763  3.4033  0.5525
  903THF     O111727   1.299   0.515   1.747 -0.0231 -0.4107  0.0660
  903THF     C211728   1.204   0.415   1.763  0.2306  0.2888 -0.3368
  903THF     C311729   1.255   0.634   1.807  0.2937 -0.5815  0.1459
  903THF     H411730   1.244   0.318   1.734 -0.6478  2.2184 -1.9538
  903THF     H511731   1.114   0.430   1.707 -1.0421  0.2327  0.9523
  903THF     H611732   1.336   0.714   1.828  0.9482  3.2008 -0.0670
  903THF     H711733   1.189   0.694   1.730 -1.5431  5.3238 -1.0799
  903THF     C811734   1.180   0.582   1.928 -0.1886  0.6560 -0.1066
  903THF     C911735   1.170   0.433   1.910 -0.0481  0.6636  0.7430
  903THF    H1011736   1.087   0.634   1.937  1.3257  0.8858  1.5919
  903THF    H1111737   1.239   0.605   2.015  0.0990 -1.6148  0.0949
  903THF    H1211738   1.243   0.376   1.958  0.2255  1.2594 -1.4697
  903THF    H1311739   1.071   0.394   1.925  0.6643 -0.0414 -0.1509
  904THF     O111740   4.654   2.148   1.562 -0.2699 -0.1806 -0.3988
  904THF     C211741   4.596   2.016   1.565 -0.3380 -0.5177  0.0459
  904THF     C311742   4.633   2.206   1.693  0.1108  0.7437  0.0001
  904THF     H411743   4.663   1.935   1.551  3.5421  0.7572 -2.8858
  904THF     H511744   4.526   2.002   1.483  0.4329 -0.1804 -1.5986
  904THF     H611745   4.728   2.195   1.748  2.8378 -2.3831 -2.3572
  904THF     H711746   4.616   2.313   1.665 -3.0113  1.4025 -2.0942
  904THF     C811747   4.509   2.133   1.748 -0.0220  0.4516  0.4661
  904THF     C911748   4.540   1.993   1.706 -0.3898  0.1365  0.0972
  904THF    H1011749   4.423   2.159   1.691 -1.5753  0.0829 -0.4447
  904THF    H1111750   4.475   2.151   1.850 -0.5017  2.4781  2.2100
  904THF    H1211751   4.623   1.962   1.772 -1.9945  1.3366  0.1118
  904THF    H1311752   4.446   1.933   1.708  0.7438  1.7946  0.8363
  905THF     O111753   5.478   1.002   2.370  0.3466 -0.1522  0.3215
  905THF     C211754   5.431   0.880   2.314 -0.0110 -0.3770 -0.9910
  905THF     C311755   5.436   1.011   2.505 -0.1565  0.9717  0.0026
  905THF     H411756   5.512   0.831   2.259  0.1895 -0.6706 -0.5604
  905THF     H511757   5.349   0.893   2.236 -1.6564  0.8498 -0.0414
  905THF     H611758   5.500   1.079   2.562  1.2774  1.6608  0.7233
  905THF     H711759   5.350   1.068   2.500 -3.5285  0.0519 -3.1205
  905THF     C811760   5.414   0.866   2.548  0.4149 -0.3382  0.0113
  905THF     C911761   5.367   0.799   2.424 -1.2970  0.5650 -0.1763
  905THF    H1011762   5.349   0.851   2.634  1.6046 -0.5296 -3.0650
  905THF    H1111763   5.503   0.809   2.567  1.1276  1.2880  1.2891
  905THF    H1211764   5.392   0.687   2.422 -0.2855  0.7776 -2.2312
  905THF    H1311765   5.257   0.804   2.429 -1.0681  0.9345 -4.6187
  906THF     O111766   2.700   3.170   2.678  0.5248  0.4576 -0.0236
  906THF     C211767   2.742   3.264   2.579  0.3981 -0.4336 -0.4000
  906THF     C311768   2.818   3.141   2.763  0.1892  0.0539  0.1135
  906THF     H411769   2.647   3.318   2.555 -2.8476  0.5922  0.8862
  906THF     H511770   2.804   3.218   2.499 -0.2566 -0.4285 -1.9536
  906THF     H611771   2.807   3.124   2.866  0.2575 -1.6441 -0.2339
  906THF     H711772   2.868   3.055   2.720 -0.0790  2.1851  1.2148
  906THF     C811773   2.903   3.260   2.756  0.3076 -0.6974  0.1368
  906THF     C911774   2.840   3.355   2.651  0.6595  1.0223  0.0518
  906THF    H1011775   3.002   3.229   2.721 -1.6285 -2.8301  0.6652
  906THF    H1111776   2.920   3.315   2.846 -2.0235  0.4967  0.8559
  906THF    H1211777   2.785   3.434   2.690  0.2120 -0.7871  0.8707
  906THF    H1311778   2.908   3.392   2.576 -0.6337  0.6138  0.3373
  907THF     O111779   1.914   5.297   0.273  0.0761  0.2388 -0.3074
  907THF     C211780   1.892   5.288   0.416  0.2808 -0.2704  0.2211
  907THF     C311781   1.784   5.291   0.213  0.3193  0.5597  0.4226
  907THF     H411782   1.858   5.384   0.450 -1.1579 -2.5538  1.8368
  907THF     H511783   1.980   5.249   0.467  2.1100 -0.2466 -1.9814
  907THF     H611784   1.732   5.381   0.207 -0.7229 -2.2958  0.8736
  907THF     H711785   1.786   5.243   0.111  1.9935 -0.7318  0.2710
  907THF     C811786   1.711   5.187   0.287 -0.1183 -0.1908 -0.1193
  907THF     C911787   1.770   5.186   0.429  0.0947  0.6124 -0.3201
  907THF    H1011788   1.728   5.093   0.234 -1.8457  0.5117 -1.5969
  907THF    H1111789   1.602   5.207   0.280  2.5315  0.8435 -1.2119
  907THF    H1211790   1.701   5.199   0.511 -0.5837 -2.0576  1.8650
  907THF    H1311791   1.807   5.090   0.458  1.3523  1.3292 -0.7593
  908THF     O111792   1.833   0.513   0.412  0.5820 -0.2878  0.1377
  908THF     C211793   1.698   0.512   0.365 -0.4550 -0.3328  0.3049
  908THF     C311794   1.834   0.493   0.555 -0.4303 -0.4136  0.1898
  908THF     H411795   1.654   0.414   0.357 -1.2602  1.1345 -1.5015
  908THF     H511796   1.676   0.567   0.277  0.3831  1.0608  1.5212
  908THF     H611797   1.814   0.389   0.573 -2.5526  1.1186 -2.1187
  908THF     H711798   1.930   0.508   0.596 -3.1155 -3.7330 -0.7881
  908THF     C811799   1.726   0.592   0.593  0.7166  0.0959 -1.0046
  908THF     C911800   1.623   0.587   0.471 -0.0263 -0.1944 -0.5997
  908THF    H1011801   1.759   0.693   0.603  1.5625  1.3118  0.9241
  908THF    H1111802   1.671   0.569   0.689  1.4993 -1.8183  0.0826
  908THF    H1211803   1.542   0.524   0.489  1.1967 -1.3678 -0.2364
  908THF    H1311804   1.587   0.683   0.446 -1.4891  1.0423  0.0655
  909THF     O111805   1.044   2.796   2.956 -0.0667  0.5597  0.3763
  909THF     C211806   0.950   2.824   2.851 -0.1345 -1.0294 -0.5429
  909THF     C311807   1.174   2.844   2.915 -0.6100  0.5138 -0.0321
  909THF     H411808   0.846   2.836   2.884 -0.0807  0.6761  0.7808
  909THF     H511809   0.951   2.766   2.769  1.9643 -2.9241  0.9688
  909THF     H611810   1.238   2.872   3.004 -2.0276 -0.0586 -0.5068
  909THF     H711811   1.221   2.775   2.853 -2.9946  3.6759  1.6408
  909THF     C811812   1.145   2.960   2.824  0.3353 -0.4219  0.4328
  909THF     C911813   0.996   2.971   2.820 -0.0287  0.5916  0.1232
  909THF    H1011814   1.191   2.942   2.723  0.6900  0.0064 -4.3556
  909THF    H1111815   1.184   3.048   2.860 -0.1173 -0.0352 -1.3188
  909THF    H1211816   0.973   3.033   2.906 -0.4032  1.9000 -2.1284
  909THF    H1311817   0.958   3.020   2.728  0.5087 -1.2614 -0.4301
  910THF     O111818   3.634   5.119   3.926  0.1739 -0.0262 -0.0395
  910THF     C211819   3.528   5.155   4.022 -0.3705 -0.1394  0.1567
  910THF     C311820   3.749   5.187   3.955 -0.2370  0.0752  0.1245
  910THF     H411821   3.527   5.083   4.100 -1.5717 -1.6194  0.6715
  910THF     H511822   3.431   5.157   3.978  1.1082 -1.6444  0.8933
  910THF     H611823   3.792   5.141   4.045 -0.2403  1.3711  1.2838
  910THF     H711824   3.815   5.197   3.867  0.2298 -0.3273  0.3519
  910THF     C811825   3.689   5.324   3.995 -0.1538 -0.1299 -0.0271
  910THF     C911826   3.579   5.289   4.080 -0.7611 -0.0125  0.4760
  910THF    H1011827   3.648   5.370   3.903 -2.0101 -2.5720  1.2913
  910THF    H1111828   3.764   5.396   4.038  2.1560 -1.2498  0.5595
  910THF    H1211829   3.612   5.284   4.182  0.3952  3.4812  0.2281
  910THF    H1311830   3.498   5.360   4.070  0.2702 -0.5263 -0.1981
  911THF     O111831   0.140   1.779   1.531 -0.6604  0.2822 -0.0764
  911THF     C211832   0.276   1.762   1.504  0.2530 -0.1998  0.4575
  911THF     C311833   0.077   1.670   1.468  0.1928 -0.4839 -0.3319
  911THF     H411834   0.322   1.686   1.569 -0.0143  2.8593 -0.4701
  911THF     H511835   0.325   1.862   1.516  3.4606 -0.7269  1.4264
  911THF     H611836   0.084   1.581   1.527  0.8610  2.1214 -0.9505
  911THF     H711837  -0.030   1.691   1.475 -1.9033 -1.1940  0.0865
  911THF     C811838   0.148   1.660   1.335 -0.2191 -0.1326 -0.0485
  911THF     C911839   0.287   1.699   1.370  0.0689 -0.1217  0.2735
  911THF    H1011840   0.112   1.716   1.254 -0.5564 -0.7132  0.9104
  911THF    H1111841   0.138   1.557   1.299  0.1361  1.4833 -0.6778
  911THF    H1211842   0.351   1.611   1.378  2.4624  1.1776  0.6041
  911THF    H1311843   0.341   1.750   1.290 -0.2439 -0.0290 -1.7965
  912THF     O111844   0.044   0.146   5.286 -0.4006  0.0345  0.7691
  912THF     C211845   0.078   0.153   5.146  0.2030  0.7322  0.2587
  912THF     C311846   0.138   0.061   5.348  0.0197 -0.5995 -0.4961
  912THF     H411847   0.061   0.249   5.097 -3.1401 -2.8786 -0.4025
  912THF     H511848   0.016   0.073   5.108 -2.9310 -1.2989  2.0606
  912THF     H611849   0.181   0.126   5.422  0.2504  2.9352 -0.6486
  912THF     H711850   0.099  -0.027   5.408 -0.9343  1.8342  1.1404
  912THF     C811851   0.242   0.016   5.251  0.1929  0.2787 -0.2274
  912THF     C911852   0.230   0.123   5.138  0.1514  0.1741 -0.1938
  912THF    H1011853   0.208  -0.078   5.202 -0.8470 -1.1945  0.4006
  912THF    H1111854   0.335  -0.012   5.295 -1.6966 -0.4220  3.0998
  912THF    H1211855   0.287   0.205   5.157 -3.6337 -0.1409 -1.0569
  912THF    H1311856   0.279   0.087   5.046  1.4273  1.6807 -1.4173
  913THF     O111857   3.766   1.919   2.219 -0.5495 -0.3497  0.4129
  913THF     C211858   3.884   1.841   2.206 -0.6652  1.1588  0.1802
  913THF     C311859   3.803   2.049   2.257 -0.4720  0.0853  0.2059
  913THF     H411860   3.906   1.815   2.105  2.2296 -0.4245  1.7369
  913THF     H511861   3.878   1.745   2.251 -0.3328 -0.5530  1.5171
  913THF     H611862   3.758   2.109   2.185 -0.5256 -0.2984 -0.6109
  913THF     H711863   3.755   2.070   2.357 -0.5847 -0.7440 -1.2543
  913THF     C811864   3.953   2.057   2.271  0.2740  0.8415  0.4161
  913THF     C911865   3.991   1.920   2.279 -0.3787  0.3114  0.3175
  913THF    H1011866   3.987   2.122   2.348  0.1686  1.5975 -1.5137
  913THF    H1111867   3.997   2.102   2.181  2.7952 -4.2710  0.2597
  913THF    H1211868   4.092   1.892   2.255 -0.1578  1.6630  2.1506
  913THF    H1311869   3.972   1.896   2.394  0.6763 -0.3633  1.1224
  914THF     O111870   5.075   2.532   5.273  0.4317 -0.8902  0.2315
  914THF     C211871   4.991   2.530   5.159 -0.1788 -0.7281  0.7481
  914THF     C311872   5.074   2.396   5.330  0.2608 -0.5833 -0.6742
  914THF     H411873   5.002   2.622   5.108 -2.0564 -0.4145  2.5019
  914THF     H511874   4.885   2.528   5.190  0.8597 -1.2305  0.6545
  914THF     H611875   5.149   2.384   5.401  0.7490  0.4656  2.6374
  914THF     H711876   4.976   2.388   5.379 -1.6047 -0.1431 -2.5585
  914THF     C811877   5.093   2.317   5.200  0.0359  0.0677  0.2006
  914THF     C911878   5.040   2.400   5.087 -0.2158  0.0180  0.2995
  914THF    H1011879   5.046   2.220   5.207 -0.2056 -2.0951  1.9714
  914THF    H1111880   5.199   2.294   5.179  1.7053 -1.3204  2.6094
  914THF    H1211881   5.125   2.416   5.020  1.4741 -0.1046  1.4768
  914THF    H1311882   4.957   2.353   5.040  0.5751 -1.0289  0.1092
  915THF     O111883   4.748   3.618   3.534  0.7309 -0.7748  0.2216
  915THF     C211884   4.651   3.653   3.434 -0.0886 -0.1801 -0.2170
  915THF     C311885   4.789   3.733   3.609  0.1230 -0.4197  0.2956
  915THF     H411886   4.551   3.656   3.477  2.0240 -0.6419 -0.6981
  915THF     H511887   4.638   3.586   3.347 -3.8192 -0.8125  1.5601
  915THF     H611888   4.724   3.754   3.699 -0.5602 -3.1053  1.6383
  915THF     H711889   4.888   3.713   3.649 -2.0199  1.1008  1.6584
  915THF     C811890   4.782   3.853   3.507  0.2715  1.1028 -0.5638
  915THF     C911891   4.701   3.792   3.396 -0.1080  1.0445 -0.5700
  915THF    H1011892   4.884   3.868   3.467 -1.1497  1.5809 -0.3758
  915THF    H1111893   4.733   3.943   3.548 -0.4637  0.4751  1.8376
  915THF    H1211894   4.622   3.858   3.371 -0.0554 -1.7824  0.9799
  915THF    H1311895   4.762   3.773   3.308 -0.9722 -0.1024 -1.3043
  916THF     O111896   4.583   5.204   5.479  0.3092  0.3881  0.4453
  916THF     C211897   4.654   5.154   5.592 -0.2179 -0.8147  0.1340
  916THF     C311898   4.680   5.243   5.377 -0.0173 -0.5468  0.3554
  916THF     H411899   4.694   5.054   5.586 -0.2710  1.3732  0.8020
  916THF     H511900   4.591   5.146   5.686  0.7617 -2.2173 -1.7252
  916THF     H611901   4.703   5.151   5.324 -2.8519  2.6400  0.7632
  916THF     H711902   4.646   5.320   5.311 -0.7144 -1.6335 -1.0190
  916THF     C811903   4.796   5.302   5.461  0.9100 -0.4959 -0.1796
  916THF     C911904   4.764   5.269   5.606  0.4284 -0.3630  0.0660
  916THF    H1011905   4.795   5.409   5.452 -0.9301  1.3994  0.4523
  916THF    H1111906   4.889   5.254   5.437 -0.3085  3.2616  2.3839
  916THF    H1211907   4.854   5.241   5.668  0.1440  0.7381 -0.7591
  916THF    H1311908   4.734   5.359   5.665  2.4339 -1.2108  0.9161
  917THF     O111909   4.965   0.340   3.623 -0.0555 -0.2526 -0.6384
  917THF     C211910   5.039   0.263   3.716  0.1523  0.0898  0.1251
  917THF     C311911   4.878   0.254   3.551 -0.0479  0.2930  0.4761
  917THF     H411912   5.085   0.336   3.783  0.5529  1.4084  0.8993
  917THF     H511913   5.115   0.211   3.651  1.1490  2.5011 -3.0672
  917THF     H611914   4.792   0.302   3.497 -1.0073  0.4191 -2.8069
  917THF     H711915   4.942   0.209   3.467  2.6689 -0.7220 -3.3612
  917THF     C811916   4.829   0.157   3.657  0.1180 -0.1688 -0.4695
  917THF     C911917   4.937   0.163   3.770  0.0998 -1.0461 -0.5313
  917THF    H1011918   4.822   0.062   3.613 -1.8690  1.5538  1.9980
  917THF    H1111919   4.729   0.184   3.692 -3.4581 -0.6712 -1.5528
  917THF    H1211920   4.882   0.203   3.861 -0.2205 -0.9729  0.5062
  917THF    H1311921   4.970   0.060   3.785 -2.2060 -3.4129 -0.8314
  918THF     O111922   1.855   1.708   4.790 -0.8634  0.1242 -0.2184
  918THF     C211923   1.732   1.767   4.745  0.2379  0.3825 -0.8706
  918THF     C311924   1.945   1.815   4.784  1.0122 -0.0411 -0.3932
  918THF     H411925   1.670   1.828   4.815 -0.1662  2.7404 -3.1591
  918THF     H511926   1.675   1.678   4.719 -2.0155 -0.3182  1.3580
  918THF     H611927   1.916   1.891   4.853 -1.5917  0.9183 -0.4548
  918THF     H711928   2.041   1.794   4.813 -1.9762  0.3544 -1.0919
  918THF     C811929   1.917   1.879   4.649 -0.7400  0.3068 -0.7023
  918THF     C911930   1.769   1.844   4.625  0.3897 -0.4649  0.1926
  918THF    H1011931   1.978   1.815   4.579 -2.2960 -2.2702 -0.4717
  918THF    H1111932   1.941   1.989   4.641 -2.7715 -0.3105 -1.6071
  918THF    H1211933   1.696   1.926   4.629  3.0739  1.9508  2.1480
  918THF    H1311934   1.749   1.790   4.533 -0.6307 -1.2611 -0.3225
  919THF     O111935   1.347   5.341   0.080 -0.0221  0.4732 -0.1917
  919THF     C211936   1.316   5.344   0.221 -0.5750  1.0890  1.0495
  919THF     C311937   1.260   5.445   0.030 -0.2959 -0.0196 -0.4276
  919THF     H411938   1.363   5.433   0.266  0.8590  1.1387 -1.1044
  919THF     H511939   1.364   5.257   0.264  0.2930 -0.5430 -0.3734
  919THF     H611940   1.301   5.544   0.042  0.5805  1.7404  1.0443
  919THF     H711941   1.256   5.414  -0.071 -0.1324  1.1196  1.6423
  919THF     C811942   1.129   5.436   0.113 -1.1732  0.4602 -0.7398
  919THF     C911943   1.161   5.329   0.221  0.7346 -0.5048 -0.6923
  919THF    H1011944   1.043   5.424   0.052 -1.1605  2.0791 -1.0224
  919THF    H1111945   1.123   5.535   0.161 -1.3969  0.4809 -1.5217
  919THF    H1211946   1.123   5.359   0.318 -0.4256  0.2386  1.3356
  919THF    H1311947   1.129   5.235   0.181  0.9125 -0.0418  0.8466
  920THF     O111948   1.123   2.117   2.905 -0.4908 -0.1647  0.2692
  920THF     C211949   0.992   2.120   2.855 -0.7702  0.6462  0.0751
  920THF     C311950   1.115   2.064   3.030 -0.2029 -0.4467 -0.3928
  920THF     H411951   0.955   2.021   2.836  0.8967  0.9680 -0.5616
  920THF     H511952   0.970   2.177   2.763 -2.0400  0.6431  1.8593
  920THF     H611953   1.109   1.956   3.033  1.8496  2.1319  0.5473
  920THF     H711954   1.185   2.118   3.104 -2.1130 -3.8917 -0.4543
  920THF     C811955   0.973   2.109   3.088  0.4695  0.0764  1.0990
  920THF     C911956   0.910   2.176   2.970 -0.3288 -0.2228  0.0770
  920THF    H1011957   0.991   2.184   3.165 -0.3079  3.0826  0.8295
  920THF    H1111958   0.920   2.020   3.131  1.9251 -1.7631 -0.2586
  920THF    H1211959   0.802   2.151   2.954 -1.2501 -2.9360  1.9804
  920THF    H1311960   0.922   2.277   2.985 -0.4161  0.2299  0.4769
  921THF     O111961   4.116   2.883   2.947  0.2227 -0.9049  0.0574
  921THF     C211962   4.061   2.967   3.041  1.1982 -0.0004  0.0662
  921THF     C311963   4.054   2.910   2.817  0.5241 -0.0334  0.4192
  921THF     H411964   4.134   3.000   3.113  0.5130  1.8956 -0.6776
  921THF     H511965   3.981   2.918   3.093 -0.0650 -0.4313 -0.4414
  921THF     H611966   4.120   2.891   2.732  0.9685  0.1628 -0.8965
  921THF     H711967   3.972   2.837   2.800 -1.5407  1.9846  0.1886
  921THF     C811968   4.013   3.058   2.814  0.1653 -0.2560  0.4396
  921THF     C911969   4.007   3.089   2.965  0.6422  0.4078  0.5264
  921THF    H1011970   3.912   3.076   2.774 -0.9344 -1.1371  1.6384
  921THF    H1111971   4.097   3.116   2.763  1.5646  0.6654 -0.8860
  921THF    H1211972   4.057   3.179   2.997 -2.9343  2.0208 -2.0702
  921THF    H1311973   3.897   3.095   2.988 -0.9020 -1.0889 -4.0476
  922THF     O111974   5.087   1.956   4.671  0.4619 -0.3456 -0.2606
  922THF     C211975   5.065   1.946   4.815 -0.4488  0.3658  0.2144
  922THF     C311976   5.217   2.019   4.655  0.5955  0.5282 -0.8228
  922THF     H411977   5.132   1.881   4.866  0.1064  3.1195  1.6967
  922THF     H511978   4.965   1.920   4.832 -0.2638 -1.1922 -3.5070
  922THF     H611979   5.300   1.942   4.658  2.5031  0.1171  0.0930
  922THF     H711980   5.227   2.061   4.553  0.6562  0.5145 -0.7074
  922THF     C811981   5.224   2.120   4.769 -0.0778  0.5707 -0.9932
  922THF     C911982   5.110   2.081   4.864 -0.2790 -0.1862  0.7382
  922THF    H1011983   5.217   2.225   4.738  1.5524  0.2809  1.5526
  922THF    H1111984   5.326   2.104   4.804 -0.5584 -0.8434 -2.0541
  922THF    H1211985   5.151   2.068   4.967  3.2065  2.2176  1.5637
  922THF    H1311986   5.038   2.155   4.860  1.7673 -0.2602  0.0881
  923THF     O111987   1.402   2.432   1.655 -0.1593  0.3368  0.2262
  923THF     C211988   1.387   2.491   1.529 -0.6716 -0.2992  0.4149
  923THF     C311989   1.278   2.363   1.690  0.2268 -0.3780  0.6172
  923THF     H411990   1.478   2.475   1.467 -0.2149  0.4971 -0.1382
  923THF     H511991   1.388   2.594   1.542 -0.0784 -0.6194  0.8610
  923THF     H611992   1.289   2.273   1.750 -1.9922 -1.3172  1.9797
  923THF     H711993   1.217   2.440   1.738 -0.7947 -1.2082 -0.1979
  923THF     C811994   1.207   2.331   1.554 -0.0536 -0.2922 -0.5137
  923THF     C911995   1.255   2.445   1.471 -0.0168 -0.1470  1.0793
  923THF    H1011996   1.102   2.317   1.556  2.7667  2.1862  0.5942
  923THF    H1111997   1.249   2.238   1.504 -1.0617 -2.7317 -1.6875
  923THF    H1211998   1.261   2.417   1.366 -4.2543  1.4530 -1.3054
  923THF    H1311999   1.193   2.531   1.481  2.7303 -0.0083 -0.9852
  924THF     O112000   0.399   0.944   4.368  0.0416  0.1097 -0.2176
  924THF     C212001   0.384   1.071   4.438 -0.0785  0.5820 -0.5064
  924THF     C312002   0.332   0.851   4.445 -0.2314 -0.0562  0.4669
  924THF     H412003   0.293   1.123   4.410 -0.3242 -0.4858 -1.0309
  924THF     H512004   0.469   1.134   4.433 -2.3171  0.2685 -0.9193
  924THF     H612005   0.222   0.855   4.428 -2.0936 -1.1971 -0.6196
  924THF     H712006   0.360   0.757   4.407  0.2595  0.8787 -0.6488
  924THF     C812007   0.361   0.879   4.588 -0.0547  0.2791  0.4193
  924THF     C912008   0.376   1.027   4.587 -0.5492 -0.2333  0.7506
  924THF    H1012009   0.454   0.835   4.624 -0.2846  0.0569  0.8421
  924THF    H1112010   0.289   0.837   4.655  4.0037  1.0014  2.6664
  924THF    H1212011   0.301   1.078   4.641  2.3239  1.2939 -1.1319
  924THF    H1312012   0.473   1.054   4.639  3.1041  2.5182 -0.3698
  925THF     O112013   1.776   3.335   4.985 -0.0069  0.2085 -0.1167
  925THF     C212014   1.900   3.364   4.923 -0.2322  0.2139  0.4530
  925THF     C312015   1.697   3.259   4.891  0.1713  0.2140 -0.2565
  925THF     H412016   1.984   3.303   4.966  1.1886 -0.4182 -0.8436
  925THF     H512017   1.930   3.472   4.926  0.8698 -0.1543 -2.9988
  925THF     H612018   1.639   3.179   4.941  0.1054  0.7098 -0.4816
  925THF     H712019   1.643   3.342   4.841  1.3614 -0.9906  0.9941
  925THF     C812020   1.792   3.203   4.781  0.1247 -0.9041  0.4727
  925THF     C912021   1.884   3.323   4.775  0.7364  0.3883 -0.1429
  925THF    H1012022   1.737   3.185   4.684  0.8049 -1.2927 -1.2423
  925THF    H1112023   1.844   3.111   4.809  2.6361  1.3309  0.5627
  925THF    H1212024   1.983   3.295   4.739 -0.3421  1.0928 -0.3610
  925THF    H1312025   1.835   3.401   4.721 -1.0773  0.1595  0.0054
  926THF     O112026   2.237   1.989   0.031 -0.9014  0.5273  0.3377
  926THF     C212027   2.225   1.860  -0.030 -0.1361 -0.0333  0.6514
  926THF     C312028   2.132   2.082  -0.023 -0.3396 -0.3969  0.0692
  926THF     H412029   2.272   1.791   0.040 -0.9727 -1.1823  2.3477
  926THF     H512030   2.277   1.856  -0.129  1.4107 -1.4073 -2.4773
  926THF     H612031   2.092   2.150   0.046  0.8540  0.9569  0.0976
  926THF     H712032   2.165   2.157  -0.108 -1.7446  1.1557  0.8378
  926THF     C812033   2.028   1.989  -0.079 -0.7148 -0.0370 -0.0677
  926THF     C912034   2.081   1.851  -0.042 -0.3644 -0.0309 -0.2632
  926THF    H1012035   2.024   2.001  -0.191  0.3071  0.0073 -1.0137
  926THF    H1112036   1.926   2.005  -0.045  2.2437  0.2279 -0.6722
  926THF    H1212037   2.049   1.833   0.064 -0.8432 -0.8909  0.2167
  926THF    H1312038   2.051   1.763  -0.104 -0.2553 -0.1655  0.9766
  927THF     O112039   5.002   4.737   2.352  0.0875 -0.4184  0.0621
  927THF     C212040   5.092   4.630   2.382  0.9997  0.1413 -1.3903
  927THF     C312041   5.036   4.845   2.439  0.7448 -0.2285 -0.0050
  927THF     H412042   5.162   4.617   2.294 -1.0589  0.5670 -0.5197
  927THF     H512043   5.044   4.540   2.393 -0.7543  1.2230 -0.8240
  927THF     H612044   5.031   4.937   2.379  1.5878  1.0575  0.3539
  927THF     H712045   4.964   4.853   2.521  0.5825  2.9049  0.3762
  927THF     C812046   5.170   4.821   2.487  0.4150 -0.1406 -0.1947
  927THF     C912047   5.163   4.672   2.511  0.3237 -0.7012 -0.4201
  927THF    H1012048   5.193   4.866   2.581  0.0546 -1.2737  1.1177
  927THF    H1112049   5.250   4.838   2.413 -1.9284  2.6439 -0.4244
  927THF    H1212050   5.268   4.639   2.520  3.1297 -0.3768  0.5043
  927THF    H1312051   5.116   4.648   2.607 -1.1311 -1.5653  2.0695
  928THF     O112052   3.084   4.461   0.944  0.3126  0.1439 -0.7386
  928THF     C212053   3.048   4.320   0.945 -0.4590 -0.6056  0.3652
  928THF     C312054   3.198   4.469   1.025  0.3052 -1.0671 -0.1907
  928THF     H412055   2.973   4.291   0.871  1.4324  0.6985 -0.3158
  928THF     H512056   3.012   4.305   1.042  2.9280 -1.2222 -1.1302
  928THF     H612057   3.267   4.538   0.969 -1.1262 -0.1634 -0.8393
  928THF     H712058   3.182   4.497   1.130 -0.5713  0.3149  0.4477
  928THF     C812059   3.272   4.335   1.017 -0.0355 -0.4589 -0.5568
  928THF     C912060   3.183   4.252   0.927  0.5463  0.2455 -0.3722
  928THF    H1012061   3.282   4.298   1.128 -2.8060 -2.6994  1.9072
  928THF    H1112062   3.366   4.344   0.968 -3.7848 -0.7176 -2.5990
  928THF    H1212063   3.210   4.268   0.819 -0.0420  0.6036 -0.2748
  928THF    H1312064   3.174   4.151   0.965  2.2034 -0.0071 -0.7041
  929THF     O112065   4.350   1.087   1.451  0.2210  0.2673  0.1807
  929THF     C212066   4.491   1.071   1.460  0.0494 -0.0854 -0.3859
  929THF     C312067   4.325   1.072   1.317  0.2004 -0.0283 -0.1443
  929THF     H412068   4.521   1.050   1.560 -0.1809  0.0023  0.3260
  929THF     H512069   4.535   1.168   1.434  0.7943  0.0783  1.5690
  929THF     H612070   4.221   1.035   1.313 -3.3778 -0.9118 -1.1219
  929THF     H712071   4.325   1.162   1.252 -1.0722  2.0096  2.4897
  929THF     C812072   4.422   0.962   1.266 -0.2260  0.0948  0.4669
  929THF     C912073   4.531   0.951   1.368  0.0212  0.3741 -0.0725
  929THF    H1012074   4.469   0.992   1.166  3.0610 -1.2774 -0.8861
  929THF    H1112075   4.367   0.869   1.249 -0.9970 -0.3874 -3.5829
  929THF    H1212076   4.518   0.858   1.424  0.2515  1.4021  1.4475
  929THF    H1312077   4.636   0.944   1.340 -1.7669 -0.8885 -1.2928
  930THF     O112078   4.581   2.296   4.348 -0.6546  0.5256  0.2960
  930THF     C212079   4.539   2.190   4.430  0.3575  0.3002  0.2586
  930THF     C312080   4.474   2.383   4.322 -0.3538 -0.1800  0.2517
  930THF     H412081   4.628   2.155   4.485  1.0844  1.4806  0.4420
  930THF     H512082   4.485   2.111   4.376  0.1132 -2.1072 -2.1590
  930THF     H612083   4.510   2.488   4.332 -1.6963  1.0825 -2.8066
  930THF     H712084   4.434   2.379   4.217  0.8169  2.3963 -0.2561
  930THF     C812085   4.364   2.358   4.418 -0.4195 -0.3392 -0.1272
  930THF     C912086   4.433   2.262   4.518  0.0350 -0.0069 -0.1536
  930THF    H1012087   4.283   2.292   4.367 -5.2246 -3.3298  2.1234
  930THF    H1112088   4.321   2.440   4.467  1.0052 -0.0604 -2.3964
  930THF    H1212089   4.475   2.328   4.595 -0.8425  1.9432  0.7118
  930THF    H1312090   4.362   2.193   4.563 -0.9894  1.8518 -0.6000
  931THF     O112091   5.373   1.667   4.265  0.3236 -0.0137  0.4497
  931THF     C212092   5.239   1.715   4.239 -0.9293 -0.4779  0.0043
  931THF     C312093   5.381   1.633   4.404 -0.4591  0.1404  0.3675
  931THF     H412094   5.174   1.637   4.215  0.6078  0.3402 -0.8502
  931THF     H512095   5.254   1.773   4.150 -2.8453  0.2418 -0.1754
  931THF     H612096   5.311   1.547   4.425 -0.2777 -0.4231  0.2242
  931THF     H712097   5.481   1.621   4.439 -1.9042 -0.6614  0.9709
  931THF     C812098   5.319   1.759   4.467 -0.7432  0.1181 -0.2291
  931THF     C912099   5.202   1.796   4.369 -0.0543 -0.3879  0.5754
  931THF    H1012100   5.385   1.840   4.464 -0.1396  1.6304  0.6833
  931THF    H1112101   5.286   1.733   4.568 -0.5086 -2.8255 -1.6317
  931THF    H1212102   5.118   1.756   4.420  1.1582  1.2212  1.6509
  931THF    H1312103   5.201   1.905   4.352  0.6254 -1.4588 -0.4928
  932THF     O112104   0.530   5.417   1.835  0.3910  0.3865 -0.2662
  932THF     C212105   0.594   5.296   1.785  0.2817  0.3403 -0.2975
  932THF     C312106   0.548   5.507   1.725 -0.4126  0.3341 -0.8047
  932THF     H412107   0.540   5.229   1.845  0.5425  0.9209 -1.2391
  932THF     H512108   0.699   5.291   1.799  0.3616  0.3575  0.1083
  932THF     H612109   0.477   5.591   1.735 -0.4024 -1.8694 -1.1280
  932THF     H712110   0.655   5.539   1.713  1.1587 -0.9189 -1.0691
  932THF     C812111   0.505   5.434   1.608 -0.2761 -0.0141  0.0324
  932THF     C912112   0.541   5.290   1.643 -0.0374  0.1362  0.3259
  932THF    H1012113   0.558   5.466   1.518  0.1754  0.3470 -0.7312
  932THF    H1112114   0.400   5.445   1.597  0.8547 -0.7030 -0.8554
  932THF    H1212115   0.457   5.220   1.636 -0.4472  0.5722  0.8361
  932THF    H1312116   0.618   5.257   1.569 -0.1393  0.4385 -2.2400
  933THF     O112117   5.087   4.134   2.056 -0.3762  0.2160  0.5655
  933THF     C212118   5.033   4.114   2.189  0.2056 -0.2818 -0.1871
  933THF     C312119   5.194   4.233   2.072  0.0981 -0.2999  0.3102
  933THF     H412120   5.107   4.048   2.236 -1.2705 -2.5403  1.5111
  933THF     H512121   4.936   4.066   2.182  0.7076  0.8714 -0.5387
  933THF     H612122   5.288   4.177   2.104  0.0522  0.1667  0.8976
  933THF     H712123   5.212   4.276   1.971 -0.3018 -3.9165  1.3714
  933THF     C812124   5.134   4.332   2.177 -0.5351 -0.7425 -0.2949
  933THF     C912125   5.018   4.258   2.246 -0.7282  0.4418  0.6680
  933THF    H1012126   5.094   4.425   2.142 -0.3590  0.6713 -0.0481
  933THF    H1112127   5.208   4.366   2.248  0.0249  0.3666 -1.9892
  933THF    H1212128   5.025   4.255   2.351 -0.8199  2.9858 -0.5755
  933THF    H1312129   4.918   4.292   2.216  2.8952  1.8304 -3.4392
  934THF     O112130   1.288   3.775   1.601  0.1854  0.1084  0.1875
  934THF     C212131   1.422   3.807   1.572  0.0123  0.7447  0.1122
  934THF     C312132   1.253   3.659   1.528 -0.3999  0.1688 -0.4690
  934THF     H412133   1.465   3.853   1.662  0.4022 -1.2601 -1.0560
  934THF     H512134   1.431   3.883   1.495 -0.2357 -1.6397 -0.5651
  934THF     H612135   1.226   3.579   1.588 -0.8798 -0.5376  0.7110
  934THF     H712136   1.164   3.672   1.469 -0.8300 -1.6231 -1.0037
  934THF     C812137   1.375   3.601   1.454  0.0748 -0.1528  0.3091
  934THF     C912138   1.487   3.669   1.530 -0.6615 -0.0410  0.2679
  934THF    H1012139   1.361   3.646   1.351 -1.0820  1.7465 -0.5081
  934THF    H1112140   1.388   3.494   1.448 -1.8151  3.1829 -0.6824
  934THF    H1212141   1.498   3.618   1.629 -2.8566  2.1454  3.5993
  934THF    H1312142   1.578   3.671   1.466 -1.9749  3.3639  1.5610
  935THF     O112143   2.250   0.916   4.859  0.0215 -0.3770 -0.7434
  935THF     C212144   2.384   0.926   4.901 -0.4858 -0.1840  0.0096
  935THF     C312145   2.248   0.954   4.717 -0.1596  0.4743 -1.0030
  935THF     H412146   2.452   0.841   4.871  0.0565 -0.5312  2.0297
  935THF     H512147   2.392   0.939   5.002  0.3827 -0.3156 -1.2979
  935THF     H612148   2.303   0.870   4.664  0.9196 -0.4447  1.4433
  935THF     H712149   2.144   0.969   4.683  1.0116 -0.9491  0.3549
  935THF     C812150   2.348   1.078   4.705 -0.1835 -0.0182 -0.3742
  935THF     C912151   2.440   1.048   4.830 -0.4475 -0.7562  0.1309
  935THF    H1012152   2.291   1.168   4.712  0.1278 -0.3252 -1.9697
  935THF    H1112153   2.396   1.073   4.606 -0.1419  0.9881 -0.2726
  935THF    H1212154   2.547   1.039   4.799  1.2326  0.4247  0.9349
  935THF    H1312155   2.437   1.134   4.899  1.2832 -0.0894 -1.0193
  936THF     O112156   4.887   0.823   2.092  0.8064  0.2158 -0.3400
  936THF     C212157   5.005   0.751   2.066  0.1344 -0.1790 -0.2918
  936THF     C312158   4.909   0.928   2.176  0.9940 -0.2723 -0.1132
  936THF     H412159   5.056   0.812   1.991  1.3335  1.4993 -0.2164
  936THF     H512160   4.996   0.656   2.019  1.0071 -3.8722 -1.5200
  936THF     H612161   4.923   1.015   2.115 -0.2105  0.3508 -1.0244
  936THF     H712162   4.827   0.949   2.243 -0.3937 -1.3202  0.6915
  936THF     C812163   5.038   0.891   2.251  0.0943 -0.0834 -0.4869
  936THF     C912164   5.073   0.752   2.204 -0.4199  0.2992 -0.0352
  936THF    H1012165   5.024   0.906   2.365 -1.2219  0.6300  0.4484
  936THF    H1112166   5.112   0.954   2.202 -0.8208 -2.3279 -2.3192
  936THF    H1212167   5.179   0.723   2.207 -1.5926 -1.6577  0.6925
  936THF    H1312168   5.023   0.675   2.258 -0.9438  1.0432 -2.6470
  937THF     O112169   2.353   3.775   2.668  0.2259  0.4109  0.0347
  937THF     C212170   2.447   3.830   2.767 -0.0075  0.2582 -0.0509
  937THF     C312171   2.245   3.868   2.671 -0.0448 -0.0955 -0.1377
  937THF     H412172   2.541   3.776   2.741 -0.0618 -2.7128  1.5271
  937THF     H512173   2.422   3.808   2.874 -0.6379  2.1033  0.5991
  937THF     H612174   2.178   3.860   2.584 -0.5094  1.3656  1.0475
  937THF     H712175   2.181   3.853   2.757 -1.3741  1.2450 -1.5187
  937THF     C812176   2.311   3.998   2.669  0.0053 -0.2525  0.0561
  937THF     C912177   2.443   3.974   2.736  0.8335  0.4761 -0.1165
  937THF    H1012178   2.249   4.075   2.721  1.5842  1.6900  1.8627
  937THF    H1112179   2.327   4.026   2.565  2.8274  0.1152  1.1524
  937THF    H1212180   2.521   4.000   2.658  0.7884 -0.2410 -2.2579
  937THF    H1312181   2.438   4.035   2.829 -1.1571  0.1442 -1.3697
  938THF     O112182   1.459   4.532   5.402 -0.4004 -0.2721 -0.2950
  938THF     C212183   1.364   4.622   5.461  0.3791 -0.4948  0.2915
  938THF     C312184   1.403   4.402   5.432 -0.0391 -0.2982 -0.0320
  938THF     H412185   1.279   4.629   5.394  4.1464  2.7421  1.0133
  938THF     H512186   1.406   4.720   5.466 -0.0044 -2.4312 -0.2552
  938THF     H612187   1.318   4.400   5.360 -1.5360 -1.4095 -0.5710
  938THF     H712188   1.476   4.325   5.433 -0.4143 -0.1153 -0.3190
  938THF     C812189   1.342   4.424   5.573 -0.8573  0.4971  0.1558
  938THF     C912190   1.333   4.578   5.601 -0.3229  0.0259  0.9282
  938THF    H1012191   1.414   4.372   5.633  0.9775  0.9306  0.7648
  938THF    H1112192   1.251   4.372   5.593 -1.7258 -2.1524 -0.7814
  938THF    H1212193   1.238   4.612   5.640  1.4450 -1.3507  0.0380
  938THF    H1312194   1.414   4.611   5.668  0.5177  2.2075 -0.1964
  939THF     O112195   2.939   0.888   3.040 -0.0969 -0.4404 -0.1250
  939THF     C212196   3.018   0.779   3.093 -0.7638  0.4955  0.0208
  939THF     C312197   2.836   0.824   2.974  0.0728  0.0174 -0.4441
  939THF     H412198   3.089   0.811   3.174  3.4485 -0.9389 -1.2485
  939THF     H512199   3.091   0.748   3.014 -2.3691 -1.7710 -0.2597
  939THF     H612200   2.753   0.890   2.944 -0.1144 -1.5567 -2.2753
  939THF     H712201   2.877   0.766   2.894 -0.3127  0.7005  0.7480
  939THF     C812202   2.790   0.717   3.073  0.7098  0.7787  0.3565
  939THF     C912203   2.923   0.671   3.134 -0.3513  0.4915 -0.0523
  939THF    H1012204   2.734   0.628   3.034  0.9294 -2.5250 -2.9099
  939THF    H1112205   2.739   0.770   3.148  0.5461 -1.0967 -0.0204
  939THF    H1212206   2.922   0.654   3.241 -0.5777  0.2886 -0.0993
  939THF    H1312207   2.951   0.568   3.089 -1.9820 -0.1560 -0.6797
  940THF     O112208   2.810   1.052   3.594 -0.2461  0.1154  0.1343
  940THF     C212209   2.694   1.092   3.528 -0.1827  1.0457 -0.7791
  940THF     C312210   2.793   0.917   3.636 -0.5532  0.2378  0.2253
  940THF     H412211   2.707   1.180   3.473  1.3396 -2.3892 -1.1106
  940THF     H512212   2.619   1.097   3.604  1.8857 -0.3040  0.0344
  940THF     H612213   2.892   0.880   3.654  1.1020  0.4040 -1.5046
  940THF     H712214   2.724   0.905   3.726 -0.6774 -2.0268  0.9568
  940THF     C812215   2.737   0.863   3.508  0.2248 -0.5690  0.0869
  940THF     C912216   2.672   0.979   3.434 -0.2223 -0.4960 -0.0098
  940THF    H1012217   2.665   0.778   3.511  2.4332 -1.1208  3.6480
  940THF    H1112218   2.818   0.823   3.452  0.4714 -0.4700 -1.3841
  940THF    H1212219   2.715   1.015   3.345 -0.9461 -3.7132 -1.2709
  940THF    H1312220   2.561   0.969   3.403  0.7200  0.8084  0.1219
  941THF     O112221   3.996   2.377   1.202  1.0804 -0.6637  0.0788
  941THF     C212222   3.932   2.505   1.235  0.0139 -0.1450 -0.6214
  941THF     C312223   4.008   2.297   1.323 -0.8166 -0.5921  0.2153
  941THF     H412224   3.821   2.496   1.224  0.7413 -1.1970  0.9007
  941THF     H512225   3.963   2.583   1.167  0.8860 -0.8007 -0.4550
  941THF     H612226   3.955   2.198   1.319  0.5353 -1.6232  1.5865
  941THF     H712227   4.103   2.266   1.342 -2.6456  0.8279  2.8884
  941THF     C812228   3.958   2.392   1.433  0.6090 -0.0635 -0.5605
  941THF     C912229   3.974   2.534   1.379  0.3999  0.4830  0.0081
  941THF    H1012230   4.025   2.377   1.520  1.3972 -0.7667 -0.4918
  941THF    H1112231   3.852   2.362   1.448 -0.0975 -1.4295  2.0607
  941THF    H1212232   3.915   2.613   1.431  0.1667 -0.4459  0.3673
  941THF    H1312233   4.077   2.562   1.380 -0.5647  2.6678  0.2375
  942THF     O112234   0.391   2.556   2.166  0.1894  0.5880 -0.2844
  942THF     C212235   0.334   2.630   2.274  0.9842  0.0697 -0.2476
  942THF     C312236   0.297   2.552   2.059  0.3481  0.4632 -0.3289
  942THF     H412237   0.378   2.731   2.267  1.3756  1.5543  0.2497
  942THF     H512238   0.362   2.582   2.362  1.6215  0.7972 -1.7767
  942THF     H612239   0.296   2.652   2.012 -0.9537  1.0223  0.7968
  942THF     H712240   0.321   2.470   1.990 -1.5019  0.8081 -0.4580
  942THF     C812241   0.161   2.530   2.127  0.0668 -0.7634  0.1333
  942THF     C912242   0.186   2.629   2.241  0.0778 -0.1188 -0.3704
  942THF    H1012243   0.154   2.427   2.177  0.2162  1.5052  0.2769
  942THF    H1112244   0.075   2.552   2.064 -0.7373 -4.1567 -0.4467
  942THF    H1212245   0.148   2.727   2.216  0.3244  1.4861  0.3752
  942THF    H1312246   0.126   2.604   2.327 -0.0373 -1.8629 -0.5329
  943THF     O112247   3.376   2.705   4.051  0.2230  0.0839  0.1021
  943THF     C212248   3.485   2.737   4.139  0.0445  0.4768 -0.8291
  943THF     C312249   3.413   2.731   3.908 -0.3272 -0.1552  0.3830
  943THF     H412250   3.466   2.697   4.242  0.6865 -1.0562  1.4594
  943THF     H512251   3.500   2.846   4.149  0.4970 -0.1219  1.5156
  943THF     H612252   3.357   2.662   3.841  0.9345  0.3775 -2.9687
  943THF     H712253   3.401   2.828   3.863  0.5179 -1.8894  0.6149
  943THF     C812254   3.556   2.689   3.910 -0.6658  0.5216 -0.9495
  943THF     C912255   3.604   2.689   4.060  0.0023  0.7820 -0.1241
  943THF    H1012256   3.626   2.763   3.860  2.4902  2.3285 -1.8509
  943THF    H1112257   3.579   2.599   3.856 -2.8830 -0.8360  1.2357
  943THF    H1212258   3.640   2.592   4.097  2.2160  4.2045  1.6368
  943THF    H1312259   3.692   2.749   4.075  2.9444 -1.2788 -0.1662
  944THF     O112260   4.164   1.560   5.493 -0.2501  0.2489  0.2598
  944THF     C212261   4.236   1.577   5.613 -0.4730  0.7130 -0.6779
  944THF     C312262   4.052   1.645   5.489 -0.2590 -0.1105  0.3431
  944THF     H412263   4.337   1.558   5.593  2.4431 -1.9028  2.3122
  944THF     H512264   4.210   1.503   5.693 -0.4343  0.5291 -4.2161
  944THF     H612265   4.012   1.659   5.391  1.0306  4.4953 -0.8910
  944THF     H712266   3.963   1.607   5.549 -1.3195  1.1974 -0.4307
  944THF     C812267   4.111   1.774   5.551  0.4993 -0.0482  0.0762
  944THF     C912268   4.216   1.721   5.650 -0.8378  0.1658  0.0160
  944THF    H1012269   4.038   1.842   5.595  0.3435 -1.3989 -1.5761
  944THF    H1112270   4.159   1.818   5.466  3.4205 -0.3434 -0.8162
  944THF    H1212271   4.309   1.770   5.639 -1.3116 -1.0058 -2.5455
  944THF    H1312272   4.177   1.735   5.752 -0.1417  1.2161 -0.0303
  945THF     O112273   4.771   4.243   1.213 -0.0164 -0.2288  0.7018
  945THF     C212274   4.801   4.197   1.345 -0.6567 -0.4021  0.3149
  945THF     C312275   4.684   4.354   1.222  0.1490  0.6818  0.1358
  945THF     H412276   4.898   4.240   1.370  3.2602 -1.3695  0.1215
  945THF     H512277   4.820   4.090   1.347 -0.1238 -0.9927  0.7040
  945THF     H612278   4.751   4.441   1.240  1.0027  1.5902  1.7497
  945THF     H712279   4.634   4.358   1.123  1.0960  2.6366 -1.2090
  945THF     C812280   4.589   4.320   1.341 -0.0956  0.1644  0.0184
  945THF     C912281   4.691   4.254   1.437  0.2788  0.0189 -0.2760
  945THF    H1012282   4.515   4.247   1.296 -2.1548 -2.0922  0.1680
  945THF    H1112283   4.528   4.400   1.379  0.3670  0.2034  0.8441
  945THF    H1212284   4.728   4.334   1.506 -0.2229 -1.2911  2.0913
  945THF    H1312285   4.644   4.186   1.496  3.9201  1.4966 -0.5311
  946THF     O112286   3.554   1.853   0.614  0.3720  0.2528 -0.1306
  946THF     C212287   3.484   1.972   0.637 -0.6785  0.1568 -0.8568
  946THF     C312288   3.516   1.786   0.494 -0.2043 -0.6806 -0.4056
  946THF     H412289   3.515   2.047   0.704 -0.5136 -1.5834 -1.6318
  946THF     H512290   3.377   1.949   0.665  1.9142 -0.8213 -1.2119
  946THF     H612291   3.603   1.731   0.452  0.1870  2.0042 -1.1830
  946THF     H712292   3.435   1.709   0.509  0.4398 -1.3030 -0.3550
  946THF     C812293   3.474   1.898   0.407 -0.4109 -0.5454  0.0160
  946THF     C912294   3.489   2.025   0.489  0.3307 -0.3786  0.1742
  946THF    H1012295   3.372   1.876   0.377 -0.1351  1.9083  2.9074
  946THF    H1112296   3.536   1.900   0.314 -3.2721  0.1835 -0.8165
  946THF    H1212297   3.590   2.070   0.485  1.1044  4.8747  1.3220
  946THF    H1312298   3.408   2.096   0.453 -3.3517  1.1445 -0.3632
  947THF     O112299   2.051   4.998   4.081 -0.2299 -0.2112  0.2125
  947THF     C212300   2.058   5.093   4.182 -0.3635 -0.3597 -0.9969
  947THF     C312301   2.163   4.914   4.100 -0.1832  0.1913  0.0600
  947THF     H412302   1.999   5.058   4.267  0.1894 -0.4203  0.5097
  947THF     H512303   2.011   5.185   4.153  3.7556 -0.6913 -0.7500
  947THF     H612304   2.140   4.841   4.182  0.7546 -0.2522 -0.5512
  947THF     H712305   2.189   4.858   4.012  0.0438 -0.4719  1.1585
  947THF     C812306   2.276   5.008   4.139  0.3424  1.0699  0.2107
  947THF     C912307   2.204   5.122   4.204  0.3298  0.6586 -0.0242
  947THF    H1012308   2.329   5.051   4.049  2.3304  2.4992  1.1384
  947THF    H1112309   2.345   4.964   4.209 -1.2799 -0.8513 -3.4678
  947THF    H1212310   2.229   5.117   4.316  2.2612 -1.8466  1.7598
  947THF    H1312311   2.237   5.217   4.160 -0.0815 -1.0785 -0.0227
  948THF     O112312   2.529   2.924   3.586  0.2935  0.0772  0.1996
  948THF     C212313   2.497   2.787   3.576  0.1657  0.6123 -0.1777
  948THF     C312314   2.406   2.995   3.549 -0.0831  0.4330  0.6623
  948THF     H412315   2.563   2.743   3.643 -0.4649 -1.0121  2.9793
  948THF     H512316   2.516   2.751   3.480  2.0814  1.5902  2.8832
  948THF     H612317   2.394   3.084   3.612 -1.8517  1.2751  2.1469
  948THF     H712318   2.402   3.011   3.435  1.8318  1.3446 -0.7480
  948THF     C812319   2.290   2.902   3.595 -0.2553  0.5054 -0.1603
  948THF     C912320   2.352   2.767   3.622  0.3727 -0.3722 -0.5068
  948THF    H1012321   2.214   2.900   3.518 -0.0869 -0.8982  1.6064
  948THF    H1112322   2.230   2.953   3.669  0.1309  1.7160  0.7371
  948THF    H1212323   2.340   2.751   3.733 -3.2987  0.5838  0.2779
  948THF    H1312324   2.288   2.690   3.572 -0.4651  2.0366  1.2078
  949THF     O112325   2.305   2.863   1.749 -0.2379 -0.4287  0.3092
  949THF     C212326   2.394   2.756   1.707 -1.3356  0.3104 -0.0918
  949THF     C312327   2.179   2.804   1.769 -0.0112  0.5153 -0.8356
  949THF     H412328   2.495   2.757   1.744  1.4157 -0.0381  2.0536
  949THF     H512329   2.392   2.759   1.600 -1.1042  2.2514  1.5106
  949THF     H612330   2.156   2.793   1.876 -2.0591 -1.7094  3.3103
  949THF     H712331   2.098   2.855   1.723  0.8705 -2.4240  2.1015
  949THF     C812332   2.186   2.655   1.728  0.0389 -0.1183 -0.2423
  949THF     C912333   2.331   2.621   1.753  0.6468  0.2332  0.3519
  949THF    H1012334   2.171   2.641   1.618 -3.2880  2.8770 -2.2193
  949THF    H1112335   2.119   2.586   1.785 -0.3339  1.8426  1.0756
  949THF    H1212336   2.335   2.612   1.862  0.5306 -0.8306 -1.6596
  949THF    H1312337   2.366   2.525   1.709 -0.5572 -1.6967 -0.5320
  950THF     O112338   5.325   4.891   3.560  0.2274  0.6551 -0.4075
  950THF     C212339   5.320   5.000   3.467  0.7366 -0.4126  0.1875
  950THF     C312340   5.287   4.776   3.483 -0.1724  0.4557 -0.5827
  950THF     H412341   5.350   5.098   3.499  1.6369 -1.6784  0.4665
  950THF     H512342   5.222   5.032   3.432  1.4586 -1.0162  1.8316
  950THF     H612343   5.323   4.689   3.536  0.7670  0.9677  0.5025
  950THF     H712344   5.186   4.781   3.473 -0.4695  0.0124  3.0796
  950THF     C812345   5.368   4.792   3.346 -0.0888 -0.5029  0.0065
  950THF     C912346   5.393   4.949   3.340 -0.4319  0.5102 -0.0859
  950THF    H1012347   5.306   4.747   3.271 -0.3858  0.2146 -0.3289
  950THF    H1112348   5.461   4.744   3.358 -2.7417  2.0576  0.7980
  950THF    H1212349   5.500   4.975   3.343 -0.5971 -3.2648  2.5331
  950THF    H1312350   5.360   4.997   3.252  1.5467  0.2424 -0.4536
  951THF     O112351   4.565   0.308   5.428 -1.0820  0.1997 -0.2310
  951THF     C212352   4.650   0.408   5.401  0.5418  0.0815 -0.2366
  951THF     C312353   4.443   0.359   5.472 -0.3096 -0.0782  0.0767
  951THF     H412354   4.738   0.366   5.356 -0.1836 -0.4808  1.8158
  951THF     H512355   4.670   0.438   5.503  0.0046 -0.4921  1.5543
  951THF     H612356   4.363   0.297   5.444  1.2430  1.6110  0.3889
  951THF     H712357   4.439   0.377   5.578 -0.2118  0.7266  0.8724
  951THF     C812358   4.439   0.489   5.391  0.3437  0.4346 -0.2177
  951THF     C912359   4.574   0.513   5.323  0.4170 -0.0099  0.0479
  951THF    H1012360   4.405   0.571   5.464 -0.0358  1.2705  2.7968
  951THF    H1112361   4.376   0.467   5.314  0.5578  0.0237  3.9942
  951THF    H1212362   4.564   0.504   5.211  0.8186 -1.2654  0.2200
  951THF    H1312363   4.609   0.617   5.349 -0.2415  2.8744 -0.1505
  952THF     O112364   0.422   0.329   3.128  0.1206  0.0411 -0.3012
  952THF     C212365   0.355   0.257   3.227 -0.0382 -0.5146  0.4907
  952THF     C312366   0.347   0.323   3.008  0.3108 -0.9028  0.2650
  952THF     H412367   0.278   0.317   3.274 -0.4331  2.3487  0.8035
  952THF     H512368   0.419   0.217   3.307  1.2006 -1.4822  3.7604
  952THF     H612369   0.294   0.419   2.989 -2.0027  2.1011  0.1522
  952THF     H712370   0.407   0.307   2.919 -0.2366  1.9945 -1.9456
  952THF     C812371   0.254   0.202   3.024  0.3126  0.5632 -0.2971
  952THF     C912372   0.306   0.136   3.153  0.3986  0.0884 -0.5573
  952THF    H1012373   0.244   0.143   2.933  3.3737  1.7632 -1.4534
  952THF    H1112374   0.156   0.241   3.054  0.8203  0.7313  1.4361
  952THF    H1212375   0.223   0.085   3.195  2.4016 -1.3227  0.4145
  952THF    H1312376   0.383   0.066   3.135  4.1210 -0.0146 -0.3882
  953THF     O112377   1.767   1.757   1.779  0.1420  0.5147 -0.6852
  953THF     C212378   1.835   1.826   1.883  0.2166 -0.4429  0.2800
  953THF     C312379   1.672   1.851   1.730  0.3015 -0.2458  0.5458
  953THF     H412380   1.891   1.910   1.831 -1.4456  0.2036 -1.0468
  953THF     H512381   1.911   1.778   1.934  3.0697 -0.5715 -1.9081
  953THF     H612382   1.713   1.920   1.656 -0.7905  0.8669  0.7255
  953THF     H712383   1.588   1.795   1.672 -0.9019 -1.5994 -1.4598
  953THF     C812384   1.622   1.924   1.858 -0.4637  0.1810  0.0249
  953THF     C912385   1.721   1.885   1.967  0.6120  0.3056  0.7406
  953THF    H1012386   1.524   1.887   1.888  0.4797  0.4384 -0.5917
  953THF    H1112387   1.621   2.028   1.837  0.3586 -1.6647  1.1501
  953THF    H1212388   1.766   1.972   2.019  1.4697 -0.1372 -0.6586
  953THF    H1312389   1.689   1.811   2.048 -1.1669 -0.7795  0.0261
  954THF     O112390   0.718   2.977   1.328 -0.1038 -0.1883 -0.1240
  954THF     C212391   0.592   2.943   1.383 -0.4944  0.3216 -0.0120
  954THF     C312392   0.741   3.115   1.332  0.3824 -1.0216 -0.0244
  954THF     H412393   0.571   2.843   1.422  0.4717 -0.0404 -3.5624
  954THF     H512394   0.511   2.950   1.310  0.9973  0.7001 -0.3070
  954THF     H612395   0.845   3.149   1.326 -2.1070 -2.9950  2.0250
  954THF     H712396   0.687   3.155   1.244 -1.9697  1.0752 -0.2020
  954THF     C812397   0.673   3.165   1.457  0.3463 -0.1345  0.0894
  954THF     C912398   0.568   3.055   1.489 -0.3063  0.2260 -0.1271
  954THF    H1012399   0.645   3.271   1.456 -0.0699  0.2638  0.0573
  954THF    H1112400   0.753   3.153   1.526  0.4245 -1.1920 -0.1138
  954THF    H1212401   0.567   3.029   1.588 -1.5364 -0.2999 -3.6784
  954THF    H1312402   0.462   3.084   1.477 -1.6309  0.3777  2.1753
  955THF     O112403   5.265   1.124   4.354  0.3822  0.2464  0.1738
  955THF     C212404   5.322   1.221   4.262  0.9001 -0.4150 -0.2437
  955THF     C312405   5.286   1.005   4.293 -0.0090 -0.4767 -0.1683
  955THF     H412406   5.325   1.327   4.297  1.3628  0.0571 -3.7787
  955THF     H512407   5.261   1.215   4.166 -0.1873 -0.9570 -3.5710
  955THF     H612408   5.270   0.921   4.359  3.8148  0.4261  1.2574
  955THF     H712409   5.210   0.997   4.220  0.5019  2.0503 -0.2859
  955THF     C812410   5.430   1.013   4.242  0.2251 -0.4370 -0.0260
  955THF     C912411   5.455   1.166   4.232  0.6039  0.8418  0.0809
  955THF    H1012412   5.436   0.955   4.153 -2.5023  1.7613  0.2091
  955THF    H1112413   5.506   0.958   4.295 -0.0912  2.0940 -0.1425
  955THF    H1212414   5.524   1.200   4.307  0.3652 -1.4223  1.2818
  955THF    H1312415   5.494   1.195   4.134  1.1903 -1.6122  0.2547
  956THF     O112416   0.506   2.705   5.348  0.4628  1.4047  0.4696
  956THF     C212417   0.387   2.785   5.352  0.2062  0.0510  0.1301
  956THF     C312418   0.603   2.749   5.449  0.6043  0.5274 -0.1503
  956THF     H412419   0.297   2.730   5.326 -1.5364  3.1047  2.5569
  956THF     H512420   0.391   2.873   5.295 -2.7914  2.7376  1.9551
  956THF     H612421   0.637   2.664   5.504 -1.1131  1.2936 -1.4231
  956THF     H712422   0.690   2.777   5.405 -0.0502 -0.5731  3.6306
  956THF     C812423   0.534   2.851   5.532  0.3014  0.3289  1.2073
  956THF     C912424   0.388   2.832   5.501  0.1533  0.4064  0.0943
  956THF    H1012425   0.562   2.942   5.474  0.5759  2.9492 -1.6029
  956THF    H1112426   0.558   2.852   5.635 -0.6383  1.6917  1.2552
  956THF    H1212427   0.362   2.745   5.563 -1.1967 -1.3839  0.2205
  956THF    H1312428   0.324   2.910   5.526 -2.0868 -0.2775 -1.0640
  957THF     O112429   2.047   0.477   4.880 -0.1588  0.2905  0.3745
  957THF     C212430   1.911   0.456   4.841  0.1980 -0.1973  0.3016
  957THF     C312431   2.055   0.609   4.932 -0.1447 -0.1587 -0.1686
  957THF     H412432   1.843   0.404   4.908 -0.7725 -1.0534 -0.7610
  957THF     H512433   1.922   0.394   4.755  1.2784  1.7799  0.3986
  957THF     H612434   2.023   0.610   5.036  0.6379 -1.5760  2.6853
  957THF     H712435   2.160   0.630   4.932 -0.0016 -0.9286  1.1905
  957THF     C812436   1.968   0.687   4.838 -0.0740  0.1637  0.5377
  957THF     C912437   1.864   0.592   4.797  0.2973  0.6058  0.6634
  957THF    H1012438   2.027   0.703   4.746 -1.9925 -0.6195  0.3168
  957THF    H1112439   1.926   0.780   4.875  1.2668  0.1273  2.1158
  957THF    H1212440   1.760   0.610   4.838 -0.2222 -1.5267  0.8786
  957THF    H1312441   1.856   0.588   4.694 -1.5063 -3.8232  2.5847
  958THF     O112442   0.091   0.144   0.531  0.0649 -0.2676  0.1287
  958THF     C212443   0.129   0.237   0.628 -0.1386  0.1468 -0.3784
  958THF     C312444   0.019   0.037   0.585 -0.0196  0.3193 -0.4807
  958THF     H412445   0.112   0.339   0.585 -2.1809  0.4148 -1.2472
  958THF     H512446   0.234   0.221   0.660  1.5479 -4.5628 -1.9715
  958THF     H612447  -0.028  -0.041   0.520 -0.0710 -1.1363  1.7386
  958THF     H712448   0.092  -0.027   0.642  0.7639  2.6877  2.5008
  958THF     C812449  -0.067   0.115   0.687 -0.1641 -0.0679 -1.1745
  958THF     C912450   0.030   0.213   0.743 -0.4931  0.2528 -0.5088
  958THF    H1012451  -0.117   0.048   0.766  0.2793  1.7021 -0.6301
  958THF    H1112452  -0.159   0.157   0.640  1.2737 -3.4220 -1.5148
  958THF    H1212453  -0.027   0.302   0.778 -1.7590 -0.2244  1.5054
  958THF    H1312454   0.088   0.166   0.825  0.4593  0.3890  0.1717
  959THF     O112455   1.348   4.103   1.694  0.5309  0.6696  0.3946
  959THF     C212456   1.312   4.183   1.585 -0.0871 -0.1080 -0.6561
  959THF     C312457   1.447   4.162   1.778 -0.5652 -0.3438 -0.2127
  959THF     H412458   1.247   4.258   1.616  0.2871 -0.0129  2.0501
  959THF     H512459   1.266   4.120   1.504 -1.7417  1.9767 -0.5190
  959THF     H612460   1.398   4.209   1.864  1.4883 -1.0686  1.9878
  959THF     H712461   1.513   4.082   1.811 -1.1603 -1.4803  0.0487
  959THF     C812462   1.506   4.270   1.688  0.1755  0.1065  0.8269
  959THF     C912463   1.448   4.241   1.547 -0.2819  0.3794 -0.2594
  959THF    H1012464   1.620   4.273   1.695  0.9040 -0.4833 -1.0353
  959THF    H1112465   1.474   4.381   1.713  2.4558  3.6194 -0.2890
  959THF    H1212466   1.443   4.324   1.481  1.7233  0.4150 -0.1869
  959THF    H1312467   1.516   4.170   1.510 -0.7272  0.1169  0.3812
  960THF     O112468   2.314   1.737   2.584  0.0063  0.1309  0.1340
  960THF     C212469   2.219   1.630   2.591 -0.9604  0.7046 -0.4080
  960THF     C312470   2.283   1.830   2.690 -0.0617  0.3641 -0.2296
  960THF     H412471   2.243   1.553   2.524 -0.2379 -0.2383  2.7189
  960THF     H512472   2.121   1.664   2.565  1.2930 -0.3330 -0.2034
  960THF     H612473   2.373   1.887   2.719 -0.1540  1.6526  0.7330
  960THF     H712474   2.210   1.899   2.655 -0.3709 -2.4407  0.6213
  960THF     C812475   2.241   1.733   2.799 -0.1989  0.4607  0.9213
  960THF     C912476   2.218   1.593   2.738 -0.6805  0.4024 -0.2050
  960THF    H1012477   2.147   1.765   2.844  1.3109  0.8979  1.1068
  960THF    H1112478   2.314   1.730   2.879 -1.9265  0.0683  1.6012
  960THF    H1212479   2.294   1.521   2.761  0.1670  1.1070 -0.0218
  960THF    H1312480   2.126   1.549   2.774  3.2181  3.5920 -2.8338
  961THF     O112481   2.473   5.429   2.614 -0.4695 -1.1778  0.2505
  961THF     C212482   2.495   5.534   2.704 -0.8753 -0.0895  0.5935
  961THF     C312483   2.504   5.471   2.481 -1.0904  0.5234 -0.1480
  961THF     H412484   2.513   5.497   2.805  0.4684  0.9924 -1.1725
  961THF     H512485   2.407   5.591   2.715  1.3691  1.0626  0.4308
  961THF     H612486   2.565   5.395   2.443 -1.2474  1.4984  0.3388
  961THF     H712487   2.413   5.476   2.421  1.5544  0.7341  0.7248
  961THF     C812488   2.587   5.603   2.499 -0.7808  0.8982  0.1609
  961THF     C912489   2.616   5.605   2.647 -0.3271  0.4051 -0.1713
  961THF    H1012490   2.512   5.681   2.482  2.1620  3.7488 -2.6499
  961THF    H1112491   2.677   5.615   2.431  0.9422  0.3492  0.2419
  961THF    H1212492   2.709   5.547   2.665 -1.4665 -0.6203  0.8063
  961THF    H1312493   2.611   5.712   2.680  0.1791 -1.3061 -1.2563
  962THF     O112494   1.629   0.808   1.017  0.3530 -0.3537 -0.3588
  962THF     C212495   1.674   0.788   0.881 -0.5610  1.1838 -0.6377
  962THF     C312496   1.705   0.738   1.108 -0.7119  0.7152 -0.7420
  962THF     H412497   1.659   0.871   0.821 -2.4077  0.3591  1.2593
  962THF     H512498   1.602   0.714   0.849  0.3475 -2.1061 -1.3021
  962THF     H612499   1.709   0.782   1.207  1.5445 -1.4776 -0.4281
  962THF     H712500   1.657   0.643   1.115  0.4427 -0.0690 -3.2116
  962THF     C812501   1.841   0.749   1.046 -0.2760  0.1442  0.0775
  962THF     C912502   1.819   0.723   0.903 -0.3592 -1.0672  0.4644
  962THF    H1012503   1.912   0.683   1.106  1.5270  1.3191  1.2736
  962THF    H1112504   1.878   0.852   1.062  1.4512  3.1311  0.1574
  962THF    H1212505   1.894   0.767   0.833  3.1235  2.4450  1.1131
  962THF    H1312506   1.826   0.614   0.889 -3.6273 -0.6759 -2.6417
  963THF     O112507   4.816   0.291   3.067 -0.1860 -0.4309  0.4031
  963THF     C212508   4.892   0.266   2.947  0.2924  0.1411  0.3796
  963THF     C312509   4.714   0.192   3.083  0.1311  0.0745 -0.0281
  963THF     H412510   4.997   0.292   2.959  2.0335  2.7176 -0.3021
  963THF     H512511   4.845   0.320   2.859 -2.3180  2.3330  0.0845
  963THF     H612512   4.722   0.151   3.187  0.3052  0.0577  1.6894
  963THF     H712513   4.618   0.237   3.063 -3.0451  0.0421 -1.3382
  963THF     C812514   4.751   0.083   2.978 -0.0863 -0.2808  0.3798
  963THF     C912515   4.893   0.118   2.933 -0.2648  0.0246  0.1897
  963THF    H1012516   4.683   0.090   2.890 -0.7850 -1.8320  0.5304
  963THF    H1112517   4.769  -0.020   3.006 -1.1253 -0.9761 -0.1079
  963THF    H1212518   4.972   0.066   2.995 -0.2640 -1.6341  1.5597
  963THF    H1312519   4.904   0.084   2.831 -1.3862  0.7116 -0.9538
  964THF     O112520   5.188   3.326   0.136  0.3780  0.2553 -0.2811
  964THF     C212521   5.279   3.269   0.230 -0.4509 -0.3901  0.4456
  964THF     C312522   5.078   3.372   0.217 -0.8774  0.1650  0.1352
  964THF     H412523   5.374   3.240   0.173 -0.2835 -0.1781  1.5293
  964THF     H512524   5.245   3.182   0.279 -0.4955 -1.0110 -2.6718
  964THF     H612525   5.033   3.459   0.172  2.9207 -1.2041  0.1695
  964THF     H712526   5.004   3.294   0.221  3.0720  2.9438 -2.5589
  964THF     C812527   5.134   3.403   0.351 -0.1039  0.3034  1.3439
  964THF     C912528   5.281   3.380   0.327  1.0979  0.5619 -0.9419
  964THF    H1012529   5.105   3.342   0.433  0.9497 -0.0879 -1.4631
  964THF    H1112530   5.112   3.502   0.377 -3.4630 -2.7576  1.4998
  964THF    H1212531   5.337   3.462   0.285 -0.5017  1.6111  0.7802
  964THF    H1312532   5.331   3.355   0.430  0.5634  2.3191  4.0846
  965THF     O112533   3.149   0.503   3.239 -0.8643  0.3381  0.2442
  965THF     C212534   3.272   0.447   3.189  0.6260 -0.5349 -1.0750
  965THF     C312535   3.175   0.567   3.367  0.5447 -0.5006  0.1355
  965THF     H412536   3.323   0.531   3.133 -2.7888  0.8730 -1.8359
  965THF     H512537   3.241   0.367   3.120  0.2565 -0.0310 -3.1772
  965THF     H612538   3.224   0.664   3.366 -1.5936  0.4227 -0.1038
  965THF     H712539   3.090   0.585   3.428  0.9047 -1.8474 -2.9194
  965THF     C812540   3.270   0.468   3.434  0.5405 -0.0392  1.1535
  965THF     C912541   3.345   0.404   3.322 -0.1573 -0.3375 -0.3218
  965THF    H1012542   3.220   0.399   3.492  0.6088  1.0118  0.3649
  965THF    H1112543   3.335   0.516   3.505  1.7132 -0.3123  2.1320
  965THF    H1212544   3.448   0.437   3.316  2.1276 -1.7680  0.0679
  965THF    H1312545   3.345   0.303   3.344 -1.8320  1.7764 -2.9103
  966THF     O112546   4.004   2.806   0.885 -0.6462 -0.3793  0.3468
  966THF     C212547   3.867   2.832   0.924  0.2967 -0.4130  0.0519
  966THF     C312548   4.087   2.852   0.994 -0.7019 -0.3429  0.4306
  966THF     H412549   3.823   2.757   0.987 -0.1253  3.1382 -0.2877
  966THF     H512550   3.807   2.833   0.830  2.0612 -0.7913  1.8774
  966THF     H612551   4.083   2.766   1.059 -2.7667  0.3953 -1.1819
  966THF     H712552   4.182   2.880   0.944 -0.0766 -0.4498  1.3203
  966THF     C812553   4.010   2.973   1.055 -0.2469  0.2874  1.1469
  966THF     C912554   3.874   2.965   0.984 -0.1834 -0.2347 -0.4805
  966THF    H1012555   4.066   3.059   1.017 -0.8490 -1.6857  0.4984
  966THF    H1112556   4.006   2.955   1.162  2.5028 -2.7078  0.7353
  966THF    H1212557   3.801   2.980   1.062  0.0235 -3.0932  0.2252
  966THF    H1312558   3.864   3.040   0.907  3.1639  0.4133 -0.4725
  967THF     O112559   0.790   2.346   5.488  0.3305 -0.5997  0.3034
  967THF     C212560   0.898   2.357   5.391 -0.5885 -0.1864  0.5437
  967THF     C312561   0.798   2.219   5.546  0.3647  0.3003 -0.9557
  967THF     H412562   0.951   2.448   5.412 -0.3108 -1.0404 -0.3124
  967THF     H512563   0.862   2.372   5.295 -0.0896  1.2112  1.6877
  967THF     H612564   0.778   2.235   5.661  1.0937  0.6690  0.4756
  967THF     H712565   0.727   2.145   5.500 -1.5503 -2.4847  1.1533
  967THF     C812566   0.935   2.164   5.545  0.7220  0.0217 -0.0818
  967THF     C912567   0.988   2.231   5.418  0.3190 -0.1677 -0.5522
  967THF    H1012568   0.954   2.058   5.518 -1.3822 -1.9513  2.6197
  967THF    H1112569   0.997   2.195   5.630  2.7711  1.5486  0.4804
  967THF    H1212570   1.098   2.263   5.434  0.5627  0.3222 -1.8581
  967THF    H1312571   0.989   2.167   5.326 -1.5282 -1.5515 -0.3100
  968THF     O112572   4.745   0.667   1.232 -0.1915 -0.1080 -0.0986
  968THF     C212573   4.768   0.655   1.370  0.1422  0.4694 -0.3669
  968THF     C312574   4.850   0.603   1.163 -0.3389  0.1355  0.1784
  968THF     H412575   4.709   0.566   1.394  1.0754 -0.4197  1.6534
  968THF     H512576   4.730   0.748   1.418 -1.7847  1.9354  0.7857
  968THF     H612577   4.814   0.544   1.085 -1.4643  0.0845 -0.0862
  968THF     H712578   4.913   0.673   1.115  0.7498 -0.7850  0.7833
  968THF     C812579   4.932   0.525   1.269  0.2869 -0.2267 -0.3783
  968THF     C912580   4.916   0.620   1.391 -0.1933  0.1369  0.3865
  968THF    H1012581   5.038   0.507   1.233  2.2333 -0.1849 -3.0111
  968THF    H1112582   4.881   0.427   1.286  0.8531 -0.4077 -0.7042
  968THF    H1212583   4.923   0.578   1.490  2.5532 -2.0772 -1.1953
  968THF    H1312584   4.985   0.706   1.382  0.2983  3.5134  0.2249
  969THF     O112585   0.240   0.803   3.912  0.4222  0.5406  0.0151
  969THF     C212586   0.208   0.939   3.937 -0.7574  0.8798  0.2616
  969THF     C312587   0.387   0.800   3.907 -0.9867 -0.3106  0.4865
  969THF     H412588   0.103   0.947   3.967 -1.4875  0.1353  0.6705
  969THF     H512589   0.226   1.001   3.845 -1.9804  0.2741 -0.7523
  969THF     H612590   0.432   0.699   3.921  0.6114 -1.0427  0.0588
  969THF     H712591   0.426   0.833   3.811 -1.7059 -0.2426  1.5277
  969THF     C812592   0.432   0.889   4.016 -1.0426 -0.3329 -0.2160
  969THF     C912593   0.313   0.974   4.045 -0.1877  0.0390  0.0220
  969THF    H1012594   0.512   0.957   3.993 -0.5173  0.3818  0.2173
  969THF    H1112595   0.471   0.833   4.097 -3.4393  1.5314 -0.1120
  969THF    H1212596   0.263   0.944   4.132  0.0212 -1.3050 -1.0992
  969THF    H1312597   0.330   1.081   4.056 -0.6473 -0.5019 -0.5307
  970THF     O112598   3.675   4.346   0.381  0.0195 -0.0412 -0.4359
  970THF     C212599   3.675   4.305   0.516  0.1593  0.2708 -0.2809
  970THF     C312600   3.544   4.330   0.328 -0.2860  0.0456  0.1235
  970THF     H412601   3.762   4.354   0.568 -0.8808  1.7516 -1.1175
  970THF     H512602   3.670   4.202   0.542 -0.2693  0.3984  0.8042
  970THF     H612603   3.524   4.375   0.227  0.1118  0.1502 -0.0330
  970THF     H712604   3.531   4.226   0.315 -0.6293 -0.4464 -0.8670
  970THF     C812605   3.471   4.402   0.438 -0.4215  0.0747  0.2622
  970THF     C912606   3.554   4.374   0.568  0.1900 -0.7237 -0.5202
  970THF    H1012607   3.373   4.358   0.437  2.0586 -0.2925 -0.7333
  970THF    H1112608   3.472   4.512   0.425  0.3750  0.3283 -0.2174
  970THF    H1212609   3.584   4.474   0.615 -0.5364  1.4516 -1.5714
  970THF    H1312610   3.502   4.319   0.649 -1.8663 -0.4474  2.9008
  971THF     O112611   1.394   0.245   3.813 -0.2790  0.0874  0.2480
  971THF     C212612   1.531   0.254   3.766 -0.1939  0.0706  0.1299
  971THF     C312613   1.386   0.163   3.928 -0.7342  0.2387 -0.1154
  971THF     H412614   1.556   0.355   3.732  0.8748 -1.5007 -2.3961
  971THF     H512615   1.550   0.185   3.684 -2.9864 -1.2184  0.9234
  971THF     H612616   1.293   0.184   3.988  1.6473 -1.7237  3.3682
  971THF     H712617   1.386   0.062   3.896 -2.1681  3.3542 -1.7089
  971THF     C812618   1.512   0.206   3.997  0.2657  0.1526 -0.0433
  971THF     C912619   1.619   0.212   3.886 -0.2728  0.3867  0.1115
  971THF    H1012620   1.526   0.130   4.076 -3.0136 -1.2388  0.5190
  971THF    H1112621   1.501   0.304   4.039 -3.0531 -1.7114  0.2767
  971THF    H1212622   1.700   0.280   3.899  1.9351  2.8446 -2.3213
  971THF    H1312623   1.646   0.113   3.870 -0.5254 -0.7784 -0.2905
  972THF     O112624   1.695   4.474   4.684  0.2723  0.2259  0.3173
  972THF     C212625   1.758   4.458   4.554  0.1802  0.1981  0.8579
  972THF     C312626   1.751   4.373   4.772  0.2062 -0.4390 -0.6743
  972THF     H412627   1.736   4.535   4.485 -1.0898  0.0297  1.0179
  972THF     H512628   1.728   4.367   4.512  1.1159  1.9198 -2.0722
  972THF     H612629   1.737   4.397   4.875  0.9335  1.0863 -1.2671
  972THF     H712630   1.722   4.270   4.738 -1.2307 -0.3353 -1.3955
  972THF     C812631   1.896   4.396   4.744  1.1294  0.2689  0.3178
  972THF     C912632   1.905   4.447   4.602 -0.5407  0.5368  0.0253
  972THF    H1012633   1.948   4.302   4.737 -0.6478  0.6201 -1.7423
  972THF    H1112634   1.943   4.452   4.819 -1.4329  1.7854 -2.9191
  972THF    H1212635   1.953   4.546   4.616  1.8845 -0.9887 -1.9370
  972THF    H1312636   1.959   4.383   4.531 -1.6448 -0.3040 -3.0126
  973THF     O112637   2.311   0.436   0.803  0.6413 -0.3019 -0.4796
  973THF     C212638   2.301   0.478   0.940  0.8360 -0.8582  0.1308
  973THF     C312639   2.279   0.547   0.716  0.6291 -0.7798  0.1921
  973THF     H412640   2.396   0.530   0.960 -1.9840 -1.2844 -0.2059
  973THF     H512641   2.291   0.401   1.022  1.6473  0.2843  1.6017
  973THF     H612642   2.373   0.609   0.698 -0.8506  1.1041 -0.6762
  973THF     H712643   2.222   0.532   0.627  0.7000 -0.5093  1.4586
  973THF     C812644   2.190   0.641   0.807 -0.7420  0.2272 -0.2579
  973THF     C912645   2.186   0.580   0.944 -0.1372  0.4205  0.2874
  973THF    H1012646   2.087   0.634   0.766  1.1311 -0.2180  2.1613
  973THF    H1112647   2.222   0.740   0.809  0.0102 -0.1959  2.7784
  973THF    H1212648   2.165   0.654   1.017 -1.9755  0.1648 -1.4191
  973THF    H1312649   2.097   0.518   0.952  0.5665  1.0141 -1.1353
  974THF     O112650   0.378   1.287   4.737  0.3742  0.5545 -0.7040
  974THF     C212651   0.421   1.337   4.862  0.4715 -0.3017  0.2061
  974THF     C312652   0.290   1.385   4.682  0.1323 -0.4117  0.1447
  974THF     H412653   0.487   1.422   4.847 -0.8664 -0.2008  1.0818
  974THF     H512654   0.471   1.269   4.928  1.9144  0.7173  1.6765
  974THF     H612655   0.344   1.472   4.641 -3.1771  4.0804  0.5502
  974THF     H712656   0.225   1.354   4.610  0.6127  1.6633  0.6884
  974THF     C812657   0.205   1.416   4.813 -0.9175  0.0561 -0.0848
  974THF     C912658   0.297   1.395   4.933 -0.8521 -0.5148 -0.0011
  974THF    H1012659   0.120   1.356   4.827  3.0112 -1.5993  0.0680
  974THF    H1112660   0.177   1.517   4.811  0.2364 -2.4084  1.0954
  974THF    H1212661   0.327   1.495   4.974  1.0235 -1.4375 -0.1014
  974THF    H1312662   0.249   1.327   5.012 -1.2639 -0.9788 -0.3797
  975THF     O112663   1.040   0.253   5.106  0.0309 -0.5483  0.0074
  975THF     C212664   1.073   0.128   5.149 -0.1028 -0.0302  0.2193
  975THF     C312665   0.969   0.310   5.211  0.3805  0.1023 -0.0807
  975THF     H412666   1.174   0.142   5.206 -1.3248  1.6169  0.5035
  975THF     H512667   1.093   0.054   5.071 -0.3837 -1.8759 -1.1939
  975THF     H612668   1.031   0.343   5.297 -1.1696 -2.1432 -0.8428
  975THF     H712669   0.898   0.389   5.171  0.6414 -0.8045 -1.3924
  975THF     C812670   0.884   0.200   5.275  0.1945  0.1885 -0.6012
  975THF     C912671   0.948   0.072   5.219  0.3263  0.1852  0.3250
  975THF    H1012672   0.778   0.186   5.242 -1.3195  1.1118 -0.4851
  975THF    H1112673   0.871   0.199   5.387  4.6472 -2.6786 -1.0701
  975THF    H1212674   0.981  -0.002   5.297 -0.4595  0.2661  0.2636
  975THF    H1312675   0.881   0.026   5.148 -2.1538  0.3283 -1.0171
  976THF     O112676   4.545   4.401   3.003  0.3756  0.2567  0.1818
  976THF     C212677   4.516   4.470   3.120 -0.3520 -0.1652 -0.7882
  976THF     C312678   4.678   4.427   2.965  0.0838 -0.6991  0.2454
  976THF     H412679   4.485   4.396   3.193  1.7615  0.2463 -1.8515
  976THF     H512680   4.437   4.543   3.105  1.0474  2.2091 -0.8889
  976THF     H612681   4.741   4.340   2.975 -0.2827 -0.2031 -0.0155
  976THF     H712682   4.671   4.452   2.861 -1.8890  0.3890  1.1343
  976THF     C812683   4.739   4.529   3.065 -0.3746 -0.6007 -0.0878
  976THF     C912684   4.645   4.520   3.180  0.1425  0.2008  0.0414
  976THF    H1012685   4.724   4.626   3.020 -3.0897 -1.1262 -0.0363
  976THF    H1112686   4.840   4.521   3.105 -0.5162 -0.7333  0.2855
  976THF    H1212687   4.680   4.451   3.248 -0.9458  0.2255 -0.9955
  976THF    H1312688   4.621   4.609   3.238 -2.3998  1.7327 -3.5805
  977THF     O112689   3.576   3.045   4.312 -0.6810 -0.0961 -0.1450
  977THF     C212690   3.491   3.068   4.421 -0.5557 -1.0480 -0.4980
  977THF     C312691   3.708   3.011   4.364 -0.5007  0.0348 -0.1203
  977THF     H412692   3.384   3.073   4.394 -1.0325  3.1065 -0.6898
  977THF     H512693   3.515   3.165   4.468 -1.4966 -1.4879 -0.9342
  977THF     H612694   3.781   2.968   4.290  2.2935  0.1403 -2.3973
  977THF     H712695   3.752   3.107   4.396 -3.5706 -0.5320 -3.4306
  977THF     C812696   3.677   2.914   4.485  0.4942  0.3894  0.1130
  977THF     C912697   3.529   2.942   4.507  0.0669 -0.5056 -0.0027
  977THF    H1012698   3.736   2.946   4.568 -0.3612  1.4245 -1.1910
  977THF    H1112699   3.697   2.802   4.459  1.3799  1.0827  1.6855
  977THF    H1212700   3.466   2.859   4.466  0.5160 -1.1878  1.2501
  977THF    H1312701   3.507   2.955   4.620 -1.9192  0.5534  2.1739
  978THF     O112702   1.495   1.242   5.447  0.0101 -0.1018 -0.1854
  978THF     C212703   1.510   1.110   5.390 -0.2843  0.2714 -0.2852
  978THF     C312704   1.393   1.240   5.544 -0.3001 -0.0018 -0.4163
  978THF     H412705   1.589   1.063   5.438 -0.9119  0.6286  0.2717
  978THF     H512706   1.529   1.115   5.281  3.3111 -0.4368  1.1478
  978THF     H612707   1.442   1.236   5.644 -1.8432  3.6035  0.0539
  978THF     H712708   1.343   1.335   5.536  0.7007 -0.6414 -0.3393
  978THF     C812709   1.301   1.134   5.499  0.0803 -0.3933  0.3987
  978THF     C912710   1.382   1.034   5.415 -0.0913 -1.0703 -0.3108
  978THF    H1012711   1.217   1.190   5.455 -0.9478  0.8470  3.2296
  978THF    H1112712   1.262   1.078   5.582 -0.2233  1.0907  0.5759
  978THF    H1212713   1.385   0.942   5.473 -0.9804 -2.0790 -3.0564
  978THF    H1312714   1.322   1.011   5.322  1.4635 -3.9234 -0.3846
  979THF     O112715   4.666   1.676   1.639 -0.2475 -0.0347  0.1438
  979THF     C212716   4.804   1.650   1.626 -0.2052  0.5381  0.4115
  979THF     C312717   4.626   1.593   1.751  0.8278 -0.3603  0.1913
  979THF     H412718   4.862   1.697   1.700  1.2974 -2.8259  1.8672
  979THF     H512719   4.839   1.681   1.527 -0.6196 -1.4462  1.4176
  979THF     H612720   4.655   1.640   1.844  1.4812 -0.3122 -2.4336
  979THF     H712721   4.514   1.608   1.753 -2.6419 -0.8863  2.7123
  979THF     C812722   4.686   1.456   1.709  0.0694 -0.3587 -0.2001
  979THF     C912723   4.805   1.493   1.630  0.5279  0.2816  0.4937
  979THF    H1012724   4.622   1.387   1.647 -2.9116 -1.2673 -0.1461
  979THF    H1112725   4.712   1.398   1.800  0.4171  1.2662 -1.2277
  979THF    H1212726   4.892   1.459   1.687 -1.6853 -1.4594 -1.8711
  979THF    H1312727   4.807   1.435   1.529 -1.4095 -2.7114 -2.5654
  980THF     O112728   0.690   4.784   4.214 -0.2392 -0.3996 -0.2637
  980THF     C212729   0.625   4.784   4.335  0.1935 -0.2608  0.2080
  980THF     C312730   0.831   4.800   4.220  0.1536  0.3594 -0.2502
  980THF     H412731   0.566   4.699   4.341  3.0957 -0.1557  2.7063
  980THF     H512732   0.556   4.864   4.352 -1.0351 -1.2345  0.1898
  980THF     H612733   0.894   4.721   4.188  1.7401  0.2914  3.1075
  980THF     H712734   0.846   4.885   4.156 -2.4467  3.6159 -2.1545
  980THF     C812735   0.852   4.843   4.363 -0.5615 -0.4227 -0.1446
  980THF     C912736   0.736   4.771   4.442 -0.2605 -0.0871 -0.4370
  980THF    H1012737   0.839   4.949   4.374  1.5368  1.3448  0.7653
  980THF    H1112738   0.949   4.809   4.395  0.7919  0.3910 -1.1003
  980THF    H1212739   0.752   4.660   4.456  2.6956 -3.4757 -1.2088
  980THF    H1312740   0.711   4.817   4.539 -2.7806  1.7042 -1.2055
  981THF     O112741   2.450   4.330   2.546  0.1280 -0.2117 -0.3846
  981THF     C212742   2.519   4.450   2.580  0.3790  0.2248 -0.6430
  981THF     C312743   2.548   4.255   2.464  0.8877  0.4531 -0.1752
  981THF     H412744   2.477   4.494   2.670  1.6126  0.6791  0.3628
  981THF     H512745   2.497   4.524   2.505  0.0449 -0.6505 -2.4954
  981THF     H612746   2.509   4.151   2.475  3.3851  0.6490 -2.5608
  981THF     H712747   2.549   4.285   2.358  1.7244  1.5048 -0.2137
  981THF     C812748   2.684   4.276   2.531 -0.3777  0.6425 -0.6735
  981THF     C912749   2.665   4.411   2.606  0.2725  0.0361  0.8048
  981THF    H1012750   2.765   4.274   2.460 -0.9791  1.4587 -0.2395
  981THF    H1112751   2.691   4.204   2.612 -1.8089  0.6961 -0.5979
  981THF    H1212752   2.682   4.407   2.712 -0.7664  0.2288  3.3493
  981THF    H1312753   2.724   4.487   2.553 -0.0258 -0.4156  0.9846
  982THF     O112754   0.862   3.509   2.137 -0.0610  0.4398 -0.4953
  982THF     C212755   0.954   3.567   2.232  0.1330 -0.4691  0.3064
  982THF     C312756   0.799   3.394   2.195 -0.5227 -0.8181 -0.1741
  982THF     H412757   0.951   3.670   2.237 -1.8190 -0.1872  0.8886
  982THF     H512758   1.054   3.539   2.207  0.9419  0.0586 -2.1319
  982THF     H612759   0.695   3.427   2.221 -0.2333  2.9355 -0.0423
  982THF     H712760   0.786   3.301   2.143  0.7493  1.7429 -0.7414
  982THF     C812761   0.865   3.367   2.329  0.4194  0.5200 -0.7306
  982THF     C912762   0.921   3.504   2.366 -0.6703  0.2113 -0.1885
  982THF    H1012763   0.945   3.296   2.315  0.3607 -0.8359 -0.1120
  982THF    H1112764   0.792   3.342   2.404 -0.5298  1.1091 -0.6541
  982THF    H1212765   0.847   3.575   2.403  1.2432 -3.2897 -0.8438
  982THF    H1312766   0.999   3.499   2.443  1.4148 -1.7125 -0.7907
  983THF     O112767   2.535   2.340   4.057  0.7150 -0.4071 -0.0105
  983THF     C212768   2.538   2.256   3.940  0.4689 -0.0355 -0.4985
  983THF     C312769   2.447   2.447   4.020 -1.6045 -0.5503  0.8313
  983THF     H412770   2.575   2.154   3.950 -1.1153 -0.5112 -1.4615
  983THF     H512771   2.600   2.309   3.859  2.2150  1.6893 -2.6523
  983THF     H612772   2.410   2.514   4.100  0.0172  0.0278  2.6058
  983THF     H712773   2.503   2.520   3.968 -3.2062  1.7375 -0.3766
  983THF     C812774   2.339   2.385   3.931 -0.7961  1.0230  0.9719
  983THF     C912775   2.396   2.251   3.879 -0.2526  0.3912 -0.2747
  983THF    H1012776   2.332   2.444   3.840  0.8163 -1.6753 -0.6583
  983THF    H1112777   2.240   2.380   3.969  1.7571 -0.5524 -0.5803
  983THF    H1212778   2.341   2.163   3.894 -0.9646 -1.9917  1.2057
  983THF    H1312779   2.407   2.252   3.777 -0.7779 -3.9704  1.4654
  984THF     O112780   3.568   3.747   5.293  0.2131  0.5965 -0.2690
  984THF     C212781   3.594   3.803   5.169 -0.0172 -0.4892  0.0313
  984THF     C312782   3.696   3.700   5.352  0.2056  0.2783  0.0069
  984THF     H412783   3.515   3.873   5.135  1.6684 -1.8531 -0.4875
  984THF     H512784   3.615   3.732   5.088  4.7711 -1.7669  0.8735
  984THF     H612785   3.693   3.679   5.462 -1.4793 -4.5310  2.3035
  984THF     H712786   3.739   3.616   5.307  0.3708 -2.1665  3.7079
  984THF     C812787   3.782   3.818   5.323 -0.8637 -0.0187  0.1053
  984THF     C912788   3.726   3.878   5.201  0.6471 -0.9443 -0.7271
  984THF    H1012789   3.885   3.778   5.312 -0.0603  0.7438 -1.9348
  984THF    H1112790   3.792   3.889   5.400 -0.6716 -2.8778  0.0550
  984THF    H1212791   3.689   3.976   5.229  0.3858  0.5396  1.4472
  984THF    H1312792   3.794   3.893   5.120  4.0675 -1.1334  0.7732
  985THF     O112793   2.722   0.251   3.625 -0.5784  0.1187 -0.2907
  985THF     C212794   2.851   0.254   3.551  0.4719 -0.0738 -0.4295
  985THF     C312795   2.722   0.379   3.689  0.2314  0.1798  1.0929
  985THF     H412796   2.839   0.160   3.500  1.4605 -0.4731 -0.1432
  985THF     H512797   2.949   0.262   3.600  0.3787 -2.3427  1.6851
  985THF     H612798   2.631   0.393   3.739  1.5811 -0.7173 -1.0816
  985THF     H712799   2.812   0.394   3.746  0.5052 -1.5148  0.8240
  985THF     C812800   2.736   0.472   3.565  0.3098  0.1895 -0.0378
  985THF     C912801   2.809   0.375   3.470  0.7506  0.4184  0.2440
  985THF    H1012802   2.790   0.566   3.582  0.2831  1.4921 -0.5763
  985THF    H1112803   2.635   0.494   3.529  0.5829 -1.8054  1.0799
  985THF    H1212804   2.735   0.351   3.390  0.3974 -0.2746 -0.6823
  985THF    H1312805   2.895   0.434   3.437 -0.0300  0.0500 -2.1328
  986THF     O112806   3.980   1.908   0.662 -0.4423 -0.4018  0.2708
  986THF     C212807   4.070   2.002   0.597 -0.0874 -1.4414  0.5760
  986THF     C312808   3.857   1.926   0.597 -0.2052 -0.0818  0.3079
  986THF     H412809   4.172   1.988   0.633  0.9959  1.0249  1.7929
  986THF     H512810   4.058   2.107   0.614 -0.4709 -0.4111  0.0699
  986THF     H612811   3.788   1.852   0.640 -0.1549  1.6350 -3.2468
  986THF     H712812   3.806   2.014   0.614  1.6669 -0.6699  0.1042
  986THF     C812813   3.898   1.919   0.448  0.1751 -0.1901  0.9722
  986THF     C912814   4.049   1.961   0.454  0.0058 -0.4921 -0.3254
  986THF    H1012815   3.832   1.991   0.393  1.1728 -1.5143 -2.2431
  986THF    H1112816   3.884   1.820   0.403 -0.4815  1.4749 -0.6009
  986THF    H1212817   4.119   1.890   0.414  1.3630  0.0406  2.8276
  986THF    H1312818   4.053   2.054   0.389 -0.4940 -1.6135  0.8657
  987THF     O112819   2.179   0.520   3.344  0.0583  0.2052  0.1381
  987THF     C212820   2.169   0.606   3.234  0.2833 -0.2757  0.3071
  987THF     C312821   2.297   0.550   3.411 -0.4287  0.0114  0.5484
  987THF     H412822   2.128   0.697   3.258  3.0885 -0.6235 -1.4959
  987THF     H512823   2.104   0.564   3.159 -1.0447  1.5918  1.0593
  987THF     H612824   2.267   0.619   3.500 -1.2232 -0.7246  0.5252
  987THF     H712825   2.332   0.465   3.466  0.6194  3.1788 -0.4631
  987THF     C812826   2.397   0.612   3.312  0.0519  1.0630  0.0129
  987THF     C912827   2.315   0.601   3.183 -0.7577 -0.2245  0.0025
  987THF    H1012828   2.495   0.564   3.309  0.8326 -0.5473  0.5486
  987THF    H1112829   2.410   0.711   3.339 -1.8390 -0.1012 -0.7977
  987THF    H1212830   2.329   0.679   3.103 -2.1094  2.4380 -1.8348
  987THF    H1312831   2.341   0.501   3.141  0.2472 -3.2646  0.1393
  988THF     O112832   4.443   4.032   3.143  0.6627 -0.0955 -0.1285
  988THF     C212833   4.492   3.997   3.014 -0.2416  0.3618  0.5423
  988THF     C312834   4.553   4.079   3.227  0.2304 -0.2608 -0.4402
  988THF     H412835   4.486   4.089   2.953 -0.3914 -0.0670  1.6160
  988THF     H512836   4.440   3.917   2.963 -0.9788 -0.9529  1.7051
  988THF     H612837   4.544   4.188   3.234 -0.3190 -0.3028 -1.0973
  988THF     H712838   4.549   4.040   3.328 -0.1230  2.1174  1.0077
  988THF     C812839   4.679   4.051   3.148  0.6505  0.3619  0.3189
  988THF     C912840   4.628   3.952   3.047 -1.0525  0.8834  0.3472
  988THF    H1012841   4.755   3.995   3.211 -0.3959 -3.2443  2.7923
  988THF    H1112842   4.721   4.137   3.100 -1.0589  0.1094  0.9466
  988THF    H1212843   4.699   3.939   2.960  2.6453 -0.9351  0.0362
  988THF    H1312844   4.615   3.854   3.094  0.6078  0.6578  0.2785
  989THF     O112845   0.328   1.038   2.194 -0.2512 -0.3043  0.5434
  989THF     C212846   0.300   0.910   2.182  0.0817 -0.0849  0.0767
  989THF     C312847   0.465   1.055   2.184  0.0773 -0.0598  0.4564
  989THF     H412848   0.290   0.899   2.077  0.0364  2.0724  4.2304
  989THF     H512849   0.206   0.891   2.238  1.7084  0.8289  2.2641
  989THF     H612850   0.498   1.064   2.080 -1.5931 -1.3251 -1.3004
  989THF     H712851   0.504   1.148   2.232  0.2119  1.6796  2.6140
  989THF     C812852   0.520   0.930   2.249 -0.2967 -0.2241 -0.0761
  989THF     C912853   0.419   0.820   2.218  0.3035  0.4833 -0.3809
  989THF    H1012854   0.525   0.939   2.358  1.1573 -1.6702 -0.6077
  989THF    H1112855   0.616   0.916   2.210  2.0865  1.9017  1.6410
  989THF    H1212856   0.463   0.762   2.139 -1.2215  1.2511  2.3591
  989THF    H1312857   0.397   0.761   2.314  0.1964  1.5800  1.6536
  990THF     O112858   2.039   5.045   4.542  0.5602  0.0989  0.5840
  990THF     C212859   1.900   5.025   4.557  0.1100  0.9259 -0.2703
  990THF     C312860   2.080   5.138   4.637 -0.5678 -1.0453  0.7500
  990THF     H412861   1.889   4.955   4.641  1.8137  0.7951  2.2405
  990THF     H512862   1.843   4.986   4.472  2.8037  0.7876  1.0794
  990THF     H612863   2.091   5.093   4.738  1.9091 -1.7375  2.9819
  990THF     H712864   2.189   5.173   4.618 -0.3271  1.1953 -0.7851
  990THF     C812865   1.963   5.240   4.644 -0.1932 -0.1216 -0.3102
  990THF     C912866   1.846   5.161   4.586  0.2463 -0.2966 -0.1372
  990THF    H1012867   1.979   5.331   4.576  1.3898 -0.0529  1.8557
  990THF    H1112868   1.946   5.281   4.750  2.1883  0.8912  1.2926
  990THF    H1212869   1.760   5.161   4.663  0.2011  1.0507 -2.3083
  990THF    H1312870   1.794   5.213   4.510  2.3282 -0.1687  1.3583
  991THF     O112871   3.296   2.029   1.179 -0.0815 -0.4756 -0.6165
  991THF     C212872   3.270   1.940   1.080  0.2232  0.2515 -0.0449
  991THF     C312873   3.338   1.952   1.289 -0.7408  0.3996 -0.2911
  991THF     H412874   3.314   1.969   0.984 -1.7834  0.2909 -0.9608
  991THF     H512875   3.167   1.935   1.064  1.6473 -2.0290 -0.4330
  991THF     H612876   3.389   2.009   1.364 -0.2094  0.5939 -3.3181
  991THF     H712877   3.245   1.908   1.328  1.2046 -1.3413 -1.9515
  991THF     C812878   3.414   1.842   1.228  0.4592  0.4314  0.0639
  991THF     C912879   3.325   1.805   1.109  0.1363  0.7034  0.1001
  991THF    H1012880   3.432   1.755   1.295  1.0835 -1.3648  0.8145
  991THF    H1112881   3.514   1.874   1.195  1.6501 -2.5650 -0.9014
  991THF    H1212882   3.380   1.763   1.024 -1.5566 -0.6973 -0.9551
  991THF    H1312883   3.243   1.737   1.134  1.2513  0.9409  0.0775
  992THF     O112884   4.158   1.464   1.795  0.3362 -0.0336 -0.3425
  992THF     C212885   4.100   1.473   1.664 -0.2797 -0.4322  0.0061
  992THF     C312886   4.276   1.382   1.787 -0.4288  0.0462  0.1447
  992THF     H412887   4.084   1.573   1.632 -1.9743 -1.4171  1.3078
  992THF     H512888   3.993   1.431   1.651  1.7113  0.6796 -0.7562
  992THF     H612889   4.361   1.426   1.841 -2.6867 -0.7295 -1.2430
  992THF     H712890   4.255   1.281   1.812  1.5885  1.5133  0.1542
  992THF     C812891   4.318   1.377   1.638  0.4370 -0.9028 -0.5264
  992THF     C912892   4.182   1.385   1.569 -0.0316 -0.0259 -0.0101
  992THF    H1012893   4.381   1.294   1.617 -2.5403 -0.0038 -2.1530
  992THF    H1112894   4.379   1.463   1.627  1.9058  0.0300 -1.5983
  992THF    H1212895   4.203   1.426   1.471 -1.8801  0.3285  1.1479
  992THF    H1312896   4.139   1.288   1.551 -1.1810 -0.2074  1.8502
  993THF     O112897   1.739   0.915   4.511 -0.0390 -0.2958 -0.2538
  993THF     C212898   1.607   0.846   4.501  0.9382 -0.0238 -0.2745
  993THF     C312899   1.757   0.972   4.388 -0.2770  0.4007  0.0679
  993THF     H412900   1.552   0.845   4.596  0.8584 -1.1066 -0.7487
  993THF     H512901   1.633   0.746   4.471  0.7356 -1.3788  0.0007
  993THF     H612902   1.836   1.044   4.396  1.2496 -2.1949  0.0452
  993THF     H712903   1.795   0.905   4.308 -0.0978 -0.6349 -1.3736
  993THF     C812904   1.618   1.028   4.349 -0.8001  0.4207 -0.0604
  993THF     C912905   1.527   0.918   4.386 -0.0679  0.5288 -0.4236
  993THF    H1012906   1.605   1.056   4.244 -1.8717  1.3130 -2.9956
  993THF    H1112907   1.598   1.109   4.420 -0.0668 -0.6258 -1.6248
  993THF    H1212908   1.427   0.941   4.423  2.0862 -0.4157  2.4021
  993THF    H1312909   1.504   0.850   4.302  1.2923  3.4809 -1.0103
  994THF     O112910   4.320   1.586   0.833  0.7949  0.1273 -0.1726
  994THF     C212911   4.219   1.683   0.801  0.1073  0.6034  0.6035
  994THF     C312912   4.423   1.648   0.907 -1.0363 -0.8401  0.3411
  994THF     H412913   4.125   1.636   0.797  0.6696 -0.7138 -1.0166
  994THF     H512914   4.238   1.745   0.713  0.8493 -1.0345 -0.4428
  994THF     H612915   4.443   1.593   1.006 -1.2350  0.1388  0.9093
  994THF     H712916   4.517   1.641   0.853 -2.2459 -2.6567 -1.4926
  994THF     C812917   4.382   1.790   0.931  0.3763 -0.3721  0.5454
  994THF     C912918   4.234   1.782   0.918  0.8996  0.4600  0.0597
  994THF    H1012919   4.432   1.861   0.865 -1.8663  1.8951  1.4537
  994THF    H1112920   4.412   1.807   1.036 -0.6664  1.9153  0.8883
  994THF    H1212921   4.186   1.740   1.006  1.1267  0.5817  1.6661
  994THF    H1312922   4.188   1.878   0.894 -2.5557 -1.5969  3.1888
  995THF     O112923   3.108   0.514   4.267  0.0368  0.1568 -0.1118
  995THF     C212924   3.116   0.550   4.128 -0.2966 -0.4389  0.4810
  995THF     C312925   3.143   0.376   4.281  0.1143 -0.5239  0.0078
  995THF     H412926   3.158   0.657   4.116 -1.1021 -0.5761  2.2760
  995THF     H512927   3.017   0.539   4.086  1.9123  0.7044 -1.3817
  995THF     H612928   3.230   0.383   4.342  0.1756 -2.5291  1.7021
  995THF     H712929   3.061   0.320   4.325  0.8434 -0.0153  1.1192
  995THF     C812930   3.166   0.330   4.139 -0.1872  0.2038 -0.5096
  995THF     C912931   3.217   0.455   4.070  0.4975  0.3494  1.4795
  995THF    H1012932   3.071   0.288   4.094 -3.0293 -0.6726  4.1198
  995THF    H1112933   3.244   0.253   4.125  0.6139 -0.9421 -2.4548
  995THF    H1212934   3.317   0.487   4.110 -0.8406  1.5698 -0.2011
  995THF    H1312935   3.228   0.465   3.955  1.5473  0.6452 -1.1206
  996THF     O112936   0.311   2.167   0.058  0.3235 -0.5137 -0.3872
  996THF     C212937   0.233   2.052   0.020 -0.6001  0.3709 -0.9690
  996THF     C312938   0.423   2.179  -0.023  0.0911  0.0264  0.7089
  996THF     H412939   0.130   2.083   0.031  2.2313  1.1521 -0.5875
  996THF     H512940   0.252   1.987   0.098  2.0776 -1.7681 -0.4290
  996THF     H612941   0.471   2.277  -0.049  1.8386 -2.4784  3.6313
  996THF     H712942   0.498   2.112   0.018 -1.3321  0.6906 -0.7833
  996THF     C812943   0.376   2.115  -0.156  0.6250 -0.0389  0.1605
  996THF     C912944   0.277   2.008  -0.115 -0.7997  0.1795 -0.3073
  996THF    H1012945   0.459   2.086  -0.223  0.1543 -0.1705  1.5937
  996THF    H1112946   0.322   2.190  -0.213 -1.4505 -0.0745 -0.9455
  996THF    H1212947   0.206   1.996  -0.198 -1.3850 -2.5428 -3.7979
  996THF    H1312948   0.322   1.911  -0.087  1.1963  0.2475 -1.2144
  997THF     O112949   4.673   5.000   4.723  0.2082 -0.3665 -0.4168
  997THF     C212950   4.586   5.084   4.644  0.5162  0.0881 -0.3610
  997THF     C312951   4.803   5.045   4.704  0.3157  0.4323  0.0493
  997THF     H412952   4.488   5.082   4.685  0.8945  1.2675 -0.1047
  997THF     H512953   4.580   5.032   4.551  1.2940  0.3715  2.0610
  997THF     H612954   4.855   5.040   4.796 -2.8972  2.7859  0.8351
  997THF     H712955   4.843   4.977   4.629 -1.5886  1.0177 -1.7193
  997THF     C812956   4.803   5.187   4.644  0.0830 -0.2268 -0.0338
  997THF     C912957   4.652   5.213   4.640  0.2165  0.0688  0.1356
  997THF    H1012958   4.828   5.188   4.537  0.1846 -1.4004  1.1894
  997THF    H1112959   4.860   5.260   4.689 -2.7609 -1.5647  0.0448
  997THF    H1212960   4.617   5.281   4.725  0.4162  2.2743  3.6129
  997THF    H1312961   4.616   5.276   4.555 -1.7819 -0.3939  1.9598
  998THF     O112962   0.211   1.851   3.883  0.2481 -0.0561  0.7425
  998THF     C212963   0.229   1.948   3.779  0.2674 -0.0930 -0.0275
  998THF     C312964   0.119   1.888   3.982  0.1016 -0.2340 -0.3432
  998THF     H412965   0.228   1.892   3.684  3.0340  1.2896  0.4028
  998THF     H512966   0.318   2.012   3.794  0.1257  0.0543 -1.2791
  998THF     H612967   0.045   1.813   3.999  2.4770 -1.5645  0.1762
  998THF     H712968   0.181   1.923   4.071  0.4900  0.2181 -0.2274
  998THF     C812969   0.063   2.023   3.930  0.0871  0.0444 -0.3938
  998THF     C912970   0.096   2.022   3.786 -0.1709 -0.2008 -0.0495
  998THF    H1012971   0.099   2.109   3.985 -0.4017  1.9716  1.2816
  998THF    H1112972  -0.055   2.020   3.941 -0.0390  0.1732 -0.0124
  998THF    H1212973   0.033   1.953   3.723  0.6024 -3.3385 -0.7587
  998THF    H1312974   0.091   2.122   3.743  0.9032  2.4080 -1.0168
  999THF     O112975   0.007   4.359   1.085 -0.1526  0.0293  0.0329
  999THF     C212976   0.055   4.473   1.158  0.5916  0.3690  0.1592
  999THF     C312977  -0.008   4.261   1.184  0.4617  0.7372  0.5856
  999THF     H412978  -0.027   4.528   1.211  0.8809  1.1850 -1.0738
  999THF     H512979   0.111   4.547   1.099 -1.6491  0.1672  0.6368
  999THF     H612980  -0.101   4.265   1.233  1.6249 -0.0244  1.0429
  999THF     H712981  -0.004   4.165   1.139  0.8331  0.1987 -1.6060
  999THF     C812982   0.110   4.279   1.282  0.9424  0.1006  0.1896
  999THF     C912983   0.151   4.423   1.262 -0.0745 -0.7565  0.2223
  999THF    H1012984   0.193   4.216   1.249 -0.2925  0.8354 -0.3674
  999THF    H1112985   0.081   4.262   1.386 -1.1213 -0.0874  1.1220
  999THF    H1212986   0.141   4.479   1.355  0.7266 -0.5911 -0.0668
  999THF    H1312987   0.256   4.443   1.238  0.5707  1.8897  1.2043
 1000THF     O112988   3.904   3.333   3.182  0.0831 -1.1749 -0.3438
 1000THF     C212989   3.829   3.445   3.127 -0.4258 -0.0196  0.9132
 1000THF     C312990   3.846   3.297   3.304  0.1102  0.6941  0.3109
 1000THF     H412991   3.827   3.449   3.022  1.1738  0.2939  0.3089
 1000THF     H512992   3.874   3.540   3.152  0.3068 -2.3604  0.3050
 1000THF     H612993   3.862   3.191   3.315 -0.3934 -0.7454  0.6268
 1000THF     H712994   3.892   3.360   3.385 -0.7108  1.4754  2.0831
 1000THF     C812995   3.696   3.328   3.296 -0.3589  0.1210  0.2485
 1000THF     C912996   3.688   3.426   3.178 -0.5695 -0.3833 -0.1236
 1000THF    H1012997   3.654   3.360   3.384 -1.8851 -2.0627  0.2568
 1000THF    H1112998   3.646   3.234   3.277 -4.2236 -0.2814  1.5986
 1000THF    H1212999   3.632   3.365   3.105  2.7721 -3.3803 -0.0253
 1000THF    H1313000   3.637   3.521   3.204  0.8468 -0.0981  0.9769
 1001THF     O113001   0.801   0.534   4.254 -0.8431 -0.0526 -0.6042
 1001THF     C213002   0.804   0.525   4.392 -0.5653 -0.4246  0.1192
 1001THF     C313003   0.676   0.585   4.217 -0.2906  0.0902 -0.1036
 1001THF     H413004   0.828   0.625   4.429 -2.2574 -0.6827  0.4639
 1001THF     H513005   0.884   0.458   4.436  1.9832 -1.7569  3.6791
 1001THF     H613006   0.675   0.691   4.189  0.4810  1.6148 -1.7934
 1001THF     H713007   0.645   0.537   4.125  1.8061  0.2100 -2.7724
 1001THF     C813008   0.577   0.554   4.324  0.3059  0.1673  0.7220
 1001THF     C913009   0.665   0.496   4.436  0.1933  0.9806 -0.1907
 1001THF    H1013010   0.514   0.475   4.290  1.2130  0.4479  1.1997
 1001THF    H1113011   0.519   0.643   4.344 -2.5284 -1.1420  1.4423
 1001THF    H1213012   0.647   0.547   4.521 -0.2587 -2.6281 -1.8627
 1001THF    H1313013   0.647   0.387   4.455 -0.5647 -1.5972  0.1193
 1002THF     O113014   0.459   1.230   3.658 -0.0019  0.7412  0.2167
 1002THF     C213015   0.430   1.094   3.635 -0.1182  0.2152  0.2529
 1002THF     C313016   0.420   1.309   3.540  0.3549 -0.2206 -0.0731
 1002THF     H413017   0.397   1.035   3.721  0.5604 -3.0364  0.5739
 1002THF     H513018   0.527   1.055   3.604  2.0174 -2.2145 -1.0067
 1002THF     H613019   0.387   1.413   3.571  0.5715  3.6811 -0.3577
 1002THF     H713020   0.496   1.312   3.465 -0.7853 -0.6084  1.0091
 1002THF     C813021   0.297   1.232   3.491  0.3383 -1.2508 -0.2825
 1002THF     C913022   0.323   1.091   3.525 -0.0308 -0.5360  0.0844
 1002THF    H1013023   0.261   1.250   3.389 -1.9059 -0.1529 -1.7114
 1002THF    H1113024   0.214   1.258   3.547  0.3464  0.4453  0.0880
 1002THF    H1213025   0.228   1.040   3.566  0.9187 -1.5111 -1.8120
 1002THF    H1313026   0.360   1.043   3.435  0.9009  0.8899 -1.4837
 1003THF     O113027   3.458   3.271   3.617  0.1744 -0.3731  0.2849
 1003THF     C213028   3.387   3.176   3.562  0.2887  0.3942 -0.7998
 1003THF     C313029   3.582   3.220   3.651  0.0555 -0.3374  0.1976
 1003THF     H413030   3.404   3.188   3.456  2.4772  0.5993  0.4317
 1003THF     H513031   3.282   3.194   3.572 -2.8861 -0.7672 -1.5677
 1003THF     H613032   3.639   3.214   3.560 -0.9982  0.0981 -1.2256
 1003THF     H713033   3.635   3.287   3.718  2.6319 -1.8781  0.5496
 1003THF     C813034   3.554   3.086   3.701  0.3796  0.3402  0.0985
 1003THF     C913035   3.443   3.043   3.612  0.5047  0.5108  0.2776
 1003THF    H1013036   3.524   3.074   3.813  0.2287  1.0648  2.5699
 1003THF    H1113037   3.639   3.018   3.693  0.3838 -0.9075  0.6607
 1003THF    H1213038   3.490   2.984   3.531 -1.8153 -1.4641 -0.9502
 1003THF    H1313039   3.377   2.968   3.654  1.4802  2.7889  1.2716
 1004THF     O113040   3.484   2.637   3.318  0.5697 -0.0952  0.1648
 1004THF     C213041   3.600   2.565   3.364  0.7357 -0.0321  0.2364
 1004THF     C313042   3.453   2.737   3.410  0.6867 -0.4850 -0.3787
 1004THF     H413043   3.692   2.626   3.348  0.1826 -0.6566  0.1691
 1004THF     H513044   3.627   2.477   3.310 -0.3077 -0.2808  0.4036
 1004THF     H613045   3.537   2.805   3.414  1.0819 -2.1340 -0.9922
 1004THF     H713046   3.358   2.784   3.386 -3.2101 -5.0972 -0.2202
 1004THF     C813047   3.456   2.662   3.547 -0.4810 -0.3320  0.7319
 1004THF     C913048   3.562   2.550   3.513  0.5162  0.4445 -0.6460
 1004THF    H1013049   3.363   2.601   3.564 -0.2900 -0.3732  0.3620
 1004THF    H1113050   3.476   2.725   3.636 -2.1008 -0.6639  0.0933
 1004THF    H1213051   3.652   2.566   3.570 -1.6584 -1.6404 -1.6323
 1004THF    H1313052   3.518   2.452   3.525 -0.0164 -1.0894 -0.8939
 1005THF     O113053   3.946   4.707   4.062  0.1053 -0.2317 -0.2508
 1005THF     C213054   4.087   4.686   4.103 -0.1977 -0.0387 -0.6183
 1005THF     C313055   3.936   4.838   4.005 -0.4745  0.0901  0.1282
 1005THF     H413056   4.129   4.619   4.033 -1.7388  2.0733 -1.7196
 1005THF     H513057   4.103   4.657   4.212 -0.2400  0.9437  0.1707
 1005THF     H613058   3.958   4.817   3.901 -1.3013  2.5836  3.1141
 1005THF     H713059   3.832   4.884   4.007 -0.6649  0.2034 -0.8918
 1005THF     C813060   4.045   4.924   4.073 -0.0115  0.3104  0.7246
 1005THF     C913061   4.157   4.824   4.089  0.0036 -0.8530  0.8592
 1005THF    H1013062   3.995   4.947   4.172 -3.8532 -2.5520  1.2445
 1005THF    H1113063   4.081   5.008   4.020 -0.0416 -1.6697  0.5922
 1005THF    H1213064   4.233   4.826   4.006  0.1843  1.4258 -0.6309
 1005THF    H1313065   4.219   4.855   4.176 -0.0516  1.4016  2.6153
 1006THF     O113066   1.366   0.005   1.611 -0.3186  0.2935 -0.3656
 1006THF     C213067   1.331   0.026   1.474  0.5461  0.1772 -0.5868
 1006THF     C313068   1.250  -0.002   1.692 -0.1806  0.3746 -0.3043
 1006THF     H413069   1.374  -0.059   1.415  0.3872 -0.8456  0.9496
 1006THF     H513070   1.368   0.117   1.445  0.4041 -0.9047 -1.5439
 1006THF     H613071   1.244  -0.110   1.713 -1.0576 -0.3072 -1.7520
 1006THF     H713072   1.270   0.032   1.786 -2.6726  3.1266 -2.5637
 1006THF     C813073   1.128   0.047   1.612 -0.1941 -0.2735 -0.3468
 1006THF     C913074   1.176   0.011   1.470 -0.1550 -0.0922 -1.3841
 1006THF    H1013075   1.096   0.150   1.614 -1.2214  1.2517 -0.9020
 1006THF    H1113076   1.043  -0.016   1.637 -1.4090 -1.1333  0.9481
 1006THF    H1213077   1.161  -0.094   1.443 -1.4932 -1.0347  1.8083
 1006THF    H1313078   1.133   0.067   1.384 -0.1775  2.5436 -0.3631
 1007THF     O113079   4.470   3.909   2.158  0.1081 -0.1477 -0.0764
 1007THF     C213080   4.425   3.901   2.288  0.5516 -0.9804 -0.6654
 1007THF     C313081   4.461   3.788   2.082 -0.6445  0.6435  0.1741
 1007THF     H413082   4.397   4.002   2.324  0.0485  3.0036  0.0539
 1007THF     H513083   4.510   3.867   2.347 -1.9109 -0.9666  1.0525
 1007THF     H613084   4.444   3.805   1.969  0.0003  3.1979 -0.1772
 1007THF     H713085   4.540   3.720   2.099  0.5702  0.3686 -1.1828
 1007THF     C813086   4.332   3.738   2.139  0.8348  0.3135  0.0555
 1007THF     C913087   4.313   3.793   2.283  0.0611 -1.1875  0.0266
 1007THF    H1013088   4.333   3.630   2.132  1.1890  2.2362 -3.3865
 1007THF    H1113089   4.247   3.767   2.071  1.2880 -0.2253  1.8026
 1007THF    H1213090   4.211   3.837   2.290  2.8396 -0.3015 -0.4222
 1007THF    H1313091   4.329   3.722   2.365  0.3518  1.6943  1.6126
 1008THF     O113092   1.650   3.875   0.129 -0.0897  0.5465 -0.1198
 1008THF     C213093   1.694   3.996   0.179  0.0926  0.7657 -0.8330
 1008THF     C313094   1.574   3.904   0.011 -0.4681  0.2077 -0.2956
 1008THF     H413095   1.791   4.028   0.140 -0.6739 -1.9023 -0.7017
 1008THF     H513096   1.705   3.981   0.292 -1.1363 -2.8551 -1.6597
 1008THF     H613097   1.644   3.891  -0.075 -1.1549 -0.1999 -0.5449
 1008THF     H713098   1.497   3.833  -0.016  1.3383  0.6865 -0.7019
 1008THF     C813099   1.511   4.041   0.026  0.3687 -0.1683 -0.6441
 1008THF     C913100   1.580   4.088   0.151 -0.7289  0.7356 -0.7980
 1008THF    H1013101   1.400   4.042   0.030 -0.8074 -2.0034  0.5174
 1008THF    H1113102   1.538   4.104  -0.063  2.5328 -1.6260 -0.1441
 1008THF    H1213103   1.612   4.193   0.158 -4.4785 -0.9790  1.2394
 1008THF    H1313104   1.511   4.078   0.245  1.3503  0.3743  1.1988
 1009THF     O113105   3.537   0.485   2.081 -0.2462 -0.3853 -0.3325
 1009THF     C213106   3.448   0.596   2.072 -0.0407 -0.4243 -0.2451
 1009THF     C313107   3.574   0.452   1.945  0.2511 -0.2683  0.4041
 1009THF     H413108   3.490   0.661   2.150  4.0815  1.5804 -0.9463
 1009THF     H513109   3.354   0.554   2.106  0.2744 -0.7591  1.3196
 1009THF     H613110   3.680   0.462   1.944  2.0091  2.1285  1.5548
 1009THF     H713111   3.557   0.345   1.930  0.6964 -0.7301  0.1907
 1009THF     C813112   3.503   0.554   1.849  0.5070  0.4303  0.2337
 1009THF     C913113   3.453   0.664   1.938  0.2413  0.1320  1.1032
 1009THF    H1013114   3.423   0.511   1.791 -0.0216  1.6201  3.3568
 1009THF    H1113115   3.574   0.595   1.775  1.6891 -1.6835  0.0689
 1009THF    H1213116   3.525   0.742   1.940  1.5476 -1.3407  0.4523
 1009THF    H1313117   3.351   0.704   1.916  0.9656 -0.0013  1.9190
 1010THF     O113118   3.597   1.128   1.826  0.0524 -0.3861  0.0911
 1010THF     C213119   3.727   1.082   1.849  0.0919 -0.2402  0.3217
 1010THF     C313120   3.514   1.026   1.763  0.4277  0.9749 -0.2022
 1010THF     H413121   3.760   1.098   1.954 -3.1179  0.1059  0.5633
 1010THF     H513122   3.792   1.143   1.792 -1.9781  2.1472  0.2615
 1010THF     H613123   3.451   0.983   1.839 -0.2807  0.4665  2.1733
 1010THF     H713124   3.443   1.070   1.692  0.5579 -0.1784 -0.3473
 1010THF     C813125   3.621   0.923   1.709  0.7230  0.7317 -0.0216
 1010THF     C913126   3.727   0.938   1.813 -0.1681  0.2125 -0.2016
 1010THF    H1013127   3.657   0.938   1.607 -1.0534  1.1486  2.3043
 1010THF    H1113128   3.577   0.824   1.702  0.8471 -1.1318  0.5176
 1010THF    H1213129   3.706   0.881   1.908 -0.6539 -2.3471  1.2402
 1010THF    H1313130   3.826   0.908   1.777 -1.3198  0.7009 -0.0907
 1011THF     O113131   2.694   3.765   1.336 -0.4186  0.1979 -0.4865
 1011THF     C213132   2.824   3.823   1.357  0.0465  0.3590  0.1738
 1011THF     C313133   2.712   3.654   1.252  0.8894 -0.5536 -0.5883
 1011THF     H413134   2.835   3.899   1.440  1.2525 -2.0052 -0.5630
 1011THF     H513135   2.862   3.861   1.262  0.4544 -1.3163  1.1708
 1011THF     H613136   2.629   3.589   1.257 -0.7462  0.0901  0.3858
 1011THF     H713137   2.729   3.688   1.151 -1.6269  0.2702  2.0003
 1011THF     C813138   2.842   3.587   1.307 -0.0593  0.9286 -0.3398
 1011THF     C913139   2.911   3.700   1.386  0.2709 -0.0695  0.2025
 1011THF    H1013140   2.906   3.541   1.222  0.3386 -1.7282  1.1634
 1011THF    H1113141   2.820   3.503   1.367 -1.0436 -0.7843  0.7394
 1011THF    H1213142   2.890   3.664   1.484 -0.1716  0.3297  0.0241
 1011THF    H1313143   3.024   3.716   1.372  1.8714  0.1099 -0.5571
 1012THF     O113144   5.327   1.120   0.076  0.3339  0.1880  0.2514
 1012THF     C213145   5.355   1.149   0.219  0.0089 -0.0758 -0.2127
 1012THF     C313146   5.261   0.994   0.062  0.0248  0.4468 -0.4107
 1012THF     H413147   5.322   1.250   0.241  0.2999  1.7160 -0.6326
 1012THF     H513148   5.465   1.144   0.234  0.4175 -2.0632  0.3538
 1012THF     H613149   5.204   0.996  -0.029  1.4901 -1.4517  0.9097
 1012THF     H713150   5.350   0.931   0.046 -0.2095  4.3692 -0.9169
 1012THF     C813151   5.189   0.971   0.190  0.1639 -0.0059 -0.4294
 1012THF     C913152   5.286   1.032   0.294  0.2858 -0.1823  0.6070
 1012THF    H1013153   5.158   0.871   0.210  1.2848  0.6986 -0.8619
 1012THF    H1113154   5.100   1.029   0.186 -3.4509 -2.6577  0.7144
 1012THF    H1213155   5.231   1.070   0.386  1.8936  0.1008 -0.0159
 1012THF    H1313156   5.356   0.963   0.336 -0.4432 -0.1773  0.7747
 1013THF     O113157   1.852   3.568   3.746 -0.1650  0.0588  0.3056
 1013THF     C213158   1.900   3.552   3.876  0.7587 -0.1219 -0.2911
 1013THF     C313159   1.967   3.572   3.655  0.6442 -0.1526 -0.3753
 1013THF     H413160   1.946   3.458   3.905  1.3180  2.6697 -0.5980
 1013THF     H513161   1.829   3.585   3.948  1.1333 -2.1730 -1.5829
 1013THF     H613162   2.003   3.468   3.646 -0.5012  0.6564 -1.5867
 1013THF     H713163   1.943   3.621   3.563  1.9900 -0.6164 -1.2180
 1013THF     C813164   2.070   3.641   3.744  0.2089  0.5130  0.0181
 1013THF     C913165   2.015   3.644   3.883  0.1008 -0.4474 -0.3507
 1013THF    H1013166   2.083   3.745   3.711 -1.6096  1.7466 -0.5914
 1013THF    H1113167   2.176   3.598   3.741  3.4716 -0.0513  0.5589
 1013THF    H1213168   2.088   3.613   3.960  0.3977  1.0138 -1.5903
 1013THF    H1313169   1.990   3.749   3.892  1.1403  1.2606 -0.6399
 1014THF     O113170   1.856   3.680   1.911 -0.2426 -0.8338  0.4487
 1014THF     C213171   1.766   3.791   1.903 -0.4374  0.5295  0.1549
 1014THF     C313172   1.816   3.613   2.032 -0.5061  0.2429 -0.2441
 1014THF     H413173   1.683   3.755   1.846  0.7574 -1.3129 -2.6300
 1014THF     H513174   1.803   3.880   1.841  0.5689 -0.2598  0.6264
 1014THF     H613175   1.740   3.536   2.011 -0.7428 -1.2000 -0.3934
 1014THF     H713176   1.904   3.561   2.076  0.1537 -2.2912 -1.2954
 1014THF     C813177   1.763   3.723   2.131 -0.5199 -0.2199  0.0033
 1014THF     C913178   1.697   3.817   2.037 -0.1655 -0.7463  0.0516
 1014THF    H1013179   1.849   3.768   2.183 -0.0030 -1.8849 -0.1237
 1014THF    H1113180   1.689   3.692   2.205 -1.0701 -1.0412 -0.9383
 1014THF    H1213181   1.594   3.793   2.041 -0.2449 -0.1519  1.6638
 1014THF    H1313182   1.712   3.922   2.067 -0.5577  0.4303 -1.4973
 1015THF     O113183   1.961   2.587   2.446 -0.2897  0.5436 -0.5425
 1015THF     C213184   1.946   2.718   2.488  0.1362  0.0704 -0.5449
 1015THF     C313185   2.089   2.544   2.485  0.2235 -0.6029  0.3626
 1015THF     H413186   1.935   2.714   2.593  0.4044  0.8950 -0.4919
 1015THF     H513187   1.854   2.763   2.448 -0.6944 -1.7716  1.1631
 1015THF     H613188   2.112   2.538   2.593  4.3485 -0.6809 -0.0575
 1015THF     H713189   2.117   2.448   2.436 -2.3638 -0.5732 -3.0354
 1015THF     C813190   2.171   2.664   2.435 -0.0808 -0.3233  0.0971
 1015THF     C913191   2.086   2.784   2.447  0.2960  0.4070  0.3257
 1015THF    H1013192   2.193   2.649   2.333 -0.6959  1.4474 -0.5067
 1015THF    H1113193   2.256   2.693   2.497 -0.0385  1.2442  2.2414
 1015THF    H1213194   2.121   2.875   2.496  0.3574  3.3792 -0.1929
 1015THF    H1313195   2.080   2.821   2.348  0.8119 -1.1727 -0.4425
 1016THF     O113196   1.841   1.092   0.800  0.3697  0.2396 -0.2040
 1016THF     C213197   1.731   1.132   0.886  0.8254  0.2852  0.3808
 1016THF     C313198   1.960   1.143   0.871  0.4422 -0.2655  0.0136
 1016THF     H413199   1.736   1.059   0.965  1.5213  0.9918 -0.2963
 1016THF     H513200   1.638   1.123   0.828 -2.9814 -1.2192  0.8164
 1016THF     H613201   1.979   1.093   0.962  0.5880  1.0186  0.6344
 1016THF     H713202   2.041   1.134   0.800 -2.9597 -1.8314 -0.2286
 1016THF     C813203   1.913   1.283   0.899  0.4202 -0.4946 -0.0258
 1016THF     C913204   1.767   1.274   0.924 -0.4680  0.3044  0.2952
 1016THF    H1013205   1.930   1.349   0.812  2.3128  0.2126  3.2464
 1016THF    H1113206   1.973   1.323   0.975  0.4158 -1.7723 -2.6896
 1016THF    H1213207   1.758   1.293   1.022 -3.0697  0.2095 -1.6333
 1016THF    H1313208   1.706   1.360   0.887 -2.8286  1.7110 -2.0397
 1017THF     O113209   0.756   2.574   3.753 -0.3240 -0.5031 -0.3212
 1017THF     C213210   0.700   2.702   3.760  0.3841 -0.0730 -0.5726
 1017THF     C313211   0.881   2.597   3.686 -0.1684  0.3820 -0.2822
 1017THF     H413212   0.747   2.758   3.842 -0.1614  0.1698 -2.0463
 1017THF     H513213   0.589   2.704   3.772  1.5339  2.2589 -0.0349
 1017THF     H613214   0.956   2.648   3.751 -1.3296 -0.9182  1.2236
 1017THF     H713215   0.918   2.495   3.654  1.3483 -2.7982  2.1022
 1017THF     C813216   0.842   2.681   3.569 -0.0240 -0.4428 -0.2570
 1017THF     C913217   0.726   2.768   3.625 -0.2087 -0.1244 -0.2566
 1017THF    H1013218   0.804   2.625   3.481  2.1228  1.0905 -0.0056
 1017THF    H1113219   0.920   2.742   3.527 -0.4174 -1.1812 -2.2953
 1017THF    H1213220   0.750   2.875   3.623  1.1151 -1.6283 -0.1308
 1017THF    H1313221   0.644   2.752   3.559  1.6127 -0.1068 -1.6792
 1018THF     O113222   3.098   4.700   2.438  0.2281  0.2638  0.3690
 1018THF     C213223   3.061   4.612   2.539 -0.0064 -0.1960 -0.0636
 1018THF     C313224   3.027   4.649   2.318 -0.1782 -0.4598  0.4216
 1018THF     H413225   2.959   4.646   2.564  1.8487 -1.1502 -0.4021
 1018THF     H513226   3.128   4.617   2.626 -2.4632 -0.6310  0.9861
 1018THF     H613227   2.921   4.678   2.325  0.7432 -0.2742 -0.6435
 1018THF     H713228   3.072   4.703   2.238  0.9934  0.5935 -1.9018
 1018THF     C813229   3.049   4.498   2.322 -0.2126  0.3962 -0.0539
 1018THF     C913230   3.061   4.474   2.477  0.1690  0.3461  0.1814
 1018THF    H1013231   3.143   4.477   2.272 -3.6600  1.5413 -2.4417
 1018THF    H1113232   2.980   4.445   2.262  1.9511 -0.8573 -0.6238
 1018THF    H1213233   2.976   4.415   2.513 -1.6776  1.8733 -0.1075
 1018THF    H1313234   3.150   4.424   2.504 -2.1662 -1.2321 -0.7170
 1019THF     O113235   4.349   4.911   1.826 -0.3202 -0.6509  0.7289
 1019THF     C213236   4.434   4.852   1.727 -0.6415 -0.4495  0.7226
 1019THF     C313237   4.422   4.994   1.904 -0.1737 -0.0681  0.1029
 1019THF     H413238   4.386   4.817   1.633 -1.8978  0.9724  0.0441
 1019THF     H513239   4.494   4.773   1.768 -0.3700  1.7226 -0.6149
 1019THF     H613240   4.344   5.044   1.968  3.8234 -2.0191  1.1900
 1019THF     H713241   4.491   4.956   1.980  0.0371  1.7308  0.0416
 1019THF     C813242   4.492   5.074   1.791  0.1963  0.6425 -0.1610
 1019THF     C913243   4.525   4.969   1.691  0.8928  0.4428 -0.2768
 1019THF    H1013244   4.580   5.133   1.831  1.8497  3.3579  1.7788
 1019THF    H1113245   4.419   5.145   1.750 -0.5003  4.0686  2.8680
 1019THF    H1213246   4.500   5.020   1.597 -1.2943  2.3123  1.1263
 1019THF    H1313247   4.627   4.933   1.683  0.1376 -1.2195 -0.6814
 1020THF     O113248   4.859   2.025   4.299  0.0644  0.1757 -0.1769
 1020THF     C213249   4.861   1.923   4.395  0.0344 -0.4418 -0.5498
 1020THF     C313250   4.907   1.971   4.176  0.0291 -1.0019  0.0883
 1020THF     H413251   4.808   1.979   4.473  0.7776  2.1109  0.5460
 1020THF     H513252   4.953   1.904   4.438 -0.4192 -2.6580  1.2565
 1020THF     H613253   4.865   2.029   4.092  0.5085 -1.2464 -1.9637
 1020THF     H713254   5.014   1.968   4.168 -1.5435  1.2375 -0.4378
 1020THF     C813255   4.857   1.824   4.179  0.2855  0.0634 -0.6313
 1020THF     C913256   4.796   1.811   4.324 -0.1466  0.0839  0.5876
 1020THF    H1013257   4.946   1.767   4.164  0.5908  2.8790  1.5347
 1020THF    H1113258   4.779   1.805   4.104 -0.1279 -1.6762 -0.0124
 1020THF    H1213259   4.686   1.811   4.318  0.1342 -2.2167  3.1114
 1020THF    H1313260   4.822   1.718   4.369 -2.1383  0.8237 -0.1936
 1021THF     O113261   1.146   3.174   4.806  0.3376 -0.7557 -0.2109
 1021THF     C213262   1.276   3.238   4.802 -0.0050  0.3037  0.1964
 1021THF     C313263   1.136   3.080   4.705 -0.4457 -0.3717  0.1309
 1021THF     H413264   1.327   3.227   4.895  1.0108 -0.6969  0.3204
 1021THF     H513265   1.263   3.341   4.769 -1.2136  0.1287 -0.3219
 1021THF     H613266   1.051   3.006   4.717 -2.8524 -0.7559 -2.1367
 1021THF     H713267   1.115   3.138   4.619  2.7885  1.3464  0.5664
 1021THF     C813268   1.282   3.031   4.689  0.1891  0.0628 -0.3445
 1021THF     C913269   1.356   3.162   4.695  0.0874  0.3244 -0.1799
 1021THF    H1013270   1.288   2.978   4.590 -4.2326 -1.3610 -0.5484
 1021THF    H1113271   1.311   2.976   4.777  1.5151 -0.0861 -0.7484
 1021THF    H1213272   1.458   3.139   4.715 -0.2420  1.0653  0.4809
 1021THF    H1313273   1.350   3.213   4.595  0.2835 -4.1020 -2.0960
 1022THF     O113274   2.606   3.560   4.733 -0.2877 -0.4445  0.6856
 1022THF     C213275   2.679   3.452   4.794  0.3242  0.6411  0.5324
 1022THF     C313276   2.660   3.683   4.784 -0.1310  0.5172  0.2498
 1022THF     H413277   2.770   3.443   4.727 -1.0366 -1.1452 -0.5677
 1022THF     H513278   2.629   3.357   4.799 -0.9778 -1.0645 -2.6174
 1022THF     H613279   2.726   3.721   4.704 -0.2356  2.5805 -0.6867
 1022THF     H713280   2.584   3.763   4.789 -2.2556 -2.7969  0.1980
 1022THF     C813281   2.732   3.655   4.915 -0.2413  0.1397 -0.6070
 1022THF     C913282   2.714   3.501   4.926  0.5815  0.9947  0.6186
 1022THF    H1013283   2.693   3.715   4.999 -0.4822  0.6381  0.5278
 1022THF    H1113284   2.844   3.691   4.906 -0.8935 -0.9533 -1.0521
 1022THF    H1213285   2.811   3.460   4.953 -3.3157  0.1605 -1.2787
 1022THF    H1313286   2.642   3.484   5.003 -0.8627  1.4259 -2.8125
 1023THF     O113287   2.569   3.965   4.372 -0.3781 -0.2180 -0.6112
 1023THF     C213288   2.571   3.885   4.488 -0.0184 -0.0025 -0.3125
 1023THF     C313289   2.570   3.874   4.264  0.9627  0.2633  0.1210
 1023THF     H413290   2.565   3.936   4.584  1.4237  0.5109 -0.7824
 1023THF     H513291   2.660   3.824   4.493 -0.3817  0.6295  0.8190
 1023THF     H613292   2.541   3.924   4.171  0.5352  1.0920  1.2367
 1023THF     H713293   2.664   3.824   4.260  0.7140 -0.4522  0.5145
 1023THF     C813294   2.459   3.781   4.304 -0.3417 -0.4097  0.4434
 1023THF     C913295   2.453   3.791   4.457 -0.4650  0.2120 -0.0650
 1023THF    H1013296   2.483   3.679   4.272 -0.1828 -0.5268 -0.6006
 1023THF    H1113297   2.359   3.817   4.254 -2.1899 -1.0173  0.8292
 1023THF    H1213298   2.355   3.830   4.490 -2.6585  0.5779 -2.6036
 1023THF    H1313299   2.457   3.691   4.504  2.0256 -0.7884 -2.2020
 1024THF     O113300   1.518   5.150   4.044 -0.2907 -0.0300 -0.3708
 1024THF     C213301   1.543   5.098   4.175  0.6052 -0.8180 -0.2715
 1024THF     C313302   1.587   5.270   4.033  0.2283 -0.5385 -0.1648
 1024THF     H413303   1.548   4.991   4.175  2.3208 -1.6593 -2.2925
 1024THF     H513304   1.470   5.140   4.246  0.4904 -1.3916 -4.9153
 1024THF     H613305   1.607   5.298   3.931  5.7560 -1.0712 -0.6530
 1024THF     H713306   1.535   5.360   4.087  0.4036 -1.1031  1.0746
 1024THF     C813307   1.719   5.242   4.102  0.3078 -0.6589  0.2922
 1024THF     C913308   1.685   5.145   4.212  0.1954  0.0844 -0.7385
 1024THF    H1013309   1.766   5.339   4.137  0.6777  2.3769  0.4545
 1024THF    H1113310   1.785   5.198   4.022 -1.3430 -0.7147 -0.5813
 1024THF    H1213311   1.758   5.058   4.232  2.0594  1.7752 -2.3181
 1024THF    H1313312   1.676   5.194   4.311 -1.3914 -0.5902  1.5632
 1025THF     O113313   1.075   2.924   5.458  0.1168  0.0825 -0.2071
 1025THF     C213314   1.173   2.953   5.555 -0.1100  0.0500  0.2004
 1025THF     C313315   1.019   2.797   5.484  0.1833 -0.3648  0.3133
 1025THF     H413316   1.188   3.061   5.557  1.9427 -2.1314  1.5933
 1025THF     H513317   1.273   2.905   5.545  1.9343 -4.7557 -1.1775
 1025THF     H613318   0.942   2.768   5.415 -1.6487 -0.3665  2.4103
 1025THF     H713319   1.098   2.721   5.481  0.7219 -0.0093 -1.8177
 1025THF     C813320   0.980   2.817   5.629 -0.0231  0.1478 -0.2370
 1025THF     C913321   1.096   2.905   5.684 -0.2977  0.3251  0.1466
 1025THF    H1013322   0.961   2.727   5.692 -2.2253  1.2647  1.7343
 1025THF    H1113323   0.893   2.878   5.634  0.9358  0.4982  1.4913
 1025THF    H1213324   1.060   2.988   5.745  1.4065 -1.6136 -3.7577
 1025THF    H1313325   1.164   2.841   5.746  2.1565  1.3497 -4.1559
 1026THF     O113326   2.681   4.648   3.690 -0.3473  0.0337  0.0472
 1026THF     C213327   2.789   4.597   3.596  0.2427  0.3662 -0.4026
 1026THF     C313328   2.587   4.713   3.609 -0.1769  0.0300 -0.2797
 1026THF     H413329   2.762   4.509   3.533 -0.2782 -0.8466 -1.6694
 1026THF     H513330   2.877   4.575   3.659  1.5510  2.2271  1.9959
 1026THF     H613331   2.527   4.651   3.543 -1.1945  2.5960 -3.7863
 1026THF     H713332   2.516   4.771   3.673  0.5813 -0.1078 -0.9890
 1026THF     C813333   2.667   4.801   3.518  0.3367  0.2851 -0.4022
 1026THF     C913334   2.802   4.725   3.510 -0.4802 -0.2672  0.3419
 1026THF    H1013335   2.671   4.898   3.566 -0.7606  2.6181 -0.2799
 1026THF    H1113336   2.618   4.800   3.417 -0.6036  1.5178 -1.1058
 1026THF    H1213337   2.817   4.689   3.414  0.5243 -2.1582  0.3369
 1026THF    H1313338   2.889   4.785   3.548 -0.9205 -1.0795 -0.1271
 1027THF     O113339   1.112   0.868   2.204 -0.0338  0.2351 -0.7940
 1027THF     C213340   1.090   0.988   2.136 -0.3119 -0.4828 -0.1372
 1027THF     C313341   0.993   0.790   2.199 -0.1896 -0.2478 -0.5134
 1027THF     H413342   1.183   1.036   2.105  3.5828  2.0054  0.8083
 1027THF     H513343   1.032   1.059   2.199  2.3057  2.4381  2.1527
 1027THF     H613344   1.004   0.677   2.200  0.9150  0.8897 -2.0311
 1027THF     H713345   0.935   0.812   2.287  0.7585  0.5501 -1.0451
 1027THF     C813346   0.922   0.843   2.078  0.5949  0.1361 -0.0254
 1027THF     C913347   1.018   0.936   2.018 -0.2689 -0.2623 -0.1857
 1027THF    H1013348   0.834   0.901   2.104 -0.0880  0.4038  0.0229
 1027THF    H1113349   0.887   0.757   2.015 -2.3535  0.5906 -0.4117
 1027THF    H1213350   1.092   0.889   1.954 -0.3707  1.0178 -2.6824
 1027THF    H1313351   0.977   1.017   1.959  0.0532  0.6523 -0.6883
 1028THF     O113352   0.421   2.336   5.047  0.3938 -0.7496 -0.5000
 1028THF     C213353   0.460   2.456   5.117 -0.0425  0.3870  0.6634
 1028THF     C313354   0.539   2.287   4.973 -0.1073 -0.6545 -0.1645
 1028THF     H413355   0.379   2.467   5.190 -0.5668  3.5574  0.2768
 1028THF     H513356   0.455   2.540   5.057 -0.3565 -0.8742  0.2117
 1028THF     H613357   0.527   2.190   4.926  1.3823 -0.5456 -2.0683
 1028THF     H713358   0.563   2.355   4.896  0.7503 -0.5485  1.6940
 1028THF     C813359   0.647   2.296   5.085  0.4982  0.2488 -0.6524
 1028THF     C913360   0.597   2.414   5.181 -0.4206 -0.7031  0.2873
 1028THF    H1013361   0.742   2.322   5.038 -0.9094  0.7421 -1.4233
 1028THF    H1113362   0.663   2.200   5.146  0.9041 -0.4537  0.6795
 1028THF    H1213363   0.582   2.374   5.280 -0.5622 -0.0137 -3.6807
 1028THF    H1313364   0.664   2.498   5.192 -1.5380 -2.0010 -3.8766
 1029THF     O113365   1.977   3.195   0.288  0.1644  0.1871  0.0352
 1029THF     C213366   1.868   3.149   0.363  0.4268  0.2960  0.2854
 1029THF     C313367   2.070   3.090   0.287  0.4456 -0.6030  0.0060
 1029THF     H413368   1.778   3.133   0.307 -0.1986  0.1704  1.2512
 1029THF     H513369   1.849   3.229   0.437 -1.3927 -1.7881 -2.4688
 1029THF     H613370   2.068   3.012   0.208  0.4846 -0.6178  0.0386
 1029THF     H713371   2.171   3.122   0.278 -0.6987  0.2041 -0.4482
 1029THF     C813372   2.056   3.026   0.428  0.7904  0.2742  0.1398
 1029THF     C913373   1.906   3.020   0.444  0.6701 -0.3378  0.0293
 1029THF    H1013374   2.088   3.096   0.505 -0.4630 -1.3648 -3.6546
 1029THF    H1113375   2.096   2.919   0.421  1.0261 -0.7461  0.1245
 1029THF    H1213376   1.869   2.931   0.394 -1.4591  0.8561 -2.4614
 1029THF    H1313377   1.884   3.020   0.556 -1.5265 -0.2226  2.1551
 1030THF     O113378   5.341   3.347   2.272  0.3003 -0.2482  0.6885
 1030THF     C213379   5.355   3.209   2.244  0.1337  0.7180 -0.2225
 1030THF     C313380   5.309   3.365   2.410  0.0636  0.6839  0.1418
 1030THF     H413381   5.458   3.175   2.278  1.2701 -0.9030 -1.4907
 1030THF     H513382   5.351   3.196   2.132 -0.4764 -0.3079 -1.8973
 1030THF     H613383   5.397   3.359   2.478  1.6553  2.2521  0.6408
 1030THF     H713384   5.251   3.463   2.417 -0.6658  2.9754 -3.8391
 1030THF     C813385   5.209   3.253   2.433 -0.1303  0.6755 -0.5233
 1030THF     C913386   5.242   3.144   2.326 -0.3228 -0.5179  0.5931
 1030THF    H1013387   5.101   3.285   2.418 -2.3863  1.5598 -1.7259
 1030THF    H1113388   5.214   3.218   2.535  0.5303  2.4112 -2.7274
 1030THF    H1213389   5.275   3.054   2.373 -1.0430  2.5120 -2.1832
 1030THF    H1313390   5.149   3.126   2.270 -2.6487 -1.0152  0.8243
 1031THF     O113391   5.094   1.473   3.233  0.0024 -0.3422 -0.6613
 1031THF     C213392   5.078   1.388   3.348  0.0143 -0.1705  0.5666
 1031THF     C313393   5.165   1.588   3.272  0.0703  0.5480  0.5202
 1031THF     H413394   5.062   1.280   3.326 -0.0082 -0.9245  2.7433
 1031THF     H513395   4.999   1.427   3.403  1.8671 -1.6050 -0.8176
 1031THF     H613396   5.224   1.631   3.190  1.9476  0.0769 -1.2159
 1031THF     H713397   5.092   1.669   3.314  2.3335  1.2438  1.5545
 1031THF     C813398   5.266   1.537   3.374  0.1139 -0.6827 -0.2119
 1031THF     C913399   5.214   1.403   3.421  0.0036  0.2243  0.0685
 1031THF    H1013400   5.269   1.610   3.452  1.3880 -0.2051 -0.7845
 1031THF    H1113401   5.366   1.525   3.338 -2.3850 -1.3822 -0.0437
 1031THF    H1213402   5.270   1.324   3.374 -4.0522  0.6616  0.7183
 1031THF    H1313403   5.214   1.395   3.526  0.5619 -1.3074 -0.5587
 1032THF     O113404   4.076   0.025   1.394 -0.1377  0.4195  0.0292
 1032THF     C213405   4.191   0.090   1.332 -0.1744  0.8744 -0.3923
 1032THF     C313406   3.976   0.032   1.294  0.4613 -0.1056 -0.6752
 1032THF     H413407   4.232   0.042   1.251  0.7669  1.5379  3.5295
 1032THF     H513408   4.269   0.101   1.400 -0.1479 -0.7367 -0.7818
 1032THF     H613409   3.986  -0.045   1.216 -0.3520  1.5403 -1.5483
 1032THF     H713410   3.877   0.015   1.340 -0.4895  0.6860  0.3111
 1032THF     C813411   3.986   0.165   1.231 -0.2580 -0.3338 -0.0140
 1032THF     C913412   4.122   0.216   1.286 -0.0358  0.3094  0.0192
 1032THF    H1013413   3.897   0.228   1.253 -1.2785 -0.4854 -0.3426
 1032THF    H1113414   3.988   0.164   1.126 -1.4508  2.3249  0.5307
 1032THF    H1213415   4.177   0.271   1.215  0.8163 -1.4583  0.5237
 1032THF    H1313416   4.114   0.280   1.377  1.8265  1.9637 -2.1738
 1033THF     O113417   4.862   3.100   3.309 -0.5014 -0.0379 -0.5260
 1033THF     C213418   4.793   3.008   3.400  0.0804  0.1006 -1.0023
 1033THF     C313419   4.829   3.225   3.358  0.1443  0.0412 -0.4918
 1033THF     H413420   4.859   2.966   3.471 -0.9519  0.8192 -0.4442
 1033THF     H513421   4.755   2.928   3.337 -0.1931 -0.5480  0.6197
 1033THF     H613422   4.890   3.237   3.449  3.7667  1.5196 -0.6721
 1033THF     H713423   4.847   3.302   3.281 -1.6512 -1.1259 -2.1146
 1033THF     C813424   4.689   3.220   3.394  1.2235  0.3585 -0.4584
 1033THF     C913425   4.674   3.082   3.469 -0.1287  0.4537  0.5264
 1033THF    H1013426   4.630   3.219   3.313 -2.2434 -2.4510 -0.7062
 1033THF    H1113427   4.667   3.298   3.464 -1.6182  1.7470  0.4835
 1033THF    H1213428   4.712   3.099   3.571 -0.0270 -2.4913 -0.8869
 1033THF    H1313429   4.568   3.042   3.475 -1.5617 -0.4720  2.2098
 1034THF     O113430   5.384   3.062   4.059  0.6249 -0.6044 -0.2468
 1034THF     C213431   5.483   3.153   4.026  0.4976  0.8007  0.0434
 1034THF     C313432   5.304   3.024   3.939 -0.0700  0.2198  0.6249
 1034THF     H413433   5.575   3.102   4.041 -1.6109 -0.1913 -0.5660
 1034THF     H513434   5.480   3.241   4.088 -0.1789 -0.0433 -0.9570
 1034THF     H613435   5.270   2.923   3.924  0.2679  1.6284  0.8664
 1034THF     H713436   5.209   3.080   3.934  0.3412  1.3803  1.8233
 1034THF     C813437   5.396   3.075   3.824  0.4676  0.3141 -0.2982
 1034THF     C913438   5.455   3.196   3.882 -0.1180 -0.5114  0.6460
 1034THF    H1013439   5.348   3.091   3.734 -0.8116  0.0854  1.3124
 1034THF    H1113440   5.471   2.997   3.810 -1.0095  0.9876  1.9618
 1034THF    H1213441   5.541   3.229   3.825  0.2533  0.3530 -1.1733
 1034THF    H1313442   5.394   3.286   3.894  2.2366  0.7737 -0.0859
 1035THF     O113443   3.445   3.640   4.348  0.2310  0.7526 -0.3160
 1035THF     C213444   3.363   3.532   4.386 -0.2029  0.8339 -0.3074
 1035THF     C313445   3.423   3.748   4.437  0.3292  0.0942  0.3718
 1035THF     H413446   3.419   3.472   4.454 -0.8758  0.3818  0.6865
 1035THF     H513447   3.335   3.477   4.297 -0.1849  1.1039 -1.2506
 1035THF     H613448   3.513   3.766   4.499  1.5055  0.5101  0.3655
 1035THF     H713449   3.403   3.838   4.383 -0.0895  0.8777  0.5290
 1035THF     C813450   3.297   3.711   4.519  1.0356  0.0300  0.3086
 1035THF     C913451   3.236   3.597   4.447 -0.2557  0.3744  0.1543
 1035THF    H1013452   3.231   3.787   4.556 -1.6342  1.3365  2.1928
 1035THF    H1113453   3.334   3.670   4.610 -2.2221 -0.7137  0.7076
 1035THF    H1213454   3.187   3.533   4.517 -0.9929 -0.4214  0.4923
 1035THF    H1313455   3.168   3.630   4.368 -1.1971 -1.8883 -1.5855
 1036THF     O113456   4.533   0.297   4.264  0.0811  0.3281  0.0384
 1036THF     C213457   4.542   0.163   4.237  1.0499 -0.2672 -0.4722
 1036THF     C313458   4.549   0.363   4.142 -0.5472  0.3850 -0.0026
 1036THF     H413459   4.442   0.123   4.211 -0.3588  1.4210  0.1017
 1036THF     H513460   4.560   0.110   4.329  1.0975 -0.9468 -1.0991
 1036THF     H613461   4.455   0.356   4.087  0.7027 -1.0363  1.8289
 1036THF     H713462   4.558   0.471   4.165  0.9748  0.8500 -0.4403
 1036THF     C813463   4.663   0.286   4.071  0.0652 -0.0807  0.1581
 1036THF     C913464   4.631   0.144   4.118  0.5747 -0.2985 -0.0315
 1036THF    H1013465   4.763   0.319   4.109  0.4487 -0.1160 -3.0200
 1036THF    H1113466   4.664   0.285   3.959 -0.6689 -1.4561  1.1027
 1036THF    H1213467   4.576   0.091   4.048 -2.9440 -0.3615  1.6619
 1036THF    H1313468   4.718   0.089   4.148  0.2685 -0.0110 -0.9414
 1037THF     O113469   1.272   5.013   1.458  0.3292  0.3708  0.0755
 1037THF     C213470   1.371   5.082   1.391 -0.3843  0.0037 -0.1019
 1037THF     C313471   1.332   4.888   1.493  0.1857 -0.2745  0.2072
 1037THF     H413472   1.453   5.115   1.461 -0.3291 -2.0744 -1.8257
 1037THF     H513473   1.339   5.172   1.345  0.1901  1.2009 -0.5446
 1037THF     H613474   1.392   4.891   1.583  0.7662  1.3819 -0.0627
 1037THF     H713475   1.252   4.816   1.510 -1.4638  2.3019  0.3224
 1037THF     C813476   1.422   4.851   1.378  0.7658  0.0558  0.2373
 1037THF     C913477   1.430   4.979   1.299 -0.0862  0.4632 -0.1214
 1037THF    H1013478   1.385   4.770   1.316  0.3765 -0.2565  1.7809
 1037THF    H1113479   1.513   4.825   1.422 -0.4849 -0.4838 -0.3758
 1037THF    H1213480   1.537   5.002   1.271 -0.4997  2.3121  1.4663
 1037THF    H1313481   1.373   4.964   1.209  2.9225 -0.9260 -1.2501
 1038THF     O113482   4.735   4.466   2.349 -0.0016 -0.1043 -0.1352
 1038THF     C213483   4.732   4.587   2.424  0.5869 -0.2145 -0.1854
 1038THF     C313484   4.606   4.435   2.306  0.6386  0.1709 -0.6476
 1038THF     H413485   4.717   4.673   2.362 -1.7450 -1.2389 -2.1393
 1038THF     H513486   4.822   4.600   2.490 -1.3577  1.5815  1.7599
 1038THF     H613487   4.584   4.494   2.217  1.1788  3.5264 -1.1556
 1038THF     H713488   4.593   4.325   2.282  2.5681 -1.0626 -3.2150
 1038THF     C813489   4.519   4.485   2.417 -0.2411 -0.0548  0.4638
 1038THF     C913490   4.605   4.568   2.508 -0.7584 -0.1277  0.2866
 1038THF    H1013491   4.467   4.398   2.460  0.2624  0.6019 -1.4260
 1038THF    H1113492   4.439   4.555   2.378 -0.8147 -0.1729 -1.0748
 1038THF    H1213493   4.564   4.655   2.549 -1.3025 -0.7432  0.8545
 1038THF    H1313494   4.634   4.500   2.590  2.1665  0.6012 -1.5644
 1039THF     O113495   1.061   4.638   1.535 -0.4198 -0.0768  0.0334
 1039THF     C213496   1.099   4.547   1.426 -0.3885 -0.1577 -0.6513
 1039THF     C313497   0.916   4.636   1.552  0.2997  0.4814 -0.5598
 1039THF     H413498   1.170   4.471   1.464  0.2227 -1.1369 -0.6239
 1039THF     H513499   1.155   4.607   1.359  4.4205  3.4010 -0.1133
 1039THF     H613500   0.886   4.652   1.659  0.4344 -0.4013  1.8377
 1039THF     H713501   0.876   4.710   1.483  1.6831 -4.0633 -3.3872
 1039THF     C813502   0.878   4.497   1.505 -0.2052  0.1850  0.2101
 1039THF     C913503   0.973   4.483   1.381  0.0429  0.2091  0.3842
 1039THF    H1013504   0.770   4.500   1.467 -1.1293 -0.2322  1.9474
 1039THF    H1113505   0.895   4.423   1.586  2.7012 -1.3526 -2.0354
 1039THF    H1213506   0.979   4.384   1.330 -0.5803  0.3574 -0.1537
 1039THF    H1313507   0.938   4.539   1.296  1.8934 -0.4769 -0.1527
 1040THF     O113508   5.464   4.673   2.243  0.6324 -0.2581  0.3977
 1040THF     C213509   5.524   4.707   2.371 -0.1962  0.4792 -0.0217
 1040THF     C313510   5.537   4.579   2.172 -0.1186  0.3644 -0.3673
 1040THF     H413511   5.481   4.669   2.466  0.3420 -2.0337  2.8176
 1040THF     H513512   5.512   4.815   2.388  0.2843  1.7241 -2.6147
 1040THF     H613513   5.512   4.474   2.211  1.2003 -2.4466 -0.8887
 1040THF     H713514   5.514   4.586   2.066 -0.0598  0.8873 -2.6062
 1040THF     C813515   5.678   4.629   2.199 -0.2407  0.0195  0.2575
 1040THF     C913516   5.668   4.670   2.349 -0.2611  0.4078  0.2935
 1040THF    H1013517   5.697   4.719   2.130  1.3992  3.2300 -0.1055
 1040THF    H1113518   5.764   4.568   2.186  1.6874 -0.9590 -0.8630
 1040THF    H1213519   5.683   4.584   2.405 -0.9626  0.9862 -0.5409
 1040THF    H1313520   5.729   4.755   2.377 -0.8870  1.2715  1.0322
 1041THF     O113521   2.088   4.031   4.072  0.5369  0.0955  0.3264
 1041THF     C213522   2.189   4.005   3.971  0.2983  0.0900  0.0285
 1041THF     C313523   2.019   4.148   4.029 -0.3401 -0.4686 -0.3810
 1041THF     H413524   2.204   3.894   3.969 -1.3799 -3.6212  1.1841
 1041THF     H513525   2.279   4.054   4.009 -1.0370  1.5364 -3.2004
 1041THF     H613526   1.923   4.158   4.072  0.4503  1.4939 -1.2733
 1041THF     H713527   2.060   4.248   4.065  1.3879  0.6720 -1.6774
 1041THF     C813528   2.007   4.148   3.881 -0.0166  0.3607  0.5186
 1041THF     C913529   2.136   4.073   3.839 -0.0269 -0.3467  0.3262
 1041THF    H1013530   1.998   4.250   3.840 -2.4180 -0.2286 -0.7996
 1041THF    H1113531   1.922   4.087   3.846  0.6573  1.4198 -1.0183
 1041THF    H1213532   2.114   4.008   3.755 -1.5002  2.3269 -1.9776
 1041THF    H1313533   2.208   4.154   3.804 -2.2111 -0.7998 -0.7353
 1042THF     O113534   0.282   3.342   2.481  0.2414  0.8690  0.5890
 1042THF     C213535   0.404   3.368   2.413 -0.1448 -0.1029 -1.1128
 1042THF     C313536   0.254   3.204   2.467 -0.7193 -0.1611  0.1211
 1042THF     H413537   0.474   3.341   2.490 -1.4195  1.7838  0.2662
 1042THF     H513538   0.410   3.469   2.373 -0.9441  0.5899 -0.1494
 1042THF     H613539   0.306   3.144   2.545  1.6748 -1.8039  1.1763
 1042THF     H713540   0.151   3.180   2.456 -0.0573 -1.3168  2.3301
 1042THF     C813541   0.321   3.163   2.332  0.5112 -0.3048 -0.8201
 1042THF     C913542   0.413   3.269   2.294 -0.3357 -0.3239 -0.5325
 1042THF    H1013543   0.242   3.146   2.253 -0.1578 -0.7981 -1.6803
 1042THF    H1113544   0.367   3.063   2.339  3.9298  1.9469 -0.0299
 1042THF    H1213545   0.511   3.237   2.269 -0.3170 -0.9741  3.0098
 1042THF    H1313546   0.381   3.316   2.200 -2.2005 -0.6416 -2.5409
 1043THF     O113547   4.984   2.069   1.496 -0.1089 -0.7057  0.0586
 1043THF     C213548   5.062   1.985   1.416 -0.0647 -0.5184  0.0869
 1043THF     C313549   4.977   2.032   1.633 -0.3676  0.2513  0.2671
 1043THF     H413550   5.134   2.047   1.362  1.2967 -0.2494  0.7212
 1043THF     H513551   4.998   1.926   1.354 -0.1374 -1.8216  0.9612
 1043THF     H613552   4.928   2.119   1.686 -1.3093 -1.1392  2.1379
 1043THF     H713553   4.903   1.959   1.636  0.8065 -0.2681 -2.1258
 1043THF     C813554   5.115   1.982   1.656 -0.2375  0.2520 -0.6101
 1043THF     C913555   5.144   1.914   1.518 -0.6220 -0.7912  0.0077
 1043THF    H1013556   5.121   1.922   1.744  0.2291  1.0269 -0.2795
 1043THF    H1113557   5.184   2.068   1.654  1.9859 -0.3677 -1.8718
 1043THF    H1213558   5.252   1.919   1.494  1.2618 -2.5747  2.3234
 1043THF    H1313559   5.108   1.813   1.521 -1.4318 -3.1819 -0.1503
 1044THF     O113560   3.728   2.410   0.920 -0.4043 -0.1065  0.4113
 1044THF     C213561   3.845   2.456   0.859 -0.2112  0.2871 -0.4132
 1044THF     C313562   3.714   2.267   0.895 -0.2192 -0.4689 -0.5276
 1044THF     H413563   3.904   2.529   0.916  0.8464 -0.1017 -1.7954
 1044THF     H513564   3.825   2.503   0.762  1.0849 -1.5572  1.9909
 1044THF     H613565   3.652   2.218   0.971  0.4303  1.1314 -0.2520
 1044THF     H713566   3.674   2.248   0.796  2.1693 -0.1692 -0.1320
 1044THF     C813567   3.858   2.228   0.916 -0.4352  0.8218 -0.1970
 1044THF     C913568   3.929   2.334   0.832 -0.0357  0.2777  0.7802
 1044THF    H1013569   3.884   2.129   0.888 -1.7510 -1.7304 -0.6072
 1044THF    H1113570   3.886   2.244   1.019  0.5065  0.5719 -2.5404
 1044THF    H1213571   4.037   2.346   0.860  1.1036 -2.5006  1.5170
 1044THF    H1313572   3.925   2.314   0.730  0.4562 -0.9468 -0.1920
 1045THF     O113573   5.270   4.077   3.478  0.8273 -0.1344 -0.1369
 1045THF     C213574   5.185   4.043   3.376  0.1301 -0.5263 -0.6432
 1045THF     C313575   5.355   4.182   3.430 -0.4910 -0.1552 -0.2076
 1045THF     H413576   5.103   3.979   3.414  0.7419 -1.2944  2.2413
 1045THF     H513577   5.247   3.985   3.304  0.6933 -0.2917  0.6354
 1045THF     H613578   5.413   4.235   3.509 -1.1029  0.4578  0.8521
 1045THF     H713579   5.430   4.144   3.363  0.5997 -0.3707  1.5838
 1045THF     C813580   5.254   4.267   3.353 -0.3228 -0.1913  0.1348
 1045THF     C913581   5.141   4.176   3.330 -0.4453  0.0615 -0.6994
 1045THF    H1013582   5.302   4.290   3.266 -1.4064 -1.6336  0.7426
 1045THF    H1113583   5.204   4.348   3.404  0.4616 -0.7010 -0.2151
 1045THF    H1213584   5.057   4.207   3.393  0.7198 -1.0969  0.4363
 1045THF    H1313585   5.101   4.178   3.229 -0.0361  0.7629  1.6479
 1046THF     O113586   3.660   1.742   5.155  0.3582  0.3831 -0.1356
 1046THF     C213587   3.521   1.721   5.131 -0.3475 -0.6791 -0.5996
 1046THF     C313588   3.726   1.684   5.040 -0.2630 -0.5275  0.2422
 1046THF     H413589   3.472   1.798   5.195 -1.7697 -1.2624 -1.4097
 1046THF     H513590   3.500   1.614   5.158 -0.0036  1.9055  0.0869
 1046THF     H613591   3.824   1.727   5.035 -0.6584 -0.1264  1.3565
 1046THF     H713592   3.722   1.572   5.047  0.9193 -1.6234 -0.9335
 1046THF     C813593   3.640   1.739   4.920  0.0345  0.1898 -0.1053
 1046THF     C913594   3.499   1.750   4.980  0.4227 -0.4716 -0.1083
 1046THF    H1013595   3.640   1.685   4.833 -0.7471  0.9545  0.5585
 1046THF    H1113596   3.682   1.831   4.885 -1.4350 -3.4538 -4.9818
 1046THF    H1213597   3.469   1.853   4.966 -1.4766  2.0944 -0.4334
 1046THF    H1313598   3.412   1.695   4.939 -2.7199  3.2853 -0.0820
 1047THF     O113599   0.604   2.145   3.438  0.2236  0.2373  0.1393
 1047THF     C213600   0.701   2.195   3.354  0.1631  0.2245  0.4391
 1047THF     C313601   0.664   2.118   3.564  0.1013 -0.2631  0.1305
 1047THF     H413602   0.653   2.237   3.263 -1.1115  0.2877 -2.2321
 1047THF     H513603   0.767   2.113   3.315  0.0305 -0.9165 -0.9993
 1047THF     H613604   0.589   2.097   3.636  1.9128 -1.9758 -0.5983
 1047THF     H713605   0.739   2.041   3.561 -1.3714  1.2391  0.6278
 1047THF     C813606   0.731   2.250   3.586 -0.9923  0.2111 -0.6439
 1047THF     C913607   0.771   2.296   3.439  0.0289 -0.1475  0.5524
 1047THF    H1013608   0.820   2.229   3.649  0.0799 -1.1162 -0.3616
 1047THF    H1113609   0.674   2.319   3.642 -1.1629  0.9220 -1.7692
 1047THF    H1213610   0.725   2.398   3.422  0.3520 -0.4143 -1.7850
 1047THF    H1313611   0.874   2.290   3.423  1.2973 -1.4239 -0.1172
 1048THF     O113612   3.929   0.000   1.665  0.4121 -0.7257  0.0436
 1048THF     C213613   3.799  -0.054   1.642 -0.1404 -0.3644 -0.3823
 1048THF     C313614   3.929   0.061   1.789  0.0793  0.5291 -0.4784
 1048THF     H413615   3.768  -0.139   1.698 -1.5812  0.2873 -1.1778
 1048THF     H513616   3.769  -0.068   1.539 -1.9319 -1.3063  1.0782
 1048THF     H613617   3.951  -0.014   1.867  1.2153 -0.0875  1.3786
 1048THF     H713618   4.010   0.136   1.789 -1.8427  0.6230  1.7659
 1048THF     C813619   3.789   0.125   1.806  0.0512 -0.0078  0.2475
 1048THF     C913620   3.709   0.061   1.686 -0.2022 -0.1937 -0.2618
 1048THF    H1013621   3.806   0.234   1.797  1.0513 -0.9401  0.3744
 1048THF    H1113622   3.741   0.105   1.907  0.4533  0.2521  0.1233
 1048THF    H1213623   3.604   0.038   1.705  3.8367  1.7773 -4.4603
 1048THF    H1313624   3.705   0.139   1.614 -0.0701  1.2533  1.2422
 1049THF     O113625   4.657   2.270   4.074 -0.4312  0.5659  0.5172
 1049THF     C213626   4.551   2.197   4.010  0.0892  0.1983 -0.3825
 1049THF     C313627   4.661   2.392   4.008 -0.1861  0.0409  0.7526
 1049THF     H413628   4.450   2.240   4.034 -2.6005  0.7383 -2.9506
 1049THF     H513629   4.558   2.097   4.047 -1.7290  2.2193 -0.1358
 1049THF     H613630   4.574   2.453   4.040  0.8719 -1.8074  2.1712
 1049THF     H713631   4.751   2.453   4.034  1.0819 -0.1485  0.0823
 1049THF     C813632   4.653   2.358   3.860 -0.1323 -0.3168 -0.1597
 1049THF     C913633   4.571   2.225   3.859 -0.3696  0.4448  0.1113
 1049THF    H1013634   4.755   2.337   3.817 -1.0374 -2.3842 -1.2276
 1049THF    H1113635   4.597   2.436   3.809  2.1342  2.1410 -1.4499
 1049THF    H1213636   4.478   2.234   3.803 -0.6018 -2.8842 -0.6799
 1049THF    H1313637   4.635   2.145   3.813  0.4525 -0.6945  2.1224
 1050THF     O113638   4.352   3.886   1.357  0.2259 -0.4120 -0.4146
 1050THF     C213639   4.306   3.755   1.398  1.0513  0.0695 -0.5528
 1050THF     C313640   4.373   3.982   1.454 -1.1759 -0.2808  0.3274
 1050THF     H413641   4.336   3.671   1.338 -1.7602 -1.8982  1.5561
 1050THF     H513642   4.195   3.757   1.392 -0.7029  1.2404 -3.0610
 1050THF     H613643   4.439   4.068   1.425  2.1705  0.9060  3.0854
 1050THF     H713644   4.279   4.017   1.495  2.1452 -2.8297 -3.4132
 1050THF     C813645   4.445   3.892   1.551  0.2335 -0.6731 -0.0779
 1050THF     C913646   4.367   3.759   1.536 -0.2053  0.1170  0.4083
 1050THF    H1013647   4.442   3.942   1.647 -0.9061  1.6644 -0.7017
 1050THF    H1113648   4.542   3.880   1.506  3.8182  2.0368 -0.9979
 1050THF    H1213649   4.425   3.670   1.559  0.0989  0.2049 -0.5564
 1050THF    H1313650   4.288   3.760   1.615  1.8950 -0.8084 -0.5499
 1051THF     O113651   4.025   0.338   2.008 -0.5907 -0.2913  0.2528
 1051THF     C213652   3.932   0.295   2.110  0.5318  0.1670  0.7411
 1051THF     C313653   4.142   0.368   2.073  0.4302  0.1488 -0.5980
 1051THF     H413654   3.958   0.196   2.151  1.1371 -0.8000  1.4348
 1051THF     H513655   3.827   0.292   2.084 -0.3262 -0.6190  1.8537
 1051THF     H613656   4.195   0.271   2.098 -4.4393  0.1711 -3.5222
 1051THF     H713657   4.214   0.426   2.010 -0.5155  0.2011 -1.2101
 1051THF     C813658   4.102   0.432   2.205 -0.2335  0.2496  0.0143
 1051THF     C913659   3.953   0.399   2.211 -0.4345 -0.3138  0.8726
 1051THF    H1013660   4.119   0.537   2.206  0.0320  0.1806 -3.1424
 1051THF    H1113661   4.148   0.390   2.295  0.6814 -0.9439  1.2103
 1051THF    H1213662   3.922   0.365   2.305  0.5978  0.6862  1.0469
 1051THF    H1313663   3.902   0.493   2.209  1.3238 -0.6004 -1.3715
 1052THF     O113664   4.681   1.856   4.778 -0.1381  0.0185 -0.1104
 1052THF     C213665   4.612   1.966   4.717 -1.0319 -0.4352 -0.1856
 1052THF     C313666   4.594   1.740   4.769 -0.3293 -0.5157  0.2761
 1052THF     H413667   4.595   1.946   4.616  0.1954 -0.3286 -0.0839
 1052THF     H513668   4.660   2.059   4.714 -1.3117 -2.0344  0.6852
 1052THF     H613669   4.600   1.694   4.675  3.4940 -0.2135 -0.5105
 1052THF     H713670   4.627   1.666   4.837 -1.4065  1.9702  1.6823
 1052THF     C813671   4.463   1.808   4.812  0.0039 -0.0668 -0.0866
 1052THF     C913672   4.474   1.956   4.769  0.0032 -0.2714 -0.4873
 1052THF    H1013673   4.443   1.792   4.919  1.2402 -0.2153 -0.2613
 1052THF    H1113674   4.377   1.778   4.754  3.1805 -1.7213  0.7912
 1052THF    H1213675   4.398   1.978   4.696  0.9874 -0.2526  0.7254
 1052THF    H1313676   4.458   2.017   4.866 -1.5229  1.0465  0.5993
 1053THF     O113677   0.730   2.241   2.219  0.2595 -0.0094  0.3515
 1053THF     C213678   0.765   2.160   2.336  0.0611 -0.7875  0.2148
 1053THF     C313679   0.600   2.284   2.239  0.1606 -0.2820 -0.3658
 1053THF     H413680   0.873   2.149   2.353  0.7100  1.1370  1.5809
 1053THF     H513681   0.733   2.056   2.329  1.4860  1.9001  0.3090
 1053THF     H613682   0.573   2.367   2.170 -0.6682  1.1149  1.6876
 1053THF     H713683   0.531   2.210   2.210  0.4489 -0.8797  0.0833
 1053THF     C813684   0.590   2.326   2.388  0.4741 -0.2976  0.8326
 1053THF     C913685   0.683   2.227   2.449 -0.1010  0.5733 -0.0268
 1053THF    H1013686   0.490   2.325   2.430  2.1581 -0.8220 -0.4078
 1053THF    H1113687   0.627   2.421   2.422 -0.4149  0.9623  0.8218
 1053THF    H1213688   0.739   2.268   2.533  1.4287  0.7081 -1.9790
 1053THF    H1313689   0.622   2.149   2.493  0.3902  3.4332  0.7201
 1054THF     O113690   4.861   2.348   4.490 -0.3804 -0.2715 -0.7254
 1054THF     C213691   4.964   2.302   4.578 -0.1834 -0.0565 -0.0106
 1054THF     C313692   4.781   2.445   4.561 -0.0389 -0.1987  0.0089
 1054THF     H413693   5.041   2.256   4.521 -1.6959  0.5596  2.3613
 1054THF     H513694   4.928   2.239   4.658 -0.2166  3.2522 -1.9505
 1054THF     H613695   4.718   2.499   4.491 -0.7544 -0.9460 -0.4366
 1054THF     H713696   4.727   2.398   4.639 -2.1609  1.3504 -2.3153
 1054THF     C813697   4.889   2.524   4.637  0.0456 -0.0183 -0.0008
 1054THF     C913698   5.004   2.426   4.657 -0.3491 -0.3195 -0.8861
 1054THF    H1013699   4.855   2.562   4.732  0.6591  1.2871  0.6842
 1054THF    H1113700   4.925   2.604   4.575  0.3376  0.4365  0.9150
 1054THF    H1213701   5.095   2.468   4.620 -1.3214 -1.5146 -0.5502
 1054THF    H1313702   5.013   2.391   4.763  2.8742 -0.9275 -1.2671
 1055THF     O113703   2.797   1.343   0.338 -0.7413 -0.0236 -0.0622
 1055THF     C213704   2.776   1.239   0.437  0.4021 -0.3212 -1.0600
 1055THF     C313705   2.847   1.458   0.410 -0.0906  0.3859  0.3193
 1055THF     H413706   2.866   1.192   0.472  1.1086 -0.1883 -2.8304
 1055THF     H513707   2.712   1.160   0.401  0.5835 -0.0378  0.7747
 1055THF     H613708   2.942   1.435   0.451  1.6513  0.6554 -1.6982
 1055THF     H713709   2.841   1.553   0.358 -0.1764 -1.8250  0.6255
 1055THF     C813710   2.768   1.459   0.534 -0.1883  0.9652 -0.4169
 1055THF     C913711   2.724   1.317   0.559  0.1148 -0.4685 -0.3883
 1055THF    H1013712   2.679   1.520   0.525 -1.3034  0.9498 -2.0996
 1055THF    H1113713   2.817   1.495   0.624  0.4926 -0.2772 -0.9573
 1055THF    H1213714   2.764   1.283   0.652 -4.3840  0.4834 -2.7473
 1055THF    H1313715   2.614   1.311   0.565 -1.8623  0.0365 -1.8484
 1056THF     O113716   5.227   0.062   4.810  0.2682 -0.6413  0.3903
 1056THF     C213717   5.307  -0.057   4.808 -0.4046  0.3697 -0.0173
 1056THF     C313718   5.286   0.162   4.742  0.4205  0.4136  0.7762
 1056THF     H413719   5.248  -0.148   4.791 -1.1654 -1.6360  2.2382
 1056THF     H513720   5.359  -0.064   4.901  1.2587  0.6755  0.8406
 1056THF     H613721   5.230   0.170   4.643  3.4175 -0.6982 -0.5014
 1056THF     H713722   5.272   0.256   4.797  0.8295 -2.0218  0.1632
 1056THF     C813723   5.432   0.119   4.721 -0.4828  0.2315 -0.3603
 1056THF     C913724   5.410  -0.027   4.710  0.3614 -0.2148 -0.0901
 1056THF    H1013725   5.485   0.140   4.808  0.9350 -3.1514 -2.7268
 1056THF    H1113726   5.474   0.178   4.637  0.7910  2.4263 -0.2154
 1056THF    H1213727   5.365  -0.045   4.618 -1.3656 -0.8605  0.5190
 1056THF    H1313728   5.487  -0.101   4.724  0.3025  0.8695  1.8664
 1057THF     O113729   0.133   4.256   4.665 -0.1994 -0.4018 -0.4489
 1057THF     C213730   0.163   4.381   4.599  0.1496 -0.3885 -0.9566
 1057THF     C313731   0.006   4.266   4.715  0.7081  0.7007  0.4402
 1057THF     H413732   0.114   4.368   4.501  0.7897  1.3601  0.2398
 1057THF     H513733   0.266   4.392   4.589  0.9266  0.7204  2.8275
 1057THF     H613734  -0.065   4.209   4.654 -2.3279 -1.9062  0.0315
 1057THF     H713735   0.009   4.224   4.806  1.2059  0.7204 -0.5158
 1057THF     C813736  -0.032   4.413   4.736  0.1993 -0.4559 -1.1142
 1057THF     C913737   0.087   4.483   4.674  0.0614  1.1590 -0.3590
 1057THF    H1013738  -0.039   4.449   4.843  2.1383  0.0868  0.3506
 1057THF    H1113739  -0.124   4.436   4.705  0.5265  0.2864 -0.7004
 1057THF    H1213740   0.052   4.564   4.610 -0.5415 -0.4551  1.6249
 1057THF    H1313741   0.143   4.522   4.755 -0.7525 -0.2023  0.7424
 1058THF     O113742   4.855   3.230   0.032 -0.4780  0.5200  0.1209
 1058THF     C213743   4.781   3.107   0.066 -0.1351  0.1566  0.5474
 1058THF     C313744   4.764   3.318  -0.037  0.6762  0.3106  1.0665
 1058THF     H413745   4.822   3.058   0.156  0.4964  2.1609 -1.3597
 1058THF     H513746   4.790   3.045  -0.021  2.0801  1.2839  1.2795
 1058THF     H613747   4.791   3.422  -0.024  0.5097 -2.3899 -2.4790
 1058THF     H713748   4.759   3.302  -0.144  2.0658  2.1243 -0.2056
 1058THF     C813749   4.625   3.285   0.021 -0.2714  0.3302 -0.1677
 1058THF     C913750   4.639   3.151   0.088 -0.0455  0.9540  0.4050
 1058THF    H1013751   4.552   3.280  -0.056  2.4536 -2.7953  0.1651
 1058THF    H1113752   4.593   3.363   0.089  2.5206  1.5163 -3.0967
 1058THF    H1213753   4.613   3.164   0.193 -1.1859  0.4985  1.0053
 1058THF    H1313754   4.565   3.079   0.046 -0.1733  1.6416  0.7644
 1059THF     O113755   3.705   0.909   3.706 -0.4035  0.0201 -0.4792
 1059THF     C213756   3.582   0.950   3.643  0.0416 -0.5062  0.3337
 1059THF     C313757   3.691   0.791   3.784 -0.4766 -0.1400 -0.5589
 1059THF     H413758   3.583   1.026   3.562  0.0786  0.3021 -1.3825
 1059THF     H513759   3.531   0.989   3.734 -1.7769 -1.3761  1.6363
 1059THF     H613760   3.783   0.739   3.805  1.7765 -1.4739  1.2608
 1059THF     H713761   3.639   0.816   3.872  0.9693 -0.4389  1.1806
 1059THF     C813762   3.590   0.714   3.694 -0.3054 -0.1129 -0.2807
 1059THF     C913763   3.535   0.817   3.592 -0.1633  0.9210  0.0908
 1059THF    H1013764   3.515   0.665   3.751  1.8351  3.8926 -1.3984
 1059THF    H1113765   3.633   0.628   3.644 -1.0181  2.3414  1.6571
 1059THF    H1213766   3.568   0.803   3.490  2.3759 -3.1633  1.2801
 1059THF    H1313767   3.430   0.817   3.586  0.5043  0.8402  0.2648
 1060THF     O113768   3.430   4.666   2.348 -0.0892 -0.4701  0.2054
 1060THF     C213769   3.425   4.542   2.420 -0.6646 -1.0359  0.5616
 1060THF     C313770   3.504   4.648   2.223 -0.5574 -0.0522 -0.2449
 1060THF     H413771   3.347   4.477   2.372 -2.0172 -1.5573  2.5937
 1060THF     H513772   3.391   4.549   2.519  0.6519 -1.0976 -1.7243
 1060THF     H613773   3.445   4.617   2.140  0.9184 -2.0529  2.4850
 1060THF     H713774   3.549   4.742   2.188 -1.0518 -0.2436 -1.2833
 1060THF     C813775   3.596   4.536   2.258  0.3234 -0.4080 -1.1063
 1060THF     C913776   3.561   4.477   2.393  0.4516  0.0139  0.3308
 1060THF    H1013777   3.705   4.555   2.243 -0.5954  1.8194  1.8239
 1060THF    H1113778   3.563   4.466   2.182  0.4572 -0.4388  0.5409
 1060THF    H1213779   3.565   4.370   2.395  2.6989 -0.3499  1.2642
 1060THF    H1313780   3.643   4.519   2.455 -0.7696  0.8658 -1.9881
 1061THF     O113781   5.251   3.140   0.573  0.5285 -0.1609 -0.0739
 1061THF     C213782   5.358   3.053   0.607  0.7945  0.0285  0.2464
 1061THF     C313783   5.129   3.077   0.596 -0.1989  0.4588  0.6208
 1061THF     H413784   5.384   3.071   0.709 -1.3929 -0.7394 -2.4154
 1061THF     H513785   5.447   3.072   0.546  0.3331 -2.6154 -0.5186
 1061THF     H613786   5.092   3.130   0.685 -0.8352  2.1709  0.7170
 1061THF     H713787   5.072   3.098   0.512  2.1570  0.5541  0.9818
 1061THF     C813788   5.160   2.924   0.609  0.1095  0.0952  0.1709
 1061THF     C913789   5.310   2.919   0.574  0.1818  0.8977 -0.2642
 1061THF    H1013790   5.108   2.872   0.533 -1.5781  0.3952  0.7048
 1061THF    H1113791   5.142   2.885   0.711 -0.7573 -0.0334  0.6773
 1061THF    H1213792   5.364   2.837   0.626  0.3757 -1.1014  1.4333
 1061THF    H1313793   5.318   2.904   0.463  1.5785 -0.6933  1.2632
 1062THF     O113794   2.066   4.396   1.248 -0.2651  0.0989  0.3913
 1062THF     C213795   2.185   4.319   1.226  0.2480  0.4654 -0.1944
 1062THF     C313796   2.048   4.461   1.122 -0.6179  0.5488  0.0115
 1062THF     H413797   2.188   4.237   1.290 -1.7960  0.2014  0.4137
 1062THF     H513798   2.262   4.397   1.243  0.2149 -1.9317 -0.3127
 1062THF     H613799   1.947   4.499   1.112 -2.0877  1.7806 -2.4519
 1062THF     H713800   2.114   4.549   1.100  0.2955 -2.4714  2.9998
 1062THF     C813801   2.066   4.355   1.018  0.4795  0.0492 -0.2100
 1062THF     C913802   2.166   4.260   1.083 -0.3046 -0.5551 -0.3245
 1062THF    H1013803   2.108   4.403   0.920  1.2639  0.7875 -2.2913
 1062THF    H1113804   1.984   4.291   0.986  1.8420 -0.6164  4.2520
 1062THF    H1213805   2.119   4.163   1.093  1.1651 -4.1487  2.6143
 1062THF    H1313806   2.254   4.250   1.017  0.3478 -0.0158  3.3422
 1063THF     O113807   0.771   1.591   4.576  0.7955  0.6082  0.2656
 1063THF     C213808   0.686   1.496   4.631 -0.1542 -0.0633 -0.2751
 1063THF     C313809   0.832   1.529   4.458  0.5025  0.1448  0.1791
 1063THF     H413810   0.613   1.530   4.706 -0.8345  1.7330 -1.5736
 1063THF     H513811   0.750   1.417   4.676 -0.6881 -1.1410 -2.1067
 1063THF     H613812   0.859   1.609   4.384  0.8621 -1.7453  0.0898
 1063THF     H713813   0.917   1.472   4.497 -1.6109 -0.9989  1.4519
 1063THF     C813814   0.719   1.436   4.406 -1.2601 -0.6212 -0.0723
 1063THF     C913815   0.614   1.435   4.512  0.0253 -0.8408 -0.2079
 1063THF    H1013816   0.751   1.336   4.386  2.6171  0.0333 -0.5325
 1063THF    H1113817   0.676   1.479   4.312 -2.9958  1.1643 -0.8253
 1063THF    H1213818   0.537   1.511   4.486 -1.6893  3.7888 -0.8789
 1063THF    H1313819   0.566   1.340   4.538  0.1566 -2.4750 -0.2602
 1064THF     O113820   0.275   5.368   4.680 -0.7378  0.0988 -0.2924
 1064THF     C213821   0.348   5.415   4.567  0.5177 -0.7123 -0.5464
 1064THF     C313822   0.310   5.453   4.790  0.0523  1.2702 -0.1333
 1064THF     H413823   0.288   5.402   4.478 -2.4063 -1.2659 -0.3272
 1064THF     H513824   0.443   5.364   4.551 -0.2521 -0.3852 -1.7786
 1064THF     H613825   0.240   5.447   4.874  0.0948  0.3381 -1.8744
 1064THF     H713826   0.409   5.425   4.829 -0.5110 -1.5652  1.4184
 1064THF     C813827   0.308   5.591   4.735  0.3421  0.1316  0.6754
 1064THF     C913828   0.368   5.564   4.599  0.2914  0.8142 -0.1471
 1064THF    H1013829   0.363   5.661   4.799  0.6712 -0.3291  0.3247
 1064THF    H1113830   0.206   5.618   4.727  0.2755 -0.5529 -3.1312
 1064THF    H1213831   0.324   5.634   4.523 -0.7388 -2.9099 -1.3645
 1064THF    H1313832   0.477   5.579   4.597  1.2467  3.0003 -0.8908
 1065THF     O113833   3.043   3.866   1.872 -0.7839  0.0364 -0.2079
 1065THF     C213834   3.006   3.728   1.889  0.0534  0.5737  0.3841
 1065THF     C313835   3.126   3.885   1.754 -0.0694  0.7988 -0.1064
 1065THF     H413836   2.896   3.717   1.871  1.1013  0.8568 -0.6148
 1065THF     H513837   3.040   3.685   1.983 -0.2198  2.0748 -2.3316
 1065THF     H613838   3.069   3.923   1.667 -0.7169 -0.4585  1.7941
 1065THF     H713839   3.217   3.945   1.764 -1.9399 -2.1927 -0.4492
 1065THF     C813840   3.180   3.748   1.730  0.4250  0.0796  0.2086
 1065THF     C913841   3.060   3.658   1.772  0.5022  0.1113 -0.2787
 1065THF    H1013842   3.277   3.730   1.780 -1.8236 -1.0038 -3.5694
 1065THF    H1113843   3.197   3.723   1.630 -2.0075  0.7552  0.6783
 1065THF    H1213844   2.987   3.640   1.690 -0.0209 -2.2732  0.4929
 1065THF    H1313845   3.107   3.559   1.792  1.0480  0.2342 -0.6620
 1066THF     O113846   2.292   2.985   2.890 -0.4241  0.1705 -0.2432
 1066THF     C213847   2.215   2.872   2.856 -0.2760 -0.1203  0.3895
 1066THF     C313848   2.219   3.060   2.988  0.9669 -0.2441  1.0294
 1066THF     H413849   2.207   2.812   2.950 -2.5076  0.0952  0.1966
 1066THF     H513850   2.253   2.808   2.775  1.7796  1.9519 -0.1053
 1066THF     H613851   2.215   3.017   3.088  0.3380  1.7599 -0.3171
 1066THF     H713852   2.256   3.156   3.003  4.4646 -2.5058  1.2877
 1066THF     C813853   2.084   3.057   2.911  0.5417  0.0116  0.5490
 1066THF     C913854   2.077   2.934   2.827 -0.0547  0.5338  0.2094
 1066THF    H1013855   2.098   3.134   2.841  3.0455 -0.8174  1.1126
 1066THF    H1113856   2.006   3.076   2.985  0.3824  1.2446 -1.0923
 1066THF    H1213857   2.000   2.866   2.857  0.9621 -0.5574  2.5235
 1066THF    H1313858   2.070   2.949   2.724 -0.6460 -0.5856  2.6452
 1067THF     O113859   0.878   0.278   1.048  0.1875 -0.5916  0.1347
 1067THF     C213860   0.813   0.346   0.932 -0.4971  0.9232  0.3271
 1067THF     C313861   0.930   0.160   0.990 -0.0533  0.0289  0.2370
 1067THF     H413862   0.887   0.413   0.901  1.1197  1.0703  2.0150
 1067THF     H513863   0.723   0.403   0.965 -1.5807  1.2049 -1.4494
 1067THF     H613864   1.023   0.181   0.944  1.5636 -2.9999 -0.1100
 1067THF     H713865   0.957   0.086   1.059 -1.4465 -0.2006 -2.1151
 1067THF     C813866   0.835   0.114   0.887 -0.0891 -0.3114 -0.8446
 1067THF     C913867   0.787   0.240   0.832  0.2373 -0.6396 -0.6027
 1067THF    H1013868   0.753   0.068   0.934  2.9978 -1.1632 -2.3537
 1067THF    H1113869   0.868   0.039   0.811 -2.1587  0.7980 -0.7992
 1067THF    H1213870   0.826   0.275   0.737  0.1601  2.0077 -0.8805
 1067THF    H1313871   0.683   0.245   0.804  2.1101  2.0134  1.5892
 1068THF     O113872   1.495   2.272   4.828 -0.0953 -0.0432 -0.3829
 1068THF     C213873   1.514   2.342   4.709 -0.6741  0.1407  0.2110
 1068THF     C313874   1.516   2.133   4.799  0.3932  0.3092  0.2837
 1068THF     H413875   1.619   2.363   4.696 -0.3146 -1.5334  0.1369
 1068THF     H513876   1.466   2.439   4.720 -2.5257 -0.7713  1.5906
 1068THF     H613877   1.626   2.112   4.794 -1.5360 -1.0032  2.6355
 1068THF     H713878   1.474   2.072   4.882  1.4229 -0.1335  2.3283
 1068THF     C813879   1.438   2.122   4.665 -0.0293  0.1882  0.1123
 1068THF     C913880   1.439   2.261   4.606  0.3165 -0.8380 -0.4153
 1068THF    H1013881   1.336   2.105   4.685 -1.7300  0.7252  1.7382
 1068THF    H1113882   1.488   2.058   4.589 -0.2723 -1.0874  0.1187
 1068THF    H1213883   1.476   2.256   4.503 -0.6166 -0.5112  0.8230
 1068THF    H1313884   1.337   2.290   4.605  2.3446  0.7066  0.6308
 1069THF     O113885   4.368   0.596   0.392  0.0401 -0.0373 -0.2335
 1069THF     C213886   4.492   0.654   0.353  0.1161 -0.1031 -0.7370
 1069THF     C313887   4.280   0.608   0.276  0.3465  0.5013 -0.4019
 1069THF     H413888   4.564   0.594   0.297  2.6304 -0.2440 -0.8687
 1069THF     H513889   4.549   0.702   0.437 -0.6710 -0.2423  3.1271
 1069THF     H613890   4.308   0.521   0.218 -2.1522 -2.0819  4.4890
 1069THF     H713891   4.173   0.601   0.304  0.0262 -1.1383  0.9261
 1069THF     C813892   4.316   0.747   0.211  0.2749 -0.6312  0.0815
 1069THF     C913893   4.456   0.768   0.252 -0.2403  0.1912  0.3119
 1069THF    H1013894   4.253   0.825   0.268 -1.4624  1.4210 -1.3140
 1069THF    H1113895   4.299   0.762   0.101 -4.9968  2.8950 -0.3921
 1069THF    H1213896   4.527   0.767   0.170  1.1516 -2.2373 -0.4112
 1069THF    H1313897   4.473   0.867   0.297 -2.5275 -0.4572 -2.0114
 1070THF     O113898   2.175   1.247   2.238 -0.1603 -0.2482  0.8289
 1070THF     C213899   2.211   1.374   2.317  0.6598  0.3957  0.1409
 1070THF     C313900   2.266   1.240   2.123 -0.3091  0.0175  0.1932
 1070THF     H413901   2.296   1.352   2.382 -0.8216  1.4548 -0.9401
 1070THF     H513902   2.129   1.413   2.380  0.0943 -0.3297  0.5353
 1070THF     H613903   2.361   1.189   2.155 -0.8081 -0.1968 -3.0535
 1070THF     H713904   2.215   1.187   2.045 -1.5642  1.1760 -1.2494
 1070THF     C813905   2.280   1.392   2.082 -0.3554 -0.2067 -0.1710
 1070THF     C913906   2.257   1.471   2.212 -0.8660  0.1337 -0.3615
 1070THF    H1013907   2.212   1.413   2.003  2.3858  2.3260  2.6131
 1070THF    H1113908   2.378   1.401   2.039 -2.3116  0.3134 -1.6003
 1070THF    H1213909   2.358   1.506   2.242 -0.1792  1.4905  0.6118
 1070THF    H1313910   2.190   1.557   2.198  3.6881 -0.9090  0.3284
 1071THF     O113911   4.650   4.106   1.777 -0.2186  0.5543 -0.8362
 1071THF     C213912   4.610   4.074   1.911 -0.1290  1.0788  0.1142
 1071THF     C313913   4.751   4.212   1.787 -0.7545 -0.3049  0.4082
 1071THF     H413914   4.617   3.963   1.918  2.2113 -0.6933  1.2829
 1071THF     H513915   4.507   4.105   1.945  0.6476  0.0751 -0.0182
 1071THF     H613916   4.842   4.176   1.735  0.6918  0.2758  3.6231
 1071THF     H713917   4.714   4.310   1.735  1.3149  1.9530  2.1076
 1071THF     C813918   4.769   4.244   1.934  0.0625 -0.3202 -0.2683
 1071THF     C913919   4.719   4.122   2.004  0.0198 -0.4603  0.8458
 1071THF    H1013920   4.698   4.322   1.964  0.9261  0.5728 -0.6201
 1071THF    H1113921   4.871   4.275   1.961  0.0827  3.1171  0.7702
 1071THF    H1213922   4.803   4.056   1.987 -0.2037  1.3215 -0.6921
 1071THF    H1313923   4.685   4.124   2.109 -2.7086  1.0087 -0.8799
 1072THF     O113924   0.299   3.039   3.779 -0.2219 -0.0523 -0.1771
 1072THF     C213925   0.368   3.148   3.708 -0.0176 -0.3872  0.0575
 1072THF     C313926   0.298   2.924   3.694  0.6773 -0.2526 -0.6011
 1072THF     H413927   0.432   3.216   3.768 -1.9699  0.9004  0.1367
 1072THF     H513928   0.292   3.213   3.665 -1.9321 -1.3991  1.2592
 1072THF     H613929   0.309   2.826   3.749 -0.7997 -1.2679 -0.3357
 1072THF     H713930   0.214   2.927   3.623 -0.4278  0.4235  2.3430
 1072THF     C813931   0.437   2.935   3.622 -0.4481 -0.8615  0.1437
 1072THF     C913932   0.441   3.079   3.593 -0.0489  0.2157 -0.1354
 1072THF    H1013933   0.443   2.871   3.530  1.6752 -0.9134  1.7491
 1072THF    H1113934   0.516   2.907   3.687 -0.9146  1.7503  0.3467
 1072THF    H1213935   0.548   3.112   3.582  1.7100 -1.8133 -1.0680
 1072THF    H1313936   0.387   3.086   3.499  0.4768 -2.2106  1.1305
 1073THF     O113937   2.661   4.721   1.508 -0.4338  0.0740  0.4218
 1073THF     C213938   2.792   4.706   1.557  0.7426  0.0463 -0.7102
 1073THF     C313939   2.661   4.849   1.435 -0.2878 -0.1746 -0.0605
 1073THF     H413940   2.846   4.643   1.488  1.5257  0.7897 -1.6700
 1073THF     H513941   2.790   4.657   1.655  0.4397 -2.8743  1.5694
 1073THF     H613942   2.722   4.856   1.347  0.6363 -1.7662  0.4476
 1073THF     H713943   2.568   4.892   1.417  1.6201  0.5840 -2.4053
 1073THF     C813944   2.733   4.943   1.529 -0.0854 -0.2609 -0.0975
 1073THF     C913945   2.846   4.855   1.572 -0.2885 -0.2484 -0.1828
 1073THF    H1013946   2.661   4.959   1.610  1.4522  0.0348  0.2659
 1073THF    H1113947   2.749   5.041   1.486  0.8584  1.1016  0.2940
 1073THF    H1213948   2.935   4.867   1.510  1.1814 -1.5154 -0.1871
 1073THF    H1313949   2.878   4.883   1.674 -3.0497  1.4735 -2.5032
 1074THF     O113950   1.193   1.306   4.278 -0.1586  0.5452 -0.1421
 1074THF     C213951   1.120   1.225   4.369  0.2674 -0.1511 -0.9835
 1074THF     C313952   1.221   1.229   4.163  1.1374  0.0402 -0.7835
 1074THF     H413953   1.017   1.242   4.354  1.0027  0.0544 -2.0122
 1074THF     H513954   1.139   1.252   4.472 -2.6805  0.1764  0.4171
 1074THF     H613955   1.130   1.206   4.111  0.2266  1.0974 -1.1619
 1074THF     H713956   1.299   1.263   4.101  0.5085  0.2766 -1.4152
 1074THF     C813957   1.250   1.091   4.215 -0.3212  0.1604 -0.1003
 1074THF     C913958   1.156   1.079   4.333 -0.2305  0.1902 -0.2035
 1074THF    H1013959   1.348   1.103   4.262  0.1232  2.3543  0.2150
 1074THF    H1113960   1.257   1.013   4.142  1.4488  1.6959 -3.8300
 1074THF    H1213961   1.064   1.013   4.327 -1.4032 -0.0209  1.3459
 1074THF    H1313962   1.209   1.031   4.414  0.0273 -0.9001  0.5853
 1075THF     O113963   3.695   2.190   1.741  0.2738  0.6718 -0.2876
 1075THF     C213964   3.837   2.208   1.753  0.3799 -0.5794 -0.0791
 1075THF     C313965   3.640   2.081   1.813 -1.0110  0.1000 -0.3272
 1075THF     H413966   3.861   2.301   1.815  0.2597  0.8155 -1.8816
 1075THF     H513967   3.880   2.223   1.660  1.1905  1.0353  3.2611
 1075THF     H613968   3.624   2.113   1.917  1.7610 -1.8437  0.6684
 1075THF     H713969   3.558   2.035   1.764 -0.6195  2.2783  0.9064
 1075THF     C813970   3.761   1.992   1.807  0.5281  0.6254  0.2290
 1075THF     C913971   3.883   2.086   1.829 -0.2757 -0.3709  0.1439
 1075THF    H1013972   3.768   1.948   1.704 -0.2943 -0.8609 -1.9132
 1075THF    H1113973   3.754   1.916   1.887  1.3799  1.3256 -2.2648
 1075THF    H1213974   3.894   2.098   1.940  0.3711  2.7026  0.9239
 1075THF    H1313975   3.967   2.042   1.778  2.2600  0.7249 -1.7229
 1076THF     O113976   2.015   4.553   0.533  0.1208 -0.5601  0.1529
 1076THF     C213977   1.960   4.627   0.429 -1.0812 -0.0593  0.0979
 1076THF     C313978   1.924   4.549   0.642 -0.2608 -0.2304 -0.2683
 1076THF     H413979   1.898   4.556   0.379  2.1535  0.2403 -0.2402
 1076THF     H513980   2.026   4.671   0.358 -1.8520  5.4109  1.8209
 1076THF     H613981   1.880   4.448   0.645  0.4797  2.1502 -0.0033
 1076THF     H713982   1.979   4.559   0.737  0.1031 -1.9673 -0.8556
 1076THF     C813983   1.822   4.660   0.620  1.2721 -1.0145  0.5045
 1076THF     C913984   1.880   4.737   0.500  0.1940 -0.2258 -0.1487
 1076THF    H1013985   1.800   4.726   0.704  2.0617 -1.1213 -1.2817
 1076THF    H1113986   1.721   4.623   0.594  1.9648  2.5803  1.1474
 1076THF    H1213987   1.800   4.782   0.445 -1.0398  3.2017  2.2637
 1076THF    H1313988   1.948   4.812   0.537  1.7922 -0.6047 -3.5778
 1077THF     O113989   3.221   5.338   3.632 -0.7631 -1.1943  0.1761
 1077THF     C213990   3.206   5.474   3.597 -0.2541 -0.1457  0.8573
 1077THF     C313991   3.365   5.308   3.604  0.4721  0.6952 -0.2710
 1077THF     H413992   3.224   5.526   3.687  1.9305  0.5410  0.3769
 1077THF     H513993   3.102   5.487   3.559  2.7775 -1.1856 -2.5312
 1077THF     H613994   3.431   5.324   3.687 -2.0903  0.3831 -1.1843
 1077THF     H713995   3.383   5.204   3.572  1.4147 -1.7144  0.2954
 1077THF     C813996   3.405   5.406   3.495  0.5911 -0.0243  0.1899
 1077THF     C913997   3.293   5.507   3.483 -0.5430 -0.0457 -0.7446
 1077THF    H1013998   3.420   5.352   3.398 -0.4319  0.8849 -1.0954
 1077THF    H1113999   3.504   5.452   3.521  1.5678 -0.2773 -0.3587
 1077THF    H1214000   3.324   5.614   3.467  0.6982  0.7578  0.8013
 1077THF    H1314001   3.239   5.483   3.393  1.2033  0.0444 -0.7007
 1078THF     O114002   0.740   0.277   3.581  0.0945  0.1324 -0.3887
 1078THF     C214003   0.613   0.222   3.609 -0.0744  0.6825  0.1199
 1078THF     C314004   0.714   0.350   3.463  0.2974  0.2020  0.2569
 1078THF     H414005   0.612   0.171   3.708  1.5035  2.0633  1.3287
 1078THF     H514006   0.579   0.142   3.541 -1.4173  0.5237 -0.7383
 1078THF     H614007   0.802   0.412   3.437 -2.1713  0.7690 -2.3592
 1078THF     H714008   0.690   0.285   3.377  0.0806 -1.8931  0.3451
 1078THF     C814009   0.590   0.423   3.491 -0.2007 -0.1513  0.1523
 1078THF     C914010   0.510   0.331   3.591 -1.1146 -0.1083 -0.8470
 1078THF    H1014011   0.537   0.439   3.399 -0.4802 -1.2965  2.8042
 1078THF    H1114012   0.597   0.522   3.542 -3.4310  0.0210  1.4827
 1078THF    H1214013   0.499   0.384   3.687 -0.7382  1.4193  0.5215
 1078THF    H1314014   0.409   0.287   3.577 -0.9410 -1.2255  1.1676
 1079THF     O114015   4.279   0.424   3.367  0.1084  0.1413  0.1420
 1079THF     C214016   4.170   0.333   3.363  0.4154 -0.3860  1.0326
 1079THF     C314017   4.379   0.376   3.281  0.8706  0.3937 -0.9066
 1079THF     H414018   4.073   0.369   3.395  0.7823 -0.0811 -1.0302
 1079THF     H514019   4.194   0.263   3.444 -0.0387 -0.7013  0.1030
 1079THF     H614020   4.459   0.452   3.257 -1.6504 -0.2673  0.9008
 1079THF     H714021   4.431   0.292   3.322  1.3712 -1.0168 -0.8921
 1079THF     C814022   4.296   0.334   3.162  0.4043  0.6852 -0.3323
 1079THF     C914023   4.176   0.266   3.229  0.0242 -0.2381  0.0216
 1079THF    H1014024   4.352   0.277   3.088  1.7151 -2.2281  0.4911
 1079THF    H1114025   4.263   0.425   3.111 -0.4286  1.0835 -0.8836
 1079THF    H1214026   4.096   0.264   3.166 -1.8405  1.3259 -0.6703
 1079THF    H1314027   4.192   0.160   3.248 -0.6071  1.0867  0.2445
 1080THF     O114028   5.292   2.341   0.865 -0.0129  0.1815  0.2262
 1080THF     C214029   5.219   2.236   0.800  0.0780 -0.5049 -0.3992
 1080THF     C314030   5.388   2.283   0.957 -0.0504  0.2470 -0.4329
 1080THF     H414031   5.187   2.263   0.703 -1.8741  3.0844 -0.0427
 1080THF     H514032   5.136   2.199   0.860 -1.3123  1.2505 -0.9823
 1080THF     H614033   5.480   2.331   0.976 -0.4218 -3.0770 -2.0007
 1080THF     H714034   5.334   2.287   1.050 -1.1789 -1.7510  1.0391
 1080THF     C814035   5.399   2.136   0.921  0.1163  0.7518 -1.1342
 1080THF     C914036   5.329   2.134   0.789  0.4256  0.4035  0.4163
 1080THF    H1014037   5.355   2.066   0.997 -2.2986 -0.0882  0.2451
 1080THF    H1114038   5.502   2.097   0.908  0.5817  0.9255 -0.1248
 1080THF    H1214039   5.393   2.169   0.710 -0.8453  1.4362  2.5661
 1080THF    H1314040   5.287   2.035   0.755 -4.2851 -1.8868  0.8163
 1081THF     O114041   4.826   2.914   0.990  0.3148 -0.7795  0.5608
 1081THF     C214042   4.756   2.919   0.869  0.3291  0.9334  0.8431
 1081THF     C314043   4.781   2.790   1.051 -0.8111  1.2960 -0.5686
 1081THF     H414044   4.820   2.875   0.787  0.9832 -0.5357 -1.5306
 1081THF     H514045   4.745   3.023   0.843  0.5579  0.0282 -0.6925
 1081THF     H614046   4.861   2.718   1.074  2.8246 -1.9742 -1.6997
 1081THF     H714047   4.747   2.807   1.150  1.6932 -0.8459  0.5262
 1081THF     C814048   4.669   2.727   0.976  0.2309 -0.0617  0.3383
 1081THF     C914049   4.626   2.835   0.885  0.1671  0.6186  0.3612
 1081THF    H1014050   4.590   2.688   1.044 -0.7968 -0.5863 -0.9603
 1081THF    H1114051   4.713   2.649   0.912  0.1654  0.8911 -1.0472
 1081THF    H1214052   4.587   2.807   0.791 -0.0554 -0.5097 -0.5504
 1081THF    H1314053   4.557   2.902   0.935 -0.8544  0.4243 -1.6308
 1082THF     O114054   1.518   2.422   5.314 -0.2835  0.4690  0.1365
 1082THF     C214055   1.522   2.559   5.335  0.0711  0.3806 -0.0727
 1082THF     C314056   1.534   2.349   5.433  0.4914 -0.4611  0.1261
 1082THF     H414057   1.423   2.598   5.353  0.8208  1.9238 -3.1778
 1082THF     H514058   1.554   2.613   5.243 -3.7555 -0.0682  0.5303
 1082THF     H614059   1.437   2.339   5.480  0.2819  0.3962  1.5103
 1082THF     H714060   1.580   2.250   5.418  0.3430 -0.8422 -1.7737
 1082THF     C814061   1.615   2.451   5.525  0.7403  0.7092 -0.5965
 1082THF     C914062   1.630   2.572   5.441  0.2956  0.2121 -0.0127
 1082THF    H1014063   1.717   2.418   5.539  0.1845 -0.0581 -0.7127
 1082THF    H1114064   1.560   2.481   5.612 -1.9924  0.3525 -0.9543
 1082THF    H1214065   1.607   2.662   5.496 -2.5428 -0.7341 -2.5211
 1082THF    H1314066   1.733   2.574   5.393 -0.7409  1.3743  0.1385
 1083THF     O114067   2.785   3.751   2.294 -0.1965 -0.5525 -0.4548
 1083THF     C214068   2.709   3.836   2.217  0.2998 -0.3127  0.0778
 1083THF     C314069   2.808   3.820   2.413  0.1733  0.2941  0.2406
 1083THF     H414070   2.662   3.786   2.130 -0.5085 -3.0622  0.1903
 1083THF     H514071   2.783   3.918   2.194  0.4896  2.9628 -1.5839
 1083THF     H614072   2.841   3.746   2.491  2.1852 -0.3899 -3.0179
 1083THF     H714073   2.883   3.894   2.390  1.3413 -0.5921 -1.4942
 1083THF     C814074   2.678   3.892   2.445  0.1092  0.0133  0.1031
 1083THF     C914075   2.606   3.893   2.319  0.3424 -0.1087 -0.0057
 1083THF    H1014076   2.700   3.987   2.484  1.4919  0.3835  0.6525
 1083THF    H1114077   2.607   3.841   2.508  2.1252  0.1778  1.0924
 1083THF    H1214078   2.515   3.824   2.314  0.9485  1.9527 -0.2777
 1083THF    H1314079   2.577   3.985   2.279  0.1809  0.0652 -1.4910
 1084THF     O114080   4.091   1.272   5.238  0.8429  0.0739 -0.1993
 1084THF     C214081   3.994   1.360   5.179 -0.0935  0.6449 -0.4570
 1084THF     C314082   4.132   1.190   5.125 -0.9252  0.1609 -0.6334
 1084THF     H414083   4.034   1.421   5.101  0.8081 -2.8748 -1.9711
 1084THF     H514084   3.955   1.434   5.258  1.5376  0.8006 -0.2087
 1084THF     H614085   4.179   1.266   5.067  0.0339  1.9476  0.4242
 1084THF     H714086   4.199   1.113   5.160  1.7254 -0.8613  0.6080
 1084THF     C814087   3.992   1.136   5.087 -0.0414 -0.4968 -0.0200
 1084THF     C914088   3.900   1.251   5.122 -0.0071 -0.5277  0.9419
 1084THF    H1014089   3.964   1.041   5.129 -1.6573  1.8816 -3.4976
 1084THF    H1114090   3.992   1.108   4.980 -0.7815 -0.6046 -0.2913
 1084THF    H1214091   3.859   1.284   5.026 -0.1728 -0.1072 -2.8337
 1084THF    H1314092   3.830   1.219   5.201 -2.1773  1.7381 -1.0132
 1085THF     O114093   2.954   2.818   1.508 -0.3753 -0.3237 -0.0041
 1085THF     C214094   2.987   2.706   1.428  0.6874  0.0110  0.0164
 1085THF     C314095   2.871   2.915   1.446  0.2625  0.0802 -0.4770
 1085THF     H414096   2.940   2.614   1.467 -0.2139  0.7257  0.0386
 1085THF     H514097   3.094   2.685   1.405  0.8087  0.7322  0.8499
 1085THF     H614098   2.785   2.962   1.503 -2.8657  0.5903  0.3123
 1085THF     H714099   2.939   2.992   1.401  0.7966 -2.9902 -0.4739
 1085THF     C814100   2.800   2.826   1.343 -0.4260 -0.3464  0.1776
 1085THF     C914101   2.921   2.738   1.291 -0.3679 -0.5517 -0.1321
 1085THF    H1014102   2.751   2.880   1.266 -1.7162  1.2709 -0.4707
 1085THF    H1114103   2.728   2.768   1.400  1.0607  3.1192 -0.6232
 1085THF    H1214104   2.891   2.645   1.245  1.9692  0.9548  0.5497
 1085THF    H1314105   2.979   2.798   1.221  1.2115 -0.0157 -0.4092
 1086THF     O114106   1.383   4.809   3.530  0.0763 -0.0062  0.3479
 1086THF     C214107   1.251   4.763   3.508  1.0314  1.2294 -0.0511
 1086THF     C314108   1.475   4.712   3.488  0.4660  0.4402  0.1029
 1086THF     H414109   1.178   4.843   3.508  1.2672 -2.3300 -1.5997
 1086THF     H514110   1.228   4.685   3.589  0.0378 -1.9210 -2.8609
 1086THF     H614111   1.562   4.763   3.451  0.1195  0.0519 -1.3020
 1086THF     H714112   1.480   4.637   3.571  0.9316 -0.8970  1.5602
 1086THF     C814113   1.411   4.640   3.372  0.4362  0.0215  0.3718
 1086THF     C914114   1.269   4.694   3.373  0.1348 -0.5481 -0.3998
 1086THF    H1014115   1.409   4.537   3.389 -0.3921  1.6682  0.6334
 1086THF    H1114116   1.461   4.659   3.272 -1.3468 -4.8202 -0.2207
 1086THF    H1214117   1.253   4.773   3.295 -0.7299 -0.1372  0.5895
 1086THF    H1314118   1.185   4.627   3.348  1.3252  2.1240  0.3377
 1087THF     O114119   3.545   0.820   0.315  0.0016 -0.0001 -0.3718
 1087THF     C214120   3.634   0.867   0.415  0.8922  0.4211 -0.3654
 1087THF     C314121   3.502   0.693   0.353 -0.1207 -0.3368  0.4834
 1087THF     H414122   3.641   0.976   0.420  0.1042 -0.0127 -3.1127
 1087THF     H514123   3.739   0.832   0.403 -0.0227  2.5428  0.7166
 1087THF     H614124   3.416   0.670   0.294  1.2634  0.5128 -0.8463
 1087THF     H714125   3.581   0.620   0.329 -0.7632 -1.1924 -0.4389
 1087THF     C814126   3.482   0.701   0.499 -0.1666 -0.4960 -0.0299
 1087THF     C914127   3.571   0.822   0.542 -0.2075  0.5264 -1.0795
 1087THF    H1014128   3.525   0.612   0.542  0.5678 -0.2788 -0.4673
 1087THF    H1114129   3.376   0.701   0.518 -2.1116 -0.5011  2.4548
 1087THF    H1214130   3.511   0.899   0.593  1.1509  3.0636 -0.1522
 1087THF    H1314131   3.653   0.802   0.605  1.2033  0.3235 -1.2208
 1088THF     O114132   5.143   3.988   0.352 -0.3977 -0.0123 -1.0425
 1088THF     C214133   5.019   3.935   0.402  0.9176 -0.1189  0.3210
 1088THF     C314134   5.208   3.880   0.285 -0.4018  0.4785  0.6686
 1088THF     H414135   4.963   4.010   0.452  1.0275  1.2652 -0.0388
 1088THF     H514136   5.020   3.843   0.468 -1.9149  1.4155  1.1738
 1088THF     H614137   5.285   3.908   0.210  0.6261 -0.0615 -1.8566
 1088THF     H714138   5.241   3.802   0.358 -2.3746  0.2829  0.0035
 1088THF     C814139   5.091   3.830   0.204 -0.5390  0.3994  0.3858
 1088THF     C914140   4.963   3.887   0.273 -0.2628  0.6209  0.3613
 1088THF    H1014141   5.088   3.720   0.210 -0.1467  3.2098 -2.0714
 1088THF    H1114142   5.088   3.861   0.101  2.0146  0.6551  0.0675
 1088THF    H1214143   4.909   3.971   0.223  1.7550 -0.3705 -0.3558
 1088THF    H1314144   4.890   3.807   0.296  0.4472 -1.1788  1.0923
 1089THF     O114145   1.128   2.671   3.259  0.1188 -0.0340 -0.3792
 1089THF     C214146   1.151   2.537   3.251 -0.0495 -0.0091 -0.0905
 1089THF     C314147   1.241   2.740   3.306  0.3627 -0.0299 -0.1716
 1089THF     H414148   1.110   2.511   3.147  2.0525  2.0509 -0.6693
 1089THF     H514149   1.093   2.485   3.325  0.7654  0.8769 -2.3610
 1089THF     H614150   1.246   2.846   3.289 -0.6982 -1.3002  0.4651
 1089THF     H714151   1.245   2.732   3.414 -1.6295  0.4285 -0.1485
 1089THF     C814152   1.352   2.660   3.239  0.2376  0.2198 -0.6696
 1089THF     C914153   1.300   2.511   3.235  0.5454  0.1916  0.6462
 1089THF    H1014154   1.456   2.669   3.282  0.2899 -1.8453 -0.1966
 1089THF    H1114155   1.360   2.686   3.138 -1.4451 -1.4863 -0.8285
 1089THF    H1214156   1.315   2.457   3.142  1.1463  0.5475 -0.7123
 1089THF    H1314157   1.341   2.454   3.313 -0.7228 -2.8635 -0.4964
 1090THF     O114158   0.181   4.509   3.371  0.0083 -0.4283  0.1713
 1090THF     C214159   0.194   4.389   3.298 -0.1591 -0.2830  0.1110
 1090THF     C314160   0.238   4.613   3.298  0.3235 -0.6038  0.0578
 1090THF     H414161   0.115   4.393   3.223  0.0578 -2.1609 -1.6080
 1090THF     H514162   0.175   4.311   3.371  1.4907  0.2334 -0.0889
 1090THF     H614163   0.166   4.655   3.223  0.1296 -0.7209 -0.4437
 1090THF     H714164   0.270   4.690   3.369 -3.1151 -0.5531  1.0755
 1090THF     C814165   0.375   4.546   3.243 -0.0710 -0.4296  0.8987
 1090THF     C914166   0.341   4.397   3.249 -0.4758  0.6196 -0.3110
 1090THF    H1014167   0.448   4.568   3.322 -0.9455 -0.7884 -1.1419
 1090THF    H1114168   0.416   4.570   3.140 -0.8061 -1.3449 -1.4484
 1090THF    H1214169   0.345   4.348   3.156  0.6011 -1.0589 -1.1265
 1090THF    H1314170   0.417   4.345   3.326  3.3386 -1.5042  1.1303
 1091THF     O114171   0.218   3.917   1.124  0.3811 -0.9350 -0.3448
 1091THF     C214172   0.342   3.852   1.094 -0.1750  0.5017 -0.3969
 1091THF     C314173   0.164   3.925   0.992 -0.1316 -0.0202 -0.2661
 1091THF     H414174   0.374   3.815   1.193 -1.6009 -0.3998 -1.0498
 1091THF     H514175   0.408   3.918   1.043  1.6676  0.9047 -1.0226
 1091THF     H614176   0.064   3.976   0.992 -0.3442  1.0747  0.5363
 1091THF     H714177   0.223   4.000   0.938 -1.1983 -1.2840  1.8986
 1091THF     C814178   0.176   3.788   0.934  0.6163 -0.7589  0.0003
 1091THF     C914179   0.305   3.742   0.995  0.2296  0.1083 -0.2450
 1091THF    H1014180   0.189   3.791   0.825  0.0801 -0.9707  0.8226
 1091THF    H1114181   0.097   3.724   0.969 -0.6381 -0.0143 -0.9118
 1091THF    H1214182   0.310   3.639   1.034  1.0331  1.8839 -0.0814
 1091THF    H1314183   0.389   3.736   0.922 -0.4068 -2.2860  0.0378
 1092THF     O114184   1.743   4.666   4.310  0.0861  0.4720 -0.5275
 1092THF     C214185   1.874   4.723   4.303  0.0515 -0.1970  0.1582
 1092THF     C314186   1.728   4.597   4.186  0.2180 -1.4939 -0.3484
 1092THF     H414187   1.902   4.748   4.406  1.9964  0.8424  3.8173
 1092THF     H514188   1.860   4.808   4.235  2.2327 -2.4547 -0.6593
 1092THF     H614189   1.651   4.532   4.187  3.0441  0.1413  0.2341
 1092THF     H714190   1.721   4.666   4.105  1.9362  2.4235 -0.5795
 1092THF     C814191   1.866   4.526   4.171  0.1560  0.1833 -0.1418
 1092THF     C914192   1.959   4.618   4.242 -0.3984 -0.8155  0.6418
 1092THF    H1014193   1.888   4.510   4.063  1.1339  3.2515  0.6149
 1092THF    H1114194   1.865   4.428   4.221 -1.9214 -1.7084 -1.5977
 1092THF    H1214195   2.010   4.569   4.322  0.5194  1.0725 -1.8610
 1092THF    H1314196   2.035   4.663   4.181  0.5770 -2.9360  1.0034
 1093THF     O114197   4.057   5.190   0.971 -0.6831 -0.2603  0.3279
 1093THF     C214198   4.102   5.208   0.840  0.1708  0.4092  0.2616
 1093THF     C314199   4.000   5.063   0.972  0.1400  0.5004 -0.7026
 1093THF     H414200   4.193   5.269   0.842 -0.2526  0.9172  0.4121
 1093THF     H514201   4.033   5.271   0.785 -0.8288  2.5158 -0.3033
 1093THF     H614202   3.988   5.039   1.074 -0.4873 -0.6007  1.0447
 1093THF     H714203   3.897   5.064   0.937 -0.3116  1.1327  0.8906
 1093THF     C814204   4.094   4.978   0.891 -1.2673 -0.0826  0.6593
 1093THF     C914205   4.135   5.075   0.782 -0.8809 -0.4874 -0.2713
 1093THF    H1014206   4.065   4.874   0.860 -1.1352  4.3439  0.8937
 1093THF    H1114207   4.189   4.954   0.942 -0.1422  0.0758  0.7062
 1093THF    H1214208   4.237   5.063   0.742 -1.0305  0.5857 -4.7297
 1093THF    H1314209   4.077   5.062   0.691 -1.5886 -0.7060  1.3853
 1094THF     O114210   2.767   5.290   5.064  0.6838 -0.4291  0.1923
 1094THF     C214211   2.865   5.199   5.094  0.1906 -0.6979 -0.3683
 1094THF     C314212   2.825   5.417   5.024  0.3543 -0.2395 -0.5264
 1094THF     H414213   2.829   5.099   5.050  0.2692 -1.5158 -1.3109
 1094THF     H514214   2.875   5.181   5.199  1.2691  0.8433 -1.7644
 1094THF     H614215   2.747   5.465   4.967  0.8195  1.3523 -1.0632
 1094THF     H714216   2.852   5.482   5.109 -0.3831  1.1502 -1.8555
 1094THF     C814217   2.953   5.376   4.955  0.4444  0.0786 -0.6885
 1094THF     C914218   2.987   5.247   5.032 -0.3836 -0.1696  0.0822
 1094THF    H1014219   3.029   5.446   4.947  0.8462  0.3972 -1.2630
 1094THF    H1114220   2.937   5.352   4.850  0.0521 -1.6038 -1.8425
 1094THF    H1214221   3.028   5.165   4.961  0.7227 -2.2591 -0.6077
 1094THF    H1314222   3.063   5.267   5.110 -0.9063  1.3084  3.6303
 1095THF     O114223   4.990   5.482   2.011 -0.4119 -0.3906  0.2206
 1095THF     C214224   4.895   5.374   1.998 -0.0973 -0.0492 -0.0752
 1095THF     C314225   4.931   5.594   1.948 -1.0129 -0.1993  0.7005
 1095THF     H414226   4.814   5.374   2.076 -2.4544  2.6254 -1.0716
 1095THF     H514227   4.950   5.282   2.001  0.4472 -0.7325 -3.0454
 1095THF     H614228   4.847   5.635   2.011  2.4121 -1.5131 -0.5891
 1095THF     H714229   4.998   5.678   1.928  0.7202  2.1218  0.3704
 1095THF     C814230   4.880   5.532   1.813  0.2527  0.0890  0.0619
 1095THF     C914231   4.827   5.393   1.859 -0.7008 -0.1819 -0.6644
 1095THF    H1014232   4.963   5.516   1.749 -2.0821 -1.2433  3.0524
 1095THF    H1114233   4.809   5.596   1.770 -0.3575  0.0781 -2.2287
 1095THF    H1214234   4.723   5.405   1.877  1.9237  0.4266  1.4520
 1095THF    H1314235   4.831   5.307   1.786  1.5158 -0.1354  0.7113
 1096THF     O114236   0.419   5.354   2.833  0.2924 -0.4676 -0.1959
 1096THF     C214237   0.400   5.466   2.751 -0.1859  0.1141  0.2572
 1096THF     C314238   0.550   5.357   2.885 -0.0004 -0.6163 -0.2985
 1096THF     H414239   0.385   5.559   2.813 -1.1556  2.3802  0.3179
 1096THF     H514240   0.314   5.449   2.692  1.9460  1.8491 -0.5613
 1096THF     H614241   0.555   5.437   2.959 -2.7483  0.7257  0.6365
 1096THF     H714242   0.589   5.267   2.922  0.5158 -1.3429 -1.5611
 1096THF     C814243   0.630   5.413   2.764 -0.9992 -1.0458  0.5213
 1096THF     C914244   0.528   5.481   2.675  0.4375  0.1892 -0.3703
 1096THF    H1014245   0.671   5.342   2.694  0.6729  3.6206 -0.1258
 1096THF    H1114246   0.704   5.486   2.795 -1.3704  2.1807  1.2087
 1096THF    H1214247   0.556   5.583   2.640 -1.3089  1.0903  0.6518
 1096THF    H1314248   0.528   5.420   2.588 -0.4411  0.6394  0.7052
 1097THF     O114249   3.628   4.100   4.609 -0.6025  0.5211 -0.2079
 1097THF     C214250   3.583   4.158   4.490  0.2610 -0.3697  0.6064
 1097THF     C314251   3.517   4.035   4.667  0.1614 -0.3092 -0.8059
 1097THF     H414252   3.578   4.071   4.422 -1.8141  2.6672  0.1606
 1097THF     H514253   3.648   4.235   4.455 -2.2729 -0.9928 -2.4467
 1097THF     H614254   3.493   3.933   4.626 -0.2247  1.9154 -0.6645
 1097THF     H714255   3.533   4.024   4.771  1.4739  4.4306  0.7416
 1097THF     C814256   3.394   4.137   4.639  0.3272  0.9888  0.8306
 1097THF     C914257   3.443   4.207   4.516  0.0642  0.0956 -0.5256
 1097THF    H1014258   3.377   4.208   4.720 -2.2429  0.3142 -1.9435
 1097THF    H1114259   3.302   4.089   4.608 -2.0755 -0.0895  0.7287
 1097THF    H1214260   3.384   4.180   4.426 -1.9932  0.0369  0.9742
 1097THF    H1314261   3.448   4.311   4.531 -0.7237 -2.9514  2.8877
 1098THF     O114262   4.993   2.366   1.293  0.7238 -0.2549 -0.2373
 1098THF     C214263   5.013   2.452   1.185 -0.4344  0.0150 -0.3121
 1098THF     C314264   5.107   2.364   1.370 -0.3120  0.7534 -0.7636
 1098THF     H414265   4.916   2.483   1.143  0.3337  0.8096 -0.5155
 1098THF     H514266   5.067   2.405   1.111  0.7867  1.4357 -1.1254
 1098THF     H614267   5.094   2.312   1.467 -2.6649 -2.5379 -2.2686
 1098THF     H714268   5.191   2.312   1.318  0.9742  1.9886  2.5449
 1098THF     C814269   5.149   2.508   1.366  0.0800  0.6020 -0.5864
 1098THF     C914270   5.098   2.560   1.237 -0.1268 -0.2729 -0.1907
 1098THF    H1014271   5.257   2.505   1.366 -0.5094 -0.9277 -0.4382
 1098THF    H1114272   5.103   2.566   1.447  0.6699  1.2211  1.8961
 1098THF    H1214273   5.052   2.656   1.258 -1.9414 -1.7894 -0.2157
 1098THF    H1314274   5.180   2.585   1.165 -0.1828  1.3010  0.4035
 1099THF     O114275   0.891   1.435   3.428  0.2779  0.1806 -0.1138
 1099THF     C214276   0.791   1.483   3.527 -0.3207  0.3697 -0.2074
 1099THF     C314277   0.885   1.296   3.420  0.1517  0.5075  0.4355
 1099THF     H414278   0.700   1.472   3.471 -0.8512  0.4190 -1.0777
 1099THF     H514279   0.808   1.582   3.567  1.5142  0.2584  1.2677
 1099THF     H614280   0.815   1.258   3.346 -1.6820 -1.7215  0.2572
 1099THF     H714281   0.984   1.258   3.404 -0.9402 -0.0906  1.6188
 1099THF     C814282   0.826   1.254   3.557  1.1982  0.1589 -0.6488
 1099THF     C914283   0.800   1.381   3.635 -0.2437 -0.4459 -0.4778
 1099THF    H1014284   0.898   1.195   3.613 -0.3979  2.7521 -0.7367
 1099THF    H1114285   0.735   1.193   3.540  0.5340  0.6805  0.9601
 1099THF    H1214286   0.709   1.370   3.692  1.0784 -0.0394  0.4643
 1099THF    H1314287   0.884   1.410   3.700  0.5991  0.7486 -0.3653
 1100THF     O114288   4.827   4.740   5.317 -0.2856  0.0396  0.2252
 1100THF     C214289   4.714   4.828   5.319 -0.6823 -0.7039 -0.0519
 1100THF     C314290   4.903   4.790   5.213  0.5451 -0.3620 -0.3216
 1100THF     H414291   4.728   4.914   5.386 -1.4271  3.1916  1.5661
 1100THF     H514292   4.635   4.766   5.358  0.9872 -1.4734 -0.9804
 1100THF     H614293   4.943   4.891   5.240  2.0974  1.8701 -2.4438
 1100THF     H714294   4.991   4.721   5.188  0.7030  1.2006 -1.1986
 1100THF     C814295   4.810   4.822   5.095 -0.5771  1.1575  0.2198
 1100THF     C914296   4.697   4.877   5.175 -0.3326  0.5276  0.0499
 1100THF    H1014297   4.789   4.727   5.047  0.4759 -1.4121 -0.8111
 1100THF    H1114298   4.850   4.892   5.018  1.3625  0.8784 -3.4651
 1100THF    H1214299   4.704   4.989   5.173 -3.2842  1.1365  0.3241
 1100THF    H1314300   4.596   4.864   5.135  0.4516  0.7892  0.2841
 1101THF     O114301   4.807   1.807   5.202 -0.1439  0.0560 -0.5760
 1101THF     C214302   4.923   1.882   5.169  0.1876  0.0942 -0.0885
 1101THF     C314303   4.696   1.870   5.138 -0.2557 -0.5933  0.0555
 1101THF     H414304   4.957   1.857   5.069  1.3119 -1.3945  0.8444
 1101THF     H514305   5.003   1.873   5.243 -2.1109  1.6235  2.9668
 1101THF     H614306   4.692   1.825   5.040  1.6726 -0.2475  3.7858
 1101THF     H714307   4.613   1.839   5.203 -0.8383 -1.8646 -2.1337
 1101THF     C814308   4.721   2.017   5.137 -0.4027  0.1849  0.0520
 1101THF     C914309   4.875   2.031   5.154  0.4073  0.2833  0.5788
 1101THF    H1014310   4.649   2.074   5.203 -2.0838 -0.4590  0.4756
 1101THF    H1114311   4.692   2.053   5.038 -0.0675  0.4463 -4.2446
 1101THF    H1214312   4.925   2.091   5.087  0.1567 -0.5661 -1.1324
 1101THF    H1314313   4.897   2.078   5.249  0.7209 -1.1540  0.6016
 1102THF     O114314   2.392   2.025   0.896 -0.3440  0.1229 -0.1149
 1102THF     C214315   2.397   1.960   1.020 -0.4283 -0.5942  0.5125
 1102THF     C314316   2.275   2.091   0.858  0.3918 -0.1892  0.1389
 1102THF     H414317   2.495   1.968   1.063  0.6746  0.6570 -0.7007
 1102THF     H514318   2.360   1.860   1.017 -0.7810  1.4477  2.5200
 1102THF     H614319   2.304   2.186   0.815 -0.0044 -2.3062 -0.2236
 1102THF     H714320   2.222   2.024   0.790  0.4377 -1.1830  0.2575
 1102THF     C814321   2.204   2.104   0.989  0.6659 -1.1362  0.4089
 1102THF     C914322   2.299   2.050   1.095 -0.3725 -0.3230 -0.8422
 1102THF    H1014323   2.113   2.046   1.002 -1.5740 -0.9104  1.5244
 1102THF    H1114324   2.172   2.205   1.007  0.2762 -0.1971 -0.8774
 1102THF    H1214325   2.350   2.138   1.135 -0.5545 -1.4809  2.3100
 1102THF    H1314326   2.256   2.008   1.181 -1.9171 -1.9390 -1.1171
 1103THF     O114327   0.487   2.112   1.405 -0.2674 -0.2466  0.0797
 1103THF     C214328   0.537   2.241   1.425 -0.1103 -0.2998  0.5008
 1103THF     C314329   0.442   2.105   1.271  0.3481  0.3643  0.4391
 1103THF     H414330   0.606   2.241   1.511  1.2701 -0.2681 -0.0359
 1103THF     H514331   0.458   2.309   1.439  0.1393  0.7769 -2.9267
 1103THF     H614332   0.429   1.995   1.246  1.5503  1.2523  0.0835
 1103THF     H714333   0.347   2.147   1.260 -3.7595  1.6567 -1.1222
 1103THF     C814334   0.555   2.167   1.191 -0.9389 -1.0830  0.8311
 1103THF     C914335   0.605   2.274   1.289  0.0155  0.3719 -0.3064
 1103THF    H1014336   0.523   2.209   1.100  0.5066 -0.2477  1.5765
 1103THF    H1114337   0.642   2.105   1.165 -1.7860  0.3498 -1.5691
 1103THF    H1214338   0.713   2.271   1.299  0.0406 -0.2150  0.3050
 1103THF    H1314339   0.582   2.384   1.255  0.2551 -0.7684 -0.3094
 1104THF     O114340   5.253   0.706   0.630  0.1332  0.0029  0.3716
 1104THF     C214341   5.191   0.582   0.644  0.2593  0.5436  0.4995
 1104THF     C314342   5.310   0.700   0.499 -0.5979 -0.1548  0.3115
 1104THF     H414343   5.122   0.590   0.724 -0.5894  0.9263 -0.6272
 1104THF     H514344   5.268   0.504   0.664  3.1628 -2.0895  0.9405
 1104THF     H614345   5.344   0.799   0.464  0.1578  0.9034  0.2793
 1104THF     H714346   5.400   0.633   0.500  0.3926  1.0086 -0.4939
 1104THF     C814347   5.208   0.630   0.413  0.0612 -0.0513 -0.2359
 1104THF     C914348   5.128   0.552   0.510 -0.1352 -0.3994 -0.1856
 1104THF    H1014349   5.261   0.564   0.350  2.3129  1.8136  2.8490
 1104THF    H1114350   5.158   0.702   0.351 -0.1583  0.9966  2.4407
 1104THF    H1214351   5.025   0.584   0.514 -0.5774  0.2081 -1.8320
 1104THF    H1314352   5.128   0.449   0.470 -1.2266 -0.9999 -1.0088
 1105THF     O114353   3.126   4.497   0.461  0.3045  0.2866 -0.3183
 1105THF     C214354   3.093   4.620   0.406 -0.4643  0.7020  0.8298
 1105THF     C314355   3.155   4.526   0.604 -0.3667 -0.0830  1.0955
 1105THF     H414356   2.989   4.621   0.378 -1.2828 -2.1368  0.9060
 1105THF     H514357   3.138   4.636   0.303 -1.1272 -0.4762 -4.0169
 1105THF     H614358   3.060   4.497   0.658 -1.6821 -0.6916  0.9711
 1105THF     H714359   3.238   4.456   0.629 -1.1698 -0.9898  1.2153
 1105THF     C814360   3.202   4.672   0.603  0.2474  1.0826  0.8050
 1105THF     C914361   3.112   4.738   0.508 -0.6697 -0.4657 -0.2159
 1105THF    H1014362   3.300   4.677   0.565  0.1896 -1.4908 -1.3857
 1105THF    H1114363   3.190   4.719   0.702  0.2211  2.7877 -1.4587
 1105THF    H1214364   3.025   4.763   0.559  1.2335 -0.4132 -3.2342
 1105THF    H1314365   3.162   4.817   0.460  1.0824  0.4678  3.5852
 1106THF     O114366   0.831   1.189   5.240  0.2230 -0.2503 -0.6231
 1106THF     C214367   0.740   1.278   5.181 -0.0621 -0.3263 -0.5758
 1106THF     C314368   0.960   1.241   5.232  0.1995 -0.3661 -0.0225
 1106THF     H414369   0.712   1.347   5.255  0.3041 -0.0861 -2.6026
 1106THF     H514370   0.648   1.235   5.148  2.1848  1.4131 -1.0692
 1106THF     H614371   0.971   1.320   5.306  1.8501 -0.8127 -1.7010
 1106THF     H714372   1.032   1.166   5.246  2.6200  0.8276 -4.0652
 1106THF     C814373   0.961   1.296   5.091 -0.3327 -0.4710  0.3971
 1106THF     C914374   0.814   1.350   5.072  0.1485  0.1176  0.0282
 1106THF    H1014375   0.981   1.215   5.020  1.0561 -0.3516 -0.8655
 1106THF    H1114376   1.037   1.370   5.060  2.6500  3.3175 -0.9366
 1106THF    H1214377   0.793   1.453   5.088  0.7398 -0.4836  0.4461
 1106THF    H1314378   0.776   1.331   4.974 -0.9612  0.7498  1.8158
 1107THF     O114379   4.736   3.671   4.190 -0.1051 -0.3749 -0.0420
 1107THF     C214380   4.628   3.752   4.142 -0.2247 -0.3246 -0.1198
 1107THF     C314381   4.692   3.536   4.221  0.0957  0.3371  0.0952
 1107THF     H414382   4.664   3.800   4.057  0.5622 -3.6327  2.4628
 1107THF     H514383   4.602   3.822   4.226  0.5057  0.6134 -2.2580
 1107THF     H614384   4.782   3.478   4.221 -0.4827  2.1381  0.7131
 1107THF     H714385   4.640   3.533   4.321  0.9526 -1.1554  0.4382
 1107THF     C814386   4.587   3.517   4.115 -0.3937 -0.3258  0.3125
 1107THF     C914387   4.521   3.653   4.099 -0.0469  0.1751  0.3010
 1107THF    H1014388   4.513   3.440   4.135  1.8067  0.0079 -1.0525
 1107THF    H1114389   4.643   3.485   4.028 -0.1982  1.7226  0.3603
 1107THF    H1214390   4.493   3.682   4.007  1.8163  2.6076 -0.8123
 1107THF    H1314391   4.435   3.661   4.165 -0.7810 -1.6309 -1.0063
 1108THF     O114392   4.385   3.680   5.033  0.2973 -0.3407 -0.0273
 1108THF     C214393   4.450   3.564   4.991 -0.5194  0.5641  0.7506
 1108THF     C314394   4.271   3.638   5.104 -0.1401  0.0225  0.1534
 1108THF     H414395   4.556   3.571   5.001 -1.9869  0.1236 -1.5523
 1108THF     H514396   4.422   3.529   4.893 -1.3187 -0.8108 -0.8778
 1108THF     H614397   4.225   3.717   5.159  0.3544 -1.8109  3.3977
 1108THF     H714398   4.200   3.598   5.030 -0.3071  0.9334 -0.8963
 1108THF     C814399   4.327   3.527   5.190  0.8390 -0.5521  1.1044
 1108THF     C914400   4.427   3.458   5.094  0.8895 -0.7758 -0.2076
 1108THF    H1014401   4.258   3.450   5.226  0.1978 -0.4648 -0.4761
 1108THF    H1114402   4.377   3.570   5.275  0.5202  0.4154 -1.6064
 1108THF    H1214403   4.510   3.418   5.151  0.4137 -0.2333 -1.8035
 1108THF    H1314404   4.379   3.374   5.044 -1.1538  3.9086  4.1023
 1109THF     O114405   4.678   2.621   0.091 -0.0473 -0.4351  0.0527
 1109THF     C214406   4.634   2.669  -0.039  0.3049  0.0842  0.6384
 1109THF     C314407   4.560   2.601   0.169 -0.7032 -0.2744  0.2325
 1109THF     H414408   4.594   2.586  -0.110 -1.0266  1.1255 -0.6017
 1109THF     H514409   4.710   2.722  -0.091 -1.2422  0.9778  1.3957
 1109THF     H614410   4.516   2.505   0.139 -3.3290  0.5262  4.2093
 1109THF     H714411   4.597   2.591   0.274 -2.5314  1.9944 -0.3776
 1109THF     C814412   4.488   2.729   0.139 -0.1236 -0.3209 -0.1587
 1109THF     C914413   4.522   2.764  -0.008  0.0850  0.2544 -0.3394
 1109THF    H1014414   4.536   2.809   0.195  1.9230  1.9943  2.8325
 1109THF    H1114415   4.380   2.741   0.153 -1.5482  3.6660 -0.7648
 1109THF    H1214416   4.436   2.738  -0.067 -1.2987  0.7402  2.9610
 1109THF    H1314417   4.549   2.864  -0.037 -0.5098 -0.3180  0.7663
 1110THF     O114418   5.336   0.509   1.682  0.0550 -0.3615 -0.1642
 1110THF     C214419   5.239   0.594   1.746  0.2998  0.2694 -0.3407
 1110THF     C314420   5.270   0.391   1.655  0.3836  0.6380 -0.3447
 1110THF     H414421   5.212   0.657   1.656  0.8129  1.8780 -0.6226
 1110THF     H514422   5.289   0.658   1.817  2.1352 -2.5632  0.3164
 1110THF     H614423   5.275   0.379   1.545  0.2500 -0.3211 -0.5878
 1110THF     H714424   5.318   0.311   1.705 -1.1620 -1.2508  0.2724
 1110THF     C814425   5.120   0.407   1.684  0.1897 -0.1292  0.0524
 1110THF     C914426   5.117   0.517   1.780 -0.4469  0.6122  0.0292
 1110THF    H1014427   5.080   0.312   1.726 -1.5287  2.1394 -0.4272
 1110THF    H1114428   5.057   0.436   1.610  0.5727  0.4569  0.6152
 1110THF    H1214429   5.020   0.566   1.763  2.3544  1.6456 -0.7140
 1110THF    H1314430   5.130   0.482   1.885  1.5565 -0.8851 -1.0080
 1111THF     O114431   2.966   4.096   4.321 -0.0293 -0.1378  0.6406
 1111THF     C214432   2.976   3.955   4.341 -0.1445 -0.5215  0.1601
 1111THF     C314433   3.047   4.119   4.207  0.0457 -0.2600 -0.0040
 1111THF     H414434   2.882   3.896   4.369 -3.7090  0.1905  3.3929
 1111THF     H514435   3.049   3.922   4.413 -1.2272 -0.3094  0.6106
 1111THF     H614436   3.038   4.209   4.153 -0.2933 -0.4049  1.8237
 1111THF     H714437   3.159   4.109   4.229 -0.5018 -0.4969  0.0871
 1111THF     C814438   3.011   4.004   4.115 -0.0681 -0.4605  0.1458
 1111THF     C914439   3.028   3.887   4.215 -0.2857  0.1035 -0.0003
 1111THF    H1014440   3.079   4.005   4.032  0.3233  2.2692 -2.9899
 1111THF    H1114441   2.902   4.018   4.080 -0.5275 -0.3681  0.7530
 1111THF    H1214442   2.962   3.797   4.201  1.6348 -1.7659  0.7332
 1111THF    H1314443   3.134   3.860   4.224 -2.2563  2.8352 -3.3637
 1112THF     O114444   1.775   2.304   2.450  0.0740  0.0599 -0.2128
 1112THF     C214445   1.809   2.304   2.586  0.1264  0.0546  0.0893
 1112THF     C314446   1.730   2.172   2.420  0.3457 -0.6730 -0.1534
 1112THF     H414447   1.798   2.408   2.619 -1.1512  1.3503 -0.3405
 1112THF     H514448   1.907   2.260   2.611 -1.1475 -0.9926 -1.5803
 1112THF     H614449   1.631   2.166   2.372 -0.3241 -0.6140 -1.9967
 1112THF     H714450   1.802   2.119   2.353 -1.7075  0.2217  1.4119
 1112THF     C814451   1.733   2.096   2.551  0.9157 -0.3939  0.3037
 1112THF     C914452   1.704   2.202   2.643 -0.3789  0.3687  0.3502
 1112THF    H1014453   1.825   2.047   2.571 -1.6439  2.7505  2.5727
 1112THF    H1114454   1.652   2.023   2.541  2.7658 -1.1918  0.5141
 1112THF    H1214455   1.603   2.243   2.637 -0.6613 -0.2781 -0.0522
 1112THF    H1314456   1.716   2.170   2.746 -2.0059 -0.5810 -2.4123
 1113PF6-    P114457   5.357   1.164   0.760 -0.2732  0.0715  0.1594
 1113PF6-    F214458   5.207   1.105   0.738 -0.2920 -0.1948  0.9221
 1113PF6-    F314459   5.505   1.235   0.784 -0.0802 -0.3438 -0.0439
 1113PF6-    F414460   5.398   1.121   0.610 -0.3766  0.4602 -0.0468
 1113PF6-    F514461   5.310   1.208   0.910  0.2624 -0.3806 -0.1038
 1113PF6-    F614462   5.398   1.020   0.818 -0.1155  0.1767 -0.2106
 1113PF6-    F714463   5.310   1.307   0.703 -0.0838 -0.2384  0.2912
 1114PF6-    P114464   1.345   5.450   1.048  0.0035  0.2689 -0.3133
 1114PF6-    F214465   1.289   5.547   1.161  0.3256 -0.3360  0.1822
 1114PF6-    F314466   1.406   5.354   0.937  0.3862 -0.3104  0.5866
 1114PF6-    F414467   1.494   5.509   1.064 -0.4667  0.8961  0.4152
 1114PF6-    F514468   1.198   5.383   1.028  0.0439 -0.1674  0.8238
 1114PF6-    F614469   1.322   5.558   0.935  0.4396 -0.0343  0.1441
 1114PF6-    F714470   1.382   5.338   1.159 -0.0205 -0.1080  0.3615
 1115PF6-    P114471   4.232   1.903   4.245  0.1702 -0.2540  0.2659
 1115PF6-    F214472   4.210   1.846   4.101  0.0259  0.1592  0.1832
 1115PF6-    F314473   4.259   1.958   4.389  0.2284  0.3670  0.4598
 1115PF6-    F414474   4.349   1.798   4.263 -0.3158  0.1939  0.4620
 1115PF6-    F514475   4.120   2.014   4.225  0.1951  0.2405 -0.3599
 1115PF6-    F614476   4.128   1.794   4.304 -0.3360  0.2209 -0.3144
 1115PF6-    F714477   4.336   2.015   4.183  0.3025  0.6209 -0.4887
 1116PF6-    P114478   3.179   3.251   4.681 -0.4258  0.1793  0.1799
 1116PF6-    F214479   3.289   3.360   4.734  0.3652  0.2421  1.3864
 1116PF6-    F314480   3.073   3.144   4.621 -0.1011 -0.1525 -0.3856
 1116PF6-    F414481   3.076   3.372   4.660  0.0811 -0.4403 -0.1567
 1116PF6-    F514482   3.287   3.132   4.701  0.2210 -0.5667 -0.4795
 1116PF6-    F614483   3.130   3.228   4.832  0.4389 -0.2054  0.5143
 1116PF6-    F714484   3.239   3.276   4.533  0.2661  0.2693  0.1356
 1117PF6-    P114485   2.241   4.791   1.434  0.1849 -0.0316 -0.3911
 1117PF6-    F214486   2.240   4.947   1.398  0.0862  0.3143  0.3266
 1117PF6-    F314487   2.248   4.634   1.462  0.1395  0.2481 -0.3794
 1117PF6-    F414488   2.346   4.769   1.324 -0.4360 -0.0280  0.1525
 1117PF6-    F514489   2.123   4.806   1.550  0.3126 -0.3136  0.4800
 1117PF6-    F614490   2.127   4.764   1.327 -0.0298 -0.0973  0.2495
 1117PF6-    F714491   2.354   4.817   1.542 -0.0874 -0.2902 -0.3031
 1118PF6-    P114492   5.098   2.327   4.078 -0.1991 -0.0455  0.0276
 1118PF6-    F214493   5.062   2.461   3.998 -0.0850  0.2534  0.3614
 1118PF6-    F314494   5.131   2.195   4.163 -0.2597  0.1029 -0.2021
 1118PF6-    F414495   4.962   2.262   4.026 -0.2256 -0.6714  0.0895
 1118PF6-    F514496   5.233   2.401   4.136  0.1947 -0.5842  0.1272
 1118PF6-    F614497   5.019   2.373   4.209 -0.0774 -0.0957  0.2901
 1118PF6-    F714498   5.176   2.267   3.949  0.4486  0.2986 -0.0305
 1119PF6-    P114499   3.000   5.106   3.304  0.2953  0.0881 -0.1962
 1119PF6-    F214500   2.907   5.030   3.202 -0.0934 -0.7185  0.1092
 1119PF6-    F314501   3.099   5.180   3.398  0.0294 -0.2423 -0.1064
 1119PF6-    F414502   3.128   5.068   3.210 -0.7679 -0.2201 -0.3521
 1119PF6-    F514503   2.876   5.154   3.394 -0.1975 -0.2172  0.2893
 1119PF6-    F614504   3.016   4.971   3.385  0.4318  0.4036  0.3303
 1119PF6-    F714505   2.987   5.232   3.211  0.3713 -0.2592 -0.2095
 1120PF6-    P114506   0.373   1.264   2.576 -0.0128  0.0638  0.4310
 1120PF6-    F214507   0.297   1.134   2.510  0.2611  0.0426 -0.1552
 1120PF6-    F314508   0.452   1.394   2.634  0.4024 -0.1089  0.3266
 1120PF6-    F414509   0.355   1.339   2.437  0.2385 -0.0971  0.2066
 1120PF6-    F514510   0.390   1.196   2.714  0.1453  0.7795  0.1226
 1120PF6-    F614511   0.514   1.204   2.517 -0.1438 -0.3745 -0.4180
 1120PF6-    F714512   0.233   1.323   2.622 -0.2838  0.0646  0.3690
 1121PF6-    P114513   5.282   2.945   3.368  0.0074  0.4668 -0.0109
 1121PF6-    F214514   5.247   2.929   3.213 -0.2242  0.0007 -0.2204
 1121PF6-    F314515   5.311   2.959   3.525 -0.0299 -0.2077 -0.0963
 1121PF6-    F414516   5.164   2.849   3.401  0.0409  0.8528  0.1489
 1121PF6-    F514517   5.408   3.039   3.331 -0.1460 -0.1384  0.0920
 1121PF6-    F614518   5.188   3.066   3.375  0.5034 -0.2575  0.0232
 1121PF6-    F714519   5.385   2.817   3.360 -0.3266 -0.3082 -0.1200
 1122PF6-    P114520   4.305   4.108   5.195 -0.5270  0.4460  0.0702
 1122PF6-    F214521   4.254   4.253   5.149 -0.2861  0.2317  0.3797
 1122PF6-    F314522   4.358   3.968   5.246  0.2599 -0.1519  0.6673
 1122PF6-    F414523   4.217   4.034   5.080  0.2121  0.2901  0.3472
 1122PF6-    F514524   4.398   4.181   5.308 -0.0711 -0.6067 -0.1363
 1122PF6-    F614525   4.177   4.102   5.288 -0.0108  0.4467  0.0135
 1122PF6-    F714526   4.427   4.115   5.086 -0.0260 -0.4089 -0.0285
 1123PF6-    P114527   1.791   2.708   2.003  0.1753  0.1033 -0.0968
 1123PF6-    F214528   1.782   2.742   1.845  0.3076 -0.2023 -0.0708
 1123PF6-    F314529   1.800   2.688   2.157  0.3724  0.0956 -0.0738
 1123PF6-    F414530   1.932   2.790   2.009  0.1429 -0.2731  0.1533
 1123PF6-    F514531   1.649   2.623   1.998 -0.3079 -0.0137 -0.1924
 1123PF6-    F614532   1.868   2.579   1.975  0.2791  0.0453  0.2736
 1123PF6-    F714533   1.711   2.850   2.027 -0.3214  0.3174 -0.0469
 1124PF6-    P114534   1.484   3.612   5.139  0.0004  0.2512 -0.1639
 1124PF6-    F214535   1.443   3.520   5.007  0.4688 -0.0907  0.5450
 1124PF6-    F314536   1.522   3.702   5.268 -0.3116  0.0899  0.4603
 1124PF6-    F414537   1.394   3.732   5.080  0.3676  0.1702  0.0197
 1124PF6-    F514538   1.576   3.491   5.197 -0.1499  0.0231 -0.1313
 1124PF6-    F614539   1.616   3.669   5.061 -0.4405 -0.0212  0.1128
 1124PF6-    F714540   1.359   3.556   5.220 -0.4849  0.2700  0.7538
 1125PF6-    P114541   2.935   2.169   0.403  0.0111  0.0539 -0.4465
 1125PF6-    F214542   2.994   2.145   0.544  0.0068 -0.6449 -0.3397
 1125PF6-    F314543   2.870   2.199   0.259 -0.2335  0.2036  0.0959
 1125PF6-    F414544   3.006   2.313   0.399  0.1137 -0.0369 -0.1296
 1125PF6-    F514545   2.863   2.023   0.413  0.0013  0.5384  0.1772
 1125PF6-    F614546   2.809   2.243   0.462  0.1598 -0.0718  0.5475
 1125PF6-    F714547   3.058   2.103   0.331  0.1725  0.2338 -0.2409
 1126PF6-    P114548   4.435   1.529   5.233 -0.3963 -0.1004  0.2126
 1126PF6-    F214549   4.281   1.557   5.219 -0.3149 -0.0663 -0.4965
 1126PF6-    F314550   4.590   1.499   5.248  0.0481  0.1814  0.3402
 1126PF6-    F414551   4.410   1.496   5.387  0.4187 -0.2502  0.0502
 1126PF6-    F514552   4.462   1.558   5.074 -0.8703 -0.0228  0.3145
 1126PF6-    F614553   4.465   1.687   5.272  0.3066  0.3483 -0.1007
 1126PF6-    F714554   4.406   1.373   5.199  0.2252 -0.1850  0.1223
 1127PF6-    P114555   2.678   4.712   2.021 -0.2952  0.1620 -0.2787
 1127PF6-    F214556   2.655   4.755   1.864  0.2620 -0.0097  0.3932
 1127PF6-    F314557   2.701   4.671   2.174  0.2600  0.2578 -0.2011
 1127PF6-    F414558   2.819   4.788   2.019 -0.1830  0.2616 -0.2081
 1127PF6-    F514559   2.539   4.643   2.025  0.1907 -0.0160  0.4277
 1127PF6-    F614560   2.749   4.580   1.970  0.2588  0.5151 -0.4788
 1127PF6-    F714561   2.606   4.846   2.070 -0.1159  0.3780  0.0367
 1128PF6-    P114562   4.256   4.201   4.683 -0.3753  0.1114  0.4442
 1128PF6-    F214563   4.246   4.298   4.813 -0.3462 -0.2920  0.3402
 1128PF6-    F314564   4.266   4.104   4.553  0.4308 -0.1817 -0.1864
 1128PF6-    F414565   4.421   4.198   4.690 -0.2224  0.3963  0.3059
 1128PF6-    F514566   4.093   4.202   4.676 -0.1013 -0.4591 -0.2868
 1128PF6-    F614567   4.260   4.335   4.593 -0.2234 -0.4785  0.1527
 1128PF6-    F714568   4.249   4.073   4.777 -0.3250  0.7794  0.2921
 1129PF6-    P114569   3.915   3.808   4.804  0.2370 -0.0184  0.2943
 1129PF6-    F214570   3.896   3.714   4.933 -0.2711  0.0225 -0.0331
 1129PF6-    F314571   3.932   3.897   4.679 -0.3944 -0.1884  0.3860
 1129PF6-    F414572   4.051   3.728   4.762 -0.0457  0.4320  0.1788
 1129PF6-    F514573   3.786   3.890   4.846  0.1335 -0.5660 -0.3670
 1129PF6-    F614574   4.007   3.902   4.894 -0.0556  0.3756  0.1809
 1129PF6-    F714575   3.825   3.708   4.722 -0.1929  1.2000  0.4375
 1130PF6-    P114576   0.148   3.220   4.452  0.2464  0.3105 -0.0878
 1130PF6-    F214577   0.207   3.148   4.320  0.8909 -0.0345  0.2518
 1130PF6-    F314578   0.096   3.290   4.591  0.6011 -0.0369 -0.6086
 1130PF6-    F414579   0.026   3.121   4.455  0.4263  0.5049 -0.7911
 1130PF6-    F514580   0.269   3.328   4.445  0.1243  0.5692 -0.5465
 1130PF6-    F614581   0.053   3.321   4.371 -0.7521  0.2969 -0.7182
 1130PF6-    F714582   0.232   3.113   4.544  0.0396  0.1993 -0.0046
 1131PF6-    P114583   2.974   2.667   3.757 -0.0890  0.0512 -0.2409
 1131PF6-    F214584   2.879   2.655   3.638 -0.1245  0.0692  0.4632
 1131PF6-    F314585   3.068   2.686   3.890 -0.3481 -0.1934  0.3776
 1131PF6-    F414586   2.848   2.671   3.855 -0.0766  0.3410 -0.1097
 1131PF6-    F514587   3.103   2.663   3.669 -0.4391  0.3275 -0.1112
 1131PF6-    F614588   2.965   2.833   3.737  0.0012  0.4072  0.0978
 1131PF6-    F714589   2.982   2.504   3.777 -0.0804  0.3367  0.3823
 1132PF6-    P114590   2.675   4.276   4.013 -0.0948  0.2965 -0.0569
 1132PF6-    F214591   2.795   4.368   4.072  0.1034 -0.1137  0.2849
 1132PF6-    F314592   2.554   4.190   3.954  0.1819  0.1820  0.0302
 1132PF6-    F414593   2.779   4.196   3.917  0.0306 -0.2240 -0.0683
 1132PF6-    F514594   2.572   4.352   4.105  0.4603  0.1893 -0.3045
 1132PF6-    F614595   2.649   4.395   3.908  0.0713  0.2536 -0.0948
 1132PF6-    F714596   2.694   4.165   4.129  0.8538 -0.0968 -0.0609
 1133PF6-    P114597   3.435   4.921   1.462 -0.1737  0.2399  0.6370
 1133PF6-    F214598   3.438   4.958   1.296 -0.0185 -0.0545  0.0654
 1133PF6-    F314599   3.442   4.896   1.619  0.7414 -0.0334 -0.9658
 1133PF6-    F414600   3.282   4.965   1.468  0.5104 -0.5381 -0.1493
 1133PF6-    F514601   3.590   4.874   1.449  0.0284  0.1273 -0.3565
 1133PF6-    F614602   3.480   5.070   1.487  0.0529 -0.3734 -0.0563
 1133PF6-    F714603   3.400   4.768   1.437  0.1592 -0.0507  0.4661
 1134PF6-    P114604   2.336   3.443   3.422 -0.1212 -0.0420 -0.1536
 1134PF6-    F214605   2.319   3.473   3.264  0.0872 -0.0659 -0.1855
 1134PF6-    F314606   2.366   3.421   3.579 -0.2144  0.2861  0.2312
 1134PF6-    F414607   2.357   3.602   3.436  0.2162 -0.0748 -0.0712
 1134PF6-    F514608   2.311   3.282   3.391  0.2762 -0.4622 -0.1823
 1134PF6-    F614609   2.497   3.420   3.394  0.6569 -0.2363  0.6351
 1134PF6-    F714610   2.176   3.464   3.454 -0.0301 -0.0089 -0.2611
 1135PF6-    P114611   5.412   5.378   0.182 -0.0729  0.3044 -0.0383
 1135PF6-    F214612   5.268   5.324   0.131  0.1398  0.2919  0.1158
 1135PF6-    F314613   5.551   5.431   0.239  0.1340 -0.2201  0.5079
 1135PF6-    F414614   5.388   5.511   0.096 -0.0438 -0.2873 -0.3752
 1135PF6-    F514615   5.428   5.245   0.275 -0.4322  1.0253  0.4592
 1135PF6-    F614616   5.481   5.310   0.058  0.2382 -0.3422 -0.0099
 1135PF6-    F714617   5.343   5.446   0.305 -0.2303 -0.3862  0.1964
 1136PF6-    P114618   0.927   3.360   0.082  0.5778 -0.6229 -0.5889
 1136PF6-    F214619   0.835   3.309   0.201 -0.1331  0.0779  0.2349
 1136PF6-    F314620   1.018   3.419  -0.031  0.0653 -0.3137  0.4841
 1136PF6-    F414621   0.874   3.240  -0.008  0.6425 -0.0614 -0.0538
 1136PF6-    F514622   0.977   3.470   0.184 -0.0081 -0.4689  0.3882
 1136PF6-    F614623   1.051   3.272   0.129 -0.4303 -0.0758  0.3290
 1136PF6-    F714624   0.812   3.452   0.036  0.4582 -0.4496 -0.3796
 1137PF6-    P114625   4.686   2.747   1.913 -0.0736  0.0757 -0.1626
 1137PF6-    F214626   4.539   2.722   1.843  0.1792  0.0996 -0.4392
 1137PF6-    F314627   4.837   2.777   1.979 -0.0778  0.5737 -0.1391
 1137PF6-    F414628   4.624   2.779   2.056  0.5991 -0.5438 -0.0726
 1137PF6-    F514629   4.762   2.722   1.778 -0.2492 -0.0496  0.2698
 1137PF6-    F614630   4.668   2.905   1.873 -0.5780 -0.1280  0.3459
 1137PF6-    F714631   4.698   2.590   1.949  0.0485 -0.3384  0.1886
 1138PF6-    P114632   1.645   4.365   3.734 -0.2438  0.2117 -0.1103
 1138PF6-    F214633   1.587   4.394   3.589 -0.1270 -0.4882 -0.1430
 1138PF6-    F314634   1.703   4.341   3.878 -0.0794  0.2347 -0.2189
 1138PF6-    F414635   1.703   4.514   3.738 -0.6591  0.0100  0.2631
 1138PF6-    F514636   1.589   4.211   3.719 -0.0450 -0.5298  0.1743
 1138PF6-    F614637   1.787   4.319   3.665 -0.1160  0.4543  0.4911
 1138PF6-    F714638   1.514   4.415   3.809 -0.1995  0.0378 -0.5715
 1139PF6-    P114639   3.995   0.967   4.652 -0.2483 -0.4310 -0.0769
 1139PF6-    F214640   3.936   0.865   4.545  0.2559  0.2374 -0.4774
 1139PF6-    F314641   4.044   1.068   4.763  0.1822  0.4499  0.4005
 1139PF6-    F414642   3.857   1.051   4.636 -0.0097  0.4470  0.6940
 1139PF6-    F514643   4.127   0.875   4.663  0.3664  0.1173 -0.1096
 1139PF6-    F614644   4.058   1.059   4.536 -0.4183 -0.1619  0.4407
 1139PF6-    F714645   3.932   0.873   4.761 -0.2036 -0.0554  0.5288
 1140PF6-    P114646   1.645   5.018   0.856 -0.0428  0.0900 -0.2365
 1140PF6-    F214647   1.530   5.082   0.949  0.0822  0.5104 -0.4332
 1140PF6-    F314648   1.765   4.952   0.766  0.3435 -0.5126 -0.1683
 1140PF6-    F414649   1.714   4.972   0.992  0.0650 -0.0160 -0.6903
 1140PF6-    F514650   1.579   5.077   0.722 -0.4186  0.1317  0.4729
 1140PF6-    F614651   1.726   5.156   0.868  0.1063  0.0636  0.0084
 1140PF6-    F714652   1.559   4.885   0.850  0.5562 -0.1831  0.2491
 1141PF6-    P114653   4.144   4.281   0.560  0.1872  0.1233  0.1745
 1141PF6-    F214654   4.296   4.336   0.581  0.3398  0.3252  0.1844
 1141PF6-    F314655   3.993   4.243   0.536 -0.0105 -0.5163  0.3550
 1141PF6-    F414656   4.096   4.416   0.626  0.3826  0.4469  0.0315
 1141PF6-    F514657   4.188   4.143   0.493  0.3589 -0.1038 -0.0373
 1141PF6-    F614658   4.149   4.212   0.709  0.0850 -0.4897  0.2710
 1141PF6-    F714659   4.147   4.357   0.410  0.0780 -0.1760  0.3696
 1142PF6-    P114660   2.306   0.622   0.198  0.2727 -0.1052 -0.2564
 1142PF6-    F214661   2.282   0.475   0.135  0.0476 -0.0493 -0.5822
 1142PF6-    F314662   2.322   0.771   0.261 -0.2415 -0.3019  0.6871
 1142PF6-    F414663   2.252   0.702   0.066 -0.3051  0.3202 -0.1629
 1142PF6-    F514664   2.358   0.549   0.333  0.0757 -0.4698 -0.4853
 1142PF6-    F614665   2.457   0.620   0.145 -0.4260  0.2788 -0.3348
 1142PF6-    F714666   2.156   0.625   0.251  0.0489  0.0521 -0.0791
 1143PF6-    P114667   0.402   4.199   2.247 -0.1613 -0.6393  0.3748
 1143PF6-    F214668   0.539   4.242   2.179  0.2321  0.1424 -0.5442
 1143PF6-    F314669   0.266   4.139   2.316  0.6030 -0.4723 -0.1757
 1143PF6-    F414670   0.468   4.058   2.282 -0.1050 -0.5521  0.0732
 1143PF6-    F514671   0.336   4.339   2.221  0.1726  0.0081 -0.5641
 1143PF6-    F614672   0.353   4.145   2.106  0.0983 -0.0113  0.3558
 1143PF6-    F714673   0.456   4.260   2.387  0.1542 -0.4792  0.1529
 1144PF6-    P114674   3.353   4.855   2.845  0.1693 -0.1142 -0.2983
 1144PF6-    F214675   3.451   4.809   2.965 -0.0538  0.7757  0.4249
 1144PF6-    F314676   3.258   4.911   2.722 -0.2817  0.3887  0.4567
 1144PF6-    F414677   3.326   4.992   2.927  0.5631  0.1743 -0.0870
 1144PF6-    F514678   3.382   4.706   2.769 -0.4365 -0.4137 -0.1038
 1144PF6-    F614679   3.230   4.786   2.917 -0.6627  0.2993 -0.4694
 1144PF6-    F714680   3.479   4.918   2.776 -0.5249  0.2760 -0.2333
 1145PF6-    P114681   5.176   2.921   4.776 -0.2164  0.0527  0.1333
 1145PF6-    F214682   5.159   2.857   4.919 -0.3322  0.2453 -0.7811
 1145PF6-    F314683   5.181   2.984   4.627 -0.4800 -0.0188  0.0310
 1145PF6-    F414684   5.331   2.958   4.813  0.5823 -0.1028 -0.3581
 1145PF6-    F514685   5.028   2.878   4.739 -0.1734 -0.2008 -0.0471
 1145PF6-    F614686   5.123   3.067   4.834  0.0373  0.1047 -0.1881
 1145PF6-    F714687   5.230   2.781   4.718 -0.3810  0.2760 -0.2760
 1146PF6-    P114688   3.343   1.732   3.312 -0.5586  0.1760  0.0004
 1146PF6-    F214689   3.309   1.893   3.315  0.2876 -0.0100 -0.0400
 1146PF6-    F314690   3.372   1.577   3.294 -0.6005 -0.6545 -0.4709
 1146PF6-    F414691   3.468   1.760   3.221 -0.3428 -0.8303  0.5345
 1146PF6-    F514692   3.214   1.710   3.400 -0.0455 -0.3339 -0.1859
 1146PF6-    F614693   3.258   1.724   3.177 -0.2592  0.2017  0.3756
 1146PF6-    F714694   3.425   1.749   3.445  0.2540  0.1399 -0.4659
 1147PF6-    P114695   0.929   2.511   1.122 -0.5744  0.0189 -0.0819
 1147PF6-    F214696   0.886   2.367   1.069  0.0016 -0.7771  0.0900
 1147PF6-    F314697   0.969   2.648   1.186  0.1262 -0.1705  0.4166
 1147PF6-    F414698   0.795   2.504   1.214 -0.2966  0.2815 -0.5209
 1147PF6-    F514699   1.062   2.517   1.027 -0.5121  0.1685  0.0760
 1147PF6-    F614700   0.841   2.582   1.004 -0.2728 -0.0948  0.3493
 1147PF6-    F714701   1.020   2.442   1.237 -0.0559  0.1426 -0.0450
 1148PF6-    P114702   0.934   3.050   0.941  0.1275  0.3176 -0.2783
 1148PF6-    F214703   0.865   3.192   0.928 -0.5130 -0.5314  0.5574
 1148PF6-    F314704   1.004   2.905   0.960 -0.2136 -0.1606  0.4291
 1148PF6-    F414705   1.081   3.120   0.910 -0.2120  0.4826  0.2624
 1148PF6-    F514706   0.789   2.979   0.972 -0.5224 -0.4629 -0.4909
 1148PF6-    F614707   0.916   3.025   0.780  0.0328 -0.1033 -0.0398
 1148PF6-    F714708   0.951   3.076   1.098  1.0045  0.1382  0.1902
 1149PF6-    P114709   0.328   4.450   0.342  0.0543  0.1590  0.3728
 1149PF6-    F214710   0.355   4.455   0.497  0.0615 -0.0147 -0.0273
 1149PF6-    F314711   0.294   4.443   0.182  0.0314  0.1215  0.5376
 1149PF6-    F414712   0.239   4.576   0.359  0.1361 -0.4094  0.4235
 1149PF6-    F514713   0.426   4.321   0.330  0.7557 -0.3107 -0.3550
 1149PF6-    F614714   0.201   4.360   0.366 -0.5146  0.4740  0.0863
 1149PF6-    F714715   0.447   4.547   0.306 -0.2585  0.0686  0.2811
 1150PF6-    P114716   5.271   0.868   3.767 -0.3070 -0.3770 -0.0160
 1150PF6-    F214717   5.128   0.865   3.835  0.1261  0.5362 -0.2713
 1150PF6-    F314718   5.418   0.860   3.700  0.6909  0.0983  0.2619
 1150PF6-    F414719   5.210   0.929   3.637  0.5827  0.5150 -0.2003
 1150PF6-    F514720   5.334   0.805   3.898 -0.6108  0.3425  0.4836
 1150PF6-    F614721   5.246   0.720   3.713  0.5096 -0.5617  0.3160
 1150PF6-    F714722   5.309   1.013   3.818  0.5220  0.3968 -0.2752
 1151PF6-    P114723   3.511   2.562   2.586  0.4702  0.3603 -0.1706
 1151PF6-    F214724   3.466   2.410   2.555  0.0044  0.0101 -0.0535
 1151PF6-    F314725   3.562   2.716   2.622  0.9667  0.5319  0.1380
 1151PF6-    F414726   3.627   2.499   2.677 -0.0179 -0.2305 -0.4235
 1151PF6-    F514727   3.392   2.616   2.498  0.2438  0.7993  0.9453
 1151PF6-    F614728   3.421   2.562   2.723 -0.2213 -0.0022 -0.2353
 1151PF6-    F714729   3.607   2.556   2.459  0.0504  0.2274  0.1513
 1152PF6-    P114730   4.893   4.522   0.904  0.2926  0.3029 -0.6332
 1152PF6-    F214731   4.937   4.671   0.862 -0.3330  0.2505  0.0525
 1152PF6-    F314732   4.847   4.378   0.944  0.1967 -0.3059  0.6655
 1152PF6-    F414733   5.025   4.458   0.830 -0.1906 -0.3475 -0.3757
 1152PF6-    F514734   4.758   4.591   0.968 -0.1130  0.0687 -0.8448
 1152PF6-    F614735   4.813   4.510   0.764 -0.2631  0.3908  0.3079
 1152PF6-    F714736   4.969   4.539   1.042 -0.4111 -0.1795 -0.0642
 1153PF6-    P114737   2.840   3.082   0.628  0.2024 -0.2805  0.1486
 1153PF6-    F214738   2.744   3.175   0.536  0.6616  0.4462 -0.0391
 1153PF6-    F314739   2.936   2.999   0.717 -0.2228 -0.0433 -0.6634
 1153PF6-    F414740   2.709   3.026   0.697 -0.2083 -0.2928  0.3267
 1153PF6-    F514741   2.968   3.143   0.559 -0.1961  0.1830 -0.1649
 1153PF6-    F614742   2.845   3.201   0.737  0.2062  0.0964 -0.2801
 1153PF6-    F714743   2.835   2.966   0.516  0.3528  0.4366 -0.5090
 1154PF6-    P114744   2.952   5.290   2.732 -0.2641  0.0333  0.2401
 1154PF6-    F214745   2.930   5.156   2.811  0.2606  0.6971  0.0317
 1154PF6-    F314746   2.964   5.428   2.649  0.3841  0.2686 -0.0963
 1154PF6-    F414747   2.798   5.294   2.699 -0.1075  0.4421  0.4554
 1154PF6-    F514748   3.108   5.286   2.770  0.0377  0.0657  0.2726
 1154PF6-    F614749   2.980   5.198   2.604 -0.6104  0.2829 -0.2461
 1154PF6-    F714750   2.919   5.378   2.859 -0.2326 -0.1214 -0.5730
 1155PF6-    P114751   0.785   3.875   5.107 -0.4448 -0.3056  0.6145
 1155PF6-    F214752   0.647   3.955   5.096  0.1727  0.2075  0.0985
 1155PF6-    F314753   0.919   3.790   5.121 -0.0402 -0.0713  0.3276
 1155PF6-    F414754   0.710   3.742   5.080  0.4290 -0.2677  0.1272
 1155PF6-    F514755   0.877   4.005   5.130  0.5627  0.1564  0.4934
 1155PF6-    F614756   0.768   3.847   5.266  0.6020  0.0289  0.0902
 1155PF6-    F714757   0.806   3.897   4.953 -0.4183  0.0083  0.3045
 1156PF6-    P114758   3.025   4.894   3.914 -0.1795 -0.0445 -0.1458
 1156PF6-    F214759   3.051   4.770   3.813  0.5876 -0.0414 -0.4604
 1156PF6-    F314760   2.988   5.017   4.015  0.0824  0.6405  0.3808
 1156PF6-    F414761   3.079   4.992   3.803 -0.2354 -0.3301  0.3196
 1156PF6-    F514762   2.965   4.793   4.028  0.0318 -0.2952  0.2939
 1156PF6-    F614763   3.167   4.881   3.986 -0.0971  0.3222  0.1311
 1156PF6-    F714764   2.884   4.902   3.846 -0.0676  0.0411  0.2540
 1157PF6-    P114765   4.746   2.095   1.068 -0.0043 -0.2885  0.1135
 1157PF6-    F214766   4.669   2.149   0.940  0.4553  0.2237  0.1121
 1157PF6-    F314767   4.827   2.039   1.195  0.1246 -0.1914 -0.0821
 1157PF6-    F414768   4.732   2.237   1.143 -0.0404  0.2866 -0.0868
 1157PF6-    F514769   4.760   1.950   0.994 -0.2939 -0.3044  0.6689
 1157PF6-    F614770   4.883   2.141   1.007 -0.1480 -0.3366  0.2832
 1157PF6-    F714771   4.612   2.045   1.134  0.1091  0.4192 -0.3304
 1158PF6-    P114772   5.098   2.547   2.445 -0.4792 -0.6044  0.0158
 1158PF6-    F214773   4.998   2.662   2.458  0.0364 -0.0386 -0.0960
 1158PF6-    F314774   5.207   2.424   2.433 -0.1250  0.1340 -0.1987
 1158PF6-    F414775   5.133   2.556   2.599  0.2660  0.0694 -0.1217
 1158PF6-    F514776   5.056   2.539   2.290 -0.5657  0.0187  0.4460
 1158PF6-    F614777   5.212   2.660   2.413 -0.1539 -0.2072 -0.4729
 1158PF6-    F714778   4.988   2.444   2.486  0.4042  0.0246  0.0125
 1159PF6-    P114779   4.874   2.156   2.167 -0.0029  0.0979  0.4549
 1159PF6-    F214780   4.948   2.123   2.026 -0.3832  0.4762  0.3399
 1159PF6-    F314781   4.792   2.188   2.303 -0.4286  0.1259 -0.0023
 1159PF6-    F414782   4.775   2.027   2.142 -0.0081 -0.1863 -0.5694
 1159PF6-    F514783   4.974   2.280   2.186 -0.1894  0.1178 -0.9238
 1159PF6-    F614784   4.772   2.253   2.078  0.1593 -0.4350  0.0081
 1159PF6-    F714785   4.977   2.060   2.243  0.7176 -0.2865 -0.0647
 1160PF6-    P114786   3.991   5.017   1.594  0.6959  0.0293  0.0694
 1160PF6-    F214787   3.986   5.024   1.430  0.1248 -0.0771  0.1592
 1160PF6-    F314788   4.001   5.006   1.757 -0.1961  0.4734  0.3622
 1160PF6-    F414789   3.848   5.083   1.604  0.1073  0.1309 -0.2374
 1160PF6-    F514790   4.134   4.948   1.591 -0.1991 -0.4402 -0.1166
 1160PF6-    F614791   4.059   5.160   1.595  0.3118  0.6990  0.1581
 1160PF6-    F714792   3.925   4.869   1.588  0.3885  0.7640  0.0212
 1161PF6-    P114793   3.158   1.528   2.369  0.2435  0.2940 -0.2352
 1161PF6-    F214794   3.129   1.377   2.391  0.2604 -0.2069 -0.0934
 1161PF6-    F314795   3.189   1.680   2.354 -0.5340 -0.1340 -0.2605
 1161PF6-    F414796   3.203   1.542   2.523 -0.3020  0.6279  0.1918
 1161PF6-    F514797   3.120   1.514   2.215  0.1670  0.2895  0.0802
 1161PF6-    F614798   3.003   1.567   2.403  0.1564  0.3353  0.0144
 1161PF6-    F714799   3.307   1.492   2.332 -0.1588  0.1231  0.3400
 1162PF6-    P114800   3.167   1.752   0.125  0.0368 -0.3663 -0.3268
 1162PF6-    F214801   3.120   1.601   0.101 -0.6077  0.2340 -0.3688
 1162PF6-    F314802   3.210   1.899   0.148 -0.1703 -0.0680 -0.0010
 1162PF6-    F414803   3.283   1.706   0.225 -0.1382  0.3547 -0.2423
 1162PF6-    F514804   3.050   1.794   0.030 -0.1755 -0.4578 -0.1219
 1162PF6-    F614805   3.068   1.770   0.249 -0.0217 -0.2553  0.1735
 1162PF6-    F714806   3.264   1.748  -0.004  0.4392  0.1058  0.1189
 1163PF6-    P114807   0.868   4.481   0.153 -0.0037  0.1718  0.5268
 1163PF6-    F214808   0.978   4.585   0.201  0.1796 -0.2942 -0.3927
 1163PF6-    F314809   0.757   4.370   0.105  0.0824 -0.2365  0.1081
 1163PF6-    F414810   0.902   4.387   0.273  0.3343 -0.1265 -0.2285
 1163PF6-    F514811   0.834   4.569   0.019 -0.6195  0.6752  0.2437
 1163PF6-    F614812   0.986   4.412   0.064 -0.0003 -0.2800 -0.1258
 1163PF6-    F714813   0.753   4.550   0.239 -0.5433  0.5099 -0.0330
 1164PF6-    P114814   3.132   4.771   5.268 -0.1912 -0.6599 -0.4248
 1164PF6-    F214815   2.978   4.798   5.278  0.3149  0.5745 -0.2041
 1164PF6-    F314816   3.287   4.735   5.257  0.3436  0.4012  0.0630
 1164PF6-    F414817   3.158   4.922   5.241 -0.2725 -0.0230 -0.2276
 1164PF6-    F514818   3.103   4.618   5.303 -0.4507 -0.5146  0.0519
 1164PF6-    F614819   3.117   4.737   5.114 -0.2594 -0.5163  0.6994
 1164PF6-    F714820   3.147   4.800   5.430 -0.2583 -0.7918 -0.0531
 1165PF6-    P114821   1.962   1.638   3.113  0.4003 -0.0770 -0.0757
 1165PF6-    F214822   1.830   1.713   3.167 -0.2328 -0.1514  1.2965
 1165PF6-    F314823   2.088   1.559   3.063 -0.1907 -0.3476 -0.3531
 1165PF6-    F414824   1.946   1.707   2.971 -0.4969  0.0050 -0.0652
 1165PF6-    F514825   1.974   1.567   3.253  0.3516  0.3487  0.5936
 1165PF6-    F614826   1.860   1.520   3.060  0.2447 -0.6638 -0.3755
 1165PF6-    F714827   2.058   1.762   3.161 -0.0677 -0.7579  0.0260
 1166PF6-    P114828   0.812   4.834   3.787  0.7260  0.1590  0.0166
 1166PF6-    F214829   0.808   4.980   3.715  0.1483  0.3422 -0.3503
 1166PF6-    F314830   0.803   4.688   3.855  0.2724  0.0866 -0.2884
 1166PF6-    F414831   0.896   4.888   3.914  0.0702  0.0374  0.2689
 1166PF6-    F514832   0.735   4.768   3.658 -0.2675  0.0358 -0.0707
 1166PF6-    F614833   0.953   4.796   3.726  0.3970  0.0518 -0.9019
 1166PF6-    F714834   0.676   4.874   3.862 -0.0673 -0.3526 -0.0423
 1167PF6-    P114835   3.265   1.840   1.955  0.1015 -0.6608  0.4270
 1167PF6-    F214836   3.294   1.814   2.111  0.5926 -0.5775 -0.2674
 1167PF6-    F314837   3.247   1.877   1.799  0.1639  0.3971  0.5340
 1167PF6-    F414838   3.323   1.989   1.976  0.5252 -0.3115 -0.8293
 1167PF6-    F514839   3.202   1.695   1.937  0.2582 -0.3513 -0.8180
 1167PF6-    F614840   3.120   1.901   1.989 -0.0848  0.1564  0.1189
 1167PF6-    F714841   3.409   1.779   1.925 -0.3350  0.0692  0.1070
 1168PF6-    P114842   5.106   3.342   1.888  0.1118  0.2908 -0.1073
 1168PF6-    F214843   5.024   3.447   1.974  0.3222 -0.5086 -0.1288
 1168PF6-    F314844   5.185   3.241   1.792  0.2264 -0.0475  0.0262
 1168PF6-    F414845   5.118   3.241   2.012  0.2244  0.3508  0.8014
 1168PF6-    F514846   5.081   3.437   1.763 -0.7158  0.0917 -0.1357
 1168PF6-    F614847   5.245   3.411   1.926  0.0868  0.0786  0.1646
 1168PF6-    F714848   4.972   3.264   1.846  0.9225 -0.2408  0.0190
 1169PF6-    P114849   4.175   4.541   2.701  0.4249 -0.3716 -0.0007
 1169PF6-    F214850   4.255   4.655   2.630 -0.1698  0.1010 -0.3520
 1169PF6-    F314851   4.096   4.419   2.761  0.1665 -0.3472 -0.0415
 1169PF6-    F414852   4.084   4.538   2.567  0.3970  0.2786  0.3621
 1169PF6-    F514853   4.265   4.548   2.829  0.5591  0.2672 -0.7751
 1169PF6-    F614854   4.076   4.640   2.776  0.4063 -0.0056 -0.4995
 1169PF6-    F714855   4.277   4.441   2.631  0.1527  0.4609  0.4970
 1170PF6-    P114856   3.866   2.654   1.801  0.5879 -0.1499 -0.0676
 1170PF6-    F214857   3.760   2.585   1.693 -0.2840 -0.5028  0.1437
 1170PF6-    F314858   3.972   2.722   1.896 -0.3209  0.3460  0.1367
 1170PF6-    F414859   3.905   2.766   1.689 -0.1459 -0.3621 -0.0695
 1170PF6-    F514860   3.824   2.541   1.908 -0.3740 -0.3968 -0.0503
 1170PF6-    F614861   3.984   2.561   1.747  0.3677 -0.5756  0.0481
 1170PF6-    F714862   3.752   2.754   1.855  0.0498 -0.0226  0.4257
 1171PF6-    P114863   1.814   4.885   2.137  0.1700 -0.2321 -0.0165
 1171PF6-    F214864   1.847   4.731   2.124  0.3982  0.0997 -0.6324
 1171PF6-    F314865   1.778   5.040   2.152 -0.6570  0.1401 -0.0379
 1171PF6-    F414866   1.679   4.860   2.052 -0.1594 -0.2786  0.0632
 1171PF6-    F514867   1.948   4.919   2.222  0.3606  0.3103 -0.2937
 1171PF6-    F614868   1.891   4.920   2.001  0.6602  0.0798 -0.1671
 1171PF6-    F714869   1.741   4.849   2.277  0.4979  0.4192 -0.0698
 1172PF6-    P114870   3.006   0.690   2.139 -0.0430  0.0007  0.2763
 1172PF6-    F214871   3.151   0.673   2.079  0.0433  0.0512 -0.3376
 1172PF6-    F314872   2.852   0.705   2.191 -0.0083  0.9354  0.3107
 1172PF6-    F414873   3.051   0.653   2.288 -0.3481  0.2115 -0.3022
 1172PF6-    F514874   2.959   0.728   1.987  0.0106  0.5251 -0.2253
 1172PF6-    F614875   2.977   0.533   2.109  0.8262 -0.1596 -0.5515
 1172PF6-    F714876   3.038   0.848   2.167  0.2215 -0.2599  0.4399
 1173PF6-    P114877   0.056   0.551   4.244 -0.1991 -0.1142  0.2541
 1173PF6-    F214878   0.194   0.509   4.305 -0.2404 -0.0589  0.0859
 1173PF6-    F314879  -0.086   0.591   4.176 -0.1077 -0.3725 -0.1582
 1173PF6-    F414880  -0.011   0.424   4.317 -0.4445 -0.1934 -0.4944
 1173PF6-    F514881   0.130   0.680   4.179 -0.5148 -0.4312  0.7797
 1173PF6-    F614882   0.082   0.465   4.111 -0.0952 -0.3931 -0.0044
 1173PF6-    F714883   0.023   0.650   4.365  0.0682  0.5192  0.2907
 1174PF6-    P114884   3.401   5.099   0.688  0.2036 -0.3587  0.1309
 1174PF6-    F214885   3.435   5.226   0.592  0.3642 -0.3476  0.4440
 1174PF6-    F314886   3.367   4.972   0.775 -0.1033  0.0169 -0.0749
 1174PF6-    F414887   3.325   5.188   0.800  0.0375 -0.2656 -0.2279
 1174PF6-    F514888   3.475   4.997   0.588  0.4983  0.3441  0.3612
 1174PF6-    F614889   3.541   5.117   0.765 -0.3623 -0.4353 -0.0278
 1174PF6-    F714890   3.266   5.085   0.608  0.3521  0.1717  0.1317
 1175PF6-    P114891   1.594   2.170   3.333 -0.0592  0.2405 -0.2195
 1175PF6-    F214892   1.601   2.197   3.177 -0.9476 -0.5477 -0.4040
 1175PF6-    F314893   1.587   2.147   3.491  0.4273  0.2658 -0.2027
 1175PF6-    F414894   1.587   2.014   3.306  0.2024  0.1285 -0.0093
 1175PF6-    F514895   1.611   2.324   3.352  0.1236  0.8928 -0.1235
 1175PF6-    F614896   1.433   2.182   3.333  0.2246 -0.5138 -0.1874
 1175PF6-    F714897   1.748   2.158   3.342  0.1356 -0.0333 -0.2125
 1176PF6-    P114898   3.142   0.933   3.840  0.1683 -0.2893  0.0442
 1176PF6-    F214899   3.276   0.858   3.804 -0.3394 -0.0232  0.6055
 1176PF6-    F314900   3.010   1.006   3.870  0.1986 -0.1702 -0.4541
 1176PF6-    F414901   3.165   0.901   3.999 -0.4384 -0.1979  0.0524
 1176PF6-    F514902   3.125   0.965   3.686  0.0888 -0.0048 -0.4231
 1176PF6-    F614903   3.061   0.790   3.828  0.0012  0.1705 -0.2500
 1176PF6-    F714904   3.228   1.063   3.855 -0.4808 -0.8223  0.0771
 1177PF6-    P114905   4.663   0.466   1.850 -0.1528  0.3154  0.0562
 1177PF6-    F214906   4.516   0.422   1.805 -0.1268 -0.2895  0.3214
 1177PF6-    F314907   4.810   0.513   1.890 -0.5108  0.2587  0.0251
 1177PF6-    F414908   4.657   0.585   1.745 -0.1857 -0.0243 -0.2604
 1177PF6-    F514909   4.676   0.348   1.957 -0.0705 -0.7842 -0.4538
 1177PF6-    F614910   4.715   0.372   1.733 -0.3836 -0.0134 -0.5275
 1177PF6-    F714911   4.603   0.561   1.962 -0.3700 -0.2851  0.0852
 1178PF6-    P114912   3.686   3.459   0.952 -0.0090 -0.3862  0.2508
 1178PF6-    F214913   3.756   3.597   0.999 -0.1185 -0.2632 -0.5416
 1178PF6-    F314914   3.616   3.324   0.905  0.5351 -0.2264  0.2072
 1178PF6-    F414915   3.811   3.374   0.998  0.5769 -0.1264  0.1542
 1178PF6-    F514916   3.551   3.539   0.907  0.1583 -0.2637 -0.0181
 1178PF6-    F614917   3.743   3.474   0.808 -0.3817 -0.2424 -0.4738
 1178PF6-    F714918   3.625   3.439   1.098 -0.0186 -0.4824  0.0611
 1179PF6-    P114919   2.232   1.508   4.779  0.3716  0.3170 -0.0389
 1179PF6-    F214920   2.142   1.411   4.693  0.0755  0.0097 -0.2427
 1179PF6-    F314921   2.320   1.613   4.859  0.2142  0.0142  0.1361
 1179PF6-    F414922   2.172   1.627   4.693  0.1057  0.0059 -0.3666
 1179PF6-    F514923   2.297   1.389   4.862 -0.0560 -0.1977  0.1113
 1179PF6-    F614924   2.351   1.486   4.673 -0.4978  0.4326 -0.3967
 1179PF6-    F714925   2.115   1.524   4.881  0.0598  0.0559 -0.7380
 1180PF6-    P114926   2.595   2.791   2.681  0.3062  0.0115 -0.1389
 1180PF6-    F214927   2.567   2.702   2.555  0.3330 -0.3054 -0.0456
 1180PF6-    F314928   2.639   2.878   2.810  0.5062 -0.0628  0.1770
 1180PF6-    F414929   2.701   2.680   2.722  0.1053  0.2593 -0.6439
 1180PF6-    F514930   2.488   2.895   2.634 -0.2561 -0.3312 -0.3351
 1180PF6-    F614931   2.486   2.709   2.762  0.0134  0.7259 -0.2347
 1180PF6-    F714932   2.706   2.868   2.598 -0.6525 -0.0618  0.2257
 1181PF6-    P114933   3.616   4.217   3.400  0.3296 -0.0215 -0.1924
 1181PF6-    F214934   3.684   4.082   3.336  0.1820 -0.6723  0.0923
 1181PF6-    F314935   3.544   4.346   3.454 -0.3882 -0.4886  0.2924
 1181PF6-    F414936   3.607   4.280   3.250  0.4167  0.1167 -0.2938
 1181PF6-    F514937   3.627   4.153   3.550 -0.0712  0.0599 -0.1669
 1181PF6-    F614938   3.756   4.283   3.421  0.6668  0.3058 -0.1360
 1181PF6-    F714939   3.472   4.148   3.376 -0.0626  0.6927 -0.2513
 1182PF6-    P114940   3.930   5.339   2.296 -0.3419  1.0176 -0.5850
 1182PF6-    F214941   3.984   5.270   2.429  0.4049  0.2154  0.0315
 1182PF6-    F314942   3.887   5.412   2.157  0.4982 -0.3134 -0.3211
 1182PF6-    F414943   4.056   5.268   2.221  0.1239  0.1480 -0.1715
 1182PF6-    F514944   3.808   5.409   2.370  0.0935 -0.1963  0.1634
 1182PF6-    F614945   4.025   5.466   2.324  0.0160  0.5909  0.0771
 1182PF6-    F714946   3.843   5.207   2.263 -0.4264 -0.2796 -0.3520
 1183PF6-    P114947   3.811   4.589   1.841  0.2324  0.1750  0.3116
 1183PF6-    F214948   3.865   4.542   1.978  0.4120 -0.1274 -0.4871
 1183PF6-    F314949   3.758   4.636   1.699  0.0467  0.5527  0.5263
 1183PF6-    F414950   3.907   4.717   1.862 -0.2749  0.3681 -0.4164
 1183PF6-    F514951   3.729   4.450   1.823  1.0491 -0.0784 -0.0182
 1183PF6-    F614952   3.694   4.666   1.909  0.1999  0.0675  0.2763
 1183PF6-    F714953   3.934   4.516   1.762  0.1479 -0.1638 -0.1847
 1184PF6-    P114954   3.383   3.787   1.219 -0.3674 -0.1119 -0.1832
 1184PF6-    F214955   3.470   3.669   1.285  0.1847 -0.1882  0.0071
 1184PF6-    F314956   3.306   3.907   1.157 -0.4254 -0.0328  0.2342
 1184PF6-    F414957   3.249   3.723   1.287  0.0882  0.0895  0.4312
 1184PF6-    F514958   3.522   3.847   1.152 -0.3045  0.5304  0.0366
 1184PF6-    F614959   3.355   3.701   1.088  0.4105 -0.0748  0.9403
 1184PF6-    F714960   3.407   3.875   1.349  0.6787  0.8069 -0.5423
 1185PF6-    P114961   3.812   0.385   4.813 -0.2294  0.1627 -0.1185
 1185PF6-    F214962   3.694   0.280   4.821 -0.4615 -0.9828  0.1659
 1185PF6-    F314963   3.934   0.488   4.806 -0.7529  0.4888  0.4663
 1185PF6-    F414964   3.717   0.498   4.871  0.4776 -0.3571 -0.0882
 1185PF6-    F514965   3.905   0.270   4.748  0.2716 -0.2323  1.1045
 1185PF6-    F614966   3.767   0.426   4.661  0.1241 -0.3430 -0.1960
 1185PF6-    F714967   3.852   0.333   4.967  0.0720 -0.7309  0.3307
 1186PF6-    P114968   1.446   2.268   2.094 -0.3050  0.2947  0.1339
 1186PF6-    F214969   1.513   2.133   2.149  0.1500 -0.4973  0.2087
 1186PF6-    F314970   1.386   2.406   2.047 -0.3463 -0.4385 -0.0829
 1186PF6-    F414971   1.414   2.196   1.959  0.0910 -0.0745 -0.4100
 1186PF6-    F514972   1.486   2.341   2.231 -0.4302 -0.6008 -0.2103
 1186PF6-    F614973   1.588   2.311   2.036 -0.1403  0.3257  0.1221
 1186PF6-    F714974   1.304   2.223   2.159  0.7870  0.1989  0.2678
 1187PF6-    P114975   0.071   5.136   0.749 -0.1175  0.4984 -0.1437
 1187PF6-    F214976   0.167   5.249   0.813 -0.0343  0.0744  0.1577
 1187PF6-    F314977  -0.027   5.022   0.691 -0.4245 -0.5608 -0.6616
 1187PF6-    F414978   0.003   5.236   0.646  0.1240 -0.5723 -0.3072
 1187PF6-    F514979   0.144   5.031   0.844 -0.0222 -0.0227  0.1322
 1187PF6-    F614980  -0.039   5.169   0.860 -0.4198  0.3146  0.1072
 1187PF6-    F714981   0.182   5.103   0.635 -0.1848  0.1951 -0.5039
 1188PF6-    P114982   1.594   4.214   2.675 -0.1824  0.3059 -0.1243
 1188PF6-    F214983   1.699   4.325   2.630  0.5415  0.5533  0.1112
 1188PF6-    F314984   1.494   4.096   2.719 -0.1704  0.8352 -0.5592
 1188PF6-    F414985   1.591   4.169   2.528  0.1124  0.1177  0.0736
 1188PF6-    F514986   1.596   4.269   2.823 -0.3350 -0.0167  0.0266
 1188PF6-    F614987   1.469   4.310   2.644 -0.3780  0.5353 -0.4610
 1188PF6-    F714988   1.717   4.115   2.703  0.2289 -0.4772 -0.6506
 1189PF6-    P114989   2.820   2.000   2.377  0.2113  0.0198 -0.3477
 1189PF6-    F214990   2.872   1.992   2.223 -0.0390  0.1168 -0.5920
 1189PF6-    F314991   2.772   2.011   2.529 -0.0076 -0.1024 -0.5373
 1189PF6-    F414992   2.857   2.161   2.382 -0.2350 -0.1727  0.0489
 1189PF6-    F514993   2.783   1.842   2.381 -0.1336  0.2177 -0.3512
 1189PF6-    F614994   2.967   1.958   2.427  0.1564 -0.5108 -0.3717
 1189PF6-    F714995   2.680   2.029   2.324 -0.4238 -0.0518  0.6146
 1190PF6-    P114996   4.118   0.021   4.082 -0.0799 -0.3186  0.0818
 1190PF6-    F214997   4.255  -0.025   4.161  0.5646 -0.0165 -0.3415
 1190PF6-    F314998   3.981   0.064   4.016 -0.1261  0.7222 -0.1400
 1190PF6-    F414999   4.030   0.022   4.219 -0.8935 -0.3056  0.1706
 1190PF6-    F515000   4.192   0.033   3.941 -0.0682  0.1517  0.1194
 1190PF6-    F615001   4.083  -0.125   4.050 -0.0306 -0.0205 -0.1724
 1190PF6-    F715002   4.155   0.176   4.111  0.0734 -0.2933 -0.0415
 1191PF6-    P115003   1.988   4.193   1.672  0.1596  0.4553 -0.5347
 1191PF6-    F215004   1.930   4.246   1.810 -0.1324  0.8627 -0.0637
 1191PF6-    F315005   2.049   4.148   1.532 -0.2193 -0.4028 -0.3675
 1191PF6-    F415006   1.845   4.226   1.603  0.3384  0.4097 -0.0398
 1191PF6-    F515007   2.128   4.153   1.741  0.0873 -0.2025  0.0139
 1191PF6-    F615008   1.938   4.042   1.708 -0.3821 -0.1658  0.1485
 1191PF6-    F715009   2.036   4.341   1.645 -0.1699  0.3253 -0.5222
 1192PF6-    P115010   4.627   0.604   3.668  0.4248  0.1521  0.0204
 1192PF6-    F215011   4.777   0.647   3.707  0.7095 -0.2523  0.1521
 1192PF6-    F315012   4.484   0.581   3.616  0.0158 -0.7656 -0.4178
 1192PF6-    F415013   4.659   0.451   3.683 -0.1406 -0.2493 -0.1097
 1192PF6-    F515014   4.601   0.763   3.643 -0.3633 -0.5439  0.2166
 1192PF6-    F615015   4.672   0.593   3.514  0.6647  0.3308  0.3559
 1192PF6-    F715016   4.578   0.622   3.819 -0.1922 -0.5260 -0.2459
 1193PF6-    P115017   2.461   2.492   5.157  0.1285  0.4495  0.2309
 1193PF6-    F215018   2.502   2.340   5.191 -0.7923  0.3473 -0.2518
 1193PF6-    F315019   2.418   2.638   5.111 -0.1109 -0.0886 -0.4948
 1193PF6-    F415020   2.328   2.436   5.079  0.3887  0.2219 -0.3504
 1193PF6-    F515021   2.584   2.548   5.238  0.0295  0.1997 -0.0042
 1193PF6-    F615022   2.548   2.482   5.020  0.4313 -0.4254  0.0302
 1193PF6-    F715023   2.376   2.506   5.297 -0.2057  0.2447  0.5044
 1194PF6-    P115024   3.130   0.538   5.474  0.6204 -0.1787 -0.1792
 1194PF6-    F215025   2.975   0.509   5.512 -0.2468  0.4026 -0.3690
 1194PF6-    F315026   3.289   0.562   5.437  0.1195  0.3422 -0.4374
 1194PF6-    F415027   3.165   0.400   5.556 -0.5189 -0.5525 -0.1910
 1194PF6-    F515028   3.087   0.672   5.393  0.3664 -0.3161  0.3526
 1194PF6-    F615029   3.146   0.621   5.612 -0.1302 -0.5869  0.3370
 1194PF6-    F715030   3.108   0.452   5.340 -0.2091 -0.4163  0.5268
 1195PF6-    P115031   2.676   2.962   5.023  0.4764 -0.0106 -0.0100
 1195PF6-    F215032   2.648   2.868   4.896  0.1566  0.2314 -0.3269
 1195PF6-    F315033   2.700   3.051   5.154 -0.1077  0.4849  0.0795
 1195PF6-    F415034   2.611   3.088   4.947  0.0448 -0.0378  0.1557
 1195PF6-    F515035   2.747   2.841   5.098  0.8559  0.1811 -0.5689
 1195PF6-    F615036   2.824   3.005   4.974 -0.0669 -0.0886 -0.4960
 1195PF6-    F715037   2.540   2.921   5.086  0.2665  0.3473  0.3207
 1196PF6-    P115038   2.903   4.043   4.739 -0.0140  0.1053 -0.0708
 1196PF6-    F215039   2.935   3.994   4.888 -0.1060  0.3289  0.3678
 1196PF6-    F315040   2.866   4.095   4.587  0.2026  0.1707 -0.3675
 1196PF6-    F415041   2.857   4.188   4.793  0.0937  0.6013  0.1770
 1196PF6-    F515042   2.943   3.902   4.681 -0.1915  0.2939  0.5511
 1196PF6-    F615043   2.753   3.989   4.753  0.0299  0.5905 -0.2273
 1196PF6-    F715044   3.056   4.096   4.728 -0.0927  0.3132 -0.3450
 1197PF6-    P115045   4.400   5.464   2.943 -0.3048  0.2264 -0.0172
 1197PF6-    F215046   4.477   5.466   3.080  0.0157 -0.0371  0.8792
 1197PF6-    F315047   4.323   5.469   2.800  0.0120  0.4500 -1.0632
 1197PF6-    F415048   4.453   5.615   2.919  0.6231  0.2269 -0.0883
 1197PF6-    F515049   4.361   5.314   2.965  0.0108 -0.5189 -0.1765
 1197PF6-    F615050   4.267   5.513   3.014 -0.4953  0.3359  0.2915
 1197PF6-    F715051   4.528   5.407   2.865  0.4983 -0.1686  0.0229
 1198PF6-    P115052   1.710   0.804   1.663  0.3612 -0.1298 -0.2277
 1198PF6-    F215053   1.605   0.686   1.691 -0.3929 -0.2070 -0.1230
 1198PF6-    F315054   1.813   0.921   1.639 -0.4906  0.0773  0.0590
 1198PF6-    F415055   1.802   0.710   1.569  0.1010 -0.2620 -0.5122
 1198PF6-    F515056   1.629   0.905   1.753  0.0354 -0.1035 -0.2214
 1198PF6-    F615057   1.792   0.763   1.792  0.0160 -0.1751  0.8544
 1198PF6-    F715058   1.617   0.842   1.534  0.4768 -0.5561  0.2869
 1199PF6-    P115059   5.433   3.051   5.313  0.3443  0.4290 -0.4378
 1199PF6-    F215060   5.373   2.914   5.260 -0.3177  0.3631  0.1820
 1199PF6-    F315061   5.488   3.195   5.362 -0.1513 -0.1386 -0.2065
 1199PF6-    F415062   5.502   3.081   5.170 -0.3901 -0.4447 -0.0811
 1199PF6-    F515063   5.355   3.026   5.455 -0.3102 -0.1309 -0.5156
 1199PF6-    F615064   5.566   2.980   5.372 -0.4635 -0.2330 -0.4795
 1199PF6-    F715065   5.298   3.119   5.266  0.6085  0.1111  0.4172
 1200PF6-    P115066   4.486   3.649   0.460  0.2506 -0.0814  0.0674
 1200PF6-    F215067   4.525   3.510   0.528 -0.6608 -0.3615  0.5410
 1200PF6-    F315068   4.440   3.785   0.391  0.2512  0.4194  0.1764
 1200PF6-    F415069   4.475   3.723   0.602 -0.4916 -0.2659  0.1219
 1200PF6-    F515070   4.483   3.577   0.320 -0.4793 -0.2804 -0.4216
 1200PF6-    F615071   4.336   3.598   0.474 -0.1308 -0.7808  0.1374
 1200PF6-    F715072   4.644   3.684   0.443  0.2422 -0.0978 -0.3011
 1201PF6-    P115073   4.971   2.970   5.219  0.2681  0.5239 -0.3481
 1201PF6-    F215074   5.060   3.081   5.137  0.6658  0.3562 -0.3341
 1201PF6-    F315075   4.883   2.860   5.292 -0.0201 -0.0413 -0.0676
 1201PF6-    F415076   5.098   2.867   5.223 -0.2751  0.9091 -0.4293
 1201PF6-    F515077   4.849   3.063   5.216 -0.2326  0.3037  0.1815
 1201PF6-    F615078   4.922   2.921   5.080  0.4191  0.8169 -0.3132
 1201PF6-    F715079   5.018   3.028   5.363  0.5281 -0.5390  0.1956
 1202PF6-    P115080   4.922   3.579   2.385 -0.5194 -0.1304 -0.0830
 1202PF6-    F215081   4.960   3.456   2.480 -0.6885 -0.2388 -0.2015
 1202PF6-    F315082   4.880   3.713   2.301 -0.1861  0.5912  0.3555
 1202PF6-    F415083   4.797   3.493   2.326 -0.1097  0.7245  0.4158
 1202PF6-    F515084   5.056   3.654   2.435 -0.8991  0.2356  0.5606
 1202PF6-    F615085   5.011   3.519   2.265 -0.0826 -0.0564 -0.1056
 1202PF6-    F715086   4.831   3.629   2.510  0.4656 -0.1785 -0.5585
 1203PF6-    P115087   0.210   1.416   0.399  0.2190  0.1864  0.5181
 1203PF6-    F215088   0.125   1.404   0.264  0.3065 -0.2368 -0.0705
 1203PF6-    F315089   0.303   1.433   0.531 -0.0093 -0.7370  0.5286
 1203PF6-    F415090   0.237   1.568   0.369  0.1700  0.0580  0.4928
 1203PF6-    F515091   0.184   1.263   0.429 -0.0073  0.4493 -0.0556
 1203PF6-    F615092   0.344   1.384   0.325  0.6266 -0.1173 -0.4178
 1203PF6-    F715093   0.075   1.448   0.477 -0.5632  0.0831  0.5977
 1204PF6-    P115094   4.621   1.229   2.062  0.1205  0.2855 -0.3146
 1204PF6-    F215095   4.466   1.208   2.090  0.0146  0.8561  0.3134
 1204PF6-    F315096   4.776   1.249   2.040  0.0947  0.0787  0.2343
 1204PF6-    F415097   4.641   1.248   2.218  0.1754 -0.0734 -0.0848
 1204PF6-    F515098   4.584   1.206   1.904  0.8958 -0.0512  0.1268
 1204PF6-    F615099   4.598   1.385   2.049  0.4084  0.4174 -0.5591
 1204PF6-    F715100   4.644   1.071   2.064 -0.7789 -0.4737 -0.3979
 1205PF6-    P115101   0.994   4.459   4.655 -0.2682 -0.2354  0.1259
 1205PF6-    F215102   0.986   4.330   4.749 -1.0311  0.4336  0.0594
 1205PF6-    F315103   1.005   4.594   4.565 -0.7174  0.5748 -0.2063
 1205PF6-    F415104   0.833   4.456   4.640 -0.1988 -0.1519  0.1441
 1205PF6-    F515105   1.152   4.461   4.674  0.0434 -0.5004 -0.2501
 1205PF6-    F615106   1.010   4.362   4.521  0.6966 -0.5667 -0.0364
 1205PF6-    F715107   0.976   4.553   4.782  0.1575  0.1936 -0.4068
 1206PF6-    P115108   4.963   3.413   5.046  0.1702  0.4983  0.1468
 1206PF6-    F215109   5.039   3.552   5.080  0.1382  0.0660  0.6294
 1206PF6-    F315110   4.894   3.273   5.010  0.1623  0.1815 -0.1326
 1206PF6-    F415111   4.929   3.473   4.903  0.5697 -0.5550  0.2640
 1206PF6-    F515112   5.010   3.354   5.189  0.2146  0.2394 -0.5190
 1206PF6-    F615113   4.821   3.465   5.104  0.2884  0.0742  0.8574
 1206PF6-    F715114   5.102   3.359   4.985  0.0988  0.0327  0.4287
 1207PF6-    P115115   4.376   2.217   0.443  0.2142  0.2506 -0.1142
 1207PF6-    F215116   4.233   2.261   0.490  0.0291  0.4031 -0.7033
 1207PF6-    F315117   4.521   2.170   0.398 -0.1961 -0.1037  0.6205
 1207PF6-    F415118   4.313   2.092   0.371  0.5031  0.3652  0.0924
 1207PF6-    F515119   4.449   2.338   0.510  0.5389 -0.8733  0.0451
 1207PF6-    F615120   4.392   2.135   0.584 -0.6640 -0.2916  0.4604
 1207PF6-    F715121   4.361   2.298   0.307 -0.8035  0.4969 -0.1071
 1208PF6-    P115122   5.152   0.359   5.158  0.3702  0.1118  0.1798
 1208PF6-    F215123   5.208   0.371   5.311  0.3948  0.6738 -0.1725
 1208PF6-    F315124   5.102   0.342   5.007 -0.2444  0.1344  0.1521
 1208PF6-    F415125   5.125   0.520   5.154 -0.6750 -0.7830 -0.0149
 1208PF6-    F515126   5.173   0.199   5.168  0.6306  0.3716 -0.2701
 1208PF6-    F615127   4.998   0.341   5.203  0.4512 -0.1541  0.1702
 1208PF6-    F715128   5.299   0.387   5.109 -0.2018 -0.1649 -0.1910
 1209PF6-    P115129   1.652   2.750   4.841  0.0750  0.1673  0.5549
 1209PF6-    F215130   1.628   2.719   4.686 -0.2291 -0.0498 -0.1396
 1209PF6-    F315131   1.676   2.787   4.992  0.7571  0.3871  0.6048
 1209PF6-    F415132   1.785   2.673   4.841 -0.0365 -0.3680  0.4371
 1209PF6-    F515133   1.511   2.836   4.846  0.1168 -0.4680  0.3273
 1209PF6-    F615134   1.576   2.612   4.884  0.2561 -0.0522  0.1848
 1209PF6-    F715135   1.735   2.883   4.802  0.2686 -0.2373 -0.2767
 1210PF6-    P115136   5.211   1.569   5.182  0.1609 -0.4897 -0.1544
 1210PF6-    F215137   5.182   1.674   5.068  0.3082  0.0979 -0.0764
 1210PF6-    F315138   5.239   1.455   5.293 -0.0235 -0.0011  0.4077
 1210PF6-    F415139   5.235   1.691   5.287  0.8006  0.0069 -0.1172
 1210PF6-    F515140   5.180   1.454   5.068  0.1780 -0.3333  0.1143
 1210PF6-    F615141   5.363   1.577   5.136 -0.4738 -0.3544 -0.0801
 1210PF6-    F715142   5.054   1.562   5.231 -0.0597 -0.3690 -0.3567
 1211PF6-    P115143   1.350   2.009   5.233  0.0681  0.0111 -0.2646
 1211PF6-    F215144   1.211   2.030   5.309  0.0401 -1.2369 -0.0356
 1211PF6-    F315145   1.490   1.984   5.156 -0.6088 -0.4782 -0.3680
 1211PF6-    F415146   1.348   1.860   5.288 -0.1951 -0.3981  0.0701
 1211PF6-    F515147   1.355   2.160   5.188  0.0278  0.1344  0.4007
 1211PF6-    F615148   1.422   2.053   5.366 -0.1394 -0.1077 -0.5212
 1211PF6-    F715149   1.274   1.965   5.105 -0.2278 -0.4475 -0.4386
 1212PF6-    P115150   4.928   1.227   5.428 -0.0046  0.5008 -0.1987
 1212PF6-    F215151   4.790   1.220   5.341  0.3893 -0.1586  0.0608
 1212PF6-    F315152   5.063   1.238   5.516 -0.0311  0.0270  0.0377
 1212PF6-    F415153   4.849   1.192   5.565  0.0481 -0.3196  0.1959
 1212PF6-    F515154   5.009   1.260   5.299 -0.0927 -0.2025  0.2606
 1212PF6-    F615155   4.904   1.383   5.439 -0.6633 -0.1365 -0.3422
 1212PF6-    F715156   4.950   1.071   5.404  0.0941  0.2070 -0.1757
 1213Na+     N115157   4.879   2.521   2.120 -0.4742 -0.1378 -0.2004
 1214Na+     N115158   5.129   2.186   2.439 -0.4586  0.0804  0.7740
 1215Na+     N115159   3.145   5.171   2.978  0.3761 -0.0325 -0.3500
 1216Na+     N115160   3.681   4.861   1.704  0.1279  0.0661  0.1446
 1217Na+     N115161   2.943   1.235   3.724  0.0607  0.4074 -0.2448
 1218Na+     N115162   3.614   2.400   1.682 -0.4283 -0.7339  0.3610
 1219Na+     N115163   0.983   4.866   0.672 -0.2566  0.8741  0.6132
 1220Na+     N115164   4.132   5.389   1.566 -0.2342 -0.0301 -0.2797
 1221Na+     N115165   4.146   4.793   1.830 -0.2575 -0.3654 -0.2204
 1222Na+     N115166   4.266   3.870   4.898 -0.1931 -0.0231  0.0802
 1223Na+     N115167   5.033   1.283   5.006 -0.0720 -0.2888  0.3003
 1224Na+     N115168   4.326   4.330   2.924 -0.3184 -0.4551 -0.5177
 1225Na+     N115169   1.629   5.275   1.085  0.4412 -0.1934  0.3390
 1226Na+     N115170   2.160   0.918   0.128 -0.0197 -0.2045  0.6600
 1227Na+     N115171   4.259   0.630   3.487 -0.1984  0.2475  0.0168
 1228Na+     N115172   5.366   0.223   5.425  0.1460  0.1112 -0.1972
 1229Na+     N115173   1.469   2.340   5.070  0.4714  0.2684  0.0191
 1230Na+     N115174   1.708   3.289   5.196 -0.1894 -0.1583 -0.0917
 1231Na+     N115175   4.145   5.424   2.578  0.1870  0.2133  0.1164
 1232Na+     N115176   2.509   2.674   4.867 -0.8213 -0.0792 -0.3899
 1233Na+     N115177   3.022   5.207   3.641  0.0354 -0.3014  0.0856
 1234Na+     N115178   3.318   3.295   5.022 -0.4538 -0.2848  0.0879
 1235Na+     N115179   3.429   5.016   1.044  0.3662  0.1348  0.2565
 1236Na+     N115180   4.830   3.056   4.899 -0.1807  0.3930  0.2794
 1237Na+     N115181   1.741   4.619   2.353 -0.3920 -0.0092 -0.1342
 1238Na+     N115182   5.324   1.346   5.486 -0.2160  0.3318  0.2086
 1239Na+     N115183   4.803   2.307   4.269  0.4606 -0.1108 -0.4030
 1240Na+     N115184   1.652   4.119   3.046 -0.1581 -0.4069  0.0793
 1241Na+     N115185   5.292   3.003   4.378 -0.3571 -0.0666  0.0192
 1242Na+     N115186   3.533   1.807   2.216  0.1882 -0.1270 -0.6103
 1243Na+     N115187   1.782   2.474   2.294  0.2677 -0.5369  0.2638
 1244Na+     N115188   0.249   1.325   0.763 -0.5257  0.0578 -0.2500
 1245Na+     N115189   2.926   4.340   5.317  0.1723  0.3843  0.1079
 1246Na+     N115190   2.995   1.775   2.205 -0.0957  0.3536 -0.4593
 1247Na+     N115191   1.511   2.477   1.864 -0.3446  0.5998  0.4923
 1248Na+     N115192   4.998   0.575   3.688 -0.8125  0.2565 -0.6658
 1249Na+     N115193   2.105   3.723   1.903 -0.5343 -0.4392 -0.3293
 1250Na+     N115194   4.677   4.148   0.990  0.2823  0.0827 -0.0017
 1251Na+     N115195   5.002   0.151   4.842  0.2566 -0.1303 -0.0400
 1252Na+     N115196   1.653   1.179   1.709 -0.3166 -0.1576 -0.2642
 1253Na+     N115197   3.905   4.365   0.319 -0.0319  0.0510  0.4320
 1254Na+     N115198   2.749   2.385   2.482  0.3321  0.3464  0.4026
 1255Na+     N115199   1.991   4.536   1.435  0.2049 -0.2735 -0.6932
 1256Na+     N115200   2.724   4.144   4.380  0.2755 -0.4258 -0.1784
 1257Na+     N115201   0.140   1.206   2.241  0.0896 -0.3283 -0.1589
 1258Na+     N115202   4.208   1.351   5.419 -0.8826 -0.0936 -0.1867
 1259Na+     N115203   3.166   2.698   4.177 -0.4361  0.0115  0.0005
 1260Na+     N115204   5.428   5.072   0.459  0.1874  0.0954  0.3897
 1261Na+     N115205   4.209   3.917   0.373 -0.4623 -0.6804  0.5613
 1262Na+     N115206   3.737   0.688   4.670  0.2204 -0.3908 -0.0042
 1263Na+     N115207   0.615   4.684   4.021  0.3046  0.3035  0.2892
 1264Na+     N115208   1.887   1.472   4.862 -0.0147  0.5978 -0.5364
 1265Na+     N115209   2.499   3.100   2.772 -0.3036 -0.1556  0.1138
 1266Na+     N115210   4.657   0.795   2.033 -0.0502 -0.2280 -0.1119
 1267Na+     N115211   1.393   4.480   4.688 -0.3329 -0.4395  0.7249
 1268Na+     N115212   1.520   0.471   1.617 -0.0816  0.5041 -0.3409
 1269Na+     N115213   3.029   1.526   2.722 -0.1755  0.3357  0.3423
 1270Na+     N115214   0.775   2.804   1.128  0.1623  0.1893  0.0043
 1271Na+     N115215   2.895   0.325   2.190 -0.0901  0.8456 -0.1531
 1272Na+     N115216   0.741   4.036   2.220 -0.3938  0.5713 -0.3393
 1273Na+     N115217   5.077   3.269   5.425  0.2221 -0.8150 -0.5502
 1274Na+     N115218   5.395   4.469   0.861 -0.0557 -0.1927  0.0317
 1275Na+     N115219   3.920   0.149   4.505 -0.0911  0.4574  0.0669
 1276Na+     N115220   4.774   2.194   1.375  0.1201  0.6024  0.1961
 1277Na+     N115221   3.498   4.598   3.056 -0.2257  0.2278  0.2810
 1278Na+     N115222   4.072   1.271   4.386 -0.1854  0.4758  0.0738
 1279Na+     N115223   1.600   1.754   3.289  0.1185 -0.1556 -0.0439
 1280Na+     N115224   2.774   2.893   5.358 -0.3173 -0.2555  0.0428
 1281Na+     N115225   0.571   3.199   4.959 -0.3229  0.4856 -0.1386
 1282Na+     N115226   4.511   4.315   4.925 -0.1907  0.1341  0.0945
 1283Na+     N115227   5.184   0.872   0.792 -0.1249 -0.4983 -0.1146
 1284Na+     N115228   4.587   2.196   0.727 -0.0263  0.3809 -0.1443
 1285Na+     N115229   5.107   3.121   3.124 -0.0609  0.2820  0.4830
 1286Na+     N115230   3.062   0.174   0.274 -0.5647 -0.2195  0.4955
 1287Na+     N115231   0.024   0.668   3.911 -0.0550 -0.0135 -0.0532
 1288Na+     N115232   1.108   3.581   5.295  0.0403 -0.0264 -0.2043
 1289Na+     N115233   4.811   3.088   1.897  0.5007 -0.5953  0.2942
 1290Na+     N115234   5.247   3.533   2.127 -0.3487  0.0843 -0.2778
 1291Na+     N115235   0.513   4.427   0.070 -0.6297 -0.2202  0.2494
 1292Na+     N115236   4.070   2.696   2.133  0.5537 -0.4120 -0.0902
 1293Na+     N115237   3.281   3.585   0.857 -0.0859 -0.4159  0.0672
 1294Na+     N115238   2.950   2.004   0.093  0.0318 -0.0738  0.7225
 1295Na+     N115239   4.807   1.585   5.325  0.1423 -0.1572 -0.0555
 1296Na+     N115240   2.744   2.938   3.675  0.3242  0.1021 -0.3287
 1297Na+     N115241   2.563   5.221   2.711 -0.2022  0.5672 -0.0597
 1298Na+     N115242   3.415   2.118   3.374 -0.0219  0.3615 -0.3897
 1299Na+     N115243   1.389   5.038   3.827  0.0305  0.2724  0.1578
 1300Na+     N115244   5.154   2.584   3.447 -0.6152 -0.2290  0.2440
 1301Na+     N115245   2.159   5.266   0.191  0.0607 -0.0868 -0.2423
 1302Na+     N115246   3.031   0.896   5.357 -0.3987 -0.8759 -0.1011
 1303Na+     N115247   2.943   2.374   0.669  0.0233 -0.2929 -0.3284
 1304Na+     N115248   3.702   3.590   1.280  0.3615 -0.2704 -0.0243
 1305Na+     N115249   0.920   4.124   4.875  0.1628  0.0466  0.0208
 1306Na+     N115250   3.863   4.152   4.628 -0.5389  0.0745 -0.3637
 1307Na+     N115251   0.778   3.356   0.438 -0.4643  0.2567 -0.2498
 1308Na+     N115252   5.273   3.139   5.016  0.0281 -0.0751  0.3155
 1309Na+     N115253   5.260   2.684   5.329  0.0025  0.0496 -0.1739
 1310Na+     N115254   2.823   4.611   3.918 -0.2423 -0.0517 -0.0759
 1311Na+     N115255   2.494   4.646   1.682  0.5497  0.1624 -0.1992
 1312Na+     N115256   3.313   4.792   2.501 -0.4945  0.0474  0.3325
   5.50079   5.50079   5.50079
