;;;;;;;;;;;;;;;;;;;;;;;;;;;;;;;;;;;;;;;;;;;;;;;;;;;;;;;;;;;;;;;;;;;;;;;;;;;
;                                                                         ;
; TOP File Created by Progamme DL2GRMX from DL_POLY input files           ;
; Produced by Polaris at Colledge of Chemistry, Nankai University, P.R.C. ;
; Model Name: THF-PF6-Na          Amber RESP  Created Time: 2025-05-25 13:27:07     ;
;                                                                         ;
;;;;;;;;;;;;;;;;;;;;;;;;;;;;;;;;;;;;;;;;;;;;;;;;;;;;;;;;;;;;;;;;;;;;;;;;;;;


[ defaults ]
; nbfunc         comb-rule      gen-pairs      fudgeLJ        fudgeQQ        
  1              3              yes            0.5            0.5            

#include "nonbond.itp"
#include "THF.itp"
#include "PF6-.itp"
#include "Na+.itp"

[ system ]
THF-PF6-Na          Amber RESP

[ molecules ]
; molecule name     mol  
THF                 1112
PF6-                100  
Na+                 100  

;;;;;;;;;;;;;;;;;;;;;;;;;;;;;;;;;;;;;;;;;;;;;;;;;;;;;;;;;;;;;;;;;;;;;;;;;;;
;;                                                                       ;;
;;                   This is the bottom of the TOP file.                 ;;
;;                                                                       ;;
;;;;;;;;;;;;;;;;;;;;;;;;;;;;;;;;;;;;;;;;;;;;;;;;;;;;;;;;;;;;;;;;;;;;;;;;;;;
