DG-THF-PF6-Na    Amber RESP
15350
    1DG      C1    1   3.721   1.386   5.474 -0.8663 -0.3728  0.4157
    1DG      C2    2   3.641   1.629   6.085 -1.0423  1.0849  0.5634
    1DG      H3    3   3.822   1.405   5.512 -0.7002  1.2229 -0.7307
    1DG      H4    4   3.709   1.418   5.370  0.3215  1.0967  0.6871
    1DG      H5    5   3.716   1.277   5.472 -0.0580 -0.4148  0.4679
    1DG      H6    6   3.619   1.568   6.173  0.5896 -3.3402 -1.7827
    1DG      H7    7   3.749   1.648   6.082 -0.7073 -0.7457  0.0931
    1DG      H8    8   3.594   1.727   6.091 -0.5907  1.4216 -1.0562
    1DG      O9    9   3.619   1.441   5.559  0.1438 -0.1000 -0.0276
    1DG     O10   10   3.600   1.553   5.969  0.1877 -0.0048  0.0967
    1DG     C11   11   3.490   1.393   5.525  0.3934  0.8051 -0.4079
    1DG     C12   12   3.463   1.520   5.989 -0.3141 -0.9739  0.2396
    1DG     H13   13   3.488   1.309   5.455  2.1881  0.9382 -0.6487
    1DG     H14   14   3.427   1.471   5.483 -2.6852 -0.9435  0.6052
    1DG     H15   15   3.398   1.606   5.970 -0.8538 -1.4283  0.0091
    1DG     H16   16   3.442   1.485   6.090  0.0014 -0.9454  0.3180
    1DG     C17   17   3.442   1.333   5.662  0.8317  0.6539 -0.0192
    1DG     C18   18   3.429   1.405   5.891 -0.0761  0.0226 -0.0018
    1DG     O19   19   3.447   1.443   5.755  0.3555  0.1983 -0.2072
    1DG     H20   20   3.497   1.242   5.690  0.1846 -0.1929 -1.3917
    1DG     H21   21   3.339   1.295   5.662  0.0870  2.4851  1.6960
    1DG     H22   22   3.491   1.317   5.909  1.3428  0.5448 -1.9741
    1DG     H23   23   3.321   1.394   5.897 -0.0779  0.2220  0.4026
    2DG      C1   24   2.616   4.356   1.301  0.2712 -0.2658  0.5887
    2DG      C2   25   2.415   4.979   1.100  0.0839  0.7159 -0.0554
    2DG      H3   26   2.694   4.337   1.227 -1.3870 -0.8815 -1.0440
    2DG      H4   27   2.592   4.256   1.338 -2.1151  0.3377  0.8076
    2DG      H5   28   2.660   4.415   1.382  2.0684  1.4398 -1.4951
    2DG      H6   29   2.471   5.000   1.009  1.1198  0.5830  0.5461
    2DG      H7   30   2.344   5.062   1.104  1.3253  1.7590  1.5418
    2DG      H8   31   2.483   4.988   1.184  1.6526  0.0157 -1.1900
    2DG      O9   32   2.500   4.418   1.231 -0.0114 -0.3066  0.0537
    2DG     O10   33   2.368   4.842   1.111 -1.0013  0.1693 -0.5153
    2DG     C11   34   2.443   4.344   1.120  0.8745 -0.5186  0.0945
    2DG     C12   35   2.279   4.798   1.010 -0.1946  0.1027 -0.3440
    2DG     H13   36   2.387   4.251   1.135 -4.0214  2.1256  0.3977
    2DG     H14   37   2.521   4.313   1.051 -0.8163 -3.2689 -0.7536
    2DG     H15   38   2.324   4.813   0.912  1.5009 -0.8067  0.2659
    2DG     H16   39   2.189   4.860   1.008  0.6606  1.5156  1.6279
    2DG     C17   40   2.331   4.436   1.061  0.3264  0.0769  0.1852
    2DG     C18   41   2.244   4.649   1.024  0.2439 -0.0255 -0.2371
    2DG     O19   42   2.362   4.577   1.043 -0.7474 -0.5675 -0.1361
    2DG     H20   43   2.251   4.433   1.135 -0.1797  1.5133 -0.2773
    2DG     H21   44   2.285   4.402   0.968 -0.1499 -0.1359  0.4964
    2DG     H22   45   2.195   4.651   1.122  3.3036  1.0666  1.4062
    2DG     H23   46   2.172   4.622   0.947  0.1947  0.5555 -0.4032
    3DG      C1   47   0.624   1.183   5.020 -0.4296  0.0939  0.3895
    3DG      C2   48   1.111   1.461   4.675 -0.5436 -0.1028 -0.0927
    3DG      H3   49   0.610   1.220   5.122  2.3927 -1.5338  1.4875
    3DG      H4   50   0.717   1.128   5.032  0.9632  2.0651 -0.7153
    3DG      H5   51   0.547   1.109   5.001  0.5767 -1.4415  1.9276
    3DG      H6   52   1.152   1.362   4.697  1.0851 -0.3049 -3.3592
    3DG      H7   53   1.125   1.479   4.568  0.0281  2.1668  0.3188
    3DG      H8   54   1.181   1.533   4.716 -0.1157 -0.1992 -0.6383
    3DG      O9   55   0.644   1.269   4.917  0.5365  0.1555  0.0837
    3DG     O10   56   0.986   1.475   4.729 -0.2493  0.2008  0.3162
    3DG     C11   57   0.572   1.391   4.946  0.0213 -0.1566 -0.4023
    3DG     C12   58   0.928   1.606   4.722  0.1064  0.7025 -0.1511
    3DG     H13   59   0.601   1.434   5.042 -1.5770 -3.4952  1.8015
    3DG     H14   60   0.463   1.380   4.947  0.0340 -0.3338 -1.0024
    3DG     H15   61   0.956   1.657   4.630 -0.4315  1.3603  0.0401
    3DG     H16   62   0.971   1.661   4.806  0.0321 -1.6916  1.5367
    3DG     C17   63   0.594   1.500   4.842  0.3776  0.0896  0.5110
    3DG     C18   64   0.772   1.599   4.718 -0.4043  0.0481 -0.1732
    3DG     O19   65   0.732   1.506   4.817 -0.3121  0.6913  0.0889
    3DG     H20   66   0.559   1.592   4.888 -0.5150 -0.4040  0.8292
    3DG     H21   67   0.535   1.468   4.757  0.5956  1.6704 -0.2658
    3DG     H22   68   0.732   1.700   4.731  2.1421  1.1804 -0.5162
    3DG     H23   69   0.736   1.558   4.624 -0.0186 -0.2301 -0.1981
    4DG      C1   70   4.391   4.590   3.856 -0.5105  0.0780  0.0540
    4DG      C2   71   4.716   4.545   4.458 -0.1426 -0.8028 -0.5669
    4DG      H3   72   4.385   4.563   3.750 -0.9864  1.4784 -0.2902
    4DG      H4   73   4.324   4.675   3.870  0.6649  0.7254  2.0991
    4DG      H5   74   4.355   4.506   3.917 -0.8603 -0.7688 -1.2560
    4DG      H6   75   4.661   4.451   4.463  1.1506 -1.4997  2.7141
    4DG      H7   76   4.799   4.513   4.520 -0.3683  0.9718  0.7205
    4DG      H8   77   4.657   4.618   4.513  2.0040  1.0475 -0.6001
    4DG      O9   78   4.522   4.610   3.903 -0.1565  0.4825  0.3347
    4DG     O10   79   4.749   4.562   4.325  0.6373  0.0619  0.2111
    4DG     C11   80   4.569   4.748   3.877 -0.2043  0.3682  0.7258
    4DG     C12   81   4.797   4.693   4.300  0.0243  0.0060  0.7013
    4DG     H13   82   4.492   4.804   3.929 -0.4404 -0.4002  1.2258
    4DG     H14   83   4.563   4.777   3.772 -0.4790 -2.3341 -0.0926
    4DG     H15   84   4.886   4.721   4.358  0.1720  1.6960 -0.2746
    4DG     H16   85   4.716   4.758   4.333  0.0434 -0.2132  1.1846
    4DG     C17   86   4.712   4.745   3.934 -0.2981 -0.3514 -0.1003
    4DG     C18   87   4.833   4.715   4.145  0.4977  0.1004 -0.0836
    4DG     O19   88   4.710   4.712   4.071 -0.2856  0.2387  0.2199
    4DG     H20   89   4.749   4.847   3.931  1.0476 -0.8079  0.2305
    4DG     H21   90   4.779   4.682   3.874  2.2911 -0.2583  2.4750
    4DG     H22   91   4.868   4.815   4.120 -0.7415  0.7249  0.5744
    4DG     H23   92   4.900   4.639   4.106  0.3640  0.6830 -1.5121
    5DG      C1   93   3.756   4.929   1.386 -0.6917  0.0107  0.8541
    5DG      C2   94   3.714   4.402   1.769 -0.2587  0.1254 -0.5999
    5DG      H3   95   3.790   5.031   1.370 -2.4870  0.7295  1.3348
    5DG      H4   96   3.667   4.899   1.330 -0.7269 -1.0289  1.4458
    5DG      H5   97   3.835   4.866   1.346 -2.6455 -0.5590 -2.5420
    5DG      H6   98   3.632   4.331   1.755  1.6300 -2.2527 -0.2253
    5DG      H7   99   3.790   4.380   1.695  1.0312 -0.1627  0.7546
    5DG      H8  100   3.750   4.395   1.872  1.1927  1.3589 -0.9825
    5DG      O9  101   3.748   4.895   1.519  0.2080 -0.2529 -0.7322
    5DG     O10  102   3.680   4.539   1.748 -0.1585  0.0084 -0.1074
    5DG     C11  103   3.637   4.960   1.582 -0.1295 -0.0341 -0.8323
    5DG     C12  104   3.578   4.578   1.841 -0.6186  0.5777  0.4065
    5DG     H13  105   3.544   4.940   1.530  0.4782 -0.2464 -1.8751
    5DG     H14  106   3.654   5.068   1.584  0.1900 -0.0674 -1.3512
    5DG     H15  107   3.594   4.540   1.942  1.1680 -0.3915 -0.1933
    5DG     H16  108   3.477   4.549   1.814 -0.8782  0.9729  0.9493
    5DG     C17  109   3.634   4.917   1.730 -0.3205  0.3503  0.2166
    5DG     C18  110   3.589   4.726   1.859 -0.6722  0.2986  0.1035
    5DG     O19  111   3.587   4.782   1.730  0.3161 -0.3383 -0.4581
    5DG     H20  112   3.578   4.991   1.788 -1.0733  1.2066 -1.5443
    5DG     H21  113   3.738   4.921   1.764 -0.7329 -0.5472  1.6515
    5DG     H22  114   3.506   4.769   1.915 -1.5854 -1.0241 -0.2184
    5DG     H23  115   3.687   4.752   1.900  0.3754 -0.7247 -1.6535
    6DG      C1  116   0.417   2.975   4.814 -0.2748 -0.5227 -0.1848
    6DG      C2  117   0.486   2.920   5.460 -0.4596  1.4519 -0.6964
    6DG      H3  118   0.400   3.014   4.713  1.0298  1.1147  0.1722
    6DG      H4  119   0.357   2.887   4.833 -1.0251 -0.0223 -0.1921
    6DG      H5  120   0.522   2.945   4.810 -0.0411  0.3599 -1.6397
    6DG      H6  121   0.595   2.916   5.452 -0.5452  0.8409 -1.8849
    6DG      H7  122   0.462   2.947   5.562 -1.7125 -0.0148 -0.5568
    6DG      H8  123   0.445   2.821   5.441  0.1264  1.4968 -2.4048
    6DG      O9  124   0.391   3.069   4.922 -0.1108 -0.0147  0.2653
    6DG     O10  125   0.432   3.024   5.373 -0.1295 -0.5376  0.3571
    6DG     C11  126   0.454   3.194   4.918 -0.2501  0.1711 -0.0681
    6DG     C12  127   0.492   3.154   5.393  0.3367  0.4042  0.2630
    6DG     H13  128   0.425   3.243   4.825 -4.9016 -0.4727  0.8345
    6DG     H14  129   0.563   3.187   4.915  0.2475  4.6714 -0.6608
    6DG     H15  130   0.599   3.156   5.413  0.6138  2.2710 -1.1006
    6DG     H16  131   0.442   3.198   5.480 -1.8684  0.7742 -1.1192
    6DG     C17  132   0.447   3.286   5.038 -0.0852  0.0260  0.2652
    6DG     C18  133   0.452   3.251   5.282  1.1779 -0.4832  0.0313
    6DG     O19  134   0.484   3.201   5.149  1.0727  0.0421  0.2137
    6DG     H20  135   0.340   3.307   5.046 -0.2448 -0.5809 -0.2009
    6DG     H21  136   0.504   3.379   5.037  1.7988 -1.0819 -1.0463
    6DG     H22  137   0.343   3.259   5.283  1.2239  0.1910  1.0525
    6DG     H23  138   0.492   3.352   5.294 -0.2266 -0.1438  2.5022
    7DG      C1  139   0.620   2.208   3.383  0.5160 -0.1683  0.0902
    7DG      C2  140   0.429   1.864   2.820  0.2834 -0.5649  0.7389
    7DG      H3  141   0.584   2.302   3.341 -0.1053 -1.4114 -2.3994
    7DG      H4  142   0.720   2.185   3.347  0.2046 -1.3869 -0.0774
    7DG      H5  143   0.623   2.223   3.491  2.0001 -1.0373  0.1965
    7DG      H6  144   0.536   1.880   2.803 -0.4075  3.6085 -0.6839
    7DG      H7  145   0.402   1.765   2.785 -1.0968  1.0979 -3.5367
    7DG      H8  146   0.377   1.942   2.765 -0.2947  0.4260  2.5859
    7DG      O9  147   0.535   2.103   3.337 -0.2538 -0.0988  0.5309
    7DG     O10  148   0.400   1.889   2.955 -0.2390  0.6272 -0.3557
    7DG     C11  149   0.395   2.123   3.371  0.2148  0.4022 -0.4292
    7DG     C12  150   0.266   1.891   2.973 -0.2368 -0.1232  0.2833
    7DG     H13  151   0.370   2.216   3.318  0.2646  0.0949 -0.9985
    7DG     H14  152   0.377   2.159   3.472 -0.4089 -0.1701 -0.3308
    7DG     H15  153   0.209   1.807   2.933  1.7196 -0.5146 -1.8789
    7DG     H16  154   0.221   1.974   2.919 -1.1848  0.6699  2.2028
    7DG     C17  155   0.306   2.007   3.317  0.7953 -0.0363 -0.1140
    7DG     C18  156   0.230   1.914   3.118 -0.9122  0.0472  0.4555
    7DG     O19  157   0.309   2.017   3.171 -0.1566 -0.3916  0.3759
    7DG     H20  158   0.203   2.018   3.352  1.2132 -1.6504  1.8544
    7DG     H21  159   0.341   1.914   3.364 -1.2273 -0.2636  1.0803
    7DG     H22  160   0.124   1.940   3.114 -1.5669 -2.4489 -0.1768
    7DG     H23  161   0.248   1.816   3.162  1.8608  0.9627  1.5940
    8DG      C1  162   1.668   5.053   0.595  0.2553 -0.4107  0.1255
    8DG      C2  163   1.858   4.577   0.173 -0.2455 -0.1649 -0.1406
    8DG      H3  164   1.657   4.957   0.645 -0.1881 -0.6653 -0.4460
    8DG      H4  165   1.565   5.088   0.594  0.4924  0.3017  0.1583
    8DG      H5  166   1.744   5.114   0.644 -0.9673  2.7886 -1.6040
    8DG      H6  167   1.945   4.527   0.215  0.4641  0.0739 -1.2613
    8DG      H7  168   1.775   4.529   0.225 -0.2049 -1.0578 -0.8631
    8DG      H8  169   1.858   4.533   0.073  1.3256 -2.0997  0.6512
    8DG      O9  170   1.704   5.031   0.457 -0.0417 -0.1829  0.4164
    8DG     O10  171   1.861   4.719   0.192 -0.1849  0.4457  0.4783
    8DG     C11  172   1.768   5.143   0.392  0.0724  0.6379 -0.0531
    8DG     C12  173   1.806   4.788   0.077 -0.3172  0.0667  0.4869
    8DG     H13  174   1.859   5.158   0.450 -0.6098  1.2559  0.8817
    8DG     H14  175   1.708   5.234   0.393 -1.3322 -0.2541 -0.0181
    8DG     H15  176   1.701   4.765   0.061 -0.8059  2.1248  0.3765
    8DG     H16  177   1.874   4.749   0.002 -0.7968 -0.2405  0.2122
    8DG     C17  178   1.782   5.116   0.242  0.3188 -0.5142  0.3709
    8DG     C18  179   1.827   4.938   0.090 -0.3765 -0.1670  0.1973
    8DG     O19  180   1.813   4.977   0.219 -0.1132 -0.4158 -0.2895
    8DG     H20  181   1.841   5.188   0.186 -3.1509 -0.4685 -3.6904
    8DG     H21  182   1.682   5.137   0.204  0.4863  0.4868  0.4511
    8DG     H22  183   1.922   4.966   0.044 -0.2363  1.0046  1.1449
    8DG     H23  184   1.743   4.984   0.039 -0.4940 -1.6410 -1.0228
    9DG      C1  185   1.405   2.500   0.478 -0.5436  0.3424  0.2643
    9DG      C2  186   2.006   2.683   0.572 -0.0211 -0.5099 -0.0482
    9DG      H3  187   1.389   2.408   0.534  1.8740  0.5573  1.4550
    9DG      H4  188   1.447   2.464   0.384  1.2154  0.6955  0.8643
    9DG      H5  189   1.305   2.542   0.469 -1.7465 -1.8271  2.3017
    9DG      H6  190   2.110   2.705   0.596 -0.8866  3.6803  0.6958
    9DG      H7  191   2.005   2.619   0.484 -1.7953  0.9375 -1.1570
    9DG      H8  192   1.961   2.778   0.543 -0.8194 -0.2113  1.9927
    9DG      O9  193   1.500   2.575   0.546 -0.6740  0.5262 -0.2283
    9DG     O10  194   1.944   2.623   0.683 -0.3322  0.0059 -0.2726
    9DG     C11  195   1.466   2.634   0.670  0.3784  0.7608  0.4319
    9DG     C12  196   1.916   2.718   0.786  0.0299  0.4667  0.2451
    9DG     H13  197   1.465   2.558   0.748 -1.0691 -0.3725 -0.6512
    9DG     H14  198   1.364   2.672   0.665 -0.2392 -0.9800 -1.6066
    9DG     H15  199   1.995   2.791   0.804 -2.0852  2.9267  0.1143
    9DG     H16  200   1.891   2.673   0.882 -2.3851  0.4213 -0.3435
    9DG     C17  201   1.560   2.750   0.720  0.3371  0.4710 -0.3374
    9DG     C18  202   1.787   2.785   0.751  0.0326 -0.2121 -0.3793
    9DG     O19  203   1.689   2.688   0.730  0.2558  0.3532  0.0264
    9DG     H20  204   1.517   2.772   0.818 -0.9618  1.8653 -1.1785
    9DG     H21  205   1.541   2.838   0.659  4.6929  1.3115 -0.7826
    9DG     H22  206   1.748   2.833   0.841  0.8489  0.8705 -0.5764
    9DG     H23  207   1.806   2.842   0.659  0.8348 -0.1113 -0.1507
   10DG      C1  208   1.558   5.434   1.434  0.6032 -0.5750  0.1620
   10DG      C2  209   1.600   5.976   1.711  0.2728  0.0969  0.0785
   10DG      H3  210   1.470   5.373   1.453 -0.6794  0.5520 -1.7678
   10DG      H4  211   1.633   5.358   1.413  1.8208  0.9372 -1.2588
   10DG      H5  212   1.543   5.497   1.346 -0.3991  0.7699  1.2490
   10DG      H6  213   1.616   6.050   1.790  0.2223  0.0301  0.1522
   10DG      H7  214   1.686   5.910   1.719 -2.1557 -3.2291  1.1927
   10DG      H8  215   1.594   6.025   1.614 -0.7442  0.2733  0.2183
   10DG      O9  216   1.599   5.519   1.536  0.0518 -0.3737 -0.8027
   10DG     O10  217   1.472   5.928   1.741 -0.1671  0.2633 -0.5859
   10DG     C11  218   1.598   5.455   1.673 -0.1387 -0.1141  0.6857
   10DG     C12  219   1.460   5.871   1.875 -0.4397  0.3029  0.5874
   10DG     H13  220   1.674   5.376   1.675  0.5401  0.5027  0.1411
   10DG     H14  221   1.504   5.402   1.686 -0.3058  0.2627  0.9996
   10DG     H15  222   1.355   5.844   1.884 -0.8358  0.9450 -1.5391
   10DG     H16  223   1.476   5.950   1.949  0.3126  1.2374 -0.5241
   10DG     C17  224   1.621   5.564   1.788 -0.0079  0.8386 -0.5966
   10DG     C18  225   1.558   5.750   1.897  0.4862  0.0328  0.0524
   10DG     O19  226   1.537   5.665   1.783  0.0886 -0.2377  0.0743
   10DG     H20  227   1.719   5.606   1.766 -1.1014  2.5909 -2.4678
   10DG     H21  228   1.620   5.512   1.884  1.2381  0.9019 -0.5404
   10DG     H22  229   1.662   5.785   1.896  1.1407 -1.7540 -2.3730
   10DG     H23  230   1.534   5.695   1.988 -1.3419  1.2012  0.3338
   11DG      C1  231   0.788   4.103   3.580 -0.3582  0.3293  0.5449
   11DG      C2  232   1.237   3.611   3.603  0.3411  0.2547  0.2588
   11DG      H3  233   0.771   4.105   3.472  2.2594 -1.7967 -0.0133
   11DG      H4  234   0.896   4.104   3.585 -0.2181 -1.7095 -0.7606
   11DG      H5  235   0.738   4.186   3.630 -1.0336  0.7099 -0.7101
   11DG      H6  236   1.164   3.531   3.605  0.2121  0.3554 -0.2945
   11DG      H7  237   1.236   3.626   3.495 -0.5642  0.3798  0.2801
   11DG      H8  238   1.330   3.570   3.642 -1.0524 -2.0535  1.3297
   11DG      O9  239   0.745   3.974   3.625  0.3948  0.2592 -0.5028
   11DG     O10  240   1.178   3.728   3.667  0.6005  0.0832 -0.1983
   11DG     C11  241   0.732   3.964   3.761  0.3739  0.2620  0.2285
   11DG     C12  242   1.146   3.722   3.805  0.2703 -0.3394 -0.1311
   11DG     H13  243   0.678   3.871   3.778 -0.4161  0.5161 -0.7384
   11DG     H14  244   0.667   4.041   3.803  0.3070  0.2977  0.0630
   11DG     H15  245   1.232   3.699   3.867  2.2511  1.0193 -2.2289
   11DG     H16  246   1.078   3.638   3.823  1.8701 -2.3445 -2.7789
   11DG     C17  247   0.865   3.965   3.828 -0.1684  0.1284  0.8226
   11DG     C18  248   1.082   3.852   3.855  0.0442  0.7811  0.2608
   11DG     O19  249   0.950   3.853   3.791 -0.2286 -0.1847 -0.3954
   11DG     H20  250   0.861   3.956   3.937 -1.0092 -0.2110  0.7717
   11DG     H21  251   0.915   4.059   3.805 -0.5743 -0.1187 -1.2290
   11DG     H22  252   1.065   3.844   3.962 -0.9328  1.2866  0.1545
   11DG     H23  253   1.136   3.946   3.842  0.4158  0.4923 -0.3119
   12DG      C1  254   2.562   5.087   2.985  0.1721  1.1964 -0.2039
   12DG      C2  255   3.085   4.949   3.346 -0.3442 -0.4071 -0.3201
   12DG      H3  256   2.560   5.183   3.037  4.4394  0.8603  1.0486
   12DG      H4  257   2.535   5.003   3.050  1.7341  0.7550 -0.0778
   12DG      H5  258   2.499   5.085   2.897 -0.1052 -0.6017 -0.0043
   12DG      H6  259   3.183   4.902   3.350 -0.0220  0.3456  1.7162
   12DG      H7  260   3.084   5.023   3.426  0.1237 -1.0125  0.2566
   12DG      H8  261   3.008   4.879   3.377  1.0892 -1.6579  0.5750
   12DG      O9  262   2.705   5.067   2.959  0.1241 -0.3046  0.1295
   12DG     O10  263   3.051   5.001   3.218  0.0857  0.4695 -0.0896
   12DG     C11  264   2.729   4.947   2.882  0.7023 -0.5744 -0.3217
   12DG     C12  265   3.118   4.932   3.117 -0.7098 -0.2866  0.1167
   12DG     H13  266   2.686   4.950   2.782  1.1045 -0.9128 -0.5063
   12DG     H14  267   2.699   4.854   2.929 -2.4081  0.4771 -0.0018
   12DG     H15  268   3.095   4.826   3.127 -2.8821  0.1585  0.3543
   12DG     H16  269   3.221   4.963   3.133 -0.5830  0.3742 -1.7335
   12DG     C17  270   2.881   4.956   2.858  0.0895  0.4134 -0.5136
   12DG     C18  271   3.065   4.974   2.982 -0.2763  0.2783  0.1948
   12DG     O19  272   2.928   4.958   2.990 -0.1198  0.1449  0.2383
   12DG     H20  273   2.905   5.043   2.798 -1.4695  0.8134 -0.5933
   12DG     H21  274   2.924   4.873   2.801 -1.2934 -1.1802  0.6444
   12DG     H22  275   3.096   5.075   2.953  1.0187  0.2937  1.5184
   12DG     H23  276   3.118   4.902   2.918 -0.9754  0.5633 -0.7278
   13DG      C1  277   4.867   3.816   3.959  0.1459  0.1262  0.6329
   13DG      C2  278   5.026   3.304   3.486 -0.0350  0.0343 -0.1817
   13DG      H3  279   4.789   3.844   3.889  0.3159  1.4061  0.9262
   13DG      H4  280   4.916   3.902   4.005 -1.7994  0.2662  2.5984
   13DG      H5  281   4.825   3.757   4.040 -0.0268  0.9316  1.1463
   13DG      H6  282   5.023   3.198   3.509  1.4221 -0.0149 -0.1350
   13DG      H7  283   4.923   3.329   3.460 -0.8182 -0.8816  1.8174
   13DG      H8  284   5.082   3.310   3.393 -3.7408 -0.8373 -2.6658
   13DG      O9  285   4.965   3.733   3.889  0.1596 -0.2013  0.1727
   13DG     O10  286   5.074   3.389   3.587  0.5836  0.3948  0.2554
   13DG     C11  287   5.059   3.676   3.981  0.2107 -0.0981 -0.2661
   13DG     C12  288   5.186   3.342   3.653 -0.3039  0.1150 -0.4086
   13DG     H13  289   4.995   3.619   4.047 -0.0281 -0.7420 -1.0404
   13DG     H14  290   5.098   3.758   4.041 -0.4393 -0.6740  0.9823
   13DG     H15  291   5.270   3.317   3.588  1.0514 -0.7959  1.5936
   13DG     H16  292   5.163   3.257   3.717 -1.1225 -1.7258 -2.9605
   13DG     C17  293   5.167   3.600   3.908 -0.1709  0.1323  0.3139
   13DG     C18  294   5.238   3.458   3.739  0.3272 -0.0459 -0.5923
   13DG     O19  295   5.121   3.515   3.801  0.3503 -0.6414 -0.1549
   13DG     H20  296   5.219   3.535   3.978 -2.6276  0.2384  2.4068
   13DG     H21  297   5.239   3.673   3.872  0.3518  0.0002  1.0751
   13DG     H22  298   5.309   3.416   3.812 -1.0344 -2.6628 -0.6621
   13DG     H23  299   5.283   3.540   3.683  0.7801  0.1313  0.0208
   14DG      C1  300   1.958   0.758   5.343  0.1120  0.1089  0.6008
   14DG      C2  301   1.275   0.742   5.086 -0.3060 -0.1360  0.0380
   14DG      H3  302   2.058   0.736   5.305 -0.3278 -1.4921  0.3028
   14DG      H4  303   1.930   0.703   5.433 -6.5040  1.2170 -0.2949
   14DG      H5  304   1.943   0.863   5.371 -2.1931  0.4654 -1.6374
   14DG      H6  305   1.234   0.660   5.027 -0.8105  1.2505 -1.6399
   14DG      H7  306   1.255   0.718   5.190  1.4969 -1.0890  0.2038
   14DG      H8  307   1.222   0.833   5.059 -0.2896 -0.2290 -0.3130
   14DG      O9  308   1.862   0.724   5.241 -0.7306 -0.3617  0.5639
   14DG     O10  309   1.417   0.746   5.075  0.3663 -0.1847 -0.2025
   14DG     C11  310   1.891   0.792   5.124 -0.0304 -0.3169 -0.1527
   14DG     C12  311   1.453   0.758   4.937 -0.1189  0.2885 -0.3759
   14DG     H13  312   1.994   0.770   5.097 -0.6662 -1.1970 -2.1036
   14DG     H14  313   1.867   0.898   5.118 -2.2935 -0.7809 -0.4729
   14DG     H15  314   1.442   0.857   4.892 -0.7976  0.2309 -0.3467
   14DG     H16  315   1.400   0.685   4.876  1.6232 -1.6862  0.3667
   14DG     C17  316   1.812   0.731   5.011  0.2102 -0.1784 -0.9038
   14DG     C18  317   1.594   0.702   4.921  0.0390  0.5441 -0.4027
   14DG     O19  318   1.675   0.772   5.021 -0.1341  0.3308  0.1977
   14DG     H20  319   1.819   0.623   5.028  0.0166  0.2397  2.5324
   14DG     H21  320   1.853   0.757   4.913 -0.1109  2.3326 -0.4190
   14DG     H22  321   1.590   0.598   4.952 -1.1221  0.7194  0.0899
   14DG     H23  322   1.624   0.730   4.820 -0.0441 -1.3608 -0.9913
   15DG      C1  323   5.454   2.319   5.260 -0.6694  0.1930 -0.2278
   15DG      C2  324   4.972   2.042   5.380 -0.1703  0.9830 -0.2604
   15DG      H3  325   5.443   2.293   5.365  0.4946  1.9276  0.3786
   15DG      H4  326   5.512   2.408   5.234  1.0175 -0.6806  0.3399
   15DG      H5  327   5.509   2.230   5.228 -1.0064 -0.4054  0.8208
   15DG      H6  328   4.983   1.934   5.371  2.4070  1.1963 -0.4117
   15DG      H7  329   5.020   2.068   5.474  1.0724 -2.5372  0.2424
   15DG      H8  330   4.868   2.073   5.394  0.0235  1.8021 -0.6126
   15DG      O9  331   5.324   2.324   5.199  0.5482 -0.6300  0.0734
   15DG     O10  332   5.029   2.115   5.276  0.3715  0.5040 -0.1896
   15DG     C11  333   5.336   2.304   5.060 -0.4171 -0.0966 -0.0653
   15DG     C12  334   4.966   2.087   5.152 -1.0183 -0.3108  0.6177
   15DG     H13  335   5.368   2.205   5.028  0.3604  0.0410  0.2619
   15DG     H14  336   5.408   2.375   5.019  1.1648  0.4442  3.2900
   15DG     H15  337   4.866   2.130   5.144 -0.5034  0.6497 -1.5290
   15DG     H16  338   4.956   1.981   5.129 -0.2640 -0.0346 -1.1555
   15DG     C17  339   5.201   2.334   4.996  0.0913  0.1233 -0.2381
   15DG     C18  340   5.067   2.143   5.048  0.2996  0.8087  0.8938
   15DG     O19  341   5.092   2.280   5.068  0.7169 -0.1253 -0.4665
   15DG     H20  342   5.211   2.301   4.892 -2.6935 -0.2091 -0.4814
   15DG     H21  343   5.192   2.443   4.996 -1.0873  0.0612  1.4653
   15DG     H22  344   5.156   2.082   5.062 -0.9288 -0.9604  1.4510
   15DG     H23  345   5.025   2.127   4.949  0.0590  1.1567  0.9355
   16DG      C1  346   3.716   5.053   5.063  0.5319 -0.2172  0.4377
   16DG      C2  347   3.942   4.820   4.518 -0.0022  0.5356  0.2947
   16DG      H3  348   3.793   5.096   4.998  1.8507  0.3456  2.2811
   16DG      H4  349   3.755   5.000   5.149 -0.0297 -0.5759  0.4693
   16DG      H5  350   3.661   5.143   5.091  1.1933  0.1898  0.4577
   16DG      H6  351   3.992   4.850   4.426 -2.2586 -0.8138 -1.4984
   16DG      H7  352   4.022   4.799   4.588 -0.9336 -3.3260  0.4227
   16DG      H8  353   3.874   4.736   4.500 -1.6517  2.2308 -2.1202
   16DG      O9  354   3.626   4.969   4.985 -0.6982  0.3204  0.7483
   16DG     O10  355   3.858   4.909   4.585 -0.3040  0.5014  0.0048
   16DG     C11  356   3.518   5.029   4.917 -0.1282 -0.4201 -0.3514
   16DG     C12  357   3.738   4.925   4.500  0.1588  0.0195 -0.1392
   16DG     H13  358   3.481   5.107   4.983 -0.1989 -1.8719  1.4049
   16DG     H14  359   3.442   4.951   4.911 -0.5781 -0.0177  0.0470
   16DG     H15  360   3.687   4.829   4.501  1.6427 -0.7988 -0.1591
   16DG     H16  361   3.763   4.946   4.396  1.1871 -0.5209 -0.0162
   16DG     C17  362   3.559   5.096   4.786 -0.4069 -0.2659 -0.0866
   16DG     C18  363   3.644   5.037   4.571 -0.1772 -0.2986 -0.4201
   16DG     O19  364   3.599   4.993   4.698  0.1226  0.9732 -0.7812
   16DG     H20  365   3.633   5.174   4.801  0.1087 -0.4941 -1.3262
   16DG     H21  366   3.479   5.152   4.738  0.4814 -0.6376 -2.0643
   16DG     H22  367   3.714   5.117   4.595  1.0726 -0.9849 -1.6317
   16DG     H23  368   3.570   5.075   4.500 -0.2056  0.9709  0.2573
   17DG      C1  369   4.738   2.194   0.996  0.0174 -0.0324  0.0027
   17DG      C2  370   5.118   1.844   0.400  0.0552  0.1010 -0.4466
   17DG      H3  371   4.715   2.295   1.029 -0.2678 -0.1227  0.0827
   17DG      H4  372   4.731   2.133   1.086 -0.9889  0.6274  0.3865
   17DG      H5  373   4.666   2.154   0.925  0.5889  0.1515 -0.6939
   17DG      H6  374   5.189   1.762   0.397  0.0164 -0.1031  1.9070
   17DG      H7  375   5.028   1.784   0.407 -1.7772  2.7575  0.6340
   17DG      H8  376   5.110   1.890   0.302  0.9094 -2.5668 -1.8679
   17DG      O9  377   4.867   2.177   0.945  0.1391  0.3047  0.2690
   17DG     O10  378   5.131   1.941   0.502 -0.4020  0.0093 -0.3954
   17DG     C11  379   4.904   2.247   0.831 -0.4630 -0.7366  0.4800
   17DG     C12  380   5.156   1.889   0.624 -0.9105 -0.5457 -0.4475
   17DG     H13  381   4.909   2.355   0.841  3.4207 -0.6469 -0.6122
   17DG     H14  382   4.828   2.224   0.756 -1.1613  1.2100  0.5416
   17DG     H15  383   5.258   1.849   0.622 -0.5602  0.3282 -0.5965
   17DG     H16  384   5.090   1.809   0.656 -0.3562 -1.1613 -0.8030
   17DG     C17  385   5.037   2.200   0.780 -0.1157  0.7297  0.3360
   17DG     C18  386   5.157   2.002   0.725 -0.0355 -0.9727  0.7995
   17DG     O19  387   5.028   2.070   0.734 -0.0561 -0.2417  0.6019
   17DG     H20  388   5.111   2.208   0.860  0.1311  0.1401  0.1733
   17DG     H21  389   5.066   2.259   0.694 -0.6946  0.3203 -0.1507
   17DG     H22  390   5.180   1.967   0.826  0.5874  0.7840  1.3132
   17DG     H23  391   5.235   2.076   0.704 -1.9527  1.1542  0.7541
   18DG      C1  392   5.307   1.873   5.370  0.3085  0.0260 -0.0182
   18DG      C2  393   5.108   1.257   5.491 -0.1819 -0.2972  0.0165
   18DG      H3  394   5.318   1.965   5.314 -0.4613  1.1395  1.5787
   18DG      H4  395   5.395   1.809   5.379  0.0024 -0.4526 -0.3244
   18DG      H5  396   5.269   1.894   5.470 -1.9502 -1.2537 -0.5390
   18DG      H6  397   5.153   1.158   5.479  1.1228  0.2010  0.5435
   18DG      H7  398   5.124   1.291   5.594 -0.4381  1.2313 -0.4313
   18DG      H8  399   5.003   1.242   5.466 -0.2601 -1.2548  0.8570
   18DG      O9  400   5.199   1.802   5.313 -0.2311  0.0500  0.1054
   18DG     O10  401   5.184   1.345   5.409 -0.1496  0.0675 -0.5586
   18DG     C11  402   5.214   1.776   5.170 -0.1841 -0.2148  0.0498
   18DG     C12  403   5.172   1.308   5.272  0.6975 -0.6123 -0.6815
   18DG     H13  404   5.265   1.856   5.118 -2.3179 -0.4485 -2.6301
   18DG     H14  405   5.116   1.783   5.123 -0.3566  4.5504  0.6091
   18DG     H15  406   5.070   1.316   5.235  1.0026 -1.0687 -1.6463
   18DG     H16  407   5.205   1.204   5.265  1.1025 -0.5769  0.4659
   18DG     C17  408   5.279   1.638   5.141  0.2380  0.1715 -0.1723
   18DG     C18  409   5.255   1.405   5.181 -0.0769  0.0063 -0.2154
   18DG     O19  410   5.204   1.533   5.201  0.7251 -0.1791 -0.0980
   18DG     H20  411   5.375   1.625   5.190 -0.0065 -0.7817  0.0833
   18DG     H21  412   5.292   1.635   5.033  1.5108 -0.3628 -0.0154
   18DG     H22  413   5.355   1.385   5.221 -0.8760  0.2903  2.1218
   18DG     H23  414   5.256   1.364   5.080  0.4865  0.5080 -0.4219
   19DG      C1  415   4.661   1.779   2.298 -0.3037  0.1485  0.0468
   19DG      C2  416   4.113   1.355   2.323 -0.0568  0.2334 -0.1675
   19DG      H3  417   4.719   1.798   2.388 -0.9696  0.3464  0.4403
   19DG      H4  418   4.672   1.868   2.235 -0.3127 -0.0441 -0.2279
   19DG      H5  419   4.691   1.691   2.240 -0.9053  0.3129 -0.5238
   19DG      H6  420   4.011   1.354   2.284  0.3502 -3.1691 -1.4958
   19DG      H7  421   4.176   1.294   2.258 -0.4794  0.0429 -0.4009
   19DG      H8  422   4.106   1.304   2.418 -1.3060  3.6589  1.7610
   19DG      O9  423   4.521   1.769   2.323 -0.0245  0.7286  0.3084
   19DG     O10  424   4.179   1.482   2.348  0.2659 -0.0691  0.1183
   19DG     C11  425   4.462   1.875   2.398 -0.3956  0.3009 -0.0292
   19DG     C12  426   4.084   1.573   2.412 -0.6019 -0.2066 -0.0976
   19DG     H13  427   4.496   1.972   2.361 -0.0930 -0.7599 -2.8141
   19DG     H14  428   4.486   1.867   2.504 -0.5202  1.3133  0.0915
   19DG     H15  429   4.098   1.565   2.519  1.6495 -2.7294 -0.4874
   19DG     H16  430   3.978   1.566   2.386 -0.7898 -2.2173  0.9961
   19DG     C17  431   4.308   1.868   2.379  0.0334 -0.4210 -0.0535
   19DG     C18  432   4.118   1.719   2.383 -0.0746 -0.7757 -0.0584
   19DG     O19  433   4.259   1.739   2.403 -0.0281 -0.0767 -0.9165
   19DG     H20  434   4.285   1.907   2.280  0.1184  2.0615  0.8352
   19DG     H21  435   4.267   1.940   2.450  0.9955  0.1681 -0.0843
   19DG     H22  436   4.098   1.751   2.280 -1.1871  2.6456  1.0915
   19DG     H23  437   4.061   1.794   2.438  1.6785 -0.9991  2.2104
   20DG      C1  438   1.645   3.805   5.421 -0.4297  0.1610  0.2787
   20DG      C2  439   1.464   4.466   5.502 -0.2283  0.2118  0.0315
   20DG      H3  440   1.654   3.696   5.428  0.4435 -0.0602 -2.9193
   20DG      H4  441   1.742   3.855   5.429  0.7494 -0.9656 -4.2054
   20DG      H5  442   1.609   3.830   5.322 -3.6652  4.2249  2.2098
   20DG      H6  443   1.572   4.476   5.502 -0.1277 -0.5836  1.5221
   20DG      H7  444   1.416   4.476   5.405 -2.3150  0.5633  1.0362
   20DG      H8  445   1.433   4.539   5.577 -0.4163 -1.8737  2.1120
   20DG      O9  446   1.548   3.854   5.503 -0.9492  0.0005  0.1370
   20DG     O10  447   1.444   4.333   5.548  0.1025  0.3936  0.4738
   20DG     C11  448   1.589   3.851   5.644  0.0924 -0.2798 -0.6071
   20DG     C12  449   1.478   4.326   5.684 -0.1480 -0.5414  0.1441
   20DG     H13  450   1.692   3.884   5.657 -0.5698  2.1274 -0.8309
   20DG     H14  451   1.576   3.747   5.675  1.7761 -0.6114 -0.9060
   20DG     H15  452   1.425   4.403   5.741 -0.1327 -0.5701  0.1967
   20DG     H16  453   1.585   4.344   5.694  0.2696 -0.9467 -2.7121
   20DG     C17  454   1.505   3.955   5.715 -0.1134  0.1110 -0.5188
   20DG     C18  455   1.464   4.190   5.751  0.0357  0.4321 -0.6375
   20DG     O19  456   1.523   4.084   5.666 -0.7147 -0.0174 -0.1858
   20DG     H20  457   1.532   3.968   5.820  0.7062 -1.5606 -0.5017
   20DG     H21  458   1.398   3.932   5.714 -0.3275  0.7304  2.0476
   20DG     H22  459   1.503   4.194   5.853  1.9634 -0.8959 -1.2736
   20DG     H23  460   1.357   4.172   5.761  0.2055 -1.2679 -1.5627
   21DG      C1  461   4.037   5.103   2.596 -0.6965  0.0497  0.3323
   21DG      C2  462   3.674   4.555   2.910  0.1921  0.2187 -0.4612
   21DG      H3  463   4.139   5.080   2.625 -0.9366  1.8049  2.8857
   21DG      H4  464   4.005   5.167   2.679 -0.7800  0.7587 -0.2317
   21DG      H5  465   4.036   5.175   2.514 -0.8407  0.8971  1.0622
   21DG      H6  466   3.606   4.637   2.933 -1.2000 -1.1846  0.6030
   21DG      H7  467   3.622   4.485   2.844 -0.8494  1.3442 -0.8566
   21DG      H8  468   3.722   4.504   2.994 -0.7594  0.2238  0.0897
   21DG      O9  469   3.953   4.993   2.596  0.2078  0.3613 -0.1199
   21DG     O10  470   3.783   4.622   2.842  0.0737  0.2049  0.3425
   21DG     C11  471   3.977   4.898   2.492  0.3607  0.1633 -0.0414
   21DG     C12  472   3.874   4.522   2.783 -0.2047  0.5290  0.2724
   21DG     H13  473   4.045   4.940   2.418  0.2062 -0.2413 -0.4189
   21DG     H14  474   3.885   4.864   2.445 -0.6172  2.8738 -0.2611
   21DG     H15  475   3.817   4.464   2.711 -0.5714  1.6005 -0.3248
   21DG     H16  476   3.923   4.458   2.857  2.0112 -0.0736 -1.5908
   21DG     C17  477   4.038   4.770   2.553 -0.0551  0.1423 -0.3581
   21DG     C18  478   3.992   4.587   2.709 -0.3825  0.7431  0.0390
   21DG     O19  479   3.943   4.705   2.643  0.1882 -0.3666  0.1458
   21DG     H20  480   4.125   4.796   2.613 -0.8033  3.6707 -0.5749
   21DG     H21  481   4.057   4.698   2.474  0.5329  0.6103 -0.6483
   21DG     H22  482   4.061   4.616   2.789  1.9148 -0.4019 -1.4052
   21DG     H23  483   4.045   4.514   2.647 -0.1622  1.7003 -0.9213
   22DG      C1  484   5.436   3.056   3.945 -0.1126 -0.1218 -0.4716
   22DG      C2  485   6.046   2.778   3.976  0.5235 -1.2415  0.5645
   22DG      H3  486   5.331   3.043   3.972 -0.1126 -1.6396 -1.1058
   22DG      H4  487   5.447   3.037   3.838  0.1736  0.0778 -0.4790
   22DG      H5  488   5.450   3.159   3.975 -1.5544 -0.0350 -0.0386
   22DG      H6  489   6.074   2.837   3.888  2.6890 -0.1423  1.9093
   22DG      H7  490   6.113   2.817   4.053 -0.5498 -1.4153  1.6104
   22DG      H8  491   6.085   2.679   3.956  1.2411 -1.2476  1.8908
   22DG      O9  492   5.512   2.970   4.029  0.7289 -0.8761  0.4838
   22DG     O10  493   5.914   2.800   4.024 -0.1597 -0.1167 -0.0565
   22DG     C11  494   5.495   3.002   4.164 -0.4224 -0.1289 -0.4014
   22DG     C12  495   5.912   2.769   4.167  0.2845 -0.4702 -0.4211
   22DG     H13  496   5.391   2.995   4.197 -0.7136 -0.6340 -1.3666
   22DG     H14  497   5.537   3.101   4.181 -0.1048 -0.3864  0.3751
   22DG     H15  498   5.976   2.840   4.219 -1.4139  0.5157  0.4053
   22DG     H16  499   5.941   2.667   4.192 -1.0340  0.1469  4.7485
   22DG     C17  500   5.567   2.898   4.239  0.4216  0.2062  0.0860
   22DG     C18  501   5.769   2.775   4.220 -0.0029 -0.4391 -0.4875
   22DG     O19  502   5.699   2.895   4.189  0.2770  0.0866  0.5160
   22DG     H20  503   5.507   2.808   4.225 -0.0696  0.7712 -1.6210
   22DG     H21  504   5.565   2.914   4.347 -0.9008  1.0374 -0.0482
   22DG     H22  505   5.716   2.688   4.181  1.3209 -1.7423  0.4784
   22DG     H23  506   5.779   2.763   4.328  0.4595 -0.2099 -0.4995
   23DG      C1  507   3.883   4.021   1.165  0.1308 -0.1484  0.2454
   23DG      C2  508   3.221   4.180   1.671  0.0904 -0.3080 -0.3134
   23DG      H3  509   3.988   4.047   1.181  0.9290 -2.8587 -0.1678
   23DG      H4  510   3.856   4.071   1.072  0.1924  1.2422  0.9328
   23DG      H5  511   3.878   3.913   1.156 -1.3508 -0.0782 -0.0341
   23DG      H6  512   3.156   4.243   1.732  0.6161  0.5058 -0.5778
   23DG      H7  513   3.187   4.211   1.572 -0.0610  1.7062  0.3256
   23DG      H8  514   3.199   4.074   1.681 -0.9414 -0.1374 -0.6656
   23DG      O9  515   3.805   4.064   1.281  0.1615  0.3766  0.4344
   23DG     O10  516   3.357   4.219   1.678  0.1436 -0.0700 -0.5361
   23DG     C11  517   3.782   4.203   1.302  0.3589  0.1964  0.1670
   23DG     C12  518   3.450   4.137   1.607  0.2672 -0.5233  0.0387
   23DG     H13  519   3.755   4.260   1.213  1.0134 -0.6466 -0.5988
   23DG     H14  520   3.871   4.248   1.348  1.6645 -0.7876 -1.2889
   23DG     H15  521   3.417   4.034   1.614 -2.3689  0.2756  0.4054
   23DG     H16  522   3.546   4.154   1.655  0.0445  0.0706  0.2940
   23DG     C17  523   3.675   4.216   1.412  0.8491  0.1018  0.2150
   23DG     C18  524   3.451   4.181   1.463  0.0249 -0.0265 -0.0513
   23DG     O19  525   3.560   4.144   1.380  0.0762 -0.0159  0.3636
   23DG     H20  526   3.663   4.324   1.419  1.4078  0.2510 -0.9040
   23DG     H21  527   3.717   4.168   1.500 -1.8733  2.3186  2.8933
   23DG     H22  528   3.361   4.134   1.420  0.5595 -2.7875  1.5840
   23DG     H23  529   3.439   4.289   1.454 -0.1426 -0.0993 -0.7690
   24DG      C1  530   5.108   4.552   3.381  0.5354  0.6469  0.2828
   24DG      C2  531   4.980   5.215   3.122 -0.6412  1.2533 -0.9962
   24DG      H3  532   5.205   4.554   3.430  0.4907  0.4759  0.3783
   24DG      H4  533   5.107   4.517   3.278  0.9575 -0.8750  0.7726
   24DG      H5  534   5.052   4.469   3.424  0.7072 -0.3585 -1.3672
   24DG      H6  535   5.086   5.233   3.102 -0.0268 -0.3260  0.5658
   24DG      H7  536   4.944   5.167   3.032  0.4291 -0.0861 -0.7471
   24DG      H8  537   4.917   5.303   3.132 -1.6179  0.3665  1.3370
   24DG      O9  538   5.030   4.670   3.386 -0.3446 -0.3474 -0.4544
   24DG     O10  539   4.960   5.120   3.234 -0.0185  0.5798 -0.1524
   24DG     C11  540   4.992   4.703   3.519  0.5051 -0.4287 -0.0780
   24DG     C12  541   5.012   5.162   3.360 -0.0673  0.1359  0.5195
   24DG     H13  542   5.075   4.679   3.585  0.6691  0.8009  0.1787
   24DG     H14  543   4.908   4.645   3.557  0.9966 -0.9742  0.1875
   24DG     H15  544   4.977   5.263   3.380 -0.1249  0.1688  0.2601
   24DG     H16  545   5.119   5.179   3.360 -0.1913  1.5868 -2.2808
   24DG     C17  546   4.930   4.846   3.531 -0.0528  0.5252 -0.3812
   24DG     C18  547   4.964   5.071   3.478  0.2326 -0.4392  0.3569
   24DG     O19  548   5.013   4.933   3.455  0.2548  0.0312  0.0890
   24DG     H20  549   4.927   4.873   3.637  1.6105 -2.5164  0.5877
   24DG     H21  550   4.825   4.832   3.508 -0.0003 -1.7060  0.4640
   24DG     H22  551   5.012   5.106   3.570 -0.1143 -1.1417  0.8120
   24DG     H23  552   4.857   5.086   3.494  0.5948  0.7882  1.8204
   25DG      C1  553   2.768   4.584   3.729  0.2518  0.2263  0.1025
   25DG      C2  554   2.289   4.087   3.834 -0.2950  0.3177 -0.1660
   25DG      H3  555   2.843   4.522   3.681  0.2081  1.3590 -1.4984
   25DG      H4  556   2.787   4.575   3.836  1.0462  1.1830  0.0564
   25DG      H5  557   2.795   4.687   3.704  1.9053 -0.1369  0.2302
   25DG      H6  558   2.359   4.016   3.791  1.7239  2.1523 -0.0577
   25DG      H7  559   2.306   4.093   3.941  0.3921 -0.2436 -0.2432
   25DG      H8  560   2.188   4.047   3.821  0.1551 -1.0943  0.5843
   25DG      O9  561   2.638   4.546   3.679 -0.3411 -0.1050 -0.5711
   25DG     O10  562   2.304   4.207   3.768  0.0367 -0.1496  0.3535
   25DG     C11  563   2.545   4.645   3.714  0.6693 -0.2564 -0.2921
   25DG     C12  564   2.205   4.310   3.791  0.1902  0.4186  0.1932
   25DG     H13  565   2.574   4.742   3.672  1.5868  0.6350  2.2597
   25DG     H14  566   2.537   4.656   3.822 -0.4976  1.5532 -0.5217
   25DG     H15  567   2.189   4.340   3.895 -1.5920 -0.6345  0.2698
   25DG     H16  568   2.106   4.268   3.769  0.7572 -2.0523  1.9398
   25DG     C17  569   2.402   4.601   3.673 -1.1041 -0.8236  0.0285
   25DG     C18  570   2.236   4.440   3.707 -0.0879 -0.0241  0.6720
   25DG     O19  571   2.370   4.477   3.732  0.0854  0.3434  0.0439
   25DG     H20  572   2.403   4.582   3.565 -0.5256 -1.7764  0.1847
   25DG     H21  573   2.332   4.684   3.677  0.6899  1.0322 -3.1815
   25DG     H22  574   2.229   4.423   3.600 -1.1631  0.0486  0.7221
   25DG     H23  575   2.164   4.519   3.729 -0.8848  0.0283 -1.8682
   26DG      C1  576   1.980   4.676   2.350  0.4486 -0.0176  1.3759
   26DG      C2  577   2.057   4.022   2.231  0.5082 -0.0952  0.6242
   26DG      H3  578   2.033   4.648   2.441  2.5345  2.1656  0.9465
   26DG      H4  579   1.893   4.739   2.366  0.2164 -0.1349  0.6229
   26DG      H5  580   2.053   4.740   2.300 -0.5874  2.3103  2.7365
   26DG      H6  581   2.022   3.919   2.228  1.4397 -0.4275  0.8103
   26DG      H7  582   2.145   4.017   2.166 -0.2381 -1.7017 -0.3094
   26DG      H8  583   2.098   4.037   2.331  0.9213 -0.0491  0.4516
   26DG      O9  584   1.937   4.565   2.268  0.2240  0.1241 -0.1018
   26DG     O10  585   1.966   4.127   2.217 -0.4912 -0.4459  0.1054
   26DG     C11  586   1.901   4.594   2.129  0.3140  0.3505 -0.0080
   26DG     C12  587   1.913   4.126   2.084 -0.0732  0.0391 -0.0069
   26DG     H13  588   1.987   4.615   2.066  1.9109 -0.0550  1.9501
   26DG     H14  589   1.839   4.683   2.137 -0.4202 -0.1800  0.3727
   26DG     H15  590   1.866   4.030   2.062 -0.1887 -0.2430  1.4095
   26DG     H16  591   1.995   4.123   2.012  0.8462  0.3426  1.0068
   26DG     C17  592   1.827   4.475   2.065  0.7375 -0.2857 -0.6003
   26DG     C18  593   1.822   4.244   2.057 -1.1827  0.1381  0.6517
   26DG     O19  594   1.899   4.360   2.078  0.0003 -0.2112 -0.3446
   26DG     H20  595   1.815   4.486   1.957  3.1665  0.1595 -0.8781
   26DG     H21  596   1.736   4.482   2.124  1.9193  2.6460  1.0604
   26DG     H22  597   1.791   4.246   1.952  0.8593  1.4466  0.0015
   26DG     H23  598   1.730   4.234   2.114 -0.8820 -0.7343  0.9970
   27DG      C1  599   4.637   5.382   4.957  0.0520 -0.1355 -0.8479
   27DG      C2  600   4.781   5.988   5.067  0.3731 -0.6405  0.4552
   27DG      H3  601   4.561   5.376   4.880  1.0375  1.6062 -2.0295
   27DG      H4  602   4.676   5.281   4.967  1.1629  0.4885  3.5168
   27DG      H5  603   4.717   5.439   4.909  0.8099 -0.1474  0.3530
   27DG      H6  604   4.686   6.013   5.020  1.2523 -1.1778 -1.7024
   27DG      H7  605   4.791   6.055   5.153  0.2532 -0.2328  0.1573
   27DG      H8  606   4.857   6.018   4.994  0.2619  0.5560  0.8060
   27DG      O9  607   4.588   5.433   5.084  0.2392 -0.5270  0.1475
   27DG     O10  608   4.772   5.853   5.103  0.0202 -0.0007  0.0065
   27DG     C11  609   4.669   5.399   5.194  0.1169  0.1228  0.2242
   27DG     C12  610   4.884   5.822   5.183 -1.3508  0.4928  0.1668
   27DG     H13  611   4.689   5.292   5.192 -3.1339 -0.6036 -1.4315
   27DG     H14  612   4.615   5.420   5.286  1.6307 -1.7078  1.6049
   27DG     H15  613   4.862   5.853   5.285 -0.9209  1.0937  0.0817
   27DG     H16  614   4.979   5.868   5.156 -0.7828 -0.3466  0.6746
   27DG     C17  615   4.798   5.472   5.196 -0.7423  0.1333 -0.6995
   27DG     C18  616   4.913   5.674   5.181 -0.4338 -0.1883 -0.2419
   27DG     O19  617   4.782   5.610   5.180 -0.2543 -0.1593 -0.1656
   27DG     H20  618   4.853   5.433   5.111  1.4825 -0.7085  1.0221
   27DG     H21  619   4.868   5.442   5.275  0.0879  1.2175 -0.9937
   27DG     H22  620   4.976   5.648   5.096  2.0505 -0.2950  1.5209
   27DG     H23  621   4.970   5.644   5.269 -0.2705 -0.4897 -0.4467
   28DG      C1  622   3.888   3.031   4.164  0.9810  0.5584 -0.2999
   28DG      C2  623   3.814   2.390   4.283 -0.2307 -0.3876  0.7929
   28DG      H3  624   3.873   3.042   4.272  0.4818  1.1992 -0.4295
   28DG      H4  625   3.799   3.069   4.115 -1.3588 -4.2897 -0.4036
   28DG      H5  626   3.967   3.103   4.141  1.2347  0.0819 -0.9343
   28DG      H6  627   3.860   2.292   4.297  0.3088 -0.0250  1.6320
   28DG      H7  628   3.787   2.436   4.378 -0.5092  1.3482 -0.1010
   28DG      H8  629   3.724   2.395   4.222  0.0729 -0.1328  0.3609
   28DG      O9  630   3.918   2.889   4.135  0.5720  0.1484  0.2224
   28DG     O10  631   3.918   2.474   4.227 -0.0803  0.1577  0.9160
   28DG     C11  632   3.952   2.859   4.004  0.0078 -0.5377 -0.3144
   28DG     C12  633   3.958   2.426   4.102 -0.1596 -0.2203 -0.0126
   28DG     H13  634   4.039   2.920   3.980  0.1410 -0.6930 -0.2241
   28DG     H14  635   3.874   2.894   3.936 -0.5973  1.0561  1.0990
   28DG     H15  636   3.874   2.453   4.038  0.8326 -0.0557 -1.2811
   28DG     H16  637   3.976   2.319   4.110  0.7094 -0.0201  1.1243
   28DG     C17  638   3.992   2.711   3.978 -0.1109 -0.4114 -0.0950
   28DG     C18  639   4.085   2.505   4.063  0.7800  0.7939 -0.3986
   28DG     O19  640   4.069   2.648   4.072  0.1694 -0.0922 -0.5078
   28DG     H20  641   4.045   2.703   3.883  0.2286  0.6305 -0.0060
   28DG     H21  642   3.897   2.657   3.986 -1.7347  2.2169 -0.6442
   28DG     H22  643   4.165   2.475   4.130 -0.1458  0.5191  0.6127
   28DG     H23  644   4.138   2.476   3.972  0.5600  0.8364 -0.5422
   29DG      C1  645   4.982   0.480   3.973 -0.2433 -0.2902 -0.4599
   29DG      C2  646   5.313   0.759   3.430  0.1973  0.5769  0.6578
   29DG      H3  647   4.951   0.416   4.055 -0.0180  1.1657  0.8196
   29DG      H4  648   4.921   0.496   3.883 -2.2011  0.4831  0.9307
   29DG      H5  649   4.971   0.572   4.031  0.6504 -1.7388  2.1264
   29DG      H6  650   5.317   0.864   3.458  0.5963  0.0621  2.6138
   29DG      H7  651   5.404   0.705   3.455 -0.1051 -1.1079 -1.5818
   29DG      H8  652   5.318   0.736   3.323  0.0228  0.3268  0.7042
   29DG      O9  653   5.120   0.447   3.940  0.1141 -0.8638  0.1912
   29DG     O10  654   5.200   0.692   3.490 -0.3216 -0.7136  0.7771
   29DG     C11  655   5.131   0.326   3.869 -0.2364 -0.0293 -1.0981
   29DG     C12  656   5.167   0.566   3.429 -0.0043 -0.7043  0.1922
   29DG     H13  657   5.093   0.244   3.930  0.4722 -0.0505 -0.6725
   29DG     H14  658   5.236   0.296   3.872 -0.1360  0.2114 -1.9266
   29DG     H15  659   5.262   0.514   3.410 -0.1723 -1.0832  0.3638
   29DG     H16  660   5.113   0.586   3.337 -0.1218  0.5472  0.5149
   29DG     C17  661   5.071   0.331   3.723  0.3532  0.7583 -0.0066
   29DG     C18  662   5.084   0.471   3.522 -0.1345 -0.5277  0.5042
   29DG     O19  663   5.146   0.431   3.645  0.3778  0.1464  0.0276
   29DG     H20  664   4.963   0.348   3.717  0.3078 -0.0529 -3.4614
   29DG     H21  665   5.092   0.237   3.671 -0.2028  0.3288  0.5261
   29DG     H22  666   4.986   0.518   3.528 -0.0956 -0.4310  0.3742
   29DG     H23  667   5.057   0.387   3.458  0.0656  0.2398 -0.6281
   30DG      C1  668   2.387   2.064   1.247 -0.0661  0.0453 -0.2803
   30DG      C2  669   2.011   2.239   1.791 -0.3569  0.0686  0.6211
   30DG      H3  670   2.291   2.062   1.197 -0.7518 -0.2978  1.0091
   30DG      H4  671   2.451   1.985   1.208  2.2026  1.6448 -0.0424
   30DG      H5  672   2.434   2.161   1.228 -1.2185  0.6529 -0.1282
   30DG      H6  673   1.998   2.258   1.897  0.9013  3.5727  0.2666
   30DG      H7  674   2.026   2.336   1.744  0.2938 -0.5728 -0.5582
   30DG      H8  675   1.918   2.199   1.750 -0.0434  1.2663 -1.4056
   30DG      O9  676   2.367   2.042   1.389 -0.1726 -0.0867 -0.0190
   30DG     O10  677   2.124   2.145   1.780  0.0881 -0.3010 -0.4290
   30DG     C11  678   2.488   2.044   1.462 -0.0061  0.5485 -0.4328
   30DG     C12  679   2.243   2.207   1.834  0.6789  0.3192 -0.0858
   30DG     H13  680   2.537   2.140   1.448  0.7221  0.5454  1.7083
   30DG     H14  681   2.550   1.957   1.437 -0.0359  0.3367  0.2154
   30DG     H15  682   2.238   2.214   1.942 -0.7086 -1.8881  0.0694
   30DG     H16  683   2.253   2.305   1.787 -2.4373  0.1954 -1.2452
   30DG     C17  684   2.472   2.030   1.610 -0.0636  0.0562 -0.1643
   30DG     C18  685   2.367   2.120   1.808 -0.3094 -0.4712 -0.3370
   30DG     O19  686   2.366   2.105   1.666 -0.0677 -0.3970  0.4632
   30DG     H20  687   2.563   2.066   1.656 -0.4430 -0.8270  1.3410
   30DG     H21  688   2.465   1.925   1.641  1.2027  0.3972  1.3575
   30DG     H22  689   2.459   2.169   1.839 -0.3045 -0.7184  0.0547
   30DG     H23  690   2.356   2.022   1.856  1.4966 -0.6190 -0.1637
   31DG      C1  691   4.005   1.437   0.353  0.6767 -0.2629  0.3800
   31DG      C2  692   3.418   1.797   0.159  0.2921 -0.3357  0.4346
   31DG      H3  693   3.976   1.358   0.284  0.9230 -0.0367  0.0109
   31DG      H4  694   3.963   1.415   0.451  1.0045 -0.2459  0.5257
   31DG      H5  695   4.113   1.451   0.355  0.8236 -1.1490 -0.5372
   31DG      H6  696   3.394   1.903   0.149 -1.1655 -0.4645  2.1332
   31DG      H7  697   3.342   1.739   0.107  1.5023 -1.5461 -0.0536
   31DG      H8  698   3.403   1.779   0.265  0.5621 -1.4349  0.2955
   31DG      O9  699   3.935   1.548   0.298 -0.2882  0.4300  0.2273
   31DG     O10  700   3.558   1.782   0.145  0.4785  0.2337 -0.5134
   31DG     C11  701   4.013   1.611   0.198  0.6614 -0.8092  0.4109
   31DG     C12  702   3.608   1.810   0.025  0.4393  0.1305 -0.5062
   31DG     H13  703   4.012   1.533   0.121 -1.7868  0.2441 -0.7319
   31DG     H14  704   4.114   1.637   0.229  1.0076  1.1046 -2.0119
   31DG     H15  705   3.559   1.891  -0.029  1.9915  1.5135  0.0933
   31DG     H16  706   3.590   1.722  -0.038 -0.2190 -0.7629  0.8597
   31DG     C17  707   3.946   1.738   0.139 -0.5467 -0.1925  0.0040
   31DG     C18  708   3.754   1.834   0.038 -0.0048 -0.0974  0.3157
   31DG     O19  709   3.814   1.721   0.096  0.2646  0.3180  0.2046
   31DG     H20  710   4.005   1.782   0.058  2.2124 -1.1345  1.3562
   31DG     H21  711   3.949   1.810   0.220 -0.3370  1.9703 -1.8042
   31DG     H22  712   3.790   1.859  -0.062 -2.0896  0.6231 -0.2977
   31DG     H23  713   3.765   1.920   0.105 -1.5281  1.5583 -1.4747
   32DG      C1  714   1.121   4.830   1.537  0.2453 -0.6000  0.0399
   32DG      C2  715   0.654   5.232   1.603  0.6397  0.3824  0.7801
   32DG      H3  716   1.196   4.754   1.561  1.7954  0.4424 -1.2224
   32DG      H4  717   1.167   4.905   1.471 -1.6551 -0.2403 -0.9297
   32DG      H5  718   1.041   4.780   1.482 -2.0273 -0.1826  2.7504
   32DG      H6  719   0.563   5.174   1.585  0.3471  0.4627  1.8895
   32DG      H7  720   0.615   5.318   1.659 -1.2021  0.9936 -1.2827
   32DG      H8  721   0.691   5.271   1.509  1.2139 -4.3854 -1.2052
   32DG      O9  722   1.064   4.895   1.654  0.0185  0.0998 -0.6958
   32DG     O10  723   0.759   5.161   1.666 -0.0230 -0.3108  0.5765
   32DG     C11  724   1.156   4.932   1.753  0.2262  0.3331 -0.5628
   32DG     C12  725   0.868   5.250   1.689  0.2933 -0.3205  0.0379
   32DG     H13  726   1.221   4.999   1.697  0.9503 -0.8894 -1.2396
   32DG     H14  727   1.233   4.864   1.790  1.1604  1.0634 -1.1211
   32DG     H15  728   0.845   5.321   1.768  1.8714  1.5585 -1.1140
   32DG     H16  729   0.879   5.305   1.595  0.6096 -1.7146 -0.7858
   32DG     C17  730   1.071   5.003   1.867  0.5510 -0.6168 -0.5065
   32DG     C18  731   0.992   5.177   1.724  0.5409 -0.6612 -0.5403
   32DG     O19  732   0.958   5.077   1.825 -0.1215  0.1313  0.1726
   32DG     H20  733   1.138   5.060   1.931 -0.0496 -1.8599  1.2989
   32DG     H21  734   1.049   4.927   1.942  3.1100 -0.6644  0.3132
   32DG     H22  735   1.049   5.131   1.643  2.4018  1.2330 -0.3874
   32DG     H23  736   1.053   5.252   1.775 -0.6387 -0.0570  0.0298
   33DG      C1  737   4.889   3.239   4.731 -0.1852  0.3582 -0.6942
   33DG      C2  738   4.826   3.647   5.197  0.3063 -0.1138 -0.1597
   33DG      H3  739   4.997   3.250   4.733 -0.1226 -0.2529  1.2943
   33DG      H4  740   4.834   3.326   4.694 -0.0539  0.0248 -1.6966
   33DG      H5  741   4.856   3.158   4.666 -2.3199  2.5411 -2.5067
   33DG      H6  742   4.923   3.683   5.163  1.2217 -0.0433  2.2804
   33DG      H7  743   4.763   3.700   5.126 -0.4403  0.1665  0.6924
   33DG      H8  744   4.810   3.672   5.302 -1.9163  0.1681 -0.5177
   33DG      O9  745   4.842   3.230   4.866  0.6810 -0.4982  0.3132
   33DG     O10  746   4.830   3.506   5.187  0.6111  0.3839 -0.8110
   33DG     C11  747   4.884   3.121   4.933 -0.4542  0.4106 -0.8365
   33DG     C12  748   4.739   3.425   5.265  0.5590  0.2667  0.0523
   33DG     H13  749   4.989   3.143   4.950 -0.5293  0.8175 -0.8921
   33DG     H14  750   4.868   3.026   4.883  0.7299 -2.1280  3.1065
   33DG     H15  751   4.635   3.436   5.234  0.8338  0.4357 -0.8454
   33DG     H16  752   4.758   3.455   5.368 -0.3488 -0.5946  0.4776
   33DG     C17  753   4.808   3.124   5.072 -1.3136 -0.0541  0.5585
   33DG     C18  754   4.787   3.283   5.245 -0.4783  0.1165 -0.3443
   33DG     O19  755   4.812   3.260   5.105  0.7598  0.5345  0.5725
   33DG     H20  756   4.853   3.059   5.147 -0.9187 -1.5712 -0.9397
   33DG     H21  757   4.705   3.092   5.062 -1.6037  0.6781  1.1063
   33DG     H22  758   4.878   3.265   5.303 -2.2243 -3.0787  1.7242
   33DG     H23  759   4.705   3.220   5.279 -0.1117  0.5510  1.4425
   34DG      C1  760   4.195   2.549   4.486 -0.1590 -0.1277  0.3925
   34DG      C2  761   3.623   2.741   4.163  0.0706  0.2344  0.1294
   34DG      H3  762   4.277   2.599   4.539  2.3842 -2.2238 -1.2872
   34DG      H4  763   4.233   2.536   4.384 -0.2337  0.1377  0.3287
   34DG      H5  764   4.186   2.445   4.517 -2.2299 -0.4758 -1.1386
   34DG      H6  765   3.630   2.848   4.140  2.0347  0.2156  0.4422
   34DG      H7  766   3.682   2.689   4.087 -0.3633  0.3078 -0.2654
   34DG      H8  767   3.521   2.705   4.167 -0.0910  0.8355  2.7343
   34DG      O9  768   4.064   2.604   4.494  0.3137 -0.2827  0.2287
   34DG     O10  769   3.686   2.710   4.284 -0.4278 -0.0546 -0.9282
   34DG     C11  770   4.023   2.626   4.637  0.0606 -0.7360 -0.3250
   34DG     C12  771   3.641   2.783   4.395 -0.2224  0.7033  0.3072
   34DG     H13  772   4.073   2.718   4.671 -0.4964  0.3091 -2.1891
   34DG     H14  773   4.063   2.544   4.697  1.5004  1.2282  1.5794
   34DG     H15  774   3.532   2.779   4.397 -0.2268 -0.0289 -0.6591
   34DG     H16  775   3.675   2.885   4.376 -0.1240  0.5338 -0.4607
   34DG     C17  776   3.870   2.633   4.645  0.2858  0.3087 -0.2567
   34DG     C18  777   3.686   2.714   4.522  0.1513  0.2053  0.5042
   34DG     O19  778   3.825   2.708   4.532  0.2101 -0.1717  0.2009
   34DG     H20  779   3.830   2.677   4.736 -0.5623  0.5739 -0.7475
   34DG     H21  780   3.826   2.535   4.630  0.0923  0.4255 -0.4627
   34DG     H22  781   3.660   2.774   4.610 -0.5342  0.4221  0.1602
   34DG     H23  782   3.634   2.619   4.527 -0.7116  0.5002 -1.8284
   35DG      C1  783   1.560   3.368   0.458  0.2260  0.1297  0.2700
   35DG      C2  784   1.506   3.639   1.086  0.1262 -0.1004 -0.3327
   35DG      H3  785   1.454   3.348   0.468  0.5722 -1.9003  0.3282
   35DG      H4  786   1.608   3.285   0.510  1.8042  2.2968  2.5210
   35DG      H5  787   1.585   3.370   0.352 -1.5236  0.7504 -0.1589
   35DG      H6  788   1.538   3.713   1.160 -0.6064 -0.3968  0.2889
   35DG      H7  789   1.397   3.645   1.087  0.1984  1.6806  0.3157
   35DG      H8  790   1.539   3.540   1.117  0.1736 -0.2398 -0.8133
   35DG      O9  791   1.605   3.485   0.527 -0.4721  0.1932  0.2831
   35DG     O10  792   1.560   3.666   0.954  0.3382 -0.5279  0.2989
   35DG     C11  793   1.574   3.603   0.455 -0.5266  0.6833  0.0402
   35DG     C12  794   1.511   3.786   0.889 -0.7925 -0.2040 -0.0960
   35DG     H13  795   1.469   3.603   0.425  0.2917  1.1087 -3.0900
   35DG     H14  796   1.640   3.605   0.368  1.1510  2.7621  1.2471
   35DG     H15  797   1.532   3.867   0.959  2.3059 -0.7706 -0.2026
   35DG     H16  798   1.403   3.778   0.878 -0.7957 -0.2229 -0.0523
   35DG     C17  799   1.613   3.716   0.538 -0.5706 -1.2109  0.1536
   35DG     C18  800   1.573   3.815   0.748  1.0455  0.9609 -0.1374
   35DG     O19  801   1.564   3.696   0.670 -0.1186  0.1647  0.4455
   35DG     H20  802   1.567   3.802   0.489  0.6601 -1.2595 -1.1582
   35DG     H21  803   1.722   3.718   0.547 -0.2027  1.8580 -2.8552
   35DG     H22  804   1.505   3.882   0.697 -0.7863  0.8244  1.9717
   35DG     H23  805   1.675   3.853   0.747  1.6962 -0.6901 -2.2424
   36DG      C1  806   4.689   4.531   1.081 -0.7269  0.6135 -0.0148
   36DG      C2  807   5.292   4.816   1.231  0.1655  0.1628  0.1359
   36DG      H3  808   4.648   4.586   1.166 -1.1874  0.5549 -0.1981
   36DG      H4  809   4.617   4.450   1.075 -1.5085  1.3718 -1.3735
   36DG      H5  810   4.674   4.586   0.989  0.2031  0.2909 -0.3745
   36DG      H6  811   5.222   4.889   1.272 -0.0514  0.1045 -0.1253
   36DG      H7  812   5.336   4.767   1.318  1.2491  2.2012  0.7854
   36DG      H8  813   5.379   4.870   1.194 -0.2526  2.6694  2.5130
   36DG      O9  814   4.829   4.503   1.099 -0.0035 -0.3488  0.1077
   36DG     O10  815   5.236   4.724   1.147 -0.0056 -0.4045 -0.1430
   36DG     C11  816   4.867   4.429   1.214 -0.7335  0.8290 -0.0672
   36DG     C12  817   5.307   4.606   1.125 -0.1048  0.2165 -0.8893
   36DG     H13  818   4.806   4.343   1.239  0.8844  0.2273  2.1342
   36DG     H14  819   4.850   4.486   1.305  1.5309  0.0249  0.9445
   36DG     H15  820   5.411   4.604   1.156 -0.6001  0.3918  0.9147
   36DG     H16  821   5.307   4.584   1.018  2.3973 -0.1662 -0.8664
   36DG     C17  822   5.019   4.383   1.211  0.4597  0.0565 -0.0663
   36DG     C18  823   5.234   4.491   1.199  0.1487 -0.3397 -0.6025
   36DG     O19  824   5.102   4.483   1.154  0.1390 -0.0129  0.0925
   36DG     H20  825   5.036   4.291   1.155  0.2715 -0.6465  1.0093
   36DG     H21  826   5.045   4.370   1.316 -1.6752 -0.3415  0.4704
   36DG     H22  827   5.291   4.399   1.199 -0.2169 -0.5830  0.4394
   36DG     H23  828   5.216   4.513   1.304 -1.1193  0.1797 -0.9035
   37DG      C1  829   2.323   4.637   2.169 -0.1229 -0.2680 -0.2102
   37DG      C2  830   1.777   4.335   2.441 -0.2129 -0.3740 -0.4288
   37DG      H3  831   2.418   4.597   2.135 -0.1731 -0.9555  0.4276
   37DG      H4  832   2.344   4.730   2.222  0.9080 -0.9677  0.6557
   37DG      H5  833   2.275   4.660   2.074  1.1923  2.0615 -0.3750
   37DG      H6  834   1.770   4.444   2.446 -1.5101 -0.4596 -0.1034
   37DG      H7  835   1.757   4.318   2.336 -0.5353 -0.6075 -0.3304
   37DG      H8  836   1.700   4.290   2.503 -1.1195 -0.5025 -1.6392
   37DG      O9  837   2.259   4.541   2.250 -0.4434 -0.5294  0.4170
   37DG     O10  838   1.906   4.288   2.477  0.0842  0.0414  0.6514
   37DG     C11  839   2.323   4.525   2.379 -0.5890  0.2474  0.6924
   37DG     C12  840   1.957   4.319   2.610  0.0358 -0.1694  0.6835
   37DG     H13  841   2.303   4.614   2.438 -0.9861  0.7920 -0.2449
   37DG     H14  842   2.430   4.517   2.357 -0.9828  0.2883 -1.4958
   37DG     H15  843   1.937   4.235   2.677  1.6137 -0.8234  0.3750
   37DG     H16  844   1.922   4.410   2.658 -0.8680 -1.2924  2.2382
   37DG     C17  845   2.282   4.413   2.467 -0.0419 -0.0468  0.5450
   37DG     C18  846   2.111   4.341   2.608  0.9226  0.1777  0.0745
   37DG     O19  847   2.143   4.424   2.493  0.1365 -0.0060  0.1817
   37DG     H20  848   2.348   4.400   2.553  1.6315 -2.7221 -0.9891
   37DG     H21  849   2.290   4.318   2.414 -0.7500  0.1323  0.0979
   37DG     H22  850   2.137   4.403   2.694 -0.6016  0.4380  0.3650
   37DG     H23  851   2.162   4.245   2.604 -0.4857 -0.6011  0.4485
   38DG      C1  852   1.536   1.968   1.215  0.0487 -0.0694 -0.0103
   38DG      C2  853   0.897   1.888   1.167  0.5825  0.0750  0.5132
   38DG      H3  854   1.496   2.008   1.308  0.0815 -0.2919  0.1006
   38DG      H4  855   1.611   2.035   1.174  0.3131 -0.8575 -0.8586
   38DG      H5  856   1.582   1.874   1.246 -0.1041 -0.2613 -0.3593
   38DG      H6  857   0.802   1.835   1.157  0.4752  0.2967  0.3570
   38DG      H7  858   0.893   1.957   1.250  1.4586 -1.5778  2.0048
   38DG      H8  859   0.899   1.954   1.081 -1.6763  0.3767  0.6292
   38DG      O9  860   1.437   1.940   1.121  0.1691 -0.1604  0.2588
   38DG     O10  861   1.013   1.805   1.172 -0.2538 -0.0636 -0.4131
   38DG     C11  862   1.470   1.866   1.004  0.3874 -0.0086  0.8632
   38DG     C12  863   1.012   1.702   1.069 -0.6225  0.0744 -0.4074
   38DG     H13  864   1.530   1.781   1.034  1.2845 -0.7463 -2.6499
   38DG     H14  865   1.522   1.928   0.931  0.2200  0.0161  0.7647
   38DG     H15  866   0.912   1.694   1.027 -0.8637  0.3131  0.1131
   38DG     H16  867   1.044   1.604   1.104  0.3438  0.3253 -0.5685
   38DG     C17  868   1.350   1.806   0.934  0.0569 -0.4028  0.6795
   38DG     C18  869   1.112   1.751   0.965  0.5403 -0.4396 -0.0708
   38DG     O19  870   1.239   1.789   1.022 -0.0186  1.0969  0.1192
   38DG     H20  871   1.380   1.717   0.878 -0.1774  0.0218 -0.1394
   38DG     H21  872   1.308   1.873   0.859  0.7018 -1.4291 -0.6424
   38DG     H22  873   1.128   1.658   0.911 -1.2996 -1.2553  0.7146
   38DG     H23  874   1.066   1.821   0.896  0.2345 -3.1156 -2.7682
   39DG      C1  875   3.415   4.663   1.424 -0.1620 -0.2284 -0.1512
   39DG      C2  876   4.033   4.547   1.692 -0.4678 -0.1158 -0.1601
   39DG      H3  877   3.411   4.562   1.465  0.1567 -0.0874  0.2388
   39DG      H4  878   3.345   4.684   1.343 -0.8904  0.1232  0.5610
   39DG      H5  879   3.412   4.726   1.513 -0.1872  0.5719 -0.7167
   39DG      H6  880   4.106   4.627   1.680  0.1257 -1.0228 -3.5798
   39DG      H7  881   3.966   4.579   1.772 -1.8707 -2.3285 -0.3830
   39DG      H8  882   4.069   4.445   1.701 -0.3686 -0.0721 -0.0493
   39DG      O9  883   3.545   4.680   1.380 -0.1005  0.1371  0.4666
   39DG     O10  884   3.965   4.565   1.573  0.1474  0.0523  0.0359
   39DG     C11  885   3.571   4.599   1.264 -0.5917 -0.3964 -0.2381
   39DG     C12  886   4.024   4.514   1.459 -0.3258 -0.2517  0.0381
   39DG     H13  887   3.505   4.652   1.196 -1.3551 -0.1482  0.6726
   39DG     H14  888   3.542   4.499   1.293 -0.1636  0.2607  2.8547
   39DG     H15  889   4.017   4.406   1.451 -1.3511 -0.2341  0.5241
   39DG     H16  890   4.129   4.541   1.452 -0.4829  0.6845  0.9996
   39DG     C17  891   3.727   4.579   1.230  0.8007  0.2227  1.0263
   39DG     C18  892   3.944   4.554   1.333  0.0467 -0.2579  0.3026
   39DG     O19  893   3.805   4.541   1.346  0.3307 -0.5209 -0.3637
   39DG     H20  894   3.770   4.669   1.186  1.9796 -0.9070 -0.2190
   39DG     H21  895   3.720   4.509   1.146 -1.3870  1.4408  0.1264
   39DG     H22  896   3.955   4.662   1.320  0.6222 -0.3620 -0.1170
   39DG     H23  897   3.988   4.502   1.248  2.5555  1.4687  0.4449
   40DG      C1  898   2.224   2.669   3.171 -0.6136  0.4855 -0.0002
   40DG      C2  899   2.779   2.270   3.002  0.1216  0.2926 -0.4318
   40DG      H3  900   2.131   2.650   3.117 -0.0737 -0.7362 -0.5346
   40DG      H4  901   2.297   2.735   3.125  1.6097  0.0712  2.6696
   40DG      H5  902   2.205   2.709   3.271  0.2415 -1.7954  1.1512
   40DG      H6  903   2.811   2.166   3.009 -2.0674 -0.3649  0.8825
   40DG      H7  904   2.794   2.311   2.903  4.3152  0.9919  0.3086
   40DG      H8  905   2.851   2.333   3.054  3.2486 -1.9556 -1.7190
   40DG      O9  906   2.289   2.544   3.165  0.1572 -0.3374  0.1790
   40DG     O10  907   2.637   2.267   3.039 -0.4899  0.5012 -0.3025
   40DG     C11  908   2.230   2.443   3.248  0.0459 -0.1087 -0.4921
   40DG     C12  909   2.610   2.180   3.153 -0.0559  0.0736  0.6099
   40DG     H13  910   2.121   2.442   3.236 -0.1929  1.0997  1.2973
   40DG     H14  911   2.251   2.467   3.351 -0.7912  2.0929 -0.7916
   40DG     H15  912   2.668   2.217   3.238  2.1326 -1.6376 -0.0195
   40DG     H16  913   2.656   2.082   3.143  2.0100  1.1150 -1.1450
   40DG     C17  914   2.277   2.301   3.209  0.0189 -0.2188 -0.2530
   40DG     C18  915   2.465   2.162   3.178 -0.6584 -0.6146 -0.6341
   40DG     O19  916   2.415   2.292   3.219 -0.0543  0.3044 -0.0156
   40DG     H20  917   2.232   2.256   3.120 -0.2399  0.2235 -0.3492
   40DG     H21  918   2.233   2.238   3.286 -0.6927 -0.9149 -1.2040
   40DG     H22  919   2.419   2.131   3.084  1.6902  0.3426 -2.1663
   40DG     H23  920   2.445   2.085   3.254  0.4257 -0.4698 -0.1931
   41DG      C1  921   0.491   1.357   1.962 -0.3402  0.5299  0.8641
   41DG      C2  922   0.095   1.921   2.041  0.0150 -0.8575  0.2587
   41DG      H3  923   0.465   1.272   1.898  0.0197  0.7843  0.3684
   41DG      H4  924   0.450   1.353   2.063  0.5614 -0.0242  1.2192
   41DG      H5  925   0.600   1.356   1.967 -0.2612 -0.2485 -0.4299
   41DG      H6  926   0.075   2.027   2.022  2.8188  0.3686  3.1754
   41DG      H7  927   0.001   1.875   2.012 -0.6668  0.6855 -0.1167
   41DG      H8  928   0.110   1.917   2.149 -1.3650  0.8227  0.5582
   41DG      O9  929   0.437   1.482   1.925  0.1218  0.1188 -0.2291
   41DG     O10  930   0.201   1.878   1.966 -0.2927  0.4416  0.3106
   41DG     C11  931   0.467   1.504   1.789 -0.3147 -0.4082 -0.6508
   41DG     C12  932   0.177   1.892   1.826  0.2787 -0.4221 -0.5611
   41DG     H13  933   0.394   1.447   1.732  0.9642 -0.6975 -2.0628
   41DG     H14  934   0.572   1.485   1.766 -0.0271  0.0262  0.2444
   41DG     H15  935   0.157   1.996   1.803 -0.1055  0.1856  2.1564
   41DG     H16  936   0.096   1.824   1.801 -0.4156  0.0500  0.3608
   41DG     C17  937   0.448   1.650   1.742 -0.0045 -0.3407  0.1063
   41DG     C18  938   0.304   1.840   1.753  0.1919  0.1698 -0.3448
   41DG     O19  939   0.322   1.700   1.783 -0.3837 -0.2821 -0.6813
   41DG     H20  940   0.455   1.646   1.634 -0.6424 -1.9322  0.0943
   41DG     H21  941   0.531   1.712   1.774 -0.5872  0.1861  0.6144
   41DG     H22  942   0.297   1.853   1.645  1.6625 -1.8146 -0.7257
   41DG     H23  943   0.382   1.904   1.796 -0.7447  0.5468  0.8495
   42DG      C1  944   3.393   1.080   5.124 -0.2673 -0.0728  0.3217
   42DG      C2  945   2.984   1.456   4.642 -0.2045  0.0124 -0.1217
   42DG      H3  946   3.303   1.048   5.176 -0.9068 -0.2643 -0.8739
   42DG      H4  947   3.467   1.080   5.204 -0.6539 -1.2431  0.6938
   42DG      H5  948   3.410   0.996   5.057 -1.6892  0.6587 -1.0021
   42DG      H6  949   2.908   1.381   4.666 -0.5459  0.7305  1.1598
   42DG      H7  950   2.948   1.556   4.665 -0.5327 -0.3377  0.9647
   42DG      H8  951   2.994   1.445   4.534 -0.3901  1.1346 -0.2588
   42DG      O9  952   3.372   1.212   5.060  0.5721  0.0606  0.5316
   42DG     O10  953   3.101   1.430   4.725 -0.0298 -0.0976  0.6203
   42DG     C11  954   3.493   1.266   4.998 -0.2984  0.3590  0.0788
   42DG     C12  955   3.215   1.503   4.683  0.4558  0.1450  0.0283
   42DG     H13  956   3.534   1.204   4.918 -1.9577 -0.4192 -0.2161
   42DG     H14  957   3.573   1.273   5.072  0.5000  0.2291 -0.7618
   42DG     H15  958   3.192   1.607   4.661  1.2982  0.2854 -0.2495
   42DG     H16  959   3.260   1.471   4.589 -0.2399  2.1617 -1.0604
   42DG     C17  960   3.472   1.407   4.938  0.4851 -0.4892 -0.0954
   42DG     C18  961   3.321   1.511   4.788 -0.8892 -0.0831  0.2181
   42DG     O19  962   3.373   1.391   4.841 -0.0422 -0.6182 -0.2191
   42DG     H20  963   3.568   1.458   4.926 -0.4349  0.8721 -2.2281
   42DG     H21  964   3.420   1.457   5.020  0.0696  0.2888 -0.8205
   42DG     H22  965   3.397   1.566   4.731 -2.4157 -0.7278 -2.6258
   42DG     H23  966   3.280   1.575   4.866 -0.0040  0.4209  0.2936
   43DG      C1  967   0.509   3.151   4.120  0.3379  0.3993  0.9886
   43DG      C2  968   0.146   2.774   3.786  1.0822  0.4676  0.5579
   43DG      H3  969   0.431   3.219   4.152 -1.0733 -1.0445  0.7253
   43DG      H4  970   0.611   3.191   4.119  0.1208  1.0024 -1.2237
   43DG      H5  971   0.499   3.064   4.185  0.6328 -0.9281 -0.6748
   43DG      H6  972   0.066   2.829   3.835  0.2718  0.8015 -1.0722
   43DG      H7  973   0.112   2.704   3.710 -1.1316  0.3982  1.5444
   43DG      H8  974   0.205   2.736   3.870 -0.7840 -1.6555  0.9961
   43DG      O9  975   0.489   3.101   3.991 -0.7801 -0.3150 -0.5891
   43DG     O10  976   0.236   2.870   3.738 -0.5046  0.5337  0.2160
   43DG     C11  977   0.520   3.205   3.896  0.3681 -0.4226 -0.4889
   43DG     C12  978   0.185   2.969   3.653 -0.1442  0.0210 -0.2993
   43DG     H13  979   0.626   3.227   3.886  0.6321 -1.9843 -1.3820
   43DG     H14  980   0.464   3.295   3.923 -1.1785 -1.6866  0.6733
   43DG     H15  981   0.108   3.025   3.707  1.2205  0.4530  1.2678
   43DG     H16  982   0.140   2.934   3.560 -1.4907  0.3537  0.1979
   43DG     C17  983   0.476   3.157   3.758 -0.2473  0.3200 -0.6863
   43DG     C18  984   0.303   3.058   3.627  0.0040 -0.0871  0.5273
   43DG     O19  985   0.338   3.101   3.760 -0.7800 -0.0751  0.2548
   43DG     H20  986   0.540   3.072   3.731 -0.4383 -0.9696  2.5203
   43DG     H21  987   0.498   3.234   3.684  0.2257  1.4117  0.5608
   43DG     H22  988   0.383   2.998   3.586  0.6938  0.7126  0.6606
   43DG     H23  989   0.292   3.134   3.550  1.0519 -1.9486 -1.5501
   44DG      C1  990   2.810   4.196   4.920 -0.2647 -0.0896  0.6137
   44DG      C2  991   2.240   3.829   5.448 -0.4992 -0.6201  0.0516
   44DG      H3  992   2.832   4.212   4.814  1.5760 -1.1267  0.7840
   44DG      H4  993   2.908   4.205   4.968  0.2312  0.0209 -0.3787
   44DG      H5  994   2.744   4.276   4.952  0.8855  0.7885  0.8459
   44DG      H6  995   2.304   3.823   5.537 -0.2652 -3.6865 -0.2129
   44DG      H7  996   2.187   3.921   5.472  0.4339 -0.1814  0.5321
   44DG      H8  997   2.174   3.743   5.452  0.9116 -1.7313  0.5036
   44DG      O9  998   2.756   4.062   4.929 -0.0389  0.0470  0.7358
   44DG     O10  999   2.319   3.849   5.329  0.0981  0.1824  0.4357
   44DG     C11 1000   2.694   4.037   5.053  0.4011 -0.0639 -0.0477
   44DG     C12 1001   2.407   3.744   5.290  0.7927 -0.2664  0.0398
   44DG     H13 1002   2.617   4.114   5.064  0.6591  0.3033 -0.7454
   44DG     H14 1003   2.772   4.048   5.128  1.0092  0.3334 -0.7304
   44DG     H15 1004   2.355   3.648   5.295  0.3541  0.0211  2.4385
   44DG     H16 1005   2.484   3.747   5.367  1.1759 -3.9691  0.0011
   44DG     C17 1006   2.627   3.901   5.050 -0.0672  0.3601  0.1878
   44DG     C18 1007   2.467   3.768   5.153  0.0702  0.1831 -0.8458
   44DG     O19 1008   2.538   3.892   5.159 -0.2927  0.8255 -0.3321
   44DG     H20 1009   2.699   3.819   5.053 -1.3351 -0.7942 -0.1736
   44DG     H21 1010   2.570   3.887   4.958 -0.4394 -0.6085  0.5572
   44DG     H22 1011   2.540   3.687   5.143 -1.0740 -0.9888 -0.1422
   44DG     H23 1012   2.403   3.775   5.065  0.7013 -2.7297 -1.6393
   45DG      C1 1013   2.291   0.382   4.302  0.2453 -0.0269 -0.1171
   45DG      C2 1014   2.641   0.588   3.745  0.1519  0.4826  0.0741
   45DG      H3 1015   2.356   0.334   4.376 -1.0401 -1.6649  0.0149
   45DG      H4 1016   2.266   0.309   4.225  0.2639 -0.5178  0.3343
   45DG      H5 1017   2.199   0.423   4.345 -0.0185 -0.2288 -0.4782
   45DG      H6 1018   2.698   0.496   3.740  1.7507  1.4278  0.3407
   45DG      H7 1019   2.555   0.592   3.678 -0.4426  0.6648  0.8344
   45DG      H8 1020   2.718   0.650   3.698 -0.0682  1.2892  0.7481
   45DG      O9 1021   2.367   0.489   4.234  0.5583  0.0733 -0.1058
   45DG     O10 1022   2.595   0.629   3.870 -0.1352  0.0169 -0.0277
   45DG     C11 1023   2.393   0.598   4.324 -0.1118 -0.3683  0.2925
   45DG     C12 1024   2.701   0.686   3.950 -0.0285  1.2094  0.4623
   45DG     H13 1025   2.440   0.564   4.416 -0.3310  0.9514  0.9186
   45DG     H14 1026   2.296   0.647   4.335  0.0287  0.3541 -1.3024
   45DG     H15 1027   2.744   0.772   3.899  2.1491 -1.5027 -2.7042
   45DG     H16 1028   2.787   0.622   3.966 -1.8295 -1.3511  0.6343
   45DG     C17 1029   2.491   0.699   4.258  0.2385  0.6229 -0.6511
   45DG     C18 1030   2.641   0.741   4.080  0.1359 -0.0751 -0.6306
   45DG     O19 1031   2.553   0.652   4.141  0.3024 -1.2120  0.5988
   45DG     H20 1032   2.569   0.711   4.333 -0.0600  0.2450 -0.2786
   45DG     H21 1033   2.435   0.791   4.243 -0.1856  0.4755  0.0295
   45DG     H22 1034   2.714   0.760   4.158  0.0286 -1.4702 -0.1719
   45DG     H23 1035   2.588   0.835   4.062  1.0905  1.1416  2.4301
   46DG      C1 1036   0.591   4.998   1.930 -0.2254 -0.1478  0.6738
   46DG      C2 1037   0.918   5.059   1.366  1.0653  0.1363  0.8198
   46DG      H3 1038   0.541   5.094   1.914  1.2819  0.7735  1.2090
   46DG      H4 1039   0.697   5.017   1.949 -0.1548 -0.6059  0.7460
   46DG      H5 1040   0.551   4.930   2.004 -1.0172  0.2192  0.5892
   46DG      H6 1041   0.877   5.160   1.361 -1.1808 -0.7671 -1.3868
   46DG      H7 1042   1.007   5.056   1.428  1.6594  0.2857 -0.0128
   46DG      H8 1043   0.949   5.032   1.265 -1.3888  0.5664 -0.1358
   46DG      O9 1044   0.588   4.932   1.810 -0.3187 -0.2876 -0.0448
   46DG     O10 1045   0.819   4.971   1.416  0.3471  0.3705 -0.1116
   46DG     C11 1046   0.465   4.895   1.759  0.5466  0.7718  0.0433
   46DG     C12 1047   0.694   4.979   1.350 -0.6049  0.6741 -0.1759
   46DG     H13 1048   0.401   4.979   1.731  0.0706 -0.1408 -1.7556
   46DG     H14 1049   0.408   4.826   1.822 -0.1559  1.1548 -0.1658
   46DG     H15 1050   0.719   4.938   1.252  1.9466  0.5482  0.4599
   46DG     H16 1051   0.667   5.084   1.343  0.7849  1.0027 -0.9960
   46DG     C17 1052   0.500   4.829   1.624  0.2791  0.1892 -0.9716
   46DG     C18 1053   0.599   4.881   1.419 -0.2134 -0.4881  0.5952
   46DG     O19 1054   0.588   4.916   1.553 -0.3091  0.6380 -0.0045
   46DG     H20 1055   0.409   4.810   1.567 -0.7586  1.0938  0.3237
   46DG     H21 1056   0.550   4.733   1.636  1.2338  0.8275  0.4570
   46DG     H22 1057   0.503   4.878   1.367 -0.0146  0.9925  0.1280
   46DG     H23 1058   0.644   4.783   1.402  0.7974 -0.1340  1.1708
   47DG      C1 1059   3.407   0.306   0.171 -0.0483  0.5525 -0.4895
   47DG      C2 1060   3.548   0.920   0.046  0.7576 -0.4083 -0.3060
   47DG      H3 1061   3.460   0.284   0.263 -0.8636  1.1420  0.1333
   47DG      H4 1062   3.475   0.285   0.089  0.1764 -0.7008 -0.0022
   47DG      H5 1063   3.332   0.227   0.165 -0.6053  0.8481  1.7297
   47DG      H6 1064   3.537   1.027   0.062  0.0343  0.2898 -4.3707
   47DG      H7 1065   3.648   0.893   0.079  1.1031 -0.1025 -1.0940
   47DG      H8 1066   3.535   0.893  -0.059  0.0779 -0.2077 -0.2824
   47DG      O9 1067   3.358   0.441   0.165  0.0684 -0.1510  0.0740
   47DG     O10 1068   3.445   0.856   0.118 -0.1170  0.4801 -0.4556
   47DG     C11 1069   3.269   0.457   0.277 -0.4921  0.6375  0.2520
   47DG     C12 1070   3.444   0.900   0.256 -0.1014  0.1304 -0.3771
   47DG     H13 1071   3.316   0.413   0.365  0.4843 -1.4006 -1.2030
   47DG     H14 1072   3.173   0.409   0.262 -0.0895 -0.0356 -0.2366
   47DG     H15 1073   3.443   1.009   0.259  2.9611  0.2167  0.3687
   47DG     H16 1074   3.539   0.875   0.303  0.2343 -0.4879 -1.3507
   47DG     C17 1075   3.228   0.602   0.298 -0.2090  0.0467  0.0346
   47DG     C18 1076   3.315   0.826   0.317 -0.1920 -0.7125 -0.1212
   47DG     O19 1077   3.334   0.691   0.267  0.0676 -0.6241  0.4457
   47DG     H20 1078   3.185   0.612   0.398 -0.0374 -1.1682  0.2449
   47DG     H21 1079   3.146   0.622   0.229 -0.2697 -1.5922 -0.4338
   47DG     H22 1080   3.317   0.827   0.426  2.2667  2.4628 -0.0607
   47DG     H23 1081   3.228   0.874   0.271 -0.1315 -0.1302  0.3581
   48DG      C1 1082   0.008   1.927   0.481  0.0313  0.3161 -0.4140
   48DG      C2 1083   0.396   2.511   0.432  1.3728 -0.5248 -0.8069
   48DG      H3 1084  -0.040   1.874   0.398 -0.3169 -1.7997  1.0512
   48DG      H4 1085  -0.058   2.002   0.525  2.5149  0.9300  2.5957
   48DG      H5 1086   0.016   1.860   0.566 -0.0787 -1.1448 -1.5037
   48DG      H6 1087   0.420   2.537   0.329 -0.0022  0.1254 -0.9799
   48DG      H7 1088   0.299   2.556   0.452  1.2979 -0.6076 -0.9796
   48DG      H8 1089   0.473   2.557   0.494  0.5901 -0.0238 -0.2011
   48DG      O9 1090   0.130   1.990   0.450  0.1941 -0.4448 -0.5848
   48DG     O10 1091   0.377   2.369   0.442 -0.1086  0.2761  0.4054
   48DG     C11 1092   0.228   1.902   0.391 -0.1495  0.5828  0.2714
   48DG     C12 1093   0.496   2.299   0.396  0.5460  0.5120 -0.7417
   48DG     H13 1094   0.222   1.890   0.283  0.5471  0.8054  0.2052
   48DG     H14 1095   0.204   1.799   0.420 -0.5270  0.4394 -0.5204
   48DG     H15 1096   0.587   2.338   0.443 -0.9191  3.3355  0.0073
   48DG     H16 1097   0.508   2.311   0.289  0.6826 -0.3388 -0.8261
   48DG     C17 1098   0.367   1.947   0.420  0.3296  0.0902 -0.5000
   48DG     C18 1099   0.498   2.143   0.415  0.4057  0.6072  0.2118
   48DG     O19 1100   0.365   2.089   0.386  0.8877  0.1619 -0.1302
   48DG     H20 1101   0.441   1.884   0.371  2.0715  1.5667  0.1353
   48DG     H21 1102   0.377   1.926   0.527  0.4469  1.6333 -0.1857
   48DG     H22 1103   0.564   2.101   0.339 -1.4050  0.2752 -1.2582
   48DG     H23 1104   0.533   2.113   0.514  1.3012 -1.1275 -0.5779
   49DG      C1 1105   5.334   0.741   3.781  0.6670 -0.4819 -0.0936
   49DG      C2 1106   5.635   1.107   4.225 -0.2216 -0.4831 -1.1789
   49DG      H3 1107   5.331   0.636   3.751  1.1260 -0.7735  0.8643
   49DG      H4 1108   5.341   0.807   3.694 -1.1513 -1.4686 -1.0375
   49DG      H5 1109   5.236   0.756   3.827 -1.2003 -0.1537 -3.7461
   49DG      H6 1110   5.727   1.164   4.233  0.4350 -1.4838 -1.3285
   49DG      H7 1111   5.555   1.160   4.174 -1.0375  0.5977  1.1309
   49DG      H8 1112   5.592   1.083   4.322 -3.0341 -2.4595 -2.7453
   49DG      O9 1113   5.438   0.742   3.874 -0.1606 -0.0427 -0.4154
   49DG     O10 1114   5.658   0.991   4.155 -0.0409  0.6865  0.4074
   49DG     C11 1115   5.438   0.625   3.960 -0.4882  0.8393  0.3195
   49DG     C12 1116   5.723   0.891   4.229  0.1417  0.5815 -0.5777
   49DG     H13 1117   5.438   0.534   3.901  0.8718 -0.0683  1.6586
   49DG     H14 1118   5.347   0.629   4.020 -1.4545  2.4014 -1.1646
   49DG     H15 1119   5.673   0.879   4.325 -1.2116 -1.3781 -1.4473
   49DG     H16 1120   5.824   0.916   4.260 -0.0386  1.4311 -0.6709
   49DG     C17 1121   5.570   0.623   4.036  0.2009 -0.6296  0.0359
   49DG     C18 1122   5.721   0.762   4.150 -0.5088 -0.5785  0.3148
   49DG     O19 1123   5.591   0.748   4.091  0.2238  0.2352  0.5888
   49DG     H20 1124   5.644   0.597   3.961 -0.4141  2.0603 -1.6229
   49DG     H21 1125   5.570   0.547   4.115 -1.5077 -0.0840  0.6090
   49DG     H22 1126   5.797   0.769   4.073 -0.0084  2.4055  0.9624
   49DG     H23 1127   5.747   0.680   4.217  0.5945  0.7914  1.6453
   50DG      C1 1128   0.172   4.789   2.070 -1.2293  0.0902  0.0211
   50DG      C2 1129   0.265   5.255   1.909  0.4217  0.2835 -0.7138
   50DG      H3 1130   0.166   4.680   2.072  0.0325  0.0010 -0.3083
   50DG      H4 1131   0.278   4.812   2.070 -1.1763 -0.1002 -1.5829
   50DG      H5 1132   0.123   4.829   1.982 -0.8724  3.9224  1.3778
   50DG      H6 1133   0.249   5.361   1.926 -0.6490  0.1167 -0.6313
   50DG      H7 1134   0.366   5.240   1.869  0.3211  1.9179 -1.6514
   50DG      H8 1135   0.200   5.218   1.830  0.4333 -1.8956  0.2085
   50DG      O9 1136   0.112   4.847   2.189  0.1798 -0.3613  0.6725
   50DG     O10 1137   0.234   5.185   2.027  0.4093  0.2082 -0.3867
   50DG     C11 1138   0.185   4.839   2.309  0.1362 -0.2197  0.0859
   50DG     C12 1139   0.338   5.226   2.121 -0.4549  0.2902 -0.1009
   50DG     H13 1140   0.257   4.757   2.305  0.0158 -0.2725 -2.1473
   50DG     H14 1141   0.107   4.825   2.384 -2.2434 -0.3615 -2.3036
   50DG     H15 1142   0.372   5.329   2.113  0.4750 -0.0515 -0.7845
   50DG     H16 1143   0.426   5.164   2.100 -1.5363 -0.7781 -1.6950
   50DG     C17 1144   0.265   4.971   2.331  0.1929  0.2658 -0.6596
   50DG     C18 1145   0.290   5.201   2.262  0.2070 -0.2567 -0.2533
   50DG     O19 1146   0.206   5.085   2.280  0.0372 -0.1178  0.0314
   50DG     H20 1147   0.365   4.960   2.290 -0.2350 -2.1095 -1.2422
   50DG     H21 1148   0.284   4.982   2.437  0.9893 -0.2676 -0.7380
   50DG     H22 1149   0.379   5.193   2.325 -0.2274  0.3594  0.4445
   50DG     H23 1150   0.247   5.293   2.302 -1.5030 -1.2411  0.3043
   51DG      C1 1151   0.417   1.546   2.341 -0.2575  0.7289 -0.6049
   51DG      C2 1152   0.104   1.499   1.678 -0.3249  0.5841 -0.2545
   51DG      H3 1153   0.471   1.641   2.335  1.2959 -0.0148  0.8406
   51DG      H4 1154   0.492   1.470   2.320 -1.5678 -0.2723 -1.8015
   51DG      H5 1155   0.398   1.525   2.446  1.3368 -0.6127 -0.5432
   51DG      H6 1156   0.130   1.605   1.682 -2.0039  1.1107 -1.9956
   51DG      H7 1157   0.192   1.452   1.632 -0.1671 -0.4829  1.0791
   51DG      H8 1158   0.015   1.497   1.615  1.3199 -1.9104 -2.7760
   51DG      O9 1159   0.310   1.547   2.247  0.3338  0.0290 -0.0272
   51DG     O10 1160   0.094   1.454   1.811 -0.1020 -0.0983 -0.5688
   51DG     C11 1161   0.223   1.439   2.270 -0.8133  0.5178  0.1035
   51DG     C12 1162  -0.022   1.510   1.870  0.1920  0.4193  0.2223
   51DG     H13 1163   0.225   1.414   2.375  0.6740 -0.2035 -0.0806
   51DG     H14 1164   0.268   1.357   2.214 -1.3801  1.4143 -1.7902
   51DG     H15 1165  -0.109   1.490   1.807  1.1402  1.0481 -1.3388
   51DG     H16 1166  -0.015   1.619   1.874  0.4460  0.4009  0.2621
   51DG     C17 1167   0.080   1.456   2.226  0.8435  0.0502  0.2094
   51DG     C18 1168  -0.037   1.455   2.015  0.4228 -0.0741  0.1340
   51DG     O19 1169   0.081   1.494   2.090  0.0718  0.2102  0.5666
   51DG     H20 1170   0.035   1.534   2.287  0.5645 -0.2602  0.4037
   51DG     H21 1171   0.022   1.365   2.246 -1.9931  1.4418 -1.0192
   51DG     H22 1172  -0.122   1.492   2.073  0.4317  1.5112 -0.8263
   51DG     H23 1173  -0.048   1.347   2.003 -1.6282  0.2574 -1.5899
   52DG      C1 1174   1.378   3.828   2.623 -0.1795  0.9128  0.0163
   52DG      C2 1175   0.739   3.763   2.543 -0.1352 -0.1993  0.0951
   52DG      H3 1176   1.362   3.868   2.723 -2.1740 -2.7264  1.3476
   52DG      H4 1177   1.445   3.892   2.566  0.7129  0.2614  0.3132
   52DG      H5 1178   1.436   3.738   2.645 -0.9774  0.8590  2.1760
   52DG      H6 1179   0.768   3.845   2.477 -2.1602 -0.0344 -0.6587
   52DG      H7 1180   0.644   3.732   2.499 -0.4166 -1.8469  1.7485
   52DG      H8 1181   0.711   3.800   2.641  0.9310 -1.6478  0.9964
   52DG      O9 1182   1.260   3.803   2.548  0.0134 -0.4415  0.5499
   52DG     O10 1183   0.830   3.655   2.547  0.2436  0.6328  0.7930
   52DG     C11 1184   1.297   3.743   2.427  0.0139 -0.1697 -0.3862
   52DG     C12 1185   0.838   3.595   2.411 -1.2080  0.2648 -0.2208
   52DG     H13 1186   1.311   3.635   2.440  0.4972  0.0644  1.3290
   52DG     H14 1187   1.385   3.778   2.375  0.8953  0.3366  1.3560
   52DG     H15 1188   0.743   3.585   2.358 -1.4569 -2.1160  0.5497
   52DG     H16 1189   0.872   3.491   2.414  0.5676  0.8389  0.5984
   52DG     C17 1190   1.169   3.751   2.349  0.4731  0.0773  0.1797
   52DG     C18 1191   0.935   3.683   2.330  0.1562 -0.7013 -0.4579
   52DG     O19 1192   1.058   3.684   2.407  0.1460 -0.0821  0.2193
   52DG     H20 1193   1.187   3.722   2.246  3.8245  0.4404  0.5496
   52DG     H21 1194   1.140   3.856   2.339 -1.2092 -0.5282 -2.3915
   52DG     H22 1195   0.949   3.633   2.234  1.8700  0.4237 -0.8542
   52DG     H23 1196   0.900   3.784   2.309  1.3452 -0.1622  0.0398
   53DG      C1 1197   0.308   2.746   0.781  0.0606  0.2633  0.6931
   53DG      C2 1198   0.316   2.681   1.488  0.5901  0.3790  0.3125
   53DG      H3 1199   0.294   2.637   0.779  2.3911 -0.1243  2.1832
   53DG      H4 1200   0.356   2.772   0.687 -0.2554 -0.9992  0.1522
   53DG      H5 1201   0.215   2.802   0.787  1.0505  2.0782 -0.3155
   53DG      H6 1202   0.209   2.674   1.469  0.6627 -1.1737  0.3102
   53DG      H7 1203   0.341   2.575   1.496 -0.5201 -0.1021 -1.8620
   53DG      H8 1204   0.320   2.724   1.588 -0.7061 -2.6670  1.8103
   53DG      O9 1205   0.385   2.799   0.889 -0.0326 -0.5508  0.7049
   53DG     O10 1206   0.379   2.746   1.382 -0.2880  0.1273  0.0113
   53DG     C11 1207   0.511   2.735   0.906  0.2815  0.6421 -0.9058
   53DG     C12 1208   0.516   2.723   1.385 -0.0355  0.2694  0.6386
   53DG     H13 1209   0.579   2.748   0.822  0.6542  3.7258 -0.2272
   53DG     H14 1210   0.496   2.627   0.914 -0.2537  0.7872  0.3812
   53DG     H15 1211   0.532   2.617   1.368 -0.4231 -0.0511  2.1419
   53DG     H16 1212   0.566   2.755   1.477 -0.4833 -1.0895  1.3808
   53DG     C17 1213   0.592   2.770   1.033 -0.2388  0.0387  1.1374
   53DG     C18 1214   0.582   2.794   1.263 -0.5140 -1.3158 -1.0068
   53DG     O19 1215   0.519   2.755   1.148 -0.2235  0.4419 -0.4103
   53DG     H20 1216   0.632   2.870   1.017  1.2792 -0.8828 -1.3178
   53DG     H21 1217   0.673   2.698   1.043 -0.7635 -0.4996  1.6358
   53DG     H22 1218   0.570   2.903   1.261  0.9671 -1.0402  1.2357
   53DG     H23 1219   0.690   2.786   1.267 -0.5820 -1.8136  1.5024
   54DG      C1 1220   0.903   1.305   4.424 -1.0314  0.0478 -0.0148
   54DG      C2 1221   1.044   1.355   5.073  0.4406 -0.5218  0.5547
   54DG      H3 1222   0.823   1.266   4.361 -0.3250 -1.0262 -0.2678
   54DG      H4 1223   0.990   1.294   4.360 -0.3108 -1.0227  1.0940
   54DG      H5 1224   0.881   1.409   4.451 -0.9805  0.7533 -2.4704
   54DG      H6 1225   1.036   1.315   5.174  1.4380 -1.8298  0.1469
   54DG      H7 1226   1.144   1.392   5.049  0.6835 -0.6828  1.3067
   54DG      H8 1227   0.977   1.440   5.084  1.0769  0.1457 -0.5561
   54DG      O9 1228   0.915   1.219   4.537  0.1399  0.6554  0.3077
   54DG     O10 1229   1.008   1.263   4.978  0.4549 -0.5028  0.1043
   54DG     C11 1230   0.974   1.089   4.517  0.5633 -0.3459 -0.2259
   54DG     C12 1231   1.078   1.142   4.987  0.3194  0.3379 -0.2398
   54DG     H13 1232   1.072   1.076   4.470  1.4961  3.0117  0.5348
   54DG     H14 1233   0.908   1.035   4.450  0.8530 -0.0570 -0.7468
   54DG     H15 1234   1.069   1.104   5.089  1.0557  0.7360 -0.0216
   54DG     H16 1235   1.185   1.154   4.970  0.6126 -0.5279  0.8820
   54DG     C17 1236   0.962   1.015   4.653  0.0186  0.5457 -0.3395
   54DG     C18 1237   1.013   1.040   4.886 -0.3060  0.2714  0.7024
   54DG     O19 1238   1.014   1.099   4.759  0.6253  0.0953  0.4368
   54DG     H20 1239   1.029   0.929   4.643 -1.7834 -0.9656  0.0351
   54DG     H21 1240   0.859   0.988   4.675  0.9959 -1.4321  2.3116
   54DG     H22 1241   1.073   0.950   4.874 -0.7009  0.2427 -1.4904
   54DG     H23 1242   0.917   0.997   4.913  0.9928 -1.6585  2.4956
   55DG      C1 1243   1.919   2.931   4.046 -0.3593  0.1742  0.0261
   55DG      C2 1244   2.459   3.320   3.896  0.1468  0.0975  0.4020
   55DG      H3 1245   1.910   3.037   4.073  2.3069  0.6345 -0.5683
   55DG      H4 1246   1.882   2.863   4.123  0.7399 -0.2458  0.2089
   55DG      H5 1247   1.851   2.915   3.963  0.9944 -0.4632 -0.9909
   55DG      H6 1248   2.392   3.355   3.975 -1.4244 -1.0369 -0.3693
   55DG      H7 1249   2.563   3.337   3.922  0.5586 -2.4738  0.7835
   55DG      H8 1250   2.433   3.371   3.804 -0.3053 -0.1943  0.3607
   55DG      O9 1251   2.055   2.919   4.017 -0.4333  0.1174 -0.2198
   55DG     O10 1252   2.424   3.183   3.873  0.3133  0.2062  0.2951
   55DG     C11 1253   2.088   2.795   3.952  0.1702 -0.7426  0.2380
   55DG     C12 1254   2.481   3.094   3.970 -0.0626  0.3039  0.2905
   55DG     H13 1255   2.046   2.827   3.857 -2.2724  1.5961  1.9721
   55DG     H14 1256   2.058   2.696   3.988 -1.0450 -1.1669 -1.7835
   55DG     H15 1257   2.451   3.129   4.069  1.1437  0.1626  0.7323
   55DG     H16 1258   2.590   3.095   3.972  0.0213 -0.7604 -1.5235
   55DG     C17 1259   2.240   2.794   3.947 -0.0700 -0.1714  0.0163
   55DG     C18 1260   2.441   2.949   3.937 -0.1191 -0.2619  0.1513
   55DG     O19 1261   2.298   2.932   3.917 -0.4331 -0.1603  0.3949
   55DG     H20 1262   2.273   2.726   3.869 -0.1377 -1.2713  0.9108
   55DG     H21 1263   2.258   2.754   4.047  1.0716 -0.8728 -0.4545
   55DG     H22 1264   2.491   2.916   3.846  0.9528 -1.0662  1.0074
   55DG     H23 1265   2.477   2.877   4.011  0.3363 -4.3579 -3.6021
   56DG      C1 1266   4.810   4.183   5.211  0.1444  0.1110  0.1108
   56DG      C2 1267   4.834   3.631   5.618  0.3121  0.0204 -0.9359
   56DG      H3 1268   4.705   4.210   5.223 -0.1679 -0.2536 -1.5993
   56DG      H4 1269   4.853   4.240   5.129  1.7069 -0.5456  0.4363
   56DG      H5 1270   4.879   4.215   5.289 -0.1658 -0.9425  0.8420
   56DG      H6 1271   4.736   3.656   5.659  0.2228 -3.2191  1.1610
   56DG      H7 1272   4.805   3.546   5.558 -1.3165  0.1231 -0.3395
   56DG      H8 1273   4.901   3.608   5.701 -0.8468  0.0369  0.0295
   56DG      O9 1274   4.825   4.043   5.184  0.7162 -0.5625  0.3054
   56DG     O10 1275   4.897   3.719   5.523  0.4184  0.6772 -0.3053
   56DG     C11 1276   4.955   3.996   5.152 -0.4045 -0.1839  0.4725
   56DG     C12 1277   4.939   3.842   5.580 -0.3754 -0.3163  0.2531
   56DG     H13 1278   5.001   4.067   5.083 -1.9846  0.0395 -0.4157
   56DG     H14 1279   4.948   3.905   5.092  1.7718 -0.6429  0.8235
   56DG     H15 1280   4.987   3.818   5.675 -1.3099  0.5061  0.9522
   56DG     H16 1281   4.851   3.905   5.595 -0.1622  0.3598 -1.1736
   56DG     C17 1282   5.047   3.984   5.267  0.3822 -0.6403 -0.0290
   56DG     C18 1283   5.038   3.905   5.488 -0.4755  0.0239  0.0905
   56DG     O19 1284   4.966   3.937   5.373  0.0269 -0.6870  0.3669
   56DG     H20 1285   5.091   4.081   5.292  4.3481 -2.0399 -0.7689
   56DG     H21 1286   5.127   3.914   5.242 -0.4343 -1.7163  0.3176
   56DG     H22 1287   5.081   3.998   5.526  1.5186 -0.7879 -0.0573
   56DG     H23 1288   5.110   3.825   5.469 -1.7660 -1.0336 -0.4330
   57DG      C1 1289   0.136   0.680   2.247 -0.2597  0.2611  0.2660
   57DG      C2 1290  -0.175   0.715   2.845  0.2304 -0.0918  0.4688
   57DG      H3 1291   0.045   0.706   2.195 -0.8588 -0.3357  0.9900
   57DG      H4 1292   0.204   0.632   2.177  0.8106  1.0897  0.7028
   57DG      H5 1293   0.170   0.777   2.284  0.5755 -0.2308  0.8283
   57DG      H6 1294  -0.111   0.801   2.861  2.6051 -1.7331  0.3521
   57DG      H7 1295  -0.263   0.751   2.792  1.6342  1.2807 -1.0257
   57DG      H8 1296  -0.197   0.691   2.950 -1.2538 -0.0860  0.1889
   57DG      O9 1297   0.106   0.594   2.362  0.2919  0.5388  0.6136
   57DG     O10 1298  -0.096   0.613   2.777  0.0320 -0.6456 -0.6374
   57DG     C11 1299   0.023   0.483   2.318  0.0446 -0.0504 -0.2681
   57DG     C12 1300  -0.163   0.493   2.757  0.4302  0.9754 -0.6934
   57DG     H13 1301   0.073   0.432   2.235 -0.1389  0.3901 -0.6545
   57DG     H14 1302  -0.075   0.514   2.281 -0.3997 -1.0232  0.0373
   57DG     H15 1303  -0.262   0.505   2.712 -0.5902 -0.9065  0.8997
   57DG     H16 1304  -0.183   0.435   2.847  1.4638 -0.4307 -1.3228
   57DG     C17 1305   0.003   0.390   2.447  0.2081  0.2743  0.0954
   57DG     C18 1306  -0.071   0.412   2.666 -0.4430  0.1015 -0.0979
   57DG     O19 1307  -0.057   0.472   2.549 -0.2923  0.0650 -0.3775
   57DG     H20 1308   0.099   0.345   2.472 -1.0800 -2.4794  0.4858
   57DG     H21 1309  -0.069   0.316   2.411  0.9888 -0.4719  0.0659
   57DG     H22 1310   0.030   0.397   2.705  0.4785  0.5572 -2.1701
   57DG     H23 1311  -0.117   0.315   2.652 -1.2422  0.2979  1.0230
   58DG      C1 1312   1.783   2.255   1.523  0.0275  0.0692 -0.5572
   58DG      C2 1313   2.252   1.700   1.648 -0.4974 -0.7397 -0.4261
   58DG      H3 1314   1.747   2.224   1.621  2.8733 -1.8137  0.0047
   58DG      H4 1315   1.694   2.290   1.472 -1.1625  0.7171  1.8351
   58DG      H5 1316   1.851   2.339   1.531 -0.4409  0.3607  0.5530
   58DG      H6 1317   2.316   1.616   1.623  1.9262  1.1152 -0.8338
   58DG      H7 1318   2.323   1.768   1.696 -2.7213  1.2083  0.2904
   58DG      H8 1319   2.185   1.675   1.730 -0.8713 -0.6769 -0.7073
   58DG      O9 1320   1.854   2.137   1.487  0.3344 -0.1145 -0.2782
   58DG     O10 1321   2.202   1.782   1.539 -0.0878  0.7605  0.4528
   58DG     C11 1322   1.906   2.149   1.357 -0.8134  0.1984 -0.3398
   58DG     C12 1323   2.078   1.728   1.488 -0.0024 -0.2328 -0.6792
   58DG     H13 1324   1.995   2.210   1.375 -0.8432  0.3237 -0.6173
   58DG     H14 1325   1.838   2.209   1.297 -2.5248  1.0028  2.1983
   58DG     H15 1326   2.007   1.726   1.570  1.7179 -2.2753  0.8846
   58DG     H16 1327   2.094   1.622   1.467  0.2966 -0.4470  0.5773
   58DG     C17 1328   1.940   2.014   1.287  0.2826 -0.4010  0.3635
   58DG     C18 1329   2.038   1.809   1.361 -0.1036  0.0527  0.6042
   58DG     O19 1330   1.993   1.942   1.399  0.3369  0.6809  0.3500
   58DG     H20 1331   2.019   2.015   1.212  0.1791 -1.3282  0.2284
   58DG     H21 1332   1.842   1.978   1.256  0.8404 -2.3183  0.6740
   58DG     H22 1333   2.120   1.826   1.292 -0.8646  1.9773  0.0909
   58DG     H23 1334   1.956   1.767   1.303 -1.0524  0.1500  1.8353
   59DG      C1 1335   0.982   0.054   2.535  0.3237  1.2210  0.3913
   59DG      C2 1336   0.498   0.056   3.018  0.3593  0.2013  0.5028
   59DG      H3 1337   0.955  -0.048   2.563  0.3637  0.1383 -3.0039
   59DG      H4 1338   1.089   0.065   2.551  0.9816 -2.3446 -0.7513
   59DG      H5 1339   0.956   0.070   2.430 -0.8186 -1.9405  0.0730
   59DG      H6 1340   0.474  -0.043   3.057  0.4497  0.2502  0.6870
   59DG      H7 1341   0.427   0.118   3.072  0.3450  0.4646  0.1824
   59DG      H8 1342   0.478   0.071   2.912 -2.4436 -0.3843  0.8686
   59DG      O9 1343   0.918   0.141   2.616 -0.4685  0.0697 -0.6628
   59DG     O10 1344   0.633   0.095   3.043  0.6653  0.0073  0.8574
   59DG     C11 1345   0.787   0.156   2.589 -0.1723  0.1843  0.3097
   59DG     C12 1346   0.666   0.237   3.039  0.4571  0.5755 -0.0876
   59DG     H13 1347   0.738   0.060   2.605  0.0665 -0.3642 -1.8548
   59DG     H14 1348   0.778   0.186   2.484 -0.3793 -0.1833  0.2191
   59DG     H15 1349   0.771   0.246   3.066  0.2224 -0.1318  1.2006
   59DG     H16 1350   0.614   0.290   3.119  0.3187 -0.1939  0.3434
   59DG     C17 1351   0.719   0.261   2.674 -0.2905 -0.3523 -0.9683
   59DG     C18 1352   0.640   0.290   2.897 -0.8397  0.0805 -0.6469
   59DG     O19 1353   0.739   0.229   2.813 -0.3219 -0.1637  0.0091
   59DG     H20 1354   0.611   0.253   2.663 -1.2256  2.1656  3.6960
   59DG     H21 1355   0.745   0.362   2.643  2.0337 -1.2576 -2.1926
   59DG     H22 1356   0.537   0.279   2.863 -1.6865 -2.1891  2.2050
   59DG     H23 1357   0.673   0.394   2.896  0.7969 -0.3546  1.5285
   60DG      C1 1358   0.828   5.411   4.326  0.0514 -0.1091 -0.1616
   60DG      C2 1359   0.765   5.381   5.002  0.0852 -0.0561  0.5603
   60DG      H3 1360   0.815   5.462   4.231 -0.4508  0.4179  0.1828
   60DG      H4 1361   0.768   5.320   4.329 -0.5729  0.2300 -1.6836
   60DG      H5 1362   0.932   5.378   4.334 -0.0574 -0.7809 -1.3312
   60DG      H6 1363   0.845   5.308   4.992 -1.9322 -2.1069 -2.7449
   60DG      H7 1364   0.798   5.461   5.068  2.4709 -0.6488  0.1938
   60DG      H8 1365   0.681   5.328   5.047 -0.5976  0.6658  0.1501
   60DG      O9 1366   0.794   5.496   4.430  0.4607 -0.1185 -0.0702
   60DG     O10 1367   0.720   5.429   4.878 -0.0470  0.1424 -0.5651
   60DG     C11 1368   0.662   5.545   4.416 -0.1493  0.5452  0.1190
   60DG     C12 1369   0.593   5.490   4.881 -0.0053  0.0206 -0.3809
   60DG     H13 1370   0.604   5.456   4.391 -0.3458  1.1027 -1.5273
   60DG     H14 1371   0.652   5.596   4.320 -0.7995  0.6552  0.2404
   60DG     H15 1372   0.575   5.537   4.978  1.7252 -1.1783  0.5653
   60DG     H16 1373   0.512   5.417   4.872 -0.7939  0.9899 -1.4411
   60DG     C17 1374   0.613   5.615   4.538  0.4509 -0.0465 -0.1961
   60DG     C18 1375   0.572   5.584   4.765 -0.0030  0.4050 -0.1607
   60DG     O19 1376   0.597   5.518   4.643  0.0168  0.3539 -0.3951
   60DG     H20 1377   0.520   5.636   4.485  0.8530 -0.2503 -0.9889
   60DG     H21 1378   0.660   5.710   4.562  0.3767  0.0968 -0.6143
   60DG     H22 1379   0.470   5.622   4.764 -0.3584 -0.4620  0.8362
   60DG     H23 1380   0.639   5.668   4.785  1.8308 -1.3498  1.5965
   61DG      C1 1381   0.840   2.157   0.210 -0.1072  0.6021 -0.0594
   61DG      C2 1382   0.789   1.786  -0.369  0.7919  0.1530  0.5999
   61DG      H3 1383   0.824   2.237   0.138 -0.0663 -0.5676 -1.4194
   61DG      H4 1384   0.940   2.175   0.250 -0.0905  0.6440 -0.1201
   61DG      H5 1385   0.770   2.157   0.294 -1.7461  0.8109 -1.3745
   61DG      H6 1386   0.883   1.836  -0.395  0.0824  0.9704 -0.5343
   61DG      H7 1387   0.782   1.689  -0.418  1.4692 -0.2401  1.2691
   61DG      H8 1388   0.715   1.856  -0.409  1.0942 -0.1528 -0.5471
   61DG      O9 1389   0.846   2.031   0.146  0.0843  0.0578  0.3420
   61DG     O10 1390   0.779   1.769  -0.227  0.0584 -0.1178  0.2068
   61DG     C11 1391   0.869   1.919   0.238 -0.6321  0.6087  0.1335
   61DG     C12 1392   0.870   1.673  -0.177 -0.7865 -0.3225  0.0574
   61DG     H13 1393   0.774   1.884   0.278 -0.4619 -1.9927 -1.5499
   61DG     H14 1394   0.936   1.948   0.319  1.0028 -0.2584 -0.8626
   61DG     H15 1395   0.965   1.694  -0.225 -0.5269 -0.2269  0.6056
   61DG     H16 1396   0.841   1.571  -0.200 -0.1532 -0.3255 -0.7679
   61DG     C17 1397   0.934   1.803   0.168  0.3952 -0.9924 -0.1781
   61DG     C18 1398   0.890   1.671  -0.021  0.1550  0.5077  0.4394
   61DG     O19 1399   0.885   1.796   0.034 -0.2991  0.7683 -0.0379
   61DG     H20 1400   0.897   1.711   0.214 -0.9908 -1.6602 -2.4564
   61DG     H21 1401   1.042   1.808   0.182  0.5337 -0.3417 -1.4240
   61DG     H22 1402   0.811   1.607   0.017 -0.2184  0.9769  0.4591
   61DG     H23 1403   0.979   1.614   0.007 -0.0848  0.4594  1.1200
   62DG      C1 1404   2.897   0.146   5.314 -0.4862 -0.1754  0.3621
   62DG      C2 1405   2.588  -0.422   5.083  0.4789 -0.4291  0.4742
   62DG      H3 1406   2.814   0.192   5.261 -1.2823 -1.6369  0.2910
   62DG      H4 1407   2.989   0.135   5.256 -0.4669 -1.9469  0.6515
   62DG      H5 1408   2.915   0.216   5.396  0.1831  2.0415 -1.5770
   62DG      H6 1409   2.490  -0.375   5.074 -0.4677 -1.6063  3.4118
   62DG      H7 1410   2.638  -0.420   4.986 -0.4155  3.7812 -0.1047
   62DG      H8 1411   2.573  -0.526   5.112 -1.3034 -1.5878 -3.7748
   62DG      O9 1412   2.843   0.015   5.349  0.1073  0.3861  0.1709
   62DG     O10 1413   2.667  -0.352   5.172  0.2022  0.1280 -0.2114
   62DG     C11 1414   2.932  -0.063   5.436 -0.0557 -0.0204  0.1965
   62DG     C12 1415   2.787  -0.419   5.216  0.5517  0.1408 -0.4233
   62DG     H13 1416   2.975  -0.007   5.519  1.4602 -2.3131  1.0799
   62DG     H14 1417   3.025  -0.089   5.385  0.1349 -0.7819  0.9008
   62DG     H15 1418   2.839  -0.452   5.126  1.2068  0.7549 -0.2885
   62DG     H16 1419   2.748  -0.505   5.270 -1.6701  1.0018 -0.5641
   62DG     C17 1420   2.875  -0.189   5.501  0.1367  0.5806  0.0228
   62DG     C18 1421   2.878  -0.325   5.300  0.2259 -0.2226 -0.1606
   62DG     O19 1422   2.795  -0.255   5.400 -0.5735  0.0422 -0.2888
   62DG     H20 1423   2.804  -0.170   5.582  2.0391  1.9611  1.4604
   62DG     H21 1424   2.961  -0.244   5.539 -1.1442 -0.4125  1.6263
   62DG     H22 1425   2.971  -0.373   5.330  0.7145  1.7648  1.7240
   62DG     H23 1426   2.897  -0.242   5.231 -3.4114  1.2379  0.3680
   63DG      C1 1427   1.364   0.969   4.105  0.2201 -0.1832 -0.1813
   63DG      C2 1428   1.685   1.575   4.184 -0.0327  0.4933  0.1487
   63DG      H3 1429   1.295   0.957   4.021 -0.7134  3.0366 -0.0021
   63DG      H4 1430   1.297   1.001   4.184 -1.2967  0.1464 -1.5500
   63DG      H5 1431   1.394   0.873   4.147  1.7412  0.8931  1.3394
   63DG      H6 1432   1.757   1.652   4.155 -0.0603  0.8954  1.1001
   63DG      H7 1433   1.598   1.618   4.136 -1.7838  0.2435  2.8913
   63DG      H8 1434   1.661   1.582   4.290  0.4799  0.2846  0.2811
   63DG      O9 1435   1.468   1.058   4.074 -0.0256  0.4689 -0.5205
   63DG     O10 1436   1.712   1.445   4.135  0.8644 -0.3632  0.3412
   63DG     C11 1437   1.527   1.004   3.955 -0.1197 -0.1077 -0.9789
   63DG     C12 1438   1.697   1.444   3.997  0.1028 -0.2847 -0.5472
   63DG     H13 1439   1.456   1.021   3.874 -0.3813 -2.9160 -1.4361
   63DG     H14 1440   1.546   0.898   3.971 -2.0310 -0.5593 -1.4821
   63DG     H15 1441   1.763   1.519   3.953  1.0765 -0.2638  0.8822
   63DG     H16 1442   1.591   1.462   3.976  0.0881  1.4671  0.8047
   63DG     C17 1443   1.660   1.077   3.923  0.3087 -0.2073  0.1669
   63DG     C18 1444   1.745   1.309   3.938 -0.1367  0.1535  0.1791
   63DG     O19 1445   1.644   1.214   3.966  0.1342 -0.2150 -0.0060
   63DG     H20 1446   1.672   1.067   3.815  3.6389 -1.3403  0.5243
   63DG     H21 1447   1.742   1.030   3.977 -0.7717  1.0249  3.0692
   63DG     H22 1448   1.778   1.300   3.835 -0.3598  4.4001 -0.4529
   63DG     H23 1449   1.828   1.268   3.997 -0.4005 -2.4116 -1.1302
   64DG      C1 1450   2.970   1.518   1.644 -0.3899  0.1764  0.7514
   64DG      C2 1451   2.347   1.133   1.608 -0.4191 -0.1345  0.0667
   64DG      H3 1452   2.913   1.610   1.653 -1.0038 -0.0038 -0.9443
   64DG      H4 1453   3.060   1.546   1.589 -0.7981  0.4353  0.2051
   64DG      H5 1454   3.006   1.489   1.743  1.0043 -0.0942  0.1914
   64DG      H6 1455   2.361   1.077   1.700  0.0884 -1.0235 -0.5440
   64DG      H7 1456   2.290   1.224   1.629  0.9120  0.7232  0.1251
   64DG      H8 1457   2.283   1.070   1.546 -0.9827 -0.1854  0.6840
   64DG      O9 1458   2.889   1.409   1.598 -0.1518 -0.0170  0.0267
   64DG     O10 1459   2.469   1.152   1.542  0.1107  0.1531  0.3750
   64DG     C11 1460   2.959   1.282   1.572 -0.1004  0.6008  0.0303
   64DG     C12 1461   2.541   1.039   1.511  0.2762  0.0432 -0.5784
   64DG     H13 1462   2.966   1.244   1.674  0.3218 -1.5585 -0.7545
   64DG     H14 1463   3.065   1.281   1.544 -0.1524 -2.0783 -0.2938
   64DG     H15 1464   2.490   0.979   1.435  0.8015  2.0952 -2.6693
   64DG     H16 1465   2.553   0.970   1.595 -0.9444 -0.5568 -0.8750
   64DG     C17 1466   2.883   1.178   1.487 -0.1557  0.0917  0.0757
   64DG     C18 1467   2.674   1.073   1.448 -0.0896 -0.1347  0.1006
   64DG     O19 1468   2.749   1.163   1.529  0.6081  0.3181  0.1282
   64DG     H20 1469   2.934   1.082   1.486 -0.8091 -0.2933 -1.8222
   64DG     H21 1470   2.875   1.213   1.384 -0.5577 -0.3871 -0.0579
   64DG     H22 1471   2.719   0.975   1.430 -1.4873 -0.8230  0.2204
   64DG     H23 1472   2.656   1.118   1.351 -0.1179  1.5017  0.8359
   65DG      C1 1473   1.605   2.274   0.841 -0.0741  0.6967  0.2929
   65DG      C2 1474   1.682   2.716   0.326 -0.1176  0.2273  0.3423
   65DG      H3 1475   1.501   2.302   0.819 -1.0282 -2.3615  0.4519
   65DG      H4 1476   1.641   2.341   0.919 -0.3536  0.5925  0.5128
   65DG      H5 1477   1.603   2.169   0.871 -0.0048  0.9043  1.0239
   65DG      H6 1478   1.718   2.754   0.230  2.3676  2.1177  1.8730
   65DG      H7 1479   1.574   2.721   0.325 -0.4329 -3.4344  0.4662
   65DG      H8 1480   1.712   2.789   0.401  0.2442  0.0016  0.4223
   65DG      O9 1481   1.691   2.278   0.721  0.0515  0.2318 -0.2828
   65DG     O10 1482   1.729   2.584   0.361  0.0084  0.2515  0.4410
   65DG     C11 1483   1.652   2.177   0.622 -0.2756  0.0569  0.7784
   65DG     C12 1484   1.721   2.479   0.260 -0.0004 -0.2599  0.2456
   65DG     H13 1485   1.543   2.175   0.623 -0.2967 -0.2363 -0.5435
   65DG     H14 1486   1.677   2.081   0.667 -0.0962 -0.6462 -0.7865
   65DG     H15 1487   1.758   2.519   0.166 -3.2054  1.9160 -0.2863
   65DG     H16 1488   1.616   2.462   0.234  0.3051  0.0443 -1.2928
   65DG     C17 1489   1.719   2.188   0.490  0.1418  0.1984 -0.3844
   65DG     C18 1490   1.781   2.344   0.311  0.7314 -0.0165  0.1666
   65DG     O19 1491   1.705   2.318   0.431 -0.1230 -0.0783 -0.2998
   65DG     H20 1492   1.680   2.115   0.419  0.2235  0.7725 -1.0339
   65DG     H21 1493   1.821   2.150   0.491 -0.7020 -2.2643  0.9004
   65DG     H22 1494   1.757   2.265   0.240  2.2420  0.4177 -0.8951
   65DG     H23 1495   1.890   2.338   0.321  0.6879  0.8754  1.4019
   66DG      C1 1496   1.339   4.712   4.804  0.2535 -0.0307 -0.4671
   66DG      C2 1497   0.780   4.324   4.735 -0.1894  0.0935 -0.4512
   66DG      H3 1498   1.297   4.749   4.897 -2.2121 -1.4180 -0.9382
   66DG      H4 1499   1.303   4.778   4.725  0.9550  1.7023  0.6074
   66DG      H5 1500   1.448   4.722   4.807  0.0219  3.4016  0.5044
   66DG      H6 1501   0.716   4.241   4.767  0.6100 -0.0930  0.7405
   66DG      H7 1502   0.763   4.404   4.808  2.3515 -0.1863  0.5379
   66DG      H8 1503   0.745   4.359   4.638 -1.1085  1.2592  0.2720
   66DG      O9 1504   1.286   4.581   4.787 -0.0002  0.0626 -0.3794
   66DG     O10 1505   0.919   4.301   4.747  0.5674  0.4606  0.2620
   66DG     C11 1506   1.349   4.505   4.686 -0.0670 -0.7525  0.0797
   66DG     C12 1507   0.970   4.218   4.643  0.2185  0.1815  0.5629
   66DG     H13 1508   1.456   4.506   4.707  0.0724  0.8103 -0.5720
   66DG     H14 1509   1.342   4.551   4.588 -0.1145 -1.6045 -0.3218
   66DG     H15 1510   0.935   4.244   4.543  0.4732  1.3361  0.7590
   66DG     H16 1511   0.938   4.114   4.646  0.5647 -0.0624 -1.8669
   66DG     C17 1512   1.309   4.361   4.679  1.0585 -0.1837 -0.3826
   66DG     C18 1513   1.126   4.214   4.655  0.1640  0.0663  0.7467
   66DG     O19 1514   1.172   4.347   4.663 -0.2486 -0.1319 -0.6596
   66DG     H20 1515   1.344   4.304   4.765  1.0459  0.4280  0.0351
   66DG     H21 1516   1.358   4.315   4.593  0.0601 -3.2442  0.5685
   66DG     H22 1517   1.158   4.143   4.732  0.0530  0.6937  1.3871
   66DG     H23 1518   1.160   4.178   4.558 -0.4951  3.4217 -0.8817
   67DG      C1 1519   1.309   1.297   3.944  0.2050 -0.1077 -0.2809
   67DG      C2 1520   1.782   1.260   4.433 -0.5704  0.4830 -0.5994
   67DG      H3 1521   1.290   1.382   3.879 -1.1212 -0.6706 -0.6594
   67DG      H4 1522   1.230   1.223   3.958  0.8894 -0.9890 -0.9264
   67DG      H5 1523   1.394   1.248   3.897 -0.5176 -0.8141 -0.8661
   67DG      H6 1524   1.806   1.180   4.503  2.6072  0.7272 -1.2651
   67DG      H7 1525   1.820   1.228   4.336  0.3826 -2.2757  0.5850
   67DG      H8 1526   1.842   1.341   4.476 -2.2959  1.3053  0.4070
   67DG      O9 1527   1.358   1.337   4.077  1.1475  0.2406  0.3039
   67DG     O10 1528   1.646   1.299   4.422 -0.2880  0.2944 -0.1361
   67DG     C11 1529   1.258   1.391   4.164  0.3367  0.8394  0.4932
   67DG     C12 1530   1.571   1.348   4.533  0.1301 -0.2034 -0.2099
   67DG     H13 1531   1.176   1.320   4.177 -0.1669  1.4921  0.9555
   67DG     H14 1532   1.198   1.460   4.106  0.3177 -0.5028 -1.1594
   67DG     H15 1533   1.624   1.415   4.600  1.1991 -1.4608  0.2346
   67DG     H16 1534   1.538   1.255   4.580  0.4572  0.9719  2.4803
   67DG     C17 1535   1.316   1.462   4.289  0.1698 -0.5219  0.1095
   67DG     C18 1536   1.455   1.429   4.482 -0.5308 -0.2303  0.2889
   67DG     O19 1537   1.405   1.379   4.359  0.2061  0.1993 -0.5171
   67DG     H20 1538   1.235   1.492   4.355 -0.5845 -1.1500 -0.5178
   67DG     H21 1539   1.368   1.555   4.265  0.1569 -0.1572  1.4364
   67DG     H22 1540   1.378   1.428   4.559 -0.7620  1.7685  0.1480
   67DG     H23 1541   1.480   1.533   4.461 -2.5327  0.2773  0.2276
   68DG      C1 1542   0.039   0.083   5.119 -0.1303 -0.5348 -0.0262
   68DG      C2 1543   0.262   0.349   5.717 -0.1058  0.2190 -1.0947
   68DG      H3 1544   0.060   0.092   5.012 -1.7114  1.9256 -0.2152
   68DG      H4 1545  -0.034   0.160   5.142  0.8093  0.0474  1.1065
   68DG      H5 1546   0.001  -0.017   5.141 -2.9225  0.4456 -0.0967
   68DG      H6 1547   0.161   0.331   5.754  0.4637 -1.3709 -0.2039
   68DG      H7 1548   0.329   0.323   5.799 -2.3790 -0.9897  0.4723
   68DG      H8 1549   0.261   0.456   5.698  1.6297  0.5925  0.6629
   68DG      O9 1550   0.161   0.111   5.186 -0.2776 -0.2237 -0.1917
   68DG     O10 1551   0.311   0.287   5.608  0.3143 -0.4181  0.1803
   68DG     C11 1552   0.255   0.002   5.175 -0.2114 -0.0964  0.0507
   68DG     C12 1553   0.326   0.144   5.634  0.1956  0.4076 -0.9177
   68DG     H13 1554   0.311  -0.020   5.084  0.2348 -2.6286  0.8414
   68DG     H14 1555   0.196  -0.086   5.199  0.3759 -0.6126 -0.3640
   68DG     H15 1556   0.232   0.090   5.644 -0.6939  1.6169 -2.4073
   68DG     H16 1557   0.379   0.129   5.728 -0.5611 -0.4638 -0.6151
   68DG     C17 1558   0.365   0.027   5.274 -0.4824 -1.0611 -0.4452
   68DG     C18 1559   0.397   0.074   5.510  0.1044 -0.5017  0.4585
   68DG     O19 1560   0.301   0.068   5.400  0.4902 -0.2349 -0.0133
   68DG     H20 1561   0.421   0.119   5.259 -1.6650 -0.3941 -0.8020
   68DG     H21 1562   0.440  -0.051   5.289  0.3302  0.0685  1.9106
   68DG     H22 1563   0.493   0.122   5.490 -0.3744 -0.3094 -1.6275
   68DG     H23 1564   0.413  -0.024   5.555  0.3239 -0.2351  0.9749
   69DG      C1 1565   3.971   5.224   4.441  0.0061  0.0989  0.4210
   69DG      C2 1566   3.684   5.195   3.870  0.3753 -0.2747  0.5375
   69DG      H3 1567   3.999   5.252   4.543 -0.7913 -0.0597  0.6965
   69DG      H4 1568   4.045   5.255   4.368  0.3603  1.5254  1.3528
   69DG      H5 1569   3.978   5.116   4.450 -1.2875 -0.1761 -1.3710
   69DG      H6 1570   3.594   5.161   3.922 -1.2017  2.7681  0.0540
   69DG      H7 1571   3.650   5.235   3.774 -0.8344 -0.9475  0.6668
   69DG      H8 1572   3.748   5.109   3.852  1.6141  0.5826  0.7207
   69DG      O9 1573   3.842   5.281   4.409 -0.6721  0.9562  0.6234
   69DG     O10 1574   3.747   5.290   3.955  0.2558 -0.2437 -0.7784
   69DG     C11 1575   3.845   5.428   4.408 -0.0943 -0.5081 -0.4191
   69DG     C12 1576   3.677   5.408   3.975  0.4278 -0.2656  0.5370
   69DG     H13 1577   3.909   5.465   4.489  0.0959 -2.1743  0.2440
   69DG     H14 1578   3.754   5.484   4.432  2.2444  3.8302 -0.7180
   69DG     H15 1579   3.574   5.400   4.010  0.3031 -2.1190 -0.1303
   69DG     H16 1580   3.654   5.460   3.882 -1.4394  2.2325  2.2814
   69DG     C17 1581   3.888   5.473   4.274  0.5171  0.1568  0.2676
   69DG     C18 1582   3.768   5.485   4.068  0.5825  0.5134  0.2038
   69DG     O19 1583   3.802   5.402   4.181 -0.1837 -0.2782  0.3463
   69DG     H20 1584   3.992   5.453   4.252 -0.0668 -1.3327 -1.3975
   69DG     H21 1585   3.875   5.581   4.265 -0.4193  0.1700  1.5263
   69DG     H22 1586   3.863   5.516   4.025 -0.0373  0.4042 -1.3315
   69DG     H23 1587   3.732   5.580   4.107 -1.2042 -0.4497  1.0207
   70DG      C1 1588   4.271   1.437   1.983 -0.1768 -0.9400  0.2372
   70DG      C2 1589   4.394   1.448   2.590 -0.0711 -0.3144 -1.0633
   70DG      H3 1590   4.292   1.518   1.914  0.6964 -0.4690  1.0352
   70DG      H4 1591   4.183   1.467   2.041  0.1881  0.1694  0.2489
   70DG      H5 1592   4.248   1.346   1.927  0.4996 -0.7215 -0.4059
   70DG      H6 1593   4.344   1.353   2.570 -1.2795  0.3212 -1.1802
   70DG      H7 1594   4.438   1.464   2.688  0.7574 -1.3353 -1.2562
   70DG      H8 1595   4.316   1.523   2.579 -0.8128 -0.5446  1.8316
   70DG      O9 1596   4.382   1.433   2.069 -0.7040  0.0531  0.9861
   70DG     O10 1597   4.494   1.462   2.488 -0.2858 -0.5268  0.5643
   70DG     C11 1598   4.485   1.349   2.014 -0.5373 -0.6590  0.1531
   70DG     C12 1599   4.585   1.351   2.472  0.2290 -0.0505  0.6372
   70DG     H13 1600   4.531   1.388   1.923  0.7090 -0.7973  0.6998
   70DG     H14 1601   4.448   1.247   2.018 -0.3411 -0.7294  0.1735
   70DG     H15 1602   4.534   1.256   2.490  2.1778 -0.9079  1.9450
   70DG     H16 1603   4.668   1.354   2.542  0.6907 -2.6386  0.2775
   70DG     C17 1604   4.589   1.358   2.115 -0.6840 -0.5261  0.3981
   70DG     C18 1605   4.651   1.354   2.335  0.2845 -0.2689 -0.1409
   70DG     O19 1606   4.544   1.360   2.247  0.7821 -0.1765 -0.3259
   70DG     H20 1607   4.639   1.452   2.092 -0.0012 -1.5687 -2.9203
   70DG     H21 1608   4.665   1.280   2.104  0.1967 -0.3621  4.0510
   70DG     H22 1609   4.722   1.437   2.336  1.1339 -0.8358  4.0385
   70DG     H23 1610   4.716   1.270   2.308  1.5303  0.3339  0.8794
   71DG      C1 1611   2.966   4.346   3.919 -0.2664  0.6860 -0.2600
   71DG      C2 1612   2.563   4.385   3.404 -0.3329  0.2271  0.4360
   71DG      H3 1613   2.880   4.358   3.984  0.2248 -1.3204  0.8423
   71DG      H4 1614   3.005   4.443   3.889 -0.2026  0.7213 -0.0625
   71DG      H5 1615   3.053   4.291   3.956 -1.5246 -1.5687 -0.4516
   71DG      H6 1616   2.669   4.361   3.408 -0.1614  0.8502 -0.1289
   71DG      H7 1617   2.526   4.363   3.304  1.3040 -1.6451  0.1863
   71DG      H8 1618   2.543   4.482   3.449 -0.9710 -0.6424  2.1122
   71DG      O9 1619   2.937   4.286   3.798  0.4555  0.2629  0.0890
   71DG     O10 1620   2.503   4.295   3.489  0.3968  0.0010 -0.4383
   71DG     C11 1621   2.884   4.155   3.812 -0.4602 -0.3457  0.1559
   71DG     C12 1622   2.530   4.154   3.464 -0.4111  0.4140 -0.4169
   71DG     H13 1623   2.798   4.159   3.879  1.1398  0.8568  2.2641
   71DG     H14 1624   2.951   4.085   3.861 -0.2733 -0.4746 -0.2784
   71DG     H15 1625   2.506   4.131   3.360 -1.8838 -0.0607  0.0048
   71DG     H16 1626   2.456   4.099   3.522 -1.0366  0.8013 -0.8421
   71DG     C17 1627   2.843   4.111   3.670  0.6731 -0.5158  0.4023
   71DG     C18 1628   2.670   4.102   3.506  0.3263 -0.4881 -0.0304
   71DG     O19 1629   2.705   4.149   3.637 -0.6582 -0.0306  0.0037
   71DG     H20 1630   2.865   4.004   3.667 -0.0626 -0.6667  0.3857
   71DG     H21 1631   2.911   4.163   3.602 -1.2404  1.3692 -0.1864
   71DG     H22 1632   2.674   3.995   3.485  2.7579 -0.4809  0.0169
   71DG     H23 1633   2.740   4.149   3.437 -0.6969 -1.3190 -1.6773
   72DG      C1 1634   2.444   2.357   3.547 -0.0913  0.8010  0.5550
   72DG      C2 1635   2.712   2.680   3.001  0.0608 -0.3490  0.7293
   72DG      H3 1636   2.481   2.275   3.485  1.5038  2.5014 -0.8188
   72DG      H4 1637   2.347   2.331   3.590 -0.4140  1.0892  0.0114
   72DG      H5 1638   2.526   2.359   3.619  0.6768  1.6727 -0.3273
   72DG      H6 1639   2.718   2.571   2.990 -1.2804 -0.6184  2.1802
   72DG      H7 1640   2.676   2.719   2.907 -1.1324  1.2604  1.8036
   72DG      H8 1641   2.816   2.712   3.012 -0.4967  2.0380 -0.3431
   72DG      O9 1642   2.455   2.477   3.473  0.3505 -0.0481  0.3899
   72DG     O10 1643   2.637   2.697   3.116  0.3789  0.1606 -1.0953
   72DG     C11 1644   2.455   2.584   3.561 -0.5738 -0.1907  0.8129
   72DG     C12 1645   2.631   2.828   3.170 -0.6655 -0.4248 -0.3096
   72DG     H13 1646   2.543   2.585   3.626  0.4331 -1.2509 -0.5006
   72DG     H14 1647   2.368   2.586   3.627 -0.1107 -0.5902  1.4464
   72DG     H15 1648   2.599   2.909   3.103 -1.3681  1.7824  2.4973
   72DG     H16 1649   2.733   2.857   3.195  0.8158 -3.5767 -2.1453
   72DG     C17 1650   2.440   2.714   3.474 -0.2351  0.2563 -0.0421
   72DG     C18 1651   2.537   2.840   3.289 -0.1055 -0.5231  0.0038
   72DG     O19 1652   2.535   2.720   3.366 -0.2083  0.5447  0.6617
   72DG     H20 1653   2.440   2.806   3.534 -2.9610  1.7116 -2.0144
   72DG     H21 1654   2.336   2.721   3.441 -0.0529  2.0818 -0.3394
   72DG     H22 1655   2.571   2.920   3.355 -0.2127 -0.3362 -0.1640
   72DG     H23 1656   2.435   2.866   3.261  0.0112 -1.1759 -1.0844
   73DG      C1 1657   5.463   4.465   3.608 -0.2397  0.2344 -0.5284
   73DG      C2 1658   5.730   3.786   3.615  0.9565 -0.0793  0.0263
   73DG      H3 1659   5.368   4.506   3.643  0.1597  1.0423 -0.3656
   73DG      H4 1660   5.487   4.511   3.512 -2.6331  1.6487 -0.5452
   73DG      H5 1661   5.542   4.503   3.672  1.0846  0.6308 -2.3349
   73DG      H6 1662   5.827   3.826   3.585  0.4045  0.5246 -1.0275
   73DG      H7 1663   5.733   3.745   3.716  2.1673  0.1934  0.1236
   73DG      H8 1664   5.704   3.705   3.547  2.7791 -0.5935 -0.1190
   73DG      O9 1665   5.467   4.320   3.604  0.0706 -0.1920 -0.0330
   73DG     O10 1666   5.628   3.880   3.596 -0.2582 -0.0770  0.5588
   73DG     C11 1667   5.329   4.272   3.572 -0.3909  0.5588 -0.1685
   73DG     C12 1668   5.499   3.833   3.613 -0.4050  0.0618 -0.2389
   73DG     H13 1669   5.274   4.335   3.503 -2.4446 -1.7642 -0.7627
   73DG     H14 1670   5.275   4.263   3.667  1.8085  0.4791  1.1628
   73DG     H15 1671   5.468   3.850   3.716  0.7614  0.7104  0.0274
   73DG     H16 1672   5.476   3.732   3.581  1.3164 -1.1964  2.1698
   73DG     C17 1673   5.341   4.139   3.501 -0.1367 -0.2189  0.8543
   73DG     C18 1674   5.405   3.920   3.524 -0.2109  0.0240  0.0134
   73DG     O19 1675   5.411   4.046   3.578  0.1430  0.5398 -0.3495
   73DG     H20 1676   5.400   4.153   3.410  2.4299 -0.7896  2.3428
   73DG     H21 1677   5.243   4.106   3.466 -1.2667  2.0756  1.6952
   73DG     H22 1678   5.430   3.915   3.418 -0.0367  1.1197 -0.0050
   73DG     H23 1679   5.306   3.875   3.534  0.2581 -0.8869  0.6842
   74DG      C1 1680   0.933   1.107   3.032 -0.0978  0.2931 -0.6333
   74DG      C2 1681   0.287   0.998   3.342  0.1743 -0.7271 -0.0132
   74DG      H3 1682   0.924   1.040   3.118  1.1806 -1.5960 -1.8992
   74DG      H4 1683   0.983   1.198   3.067  1.4431 -0.8054  0.1455
   74DG      H5 1684   0.989   1.062   2.951 -1.0521 -1.4807 -0.3553
   74DG      H6 1685   0.342   0.911   3.380  0.5696  0.6086  2.6983
   74DG      H7 1686   0.182   1.003   3.370  0.4783  1.8804  0.8307
   74DG      H8 1687   0.295   0.991   3.233 -1.2832  0.7133 -0.2456
   74DG      O9 1688   0.803   1.147   2.991 -0.4124  0.0966  0.1915
   74DG     O10 1689   0.350   1.116   3.392 -1.3375 -0.1047  0.4628
   74DG     C11 1690   0.703   1.143   3.091  0.3443  0.1035  0.0018
   74DG     C12 1691   0.329   1.238   3.322  0.2331 -0.2962  0.7472
   74DG     H13 1692   0.733   1.214   3.169  1.8413  1.5909 -1.8273
   74DG     H14 1693   0.696   1.043   3.134 -0.1548 -0.0321 -0.3995
   74DG     H15 1694   0.339   1.327   3.385  0.7574 -0.4071  0.8234
   74DG     H16 1695   0.232   1.247   3.273  1.3673  0.1150 -1.5540
   74DG     C17 1696   0.566   1.172   3.030  0.9653 -0.4075  0.6665
   74DG     C18 1697   0.436   1.261   3.215 -0.5653  0.0725 -0.6911
   74DG     O19 1698   0.468   1.144   3.131 -0.4137 -0.0753  0.1919
   74DG     H20 1699   0.533   1.116   2.943 -0.2131  3.6725 -1.7975
   74DG     H21 1700   0.560   1.273   2.989 -0.9882 -1.3258 -1.5396
   74DG     H22 1701   0.417   1.353   3.160 -0.5715 -0.4021 -1.5015
   74DG     H23 1702   0.527   1.278   3.272 -1.0659  1.2948 -0.2261
   75DG      C1 1703   0.460   0.411   1.301 -0.0997 -0.4123  0.3666
   75DG      C2 1704   0.751  -0.131   1.062  0.5484  0.8263 -0.8183
   75DG      H3 1705   0.474   0.349   1.389  0.1151 -0.1864  0.4936
   75DG      H4 1706   0.355   0.395   1.278 -0.4958  1.4177  0.6999
   75DG      H5 1707   0.479   0.518   1.315  0.6275 -0.2228 -1.6954
   75DG      H6 1708   0.662  -0.194   1.064  0.0645  1.4433  2.0290
   75DG      H7 1709   0.825  -0.169   0.992 -2.1976  0.0894 -3.5457
   75DG      H8 1710   0.792  -0.126   1.163  1.1946  3.3876 -1.1190
   75DG      O9 1711   0.535   0.349   1.192 -0.0586 -0.4580 -0.7847
   75DG     O10 1712   0.708  -0.005   1.022 -0.4753 -0.5596 -0.1001
   75DG     C11 1713   0.516   0.427   1.074 -0.3480 -0.4534  0.2645
   75DG     C12 1714   0.657   0.008   0.890  0.1055  0.1527  0.4645
   75DG     H13 1715   0.575   0.516   1.092  1.5473 -1.8918  1.5774
   75DG     H14 1716   0.410   0.446   1.060 -1.0425 -2.2644  2.2792
   75DG     H15 1717   0.563  -0.043   0.868 -0.4838  1.7050 -0.7015
   75DG     H16 1718   0.729  -0.042   0.824 -1.0801 -0.6463 -0.2641
   75DG     C17 1719   0.584   0.354   0.958  0.3326  0.4801  1.0954
   75DG     C18 1720   0.625   0.154   0.851 -0.0159  0.2967  0.6563
   75DG     O19 1721   0.564   0.219   0.965 -0.0799 -0.1524  0.2084
   75DG     H20 1722   0.690   0.375   0.946 -0.0188  0.6952 -4.7669
   75DG     H21 1723   0.535   0.405   0.875  1.4927  1.1822  0.8231
   75DG     H22 1724   0.725   0.187   0.823 -0.1415 -1.7614 -2.9339
   75DG     H23 1725   0.579   0.162   0.753  0.7272  1.2716  0.3708
   76DG      C1 1726   4.327   4.424   1.945 -0.2480 -0.1945  0.0870
   76DG      C2 1727   4.982   4.525   2.198 -0.0916  0.0302  0.3898
   76DG      H3 1728   4.358   4.337   1.887  0.0053  0.6639 -1.0958
   76DG      H4 1729   4.263   4.484   1.880 -0.1724 -0.5702 -0.3435
   76DG      H5 1730   4.262   4.397   2.029 -0.0384 -2.2811 -0.3666
   76DG      H6 1731   5.047   4.483   2.274  2.7503  2.8671 -0.2622
   76DG      H7 1732   4.885   4.475   2.204  0.7261 -1.6285  0.1318
   76DG      H8 1733   5.030   4.512   2.101 -0.2179  1.7371  0.0573
   76DG      O9 1734   4.423   4.519   1.995  0.3487  0.2027 -0.4326
   76DG     O10 1735   4.963   4.665   2.229  0.5042  0.0503  0.3357
   76DG     C11 1736   4.498   4.446   2.091 -0.4204 -0.2772  0.4218
   76DG     C12 1737   4.886   4.722   2.126  0.5339  0.2756 -0.1511
   76DG     H13 1738   4.569   4.376   2.047  0.9876  0.6144  1.1969
   76DG     H14 1739   4.439   4.400   2.170 -0.9955  2.4973  1.7595
   76DG     H15 1740   4.901   4.691   2.023 -0.1532  0.6530 -0.3718
   76DG     H16 1741   4.911   4.827   2.109 -2.6296  0.9111 -1.7473
   76DG     C17 1742   4.579   4.546   2.169  0.2361 -0.0918 -0.1339
   76DG     C18 1743   4.738   4.718   2.150  0.2511  0.6533 -0.6912
   76DG     O19 1744   4.684   4.602   2.090  0.0410  0.1066 -0.2237
   76DG     H20 1745   4.631   4.500   2.253  1.4649  0.5806 -0.4938
   76DG     H21 1746   4.520   4.635   2.191  1.7047  1.2593 -1.3889
   76DG     H22 1747   4.732   4.718   2.259 -2.5911 -0.1043 -0.7547
   76DG     H23 1748   4.696   4.812   2.112  2.2906  2.5037  1.2943
   77DG      C1 1749   4.722   4.203   4.269  0.0975 -0.4760  0.5757
   77DG      C2 1750   4.424   4.784   4.237 -0.7339 -0.4881 -0.3618
   77DG      H3 1751   4.709   4.095   4.262  0.6616 -0.5125 -0.0218
   77DG      H4 1752   4.734   4.230   4.374 -0.0623 -0.4556  0.5892
   77DG      H5 1753   4.806   4.249   4.217 -1.4112  0.6380 -1.0029
   77DG      H6 1754   4.527   4.819   4.247 -0.6756 -0.1833 -1.9082
   77DG      H7 1755   4.384   4.826   4.145 -1.6798  0.3827  0.4110
   77DG      H8 1756   4.375   4.840   4.317 -0.8126  2.1034 -2.1167
   77DG      O9 1757   4.612   4.275   4.221  0.6802  0.4142 -0.2736
   77DG     O10 1758   4.422   4.646   4.239  0.0118  0.0677 -0.1890
   77DG     C11 1759   4.481   4.228   4.259  0.2390  0.2271  0.2663
   77DG     C12 1760   4.285   4.597   4.234  0.1903  0.7816  0.3037
   77DG     H13 1761   4.448   4.262   4.357  0.3560 -0.8325  0.6898
   77DG     H14 1762   4.488   4.121   4.279 -1.1966 -0.0665 -0.6599
   77DG     H15 1763   4.245   4.602   4.133  2.0874  1.3000 -0.4677
   77DG     H16 1764   4.230   4.658   4.305  0.2849  0.0275  1.0465
   77DG     C17 1765   4.390   4.253   4.141  0.7563 -0.2623 -0.3915
   77DG     C18 1766   4.283   4.443   4.255 -0.4207 -0.3283  0.6808
   77DG     O19 1767   4.375   4.396   4.154 -0.0341 -0.6546 -0.4077
   77DG     H20 1768   4.296   4.198   4.152  1.1074 -0.8675 -0.4260
   77DG     H21 1769   4.433   4.236   4.043 -1.0095  0.3869 -1.3174
   77DG     H22 1770   4.317   4.420   4.356 -0.7687 -0.2337  0.8197
   77DG     H23 1771   4.180   4.412   4.242 -0.7148  1.1823 -1.0345
   78DG      C1 1772   4.931   3.713   1.914 -0.9419  0.2478  0.3126
   78DG      C2 1773   5.225   4.289   1.768 -0.4067 -0.2094 -0.0685
   78DG      H3 1774   5.008   3.678   1.983 -0.9361  0.8922  0.6385
   78DG      H4 1775   4.968   3.676   1.818 -0.5931  0.8872  0.1955
   78DG      H5 1776   4.837   3.658   1.920 -0.7818  0.0297  0.9108
   78DG      H6 1777   5.287   4.326   1.849 -2.5045 -0.9592  1.9943
   78DG      H7 1778   5.268   4.229   1.688  3.2641  0.2436  1.3776
   78DG      H8 1779   5.193   4.382   1.719 -0.8190 -0.1398  0.3225
   78DG      O9 1780   4.898   3.850   1.906 -0.3559  0.0762  0.0151
   78DG     O10 1781   5.111   4.219   1.817  1.1178  0.2472 -0.0635
   78DG     C11 1782   4.807   3.894   2.010 -0.4466  0.4889 -0.0972
   78DG     C12 1783   5.054   4.288   1.932  0.0920 -0.4565  0.2795
   78DG     H13 1784   4.848   3.871   2.108 -0.0057  0.1692 -0.3541
   78DG     H14 1785   4.709   3.848   1.996 -0.2542 -0.0327  0.2687
   78DG     H15 1786   5.053   4.391   1.895  1.6805 -0.7339 -0.6182
   78DG     H16 1787   5.120   4.276   2.018 -0.4846  1.2579  1.0122
   78DG     C17 1788   4.792   4.047   2.008 -0.1397 -0.1253 -0.0227
   78DG     C18 1789   4.915   4.240   1.954  0.0025  0.7807  0.1028
   78DG     O19 1790   4.925   4.097   1.986  0.1296  0.6505  0.5392
   78DG     H20 1791   4.757   4.085   2.105  1.9401  1.4820  0.1869
   78DG     H21 1792   4.724   4.072   1.927 -1.0371 -1.9631  0.1218
   78DG     H22 1793   4.879   4.296   2.040 -0.0801  0.8851  0.0003
   78DG     H23 1794   4.850   4.250   1.867 -1.3033 -2.4854  0.5650
   79DG      C1 1795   2.088   0.717   2.514 -0.0972 -0.4381  0.1730
   79DG      C2 1796   2.256   0.872   3.131 -0.1477 -0.5339  1.0665
   79DG      H3 1797   2.165   0.792   2.529 -0.2192 -0.0540 -0.9666
   79DG      H4 1798   2.041   0.739   2.418 -0.2948  0.3802  0.4429
   79DG      H5 1799   2.134   0.618   2.512  1.3678  0.2194 -0.1157
   79DG      H6 1800   2.225   0.914   3.227 -0.5010  0.4976  0.5134
   79DG      H7 1801   2.303   0.775   3.119 -0.3856 -0.6016  0.6630
   79DG      H8 1802   2.319   0.952   3.090  0.0285 -1.0113  0.4021
   79DG      O9 1803   1.985   0.712   2.614  0.2130 -0.6832 -0.0438
   79DG     O10 1804   2.142   0.856   3.049  0.0292  0.7551 -0.1884
   79DG     C11 1805   1.913   0.838   2.599 -0.1674 -1.0777  0.3725
   79DG     C12 1806   2.062   0.975   3.033 -0.2821  0.1791 -0.7442
   79DG     H13 1807   1.825   0.824   2.535 -2.0228  0.7990  2.3022
   79DG     H14 1808   1.966   0.919   2.548  1.2369 -1.2644  1.5033
   79DG     H15 1809   2.133   1.053   3.004 -0.8761  0.5683 -1.1853
   79DG     H16 1810   2.035   0.995   3.137  0.3103 -0.8959 -0.3819
   79DG     C17 1811   1.866   0.889   2.735  0.1515 -1.4958 -0.2780
   79DG     C18 1812   1.945   0.960   2.936 -0.7261  0.2647  0.0030
   79DG     O19 1813   1.985   0.918   2.804 -0.3218  0.3871  0.2452
   79DG     H20 1814   1.806   0.814   2.787 -1.8046 -1.0899 -1.8500
   79DG     H21 1815   1.807   0.980   2.731  1.4267 -0.6003  0.2680
   79DG     H22 1816   1.886   0.880   2.982  1.6105 -0.3266  2.1832
   79DG     H23 1817   1.885   1.051   2.938 -0.9537  0.1142  0.0530
   80DG      C1 1818   4.773   2.671   0.841  0.1070  0.5078 -0.5420
   80DG      C2 1819   4.262   2.602   0.464 -0.1329  0.0721  0.6871
   80DG      H3 1820   4.744   2.582   0.896 -0.6901  0.2904 -1.2937
   80DG      H4 1821   4.746   2.757   0.901 -0.1406  1.2285 -1.6536
   80DG      H5 1822   4.881   2.655   0.838 -0.0254 -0.4439 -0.5994
   80DG      H6 1823   4.204   2.554   0.385 -1.4922  3.0098 -0.2472
   80DG      H7 1824   4.233   2.542   0.550 -2.7785 -1.0720 -0.8718
   80DG      H8 1825   4.211   2.697   0.480 -2.9928 -1.4829  1.4081
   80DG      O9 1826   4.715   2.673   0.713 -0.3138 -0.4182  0.0909
   80DG     O10 1827   4.398   2.621   0.455  0.5135 -0.4962  0.3325
   80DG     C11 1828   4.767   2.782   0.638 -0.2984 -0.2969  0.2360
   80DG     C12 1829   4.428   2.706   0.345  0.2262 -0.3192  0.4901
   80DG     H13 1830   4.873   2.792   0.662  0.0445 -1.8958 -0.4952
   80DG     H14 1831   4.731   2.878   0.675  1.3248 -0.1284  1.5060
   80DG     H15 1832   4.393   2.808   0.364  0.4090 -0.0903 -0.3696
   80DG     H16 1833   4.394   2.666   0.249 -0.1306 -0.2541  0.5867
   80DG     C17 1834   4.750   2.756   0.486 -0.0061  0.1657 -0.4468
   80DG     C18 1835   4.575   2.708   0.342 -0.5799 -0.2020 -0.7815
   80DG     O19 1836   4.606   2.759   0.470 -0.8533  0.5637 -0.0063
   80DG     H20 1837   4.784   2.654   0.470  0.3487  0.3365 -0.7993
   80DG     H21 1838   4.804   2.824   0.420  0.9972  0.0742  0.2615
   80DG     H22 1839   4.616   2.609   0.324 -3.5841 -1.4600 -1.3788
   80DG     H23 1840   4.607   2.764   0.254 -0.7223  0.3125 -0.5112
   81DG      C1 1841   3.445   2.314   4.329 -0.5697 -0.0803  0.1173
   81DG      C2 1842   3.949   1.928   4.084  0.1567 -0.2214  0.1621
   81DG      H3 1843   3.509   2.288   4.414  3.1695  1.9753 -1.7958
   81DG      H4 1844   3.339   2.292   4.339 -0.6312 -0.8349 -1.7458
   81DG      H5 1845   3.458   2.420   4.309 -2.3449  0.0421 -0.4996
   81DG      H6 1846   3.978   1.847   4.151  1.7218  0.3098  0.1914
   81DG      H7 1847   4.014   1.944   3.998 -0.2796 -1.4348 -0.4009
   81DG      H8 1848   3.962   2.019   4.144  3.2721  0.0596 -0.7461
   81DG      O9 1849   3.506   2.241   4.222  0.2993  0.0523 -0.5161
   81DG     O10 1850   3.818   1.923   4.043  0.3246  0.1688 -0.2202
   81DG     C11 1851   3.474   2.289   4.099  0.2733 -0.8297  0.0801
   81DG     C12 1852   3.796   2.010   3.940  0.3382  0.1329  0.0746
   81DG     H13 1853   3.493   2.396   4.087  3.8465 -1.1341  1.6162
   81DG     H14 1854   3.376   2.255   4.068  0.3427  0.7864 -2.1397
   81DG     H15 1855   3.856   1.982   3.854 -1.3174 -0.5353 -0.9036
   81DG     H16 1856   3.838   2.110   3.954 -1.5563  0.8601  0.8718
   81DG     C17 1857   3.571   2.224   3.987  0.1761 -0.2965  0.0833
   81DG     C18 1858   3.648   2.003   3.909  0.1389  0.1932  0.0447
   81DG     O19 1859   3.565   2.075   4.007 -0.3065  0.1753  0.2281
   81DG     H20 1860   3.674   2.258   3.997 -0.4337  1.2852  1.4125
   81DG     H21 1861   3.543   2.256   3.886  0.6253 -1.2431 -0.3523
   81DG     H22 1862   3.636   2.047   3.810  0.6073  0.6543  0.1881
   81DG     H23 1863   3.614   1.900   3.905  1.2479 -0.1980  0.4316
   82DG      C1 1864   0.634   3.114   2.564  0.0528  0.3688 -0.0847
   82DG      C2 1865   0.792   2.483   2.313  0.3437  0.3986 -0.6037
   82DG      H3 1866   0.624   3.100   2.672  2.6679  0.3962  0.2308
   82DG      H4 1867   0.539   3.095   2.515  0.0582  3.2427 -1.4155
   82DG      H5 1868   0.659   3.219   2.552 -2.3689  1.0237  0.1951
   82DG      H6 1869   0.809   2.412   2.394  1.2818 -0.2069 -1.3220
   82DG      H7 1870   0.691   2.477   2.271  0.7490 -2.9234 -1.3784
   82DG      H8 1871   0.852   2.441   2.233 -0.9433 -1.0337 -0.8656
   82DG      O9 1872   0.729   3.018   2.522 -0.1114 -0.6630  0.1923
   82DG     O10 1873   0.833   2.615   2.353  0.0337  0.5111 -0.4125
   82DG     C11 1874   0.853   3.044   2.593 -0.2720  0.1191  0.0784
   82DG     C12 1875   0.968   2.623   2.394 -0.4995  0.7697  0.0178
   82DG     H13 1876   0.843   3.007   2.695 -2.5486 -2.3072 -0.9229
   82DG     H14 1877   0.883   3.149   2.587  0.6350 -0.1607 -0.3973
   82DG     H15 1878   1.042   2.569   2.335 -0.5726 -0.7896  1.2883
   82DG     H16 1879   0.974   2.573   2.491  1.5714 -2.4509 -1.5879
   82DG     C17 1880   0.966   2.972   2.517  0.4203 -0.4491  0.0593
   82DG     C18 1881   1.014   2.772   2.389  0.2886  0.6092 -0.1812
   82DG     O19 1882   0.924   2.851   2.470  0.4382 -0.5023  0.0125
   82DG     H20 1883   1.045   2.950   2.589  1.8736  2.0517 -0.6603
   82DG     H21 1884   1.016   3.038   2.446  2.7171  1.3106  3.0158
   82DG     H22 1885   1.112   2.776   2.436 -0.2081  2.2880  0.7983
   82DG     H23 1886   1.005   2.813   2.288 -2.8127 -0.6057 -0.5076
   83DG      C1 1887   1.247   2.193   3.897  0.2609  0.0391 -0.5619
   83DG      C2 1888   0.782   2.275   4.416 -0.4075  0.3295 -0.1779
   83DG      H3 1889   1.311   2.121   3.948 -1.3890 -1.1863 -0.1563
   83DG      H4 1890   1.306   2.268   3.843  2.1516 -0.2270  1.0069
   83DG      H5 1891   1.180   2.144   3.826  0.6803 -1.9431  0.3474
   83DG      H6 1892   0.853   2.221   4.478 -1.9081  0.8295  2.1213
   83DG      H7 1893   0.799   2.381   4.435  0.8792 -0.1189  1.3438
   83DG      H8 1894   0.684   2.250   4.456 -0.2365 -0.6293 -0.3382
   83DG      O9 1895   1.179   2.246   4.009  0.0520 -0.4953  0.0499
   83DG     O10 1896   0.800   2.228   4.280  0.0420 -0.2212  0.1086
   83DG     C11 1897   1.117   2.374   3.973  0.4905  0.0999  0.1500
   83DG     C12 1898   0.729   2.318   4.190  0.1269 -0.2864 -0.4306
   83DG     H13 1899   1.088   2.370   3.868  2.7609 -1.7585 -0.4872
   83DG     H14 1900   1.179   2.461   3.992  1.9585 -0.7515 -0.6094
   83DG     H15 1901   0.750   2.424   4.207  1.4452 -0.5139 -0.5061
   83DG     H16 1902   0.623   2.298   4.204  0.3970 -0.8921  0.8902
   83DG     C17 1903   0.985   2.382   4.058  0.0561  0.2956  0.0230
   83DG     C18 1904   0.764   2.289   4.045  0.6162  0.0659 -0.1788
   83DG     O19 1905   0.901   2.265   4.027  0.2269 -0.1701 -0.1409
   83DG     H20 1906   0.927   2.466   4.018 -0.4173 -0.5812 -1.1766
   83DG     H21 1907   0.998   2.395   4.165 -1.0472  2.3422 -0.0210
   83DG     H22 1908   0.708   2.198   4.022  1.0537 -1.1362  2.9731
   83DG     H23 1909   0.710   2.364   3.987 -0.1504 -1.4258 -1.4930
   84DG      C1 1910   0.529   5.163   4.575 -0.1925  0.1649  0.5272
   84DG      C2 1911   1.040   5.517   4.780  0.2609  0.1122  0.6527
   84DG      H3 1912   0.510   5.139   4.470 -1.6999  2.3080  0.2350
   84DG      H4 1913   0.477   5.255   4.602 -2.4443 -0.7114 -0.5352
   84DG      H5 1914   0.495   5.092   4.650 -0.7828 -0.0293  0.0831
   84DG      H6 1915   1.106   5.595   4.741  1.3015 -0.9361  0.2266
   84DG      H7 1916   0.946   5.562   4.811 -0.3740 -0.4884 -0.3189
   84DG      H8 1917   1.080   5.461   4.864 -1.0260 -2.6481 -0.4383
   84DG      O9 1918   0.668   5.187   4.584  0.2096  0.8854  0.6281
   84DG     O10 1919   1.015   5.414   4.687 -0.0806 -0.5033 -0.1623
   84DG     C11 1920   0.739   5.059   4.579  0.7812  0.1093  0.0679
   84DG     C12 1921   1.124   5.322   4.677 -0.2877  0.0425 -0.9941
   84DG     H13 1922   0.682   4.976   4.537  0.1440  1.2516 -1.4261
   84DG     H14 1923   0.743   5.023   4.682 -2.3846  0.8219  0.5415
   84DG     H15 1924   1.141   5.272   4.772 -1.6194  1.0173 -0.2167
   84DG     H16 1925   1.214   5.378   4.652 -0.1223  0.8380  1.2349
   84DG     C17 1926   0.877   5.083   4.525  0.4503 -0.2750 -0.1085
   84DG     C18 1927   1.069   5.223   4.569 -0.2650 -0.8013  0.1485
   84DG     O19 1928   0.947   5.167   4.617 -0.4983 -0.2298 -0.0127
   84DG     H20 1929   0.882   5.125   4.425  1.4084  1.4711  0.6226
   84DG     H21 1930   0.930   4.988   4.515  1.1779  0.0427  0.5391
   84DG     H22 1931   1.053   5.267   4.471  0.6817 -0.7023  0.0317
   84DG     H23 1932   1.146   5.146   4.564  0.8532  0.3228 -1.0023
   85DG      C1 1933   1.791   1.716   5.129  0.1002  0.5039 -0.3036
   85DG      C2 1934   1.612   2.124   4.634  0.3002  0.6897 -0.5713
   85DG      H3 1935   1.869   1.641   5.120 -1.5153 -1.1354 -1.2428
   85DG      H4 1936   1.713   1.662   5.076  0.4067 -0.3943  0.1404
   85DG      H5 1937   1.757   1.723   5.232 -0.3066 -0.3000 -0.3749
   85DG      H6 1938   1.509   2.128   4.671  0.8764  1.4734  1.0232
   85DG      H7 1939   1.626   2.201   4.558  1.9762  2.1517  1.1065
   85DG      H8 1940   1.628   2.028   4.586 -1.5473 -0.1342  0.3296
   85DG      O9 1941   1.820   1.844   5.078 -0.1892 -0.5663  0.0947
   85DG     O10 1942   1.687   2.141   4.754  0.0252 -0.2083  0.1590
   85DG     C11 1943   1.960   1.877   5.088  0.4464  0.0465 -0.0812
   85DG     C12 1944   1.829   2.164   4.729 -0.1231  0.0961 -0.8747
   85DG     H13 1945   2.024   1.820   5.021  0.6963  1.4699 -1.1073
   85DG     H14 1946   1.982   1.868   5.194 -0.3205 -0.7136  0.0292
   85DG     H15 1947   1.836   2.257   4.671 -1.9385  0.3472 -0.7558
   85DG     H16 1948   1.874   2.095   4.657 -0.0860  2.7592 -3.6450
   85DG     C17 1949   1.974   2.030   5.042  0.0493  0.2701  0.0344
   85DG     C18 1950   1.904   2.169   4.860 -0.4375 -0.0163 -0.0167
   85DG     O19 1951   1.899   2.040   4.924 -0.3043 -0.1178  0.0393
   85DG     H20 1952   2.079   2.046   5.019  0.4795 -1.9352  0.2302
   85DG     H21 1953   1.936   2.101   5.116 -0.1358  1.0129 -0.7610
   85DG     H22 1954   2.009   2.190   4.836 -0.4837 -0.0509 -0.2488
   85DG     H23 1955   1.875   2.257   4.917  0.3744  0.8116 -0.8389
   86DG      C1 1956   2.119   0.991   1.133  0.3388  0.8831  0.4366
   86DG      C2 1957   2.309   1.469   0.809  0.1919 -0.7958 -0.1766
   86DG      H3 1958   2.061   0.972   1.043  0.7610 -0.0434  0.3476
   86DG      H4 1959   2.046   0.993   1.215 -3.6839 -0.8587 -2.7347
   86DG      H5 1960   2.190   0.910   1.147 -0.6085 -1.0371 -4.1732
   86DG      H6 1961   2.262   1.399   0.739  0.5444 -0.2465 -0.9786
   86DG      H7 1962   2.271   1.568   0.783  1.8736 -0.8614 -3.3054
   86DG      H8 1963   2.415   1.473   0.788  0.1300  2.8526 -0.3801
   86DG      O9 1964   2.191   1.112   1.118 -0.0361  0.1148 -0.9328
   86DG     O10 1965   2.290   1.427   0.941  0.2534  0.0968 -0.1032
   86DG     C11 1966   2.257   1.143   1.240 -0.4597 -0.7384  0.0898
   86DG     C12 1967   2.324   1.525   1.039  0.4724 -0.0074  0.3707
   86DG     H13 1968   2.339   1.075   1.262  0.9088  0.2373 -1.6860
   86DG     H14 1969   2.195   1.134   1.329  0.8233 -0.2634  1.0515
   86DG     H15 1970   2.337   1.628   1.007  2.5918  0.8371  3.4917
   86DG     H16 1971   2.431   1.505   1.043  1.0162  2.4006 -0.4193
   86DG     C17 1972   2.312   1.286   1.234 -0.4191  0.0133 -0.6862
   86DG     C18 1973   2.268   1.511   1.184 -0.4975 -0.6583  0.4390
   86DG     O19 1974   2.215   1.380   1.196 -0.3281 -0.3526 -0.6064
   86DG     H20 1975   2.394   1.295   1.164  0.0584 -2.8725 -0.6177
   86DG     H21 1976   2.354   1.312   1.331 -0.4760  2.5516 -1.2608
   86DG     H22 1977   2.337   1.537   1.264 -2.1074  0.1248  1.6289
   86DG     H23 1978   2.189   1.585   1.197  0.4891  0.4882  0.0193
   87DG      C1 1979   0.950   0.861   2.229 -0.3521  0.0609  0.0937
   87DG      C2 1980   1.336   0.311   2.305 -0.0506 -0.3642 -0.0500
   87DG      H3 1981   0.870   0.873   2.301  1.2235 -1.5289  2.2661
   87DG      H4 1982   0.914   0.835   2.130  0.9975 -3.0814  0.2834
   87DG      H5 1983   0.998   0.958   2.219 -1.6861  1.0654  2.5130
   87DG      H6 1984   1.416   0.383   2.315  1.1208 -1.6766  0.3618
   87DG      H7 1985   1.358   0.214   2.350  1.4776  0.4665  1.0478
   87DG      H8 1986   1.330   0.300   2.196 -0.8764  0.2058 -0.0748
   87DG      O9 1987   1.026   0.756   2.283  0.1080 -0.1083  0.4910
   87DG     O10 1988   1.207   0.356   2.341  0.2002  0.2689 -0.1402
   87DG     C11 1989   1.065   0.770   2.423 -0.5565 -0.0663  0.2822
   87DG     C12 1990   1.200   0.368   2.483  0.2662  0.0976 -0.3227
   87DG     H13 1991   0.978   0.806   2.477 -0.4320  0.0507  0.4063
   87DG     H14 1992   1.139   0.850   2.430  0.2728 -0.7769 -0.1309
   87DG     H15 1993   1.287   0.415   2.530  0.4961 -1.4363  0.8431
   87DG     H16 1994   1.211   0.266   2.519 -1.1565 -1.1061 -2.9869
   87DG     C17 1995   1.121   0.646   2.475 -0.5915  0.4858 -1.1354
   87DG     C18 1996   1.068   0.427   2.531 -0.3628  0.3133  0.4257
   87DG     O19 1997   1.034   0.540   2.452  0.1190 -0.3805  0.2225
   87DG     H20 1998   1.171   0.653   2.572  3.2110 -2.5208 -2.5975
   87DG     H21 1999   1.206   0.639   2.407 -1.0548  1.9282 -1.8936
   87DG     H22 2000   0.988   0.357   2.508 -0.9102  0.8842  0.5802
   87DG     H23 2001   1.067   0.443   2.638 -0.2759  1.0356  0.3207
   88DG      C1 2002   0.313   4.023   3.355 -0.4349  0.3486  0.3997
   88DG      C2 2003   0.106   4.364   3.965 -0.9603 -0.8005  0.4802
   88DG      H3 2004   0.219   3.969   3.366  1.0575 -2.2588  1.2596
   88DG      H4 2005   0.384   3.945   3.381 -0.9305 -0.0845  0.4892
   88DG      H5 2006   0.335   4.064   3.257 -0.1034  0.9791  0.7359
   88DG      H6 2007   0.162   4.354   4.058 -1.4515  1.2597  1.0654
   88DG      H7 2008   0.065   4.465   3.963  1.2952  0.1730 -0.7696
   88DG      H8 2009   0.018   4.300   3.964 -1.6781  0.1494 -1.0863
   88DG      O9 2010   0.325   4.135   3.442  0.1757 -0.2844 -0.0396
   88DG     O10 2011   0.183   4.339   3.848 -0.1168  0.1920  0.1566
   88DG     C11 2012   0.457   4.173   3.460  0.4680  0.2819  0.5411
   88DG     C12 2013   0.303   4.413   3.854  0.7008  0.1947 -0.1383
   88DG     H13 2014   0.521   4.172   3.372  0.0262  1.0969  0.2011
   88DG     H14 2015   0.513   4.101   3.521  2.2966 -0.6648 -2.0951
   88DG     H15 2016   0.377   4.369   3.922  0.6443  1.0902  0.5257
   88DG     H16 2017   0.283   4.514   3.890 -2.2366  0.5403 -2.4030
   88DG     C17 2018   0.456   4.307   3.528 -0.0490 -0.3903  0.0678
   88DG     C18 2019   0.380   4.422   3.721  0.8090  0.1485  0.2228
   88DG     O19 2020   0.379   4.298   3.649 -0.2543 -0.0177 -0.5514
   88DG     H20 2021   0.422   4.388   3.462  2.2450  0.1499 -0.5403
   88DG     H21 2022   0.559   4.336   3.545 -0.2707  1.3156 -1.2063
   88DG     H22 2023   0.322   4.494   3.664 -0.9451 -1.5781 -0.2788
   88DG     H23 2024   0.483   4.454   3.737  0.5849  0.6361  0.7657
   89DG      C1 2025   3.534   5.497   1.309  0.3906  0.3494 -0.3413
   89DG      C2 2026   4.055   5.496   1.895  0.0109 -0.7654 -0.2040
   89DG      H3 2027   3.438   5.462   1.349 -0.0594  0.5067 -1.2504
   89DG      H4 2028   3.508   5.517   1.205 -1.9974 -1.3433 -0.1656
   89DG      H5 2029   3.531   5.591   1.365  1.2470  0.2768 -0.1581
   89DG      H6 2030   4.101   5.594   1.880  0.7020 -1.3219 -1.9209
   89DG      H7 2031   3.964   5.510   1.953 -1.6831 -0.8329 -2.6962
   89DG      H8 2032   4.128   5.420   1.924  2.5841  1.3697 -0.7519
   89DG      O9 2033   3.637   5.404   1.327  0.0797 -0.0428  0.0777
   89DG     O10 2034   4.029   5.459   1.764  0.0324 -0.2735  0.5958
   89DG     C11 2035   3.769   5.450   1.313 -0.7162  0.6402  0.3641
   89DG     C12 2036   3.971   5.334   1.755  0.3626 -0.3517  0.0456
   89DG     H13 2037   3.762   5.556   1.336 -2.2193  0.7038 -0.2379
   89DG     H14 2038   3.796   5.459   1.208  0.4482 -4.7349 -0.0924
   89DG     H15 2039   3.875   5.352   1.803  0.2157  1.3648 -0.7971
   89DG     H16 2040   4.033   5.264   1.811  1.5762  0.2070 -0.5549
   89DG     C17 2041   3.873   5.355   1.390  0.1280  0.3738 -0.3050
   89DG     C18 2042   3.969   5.298   1.602  0.6447 -0.8334 -0.2156
   89DG     O19 2043   3.875   5.380   1.530  0.2217  0.2670  0.0933
   89DG     H20 2044   3.970   5.362   1.342 -0.7003  0.7103 -2.0371
   89DG     H21 2045   3.846   5.250   1.379 -0.3193  0.2862  1.3403
   89DG     H22 2046   4.069   5.312   1.561  1.2619  0.7688  1.6532
   89DG     H23 2047   3.941   5.193   1.597  0.3650 -1.3502  5.4049
   90DG      C1 2048   1.373   0.289   0.443 -0.0528 -0.0537  0.1010
   90DG      C2 2049   2.040   0.332   0.682 -0.3064  0.3909 -0.0798
   90DG      H3 2050   1.300   0.208   0.439 -0.0556 -0.1166  1.2094
   90DG      H4 2051   1.434   0.293   0.353 -0.6603  0.0455 -0.3111
   90DG      H5 2052   1.332   0.389   0.453 -1.3518 -0.4682 -0.7935
   90DG      H6 2053   2.050   0.440   0.679  1.3098  0.3176  1.3587
   90DG      H7 2054   2.105   0.277   0.750 -1.2543 -0.3063  0.2866
   90DG      H8 2055   2.063   0.297   0.581  2.2060  0.6488  0.3477
   90DG      O9 2056   1.458   0.262   0.560  0.2469  0.3315  0.2330
   90DG     O10 2057   1.903   0.296   0.708 -0.2987 -0.7603  0.6598
   90DG     C11 2058   1.404   0.287   0.686 -0.0128 -0.0174  0.2572
   90DG     C12 2059   1.858   0.332   0.834  0.6133  0.3891  0.2682
   90DG     H13 2060   1.301   0.260   0.709 -0.2519  1.4666  1.0799
   90DG     H14 2061   1.394   0.395   0.698  0.0732 -0.1466  1.5325
   90DG     H15 2062   1.847   0.441   0.833  0.0121  0.3282 -0.1769
   90DG     H16 2063   1.931   0.300   0.909 -1.2348  0.2154  2.0829
   90DG     C17 2064   1.502   0.243   0.793  0.4085 -0.3864 -0.0945
   90DG     C18 2065   1.724   0.272   0.867 -0.4213 -0.5360  0.0166
   90DG     O19 2066   1.630   0.311   0.771  0.1051  0.0344  0.2500
   90DG     H20 2067   1.512   0.135   0.793 -1.0081 -0.5469  1.2002
   90DG     H21 2068   1.477   0.281   0.892 -0.6202  1.4220 -0.9906
   90DG     H22 2069   1.730   0.163   0.875 -2.6423 -0.6583  0.5237
   90DG     H23 2070   1.691   0.307   0.965  0.0511 -1.1066  0.3923
   91DG      C1 2071   5.395   4.886   3.442  0.4784 -0.2777  0.1527
   91DG      C2 2072   4.872   4.779   3.026 -0.3938  0.2126  0.0996
   91DG      H3 2073   5.359   4.987   3.461  0.1670 -0.3018 -0.2985
   91DG      H4 2074   5.503   4.880   3.455  0.6982  1.9515 -0.2249
   91DG      H5 2075   5.344   4.821   3.514 -1.6515 -0.1618 -1.1510
   91DG      H6 2076   4.840   4.751   2.926  0.0541 -2.0767  0.5383
   91DG      H7 2077   4.811   4.724   3.098  1.3207 -0.5666  1.0393
   91DG      H8 2078   4.846   4.884   3.041 -3.8693 -0.5982  0.5283
   91DG      O9 2079   5.361   4.847   3.309  0.0195  0.0028 -0.0674
   91DG     O10 2080   5.012   4.766   3.042  0.1420  0.2019 -0.1004
   91DG     C11 2081   5.426   4.730   3.265  0.5988  0.1749  0.3000
   91DG     C12 2082   5.056   4.633   2.994  0.6954 -0.0270 -0.1173
   91DG     H13 2083   5.409   4.636   3.316  0.0535 -0.1311 -0.4211
   91DG     H14 2084   5.535   4.741   3.260  0.5203  0.5856 -1.3124
   91DG     H15 2085   5.015   4.598   2.898 -0.7096 -0.5641  0.6453
   91DG     H16 2086   5.021   4.560   3.068 -0.3575 -2.2584 -2.6211
   91DG     C17 2087   5.372   4.716   3.125  0.0901 -0.1418 -0.0036
   91DG     C18 2088   5.204   4.622   3.009  0.3222  0.6466 -0.1185
   91DG     O19 2089   5.242   4.672   3.134 -0.6137 -0.7612  0.4333
   91DG     H20 2090   5.439   4.658   3.062 -0.8165 -1.0549 -0.1414
   91DG     H21 2091   5.364   4.816   3.081  0.4587 -0.6803 -1.3403
   91DG     H22 2092   5.230   4.516   3.002  2.2377  1.0203  0.7889
   91DG     H23 2093   5.249   4.684   2.932  0.8367  1.4042  0.7719
   92DG      C1 2094   1.730   2.162   4.190  0.3933  0.5447 -0.1691
   92DG      C2 2095   2.156   2.111   3.689 -0.2794  0.0037 -0.4336
   92DG      H3 2096   1.639   2.154   4.131  1.9908  0.1323 -2.7060
   92DG      H4 2097   1.715   2.190   4.295 -0.0420 -2.4050  0.6374
   92DG      H5 2098   1.753   2.056   4.195  0.8905  0.7003  1.4412
   92DG      H6 2099   2.085   2.101   3.607 -1.9134 -1.4910  1.0634
   92DG      H7 2100   2.246   2.158   3.650 -0.3634  0.2360 -0.3505
   92DG      H8 2101   2.184   2.012   3.726  0.1177 -0.2442 -1.3706
   92DG      O9 2102   1.838   2.229   4.125  0.8651 -0.1441 -0.0911
   92DG     O10 2103   2.100   2.213   3.776  0.2301  0.0497 -0.4008
   92DG     C11 2104   1.807   2.377   4.120  1.0714  0.2855 -0.9800
   92DG     C12 2105   2.056   2.345   3.723 -0.0059  0.4001 -0.1040
   92DG     H13 2106   1.806   2.422   4.219 -0.7705 -0.1634 -0.7515
   92DG     H14 2107   1.706   2.401   4.085  1.4406  0.9990 -1.5726
   92DG     H15 2108   1.963   2.317   3.673 -0.5426  1.0647  0.4902
   92DG     H16 2109   2.125   2.392   3.653  1.5876 -0.0062  1.1306
   92DG     C17 2110   1.915   2.456   4.040 -0.5653  0.3574  0.2927
   92DG     C18 2111   2.032   2.442   3.834 -0.6386  0.0356 -0.0195
   92DG     O19 2112   1.942   2.377   3.929  0.1945 -0.2553 -0.5369
   92DG     H20 2113   2.000   2.473   4.106  0.7806  0.5543 -1.4349
   92DG     H21 2114   1.881   2.552   4.002  0.8514  0.8529  0.2318
   92DG     H22 2115   2.130   2.462   3.879 -0.7108  1.4435 -0.4620
   92DG     H23 2116   1.992   2.533   3.791  1.1089  1.0698  0.4419
   93DG      C1 2117   2.466   5.240   5.475 -0.2123 -0.1863 -0.4135
   93DG      C2 2118   2.854   5.423   5.013 -0.7406  0.3657 -0.1693
   93DG      H3 2119   2.378   5.192   5.518 -0.5536  0.2810 -0.5815
   93DG      H4 2120   2.503   5.280   5.569 -0.7903 -1.0970  0.2179
   93DG      H5 2121   2.527   5.161   5.431 -0.6125 -0.0904 -1.1641
   93DG      H6 2122   2.933   5.434   5.087 -0.9252 -0.4951  0.1637
   93DG      H7 2123   2.854   5.321   4.974 -1.7873 -0.5391  2.0670
   93DG      H8 2124   2.875   5.491   4.930  3.1277 -1.8476 -1.2834
   93DG      O9 2125   2.439   5.340   5.384 -0.1968 -0.6073 -0.0613
   93DG     O10 2126   2.725   5.462   5.055  0.3362  0.6233  0.4578
   93DG     C11 2127   2.330   5.318   5.304  0.0104 -0.4972 -0.6223
   93DG     C12 2128   2.622   5.419   4.954 -0.3965 -0.1272  0.5366
   93DG     H13 2129   2.236   5.330   5.358  0.7826  0.5225  0.5482
   93DG     H14 2130   2.336   5.216   5.266  0.2172 -1.1997  1.1910
   93DG     H15 2131   2.639   5.315   4.927  1.0513  0.5809 -1.4968
   93DG     H16 2132   2.632   5.461   4.854 -0.2198  0.3190  0.7391
   93DG     C17 2133   2.338   5.422   5.186 -0.1113  0.0042 -0.2699
   93DG     C18 2134   2.478   5.451   4.997 -0.1119  0.0076  0.1958
   93DG     O19 2135   2.468   5.410   5.133  0.0542 -0.2940  0.1300
   93DG     H20 2136   2.318   5.517   5.236 -0.9061 -0.9537  1.3325
   93DG     H21 2137   2.266   5.395   5.108  1.6264 -0.9025 -1.6236
   93DG     H22 2138   2.455   5.556   4.978  3.6893  1.1613  1.1757
   93DG     H23 2139   2.413   5.385   4.939  1.0402 -1.8515  0.9349
   94DG      C1 2140   1.178   0.813   3.767 -0.1299 -0.3439 -0.4562
   94DG      C2 2141   1.060   0.141   3.576 -0.5330  0.1871  0.0828
   94DG      H3 2142   1.081   0.805   3.816 -0.3729 -0.7931 -1.0055
   94DG      H4 2143   1.187   0.909   3.716 -1.6799 -0.2482 -0.6112
   94DG      H5 2144   1.249   0.789   3.846  1.0107  0.5172 -1.1902
   94DG      H6 2145   1.156   0.104   3.612  0.8514  1.6334 -1.9199
   94DG      H7 2146   0.987   0.157   3.656 -0.5864 -0.4283  0.1593
   94DG      H8 2147   1.020   0.060   3.516  0.3884  0.2287 -0.6119
   94DG      O9 2148   1.174   0.709   3.676 -0.7019  0.0167  0.3391
   94DG     O10 2149   1.073   0.275   3.515  0.6082 -0.4617  0.1916
   94DG     C11 2150   1.286   0.713   3.584  0.1961  0.4289 -0.2674
   94DG     C12 2151   1.162   0.283   3.406  0.0558  0.4033  0.3109
   94DG     H13 2152   1.369   0.660   3.630  0.1892  1.2625  0.7445
   94DG     H14 2153   1.330   0.807   3.552  3.3929  0.1422  2.6685
   94DG     H15 2154   1.133   0.215   3.326  0.8324 -1.7757  1.7845
   94DG     H16 2155   1.256   0.245   3.446  0.9935  2.7604  0.4648
   94DG     C17 2156   1.254   0.642   3.458  0.3008 -0.5801  0.5498
   94DG     C18 2157   1.180   0.431   3.363 -0.5155  0.2729  0.2943
   94DG     O19 2158   1.240   0.504   3.471  0.3193  0.4362  0.3699
   94DG     H20 2159   1.341   0.649   3.392  0.8069 -0.5240  1.2130
   94DG     H21 2160   1.163   0.677   3.409 -0.3324 -3.3924 -0.5113
   94DG     H22 2161   1.245   0.441   3.276 -0.3609  1.2400  0.5067
   94DG     H23 2162   1.079   0.463   3.337 -1.0362 -0.4523  1.3431
   95DG      C1 2163   4.924   0.778   2.695 -0.1504 -0.5451  0.6361
   95DG      C2 2164   4.385   0.940   2.444  0.0622 -0.4796  0.2749
   95DG      H3 2165   4.999   0.711   2.736 -0.9530 -1.6841  0.2941
   95DG      H4 2166   4.850   0.801   2.772  0.8557 -0.7769  1.6975
   95DG      H5 2167   4.951   0.872   2.646 -0.8682 -1.0596 -0.8072
   95DG      H6 2168   4.352   0.917   2.545  0.3963  2.1873  1.0540
   95DG      H7 2169   4.357   1.043   2.426  2.8217  0.3259  0.1474
   95DG      H8 2170   4.337   0.872   2.373 -1.3766  0.6769  0.1040
   95DG      O9 2171   4.850   0.707   2.603  0.3730 -0.8164 -0.6309
   95DG     O10 2172   4.523   0.936   2.433 -0.2370  0.2239 -0.3795
   95DG     C11 2173   4.909   0.678   2.480 -0.1926 -0.1355  0.1696
   95DG     C12 2174   4.574   0.945   2.295 -0.5634 -0.0084 -0.3251
   95DG     H13 2175   4.854   0.589   2.451 -0.7816  0.3222 -0.1275
   95DG     H14 2176   5.018   0.668   2.481 -0.1370  0.4138 -0.0516
   95DG     H15 2177   4.540   1.036   2.247  1.7350  1.1067  0.0716
   95DG     H16 2178   4.523   0.872   2.231 -1.4827 -0.4941  0.9083
   95DG     C17 2179   4.886   0.787   2.373  0.0796  0.2149  0.4500
   95DG     C18 2180   4.722   0.932   2.288  0.0895 -0.0274 -0.2122
   95DG     O19 2181   4.752   0.831   2.385 -0.3683 -0.7486 -0.0343
   95DG     H20 2182   4.905   0.760   2.269 -1.4107 -1.4163  0.5546
   95DG     H21 2183   4.955   0.871   2.381  1.2769 -0.3862 -2.2999
   95DG     H22 2184   4.765   0.909   2.191 -0.7288  2.5353 -1.2450
   95DG     H23 2185   4.759   1.027   2.328  0.4956 -0.6208  0.8813
   96DG      C1 2186   1.874   0.083   2.737 -0.2373  0.4450  0.0710
   96DG      C2 2187   1.719  -0.411   2.342 -0.7184  0.3147 -0.8052
   96DG      H3 2188   1.938   0.169   2.750 -0.1262  0.0043  2.9487
   96DG      H4 2189   1.818   0.066   2.829  2.0389 -0.8599  1.2954
   96DG      H5 2190   1.810   0.100   2.650  0.7888  1.2838 -0.5342
   96DG      H6 2191   1.738  -0.502   2.286 -2.1346 -1.7918  1.8874
   96DG      H7 2192   1.638  -0.417   2.415 -0.4624  1.3365 -0.4186
   96DG      H8 2193   1.682  -0.338   2.270 -0.6753 -1.6373 -2.9246
   96DG      O9 2194   1.953  -0.037   2.715 -0.3681 -0.1522  0.3267
   96DG     O10 2195   1.830  -0.373   2.424  0.2207  0.0763 -0.3397
   96DG     C11 2196   2.072  -0.008   2.627 -0.5503  0.5499  0.0462
   96DG     C12 2197   1.958  -0.373   2.354  0.1438 -0.5321  0.1217
   96DG     H13 2198   2.155   0.022   2.691 -2.1540 -0.5886  2.8491
   96DG     H14 2199   2.049   0.076   2.561 -0.4698 -0.1408 -0.8777
   96DG     H15 2200   1.945  -0.288   2.288 -2.7356 -0.1960  0.9684
   96DG     H16 2201   1.975  -0.460   2.291 -1.1561 -1.6538  1.2596
   96DG     C17 2202   2.130  -0.129   2.560  0.0762 -0.1300  0.6819
   96DG     C18 2203   2.065  -0.345   2.462 -0.6746 -0.5225 -1.0854
   96DG     O19 2204   2.024  -0.210   2.516  0.1482  0.3896  0.3332
   96DG     H20 2205   2.182  -0.192   2.631  0.7495 -1.2966 -0.7876
   96DG     H21 2206   2.199  -0.112   2.477 -3.3076 -0.4648 -2.4926
   96DG     H22 2207   2.067  -0.417   2.543  2.2171  0.7635  0.1305
   96DG     H23 2208   2.162  -0.336   2.414 -1.2124  0.8700 -1.9859
   97DG      C1 2209   2.066   1.491   4.941  0.1970  0.4455 -0.2770
   97DG      C2 2210   2.275   1.064   4.453 -0.4042 -0.9700 -0.3321
   97DG      H3 2211   2.170   1.517   4.922 -0.5012  2.9795 -1.0174
   97DG      H4 2212   2.040   1.465   5.043 -0.3753 -0.0703 -0.5494
   97DG      H5 2213   2.024   1.591   4.930 -0.0173  0.3011 -0.7935
   97DG      H6 2214   2.346   1.145   4.437  1.1410 -1.9265  1.2745
   97DG      H7 2215   2.325   0.968   4.459  0.6340 -0.3546  1.5306
   97DG      H8 2216   2.207   1.048   4.370  0.0220 -1.1912 -0.6438
   97DG      O9 2217   2.008   1.414   4.839 -0.4237  0.4080  0.3669
   97DG     O10 2218   2.194   1.106   4.568  0.0478  0.0466  0.1109
   97DG     C11 2219   1.911   1.328   4.892 -0.0714  0.3770 -0.1823
   97DG     C12 2220   2.100   1.013   4.619  0.1364 -0.2956 -0.3790
   97DG     H13 2221   1.831   1.386   4.938 -0.1088 -1.3072  2.0801
   97DG     H14 2222   1.973   1.269   4.960  1.3234  0.6286 -1.2090
   97DG     H15 2223   2.146   0.924   4.662 -1.3615 -1.7559 -1.6615
   97DG     H16 2224   2.032   0.977   4.542 -0.4766 -2.0084  0.9063
   97DG     C17 2225   1.854   1.233   4.789 -0.0120  0.2963  0.1286
   97DG     C18 2226   2.016   1.068   4.736 -0.4862 -0.5891 -0.1277
   97DG     O19 2227   1.955   1.186   4.702  0.1731 -0.0248  0.8847
   97DG     H20 2228   1.791   1.300   4.731  0.5298  1.1677  0.5134
   97DG     H21 2229   1.797   1.158   4.844  1.4573 -1.5512 -0.7509
   97DG     H22 2230   1.933   0.999   4.746 -1.6644  0.6115 -1.1468
   97DG     H23 2231   2.084   1.089   4.819  0.1272 -1.3795 -0.4093
   98DG      C1 2232   1.596   5.287   3.731 -0.5139  0.0953  0.0741
   98DG      C2 2233   1.933   4.641   3.839 -0.2826  0.5557  0.2338
   98DG      H3 2234   1.487   5.291   3.741 -0.3826  1.8133  1.1631
   98DG      H4 2235   1.622   5.368   3.663  1.3857 -0.3076  0.2552
   98DG      H5 2236   1.652   5.301   3.823  1.0269 -0.1800 -0.7865
   98DG      H6 2237   1.939   4.536   3.810  2.4285  0.6051  0.3648
   98DG      H7 2238   2.041   4.652   3.849 -0.0257 -1.4547  0.2213
   98DG      H8 2239   1.884   4.641   3.936 -0.9834 -0.8749 -0.0876
   98DG      O9 2240   1.640   5.164   3.682 -0.5511  0.2140 -0.2061
   98DG     O10 2241   1.849   4.710   3.752 -0.1444 -0.1500  0.3085
   98DG     C11 2242   1.565   5.104   3.572  0.4588  0.0542 -1.1033
   98DG     C12 2243   1.917   4.761   3.639  0.1504  0.0316 -0.6295
   98DG     H13 2244   1.538   5.181   3.499 -1.1179 -1.1579 -1.8534
   98DG     H14 2245   1.472   5.060   3.608 -0.0667  0.6594 -1.6862
   98DG     H15 2246   1.962   4.676   3.587 -2.3186 -0.3843 -2.2423
   98DG     H16 2247   1.998   4.829   3.665  2.0034 -1.1645 -2.8921
   98DG     C17 2248   1.663   5.004   3.503  0.2967  0.0559 -0.5826
   98DG     C18 2249   1.827   4.833   3.542  0.1953 -0.0238 -0.3031
   98DG     O19 2250   1.751   4.937   3.602 -0.2167  0.5190  0.2014
   98DG     H20 2251   1.729   5.056   3.434  0.4302  0.0019 -0.4946
   98DG     H21 2252   1.616   4.932   3.435  2.2964 -1.0214 -0.9044
   98DG     H22 2253   1.880   4.881   3.460 -0.7905  1.2316 -0.2353
   98DG     H23 2254   1.763   4.761   3.493 -1.0277  1.2959 -0.7018
   99DG      C1 2255   5.389   5.077   0.994 -0.3478  0.5596 -0.3925
   99DG      C2 2256   5.912   5.104   0.629  0.7666  0.2177  0.4303
   99DG      H3 2257   5.349   5.172   0.959 -0.9690  0.0949 -0.9860
   99DG      H4 2258   5.489   5.083   1.036  0.6997 -0.6281 -2.5313
   99DG      H5 2259   5.310   5.037   1.058 -0.4360  2.5709  0.8166
   99DG      H6 2260   5.899   5.190   0.694 -0.3592 -0.0729  0.6166
   99DG      H7 2261   5.979   5.039   0.684  0.1536 -1.7238 -0.9912
   99DG      H8 2262   5.958   5.125   0.532 -0.5130 -1.3730 -0.5902
   99DG      O9 2263   5.412   4.999   0.876  0.2890  0.3966 -0.1103
   99DG     O10 2264   5.790   5.029   0.601  0.1042 -0.0958  0.4965
   99DG     C11 2265   5.458   4.872   0.914 -0.2200  0.0876  0.0521
   99DG     C12 2266   5.806   4.886   0.577  0.2441  0.3515  0.1159
   99DG     H13 2267   5.373   4.816   0.954 -0.7267  1.1116  0.4676
   99DG     H14 2268   5.526   4.880   0.998 -0.3078 -0.0829  0.1413
   99DG     H15 2269   5.879   4.843   0.645 -3.4598 -2.8594  2.5424
   99DG     H16 2270   5.837   4.861   0.475 -0.6066  1.0031 -0.3156
   99DG     C17 2271   5.515   4.807   0.784  0.3976  0.1577  0.3185
   99DG     C18 2272   5.676   4.807   0.609 -0.2538  0.4379  0.2479
   99DG     O19 2273   5.619   4.869   0.726 -0.6222 -1.3743  0.1606
   99DG     H20 2274   5.432   4.796   0.714  2.6417 -1.1657 -2.3201
   99DG     H21 2275   5.540   4.702   0.800  0.8348  0.1316 -0.4973
   99DG     H22 2276   5.609   4.797   0.523  1.3618  0.8106 -1.0901
   99DG     H23 2277   5.708   4.709   0.645  1.6872  0.2215 -1.8480
  100DG      C1 2278   0.090   4.341   5.078  0.1361  0.2592  0.2027
  100DG      C2 2279   0.092   3.802   5.440  0.5136 -0.7452  0.4392
  100DG      H3 2280   0.077   4.380   5.179  0.6574 -2.1843  1.2698
  100DG      H4 2281   0.018   4.260   5.063  1.3450 -0.5898 -1.3015
  100DG      H5 2282   0.089   4.414   4.997  0.7739 -0.8925 -0.8650
  100DG      H6 2283   0.115   3.873   5.520  1.1237  0.2660 -0.6196
  100DG      H7 2284  -0.015   3.784   5.424  0.3566  0.9910 -0.6766
  100DG      H8 2285   0.147   3.712   5.467  2.9682  0.7154  0.5913
  100DG      O9 2286   0.207   4.259   5.082 -0.6984 -0.5145  0.8383
  100DG     O10 2287   0.150   3.860   5.323 -0.5675  0.2084  0.3396
  100DG     C11 2288   0.243   4.184   4.967  0.2632 -0.5847  0.3044
  100DG     C12 2289   0.286   3.887   5.332  0.8914 -0.2769  0.6810
  100DG     H13 2290   0.283   4.260   4.900  0.3918 -1.3134 -0.4657
  100DG     H14 2291   0.154   4.146   4.915  1.8440 -0.3895 -2.7501
  100DG     H15 2292   0.342   3.801   5.369 -1.0486 -1.2274  1.5026
  100DG     H16 2293   0.296   3.959   5.414 -2.1586  1.1262 -0.0383
  100DG     C17 2294   0.340   4.079   5.019  0.4719 -0.5023  0.6826
  100DG     C18 2295   0.346   3.929   5.196 -0.4023 -0.1217 -0.0141
  100DG     O19 2296   0.266   4.023   5.122 -0.5932  0.2913 -0.5652
  100DG     H20 2297   0.438   4.119   5.046  0.5622 -0.6473  0.5750
  100DG     H21 2298   0.358   3.998   4.947 -0.1170 -0.3424  0.3480
  100DG     H22 2299   0.438   3.983   5.220 -1.1470  1.4471 -0.5580
  100DG     H23 2300   0.369   3.846   5.129 -1.2069 -0.0155 -0.4266
  101DG      C1 2301   2.002   3.107   1.730  0.8972 -0.2381 -0.0187
  101DG      C2 2302   1.338   3.021   1.806  0.0565 -0.4101  0.3400
  101DG      H3 2303   2.091   3.153   1.687  0.5888  0.3126 -0.0870
  101DG      H4 2304   2.002   2.999   1.719  0.6046 -0.2315 -0.1023
  101DG      H5 2305   1.991   3.141   1.833  2.8412  1.0468 -0.1742
  101DG      H6 2306   1.238   3.064   1.816 -0.6291 -1.4111 -1.6719
  101DG      H7 2307   1.330   2.923   1.760 -3.1270 -1.7424  3.2894
  101DG      H8 2308   1.375   3.015   1.908 -2.1312 -3.3192  1.1128
  101DG      O9 2309   1.899   3.167   1.650 -0.0892  0.0413  0.1406
  101DG     O10 2310   1.430   3.105   1.733 -0.0586  0.7910 -0.2362
  101DG     C11 2311   1.896   3.310   1.679  0.3195 -0.6647 -0.2568
  101DG     C12 2312   1.419   3.244   1.751 -0.3491  0.5625  0.5729
  101DG     H13 2313   1.966   3.378   1.630 -1.0332  0.3659 -0.8167
  101DG     H14 2314   1.899   3.346   1.782  3.8454 -0.9675 -0.1291
  101DG     H15 2315   1.438   3.262   1.857  0.8659 -1.6435  0.7709
  101DG     H16 2316   1.318   3.270   1.720 -0.9924 -0.8880  1.3357
  101DG     C17 2317   1.762   3.358   1.638 -0.0676  0.5805 -0.6819
  101DG     C18 2318   1.525   3.323   1.667  0.0839 -0.6836 -0.0383
  101DG     O19 2319   1.661   3.290   1.705  0.2461  0.7950 -0.4615
  101DG     H20 2320   1.740   3.347   1.531  0.3401  2.6596 -1.0131
  101DG     H21 2321   1.751   3.461   1.671 -1.2216  1.0628 -2.4395
  101DG     H22 2322   1.505   3.293   1.565 -1.4688 -2.6197  0.7687
  101DG     H23 2323   1.504   3.430   1.677  0.3254 -0.6733  0.3781
  102DG      C1 2324   1.839   5.008   2.758  0.2725 -0.2447  0.0092
  102DG      C2 2325   1.496   5.460   2.502 -0.6366  0.0146  0.0210
  102DG      H3 2326   1.738   5.027   2.794  0.7588  2.7957  0.0689
  102DG      H4 2327   1.887   4.941   2.829  1.8654  0.4476 -0.3620
  102DG      H5 2328   1.830   4.958   2.662  1.0385 -2.1815  0.8898
  102DG      H6 2329   1.563   5.424   2.423 -0.9658 -2.3411  0.7521
  102DG      H7 2330   1.394   5.428   2.485 -1.0385  1.7180 -1.0248
  102DG      H8 2331   1.509   5.568   2.514 -0.5871 -0.0555  0.6002
  102DG      O9 2332   1.904   5.131   2.746 -0.1437  0.0470 -0.0148
  102DG     O10 2333   1.553   5.388   2.609  0.4368 -0.1151 -0.2262
  102DG     C11 2334   1.938   5.197   2.868 -0.0910  0.2914 -0.0230
  102DG     C12 2335   1.541   5.440   2.741  0.0158  0.1702 -0.6699
  102DG     H13 2336   2.018   5.266   2.842 -0.7981  2.2034  2.4370
  102DG     H14 2337   1.974   5.129   2.945  0.3828 -0.0405 -0.5290
  102DG     H15 2338   1.441   5.455   2.782 -0.0869 -3.7194  0.9235
  102DG     H16 2339   1.597   5.534   2.751  1.1882 -0.5805  0.0428
  102DG     C17 2340   1.812   5.276   2.925 -0.7121 -0.4190 -0.0106
  102DG     C18 2341   1.597   5.340   2.845  0.1429 -0.4407  0.7023
  102DG     O19 2342   1.724   5.293   2.806 -0.4351 -0.4003 -0.5875
  102DG     H20 2343   1.843   5.374   2.961 -1.5285 -0.6029  1.2918
  102DG     H21 2344   1.751   5.227   3.001 -0.4922 -2.1066 -0.8819
  102DG     H22 2345   1.594   5.391   2.941  0.1389 -1.0277  1.0198
  102DG     H23 2346   1.518   5.266   2.850 -0.9344  0.6626  0.5171
  103DG      C1 2347   4.125   0.794   0.353 -0.5341 -0.2341  0.0384
  103DG      C2 2348   4.788   0.643   0.247 -0.5418  0.2416 -0.1872
  103DG      H3 2349   4.140   0.765   0.457  0.9553 -1.2813 -0.4251
  103DG      H4 2350   4.018   0.789   0.336 -0.6871  1.3791  0.3954
  103DG      H5 2351   4.151   0.900   0.355 -2.0068  0.1588 -0.5158
  103DG      H6 2352   4.794   0.746   0.280  0.6465 -0.9471  3.8250
  103DG      H7 2353   4.801   0.590   0.341  1.6755  0.3368 -0.3881
  103DG      H8 2354   4.863   0.608   0.176 -0.6618 -0.1284 -0.1360
  103DG      O9 2355   4.213   0.714   0.280 -0.3242 -0.6125  0.0813
  103DG     O10 2356   4.658   0.615   0.194 -0.2521 -0.2264  0.3736
  103DG     C11 2357   4.169   0.672   0.153 -0.4944 -0.7685 -0.0524
  103DG     C12 2358   4.637   0.619   0.050 -0.3887  0.1987  0.0036
  103DG     H13 2359   4.155   0.763   0.094  2.1571  0.7488  1.4563
  103DG     H14 2360   4.067   0.636   0.164 -1.0815  0.6312 -0.6411
  103DG     H15 2361   4.702   0.550  -0.004 -2.4650 -1.0396 -1.0167
  103DG     H16 2362   4.664   0.718   0.013  0.6998 -0.4559 -1.0227
  103DG     C17 2363   4.272   0.590   0.082  0.5278  0.5987 -0.0156
  103DG     C18 2364   4.499   0.581   0.008  1.1081  0.0408  0.0244
  103DG     O19 2365   4.405   0.649   0.093 -0.1306  0.5648  0.2076
  103DG     H20 2366   4.235   0.572  -0.019 -0.3489 -1.4014  0.6078
  103DG     H21 2367   4.293   0.493   0.127  1.5866  0.8133 -0.0057
  103DG     H22 2368   4.477   0.611  -0.094  1.1937  0.8420  0.2324
  103DG     H23 2369   4.502   0.474   0.028  2.1269  0.1824  0.7265
  104DG      C1 2370   0.712   1.924   4.121 -0.4036 -0.3945  0.1571
  104DG      C2 2371   1.337   2.185   4.247 -0.5141 -0.8297  0.1909
  104DG      H3 2372   0.648   2.003   4.162 -0.1616 -0.2964  0.3484
  104DG      H4 2373   0.649   1.835   4.128 -1.1593  0.1891  1.0439
  104DG      H5 2374   0.732   1.949   4.017 -0.0160 -1.1376  0.0491
  104DG      H6 2375   1.340   2.095   4.186 -0.7362  0.2192 -1.4439
  104DG      H7 2376   1.350   2.269   4.179 -0.7615 -0.5081  0.5335
  104DG      H8 2377   1.422   2.194   4.315  1.7649  3.7548 -2.7679
  104DG      O9 2378   0.842   1.900   4.185 -0.2158  0.5327  0.3961
  104DG     O10 2379   1.207   2.196   4.310 -0.5395 -0.1275  0.0566
  104DG     C11 2380   0.831   1.872   4.322  0.4471  0.2441 -0.5822
  104DG     C12 2381   1.203   2.130   4.437 -0.3821 -0.1976  0.6840
  104DG     H13 2382   0.765   1.787   4.342  0.7941  0.3211  0.9404
  104DG     H14 2383   0.800   1.956   4.383 -0.5945  0.1472 -0.9468
  104DG     H15 2384   1.127   2.180   4.497  1.9460  2.4637  1.7004
  104DG     H16 2385   1.292   2.149   4.498 -0.8025  0.3126  1.1519
  104DG     C17 2386   0.970   1.846   4.374 -1.1491 -0.7758  0.2944
  104DG     C18 2387   1.169   1.977   4.420  0.0131 -0.2135 -0.0323
  104DG     O19 2388   1.044   1.969   4.355  0.4021 -0.2838 -0.5874
  104DG     H20 2389   1.030   1.765   4.332  1.6752  1.8973 -1.3111
  104DG     H21 2390   0.958   1.833   4.482 -2.1013  1.1958  0.4564
  104DG     H22 2391   1.245   1.923   4.363 -0.3419 -1.2520  0.4545
  104DG     H23 2392   1.156   1.926   4.516  1.1787 -1.2509 -0.3949
  105DG      C1 2393   0.401   2.756   2.365 -0.1190 -0.0951  0.0266
  105DG      C2 2394   0.827   3.150   2.202  0.1273 -0.8498 -0.0548
  105DG      H3 2395   0.386   2.653   2.398  1.6153  0.3213  2.3849
  105DG      H4 2396   0.305   2.796   2.333  0.7384  0.8454 -1.4464
  105DG      H5 2397   0.427   2.800   2.461  1.1604 -1.5820  0.4094
  105DG      H6 2398   0.898   3.210   2.146 -1.6679  1.9606  0.5032
  105DG      H7 2399   0.726   3.192   2.196 -0.4482 -2.1874 -0.2162
  105DG      H8 2400   0.854   3.164   2.307  0.8089  1.4990 -0.4983
  105DG      O9 2401   0.506   2.766   2.266  0.1339 -0.1741  0.1383
  105DG     O10 2402   0.830   3.014   2.154 -0.6841 -0.3341 -0.0658
  105DG     C11 2403   0.498   2.697   2.144 -0.3787  0.0745  0.0788
  105DG     C12 2404   0.776   2.993   2.027 -0.3254  0.0380  0.3167
  105DG     H13 2405   0.392   2.695   2.120 -0.7211  1.3775  1.3717
  105DG     H14 2406   0.536   2.595   2.151 -1.0610 -0.1502  0.6064
  105DG     H15 2407   0.832   3.050   1.953  2.4354 -2.5072  0.2709
  105DG     H16 2408   0.677   3.038   2.027  0.8947  2.9988 -1.1144
  105DG     C17 2409   0.572   2.776   2.040 -0.0541  0.2900  0.0632
  105DG     C18 2410   0.789   2.853   1.980 -0.4186 -0.2783  0.5574
  105DG     O19 2411   0.710   2.778   2.067  0.6484  0.3030 -0.5394
  105DG     H20 2412   0.525   2.875   2.036 -0.6610  0.0210  0.3933
  105DG     H21 2413   0.572   2.725   1.943 -0.7027 -2.5461  1.4711
  105DG     H22 2414   0.748   2.849   1.879 -1.3201  0.7838  0.8554
  105DG     H23 2415   0.896   2.835   1.968 -0.5206 -0.6674  0.2203
  106DG      C1 2416   0.662   3.998   2.151 -0.0146 -0.7441 -0.6851
  106DG      C2 2417   1.244   3.986   2.058 -0.1704  0.7111  0.5082
  106DG      H3 2418   0.667   4.077   2.076 -0.7489  2.0994  2.0591
  106DG      H4 2419   0.579   3.932   2.127 -0.3639 -0.1336 -1.1701
  106DG      H5 2420   0.762   3.954   2.155  0.3383  0.1014  1.6856
  106DG      H6 2421   1.283   3.924   2.138 -1.2176 -3.7992 -2.1482
  106DG      H7 2422   1.202   3.918   1.984 -3.0234 -0.1494  2.7618
  106DG      H8 2423   1.326   4.050   2.025  0.1199 -0.8317 -2.0853
  106DG      O9 2424   0.611   4.069   2.266  0.0954  0.7108  0.0398
  106DG     O10 2425   1.143   4.058   2.115  0.2468  0.7002  0.3267
  106DG     C11 2426   0.717   4.132   2.342 -0.8904 -0.7263  0.3144
  106DG     C12 2427   1.085   4.154   2.024 -0.4182  0.4571 -0.3510
  106DG     H13 2428   0.780   4.065   2.400  2.0977  1.0048 -0.6948
  106DG     H14 2429   0.651   4.182   2.414 -0.1636  2.7134 -1.1873
  106DG     H15 2430   1.038   4.102   1.940 -0.7483  0.3654 -0.1095
  106DG     H16 2431   1.163   4.217   1.980  0.0723  0.7831  0.9305
  106DG     C17 2432   0.813   4.225   2.268 -1.5906 -0.3962  0.1932
  106DG     C18 2433   0.989   4.232   2.105 -0.4900  0.4146 -0.5140
  106DG     O19 2434   0.906   4.148   2.185 -0.3662  0.0313 -0.2374
  106DG     H20 2435   0.878   4.284   2.333  0.1030 -1.1699 -0.7357
  106DG     H21 2436   0.759   4.288   2.198  3.5358  1.5364 -2.4906
  106DG     H22 2437   1.046   4.286   2.181 -1.8755 -0.8448  1.5280
  106DG     H23 2438   0.939   4.305   2.041 -1.0712  0.5121  0.0459
  107DG      C1 2439   1.946   2.814   5.195  0.7513 -0.2621  0.2441
  107DG      C2 2440   2.504   3.055   5.527  0.0923  0.7996  0.3831
  107DG      H3 2441   1.993   2.822   5.097 -0.2883 -1.7457 -0.4143
  107DG      H4 2442   1.905   2.914   5.210 -0.4041 -0.4421 -1.5105
  107DG      H5 2443   1.864   2.742   5.189  0.8998 -0.7195  2.6322
  107DG      H6 2444   2.584   3.006   5.581 -0.1337  1.2441  1.1282
  107DG      H7 2445   2.530   3.056   5.421  1.4491 -2.4765  0.5691
  107DG      H8 2446   2.478   3.154   5.565 -0.4730  0.2750  1.4203
  107DG      O9 2447   2.033   2.782   5.302  0.9800 -0.7806  0.4902
  107DG     O10 2448   2.393   2.967   5.535  0.3452 -0.0508 -0.5810
  107DG     C11 2449   1.966   2.771   5.425  0.0137  0.4279 -0.1721
  107DG     C12 2450   2.337   2.944   5.662 -0.0474 -0.8865 -0.0086
  107DG     H13 2451   1.899   2.685   5.419 -0.5533  0.5347  2.9032
  107DG     H14 2452   1.900   2.857   5.441  0.8042  0.6691  2.1798
  107DG     H15 2453   2.282   3.036   5.682  0.6057 -0.9381  2.2669
  107DG     H16 2454   2.408   2.942   5.745  0.5968  0.1555 -0.5100
  107DG     C17 2455   2.061   2.743   5.538  0.4326 -0.4148  0.3056
  107DG     C18 2456   2.236   2.831   5.664  0.5035 -0.9133 -0.1775
  107DG     O19 2457   2.145   2.852   5.558  0.1891  0.1187  0.6550
  107DG     H20 2458   2.128   2.659   5.517  1.1123  0.2481 -0.2077
  107DG     H21 2459   2.003   2.727   5.629 -3.5056  0.9546 -1.7369
  107DG     H22 2460   2.289   2.736   5.656 -0.6024 -1.4946 -0.8849
  107DG     H23 2461   2.180   2.832   5.757 -1.4189  0.0957 -1.2720
  108DG      C1 2462   3.377   4.744   4.660  0.1847 -0.4995 -0.5083
  108DG      C2 2463   3.999   4.785   4.917  0.4926  0.1357  0.2047
  108DG      H3 2464   3.422   4.756   4.561  0.1156  0.9418 -0.3913
  108DG      H4 2465   3.347   4.837   4.709 -3.2738 -0.8894 -1.5861
  108DG      H5 2466   3.288   4.683   4.644  0.4614 -0.7170 -1.2510
  108DG      H6 2467   3.997   4.853   4.832 -1.0212 -1.3891 -1.0623
  108DG      H7 2468   4.021   4.842   5.007 -0.8692  0.7288  0.1848
  108DG      H8 2469   4.074   4.707   4.901  2.0948  1.4305  1.0998
  108DG      O9 2470   3.470   4.684   4.751 -0.1946 -0.4765 -0.7148
  108DG     O10 2471   3.870   4.717   4.918 -0.4004  0.1226  0.0498
  108DG     C11 2472   3.414   4.651   4.882  0.0092  0.2267 -0.1752
  108DG     C12 2473   3.854   4.640   5.038  0.3409 -0.2514 -0.2025
  108DG     H13 2474   3.318   4.601   4.869  0.9016 -0.9206 -3.3555
  108DG     H14 2475   3.391   4.737   4.944  0.6375 -0.8134  1.5697
  108DG     H15 2476   3.835   4.713   5.116 -0.7355  0.9517 -1.5259
  108DG     H16 2477   3.931   4.568   5.063 -1.2583 -1.8377  0.3770
  108DG     C17 2478   3.507   4.572   4.966 -0.7626  0.5285  0.4907
  108DG     C18 2479   3.731   4.563   5.023 -0.0057  0.2127  0.2458
  108DG     O19 2480   3.627   4.647   4.985 -0.1613  0.3032 -0.3394
  108DG     H20 2481   3.513   4.493   4.891  0.6067  2.7352 -1.8549
  108DG     H21 2482   3.461   4.533   5.057 -0.3209 -0.0230  0.4835
  108DG     H22 2483   3.743   4.487   4.946 -1.2296 -0.8440  1.0560
  108DG     H23 2484   3.709   4.520   5.120  0.6500 -0.1791  0.2250
  109DG      C1 2485   3.762   2.546   3.041  1.0281 -0.3704  1.0984
  109DG      C2 2486   3.593   3.115   3.041  0.2351  0.4212  0.4733
  109DG      H3 2487   3.742   2.561   2.935  0.3151  1.1344  1.4091
  109DG      H4 2488   3.667   2.505   3.077 -0.0767 -0.4386 -1.6475
  109DG      H5 2489   3.843   2.475   3.055  1.2588 -0.3448 -0.0469
  109DG      H6 2490   3.564   3.056   2.954  1.9485 -0.3072  0.3537
  109DG      H7 2491   3.539   3.207   3.023  1.5446  0.9322 -1.0066
  109DG      H8 2492   3.701   3.126   3.044  0.5354 -1.9345  0.7180
  109DG      O9 2493   3.798   2.670   3.107  0.5029  0.2858 -0.1375
  109DG     O10 2494   3.539   3.049   3.157  0.6992  0.2797  0.1808
  109DG     C11 2495   3.820   2.658   3.254  0.0680 -0.6892  0.1650
  109DG     C12 2496   3.576   3.073   3.286  0.1152 -1.1464 -1.1404
  109DG     H13 2497   3.904   2.594   3.279 -2.2381 -5.2395 -2.3653
  109DG     H14 2498   3.742   2.603   3.307 -0.6258  0.6999  0.6270
  109DG     H15 2499   3.495   3.055   3.356 -0.2792  2.3607 -0.4849
  109DG     H16 2500   3.599   3.180   3.291  1.7023 -1.4580 -1.1442
  109DG     C17 2501   3.829   2.803   3.317 -0.5158  0.1132  0.5362
  109DG     C18 2502   3.708   3.003   3.315 -0.4030  0.0035  0.6444
  109DG     O19 2503   3.709   2.864   3.289 -0.2751  0.8787  0.1929
  109DG     H20 2504   3.911   2.861   3.275  0.2106 -3.3368 -3.3987
  109DG     H21 2505   3.851   2.794   3.423  0.9874 -1.3046  0.1448
  109DG     H22 2506   3.778   3.054   3.250  1.8568 -0.1475  2.8048
  109DG     H23 2507   3.752   3.028   3.411  3.0068  1.1985 -1.0748
  110DG      C1 2508   2.131   3.028   4.347  0.3682  0.0785 -0.2983
  110DG      C2 2509   1.894   3.141   3.791 -0.5173 -0.2990 -0.5478
  110DG      H3 2510   2.145   3.054   4.452 -2.1678  0.5879 -0.0081
  110DG      H4 2511   2.193   2.941   4.326 -1.5210 -1.7028  1.0905
  110DG      H5 2512   2.032   2.982   4.348  0.1927  0.4546 -0.0272
  110DG      H6 2513   1.884   3.189   3.694  1.4692  2.1651  0.3347
  110DG      H7 2514   1.916   3.035   3.777 -1.1326 -0.5591  0.3686
  110DG      H8 2515   1.797   3.143   3.840 -1.1302 -1.5767 -1.6569
  110DG      O9 2516   2.133   3.139   4.263  0.1096 -0.0757 -0.4709
  110DG     O10 2517   1.995   3.202   3.866 -0.8196 -0.0590 -0.5729
  110DG     C11 2518   2.101   3.259   4.329  0.0166 -0.7068  0.5200
  110DG     C12 2519   1.953   3.340   3.894  0.0744 -0.3106 -0.4876
  110DG     H13 2520   2.180   3.280   4.402 -1.3214  2.3852  1.2484
  110DG     H14 2521   2.008   3.252   4.386 -0.4048  0.3058 -0.0108
  110DG     H15 2522   1.854   3.342   3.939  0.7156  1.5765  0.9549
  110DG     H16 2523   1.946   3.396   3.801 -2.4623 -1.3930 -1.0285
  110DG     C17 2524   2.110   3.376   4.224  0.5977  0.1508 -0.1789
  110DG     C18 2525   2.035   3.414   3.992 -0.5123  0.5265  0.3225
  110DG     O19 2526   2.055   3.321   4.101 -0.1786  0.3779 -0.2305
  110DG     H20 2527   2.210   3.417   4.208  0.5864 -0.3080 -1.6233
  110DG     H21 2528   2.056   3.469   4.243 -0.2505  0.0734 -2.0073
  110DG     H22 2529   2.137   3.439   3.964 -0.2366 -0.3305  0.5178
  110DG     H23 2530   1.986   3.502   4.033  1.0035  1.4542  0.2387
  111DG      C1 2531   4.635   2.723   2.728 -0.4614  0.0737  0.6741
  111DG      C2 2532   4.710   1.896   2.710  0.4550  0.3822  0.2929
  111DG      H3 2533   4.541   2.708   2.783  0.1521 -0.9063  1.4920
  111DG      H4 2534   4.630   2.815   2.669 -2.2690  0.7514  1.7707
  111DG      H5 2535   4.712   2.742   2.802  1.3677  0.5616 -1.2712
  111DG      H6 2536   4.729   1.797   2.667  1.1060 -0.9594  3.3499
  111DG      H7 2537   4.767   1.907   2.803  0.9774  1.5730 -0.1455
  111DG      H8 2538   4.604   1.900   2.735  0.1365  3.2119 -1.1730
  111DG      O9 2539   4.680   2.610   2.667 -0.0423 -0.2598  0.5112
  111DG     O10 2540   4.726   2.003   2.623 -0.1665 -0.4000 -0.0198
  111DG     C11 2541   4.595   2.584   2.561 -0.2732 -0.1620  0.3024
  111DG     C12 2542   4.666   2.130   2.665 -0.6559 -0.1532 -0.1122
  111DG     H13 2543   4.609   2.659   2.483  0.3615 -0.8246 -0.2420
  111DG     H14 2544   4.488   2.583   2.581 -0.4388  0.3692 -0.4844
  111DG     H15 2545   4.730   2.163   2.747 -0.1935  0.3967 -0.6818
  111DG     H16 2546   4.567   2.108   2.704 -1.7555 -0.4369 -2.8649
  111DG     C17 2547   4.615   2.445   2.498  0.4492 -0.3711  0.0717
  111DG     C18 2548   4.659   2.228   2.558 -0.8717  0.0907 -0.1579
  111DG     O19 2549   4.628   2.356   2.605  0.2615  0.8278  0.1752
  111DG     H20 2550   4.711   2.450   2.446  0.4090  0.1256  0.0352
  111DG     H21 2551   4.536   2.434   2.424 -1.6965  0.0324  2.1820
  111DG     H22 2552   4.746   2.223   2.493 -1.2986 -1.5730 -0.6498
  111DG     H23 2553   4.580   2.187   2.495 -0.6616 -1.3902  0.5080
  112DG      C1 2554   2.322   1.946   3.952  0.4961 -0.6052  0.1919
  112DG      C2 2555   1.649   2.206   3.803  0.0166 -0.5226  0.1329
  112DG      H3 2556   2.381   1.893   4.027 -0.8118 -1.5614  0.5852
  112DG      H4 2557   2.361   2.048   3.959 -0.3495 -0.2094 -0.7297
  112DG      H5 2558   2.340   1.907   3.852 -0.3252  0.2399 -0.3077
  112DG      H6 2559   1.713   2.229   3.718  0.9943 -1.0835  0.6987
  112DG      H7 2560   1.557   2.163   3.761 -0.1309 -1.3751  1.2681
  112DG      H8 2561   1.622   2.295   3.859 -0.9832 -1.1630  0.7218
  112DG      O9 2562   2.183   1.957   3.976  0.1250 -0.1035  0.4564
  112DG     O10 2563   1.715   2.103   3.875  0.3086 -0.1069 -0.1848
  112DG     C11 2564   2.123   1.828   3.957 -0.0204 -0.1875  0.1867
  112DG     C12 2565   1.696   1.977   3.822  0.9780 -0.1132 -0.0239
  112DG     H13 2566   2.174   1.743   4.003 -0.3717 -0.1478  0.6607
  112DG     H14 2567   2.121   1.802   3.852 -2.4175  1.5203 -0.2793
  112DG     H15 2568   1.719   1.981   3.715  0.2646 -2.4394 -0.3129
  112DG     H16 2569   1.588   1.963   3.828  0.8170  0.6926 -0.7191
  112DG     C17 2570   1.975   1.821   3.999  0.3871  0.1239 -0.5121
  112DG     C18 2571   1.764   1.871   3.904 -0.4197 -0.3312  0.4533
  112DG     O19 2572   1.902   1.904   3.915 -0.3385  0.4251  0.5112
  112DG     H20 2573   1.966   1.840   4.106  2.9509  0.3497 -0.2775
  112DG     H21 2574   1.938   1.718   3.995  0.5364  0.0759 -0.6598
  112DG     H22 2575   1.721   1.853   4.002  2.3613 -1.4449  1.5658
  112DG     H23 2576   1.742   1.773   3.862 -0.6239  0.3468 -1.0845
  113DG      C1 2577   2.826   0.499   0.636  0.2658 -0.5682 -0.1135
  113DG      C2 2578   3.323   0.475   1.101 -0.7130  0.1764 -0.4931
  113DG      H3 2579   2.760   0.459   0.559 -1.0567 -0.8051  1.0936
  113DG      H4 2580   2.919   0.525   0.587  0.5248  0.7159  1.0126
  113DG      H5 2581   2.777   0.590   0.669  2.8129  1.4362 -1.4749
  113DG      H6 2582   3.298   0.557   1.168  0.2783  0.2730 -0.2315
  113DG      H7 2583   3.413   0.428   1.139 -0.4118  0.6019 -0.6694
  113DG      H8 2584   3.341   0.522   1.004  0.6931  0.8389  0.0658
  113DG      O9 2585   2.849   0.410   0.744  0.6448  0.3025  0.3653
  113DG     O10 2586   3.215   0.392   1.068  0.2952 -0.1451  0.6195
  113DG     C11 2587   2.885   0.271   0.707  0.2401 -0.0043 -0.3527
  113DG     C12 2588   3.259   0.280   0.991 -0.2532  0.0948 -0.3448
  113DG     H13 2589   2.960   0.278   0.629 -0.9849 -1.9249 -1.7756
  113DG     H14 2590   2.794   0.244   0.654  1.4803  0.4410 -2.8597
  113DG     H15 2591   3.322   0.228   1.062 -0.7491 -0.7249 -0.4992
  113DG     H16 2592   3.316   0.318   0.905 -0.8565 -0.3287 -0.9395
  113DG     C17 2593   2.937   0.186   0.831 -0.1465 -0.3364  0.2478
  113DG     C18 2594   3.142   0.187   0.952  0.0735 -0.1796  0.2919
  113DG     O19 2595   3.059   0.256   0.860 -0.7905 -0.6001  0.0714
  113DG     H20 2596   2.950   0.083   0.800  0.1352 -0.0873 -0.4905
  113DG     H21 2597   2.868   0.179   0.915 -1.4482  1.4814 -0.6103
  113DG     H22 2598   3.169   0.097   0.896 -3.3443  0.1778 -2.2430
  113DG     H23 2599   3.088   0.152   1.040  0.5354 -2.1532 -0.1499
  114DG      C1 2600   4.550   4.198   0.229  0.0988 -0.0036  0.7387
  114DG      C2 2601   5.028   4.669  -0.181  0.1876 -0.2769  0.2700
  114DG      H3 2602   4.548   4.096   0.193  0.5334 -0.1069  1.0007
  114DG      H4 2603   4.461   4.208   0.292 -0.0081 -0.5988  0.6837
  114DG      H5 2604   4.637   4.209   0.294 -0.4521  2.1099  1.2188
  114DG      H6 2605   5.075   4.577  -0.146  0.1882  0.4235  2.2479
  114DG      H7 2606   5.056   4.699  -0.282  2.4152 -1.5691  0.4425
  114DG      H8 2607   5.065   4.748  -0.116  0.2965 -0.5606  0.5557
  114DG      O9 2608   4.565   4.283   0.112 -0.5889 -0.0360 -0.1851
  114DG     O10 2609   4.889   4.664  -0.155  0.0443  0.2551  0.1086
  114DG     C11 2610   4.498   4.414   0.118  0.3643 -0.5834 -0.1813
  114DG     C12 2611   4.823   4.553  -0.216 -0.5336 -0.5912  0.2353
  114DG     H13 2612   4.543   4.477   0.194  0.1353  1.0403 -1.3268
  114DG     H14 2613   4.395   4.400   0.151  0.5458 -1.4469  0.0321
  114DG     H15 2614   4.879   4.463  -0.192  0.7041 -0.3142 -1.4594
  114DG     H16 2615   4.835   4.551  -0.324 -3.0384 -2.7641 -0.1285
  114DG     C17 2616   4.517   4.473  -0.022 -0.2010 -0.2320  0.3565
  114DG     C18 2617   4.675   4.549  -0.178 -0.9274  0.1489 -0.0721
  114DG     O19 2618   4.656   4.505  -0.045  0.3466  0.0755  0.0705
  114DG     H20 2619   4.465   4.569  -0.028 -2.1709 -1.3110 -0.9784
  114DG     H21 2620   4.469   4.408  -0.095  1.7156 -0.5664 -0.6820
  114DG     H22 2621   4.650   4.655  -0.185  1.3224  0.7025 -0.6491
  114DG     H23 2622   4.626   4.484  -0.251  0.1255  0.0785 -0.7405
  115DG      C1 2623   3.118   1.035   1.817 -0.5936  0.3954  0.4075
  115DG      C2 2624   3.602   0.600   2.045  0.7479 -0.1824 -0.2982
  115DG      H3 2625   3.172   1.130   1.815  0.0117  0.0507 -0.3376
  115DG      H4 2626   3.015   1.062   1.796 -2.2950 -3.6421  2.6405
  115DG      H5 2627   3.153   0.971   1.736 -2.0055 -1.5032  1.2392
  115DG      H6 2628   3.631   0.551   2.138 -0.6915 -1.7528 -0.6094
  115DG      H7 2629   3.605   0.551   1.948 -0.5169  3.2709 -2.2514
  115DG      H8 2630   3.665   0.688   2.041 -2.4356  2.3118  0.1057
  115DG      O9 2631   3.131   0.965   1.937 -0.1704 -0.2670 -0.5147
  115DG     O10 2632   3.472   0.644   2.082  0.2710  0.2244  0.0676
  115DG     C11 2633   3.027   0.869   1.948  0.1974 -0.0219 -0.2311
  115DG     C12 2634   3.363   0.553   2.080  0.4001  0.3791 -0.0633
  115DG     H13 2635   3.018   0.810   1.857 -1.1215 -0.9695  0.4678
  115DG     H14 2636   2.928   0.909   1.973  0.3758 -0.1682  0.7434
  115DG     H15 2637   3.390   0.469   2.144  0.9077 -0.8650 -1.8240
  115DG     H16 2638   3.362   0.498   1.986  1.5971 -1.7039  1.0531
  115DG     C17 2639   3.066   0.771   2.061  0.2631 -0.3647  0.7013
  115DG     C18 2640   3.220   0.601   2.109 -0.2858  0.1397 -1.0915
  115DG     O19 2641   3.184   0.708   2.022  0.1828 -0.1918  0.4697
  115DG     H20 2642   2.987   0.696   2.072  1.6346 -1.5431  3.6959
  115DG     H21 2643   3.068   0.822   2.157  0.4939  3.4049 -1.1527
  115DG     H22 2644   3.141   0.525   2.107 -2.1673  1.9177  0.7301
  115DG     H23 2645   3.210   0.633   2.213 -1.3724  1.3135 -1.5319
  116DG      C1 2646   0.823   0.135   1.335 -0.3340  0.0979  0.7436
  116DG      C2 2647   0.228   0.198   1.038 -0.7815  0.0813  0.0219
  116DG      H3 2648   0.866   0.132   1.235 -0.7687 -3.1549  0.5443
  116DG      H4 2649   0.896   0.092   1.403  0.1096 -3.0093 -1.4846
  116DG      H5 2650   0.819   0.238   1.370  0.5247  0.1538  0.6911
  116DG      H6 2651   0.263   0.293   1.080 -2.2067 -0.1536  1.8610
  116DG      H7 2652   0.290   0.197   0.948  0.6780  1.3648  0.9562
  116DG      H8 2653   0.120   0.203   1.020 -0.7342  2.6322  0.0945
  116DG      O9 2654   0.703   0.057   1.334  1.2019 -0.6024 -0.5282
  116DG     O10 2655   0.273   0.108   1.140 -0.5189 -0.1976 -0.1529
  116DG     C11 2656   0.636   0.071   1.465  0.2616  0.1412 -0.5063
  116DG     C12 2657   0.209   0.123   1.263 -0.4687  0.2375 -0.7621
  116DG     H13 2658   0.625   0.177   1.490  1.5597  0.1416  0.1437
  116DG     H14 2659   0.711   0.039   1.537  0.2308  0.5178 -0.3063
  116DG     H15 2660   0.104   0.097   1.272 -0.0059 -1.1290  1.5311
  116DG     H16 2661   0.219   0.229   1.288  1.0612 -0.2207  0.7473
  116DG     C17 2662   0.501   0.001   1.458 -0.1375  1.0309 -0.0417
  116DG     C18 2663   0.285   0.045   1.369  0.0174  0.2809  0.3202
  116DG     O19 2664   0.421   0.074   1.374  0.1965  0.4708  0.0350
  116DG     H20 2665   0.454   0.008   1.556  2.0362 -0.2604  1.1797
  116DG     H21 2666   0.503  -0.106   1.439 -0.8012  0.8966  0.6165
  116DG     H22 2667   0.247   0.049   1.471 -1.4512 -2.4288 -0.0144
  116DG     H23 2668   0.280  -0.060   1.340 -1.4959  0.3319  0.3145
  117DG      C1 2669   3.243   1.967   4.076  0.5030  0.2366 -0.3303
  117DG      C2 2670   3.756   2.053   4.424  0.3604 -0.1554 -0.4850
  117DG      H3 2671   3.276   2.062   4.035  1.6457 -0.1000 -0.2045
  117DG      H4 2672   3.140   1.948   4.044  0.2210  0.7082  0.2727
  117DG      H5 2673   3.282   1.879   4.026  1.2455 -0.9968  2.2621
  117DG      H6 2674   3.825   1.981   4.468  0.8378 -0.7777 -2.1858
  117DG      H7 2675   3.772   2.046   4.317 -2.9204 -2.1408 -1.0039
  117DG      H8 2676   3.766   2.156   4.458 -1.0761 -0.3681  0.7101
  117DG      O9 2677   3.250   1.958   4.217  0.7253  0.1714 -0.4746
  117DG     O10 2678   3.622   2.008   4.435 -0.3324  0.3522  0.7272
  117DG     C11 2679   3.200   1.841   4.281 -0.2741 -0.7577  0.1032
  117DG     C12 2680   3.589   1.934   4.552 -0.3808  0.2071  0.3246
  117DG     H13 2681   3.238   1.762   4.216 -0.5340  1.0066 -2.3165
  117DG     H14 2682   3.092   1.835   4.291 -0.0578 -0.6672  4.8706
  117DG     H15 2683   3.614   1.997   4.637 -0.5861  1.9439 -0.8536
  117DG     H16 2684   3.658   1.854   4.579  0.4812  0.6084 -0.6382
  117DG     C17 2685   3.250   1.838   4.422 -0.5446 -0.2713  0.0261
  117DG     C18 2686   3.444   1.889   4.548 -0.0016 -0.1180  0.1129
  117DG     O19 2687   3.387   1.882   4.421  0.1980 -0.1029 -0.2022
  117DG     H20 2688   3.269   1.735   4.453  1.0709  0.1304  0.4509
  117DG     H21 2689   3.187   1.875   4.503  1.3000  1.2065  0.8655
  117DG     H22 2690   3.427   1.790   4.589 -3.2062  1.3599  2.8384
  117DG     H23 2691   3.382   1.955   4.609  0.6553 -0.3727  1.0724
  118DG      C1 2692   0.481   1.870   0.076  0.1761 -0.3784  0.5971
  118DG      C2 2693   1.030   2.062  -0.224  1.3542  0.4744  0.0234
  118DG      H3 2694   0.520   1.772   0.049  0.2075  0.1047 -1.1953
  118DG      H4 2695   0.375   1.847   0.084 -0.0595 -0.0304 -1.2213
  118DG      H5 2696   0.532   1.892   0.170 -0.0431 -0.8484  0.8306
  118DG      H6 2697   1.031   1.989  -0.304 -0.7023 -0.8802  1.1454
  118DG      H7 2698   1.106   2.139  -0.236  0.3844  1.3170 -0.9600
  118DG      H8 2699   1.066   2.005  -0.138  0.0574 -2.2308 -1.0943
  118DG      O9 2700   0.514   1.976  -0.020  0.5064 -0.4005 -0.2707
  118DG     O10 2701   0.897   2.110  -0.205  0.6053 -0.7181  0.2632
  118DG     C11 2702   0.475   2.107   0.024 -0.3747 -0.3516 -0.4688
  118DG     C12 2703   0.887   2.246  -0.182 -0.0151  0.1535 -0.0790
  118DG     H13 2704   0.502   2.130   0.127  1.9339 -0.4255 -0.9956
  118DG     H14 2705   0.366   2.108   0.026 -0.3797  1.3334  1.7621
  118DG     H15 2706   0.931   2.310  -0.259  0.7950 -1.5764 -1.0984
  118DG     H16 2707   0.924   2.275  -0.084 -0.0268 -0.1086  0.0023
  118DG     C17 2708   0.536   2.211  -0.081  0.1835  0.3376  0.2342
  118DG     C18 2709   0.739   2.278  -0.182 -0.3748  0.1224 -0.0458
  118DG     O19 2710   0.672   2.177  -0.114  0.2124 -0.1647 -0.5268
  118DG     H20 2711   0.535   2.312  -0.041  2.7993  1.0266 -1.2291
  118DG     H21 2712   0.479   2.224  -0.174 -0.4851  0.1703  0.6108
  118DG     H22 2713   0.738   2.378  -0.139 -1.5444 -0.1575  0.6100
  118DG     H23 2714   0.707   2.288  -0.286  0.0779 -0.0491 -0.2095
  119DG      C1 2715   0.410   1.488   5.257  0.8068 -0.3028 -0.7483
  119DG      C2 2716   1.068   1.482   5.763 -0.5810  0.4716 -0.4751
  119DG      H3 2717   0.357   1.536   5.339 -1.2452 -0.9841 -1.6089
  119DG      H4 2718   0.335   1.427   5.207  0.1882 -0.3417  0.2039
  119DG      H5 2719   0.451   1.565   5.192 -0.6197 -0.8465 -2.3581
  119DG      H6 2720   1.136   1.537   5.697  2.3509 -1.8199  0.4147
  119DG      H7 2721   1.047   1.546   5.848  0.6987 -0.6713  0.7412
  119DG      H8 2722   1.128   1.403   5.808  0.6626  0.9379 -1.2601
  119DG      O9 2723   0.503   1.388   5.291  0.0576 -0.2234 -0.2497
  119DG     O10 2724   0.964   1.422   5.696  0.1373  0.1883 -0.2893
  119DG     C11 2725   0.582   1.413   5.404 -0.0727 -0.2324 -0.2536
  119DG     C12 2726   1.009   1.329   5.596  0.1332 -0.3765  0.2766
  119DG     H13 2727   0.531   1.423   5.499 -0.2847 -3.7805  0.1638
  119DG     H14 2728   0.640   1.504   5.389 -1.8735  1.0413  0.2911
  119DG     H15 2729   1.076   1.257   5.643 -0.5727 -2.6791 -1.9903
  119DG     H16 2730   1.057   1.383   5.515  1.3586 -0.6696  0.7717
  119DG     C17 2731   0.674   1.293   5.431 -0.2530  0.7742  0.4148
  119DG     C18 2732   0.883   1.253   5.543 -0.1606 -0.2051  0.3428
  119DG     O19 2733   0.789   1.352   5.497 -0.0828  0.4451 -0.4011
  119DG     H20 2734   0.700   1.253   5.333 -0.8090  0.3016  0.4575
  119DG     H21 2735   0.629   1.212   5.488  0.4777 -0.4156 -0.6760
  119DG     H22 2736   0.910   1.187   5.460 -0.1762  0.1286  0.0736
  119DG     H23 2737   0.840   1.190   5.621 -0.5940  0.7677  0.9085
  120DG      C1 2738   1.350   0.702   2.168  0.7875  0.0713  0.3919
  120DG      C2 2739   1.064   0.192   2.068  0.0866 -1.1722 -0.0036
  120DG      H3 2740   1.392   0.643   2.249 -2.0536 -0.5437  1.5284
  120DG      H4 2741   1.288   0.777   2.219 -0.6383 -0.5180 -0.4117
  120DG      H5 2742   1.436   0.739   2.112 -0.2661 -0.3791 -1.6002
  120DG      H6 2743   1.075   0.185   2.176  0.4933 -1.0394 -0.0345
  120DG      H7 2744   0.980   0.131   2.035 -1.4727  1.1977 -0.7360
  120DG      H8 2745   1.155   0.171   2.012  0.3830  2.2453 -1.0767
  120DG      O9 2746   1.265   0.638   2.080 -0.2521  0.1764 -0.5982
  120DG     O10 2747   1.024   0.332   2.045  0.0090  0.4446 -0.4711
  120DG     C11 2748   1.219   0.724   1.974 -0.2487 -0.4710  1.0191
  120DG     C12 2749   1.008   0.351   1.911  0.0883 -0.1113  0.5045
  120DG     H13 2750   1.296   0.767   1.910 -1.5758 -1.2237 -1.1867
  120DG     H14 2751   1.171   0.811   2.019 -2.3595 -0.3107 -1.3641
  120DG     H15 2752   0.941   0.274   1.871  0.8849 -1.4775  1.7017
  120DG     H16 2753   1.101   0.350   1.854  0.6266  0.1302  1.3764
  120DG     C17 2754   1.120   0.654   1.879  0.6183  0.1274 -0.4526
  120DG     C18 2755   0.943   0.486   1.894 -0.4059 -0.4413  0.4501
  120DG     O19 2756   1.017   0.591   1.956  0.0108 -0.4938  0.2864
  120DG     H20 2757   1.169   0.591   1.805  1.8937 -0.9608  1.2475
  120DG     H21 2758   1.068   0.726   1.815 -1.5041 -0.0276  0.9927
  120DG     H22 2759   0.932   0.508   1.788  0.2426  0.1414  0.4950
  120DG     H23 2760   0.844   0.477   1.938 -0.4966  1.1348  0.6154
  121DG      C1 2761   0.180   2.970   3.100 -0.0860  0.0695 -0.5087
  121DG      C2 2762   0.665   2.624   3.039  0.2737 -0.4073  0.3924
  121DG      H3 2763   0.157   2.887   3.167 -0.4516 -1.1296 -2.0677
  121DG      H4 2764   0.096   3.015   3.047 -0.9434  0.6159  1.2355
  121DG      H5 2765   0.219   3.050   3.163 -0.2535  0.1590 -0.5181
  121DG      H6 2766   0.728   2.586   3.120  1.7292  0.3774 -0.3417
  121DG      H7 2767   0.594   2.699   3.074  1.3418  0.2919  1.1563
  121DG      H8 2768   0.587   2.558   3.003 -0.3219  0.7841 -0.5720
  121DG      O9 2769   0.288   2.945   3.006 -0.1109 -0.1875  1.0150
  121DG     O10 2770   0.761   2.668   2.938  0.2469 -0.7930  0.1799
  121DG     C11 2771   0.259   2.849   2.901 -0.2378  0.0543 -0.0438
  121DG     C12 2772   0.709   2.672   2.809 -0.2052  0.3963 -0.5820
  121DG     H13 2773   0.170   2.884   2.849 -0.0817  0.7720  0.1629
  121DG     H14 2774   0.240   2.758   2.958 -0.5814 -0.1652 -0.5058
  121DG     H15 2775   0.660   2.579   2.779 -0.4619  0.9393 -1.9315
  121DG     H16 2776   0.788   2.695   2.738  1.1308  2.9288  1.5787
  121DG     C17 2777   0.379   2.838   2.805  0.1765  0.5721 -0.1469
  121DG     C18 2778   0.621   2.792   2.790  0.0799  0.1243  0.3629
  121DG     O19 2779   0.496   2.777   2.861 -0.0908 -0.8234 -0.4441
  121DG     H20 2780   0.412   2.935   2.767  0.9182  0.7163  0.8378
  121DG     H21 2781   0.353   2.776   2.719 -0.4749  0.3507  0.2078
  121DG     H22 2782   0.668   2.886   2.819 -0.0655  0.4036 -0.2968
  121DG     H23 2783   0.608   2.803   2.683 -1.1892 -1.2517  0.3531
  122DG      C1 2784   3.784   5.378   3.110 -0.0907 -0.3512  0.0449
  122DG      C2 2785   3.958   5.333   3.620  0.5093  0.4507  0.3893
  122DG      H3 2786   3.704   5.321   3.062 -0.1767 -1.3521  1.3300
  122DG      H4 2787   3.871   5.312   3.112  0.3215  0.1952  1.9119
  122DG      H5 2788   3.801   5.470   3.054  1.5542 -0.5455  0.1688
  122DG      H6 2789   4.055   5.303   3.580  0.7050  1.7556 -0.1944
  122DG      H7 2790   3.957   5.307   3.725  0.6046 -0.0051  0.2775
  122DG      H8 2791   3.874   5.274   3.584  1.1693 -0.9174  1.0336
  122DG      O9 2792   3.752   5.398   3.248 -0.4014  0.3914 -0.1417
  122DG     O10 2793   3.952   5.475   3.606  0.0778 -0.0485  0.0717
  122DG     C11 2794   3.628   5.460   3.268  0.0770  0.2658  0.0137
  122DG     C12 2795   3.852   5.540   3.681  0.3449  0.4172 -0.3077
  122DG     H13 2796   3.534   5.419   3.232  0.6164  0.8024 -2.1801
  122DG     H14 2797   3.631   5.560   3.225 -1.1953  0.4845  0.4122
  122DG     H15 2798   3.877   5.646   3.692  2.3210 -0.0122 -0.3093
  122DG     H16 2799   3.849   5.508   3.785  0.1695 -0.9446 -0.7162
  122DG     C17 2800   3.609   5.484   3.415 -0.4194  0.4973  0.1160
  122DG     C18 2801   3.712   5.522   3.618 -0.1717  0.2390 -0.2357
  122DG     O19 2802   3.728   5.528   3.480 -0.3554  0.9249  0.4486
  122DG     H20 2803   3.586   5.387   3.459  1.2092  0.0618  0.0933
  122DG     H21 2804   3.522   5.547   3.431 -0.5865  0.5704 -1.0252
  122DG     H22 2805   3.671   5.426   3.648  1.4853 -0.0123  1.4217
  122DG     H23 2806   3.647   5.606   3.644  1.4177  0.9806  1.6250
  123DG      C1 2807   4.921   0.120   4.204  0.6186 -0.1479 -0.0297
  123DG      C2 2808   4.101   0.166   3.912 -0.0055 -0.0497 -0.9029
  123DG      H3 2809   5.005   0.177   4.244  0.2181 -0.0852  0.7304
  123DG      H4 2810   4.943   0.025   4.155 -1.5687 -0.4668 -0.5338
  123DG      H5 2811   4.865   0.085   4.290 -1.0892  0.0576 -1.0012
  123DG      H6 2812   4.064   0.066   3.892 -0.3154 -0.3229  0.8452
  123DG      H7 2813   4.038   0.221   3.981 -0.4845 -2.0567  0.3332
  123DG      H8 2814   4.109   0.216   3.815  1.7005  1.7983  0.1189
  123DG      O9 2815   4.834   0.202   4.131 -0.6723  0.5629  0.0854
  123DG     O10 2816   4.224   0.164   3.979 -0.3837 -0.3743 -0.3509
  123DG     C11 2817   4.701   0.167   4.137  0.5750  0.2222 -0.0001
  123DG     C12 2818   4.326   0.121   3.893  0.2377 -0.3753 -0.0825
  123DG     H13 2819   4.656   0.183   4.235  0.2013  2.7814 -0.5298
  123DG     H14 2820   4.692   0.060   4.117  0.9762 -0.5015  3.1020
  123DG     H15 2821   4.340   0.190   3.810 -1.9320  0.8243  0.4681
  123DG     H16 2822   4.312   0.026   3.841  1.8000 -1.8304  1.9434
  123DG     C17 2823   4.630   0.258   4.032  0.1065 -0.1696  0.7152
  123DG     C18 2824   4.446   0.112   3.982 -0.4054 -1.1507 -0.8473
  123DG     O19 2825   4.483   0.240   4.027  0.3214  0.4590 -0.3448
  123DG     H20 2826   4.678   0.231   3.938 -0.6738 -3.2241  1.0839
  123DG     H21 2827   4.646   0.360   4.064  0.4941 -0.4827  1.5408
  123DG     H22 2828   4.416   0.058   4.072 -2.0118  1.1379  0.1031
  123DG     H23 2829   4.529   0.064   3.930  1.4944  1.9716 -1.0130
  124DG      C1 2830   2.166   0.440   3.945  0.0435 -0.4290  0.5948
  124DG      C2 2831   2.701   0.391   4.248 -0.0768 -0.6318  0.0043
  124DG      H3 2832   2.178   0.525   3.878  0.0458 -1.1315 -0.3333
  124DG      H4 2833   2.148   0.479   4.045  2.7576  0.3438  0.8538
  124DG      H5 2834   2.079   0.381   3.917 -0.4588  1.6498 -2.7816
  124DG      H6 2835   2.744   0.483   4.208 -1.3637  0.0095  0.0435
  124DG      H7 2836   2.626   0.414   4.323  0.5898  2.6572 -0.1734
  124DG      H8 2837   2.786   0.340   4.294  0.8183  0.5640 -0.2543
  124DG      O9 2838   2.281   0.355   3.942 -0.2358 -0.4231  0.0265
  124DG     O10 2839   2.655   0.319   4.137 -0.0982 -0.5889 -0.4586
  124DG     C11 2840   2.311   0.293   3.820  0.4504 -0.2327 -0.6588
  124DG     C12 2841   2.621   0.177   4.155  0.2418  0.1290 -0.3306
  124DG     H13 2842   2.358   0.373   3.763  0.6813 -1.2058 -1.8766
  124DG     H14 2843   2.232   0.241   3.766  1.9465 -0.9468 -2.2091
  124DG     H15 2844   2.551   0.160   4.237 -0.6333  2.2236 -0.5983
  124DG     H16 2845   2.712   0.119   4.175  1.1625  1.4481 -0.5357
  124DG     C17 2846   2.407   0.175   3.854  0.0241 -0.8712  0.4580
  124DG     C18 2847   2.563   0.127   4.021 -1.0201 -0.7626  0.3199
  124DG     O19 2848   2.501   0.231   3.947 -0.0726  0.9443 -0.0090
  124DG     H20 2849   2.450   0.122   3.769 -0.5054  0.8801 -0.9615
  124DG     H21 2850   2.342   0.098   3.897 -0.3632 -2.0368 -2.0235
  124DG     H22 2851   2.644   0.082   3.965  1.0404 -0.2173  2.6937
  124DG     H23 2852   2.504   0.042   4.055 -0.3466 -0.8537  1.2779
  125DG      C1 2853   1.790   4.455   3.429  0.2813  0.3584  0.0949
  125DG      C2 2854   2.127   3.972   3.141 -0.0884  0.1328  0.3119
  125DG      H3 2855   1.842   4.515   3.354  0.0709 -0.0691 -0.4021
  125DG      H4 2856   1.772   4.509   3.521 -2.3139  0.7286 -0.5511
  125DG      H5 2857   1.694   4.431   3.384  1.1186 -1.0040 -1.0601
  125DG      H6 2858   2.213   3.977   3.208 -0.4327  0.4078  0.7390
  125DG      H7 2859   2.133   3.885   3.075 -1.8091  0.1348  0.1166
  125DG      H8 2860   2.124   4.060   3.077 -1.4242 -1.1274 -1.4522
  125DG      O9 2861   1.869   4.338   3.433 -0.2722 -0.5420 -0.0674
  125DG     O10 2862   2.004   3.960   3.205 -0.4852  0.1925 -0.4635
  125DG     C11 2863   1.847   4.274   3.557  0.2572 -0.2768 -0.3758
  125DG     C12 2864   1.995   3.873   3.315  0.8229 -0.6958 -0.1425
  125DG     H13 2865   1.744   4.238   3.551  0.4957 -0.7180 -2.8711
  125DG     H14 2866   1.868   4.344   3.638 -0.5766  0.5659 -0.8698
  125DG     H15 2867   2.068   3.793   3.307 -1.1553 -2.4530 -2.3083
  125DG     H16 2868   1.898   3.824   3.318 -0.8530  2.4091  2.0966
  125DG     C17 2869   1.941   4.147   3.568 -0.3037  0.0089  0.0958
  125DG     C18 2870   2.014   3.955   3.440 -0.0189  0.4626  0.4746
  125DG     O19 2871   1.939   4.072   3.446 -0.7201  0.0294  0.5304
  125DG     H20 2872   1.910   4.085   3.652  1.4878 -1.1219 -0.0470
  125DG     H21 2873   2.044   4.169   3.596 -0.5202  0.4237  0.5849
  125DG     H22 2874   1.991   3.881   3.517  0.0750 -0.1898 -0.1241
  125DG     H23 2875   2.116   3.990   3.461 -0.2428  0.9258  0.7993
  126DG      C1 2876   3.324   0.598   1.665 -0.2643 -0.3779  0.5212
  126DG      C2 2877   3.430   1.209   2.038 -0.9278  0.5866  0.2507
  126DG      H3 2878   3.270   0.642   1.581  0.9960 -2.6336 -1.6275
  126DG      H4 2879   3.239   0.591   1.733  2.0919  1.1863  3.9522
  126DG      H5 2880   3.366   0.502   1.636  0.5212 -0.1461  0.8572
  126DG      H6 2881   3.371   1.151   2.110 -1.4969 -1.2656 -1.6012
  126DG      H7 2882   3.512   1.259   2.088 -0.9481  0.9500 -0.0741
  126DG      H8 2883   3.360   1.282   1.999  0.4377  2.6628  1.5010
  126DG      O9 2884   3.420   0.686   1.726  0.1029  0.0175 -0.3993
  126DG     O10 2885   3.475   1.108   1.940 -0.7835 -0.0194 -0.2748
  126DG     C11 2886   3.494   0.752   1.625  0.3564 -0.2178 -0.5100
  126DG     C12 2887   3.612   1.064   1.964  0.8804  0.5881 -0.6760
  126DG     H13 2888   3.439   0.829   1.572 -0.3408 -0.9617 -0.8897
  126DG     H14 2889   3.530   0.691   1.541 -0.9214  0.7296 -1.7792
  126DG     H15 2890   3.635   1.009   2.054  1.1357  0.3845 -0.8654
  126DG     H16 2891   3.674   1.153   1.976  1.4686 -0.0123  0.9194
  126DG     C17 2892   3.613   0.821   1.696  0.0782  0.0105 -0.1432
  126DG     C18 2893   3.667   0.987   1.848 -0.4418  0.7534  0.4278
  126DG     O19 2894   3.572   0.887   1.814  0.2558  0.7935 -0.0307
  126DG     H20 2895   3.663   0.891   1.629 -1.2472  1.4547  0.3275
  126DG     H21 2896   3.687   0.744   1.720  1.0184  0.8812 -0.1640
  126DG     H22 2897   3.678   1.054   1.763 -1.0771 -2.8369 -2.7650
  126DG     H23 2898   3.768   0.949   1.858 -0.6110  0.0935 -0.2973
  127DG      C1 2899   1.258   4.887   3.736 -0.6370  0.1292 -0.0715
  127DG      C2 2900   1.906   5.090   3.862 -1.1180  0.7713 -0.0414
  127DG      H3 2901   1.203   4.797   3.765  0.2093 -0.5677 -0.5877
  127DG      H4 2902   1.293   4.875   3.634  0.8801 -0.7860  0.5159
  127DG      H5 2903   1.193   4.974   3.739 -1.6877 -0.6430  0.5323
  127DG      H6 2904   1.849   5.182   3.848  1.1561  2.2681 -0.0332
  127DG      H7 2905   2.011   5.104   3.888 -0.8839 -0.4370 -0.2942
  127DG      H8 2906   1.906   5.043   3.764 -3.6822 -0.0081  0.2487
  127DG      O9 2907   1.383   4.912   3.812 -0.3141  0.0876  0.0329
  127DG     O10 2908   1.836   5.006   3.950  0.6811  0.0279  0.0175
  127DG     C11 2909   1.375   4.967   3.948  0.5841 -0.3422 -0.6935
  127DG     C12 2910   1.799   5.073   4.069  0.2138  0.6500  0.2031
  127DG     H13 2911   1.357   4.880   4.010  0.3092  0.2764  0.1208
  127DG     H14 2912   1.287   5.031   3.962 -0.2994 -1.7189  0.2033
  127DG     H15 2913   1.759   5.173   4.051 -3.4837 -0.7529 -0.5306
  127DG     H16 2914   1.879   5.073   4.143 -1.5175 -1.2592  2.2188
  127DG     C17 2915   1.499   5.044   3.985  0.0859  0.3586  0.8524
  127DG     C18 2916   1.683   4.993   4.134 -0.3654 -0.2908  0.3826
  127DG     O19 2917   1.589   4.944   4.028  0.2044 -0.0244  0.2306
  127DG     H20 2918   1.474   5.120   4.060  1.8178  0.9314  0.8991
  127DG     H21 2919   1.534   5.102   3.899  0.9407 -0.7538  0.4334
  127DG     H22 2920   1.727   4.908   4.187  0.2742  0.1940  0.6307
  127DG     H23 2921   1.630   5.052   4.208 -0.2884  0.4255 -0.1258
  128DG      C1 2922   5.492   2.080   0.116  0.0165 -0.0665 -0.3498
  128DG      C2 2923   5.740   2.246   0.716 -0.1499 -0.0663  0.2193
  128DG      H3 2924   5.460   1.977   0.132  0.9550 -0.3363 -0.1696
  128DG      H4 2925   5.598   2.062   0.103 -0.4541 -2.1635 -1.7694
  128DG      H5 2926   5.439   2.115   0.028 -0.1752 -2.6884 -1.3476
  128DG      H6 2927   5.732   2.307   0.807 -0.3634  0.9982 -0.4967
  128DG      H7 2928   5.723   2.140   0.738  1.5988 -0.9878 -2.4358
  128DG      H8 2929   5.843   2.249   0.681  0.2436  0.5758  1.3833
  128DG      O9 2930   5.459   2.156   0.231 -0.1306 -0.3979  0.0964
  128DG     O10 2931   5.650   2.285   0.614 -0.0987  0.4049  0.7087
  128DG     C11 2932   5.322   2.149   0.266  0.3219 -0.0424  0.7284
  128DG     C12 2933   5.523   2.298   0.665  0.7961 -0.5533 -0.0568
  128DG     H13 2934   5.297   2.047   0.294 -1.2776 -0.3566 -1.5539
  128DG     H14 2935   5.256   2.186   0.188 -0.4101 -0.5633  1.0880
  128DG     H15 2936   5.521   2.363   0.752 -1.8312  1.5510 -1.5484
  128DG     H16 2937   5.494   2.196   0.690  0.1802 -0.4020 -0.1366
  128DG     C17 2938   5.301   2.231   0.391  0.0484 -0.6604 -0.2300
  128DG     C18 2939   5.428   2.342   0.554 -0.1607  0.5467 -0.5375
  128DG     O19 2940   5.419   2.232   0.472 -0.5060  0.0225 -0.2397
  128DG     H20 2941   5.209   2.218   0.447 -0.2321  0.2612 -0.4553
  128DG     H21 2942   5.295   2.336   0.361  0.5716  0.8320  4.1430
  128DG     H22 2943   5.329   2.350   0.598 -1.4659 -2.6244 -2.5076
  128DG     H23 2944   5.455   2.432   0.498 -0.9894  0.3497 -1.2768
  129DG      C1 2945   2.284   1.970   0.054  0.2553  0.3950 -0.1448
  129DG      C2 2946   2.493   1.726  -0.503  0.7425 -0.0945 -0.1540
  129DG      H3 2947   2.343   1.939   0.140 -1.2691 -1.1398  0.3921
  129DG      H4 2948   2.183   1.980   0.094 -0.1055  0.0271 -0.9397
  129DG      H5 2949   2.315   2.073   0.035 -1.2374  0.7526 -0.8258
  129DG      H6 2950   2.385   1.718  -0.512  0.7586  0.5786 -1.1307
  129DG      H7 2951   2.503   1.832  -0.524 -2.1142 -0.0503 -1.7687
  129DG      H8 2952   2.546   1.675  -0.583 -0.5494  3.0331 -3.2628
  129DG      O9 2953   2.281   1.871  -0.050 -0.8822  0.6956  0.3890
  129DG     O10 2954   2.542   1.688  -0.375 -0.1918  0.4387  0.1476
  129DG     C11 2955   2.221   1.747  -0.001  0.3662 -0.4860 -0.2446
  129DG     C12 2956   2.513   1.551  -0.340  0.1014 -0.0298 -0.5339
  129DG     H13 2957   2.116   1.763   0.024  0.3999 -2.9069  1.8387
  129DG     H14 2958   2.270   1.714   0.091 -1.0727 -2.0255  0.0192
  129DG     H15 2959   2.596   1.533  -0.272 -0.3091 -1.8200 -0.4424
  129DG     H16 2960   2.509   1.474  -0.417  0.0850 -1.9372  1.2709
  129DG     C17 2961   2.233   1.637  -0.108 -0.7741  0.1689  0.6497
  129DG     C18 2962   2.381   1.541  -0.260 -0.3649  0.6313  0.7568
  129DG     O19 2963   2.363   1.637  -0.162 -0.0490  0.3797  0.1433
  129DG     H20 2964   2.168   1.662  -0.192  1.7443  0.8045 -1.2244
  129DG     H21 2965   2.209   1.542  -0.059 -0.0793 -0.7349 -0.7223
  129DG     H22 2966   2.300   1.548  -0.333  0.8763 -0.2492 -0.7911
  129DG     H23 2967   2.373   1.443  -0.213  1.3838 -0.5865 -1.2781
  130DG      C1 2968   2.619   1.710   0.044  0.4597  0.4419 -0.7096
  130DG      C2 2969   2.316   2.117  -0.293 -0.5367  0.2154  0.7185
  130DG      H3 2970   2.684   1.725   0.130  0.2975  1.9573 -0.8186
  130DG      H4 2971   2.621   1.606   0.012  2.5609  0.4570 -0.7477
  130DG      H5 2972   2.513   1.731   0.058  0.6077  1.0252 -0.4514
  130DG      H6 2973   2.329   2.213  -0.243  2.8979  0.1711  0.1219
  130DG      H7 2974   2.260   2.142  -0.383  2.1152 -0.4382 -1.2317
  130DG      H8 2975   2.251   2.059  -0.228 -0.6550 -0.2868  0.1526
  130DG      O9 2976   2.663   1.771  -0.071 -0.3199 -0.4195  0.1978
  130DG     O10 2977   2.440   2.060  -0.321 -0.2213  0.3872  0.1532
  130DG     C11 2978   2.779   1.857  -0.062 -0.0256  0.0710  0.6590
  130DG     C12 2979   2.546   2.151  -0.376  0.6836  0.4946 -0.2365
  130DG     H13 2980   2.869   1.797  -0.053  0.5826  0.2898 -2.6288
  130DG     H14 2981   2.765   1.925   0.022  2.5649 -0.7324  1.8445
  130DG     H15 2982   2.566   2.232  -0.306 -0.3001  1.0753 -0.6114
  130DG     H16 2983   2.534   2.190  -0.478 -0.0568 -0.1645 -0.4150
  130DG     C17 2984   2.792   1.930  -0.188 -0.3023 -0.6203 -0.0182
  130DG     C18 2985   2.672   2.059  -0.364  0.0793 -0.5724 -0.0036
  130DG     O19 2986   2.674   1.990  -0.238 -0.1666  0.0022  0.2457
  130DG     H20 2987   2.833   1.856  -0.258  1.2276 -1.6184  1.8536
  130DG     H21 2988   2.862   2.013  -0.191  0.0525 -0.9182 -0.0428
  130DG     H22 2989   2.654   1.978  -0.435 -2.1125 -0.9688  0.9133
  130DG     H23 2990   2.766   2.111  -0.383  0.5624 -0.8761  1.3899
  131DG      C1 2991   2.833   1.468   4.975  0.6897 -0.0109 -0.5163
  131DG      C2 2992   3.327   1.073   4.710  0.2630  0.1686  0.1224
  131DG      H3 2993   2.910   1.543   4.957 -0.0466  0.8584 -0.1726
  131DG      H4 2994   2.762   1.491   5.055 -0.6753  1.0973 -1.9836
  131DG      H5 2995   2.775   1.467   4.883  2.3003  0.2043 -1.5776
  131DG      H6 2996   3.315   1.000   4.630 -0.0524  2.2832 -1.8652
  131DG      H7 2997   3.350   1.172   4.671  0.7204  1.2646  2.9171
  131DG      H8 2998   3.406   1.036   4.776 -0.8571 -1.4178  0.6216
  131DG      O9 2999   2.890   1.344   4.992 -0.1830 -0.3076  0.5758
  131DG     O10 3000   3.208   1.088   4.788 -0.2178  0.2138 -0.2101
  131DG     C11 3001   2.799   1.239   4.972  0.0293 -0.4924 -0.3124
  131DG     C12 3002   3.154   0.964   4.831 -0.3584  0.3290  0.0511
  131DG     H13 3003   2.746   1.231   4.877 -1.7967  3.1641  0.2134
  131DG     H14 3004   2.723   1.235   5.050  2.3020 -1.5970  1.9977
  131DG     H15 3005   3.236   0.897   4.859  0.4473  0.4714 -1.7620
  131DG     H16 3006   3.117   0.910   4.743 -0.5157  0.8881 -0.2315
  131DG     C17 3007   2.876   1.115   5.005 -0.2835 -0.2224 -0.2089
  131DG     C18 3008   3.053   0.981   4.941  0.6264  0.2787 -0.5738
  131DG     O19 3009   2.988   1.105   4.924 -0.2091 -0.8890 -0.4075
  131DG     H20 3010   2.814   1.026   5.004  0.6378 -1.0204  2.9322
  131DG     H21 3011   2.905   1.126   5.110  0.2988  1.2968 -0.5016
  131DG     H22 3012   2.982   0.900   4.927  1.0172 -0.0826 -0.4744
  131DG     H23 3013   3.116   0.963   5.028  1.3027 -0.9932 -1.2993
  132DG      C1 3014   5.268   2.454   0.046  0.1825  0.4307 -0.2484
  132DG      C2 3015   4.788   2.435  -0.467 -0.2378 -0.5840 -0.4046
  132DG      H3 3016   5.288   2.516  -0.041  1.5927  0.6723  0.2109
  132DG      H4 3017   5.349   2.381   0.058 -0.7536 -0.2187  3.3944
  132DG      H5 3018   5.281   2.512   0.137 -0.9139  0.1545  0.0946
  132DG      H6 3019   4.712   2.382  -0.524 -1.4180 -0.5983  1.1468
  132DG      H7 3020   4.755   2.538  -0.458  1.4987  0.0867 -1.1443
  132DG      H8 3021   4.887   2.434  -0.513 -0.5896  0.7828 -1.2481
  132DG      O9 3022   5.141   2.388   0.035  0.1368 -0.0888  0.1494
  132DG     O10 3023   4.796   2.376  -0.342  0.1378 -0.2745 -0.1660
  132DG     C11 3024   5.036   2.473   0.079  0.0670 -0.0877 -0.1665
  132DG     C12 3025   4.701   2.418  -0.246 -0.5660  0.0745  0.2941
  132DG     H13 3026   5.033   2.574   0.036 -0.8672 -0.3220 -0.6805
  132DG     H14 3027   5.049   2.491   0.186 -0.4118 -1.1517  0.0798
  132DG     H15 3028   4.597   2.404  -0.278  0.2095  0.9292 -2.9350
  132DG     H16 3029   4.702   2.526  -0.238  0.7334  0.0359  0.7936
  132DG     C17 3030   4.905   2.392   0.061  0.1247 -0.0433  0.2207
  132DG     C18 3031   4.740   2.361  -0.110 -0.4922  0.1075 -0.0754
  132DG     O19 3032   4.872   2.386  -0.079 -0.0549 -0.0128 -0.0527
  132DG     H20 3033   4.823   2.432   0.121  0.3709 -1.6913  1.7515
  132DG     H21 3034   4.915   2.290   0.098 -0.4582  0.2121  1.1288
  132DG     H22 3035   4.672   2.406  -0.038 -0.1440  0.4157  0.0594
  132DG     H23 3036   4.716   2.255  -0.106  0.1230 -0.0275 -0.0261
  133DG      C1 3037   4.316   2.815   1.547  0.6478 -0.5118  0.3660
  133DG      C2 3038   3.788   3.149   1.736 -0.6902 -0.3167  0.1079
  133DG      H3 3039   4.367   2.726   1.512 -0.1946 -0.6993 -0.4336
  133DG      H4 3040   4.357   2.867   1.634 -1.2080  0.0171  0.9736
  133DG      H5 3041   4.320   2.876   1.457 -1.3987 -0.7775  0.0405
  133DG      H6 3042   3.880   3.207   1.749 -1.2835  0.9110 -0.9731
  133DG      H7 3043   3.745   3.195   1.647  1.6522  0.5611 -0.6556
  133DG      H8 3044   3.721   3.162   1.821  0.1003  0.4161  0.6328
  133DG      O9 3045   4.186   2.772   1.569 -0.3598 -0.3537  0.3149
  133DG     O10 3046   3.837   3.020   1.711  0.4144 -0.4622 -0.5457
  133DG     C11 3047   4.164   2.664   1.654  0.0232 -0.1180 -0.0820
  133DG     C12 3048   3.827   2.935   1.826 -0.4747  0.2670 -0.3613
  133DG     H13 3049   4.218   2.674   1.749 -0.7811  1.4390  0.2462
  133DG     H14 3050   4.205   2.572   1.613 -0.8269 -0.7730  0.4884
  133DG     H15 3051   3.722   2.941   1.854 -0.5755  0.5562 -0.8043
  133DG     H16 3052   3.893   2.966   1.907  0.6033  0.1098 -1.1612
  133DG     C17 3053   4.008   2.651   1.675 -0.7314  0.3546 -0.2319
  133DG     C18 3054   3.859   2.784   1.802 -0.1296 -0.2893  0.7218
  133DG     O19 3055   3.970   2.778   1.723  0.2054 -0.1874 -0.0832
  133DG     H20 3056   3.996   2.569   1.745  1.1571 -0.1349 -0.4328
  133DG     H21 3057   3.942   2.624   1.593  1.9917 -1.1824 -2.0970
  133DG     H22 3058   3.870   2.717   1.887 -1.7789 -0.0980  1.1191
  133DG     H23 3059   3.787   2.731   1.739  1.0356 -0.4741 -0.5184
  134DG      C1 3060   0.157   5.048   4.236  0.0983 -0.3896  0.3345
  134DG      C2 3061   0.529   5.332   3.748  0.8391 -0.2795 -0.3293
  134DG      H3 3062   0.113   5.005   4.146 -1.8096 -0.0008  1.0269
  134DG      H4 3063   0.081   5.071   4.310  1.8956 -0.7254  2.3721
  134DG      H5 3064   0.229   4.972   4.267 -0.4979 -0.8248  0.6835
  134DG      H6 3065   0.620   5.383   3.715  1.7939 -1.7317 -0.0576
  134DG      H7 3066   0.551   5.226   3.760 -1.6602 -0.6782  1.5305
  134DG      H8 3067   0.465   5.329   3.660  0.4305  2.0076 -0.1531
  134DG      O9 3068   0.217   5.169   4.193 -0.1516  0.3003  0.3563
  134DG     O10 3069   0.449   5.387   3.856  0.3823 -0.3630 -0.0431
  134DG     C11 3070   0.286   5.227   4.300 -0.0554 -0.6475  0.5422
  134DG     C12 3071   0.517   5.458   3.955 -0.5146  0.0212 -0.1616
  134DG     H13 3072   0.376   5.168   4.314  0.8459  0.6523  0.3173
  134DG     H14 3073   0.226   5.232   4.392 -1.1727  3.1875 -0.2412
  134DG     H15 3074   0.551   5.554   3.917 -1.3638  1.3165  2.1266
  134DG     H16 3075   0.609   5.408   3.983  0.1169  1.4259  0.3669
  134DG     C17 3076   0.323   5.371   4.262  0.2283 -0.7264 -0.0677
  134DG     C18 3077   0.437   5.489   4.079 -0.2086  0.2993 -0.4752
  134DG     O19 3078   0.399   5.362   4.137 -0.3246 -0.6321 -0.0990
  134DG     H20 3079   0.384   5.415   4.341  0.5439 -1.5535  0.1651
  134DG     H21 3080   0.238   5.427   4.225  2.8656  1.9399 -2.5981
  134DG     H22 3081   0.495   5.537   4.158  0.7721  2.6723 -2.5045
  134DG     H23 3082   0.351   5.553   4.058  0.0336  1.0622  0.7777
  135DG      C1 3083   4.951   3.940   3.618 -0.2403  0.0009  0.3722
  135DG      C2 3084   4.827   3.328   3.843 -0.9293 -0.6720  0.3737
  135DG      H3 3085   4.991   3.916   3.520 -1.4221  1.3207 -0.4616
  135DG      H4 3086   5.036   3.942   3.687  0.2996  1.4908 -0.3007
  135DG      H5 3087   4.919   4.043   3.605  0.4966  0.3471  1.1821
  135DG      H6 3088   4.785   3.352   3.941  0.5356  0.8834  0.6607
  135DG      H7 3089   4.805   3.227   3.807 -1.1605 -0.4290 -0.1813
  135DG      H8 3090   4.930   3.352   3.870 -1.6046  1.7573  1.0548
  135DG      O9 3091   4.840   3.854   3.648  0.5687  0.0093  0.0824
  135DG     O10 3092   4.790   3.434   3.755  0.2596  0.2554  0.5673
  135DG     C11 3093   4.734   3.861   3.553  0.4263 -0.3370 -0.1784
  135DG     C12 3094   4.656   3.416   3.718  0.6451  0.0636 -0.0722
  135DG     H13 3095   4.767   3.815   3.460  1.5661 -0.3246  0.2115
  135DG     H14 3096   4.698   3.962   3.538 -0.1254 -0.8462 -2.7496
  135DG     H15 3097   4.590   3.355   3.780  1.0621  0.2961  0.6183
  135DG     H16 3098   4.657   3.353   3.629  0.8094 -1.0755  0.7162
  135DG     C17 3099   4.628   3.774   3.613 -0.0997  0.6433 -0.4293
  135DG     C18 3100   4.593   3.554   3.694  0.2547  0.5706 -0.2466
  135DG     O19 3101   4.672   3.639   3.616  0.3089  0.0595 -0.0570
  135DG     H20 3102   4.542   3.786   3.547 -1.4873  0.8786  1.3401
  135DG     H21 3103   4.596   3.804   3.713 -4.3542 -2.2295 -0.6912
  135DG     H22 3104   4.497   3.554   3.642  1.2082  1.4020 -2.0898
  135DG     H23 3105   4.566   3.599   3.789 -2.6666 -2.2941  0.4559
  136DG      C1 3106   2.679   4.800   3.317  0.6761  0.0067  0.1566
  136DG      C2 3107   2.932   5.334   3.068  0.0868 -0.5401  0.7701
  136DG      H3 3108   2.596   4.788   3.247 -1.0333  0.8076  1.9578
  136DG      H4 3109   2.671   4.735   3.404 -1.8139 -1.4280 -1.0395
  136DG      H5 3110   2.769   4.779   3.260  0.5607  0.7729 -0.3228
  136DG      H6 3111   2.955   5.439   3.055  0.4849 -0.4688  1.9147
  136DG      H7 3112   3.029   5.289   3.091 -0.1436 -1.3584  0.1988
  136DG      H8 3113   2.880   5.293   2.982 -1.9559 -0.9079  2.1120
  136DG      O9 3114   2.685   4.938   3.340 -0.2968 -0.2643  0.0157
  136DG     O10 3115   2.850   5.313   3.181 -0.1659 -0.1516  0.0257
  136DG     C11 3116   2.570   4.994   3.390  0.0311  0.3326 -0.0101
  136DG     C12 3117   2.740   5.407   3.191  0.3937  0.1539 -0.1963
  136DG     H13 3118   2.530   4.947   3.480 -0.0041 -2.0475 -1.1775
  136DG     H14 3119   2.496   4.988   3.310  1.0233  0.2912 -0.9437
  136DG     H15 3120   2.692   5.397   3.093  3.5993 -1.4317 -1.7629
  136DG     H16 3121   2.768   5.512   3.203 -0.3220  0.0824  2.8193
  136DG     C17 3122   2.593   5.147   3.422 -0.1879 -0.4735  0.7481
  136DG     C18 3123   2.658   5.351   3.304  0.1593 -0.5389 -0.3847
  136DG     O19 3124   2.638   5.205   3.299  0.0543  0.2607 -0.0030
  136DG     H20 3125   2.663   5.163   3.505 -0.1873 -0.4579  0.7443
  136DG     H21 3126   2.496   5.193   3.440 -0.5038 -0.8289 -0.0405
  136DG     H22 3127   2.708   5.380   3.396  0.6220 -0.4004 -0.6771
  136DG     H23 3128   2.565   5.409   3.311  0.6288  0.3420 -1.2078
  137DG      C1 3129   3.635   3.690   2.550  0.7177  0.1691  0.7429
  137DG      C2 3130   3.431   3.976   1.959  0.1671 -0.0194  0.1462
  137DG      H3 3131   3.696   3.607   2.512  1.5695  0.3720  1.6214
  137DG      H4 3132   3.610   3.671   2.654  1.4879 -0.9827  0.7408
  137DG      H5 3133   3.693   3.782   2.544  1.2393  0.1264  3.5978
  137DG      H6 3134   3.485   4.059   2.005  0.4792 -0.0422 -0.1787
  137DG      H7 3135   3.494   3.913   1.896 -0.1100 -0.9931  0.8180
  137DG      H8 3136   3.346   4.012   1.900 -3.0845 -1.6103  3.4388
  137DG      O9 3137   3.521   3.718   2.466 -0.2256 -0.2682 -0.0659
  137DG     O10 3138   3.371   3.898   2.060 -0.4421  0.1886 -0.5802
  137DG     C11 3139   3.445   3.598   2.443 -0.5453 -0.0667  0.1053
  137DG     C12 3140   3.315   3.775   2.025  0.2421 -0.0390 -0.3428
  137DG     H13 3141   3.418   3.538   2.530 -1.3559  0.1564  0.0120
  137DG     H14 3142   3.513   3.523   2.402 -2.5171 -2.6935  1.3238
  137DG     H15 3143   3.392   3.722   1.970  2.2446  1.8365  0.4933
  137DG     H16 3144   3.233   3.799   1.957 -0.2932 -0.5618  0.1113
  137DG     C17 3145   3.325   3.642   2.365  0.3652  0.0683  0.0578
  137DG     C18 3146   3.273   3.713   2.155  0.2138 -0.4523  0.2037
  137DG     O19 3147   3.380   3.680   2.239  0.1086 -0.1578  0.4979
  137DG     H20 3148   3.281   3.729   2.413 -1.1474  0.2843 -1.6001
  137DG     H21 3149   3.244   3.568   2.360  0.4037 -0.3106  3.1463
  137DG     H22 3150   3.206   3.784   2.205 -0.2934  0.3342 -1.5098
  137DG     H23 3151   3.216   3.621   2.139 -0.6221  0.2932 -1.3818
  138DG      C1 3152   4.894   4.391   0.158  0.3366  0.1997  0.7245
  138DG      C2 3153   4.843   4.989  -0.064 -0.1589  0.4007 -0.5387
  138DG      H3 3154   4.993   4.347   0.144  0.6159  1.7496 -3.3715
  138DG      H4 3155   4.860   4.407   0.056 -0.3485  1.6211  1.1428
  138DG      H5 3156   4.822   4.331   0.214 -0.7803  2.1308  1.4656
  138DG      H6 3157   4.767   4.929  -0.115  0.6524 -0.0218 -1.2838
  138DG      H7 3158   4.827   5.096  -0.077  2.3281  0.7427 -1.1574
  138DG      H8 3159   4.931   4.961  -0.122 -0.1995 -1.3172  0.1731
  138DG      O9 3160   4.909   4.522   0.198  0.5076  0.4853  0.5379
  138DG     O10 3161   4.859   4.937   0.072 -0.6272 -0.0978  0.5963
  138DG     C11 3162   4.985   4.538   0.309 -0.1217 -0.2228  0.0744
  138DG     C12 3163   4.978   4.986   0.137  0.3285  0.1795 -0.6922
  138DG     H13 3164   5.081   4.491   0.292  0.1761  0.5736 -0.5453
  138DG     H14 3165   4.959   4.481   0.398 -1.3930 -0.6309 -0.5384
  138DG     H15 3166   4.959   5.087   0.173  1.4284  0.5924 -1.2177
  138DG     H16 3167   5.063   4.981   0.068  2.5648 -3.1963  1.9770
  138DG     C17 3168   5.012   4.687   0.338  0.3935 -0.0661 -0.2481
  138DG     C18 3169   5.015   4.903   0.258  0.3491 -0.2039  0.6083
  138DG     O19 3170   5.005   4.767   0.220 -0.0462  0.0802 -0.0239
  138DG     H20 3171   5.113   4.694   0.381  0.8391  1.3300 -1.4144
  138DG     H21 3172   4.938   4.719   0.411  0.2003 -2.5854  0.7311
  138DG     H22 3173   5.108   4.938   0.303  0.3216 -0.7945  1.1467
  138DG     H23 3174   4.953   4.934   0.342  1.3341  1.0698  0.9053
  139DG      C1 3175   3.332   4.091   3.367  0.9731  0.0829 -0.6195
  139DG      C2 3176   3.186   4.618   3.675  0.2283  0.7158  0.1844
  139DG      H3 3177   3.405   4.153   3.315 -0.5261  1.1758 -1.5142
  139DG      H4 3178   3.319   3.996   3.316  1.0427 -1.0863  1.4373
  139DG      H5 3179   3.361   4.077   3.471  0.6275 -1.5317 -0.7201
  139DG      H6 3180   3.211   4.554   3.760  1.2290 -1.5028 -1.6792
  139DG      H7 3181   3.269   4.673   3.630  1.2863  0.1957  1.4316
  139DG      H8 3182   3.111   4.686   3.715 -1.8059 -2.1088  1.5019
  139DG      O9 3183   3.214   4.167   3.372 -0.0545 -0.2271 -0.4331
  139DG     O10 3184   3.110   4.545   3.584  0.1535 -0.1309 -0.5097
  139DG     C11 3185   3.149   4.190   3.254  0.3279 -0.0731  0.6082
  139DG     C12 3186   3.046   4.604   3.465  0.1090 -0.2103  0.2713
  139DG     H13 3187   3.117   4.093   3.217 -2.5453  0.6980  0.8422
  139DG     H14 3188   3.214   4.246   3.187 -1.2859  1.2252  0.0625
  139DG     H15 3189   3.122   4.654   3.406  0.2165  3.2420  2.9892
  139DG     H16 3190   2.985   4.690   3.495  0.8182  0.2853  0.3209
  139DG     C17 3191   3.023   4.281   3.275  0.1822  0.4862 -0.5466
  139DG     C18 3192   2.969   4.495   3.387  0.0848  0.3621  0.5609
  139DG     O19 3193   3.062   4.384   3.366 -0.4913 -0.5084  0.2157
  139DG     H20 3194   2.952   4.212   3.321  0.1673  0.7237 -0.2111
  139DG     H21 3195   2.979   4.320   3.183 -1.1151  0.9631  0.2478
  139DG     H22 3196   2.878   4.466   3.439 -0.2144 -1.3595 -0.8535
  139DG     H23 3197   2.938   4.545   3.295  0.1976  2.7395  1.7195
  140DG      C1 3198   1.452   4.721   1.337  0.3577 -0.5261 -0.6373
  140DG      C2 3199   1.550   4.098   1.771  0.0115  0.1634  0.8600
  140DG      H3 3200   1.359   4.753   1.290 -0.1656 -0.1428  0.6157
  140DG      H4 3201   1.469   4.617   1.307  0.3518 -1.0211  0.9904
  140DG      H5 3202   1.527   4.797   1.315  0.5203 -0.4103  0.2617
  140DG      H6 3203   1.507   4.055   1.861 -2.2009  0.8512  0.2082
  140DG      H7 3204   1.473   4.087   1.694 -0.1988 -0.9287  1.2027
  140DG      H8 3205   1.643   4.051   1.739  0.3199  1.5176 -0.3500
  140DG      O9 3206   1.427   4.712   1.475  0.1796  0.6426  0.1544
  140DG     O10 3207   1.578   4.236   1.808 -0.0531  0.2592 -0.0313
  140DG     C11 3208   1.550   4.666   1.530  0.2841 -0.9367 -0.1871
  140DG     C12 3209   1.472   4.315   1.855  0.3061 -0.0865 -0.3158
  140DG     H13 3210   1.612   4.754   1.511 -0.9302 -0.4150 -1.9896
  140DG     H14 3211   1.606   4.585   1.484 -0.2178 -0.6214 -1.3752
  140DG     H15 3212   1.448   4.287   1.958  2.3043  0.2608  0.2828
  140DG     H16 3213   1.387   4.305   1.788 -0.1429 -0.6768  0.3184
  140DG     C17 3214   1.549   4.637   1.681  0.4478  0.1303 -0.9437
  140DG     C18 3215   1.517   4.465   1.847 -0.0068 -0.3832  0.7354
  140DG     O19 3216   1.524   4.497   1.708 -0.7224  0.1057 -0.2737
  140DG     H20 3217   1.469   4.693   1.729  0.6822 -1.6208  1.6675
  140DG     H21 3218   1.640   4.667   1.731 -1.0699  0.9578  1.4902
  140DG     H22 3219   1.434   4.517   1.895  2.1249  2.2830  1.8628
  140DG     H23 3220   1.611   4.498   1.892 -0.8692  0.7151  1.8184
  141DG      C1 3221   0.750   1.288   3.492  0.0467 -1.7371  0.0757
  141DG      C2 3222   0.527   1.206   4.113 -0.4114 -0.0759  0.9766
  141DG      H3 3223   0.797   1.257   3.399 -0.6054 -2.4246 -0.0409
  141DG      H4 3224   0.813   1.357   3.548 -1.0646 -0.8046  0.1990
  141DG      H5 3225   0.655   1.329   3.458  1.0297  0.6418  0.0748
  141DG      H6 3226   0.592   1.292   4.125  0.4083 -0.4435 -0.5653
  141DG      H7 3227   0.430   1.249   4.090  1.1701  3.8523  0.8408
  141DG      H8 3228   0.515   1.170   4.215  1.1572  1.6943  1.8299
  141DG      O9 3229   0.731   1.189   3.593 -0.6327  0.1586 -0.2496
  141DG     O10 3230   0.590   1.122   4.018  0.8293  0.2190  0.5311
  141DG     C11 3231   0.668   1.069   3.539 -0.1151 -0.2319  0.5831
  141DG     C12 3232   0.519   1.004   3.987  0.0345  0.1888  0.7732
  141DG     H13 3233   0.724   1.024   3.457  0.8312 -1.6382  1.9429
  141DG     H14 3234   0.572   1.093   3.491  1.0960 -1.1181 -2.5258
  141DG     H15 3235   0.419   1.028   3.949 -1.2189 -1.2734  2.8894
  141DG     H16 3236   0.507   0.938   4.074 -0.4305 -1.0164 -0.1753
  141DG     C17 3237   0.647   0.958   3.645  0.4832  1.0074  0.5204
  141DG     C18 3238   0.587   0.927   3.877  0.0941  0.2451 -0.0045
  141DG     O19 3239   0.592   1.015   3.764 -0.9302 -0.0700 -0.3505
  141DG     H20 3240   0.746   0.918   3.666  0.4403  0.1774 -0.6882
  141DG     H21 3241   0.577   0.877   3.621  0.5430  1.3825 -1.0200
  141DG     H22 3242   0.689   0.896   3.899 -0.8912 -2.9452  0.6645
  141DG     H23 3243   0.524   0.840   3.857 -0.8276  1.1695 -1.3322
  142DG      C1 3244   2.049   4.922   0.590  0.4662 -0.2712  1.0731
  142DG      C2 3245   1.446   4.806   0.306  0.2328 -0.2552 -0.3704
  142DG      H3 3246   2.022   5.016   0.639 -1.8445 -1.1701  1.6431
  142DG      H4 3247   2.082   4.960   0.493 -1.6770  1.9916  1.1130
  142DG      H5 3248   2.133   4.868   0.634 -0.1924 -2.8816 -0.6488
  142DG      H6 3249   1.500   4.850   0.223  2.5709 -1.7942  0.2314
  142DG      H7 3250   1.364   4.750   0.261  0.2748 -0.0300 -0.7294
  142DG      H8 3251   1.419   4.884   0.377  1.9913 -0.9363  1.1534
  142DG      O9 3252   1.936   4.836   0.569 -0.0305  0.1193  0.4165
  142DG     O10 3253   1.540   4.724   0.372 -0.4885  0.4108 -0.2953
  142DG     C11 3254   1.890   4.780   0.688 -0.4641 -0.7237  0.2119
  142DG     C12 3255   1.495   4.632   0.468  0.1787  0.0589  0.3793
  142DG     H13 3256   1.828   4.846   0.748  1.7250  2.3804 -0.6836
  142DG     H14 3257   1.966   4.737   0.753  0.1908  2.2911  1.6162
  142DG     H15 3258   1.428   4.553   0.433  0.9971 -0.9157  0.9795
  142DG     H16 3259   1.439   4.689   0.542 -2.9363 -0.5948 -1.2859
  142DG     C17 3260   1.813   4.650   0.653  0.0946  0.4711  0.1792
  142DG     C18 3261   1.615   4.578   0.543  0.3981 -0.4569  0.2559
  142DG     O19 3262   1.694   4.693   0.589 -0.6963 -0.0765 -0.0742
  142DG     H20 3263   1.785   4.592   0.740 -2.0523  0.4413 -0.4853
  142DG     H21 3264   1.873   4.582   0.593  0.2465  0.3098  0.5138
  142DG     H22 3265   1.595   4.504   0.621  1.0866 -1.7285 -0.7422
  142DG     H23 3266   1.678   4.532   0.468  1.4949  1.9639 -0.3852
  143DG      C1 3267   1.375   3.955   5.192  0.3770  0.3914 -0.2620
  143DG      C2 3268   1.844   4.184   5.639 -0.2067  1.2060 -0.0952
  143DG      H3 3269   1.308   3.953   5.279  0.1681 -0.8796 -0.4389
  143DG      H4 3270   1.432   3.863   5.192  1.5547  0.9999  3.0122
  143DG      H5 3271   1.297   3.966   5.116  0.1724  0.7186 -0.0110
  143DG      H6 3272   1.945   4.142   5.643 -1.5191 -2.6316 -2.1512
  143DG      H7 3273   1.845   4.287   5.675  1.1701  1.7931 -1.6335
  143DG      H8 3274   1.797   4.118   5.711  1.5794  0.2643  0.2567
  143DG      O9 3275   1.470   4.060   5.211 -0.2306 -0.2207  0.2298
  143DG     O10 3276   1.792   4.187   5.511  0.1597 -0.2126  0.9171
  143DG     C11 3277   1.551   4.083   5.101 -0.7088  0.0109  0.4529
  143DG     C12 3278   1.889   4.230   5.421  0.4176  0.8759  0.1685
  143DG     H13 3279   1.481   4.098   5.019  1.1248 -1.1362 -1.4368
  143DG     H14 3280   1.606   3.991   5.082  1.1697  0.8346  1.6154
  143DG     H15 3281   1.963   4.153   5.398  0.4154  1.2134 -1.0623
  143DG     H16 3282   1.942   4.320   5.452 -0.0440  0.7321  1.4219
  143DG     C17 3283   1.642   4.203   5.127 -0.4837  0.8986  0.3324
  143DG     C18 3284   1.817   4.268   5.285 -0.2150 -0.7479 -0.1791
  143DG     O19 3285   1.715   4.177   5.246 -0.5577  0.7289  0.0813
  143DG     H20 3286   1.580   4.292   5.131 -0.3844  0.9952 -0.2832
  143DG     H21 3287   1.709   4.221   5.043 -2.2438  1.0000 -1.0951
  143DG     H22 3288   1.776   4.369   5.292  0.5038 -0.5555  2.6038
  143DG     H23 3289   1.885   4.275   5.200 -1.9535 -0.2807 -1.6076
  144DG      C1 3290   3.912   2.775   5.028  0.1802  0.3324 -0.2145
  144DG      C2 3291   3.426   3.197   4.597  0.4586  0.3337  0.1346
  144DG      H3 3292   3.939   2.770   4.923 -0.7951  1.6237 -0.5499
  144DG      H4 3293   3.825   2.710   5.030  0.9437 -0.7241 -0.5235
  144DG      H5 3294   3.994   2.764   5.100  0.0046  2.2353  0.3565
  144DG      H6 3295   3.395   3.093   4.598  1.3264  0.0686  0.7649
  144DG      H7 3296   3.333   3.253   4.603  1.8918  3.4595 -3.0027
  144DG      H8 3297   3.468   3.207   4.497 -0.4439 -2.0690 -0.5476
  144DG      O9 3298   3.863   2.901   5.047  0.1473  0.0717  0.6217
  144DG     O10 3299   3.512   3.239   4.709  0.0358 -0.0861 -0.3339
  144DG     C11 3300   3.964   3.004   5.045  0.6370 -0.2557  0.3037
  144DG     C12 3301   3.640   3.174   4.721 -0.2546  0.6190 -0.3724
  144DG     H13 3302   4.046   2.986   4.975 -0.6913 -0.9627 -1.1189
  144DG     H14 3303   4.016   3.002   5.141  0.2785 -2.2212  0.4988
  144DG     H15 3304   3.712   3.201   4.643  0.3018 -0.7154 -0.3394
  144DG     H16 3305   3.621   3.068   4.706 -0.1144  0.4462  0.6176
  144DG     C17 3306   3.895   3.133   5.003 -0.3525 -0.7925 -0.7598
  144DG     C18 3307   3.718   3.215   4.852 -0.3406  0.3418  0.5013
  144DG     O19 3308   3.816   3.119   4.881 -0.0877  0.4192  0.1067
  144DG     H20 3309   3.966   3.211   4.975  0.2586 -1.3876 -0.8757
  144DG     H21 3310   3.834   3.179   5.081  0.1234 -2.4906  0.6611
  144DG     H22 3311   3.763   3.313   4.836 -0.3973  0.2649 -0.1734
  144DG     H23 3312   3.632   3.219   4.919 -2.7916 -4.2022 -1.9185
  145DG      C1 3313   1.904   2.957   1.402 -0.0740 -0.4682  0.6040
  145DG      C2 3314   1.665   3.194   2.011 -0.2131  0.2345 -0.3406
  145DG      H3 3315   2.012   2.957   1.413 -0.2557  1.0101  3.1265
  145DG      H4 3316   1.872   3.055   1.367  0.2206 -0.7377 -0.4658
  145DG      H5 3317   1.875   2.891   1.320 -1.6205  0.7441  0.1117
  145DG      H6 3318   1.665   3.282   1.946 -2.0354 -1.1071 -2.3006
  145DG      H7 3319   1.571   3.196   2.066 -0.0990 -1.8677 -0.0143
  145DG      H8 3320   1.748   3.220   2.076  0.6597  0.4509 -1.5019
  145DG      O9 3321   1.815   2.916   1.508  0.2575 -0.2701  0.2288
  145DG     O10 3322   1.681   3.072   1.930  0.3293  0.0867 -0.5132
  145DG     C11 3323   1.842   2.793   1.572  0.1134  0.2447 -0.5519
  145DG     C12 3324   1.682   2.950   2.010  0.5017 -0.2585  0.8341
  145DG     H13 3325   1.945   2.794   1.607 -0.7356  0.0749  2.1510
  145DG     H14 3326   1.821   2.720   1.494 -0.5218 -0.1582 -0.0155
  145DG     H15 3327   1.594   2.945   2.074 -0.1380  1.3194  0.1232
  145DG     H16 3328   1.758   2.950   2.089  0.1171  0.2957  1.2103
  145DG     C17 3329   1.753   2.762   1.694 -0.4379  0.0720  0.2121
  145DG     C18 3330   1.698   2.827   1.916  0.0374 -0.0542 -0.3984
  145DG     O19 3331   1.774   2.855   1.798 -0.4159  0.2254  0.5361
  145DG     H20 3332   1.761   2.658   1.727 -1.0552  0.0491  0.2999
  145DG     H21 3333   1.650   2.749   1.661 -0.5514 -1.2900  1.0383
  145DG     H22 3334   1.728   2.736   1.969  0.6902  0.7679  0.6962
  145DG     H23 3335   1.597   2.807   1.880  0.3698 -0.3403 -1.1978
  146DG      C1 3336   4.324   3.020   0.560  0.5499 -0.0258  0.2128
  146DG      C2 3337   4.527   2.408   0.771 -0.6554 -0.2472 -0.4302
  146DG      H3 3338   4.363   3.101   0.621  1.2042  0.2892 -0.5967
  146DG      H4 3339   4.247   3.055   0.491  0.5292  0.7434  0.6196
  146DG      H5 3340   4.413   2.988   0.505  1.2897  0.1060  1.2926
  146DG      H6 3341   4.484   2.308   0.780 -0.2124 -0.4165 -0.1420
  146DG      H7 3342   4.585   2.416   0.679  1.3705  2.9363  0.9533
  146DG      H8 3343   4.587   2.417   0.861 -0.8946  0.4647 -0.3371
  146DG      O9 3344   4.280   2.904   0.634  0.0068 -0.3881  0.3142
  146DG     O10 3345   4.416   2.498   0.767  0.4322  0.2363  0.2979
  146DG     C11 3346   4.165   2.913   0.713  1.0132  0.2593 -0.3823
  146DG     C12 3347   4.346   2.513   0.888  0.6535  0.6016 -0.2864
  146DG     H13 3348   4.082   2.961   0.660 -0.2525 -0.8329  0.5483
  146DG     H14 3349   4.179   2.984   0.795 -0.8099  0.7746 -0.4648
  146DG     H15 3350   4.399   2.580   0.955  1.0018 -0.4080  0.4795
  146DG     H16 3351   4.326   2.415   0.932 -1.1181  1.4768  0.9828
  146DG     C17 3352   4.113   2.774   0.757  0.2052 -0.5671 -0.4080
  146DG     C18 3353   4.208   2.579   0.847 -0.9460 -0.4848  0.0916
  146DG     O19 3354   4.233   2.700   0.780 -0.2396 -0.3658  0.1701
  146DG     H20 3355   4.052   2.725   0.681 -0.5573 -1.9252  1.0243
  146DG     H21 3356   4.045   2.780   0.842  2.7653 -0.4409  1.7650
  146DG     H22 3357   4.153   2.506   0.787  0.9705 -0.9737 -1.1681
  146DG     H23 3358   4.145   2.599   0.933 -1.8404  2.1421 -1.0536
  147DG      C1 3359   0.188   2.991   1.333  0.5118  0.5422 -0.1928
  147DG      C2 3360   0.351   2.405   1.066  0.5444  0.1314  0.1810
  147DG      H3 3361   0.158   2.998   1.438  0.5186  3.3683 -0.3183
  147DG      H4 3362   0.162   3.085   1.286  2.8469  1.0173 -0.6886
  147DG      H5 3363   0.297   2.994   1.330  0.4970  1.9395  0.0181
  147DG      H6 3364   0.317   2.313   1.018 -1.7183  1.6405 -1.2867
  147DG      H7 3365   0.442   2.451   1.026  0.7641  0.5049  1.0794
  147DG      H8 3366   0.376   2.381   1.170  0.2964 -0.3155  0.1415
  147DG      O9 3367   0.137   2.889   1.256  0.1535  0.0831  0.1467
  147DG     O10 3368   0.245   2.504   1.065  0.5923  0.3063  0.1576
  147DG     C11 3369  -0.003   2.870   1.274 -0.4070 -0.5190  0.3249
  147DG     C12 3370   0.125   2.450   1.121 -0.4616  0.3146  0.6640
  147DG     H13 3371  -0.052   2.967   1.262 -0.2509 -0.3988  0.6510
  147DG     H14 3372  -0.033   2.833   1.372 -3.7792 -6.0325 -2.2922
  147DG     H15 3373   0.139   2.435   1.228  1.0416 -1.8986  0.2310
  147DG     H16 3374   0.108   2.356   1.070  0.6535  0.8556 -0.7873
  147DG     C17 3375  -0.043   2.771   1.178  0.9767  0.0199  0.3199
  147DG     C18 3376   0.004   2.549   1.115  0.2910  0.1346  0.1018
  147DG     O19 3377   0.048   2.663   1.180 -0.0787  0.2735  0.3273
  147DG     H20 3378  -0.043   2.808   1.075 -1.0583 -2.8639 -0.8509
  147DG     H21 3379  -0.143   2.743   1.210  0.4192  0.2318 -1.1541
  147DG     H22 3380  -0.025   2.583   1.015  2.6992  3.5447  0.3833
  147DG     H23 3381  -0.079   2.495   1.162 -0.5635  1.3095  0.0053
  148DG      C1 3382   5.054   0.973   0.320  0.4556  0.4113 -0.5045
  148DG      C2 3383   4.780   1.371   0.803 -0.2939  0.1648 -0.5938
  148DG      H3 3384   5.045   0.924   0.222  1.2560  0.2849 -0.5173
  148DG      H4 3385   5.065   0.902   0.401  3.5908 -0.0116 -1.1743
  148DG      H5 3386   5.147   1.030   0.316  1.2029 -0.5801  1.5506
  148DG      H6 3387   4.813   1.287   0.865  1.3069  0.9796 -0.2825
  148DG      H7 3388   4.846   1.455   0.825  1.3581 -0.6952 -2.0330
  148DG      H8 3389   4.683   1.390   0.847 -0.4818  1.3020 -1.4707
  148DG      O9 3390   4.938   1.056   0.346 -0.1381  0.3210  0.2458
  148DG     O10 3391   4.768   1.344   0.665  0.4193  0.1991  0.4102
  148DG     C11 3392   4.918   1.162   0.259  0.3168 -0.0968  0.4818
  148DG     C12 3393   4.694   1.431   0.580 -0.0034  0.2487  0.1036
  148DG     H13 3394   4.922   1.121   0.158  1.0969 -0.1062  0.5050
  148DG     H14 3395   4.994   1.239   0.275 -1.3275  1.4620  1.1840
  148DG     H15 3396   4.753   1.522   0.572  1.7966 -0.6603  2.0607
  148DG     H16 3397   4.597   1.446   0.626  0.4438  0.8057  0.8906
  148DG     C17 3398   4.789   1.233   0.279 -0.0620 -0.5553 -0.4084
  148DG     C18 3399   4.683   1.365   0.444  0.0588 -0.3458 -0.1336
  148DG     O19 3400   4.805   1.293   0.413 -0.6743 -0.5805  0.3944
  148DG     H20 3401   4.714   1.154   0.268 -0.4172 -0.0136 -2.1822
  148DG     H21 3402   4.774   1.306   0.199 -1.7303 -0.3668  0.0344
  148DG     H22 3403   4.595   1.302   0.427 -0.9659  0.6484  1.2766
  148DG     H23 3404   4.675   1.451   0.377 -3.4627  0.3453  0.9490
  149DG      C1 3405   3.253   5.063   2.563  0.5049  0.0760 -0.1392
  149DG      C2 3406   3.244   5.668   2.415  0.4184  0.3291 -0.3098
  149DG      H3 3407   3.323   5.051   2.480  0.6835 -0.2206  0.0561
  149DG      H4 3408   3.162   5.019   2.522  0.5930  0.4676 -0.7816
  149DG      H5 3409   3.292   5.002   2.644  0.6502 -1.6260 -1.4272
  149DG      H6 3410   3.175   5.609   2.355  0.1742  1.1047 -0.8117
  149DG      H7 3411   3.217   5.774   2.407 -3.5158 -0.2911  2.1250
  149DG      H8 3412   3.332   5.661   2.351  1.1339 -0.6748  0.7503
  149DG      O9 3413   3.235   5.202   2.592 -0.1604  0.1522 -0.6868
  149DG     O10 3414   3.261   5.637   2.552 -0.6359 -0.2819  0.0543
  149DG     C11 3415   3.130   5.214   2.693  0.1594  0.1194 -0.0799
  149DG     C12 3416   3.147   5.656   2.627  0.5497  0.6136 -0.2548
  149DG     H13 3417   3.163   5.173   2.788 -0.6278  2.9864  1.5377
  149DG     H14 3418   3.040   5.164   2.657 -0.3419  0.9210  0.0230
  149DG     H15 3419   3.055   5.610   2.593 -0.0503  0.5150  1.4434
  149DG     H16 3420   3.143   5.764   2.644  2.3159  0.6219  0.3373
  149DG     C17 3421   3.090   5.358   2.698  0.1725  0.1365  0.0679
  149DG     C18 3422   3.171   5.588   2.761  0.5711  0.4391 -0.2946
  149DG     O19 3423   3.191   5.446   2.744  0.0702  0.1779  0.0556
  149DG     H20 3424   3.005   5.384   2.760  0.0727  0.5471 -0.2367
  149DG     H21 3425   3.065   5.390   2.596  1.2027 -0.8947 -0.5360
  149DG     H22 3426   3.248   5.645   2.812  0.8843  2.4481 -2.8166
  149DG     H23 3427   3.082   5.601   2.822  1.6544  0.4773  1.3259
  150DG      C1 3428   2.092   5.255   3.540  0.0377  0.1279 -0.6109
  150DG      C2 3429   2.330   5.443   2.953 -1.0129 -0.0360  0.2177
  150DG      H3 3430   2.008   5.212   3.485 -2.8704  1.9378  2.0230
  150DG      H4 3431   2.057   5.284   3.639 -1.2230 -4.8586  0.7154
  150DG      H5 3432   2.164   5.175   3.555 -2.6124 -2.0173  1.9367
  150DG      H6 3433   2.434   5.425   2.925 -1.2276 -0.1348 -0.5147
  150DG      H7 3434   2.282   5.346   2.965  0.3639 -0.7118  0.5451
  150DG      H8 3435   2.276   5.500   2.878 -0.2134 -0.1078 -0.4212
  150DG      O9 3436   2.137   5.378   3.478  0.3577  0.1262 -0.5922
  150DG     O10 3437   2.311   5.503   3.078 -0.3140 -0.4360  0.2310
  150DG     C11 3438   2.244   5.450   3.542 -0.3724  0.0689 -0.0557
  150DG     C12 3439   2.417   5.595   3.114  0.5607 -0.1863  0.3029
  150DG     H13 3440   2.317   5.370   3.555 -2.3648 -1.7712  0.5814
  150DG     H14 3441   2.216   5.457   3.648 -1.4576 -1.5751 -0.1950
  150DG     H15 3442   2.422   5.673   3.038  0.6654  0.6252  1.1237
  150DG     H16 3443   2.515   5.547   3.114  0.0207 -1.4001  1.7451
  150DG     C17 3444   2.280   5.577   3.461  1.3318 -0.1691 -0.5974
  150DG     C18 3445   2.373   5.643   3.253 -0.2144  0.0104 -0.3891
  150DG     O19 3446   2.309   5.541   3.326 -0.4300  0.3175  0.1959
  150DG     H20 3447   2.355   5.623   3.525  1.1546 -2.9331  1.7786
  150DG     H21 3448   2.197   5.647   3.448 -0.6607 -2.0385  1.2280
  150DG     H22 3449   2.459   5.682   3.308  0.1149 -2.6710  1.1875
  150DG     H23 3450   2.311   5.731   3.236  0.8776  0.3782 -3.0510
  151DG      C1 3451   2.703   0.520   1.024 -0.1123  0.5666 -0.0593
  151DG      C2 3452   3.299   0.564   0.698 -0.2916  0.8637 -0.0042
  151DG      H3 3453   2.625   0.570   1.081  0.0458  1.3349 -0.4989
  151DG      H4 3454   2.720   0.415   1.050 -1.3656 -0.1522 -1.8932
  151DG      H5 3455   2.660   0.518   0.924  2.3290  0.4814 -1.1652
  151DG      H6 3456   3.332   0.466   0.735  0.0722  1.7472  2.1575
  151DG      H7 3457   3.239   0.544   0.609 -1.1106  1.2680  0.4517
  151DG      H8 3458   3.388   0.618   0.667  0.4033  0.1761  0.7493
  151DG      O9 3459   2.819   0.598   1.011 -0.1001 -0.2150  0.5095
  151DG     O10 3460   3.220   0.627   0.788 -0.3086 -0.9837 -0.1239
  151DG     C11 3461   2.782   0.735   0.979  0.6187  0.0098 -0.0084
  151DG     C12 3462   3.205   0.763   0.752  0.2678  0.0084 -0.3728
  151DG     H13 3463   2.713   0.774   1.055 -0.8538 -2.4246  0.0015
  151DG     H14 3464   2.732   0.737   0.882 -0.1882 -0.5253  0.3869
  151DG     H15 3465   3.155   0.767   0.655  0.7581 -2.2541 -0.7695
  151DG     H16 3466   3.306   0.804   0.749  1.5159 -2.8579 -0.1192
  151DG     C17 3467   2.908   0.818   0.961 -0.5191 -0.1042  0.5376
  151DG     C18 3468   3.117   0.836   0.855  0.2602  0.1525  0.1709
  151DG     O19 3469   3.007   0.751   0.881  0.0623  0.4587  0.5636
  151DG     H20 3470   2.958   0.823   1.058 -0.0873  1.1827  0.2607
  151DG     H21 3471   2.901   0.926   0.951  0.7165 -0.1879 -2.0164
  151DG     H22 3472   3.167   0.865   0.948 -1.0050 -1.2023  1.3159
  151DG     H23 3473   3.087   0.931   0.811  1.6714 -0.1383 -1.5213
  152DG      C1 3474   4.147   5.388   3.314  0.0113  0.5590  0.8538
  152DG      C2 3475   3.696   5.864   3.376  0.3016  0.4489  0.1072
  152DG      H3 3476   4.067   5.326   3.355  0.9129 -1.3118 -0.0537
  152DG      H4 3477   4.172   5.461   3.390 -0.4590 -0.2146  1.7729
  152DG      H5 3478   4.232   5.322   3.299 -0.4704  0.2731 -0.9042
  152DG      H6 3479   3.772   5.934   3.411  0.1148  0.1092  1.2121
  152DG      H7 3480   3.606   5.920   3.348  1.0899  2.4101  1.2658
  152DG      H8 3481   3.668   5.809   3.466 -0.5566  0.8258  0.0831
  152DG      O9 3482   4.095   5.440   3.191 -0.4784 -0.0793 -0.5349
  152DG     O10 3483   3.759   5.790   3.270 -0.4843 -0.4469 -0.3485
  152DG     C11 3484   4.183   5.536   3.133 -0.0603 -0.4358 -0.0290
  152DG     C12 3485   3.838   5.873   3.181  0.1462 -0.8723  0.5185
  152DG     H13 3486   4.256   5.490   3.066  0.2306 -0.0156 -0.0057
  152DG     H14 3487   4.229   5.595   3.213 -0.7653 -0.7598  0.6255
  152DG     H15 3488   3.909   5.937   3.232 -1.6247  0.5854  1.2686
  152DG     H16 3489   3.769   5.941   3.130  0.0224 -1.8325 -0.6640
  152DG     C17 3490   4.092   5.632   3.048 -1.4716 -0.0443 -0.4419
  152DG     C18 3491   3.904   5.780   3.079 -0.2324 -0.3043  0.0475
  152DG     O19 3492   3.995   5.687   3.140  0.1916  0.2572 -0.0591
  152DG     H20 3493   4.044   5.574   2.970 -1.4270  0.1115 -0.5860
  152DG     H21 3494   4.146   5.719   3.010  1.9116 -0.0998  3.5121
  152DG     H22 3495   3.835   5.734   3.008 -1.3964  0.2791  0.7639
  152DG     H23 3496   3.963   5.838   3.008 -1.7295  1.4475  0.1625
  153DG      C1 3497   3.241   4.163   3.737 -0.2800  0.2347 -0.1279
  153DG      C2 3498   3.335   4.555   3.196  0.3849  0.1476  0.5713
  153DG      H3 3499   3.294   4.073   3.706  1.2855  1.2239 -0.4088
  153DG      H4 3500   3.146   4.159   3.682 -0.4910 -0.6912  0.2826
  153DG      H5 3501   3.223   4.162   3.844 -0.9507 -0.2833 -0.2318
  153DG      H6 3502   3.226   4.556   3.205 -0.0548  1.7114 -3.2191
  153DG      H7 3503   3.376   4.653   3.169  0.6600 -0.5738 -1.8601
  153DG      H8 3504   3.355   4.487   3.115  0.5289  0.5622  0.2549
  153DG      O9 3505   3.318   4.279   3.698 -0.2555 -0.0654  0.3580
  153DG     O10 3506   3.392   4.508   3.319  0.1781  0.1927 -0.4015
  153DG     C11 3507   3.460   4.271   3.734 -0.1325  0.4002  0.3795
  153DG     C12 3508   3.528   4.504   3.316 -0.4663  0.4245 -0.3457
  153DG     H13 3509   3.507   4.175   3.710  0.4378  0.4589  1.2261
  153DG     H14 3510   3.477   4.300   3.838  3.0233  0.7771 -0.1402
  153DG     H15 3511   3.554   4.601   3.274  1.3261  0.8100  1.4660
  153DG     H16 3512   3.569   4.437   3.240 -1.1095 -0.9104  0.4474
  153DG     C17 3513   3.537   4.385   3.669  0.2522 -0.2347 -0.2232
  153DG     C18 3514   3.581   4.493   3.460  0.5072  0.7297  0.0479
  153DG     O19 3515   3.507   4.388   3.534 -0.1588 -0.4529  0.1038
  153DG     H20 3516   3.644   4.374   3.687  0.0958 -0.7200  0.4572
  153DG     H21 3517   3.520   4.481   3.718  1.3219 -0.2425  0.1982
  153DG     H22 3518   3.688   4.473   3.463  0.5802  0.8696 -1.1899
  153DG     H23 3519   3.556   4.587   3.511  2.7538  0.3090  2.1246
  154DG      C1 3520   0.746   4.249   0.775 -0.6001  0.2697 -0.2308
  154DG      C2 3521   0.167   4.065   0.557 -0.0486 -0.9146  0.1281
  154DG      H3 3522   0.799   4.158   0.749  0.9503  1.4993 -1.6328
  154DG      H4 3523   0.816   4.296   0.845  2.9960 -1.0250 -2.6642
  154DG      H5 3524   0.757   4.327   0.699  1.2243  1.1390  0.8537
  154DG      H6 3525   0.187   3.959   0.548  0.8653 -0.7215 -0.2782
  154DG      H7 3526   0.061   4.086   0.544 -0.4194 -2.7864 -0.0374
  154DG      H8 3527   0.212   4.107   0.466  1.2955 -0.1875  1.0883
  154DG      O9 3528   0.623   4.243   0.847  0.2667 -0.3675  0.4639
  154DG     O10 3529   0.235   4.131   0.669 -0.2816  0.0541  0.4792
  154DG     C11 3530   0.605   4.140   0.938  0.2208  0.4270 -0.3459
  154DG     C12 3531   0.176   4.102   0.796 -0.2849 -0.0890  0.3163
  154DG     H13 3532   0.680   4.145   1.017  0.9458  0.7572 -1.0453
  154DG     H14 3533   0.626   4.043   0.893 -0.7252  0.9057 -1.8928
  154DG     H15 3534   0.167   3.995   0.816  0.2000  0.1420  1.8462
  154DG     H16 3535   0.071   4.132   0.803 -0.4601 -0.7084  0.4473
  154DG     C17 3536   0.473   4.139   1.000  0.0629 -0.2623 -0.1814
  154DG     C18 3537   0.261   4.161   0.908 -0.1228  0.0278  0.6048
  154DG     O19 3538   0.384   4.104   0.895  0.4917 -0.3337 -0.2397
  154DG     H20 3539   0.467   4.242   1.035 -0.0222 -0.6168  0.8600
  154DG     H21 3540   0.470   4.061   1.076 -3.3195 -0.6109 -0.4971
  154DG     H22 3541   0.275   4.269   0.909  2.8346 -0.2682  1.3357
  154DG     H23 3542   0.214   4.131   1.001 -2.1532  1.5182  0.1393
  155DG      C1 3543   0.877   1.097   1.042  0.2162 -0.0244 -0.5733
  155DG      C2 3544   0.304   1.204   0.731  1.0693 -0.0950 -0.5078
  155DG      H3 3545   0.967   1.036   1.039  0.5195  0.4844 -2.7815
  155DG      H4 3546   0.836   1.089   1.143 -0.7988  0.7366 -0.9070
  155DG      H5 3547   0.884   1.202   1.014 -0.6218  0.4764  0.9754
  155DG      H6 3548   0.291   1.133   0.649 -0.3726 -2.0566  1.3039
  155DG      H7 3549   0.207   1.232   0.772  1.6791 -0.8766  1.5647
  155DG      H8 3550   0.357   1.291   0.691  0.2525 -0.1665 -1.8138
  155DG      O9 3551   0.781   1.033   0.956 -0.1968  0.0035 -0.1924
  155DG     O10 3552   0.379   1.144   0.831  0.0642 -0.3099 -0.5476
  155DG     C11 3553   0.748   0.904   0.992  0.0942 -0.2148 -0.2561
  155DG     C12 3554   0.329   1.012   0.862 -0.0593 -0.2133 -0.5416
  155DG     H13 3555   0.701   0.899   1.090  0.4748 -1.3105 -0.1191
  155DG     H14 3556   0.842   0.854   1.014  0.5823  1.2286  1.1324
  155DG     H15 3557   0.314   0.963   0.766  3.4076  1.4287 -2.1000
  155DG     H16 3558   0.233   1.016   0.914  0.4193 -0.7872  0.4017
  155DG     C17 3559   0.645   0.825   0.907 -0.1889 -0.0737 -0.1233
  155DG     C18 3560   0.430   0.934   0.939  0.6084 -0.5392  0.3552
  155DG     O19 3561   0.543   0.908   0.852 -0.1670  0.0444  0.2155
  155DG     H20 3562   0.610   0.741   0.967  0.5714 -0.5826 -0.3787
  155DG     H21 3563   0.693   0.781   0.820  0.7239  1.1148 -0.2522
  155DG     H22 3564   0.471   0.994   1.020  1.8226 -2.2956  1.1248
  155DG     H23 3565   0.385   0.845   0.982 -2.3680  0.2475 -0.9034
  156DG      C1 3566   0.358   1.299   3.691 -0.0897 -0.8229 -0.0513
  156DG      C2 3567   0.895   1.199   3.977 -1.1647  0.4562 -0.0827
  156DG      H3 3568   0.311   1.237   3.768 -0.0675 -0.8679 -0.0741
  156DG      H4 3569   0.416   1.229   3.630 -1.9566 -1.9671 -0.6173
  156DG      H5 3570   0.278   1.349   3.637  1.1383  2.3203  0.8309
  156DG      H6 3571   0.945   1.174   3.883 -0.0742 -1.9319  1.0492
  156DG      H7 3572   0.959   1.208   4.064  0.2010 -0.6326 -0.9232
  156DG      H8 3573   0.838   1.108   3.999 -0.0200 -1.3643 -3.7884
  156DG      O9 3574   0.425   1.381   3.775 -0.4652  0.1299 -0.9755
  156DG     O10 3575   0.813   1.310   3.957  0.4966  0.1936  0.0391
  156DG     C11 3576   0.469   1.502   3.711 -0.9255  0.3294  0.3905
  156DG     C12 3577   0.883   1.427   3.932 -0.3488 -0.5659 -0.2842
  156DG     H13 3578   0.387   1.569   3.686  0.4953  2.4104  1.0222
  156DG     H14 3579   0.515   1.482   3.614  1.5741  1.3143  1.2871
  156DG     H15 3580   0.954   1.415   3.850  0.8970 -0.2611  0.7064
  156DG     H16 3581   0.942   1.461   4.018  1.3326  0.2845 -1.7044
  156DG     C17 3582   0.570   1.568   3.811  0.0397 -0.8442  0.6777
  156DG     C18 3583   0.779   1.534   3.908  0.4472 -0.4224 -0.3318
  156DG     O19 3584   0.676   1.479   3.831 -0.2246 -0.6423 -0.1542
  156DG     H20 3585   0.538   1.570   3.916 -1.3318 -4.3122  0.4485
  156DG     H21 3586   0.598   1.667   3.774  0.4817 -1.1491  0.1845
  156DG     H22 3587   0.729   1.573   3.996  0.1891 -1.0358 -0.1986
  156DG     H23 3588   0.827   1.617   3.857 -0.5299  0.0571 -0.4968
  157DG      C1 3589   3.321   2.671   2.327  0.3791  0.8422 -0.4316
  157DG      C2 3590   3.190   2.401   1.714 -0.2261 -0.4640  0.1370
  157DG      H3 3591   3.293   2.747   2.401 -1.4028 -2.9509  3.1803
  157DG      H4 3592   3.425   2.663   2.295 -0.2003 -1.0779 -2.0441
  157DG      H5 3593   3.296   2.588   2.393  2.1464  0.5949 -0.0190
  157DG      H6 3594   3.139   2.400   1.617  2.3012  0.2306 -1.2920
  157DG      H7 3595   3.259   2.484   1.702 -1.0350  0.1438 -0.4013
  157DG      H8 3596   3.247   2.310   1.734  0.1139 -0.8155 -2.1108
  157DG      O9 3597   3.222   2.683   2.229  0.1129  0.3105 -0.0336
  157DG     O10 3598   3.114   2.432   1.831 -0.2891  0.0784 -0.7815
  157DG     C11 3599   3.092   2.716   2.262  0.0151  0.1986  0.5211
  157DG     C12 3600   3.023   2.537   1.812 -0.5643 -0.0162  1.1588
  157DG     H13 3601   3.108   2.812   2.312  3.0234  1.3479 -2.3047
  157DG     H14 3602   3.057   2.633   2.323  0.6401 -0.5778 -0.1652
  157DG     H15 3603   2.941   2.506   1.747  0.2851  2.0380 -1.0474
  157DG     H16 3604   3.080   2.616   1.764  0.4570 -0.9665  0.7589
  157DG     C17 3605   3.007   2.712   2.140  0.9775  0.7748  0.6704
  157DG     C18 3606   2.957   2.592   1.940  0.0979  0.6383  0.2943
  157DG     O19 3607   3.056   2.619   2.040 -0.3401  0.4196  0.3213
  157DG     H20 3608   3.011   2.809   2.092 -0.4761  1.3346  1.6274
  157DG     H21 3609   2.906   2.679   2.164  1.7776 -2.0664  0.6221
  157DG     H22 3610   2.885   2.671   1.916 -2.1157 -1.0404  1.0012
  157DG     H23 3611   2.885   2.516   1.973 -0.2607 -0.4560 -2.7501
  158DG      C1 3612   3.878   3.286   1.387  0.0137 -0.4021  0.5895
  158DG      C2 3613   4.096   3.229   2.000  0.3556 -0.0425 -0.0936
  158DG      H3 3614   3.790   3.284   1.452 -0.1031  1.9005  0.5828
  158DG      H4 3615   3.862   3.294   1.280  0.2380  2.3992  0.6958
  158DG      H5 3616   3.930   3.377   1.417 -1.3620  0.6145 -0.0163
  158DG      H6 3617   4.018   3.300   2.027  0.7795  0.3815  0.0198
  158DG      H7 3618   4.064   3.127   2.025  2.6208 -0.8945 -0.4360
  158DG      H8 3619   4.173   3.246   2.076 -1.1100  0.0759  1.4479
  158DG      O9 3620   3.963   3.181   1.427 -0.0431  0.8021  0.0723
  158DG     O10 3621   4.129   3.239   1.864  0.1513 -0.3994  0.4775
  158DG     C11 3622   4.092   3.211   1.375  0.0850  0.2706 -0.8156
  158DG     C12 3623   4.242   3.174   1.821  0.3053  0.3991  0.1914
  158DG     H13 3624   4.132   3.310   1.393  1.7373 -0.4005 -0.6408
  158DG     H14 3625   4.075   3.194   1.269 -2.6545  2.4289 -0.8309
  158DG     H15 3626   4.220   3.070   1.845 -1.1076  0.6285 -0.0099
  158DG     H16 3627   4.328   3.194   1.885  2.0894  0.4077 -2.0885
  158DG     C17 3628   4.194   3.125   1.449 -0.0811 -0.0577  0.3707
  158DG     C18 3629   4.264   3.189   1.668 -0.3230  0.3940  0.0265
  158DG     O19 3630   4.162   3.121   1.590 -0.0157  0.0158  0.5353
  158DG     H20 3631   4.295   3.157   1.426  0.5247 -2.5220 -0.7071
  158DG     H21 3632   4.173   3.024   1.413 -0.0042 -0.8325  2.3837
  158DG     H22 3633   4.278   3.291   1.631  0.9271 -0.0674 -0.8199
  158DG     H23 3634   4.357   3.141   1.640 -1.4103 -2.4100  0.9601
  159DG      C1 3635   2.310   4.605   1.489  0.1288 -0.0347  0.5607
  159DG      C2 3636   2.738   4.683   0.967 -0.3821  0.6915  0.4864
  159DG      H3 3637   2.337   4.502   1.510 -0.5869  0.0289  1.9538
  159DG      H4 3638   2.229   4.614   1.418  0.8015  0.2835 -0.1814
  159DG      H5 3639   2.279   4.649   1.584 -0.1386  2.3469 -0.5427
  159DG      H6 3640   2.766   4.760   0.895 -1.5970  0.2180 -0.5309
  159DG      H7 3641   2.815   4.606   0.972  0.1559  1.2061  0.2183
  159DG      H8 3642   2.656   4.631   0.919  0.3855  1.0522 -1.2891
  159DG      O9 3643   2.428   4.671   1.440 -0.9638 -0.3704 -0.0727
  159DG     O10 3644   2.696   4.735   1.084 -0.4490  0.9117 -0.2764
  159DG     C11 3645   2.534   4.672   1.536  0.4616 -0.8085 -0.2006
  159DG     C12 3646   2.810   4.787   1.152 -0.5288 -0.0230  0.4841
  159DG     H13 3647   2.554   4.566   1.555  3.8043  0.0702  2.0710
  159DG     H14 3648   2.514   4.719   1.632  2.0329  1.7664 -1.0463
  159DG     H15 3649   2.848   4.880   1.110 -1.4466  0.8434  1.4966
  159DG     H16 3650   2.898   4.723   1.151 -0.0306  0.6610  0.2650
  159DG     C17 3651   2.648   4.751   1.487  0.6560  0.4995 -0.5935
  159DG     C18 3652   2.776   4.809   1.300  0.1539 -0.2570 -0.5871
  159DG     O19 3653   2.686   4.717   1.358 -0.6662 -0.1851  0.4051
  159DG     H20 3654   2.732   4.752   1.557  1.4396 -0.7790 -1.4650
  159DG     H21 3655   2.621   4.857   1.491 -2.3811 -0.1999  0.4040
  159DG     H22 3656   2.865   4.817   1.362 -0.5616 -0.5532  0.5127
  159DG     H23 3657   2.718   4.901   1.313  0.5331  0.0884 -1.2957
  160DG      C1 3658   3.421   2.636   3.285  0.4086 -0.5097  0.2081
  160DG      C2 3659   3.843   2.872   2.848  0.1732  0.3248  0.4458
  160DG      H3 3660   3.470   2.539   3.283  0.1348 -0.8602  3.7424
  160DG      H4 3661   3.328   2.606   3.333 -0.8679 -0.0148 -1.8361
  160DG      H5 3662   3.472   2.711   3.346 -0.1465 -0.7209  0.9383
  160DG      H6 3663   3.855   2.961   2.909 -1.7480  1.1907 -0.3581
  160DG      H7 3664   3.879   2.780   2.895 -1.0630  0.0110  0.8272
  160DG      H8 3665   3.892   2.878   2.750  0.4328  2.0836  0.6510
  160DG      O9 3666   3.409   2.687   3.151  0.1160  0.4352  0.5617
  160DG     O10 3667   3.699   2.866   2.833  0.2500  0.1940 -0.4458
  160DG     C11 3668   3.347   2.606   3.054  0.6685 -0.3210 -0.4529
  160DG     C12 3669   3.648   2.781   2.735 -0.5148  0.1117 -0.5542
  160DG     H13 3670   3.250   2.570   3.089  0.2975  0.9256 -0.1468
  160DG     H14 3671   3.403   2.512   3.051 -0.2987 -0.9681  0.8028
  160DG     H15 3672   3.688   2.682   2.754  1.4713  1.0565  0.5288
  160DG     H16 3673   3.670   2.816   2.634  0.1223  0.8203 -0.1833
  160DG     C17 3674   3.356   2.680   2.921  0.5946 -0.1168 -0.6604
  160DG     C18 3675   3.497   2.771   2.756  0.2130 -0.7964 -0.1884
  160DG     O19 3676   3.489   2.717   2.882 -0.1948  0.1609 -0.1914
  160DG     H20 3677   3.295   2.770   2.928  2.7338  1.3322  0.5789
  160DG     H21 3678   3.308   2.616   2.846  0.7026  0.0854 -0.9045
  160DG     H22 3679   3.451   2.870   2.767 -0.4628 -1.2563  1.3651
  160DG     H23 3680   3.446   2.717   2.676  0.1611 -1.3941  0.2423
  161DG      C1 3681   0.932   4.643   4.574  0.3141  0.2984  0.2001
  161DG      C2 3682   1.290   4.407   5.129 -0.0996  0.7664 -0.1859
  161DG      H3 3683   0.991   4.563   4.531 -0.6033  0.0066 -0.5487
  161DG      H4 3684   1.006   4.723   4.562  1.9403 -1.2294 -0.2654
  161DG      H5 3685   0.843   4.660   4.514 -0.8730 -3.7535  0.5242
  161DG      H6 3686   1.292   4.395   5.237 -2.0750 -0.2375 -0.2302
  161DG      H7 3687   1.325   4.317   5.079 -0.6171  1.5360 -2.0278
  161DG      H8 3688   1.365   4.480   5.097  0.0314  0.5462 -0.3823
  161DG      O9 3689   0.906   4.605   4.709 -0.0734  0.1107 -0.1246
  161DG     O10 3690   1.161   4.447   5.100  0.4407 -0.4059  0.2085
  161DG     C11 3691   0.864   4.718   4.778 -0.6178  0.1143 -0.7478
  161DG     C12 3692   1.114   4.560   5.167  0.4522 -0.1163  0.3350
  161DG     H13 3693   0.773   4.763   4.738 -0.6193  4.1465  3.0067
  161DG     H14 3694   0.928   4.802   4.752 -0.1329 -0.5159 -1.6522
  161DG     H15 3695   1.184   4.643   5.163 -0.3607  0.6991  2.1019
  161DG     H16 3696   1.102   4.537   5.273 -2.1490 -2.5445 -0.3417
  161DG     C17 3697   0.851   4.700   4.938  0.2399  0.2652 -0.1182
  161DG     C18 3698   0.969   4.600   5.113 -0.4346 -0.6972 -0.8234
  161DG     O19 3699   0.977   4.654   4.985 -0.4208  0.0189  0.1526
  161DG     H20 3700   0.782   4.620   4.963  1.3735 -0.9004 -0.6055
  161DG     H21 3701   0.826   4.791   4.992 -0.5001 -0.4426  0.7538
  161DG     H22 3702   0.911   4.508   5.109 -2.2801  0.4135 -0.6504
  161DG     H23 3703   0.932   4.668   5.191 -0.1161  1.0706 -2.1457
  162DG      C1 3704   4.229   3.969   3.302  0.3099  0.3416 -0.8269
  162DG      C2 3705   4.769   4.409   3.308 -0.3491  0.0300 -0.7126
  162DG      H3 3706   4.188   3.997   3.399  0.9802  2.0143 -0.9863
  162DG      H4 3707   4.190   3.872   3.272  0.0439 -0.2181  1.1878
  162DG      H5 3708   4.198   4.044   3.229 -1.1914 -0.8931 -1.4890
  162DG      H6 3709   4.859   4.448   3.259  1.1508 -1.1084  1.0068
  162DG      H7 3710   4.689   4.483   3.304  0.1263  0.7042  1.2317
  162DG      H8 3711   4.796   4.406   3.413  0.0083  1.3881 -0.7441
  162DG      O9 3712   4.368   3.956   3.298 -0.1669 -0.2202 -0.0465
  162DG     O10 3713   4.731   4.284   3.253  0.5468 -0.0900 -0.0649
  162DG     C11 3714   4.420   3.919   3.173 -0.5798 -0.1778 -0.1143
  162DG     C12 3715   4.819   4.190   3.278  0.1261 -0.4053  0.0435
  162DG     H13 3716   4.383   3.976   3.088  1.1751  0.2573 -0.6119
  162DG     H14 3717   4.393   3.816   3.146  1.3436 -0.0636 -2.8578
  162DG     H15 3718   4.834   4.182   3.386  2.4085  0.4969 -0.1401
  162DG     H16 3719   4.918   4.220   3.244 -0.4951  1.2411 -0.4227
  162DG     C17 3720   4.579   3.919   3.176 -0.4054 -0.1963 -0.0920
  162DG     C18 3721   4.776   4.060   3.211  0.1686  0.0348 -0.0631
  162DG     O19 3722   4.631   4.050   3.203 -0.2495 -0.4686  0.4969
  162DG     H20 3723   4.605   3.904   3.071  0.0797 -1.2649  0.1641
  162DG     H21 3724   4.626   3.843   3.239 -1.4322 -0.2149  0.6832
  162DG     H22 3725   4.823   4.046   3.113 -0.4319  0.1711 -0.3779
  162DG     H23 3726   4.810   3.980   3.276  1.5648 -0.3146 -1.1622
  163DG      C1 3727   0.089   3.041   5.376 -0.7325 -0.1216 -0.8125
  163DG      C2 3728   0.596   2.772   5.171  0.0718  0.5899  0.1277
  163DG      H3 3729   0.151   3.101   5.443 -0.5192  0.2134 -1.3054
  163DG      H4 3730   0.073   2.940   5.416  1.1479  0.0850  0.6118
  163DG      H5 3731  -0.001   3.102   5.375 -3.3423 -3.6363 -0.9750
  163DG      H6 3732   0.607   2.814   5.071 -0.0802  0.3375  0.0037
  163DG      H7 3733   0.648   2.842   5.237  0.7044  1.1212 -0.8972
  163DG      H8 3734   0.645   2.675   5.170  0.9296  1.0197 -1.0501
  163DG      O9 3735   0.147   3.054   5.247  0.0413 -0.1364 -0.1418
  163DG     O10 3736   0.457   2.768   5.193 -0.2916 -0.2388 -0.3134
  163DG     C11 3737   0.057   3.002   5.141  0.2297  1.2484  1.1018
  163DG     C12 3738   0.385   2.670   5.123  0.0463 -0.3752 -0.6177
  163DG     H13 3739   0.080   3.048   5.045 -2.7818  0.5679 -0.0325
  163DG     H14 3740  -0.050   3.015   5.150 -0.2097 -1.2409  0.1654
  163DG     H15 3741   0.418   2.571   5.153 -0.4085 -0.4549 -0.3687
  163DG     H16 3742   0.417   2.674   5.019  1.1037  1.1392 -0.2725
  163DG     C17 3743   0.068   2.852   5.139 -0.4531 -1.4476  0.3346
  163DG     C18 3744   0.234   2.687   5.137  0.1229  0.0973  0.0895
  163DG     O19 3745   0.210   2.826   5.129 -0.9362  0.1833 -0.6912
  163DG     H20 3746   0.030   2.798   5.051  1.4667  0.0646 -1.5322
  163DG     H21 3747   0.006   2.804   5.215  0.0473  0.7053  2.1937
  163DG     H22 3748   0.182   2.637   5.055 -2.8868 -0.4363  2.1773
  163DG     H23 3749   0.191   2.654   5.231 -0.4093 -0.8481 -0.4698
  164DG      C1 3750   1.423   0.378   3.696  0.2374 -0.4092  0.5043
  164DG      C2 3751   0.799   0.647   3.736 -0.5690  0.4664 -0.5529
  164DG      H3 3752   1.433   0.483   3.724  0.4684  0.2148 -1.7493
  164DG      H4 3753   1.410   0.394   3.589 -0.9824  0.5243  0.7763
  164DG      H5 3754   1.517   0.324   3.712  2.1621  1.4396 -3.2135
  164DG      H6 3755   0.697   0.616   3.761  0.1200 -1.1982  0.3013
  164DG      H7 3756   0.833   0.740   3.781  1.2483 -0.0796 -0.7167
  164DG      H8 3757   0.789   0.673   3.631  0.4295  2.8970 -0.1090
  164DG      O9 3758   1.308   0.313   3.747 -0.3634 -0.4093  0.1890
  164DG     O10 3759   0.889   0.536   3.759 -0.1542 -0.6532  0.9709
  164DG     C11 3760   1.308   0.287   3.887  0.1135 -0.4055 -0.3515
  164DG     C12 3761   0.888   0.496   3.895  0.7202 -0.1968  0.3897
  164DG     H13 3762   1.350   0.375   3.937 -2.0708 -0.4290  1.6885
  164DG     H14 3763   1.382   0.212   3.914 -1.5707 -1.9240  0.2004
  164DG     H15 3764   0.783   0.493   3.926  0.0417 -1.4632 -1.8332
  164DG     H16 3765   0.940   0.569   3.957  2.2658  0.6338 -1.7669
  164DG     C17 3766   1.173   0.268   3.955  0.7161 -0.5038  0.8644
  164DG     C18 3767   0.948   0.360   3.922 -0.3193  0.2536  0.0419
  164DG     O19 3768   1.088   0.381   3.907 -0.2482  0.2404 -0.1613
  164DG     H20 3769   1.174   0.271   4.063  0.4642 -0.1992  0.8603
  164DG     H21 3770   1.117   0.179   3.925 -0.7740  0.2608  1.2735
  164DG     H22 3771   0.936   0.346   4.029 -1.9136 -0.7108 -0.2297
  164DG     H23 3772   0.910   0.277   3.863  3.0443 -0.6995 -0.9768
  165DG      C1 3773   4.790   0.418   2.686  0.3645  0.6175 -0.5438
  165DG      C2 3774   4.536   0.914   2.762  0.0952  0.0088  0.1923
  165DG      H3 3775   4.745   0.506   2.732  0.4284 -0.3139  1.3988
  165DG      H4 3776   4.883   0.450   2.639  0.9577  0.5818  0.5597
  165DG      H5 3777   4.817   0.334   2.750 -1.9290  0.9071  0.9467
  165DG      H6 3778   4.622   0.969   2.725  0.5074  1.0847  2.5544
  165DG      H7 3779   4.454   0.986   2.758 -0.4403 -0.5129  1.3009
  165DG      H8 3780   4.562   0.912   2.868  0.4113 -1.0554  0.1115
  165DG      O9 3781   4.701   0.356   2.588 -0.1227  0.0776  0.7993
  165DG     O10 3782   4.519   0.779   2.716 -0.3473 -0.0924  0.4791
  165DG     C11 3783   4.580   0.298   2.627  0.0004  0.5895 -0.5839
  165DG     C12 3784   4.419   0.708   2.784 -0.6940  0.5242 -0.7262
  165DG     H13 3785   4.580   0.259   2.728 -1.1738  0.3585 -0.6617
  165DG     H14 3786   4.558   0.222   2.552 -1.2797 -0.3779  0.7260
  165DG     H15 3787   4.340   0.779   2.807  0.3470  1.5377 -0.1496
  165DG     H16 3788   4.459   0.672   2.879 -1.7899  0.1007 -0.4101
  165DG     C17 3789   4.458   0.388   2.605 -0.4600  0.7982  0.5597
  165DG     C18 3790   4.376   0.593   2.691  0.7284  0.7597 -0.7756
  165DG     O19 3791   4.488   0.514   2.669  0.6716 -0.4295  0.6260
  165DG     H20 3792   4.365   0.341   2.637 -0.8006  1.1724  0.1242
  165DG     H21 3793   4.433   0.400   2.500 -2.2786  0.9377  0.9775
  165DG     H22 3794   4.291   0.543   2.738 -0.5648  0.8214 -2.8945
  165DG     H23 3795   4.314   0.633   2.610  1.2909  1.3750 -0.9076
  166DG      C1 3796   5.154   1.459   0.383 -0.0147 -0.7401  0.2833
  166DG      C2 3797   4.857   0.976   0.753 -0.4170  0.0414 -1.1185
  166DG      H3 3798   5.213   1.540   0.427  0.0417 -0.1409 -0.8652
  166DG      H4 3799   5.051   1.487   0.404  0.1895 -0.6898  1.3048
  166DG      H5 3800   5.158   1.464   0.275  1.0742 -0.0956  0.3312
  166DG      H6 3801   4.774   1.034   0.715 -0.0230  1.5904  0.2669
  166DG      H7 3802   4.834   0.869   0.752 -2.7293  0.3626  2.1801
  166DG      H8 3803   4.879   1.011   0.854  0.1779 -0.1377 -1.1812
  166DG      O9 3804   5.188   1.329   0.424  0.1957 -0.4429  0.8306
  166DG     O10 3805   4.967   1.008   0.663  0.0684 -0.0413 -0.3909
  166DG     C11 3806   5.320   1.310   0.470  0.0089 -0.1167  0.2316
  166DG     C12 3807   5.099   0.972   0.721  0.3161  0.4778 -0.2554
  166DG     H13 3808   5.353   1.395   0.529  0.3657 -0.0927  0.0008
  166DG     H14 3809   5.372   1.307   0.374 -2.5995  0.1748 -1.3183
  166DG     H15 3810   5.103   0.867   0.749 -0.9902  0.9747  1.9992
  166DG     H16 3811   5.094   1.024   0.816 -2.0792 -2.4574  1.3978
  166DG     C17 3812   5.341   1.178   0.538 -0.2803 -0.1940 -0.3363
  166DG     C18 3813   5.228   1.002   0.645 -0.9393  0.3146  0.2636
  166DG     O19 3814   5.227   1.142   0.616  0.1513 -0.3573  0.1853
  166DG     H20 3815   5.427   1.178   0.604 -1.2618 -2.1414  1.0510
  166DG     H21 3816   5.364   1.107   0.459 -0.9840 -1.0181  0.1847
  166DG     H22 3817   5.318   0.973   0.698  0.8199  1.5406 -1.8938
  166DG     H23 3818   5.221   0.947   0.551  0.2706 -2.6253  1.7677
  167DG      C1 3819   4.415   0.317   0.403  0.8344  0.5121  0.2253
  167DG      C2 3820   4.497   0.960   0.352 -0.1859 -0.6777  0.0757
  167DG      H3 3821   4.433   0.331   0.296  0.8092 -0.0959  0.1384
  167DG      H4 3822   4.333   0.245   0.398  1.1292  0.2506 -1.5331
  167DG      H5 3823   4.502   0.271   0.450 -0.8668 -0.8743  2.2427
  167DG      H6 3824   4.427   0.955   0.269 -0.4368  2.0187  0.0345
  167DG      H7 3825   4.491   1.064   0.385  0.5843 -1.1415  1.8386
  167DG      H8 3826   4.596   0.946   0.308  0.7151 -0.3243  1.8648
  167DG      O9 3827   4.386   0.437   0.462 -0.2929 -0.6710 -0.5064
  167DG     O10 3828   4.460   0.876   0.460 -0.3566 -0.4311 -0.1493
  167DG     C11 3829   4.366   0.436   0.603 -0.3499 -0.6849 -0.7252
  167DG     C12 3830   4.550   0.894   0.566 -0.0023 -1.0296  0.2801
  167DG     H13 3831   4.446   0.381   0.653  0.1200 -0.6781 -1.4573
  167DG     H14 3832   4.276   0.379   0.628 -1.2165  1.1808  0.7245
  167DG     H15 3833   4.538   0.990   0.616  0.9459 -1.3597  1.1746
  167DG     H16 3834   4.650   0.857   0.545 -0.8018 -1.5099 -3.4693
  167DG     C17 3835   4.367   0.584   0.659 -0.2718 -0.0820  0.4776
  167DG     C18 3836   4.483   0.788   0.651 -0.1481 -0.4621 -0.0757
  167DG     O19 3837   4.467   0.664   0.590 -0.3130 -0.3920 -0.1325
  167DG     H20 3838   4.392   0.574   0.764  2.8281 -0.1106 -0.1620
  167DG     H21 3839   4.267   0.626   0.646 -0.1927  0.7411  2.2129
  167DG     H22 3840   4.544   0.768   0.739 -1.4234 -0.1344  0.9042
  167DG     H23 3841   4.388   0.833   0.679  2.1522  3.4239  2.4899
  168DG      C1 3842   2.668   1.694   1.862 -0.0723  0.1251 -0.3145
  168DG      C2 3843   2.852   1.261   2.007  0.3943 -0.0911 -0.2955
  168DG      H3 3844   2.750   1.704   1.791  0.8166 -1.1146  0.4959
  168DG      H4 3845   2.712   1.687   1.961 -0.8218 -2.3095 -0.0732
  168DG      H5 3846   2.605   1.783   1.852  1.3370  1.6239  2.9168
  168DG      H6 3847   2.959   1.270   1.990  0.4268 -1.5637 -1.0568
  168DG      H7 3848   2.804   1.337   2.069  0.5000 -0.3367  0.0957
  168DG      H8 3849   2.843   1.173   2.071  1.8550 -1.3632 -1.7482
  168DG      O9 3850   2.591   1.578   1.832  0.0782  0.4827 -0.1126
  168DG     O10 3851   2.778   1.240   1.886 -0.3731  0.4353  0.2533
  168DG     C11 3852   2.511   1.539   1.939  0.7688  0.0592  0.2051
  168DG     C12 3853   2.665   1.151   1.909 -0.6200  0.0596 -0.6336
  168DG     H13 3854   2.453   1.625   1.972 -0.2430 -1.0357  1.3851
  168DG     H14 3855   2.566   1.501   2.025  0.9296 -2.3129 -0.8472
  168DG     H15 3856   2.682   1.073   1.982 -1.6742 -0.9053 -1.3813
  168DG     H16 3857   2.640   1.103   1.814 -0.7140  0.6466 -0.9134
  168DG     C17 3858   2.415   1.431   1.885 -0.5288  0.7286 -0.0456
  168DG     C18 3859   2.553   1.242   1.959  0.1150  0.3806  0.4527
  168DG     O19 3860   2.494   1.312   1.848 -0.6006 -0.0334  0.3892
  168DG     H20 3861   2.351   1.465   1.803 -2.1282  1.7493  1.5571
  168DG     H21 3862   2.341   1.398   1.958 -0.2761 -0.4006 -0.2751
  168DG     H22 3863   2.467   1.189   2.000 -0.7800 -0.6301 -2.4780
  168DG     H23 3864   2.587   1.307   2.040 -1.8065  0.2069  1.4591
  169DG      C1 3865   5.290   0.843   2.483 -0.7362 -0.0390 -0.3742
  169DG      C2 3866   5.838   0.567   2.567 -0.0380 -0.3245 -0.2254
  169DG      H3 3867   5.279   0.745   2.528 -1.4644 -0.2702 -1.0399
  169DG      H4 3868   5.305   0.838   2.375  1.4341 -0.7813 -0.1048
  169DG      H5 3869   5.214   0.907   2.527  1.9395  0.8984  3.3600
  169DG      H6 3870   5.935   0.547   2.614  0.7670  0.1529 -1.6344
  169DG      H7 3871   5.769   0.498   2.616 -0.4723  1.5661  2.0167
  169DG      H8 3872   5.847   0.542   2.462  0.2342 -1.3017  0.0194
  169DG      O9 3873   5.422   0.895   2.535  0.3188 -0.1943  0.5067
  169DG     O10 3874   5.788   0.698   2.584 -0.2957 -0.5867  0.4210
  169DG     C11 3875   5.463   1.020   2.478 -0.3197 -1.0155  0.2424
  169DG     C12 3876   5.878   0.810   2.552  0.1502  0.5776  0.1652
  169DG     H13 3877   5.389   1.097   2.500 -0.4595 -1.0097 -0.2491
  169DG     H14 3878   5.480   0.999   2.373 -0.6105 -1.8434  0.3561
  169DG     H15 3879   5.914   0.794   2.450 -0.7983  2.3239 -0.4899
  169DG     H16 3880   5.971   0.792   2.605  0.4414  1.5355  0.0098
  169DG     C17 3881   5.594   1.051   2.558  0.0015 -0.0838 -0.5627
  169DG     C18 3882   5.807   0.945   2.587  0.3582  0.5928  0.6893
  169DG     O19 3883   5.684   0.943   2.527  0.1748  0.4849  0.4242
  169DG     H20 3884   5.584   1.056   2.666  1.4684  1.7676 -0.4619
  169DG     H21 3885   5.623   1.152   2.530 -0.7323  0.4728  0.6035
  169DG     H22 3886   5.804   0.948   2.696 -0.8518  0.1312  0.6858
  169DG     H23 3887   5.861   1.029   2.544 -1.4295  0.8318 -1.2487
  170DG      C1 3888   5.337   5.077   2.339  0.3565 -0.6308 -0.0289
  170DG      C2 3889   5.369   5.197   1.815 -0.0192  0.0074 -0.4431
  170DG      H3 3890   5.348   5.113   2.236 -1.6842  1.3583  0.3643
  170DG      H4 3891   5.431   5.043   2.383  0.2959  0.3651  0.9196
  170DG      H5 3892   5.305   5.165   2.394  0.5476  0.6229 -1.8105
  170DG      H6 3893   5.274   5.194   1.869  0.1066 -3.3138 -0.2334
  170DG      H7 3894   5.421   5.285   1.853 -0.1326 -1.0810  2.5307
  170DG      H8 3895   5.347   5.212   1.709  1.8812 -1.2201 -1.0549
  170DG      O9 3896   5.233   4.977   2.342 -0.1856  0.2860  0.1840
  170DG     O10 3897   5.441   5.079   1.843  0.2096 -0.2471 -0.2051
  170DG     C11 3898   5.262   4.852   2.266  0.2270 -1.0032 -0.3300
  170DG     C12 3899   5.375   4.961   1.814 -0.1182 -0.9173 -0.0609
  170DG     H13 3900   5.216   4.760   2.303 -0.2319 -1.7768 -2.6632
  170DG     H14 3901   5.369   4.832   2.280  0.2966 -0.6227 -0.3016
  170DG     H15 3902   5.454   4.886   1.808  0.0807 -0.7896  0.9440
  170DG     H16 3903   5.335   4.982   1.715  1.0125 -2.1417 -0.8207
  170DG     C17 3904   5.219   4.857   2.120  0.8094  0.0997 -0.0344
  170DG     C18 3905   5.267   4.916   1.906  0.1635  0.5142  0.3234
  170DG     O19 3906   5.319   4.913   2.041  0.4433 -0.0637  0.1945
  170DG     H20 3907   5.121   4.906   2.113  1.2974  0.9193 -1.4387
  170DG     H21 3908   5.196   4.753   2.094  0.6088 -0.5688  2.5200
  170DG     H22 3909   5.173   4.970   1.896 -1.7920 -2.4047  1.4101
  170DG     H23 3910   5.247   4.815   1.869  1.0469  0.8381 -1.1191
  171DG      C1 3911   1.120   3.956   3.356 -0.3860 -0.2547 -0.0851
  171DG      C2 3912   0.742   3.491   3.664 -0.5299 -0.1569  0.0867
  171DG      H3 3913   1.164   3.954   3.455  1.1937 -0.9580 -0.7718
  171DG      H4 3914   1.148   4.043   3.296  0.1852 -0.2268  0.2157
  171DG      H5 3915   1.168   3.866   3.319  0.1726 -1.0577  2.4345
  171DG      H6 3916   0.841   3.490   3.710 -0.9086  0.7158  0.9448
  171DG      H7 3917   0.668   3.466   3.739  0.7403  0.6231  1.6599
  171DG      H8 3918   0.745   3.407   3.594 -2.8503 -0.1759 -0.0495
  171DG      O9 3919   0.974   3.942   3.358 -0.1061  0.1997  0.2439
  171DG     O10 3920   0.721   3.615   3.603  0.5322 -0.4843  0.3895
  171DG     C11 3921   0.905   3.907   3.237  0.6862  0.4627 -0.0190
  171DG     C12 3922   0.612   3.625   3.508 -0.1983  0.2263  0.1226
  171DG     H13 3923   0.949   3.813   3.204 -1.5561 -0.5935 -0.1552
  171DG     H14 3924   0.921   3.988   3.165  0.3671  0.5811  0.0395
  171DG     H15 3925   0.512   3.620   3.553  0.3917  2.4350  1.8876
  171DG     H16 3926   0.617   3.545   3.435 -3.0612 -0.1507  0.1919
  171DG     C17 3927   0.759   3.885   3.278 -0.8971 -0.2298  0.0672
  171DG     C18 3928   0.621   3.765   3.428  0.2124  0.0516 -0.2886
  171DG     O19 3929   0.757   3.793   3.384  0.1188 -0.8925 -0.3260
  171DG     H20 3930   0.709   3.840   3.192  0.1746 -1.0119 -0.1705
  171DG     H21 3931   0.705   3.978   3.293 -3.3757 -1.1532 -2.2044
  171DG     H22 3932   0.568   3.742   3.336  2.3501 -0.1780 -1.5357
  171DG     H23 3933   0.573   3.847   3.480 -1.5326 -0.3888 -1.1523
  172DG      C1 3934   4.838   4.202   1.575 -0.3044 -0.0433 -0.4840
  172DG      C2 3935   5.249   3.886   1.985 -0.4897 -0.5642 -0.5962
  172DG      H3 3936   4.789   4.233   1.667  0.4212  4.6286 -1.4335
  172DG      H4 3937   4.769   4.134   1.523 -1.9739 -0.0960  1.6485
  172DG      H5 3938   4.848   4.298   1.525  1.1914 -0.0845 -0.2832
  172DG      H6 3939   5.210   3.785   1.998  0.5402 -0.9111 -0.0301
  172DG      H7 3940   5.350   3.882   2.027  0.0550 -0.9857 -1.8806
  172DG      H8 3941   5.190   3.949   2.051  0.8991  0.5801 -0.4029
  172DG      O9 3942   4.966   4.142   1.588  0.3163  0.5952  0.8143
  172DG     O10 3943   5.233   3.940   1.854 -0.2330 -0.4381  0.0030
  172DG     C11 3944   5.008   4.067   1.469 -0.0631  0.2897 -0.0266
  172DG     C12 3945   5.309   3.867   1.759  0.3941 -0.2125 -0.8009
  172DG     H13 3946   4.979   4.119   1.378  0.4735  1.3659  0.3990
  172DG     H14 3947   4.953   3.973   1.471 -0.0990  0.0420 -3.8733
  172DG     H15 3948   5.274   3.764   1.746 -0.4388 -0.0515  0.0453
  172DG     H16 3949   5.407   3.865   1.807 -0.2534  0.9712  0.6404
  172DG     C17 3950   5.165   4.051   1.472  0.8230  0.0379 -0.1665
  172DG     C18 3951   5.318   3.949   1.628 -0.0094  0.0797  0.0959
  172DG     O19 3952   5.187   3.973   1.595  0.0968  0.1419  0.7440
  172DG     H20 3953   5.218   4.146   1.470  1.5420 -0.3167  1.3027
  172DG     H21 3954   5.201   3.987   1.391 -1.6417  1.0902 -2.2337
  172DG     H22 3955   5.369   4.045   1.642  1.5332 -0.6276 -0.4011
  172DG     H23 3956   5.369   3.904   1.543 -2.8070 -1.0858 -1.0849
  173DG      C1 3957   5.261   3.972   3.926 -0.1557  0.3299  0.1975
  173DG      C2 3958   5.076   3.544   4.496 -0.9404  0.2670  0.0249
  173DG      H3 3959   5.237   3.926   3.831 -2.7028 -1.2491  1.4983
  173DG      H4 3960   5.328   4.056   3.907  0.9546 -0.3226  1.0762
  173DG      H5 3961   5.171   4.009   3.977 -1.2579  0.9155 -2.0530
  173DG      H6 3962   5.062   3.651   4.507  1.1239  0.6793 -0.9261
  173DG      H7 3963   4.993   3.481   4.529  1.5580 -3.2807  0.1918
  173DG      H8 3964   5.156   3.511   4.563  0.6402  2.9421 -0.3792
  173DG      O9 3965   5.318   3.884   4.024  0.1820  0.7191 -0.2204
  173DG     O10 3966   5.099   3.523   4.358  0.2565  0.4437  0.0565
  173DG     C11 3967   5.347   3.946   4.146  0.1328  1.0777  0.2887
  173DG     C12 3968   5.238   3.557   4.332  0.2492 -0.9058 -0.0638
  173DG     H13 3969   5.355   4.054   4.129  1.7110  0.7139 -1.6109
  173DG     H14 3970   5.441   3.906   4.182 -0.2591  0.8425  1.0966
  173DG     H15 3971   5.252   3.542   4.225  2.3567 -0.5633  0.1106
  173DG     H16 3972   5.311   3.492   4.380 -2.2843 -3.0443  1.1116
  173DG     C17 3973   5.235   3.922   4.254 -0.7325  0.8463  0.0040
  173DG     C18 3974   5.284   3.706   4.363 -0.1437  0.0604  0.3386
  173DG     O19 3975   5.204   3.785   4.274  0.0116 -0.1163 -0.1555
  173DG     H20 3976   5.147   3.970   4.210 -0.7560  0.3416 -0.5004
  173DG     H21 3977   5.257   3.966   4.352  0.8892  0.2223 -0.0515
  173DG     H22 3978   5.273   3.739   4.466 -1.6340 -1.4762  0.7190
  173DG     H23 3979   5.388   3.723   4.337 -0.5121 -0.7305 -1.9016
  174DG      C1 3980   2.162   0.392   2.730 -0.7979  0.0118  0.3396
  174DG      C2 3981   2.237   1.082   2.677 -0.5504 -0.1740  0.5694
  174DG      H3 3982   2.107   0.411   2.639 -0.4211 -0.1100  0.0836
  174DG      H4 3983   2.088   0.355   2.801  0.1397 -2.3568  0.1815
  174DG      H5 3984   2.235   0.316   2.702 -0.6528  0.8772 -1.7456
  174DG      H6 3985   2.291   1.111   2.587  0.1329 -1.6734  0.4705
  174DG      H7 3986   2.129   1.089   2.662 -0.5967  0.5578  1.1694
  174DG      H8 3987   2.256   1.163   2.748 -0.8894 -0.2454  0.7447
  174DG      O9 3988   2.232   0.505   2.781 -0.1244 -0.3030 -0.5736
  174DG     O10 3989   2.285   0.965   2.742 -0.3579  0.3811  0.0784
  174DG     C11 3990   2.370   0.490   2.794 -0.2437 -0.3969 -0.6212
  174DG     C12 3991   2.433   0.971   2.753  0.0039  0.8838  0.1554
  174DG     H13 3992   2.430   0.474   2.705 -0.1236 -1.9558 -0.2949
  174DG     H14 3993   2.403   0.408   2.859  1.0075 -1.5598 -2.6262
  174DG     H15 3994   2.472   1.062   2.799 -0.0399  1.2597 -0.5378
  174DG     H16 3995   2.467   0.975   2.649 -2.6975  1.2141 -0.7919
  174DG     C17 3996   2.436   0.613   2.871  0.1601 -0.2013  0.2393
  174DG     C18 3997   2.483   0.842   2.825  0.4372  0.0365  0.4183
  174DG     O19 3998   2.396   0.729   2.801  0.4631  0.3418 -0.2690
  174DG     H20 3999   2.544   0.604   2.884  0.6826  3.8731 -0.1461
  174DG     H21 4000   2.387   0.606   2.968 -3.0241  0.6081 -1.1960
  174DG     H22 4001   2.584   0.816   2.796  0.3201  1.2908 -1.2352
  174DG     H23 4002   2.483   0.849   2.934 -3.4184 -3.3321  0.8811
  175DG      C1 4003   3.186   3.383   2.586 -0.5649  0.4209  0.5894
  175DG      C2 4004   2.465   3.389   2.526 -0.5248  1.0463  0.4669
  175DG      H3 4005   3.276   3.416   2.638 -1.9652  0.2947  3.2723
  175DG      H4 4006   3.201   3.396   2.479  1.1704 -0.8460  0.6412
  175DG      H5 4007   3.164   3.278   2.601 -0.1890  0.4574  1.4196
  175DG      H6 4008   2.465   3.285   2.491 -0.9951  1.5497 -1.1095
  175DG      H7 4009   2.376   3.393   2.589 -1.3003  0.4258 -0.5412
  175DG      H8 4010   2.472   3.460   2.444  2.1454 -1.3173 -1.5587
  175DG      O9 4011   3.074   3.453   2.633  0.1532  0.4680 -0.2668
  175DG     O10 4012   2.577   3.408   2.610 -0.3057  0.6811 -0.1101
  175DG     C11 4013   3.021   3.407   2.756  0.6863 -0.4026  0.1833
  175DG     C12 4014   2.566   3.517   2.697  0.0502  0.0010 -0.2408
  175DG     H13 4015   3.102   3.407   2.829  2.5399  1.0775 -1.7795
  175DG     H14 4016   2.986   3.306   2.736  0.6954  0.1760 -3.3241
  175DG     H15 4017   2.476   3.518   2.759 -0.1160 -2.2272 -0.3361
  175DG     H16 4018   2.563   3.611   2.643  0.5517 -0.0791 -0.4037
  175DG     C17 4019   2.909   3.499   2.818 -0.3980 -0.4117 -0.2138
  175DG     C18 4020   2.668   3.514   2.809 -0.0763  0.0616 -0.4090
  175DG     O19 4021   2.788   3.471   2.745  0.3877 -0.7738 -0.0208
  175DG     H20 4022   2.933   3.605   2.813  0.3261 -0.5712 -0.3502
  175DG     H21 4023   2.913   3.467   2.923  1.5487 -2.0467 -0.7046
  175DG     H22 4024   2.676   3.603   2.872  1.1984 -0.9144  0.8736
  175DG     H23 4025   2.643   3.439   2.883 -0.5405  1.1309  0.5590
  176DG      C1 4026   5.409   3.513   0.744  0.0573  0.6000 -0.1707
  176DG      C2 4027   5.975   3.349   1.102 -0.1924  0.0036  0.2113
  176DG      H3 4028   5.445   3.613   0.720  0.4721  0.3987 -0.3919
  176DG      H4 4029   5.356   3.529   0.838 -1.9339 -0.0417 -1.1226
  176DG      H5 4030   5.334   3.492   0.668  0.9879  0.8128 -1.1761
  176DG      H6 4031   6.049   3.343   1.023  0.3833 -1.0521  0.8116
  176DG      H7 4032   5.977   3.456   1.124 -0.0525 -0.1184  0.8025
  176DG      H8 4033   6.016   3.292   1.185 -2.3584 -1.9943  0.0286
  176DG      O9 4034   5.519   3.426   0.751  0.3207  0.1608 -0.2342
  176DG     O10 4035   5.857   3.298   1.056 -0.1256 -0.3431 -0.5554
  176DG     C11 4036   5.489   3.292   0.707  0.2784 -1.0261  0.7445
  176DG     C12 4037   5.872   3.187   0.972 -0.2225  0.6629 -0.3834
  176DG     H13 4038   5.520   3.274   0.604 -0.4183  1.2265  0.0927
  176DG     H14 4039   5.381   3.279   0.700 -0.2160  2.6349 -0.3564
  176DG     H15 4040   5.923   3.103   1.020  1.1377  1.4814 -0.3372
  176DG     H16 4041   5.942   3.204   0.890  2.2757 -0.8427  1.3279
  176DG     C17 4042   5.547   3.191   0.799 -0.3839  1.0339 -0.8864
  176DG     C18 4043   5.732   3.140   0.936  0.1491 -0.5495 -0.7031
  176DG     O19 4044   5.666   3.237   0.861 -1.1683  0.2645  0.3834
  176DG     H20 4045   5.559   3.093   0.752  2.6392  0.8805 -0.0232
  176DG     H21 4046   5.475   3.164   0.876  1.1661  1.1025  0.6456
  176DG     H22 4047   5.731   3.040   0.893 -1.7007 -0.8476 -0.0906
  176DG     H23 4048   5.675   3.126   1.028  1.4990  2.2563  0.6770
  177DG      C1 4049   4.166   5.137   0.320  0.7660 -0.1746  0.6692
  177DG      C2 4050   4.252   5.339  -0.284 -0.2568  0.3174  0.6703
  177DG      H3 4051   4.274   5.149   0.314  0.7393  0.8096  1.7238
  177DG      H4 4052   4.139   5.051   0.381  0.3736  1.0868  2.3480
  177DG      H5 4053   4.139   5.224   0.380 -1.8462 -0.8739  0.6060
  177DG      H6 4054   4.219   5.440  -0.305  0.4211 -0.0206 -2.5057
  177DG      H7 4055   4.359   5.339  -0.264 -0.4043 -2.3960  1.8613
  177DG      H8 4056   4.235   5.285  -0.378  0.8067 -0.4702  0.9096
  177DG      O9 4057   4.115   5.138   0.192 -0.1300 -0.3494 -0.3526
  177DG     O10 4058   4.174   5.301  -0.178 -0.1816  0.7860 -0.6028
  177DG     C11 4059   3.979   5.107   0.183  0.4931 -0.0346  0.0011
  177DG     C12 4060   4.039   5.280  -0.221  0.8793  0.2021  0.0006
  177DG     H13 4061   3.905   5.177   0.221  0.1675 -1.4316  2.1423
  177DG     H14 4062   3.960   5.019   0.245  1.0754  0.2412  0.5756
  177DG     H15 4063   4.036   5.199  -0.295 -1.0267 -0.3124  0.5680
  177DG     H16 4064   3.989   5.364  -0.269  0.5415  0.8961  1.5338
  177DG     C17 4065   3.934   5.052   0.042 -0.0204  0.4857 -0.6151
  177DG     C18 4066   3.948   5.237  -0.105  0.0904 -0.1114  0.0800
  177DG     O19 4067   4.001   5.114  -0.065 -0.2388  0.8457 -0.3605
  177DG     H20 4068   3.827   5.071   0.036 -0.5310 -2.0489 -0.3999
  177DG     H21 4069   3.953   4.945   0.038 -2.5634 -0.1033  0.9321
  177DG     H22 4070   3.928   5.316  -0.032 -0.0180 -0.2246  0.1742
  177DG     H23 4071   3.847   5.226  -0.145 -0.4668 -3.3191  2.0035
  178DG      C1 4072   1.121   3.318   2.677  0.4045 -0.5159 -0.3417
  178DG      C2 4073   0.998   4.032   2.664 -0.6155  0.0205  0.4428
  178DG      H3 4074   1.068   3.227   2.704 -2.1359 -0.1567 -3.5077
  178DG      H4 4075   1.215   3.306   2.731  0.2309 -1.6554 -0.2666
  178DG      H5 4076   1.135   3.294   2.571 -2.0090 -0.5652 -0.7038
  178DG      H6 4077   1.104   4.042   2.687 -0.7039 -1.0144  1.3833
  178DG      H7 4078   0.989   4.037   2.556 -0.4923  0.8238  0.4621
  178DG      H8 4079   0.952   4.127   2.693  1.1874  0.7066  1.2242
  178DG      O9 4080   1.048   3.437   2.711  0.2382  0.5586 -0.2463
  178DG     O10 4081   0.938   3.913   2.710 -0.2153  0.4158 -0.0271
  178DG     C11 4082   0.974   3.407   2.834 -0.3501 -0.2222  0.2097
  178DG     C12 4083   0.932   3.890   2.849  0.3567 -0.3596 -0.1412
  178DG     H13 4084   1.044   3.393   2.916  0.5133  0.1612 -0.4532
  178DG     H14 4085   0.908   3.323   2.811 -1.4427  0.7745 -0.4269
  178DG     H15 4086   0.868   3.972   2.882 -0.5777 -0.8078 -0.7854
  178DG     H16 4087   1.027   3.909   2.900  1.5261 -0.8820 -2.0283
  178DG     C17 4088   0.887   3.523   2.859  0.3577 -0.0420 -0.2576
  178DG     C18 4089   0.885   3.754   2.890  0.1616  0.2193 -0.6583
  178DG     O19 4090   0.964   3.642   2.840 -0.1423 -0.7590  0.1410
  178DG     H20 4091   0.823   3.515   2.947 -1.4835 -0.8727 -1.6223
  178DG     H21 4092   0.814   3.516   2.779 -0.0945 -1.5045  0.2574
  178DG     H22 4093   0.873   3.762   2.998 -0.8333  2.0900 -0.8673
  178DG     H23 4094   0.781   3.748   2.858 -0.7086  1.0847  1.7455
  179DG      C1 4095   1.163   2.133   0.930  1.2419  0.6576 -0.0554
  179DG      C2 4096   1.327   1.945   1.555 -0.0652  0.4778 -0.6111
  179DG      H3 4097   1.244   2.175   0.871 -0.0374 -0.1504 -2.5350
  179DG      H4 4098   1.077   2.198   0.916 -1.1083 -2.0274  0.8811
  179DG      H5 4099   1.139   2.033   0.893 -0.8104  1.3746 -0.7306
  179DG      H6 4100   1.370   2.045   1.556  0.4201  0.3228 -2.4727
  179DG      H7 4101   1.330   1.911   1.658  0.6464  0.9692 -0.4614
  179DG      H8 4102   1.409   1.885   1.514 -0.0282 -1.3756  1.9288
  179DG      O9 4103   1.195   2.134   1.062 -0.3647  0.0767  0.0436
  179DG     O10 4104   1.212   1.927   1.486  0.2076 -0.0402  0.0355
  179DG     C11 4105   1.185   2.263   1.127  0.0918  0.0011  0.1954
  179DG     C12 4106   1.114   2.018   1.533  0.0232 -0.8977 -1.1322
  179DG     H13 4107   1.084   2.302   1.129  0.7526  1.9993 -1.5933
  179DG     H14 4108   1.245   2.338   1.075  1.2086 -1.4057 -0.6135
  179DG     H15 4109   1.108   2.032   1.641  1.1798 -0.6494 -1.0967
  179DG     H16 4110   1.016   1.979   1.503 -1.0121  0.1714  0.6505
  179DG     C17 4111   1.223   2.247   1.272  0.4968  0.7923 -0.4017
  179DG     C18 4112   1.132   2.155   1.471 -0.3877 -0.1148  0.7729
  179DG     O19 4113   1.134   2.147   1.330 -0.6632  0.0419  0.0678
  179DG     H20 4114   1.221   2.338   1.332  1.3094  1.0710 -0.7917
  179DG     H21 4115   1.320   2.199   1.282  0.0853  0.2709  1.5259
  179DG     H22 4116   1.063   2.233   1.503  0.1844  1.3200 -1.3078
  179DG     H23 4117   1.228   2.190   1.509  0.1928 -1.2504  0.4211
  180DG      C1 4118   2.701   0.600   1.942 -0.2871 -0.5562 -0.4714
  180DG      C2 4119   2.330   0.101   2.208 -0.8125 -0.6625  0.0717
  180DG      H3 4120   2.630   0.604   1.859  0.0968  1.1377 -0.7413
  180DG      H4 4121   2.769   0.516   1.923 -0.4251 -0.4375 -1.5689
  180DG      H5 4122   2.758   0.692   1.945 -1.9375  0.4818  1.4506
  180DG      H6 4123   2.353   0.042   2.297  2.0049 -0.2127 -0.2759
  180DG      H7 4124   2.225   0.105   2.179 -0.4518 -1.1448 -1.3764
  180DG      H8 4125   2.394   0.054   2.133  2.0137  2.0651  0.6255
  180DG      O9 4126   2.645   0.583   2.074 -0.4595 -0.5436 -0.4320
  180DG     O10 4127   2.379   0.231   2.230  0.5738 -0.2073 -0.5809
  180DG     C11 4128   2.524   0.653   2.112  0.0089 -0.2058 -0.5723
  180DG     C12 4129   2.293   0.302   2.324 -0.1151  0.3242 -0.1737
  180DG     H13 4130   2.452   0.650   2.030 -1.5855  2.3423  0.6022
  180DG     H14 4131   2.550   0.758   2.127  1.4744 -0.6534  0.1656
  180DG     H15 4132   2.280   0.247   2.417  0.2551  0.2891 -0.1419
  180DG     H16 4133   2.196   0.330   2.283 -0.6540  0.4839  1.1607
  180DG     C17 4134   2.475   0.613   2.248 -0.0427  0.5923 -0.0245
  180DG     C18 4135   2.373   0.424   2.370 -0.2782 -0.1268  0.0096
  180DG     O19 4136   2.402   0.488   2.242  0.4173 -0.1488  0.0342
  180DG     H20 4137   2.419   0.687   2.305  0.2259  0.7627  0.0179
  180DG     H21 4138   2.568   0.596   2.302  0.7821  0.0390 -1.5592
  180DG     H22 4139   2.316   0.490   2.435 -0.4879  0.1010 -0.3966
  180DG     H23 4140   2.471   0.411   2.416 -0.9071  1.3735  1.8748
  181DG      C1 4141   0.538   5.313   2.748 -0.6505  0.8897  0.5806
  181DG      C2 4142   1.101   5.619   2.919 -0.3386 -0.0134 -0.2782
  181DG      H3 4143   0.505   5.413   2.774  1.7908  2.8417 -2.9837
  181DG      H4 4144   0.459   5.240   2.730 -0.3529  0.6449  0.2380
  181DG      H5 4145   0.575   5.322   2.646 -2.0796 -1.3569 -0.2219
  181DG      H6 4146   1.054   5.639   2.823 -0.7439 -1.3547 -0.3904
  181DG      H7 4147   1.063   5.689   2.994 -0.5607  0.8716 -1.2104
  181DG      H8 4148   1.208   5.620   2.903 -0.0779 -1.3286  1.0737
  181DG      O9 4149   0.641   5.271   2.836 -0.8221  0.1290  0.5485
  181DG     O10 4150   1.045   5.484   2.950 -0.4375  0.2211 -0.3346
  181DG     C11 4151   0.703   5.160   2.779 -0.2257  0.2269 -0.0154
  181DG     C12 4152   1.101   5.372   2.892 -0.9911  0.6784 -0.0198
  181DG     H13 4153   0.712   5.172   2.671 -2.2945  2.3886 -0.0129
  181DG     H14 4154   0.625   5.085   2.792  0.5832 -0.8380 -1.1227
  181DG     H15 4155   1.204   5.358   2.925 -1.0013 -1.9473 -0.8820
  181DG     H16 4156   1.097   5.381   2.784 -2.6266 -0.0926 -0.0616
  181DG     C17 4157   0.840   5.130   2.846  0.1971  0.7015 -0.7448
  181DG     C18 4158   1.023   5.248   2.929 -0.9334 -0.0341 -0.1062
  181DG     O19 4159   0.906   5.252   2.853 -0.1751 -0.8524 -0.4812
  181DG     H20 4160   0.888   5.047   2.794 -0.8375 -0.6508  0.3794
  181DG     H21 4161   0.818   5.100   2.948 -0.9043  0.8682 -0.9207
  181DG     H22 4162   1.077   5.158   2.898  0.1901  0.8989 -0.9341
  181DG     H23 4163   1.003   5.240   3.036  2.1031 -0.1561  0.5349
  182DG      C1 4164   0.219   0.627   5.449 -0.2639 -0.5271  0.3648
  182DG      C2 4165  -0.046   0.091   5.679 -0.3427 -0.4285  0.2785
  182DG      H3 4166   0.248   0.715   5.392 -0.6999 -0.8177 -0.3146
  182DG      H4 4167   0.311   0.586   5.493  0.5189  2.3671  1.7102
  182DG      H5 4168   0.172   0.668   5.538 -0.1177  0.2281  0.0966
  182DG      H6 4169   0.003  -0.004   5.656  0.5020  0.1718 -0.4729
  182DG      H7 4170  -0.002   0.141   5.765  0.1558 -0.7594  0.2213
  182DG      H8 4171  -0.148   0.058   5.694 -1.1568  0.7954 -2.0710
  182DG      O9 4172   0.144   0.529   5.382 -0.0258  0.1653 -0.0341
  182DG     O10 4173  -0.053   0.162   5.557 -0.0878  0.4087 -0.4460
  182DG     C11 4174   0.027   0.575   5.310  0.2698 -0.1838 -0.7120
  182DG     C12 4175  -0.132   0.280   5.566 -0.3149 -0.5916  0.1277
  182DG     H13 4176   0.054   0.657   5.244  0.7814  0.3680  0.1558
  182DG     H14 4177  -0.038   0.621   5.384  0.7306 -0.7065  0.0351
  182DG     H15 4178  -0.075   0.351   5.626 -0.5894 -1.5254  1.5628
  182DG     H16 4179  -0.218   0.279   5.632  0.8400  1.4401  1.7666
  182DG     C17 4180  -0.061   0.464   5.253 -1.0948 -0.1141  0.3828
  182DG     C18 4181  -0.174   0.346   5.433 -0.0696 -0.1157 -0.1744
  182DG     O19 4182  -0.052   0.357   5.352 -0.5178 -0.1040  0.6229
  182DG     H20 4183   0.007   0.428   5.175  2.9160  0.2264  3.4370
  182DG     H21 4184  -0.162   0.489   5.219 -0.8863  0.6166  0.2858
  182DG     H22 4185  -0.254   0.292   5.381 -0.5938 -0.4310  0.9258
  182DG     H23 4186  -0.211   0.447   5.454  0.4197 -0.0989  0.6325
  183DG      C1 4187   3.347   5.275   2.266 -0.4048 -0.1290 -0.7624
  183DG      C2 4188   3.535   5.559   2.922  0.1628 -0.3303  0.6780
  183DG      H3 4189   3.403   5.270   2.172 -2.2069  0.8836 -1.9664
  183DG      H4 4190   3.263   5.345   2.260  0.8376  1.5416  0.3487
  183DG      H5 4191   3.298   5.182   2.295  1.3123 -0.4624  1.3121
  183DG      H6 4192   3.446   5.516   2.966  0.0723  0.6329  1.4755
  183DG      H7 4193   3.603   5.532   3.003 -1.9112 -2.0391  1.9520
  183DG      H8 4194   3.502   5.662   2.907  1.6062  0.0234 -0.3247
  183DG      O9 4195   3.429   5.308   2.380  0.8961 -0.3139 -0.3945
  183DG     O10 4196   3.574   5.497   2.803  0.2702 -0.0072  0.0659
  183DG     C11 4197   3.563   5.284   2.363  0.3450 -0.5687 -0.0813
  183DG     C12 4198   3.699   5.531   2.750 -0.6745 -0.3479  0.4157
  183DG     H13 4199   3.599   5.354   2.287 -0.0356 -3.7717 -3.4966
  183DG     H14 4200   3.574   5.191   2.308 -0.2620 -0.6988  0.0051
  183DG     H15 4201   3.775   5.540   2.827 -1.2970  1.9351  0.8522
  183DG     H16 4202   3.690   5.629   2.703  0.2368 -1.0468 -1.2843
  183DG     C17 4203   3.646   5.281   2.490 -0.1036  0.2766 -0.4758
  183DG     C18 4204   3.737   5.420   2.660  0.0016  0.3152  0.1974
  183DG     O19 4205   3.634   5.402   2.566 -0.2204 -0.8344 -0.3892
  183DG     H20 4206   3.749   5.249   2.474 -0.5989 -2.5833  1.3813
  183DG     H21 4207   3.623   5.197   2.555 -0.8082  0.7882 -0.0451
  183DG     H22 4208   3.823   5.460   2.606  0.0432  0.6738  0.5218
  183DG     H23 4209   3.772   5.330   2.710  2.3702  0.7522 -0.5142
  184DG      C1 4210   4.657   3.561   4.850 -0.2763  0.4212 -0.2330
  184DG      C2 4211   5.255   3.162   4.922  0.1996 -0.6430 -0.9886
  184DG      H3 4212   4.614   3.648   4.898  1.9558  1.1232  0.6437
  184DG      H4 4213   4.616   3.473   4.899  1.4340 -0.3856 -0.1640
  184DG      H5 4214   4.614   3.572   4.750  0.4241  1.1061 -0.4688
  184DG      H6 4215   5.222   3.101   4.837 -0.9558 -3.2308  1.1583
  184DG      H7 4216   5.364   3.172   4.913 -0.0063  1.3843 -1.6596
  184DG      H8 4217   5.226   3.108   5.012 -0.0547  1.4386  0.2195
  184DG      O9 4218   4.792   3.556   4.854 -0.0924 -0.3361  0.6220
  184DG     O10 4219   5.187   3.294   4.923  0.2019  0.3017 -0.3238
  184DG     C11 4220   4.857   3.662   4.775 -0.0691 -0.5410 -0.1514
  184DG     C12 4221   5.243   3.384   4.824 -0.2585  0.7116 -1.1296
  184DG     H13 4222   4.814   3.760   4.794 -0.6030 -0.4523 -1.6981
  184DG     H14 4223   4.840   3.634   4.671 -1.8360  1.4485 -0.4565
  184DG     H15 4224   5.235   3.342   4.724  1.4619 -2.8176  0.0464
  184DG     H16 4225   5.351   3.388   4.842 -0.4653 -0.6468  0.7486
  184DG     C17 4226   5.005   3.663   4.808 -0.5742 -0.3842 -0.1930
  184DG     C18 4227   5.197   3.529   4.849  0.2047 -0.5143  0.4632
  184DG     O19 4228   5.063   3.540   4.802 -0.2662 -0.5915  0.1585
  184DG     H20 4229   5.029   3.709   4.904  0.9227 -0.1780 -0.6444
  184DG     H21 4230   5.050   3.728   4.733 -0.8726 -1.0049 -0.9243
  184DG     H22 4231   5.195   3.560   4.954  0.8020  0.4530  0.2030
  184DG     H23 4232   5.254   3.605   4.796  1.0113 -2.5200 -1.7239
  185DG      C1 4233   2.710   3.338   2.209 -0.3017  0.5364 -0.1808
  185DG      C2 4234   2.669   3.124   2.794  0.1682  0.8364  0.2891
  185DG      H3 4235   2.715   3.281   2.116  1.0601  0.7795 -0.2860
  185DG      H4 4236   2.756   3.437   2.208 -2.0728  1.4057 -1.2305
  185DG      H5 4237   2.604   3.352   2.230 -0.4432  0.6521 -0.9495
  185DG      H6 4238   2.638   3.217   2.843  0.1647  1.3676 -0.7009
  185DG      H7 4239   2.585   3.116   2.725  1.1913 -1.6807 -0.7962
  185DG      H8 4240   2.659   3.038   2.861 -1.3943  0.1465 -0.7637
  185DG      O9 4241   2.768   3.259   2.317 -0.5539 -0.3188 -0.1118
  185DG     O10 4242   2.786   3.130   2.716  0.0415  0.1658 -0.0298
  185DG     C11 4243   2.906   3.233   2.298 -0.1862 -1.0331  0.0631
  185DG     C12 4244   2.827   3.012   2.652 -0.3859  0.0960 -0.1050
  185DG     H13 4245   2.956   3.323   2.332 -0.4918 -0.8304 -0.0267
  185DG     H14 4246   2.920   3.206   2.194 -1.8927 -0.2738 -0.3857
  185DG     H15 4247   2.753   2.984   2.577 -0.0257 -1.0824 -0.0416
  185DG     H16 4248   2.843   2.930   2.722  0.3157 -1.1228 -1.6402
  185DG     C17 4249   2.962   3.126   2.381 -0.6215 -0.1545  0.5548
  185DG     C18 4250   2.960   3.039   2.590 -0.3988  0.8080  0.3435
  185DG     O19 4251   2.934   3.157   2.518 -0.1557 -0.6128  0.2505
  185DG     H20 4252   3.069   3.112   2.366 -0.6404  2.0382 -2.6577
  185DG     H21 4253   2.917   3.036   2.338  1.8010 -1.0612 -0.2514
  185DG     H22 4254   3.036   3.051   2.667  0.4718 -1.0013 -0.1541
  185DG     H23 4255   2.995   2.951   2.536  0.6326  0.8593  0.8997
  186DG      C1 4256   1.651   5.442   0.571 -0.3057  0.0150  0.1041
  186DG      C2 4257   1.668   5.975   0.226 -0.0426 -0.0570 -0.3229
  186DG      H3 4258   1.568   5.486   0.626  0.7417 -0.3293  2.0480
  186DG      H4 4259   1.655   5.344   0.619 -0.3596  0.3170  0.7325
  186DG      H5 4260   1.620   5.444   0.466  2.5812 -1.4777 -0.8981
  186DG      H6 4261   1.561   5.972   0.247  0.2434 -0.1549  1.2528
  186DG      H7 4262   1.710   6.040   0.302 -2.0452  1.2154 -0.2088
  186DG      H8 4263   1.686   6.010   0.124 -0.4422 -2.0167 -1.1065
  186DG      O9 4264   1.762   5.519   0.616  0.0925  0.5068 -0.6383
  186DG     O10 4265   1.706   5.846   0.252 -0.2582 -0.1274  0.3922
  186DG     C11 4266   1.884   5.468   0.562  0.0991 -0.2599 -0.2880
  186DG     C12 4267   1.851   5.827   0.256  0.4372 -0.1975 -0.1332
  186DG     H13 4268   1.882   5.360   0.573  1.5340 -0.1697  1.1495
  186DG     H14 4269   1.972   5.510   0.610  0.7413 -0.9440 -0.8563
  186DG     H15 4270   1.902   5.881   0.336  0.0573  0.7563 -0.5243
  186DG     H16 4271   1.899   5.872   0.168 -1.6738  2.9402  0.1386
  186DG     C17 4272   1.909   5.514   0.412  0.5001  0.1191 -1.0560
  186DG     C18 4273   1.896   5.682   0.254  0.3786 -0.8178  0.0584
  186DG     O19 4274   1.849   5.638   0.386 -0.4270  0.0637  0.2182
  186DG     H20 4275   1.841   5.448   0.358 -0.5604 -0.3546  0.7815
  186DG     H21 4276   2.017   5.504   0.401  0.9710  1.4383  1.4964
  186DG     H22 4277   1.843   5.626   0.178 -0.1821 -0.6162  0.2930
  186DG     H23 4278   2.003   5.667   0.242  0.3408 -1.3557  0.3821
  187DG      C1 4279   2.763   3.353   5.423 -0.4972  0.0606  0.2496
  187DG      C2 4280   3.146   3.962   5.827 -0.5424  0.1506  1.2367
  187DG      H3 4281   2.793   3.277   5.495 -0.3691 -0.7772 -0.6615
  187DG      H4 4282   2.827   3.335   5.336  1.0837  3.1943  0.6569
  187DG      H5 4283   2.660   3.343   5.388 -0.5127 -1.0014  0.5645
  187DG      H6 4284   3.235   4.008   5.785 -0.9773  0.0151  0.1380
  187DG      H7 4285   3.114   4.034   5.902  1.1118  3.9351 -1.3457
  187DG      H8 4286   3.171   3.870   5.879 -0.4508 -0.2215  0.5408
  187DG      O9 4287   2.786   3.481   5.476  0.0394  0.4759 -0.1549
  187DG     O10 4288   3.050   3.933   5.723 -0.0973  0.0318 -0.5208
  187DG     C11 4289   2.781   3.584   5.383 -0.8037  0.7441  0.1986
  187DG     C12 4290   2.925   3.885   5.772 -0.5047 -0.4603 -0.2352
  187DG     H13 4291   2.693   3.570   5.319 -1.3052 -3.8746  1.5595
  187DG     H14 4292   2.870   3.598   5.322 -0.4688  1.0222  0.7404
  187DG     H15 4293   2.881   3.971   5.822  2.3314  2.0207 -1.6639
  187DG     H16 4294   2.927   3.801   5.840 -1.2678 -2.1650 -2.2248
  187DG     C17 4295   2.762   3.711   5.474 -0.4865  0.1105 -0.0987
  187DG     C18 4296   2.821   3.838   5.669  0.5139 -0.1841 -0.4489
  187DG     O19 4297   2.870   3.746   5.572  0.2059 -0.3670  0.3376
  187DG     H20 4298   2.668   3.702   5.528  0.4835  1.3755  1.9681
  187DG     H21 4299   2.759   3.806   5.420 -0.2109  0.2765  0.1722
  187DG     H22 4300   2.746   3.794   5.735  0.9999 -0.3101  0.0214
  187DG     H23 4301   2.775   3.928   5.629  0.0522  0.6897  1.8759
  188DG      C1 4302   3.372   0.710   5.237 -0.7816 -0.2930 -0.1541
  188DG      C2 4303   3.722   0.603   5.758  0.0638  0.3317  0.3360
  188DG      H3 4304   3.360   0.632   5.161 -0.6113  0.5301 -1.0394
  188DG      H4 4305   3.364   0.805   5.185 -1.0516  0.8825  1.9362
  188DG      H5 4306   3.287   0.691   5.302 -1.1262  0.9247 -0.2350
  188DG      H6 4307   3.775   0.685   5.709 -1.1838 -0.0346 -1.7182
  188DG      H7 4308   3.637   0.642   5.815  0.2405 -0.0594  0.8814
  188DG      H8 4309   3.792   0.550   5.823  0.3107 -0.9892 -0.9618
  188DG      O9 4310   3.494   0.685   5.308 -0.3593  0.2538  0.2565
  188DG     O10 4311   3.673   0.520   5.657 -0.1401 -0.0464  0.4013
  188DG     C11 4312   3.610   0.714   5.234  0.1233 -0.7810 -0.4636
  188DG     C12 4313   3.778   0.453   5.589  0.5845  0.0982  0.1324
  188DG     H13 4314   3.608   0.814   5.190 -1.3927 -0.9032 -0.7256
  188DG     H14 4315   3.621   0.643   5.152  1.1023  0.3837 -1.3839
  188DG     H15 4316   3.744   0.362   5.539  4.4770 -0.7048 -1.4776
  188DG     H16 4317   3.859   0.430   5.658  0.0264 -0.4709  0.6031
  188DG     C17 4318   3.749   0.698   5.308 -0.2165  0.0078 -0.0918
  188DG     C18 4319   3.830   0.548   5.478 -0.2588 -0.1478  0.3043
  188DG     O19 4320   3.730   0.583   5.389 -0.8661  0.5991  0.3690
  188DG     H20 4321   3.779   0.790   5.358 -0.5671  0.1964 -0.2240
  188DG     H21 4322   3.830   0.681   5.237 -0.9494 -0.7356 -0.7679
  188DG     H22 4323   3.882   0.637   5.514  0.7154 -0.0660 -1.2092
  188DG     H23 4324   3.905   0.494   5.419  0.9818 -0.6240  2.2056
  189DG      C1 4325   4.068   5.431   2.281  1.0227  0.0783 -0.1653
  189DG      C2 4326   4.752   5.448   2.354  0.3061 -0.6192 -0.0539
  189DG      H3 4327   4.078   5.367   2.368 -1.8374 -2.5630 -1.5881
  189DG      H4 4328   4.009   5.371   2.212  2.2516 -1.7304  0.2888
  189DG      H5 4329   4.015   5.523   2.305  0.3912 -0.2656 -0.2298
  189DG      H6 4330   4.715   5.407   2.448  1.6499  0.6047  1.0494
  189DG      H7 4331   4.836   5.386   2.325  1.2258  0.0173  1.1858
  189DG      H8 4332   4.796   5.545   2.375 -0.4960 -0.2829  0.1085
  189DG      O9 4333   4.188   5.462   2.212  0.1028 -0.0247  0.1517
  189DG     O10 4334   4.647   5.446   2.263  0.2994 -0.0832 -0.3269
  189DG     C11 4335   4.196   5.600   2.175 -0.1928  0.5240 -0.2655
  189DG     C12 4336   4.650   5.563   2.182 -0.4090  0.3089 -0.7951
  189DG     H13 4337   4.195   5.664   2.264 -1.0601 -0.2448  0.3084
  189DG     H14 4338   4.110   5.637   2.120  0.1917  0.4500 -0.9155
  189DG     H15 4339   4.751   5.592   2.150  0.8779 -1.0548  1.7601
  189DG     H16 4340   4.627   5.650   2.244 -1.9817 -0.9222  0.4346
  189DG     C17 4341   4.318   5.616   2.080 -0.6192  0.7213  0.1339
  189DG     C18 4342   4.547   5.566   2.072 -0.0463 -0.1989  0.3188
  189DG     O19 4343   4.422   5.543   2.128  0.0753  0.2154  0.1195
  189DG     H20 4344   4.335   5.722   2.061  0.6291  0.3178 -1.2228
  189DG     H21 4345   4.288   5.573   1.984  2.1420 -1.7588  0.2388
  189DG     H22 4346   4.574   5.657   2.019 -0.7275 -0.3791 -0.3474
  189DG     H23 4347   4.564   5.480   2.008  2.7529  1.4529 -1.3449
  190DG      C1 4348   2.101   1.148   0.692 -0.2073  0.1738 -0.7674
  190DG      C2 4349   1.958   1.347   1.383 -0.0486 -0.2608  0.5182
  190DG      H3 4350   2.097   1.241   0.636  1.7832  0.4846 -0.4658
  190DG      H4 4351   2.075   1.067   0.623  4.2964 -1.1431 -1.2055
  190DG      H5 4352   2.200   1.131   0.733 -0.9513 -1.9249  0.3250
  190DG      H6 4353   2.051   1.311   1.427  1.0658 -1.2189 -2.4199
  190DG      H7 4354   1.969   1.451   1.353 -2.4896 -0.5620 -1.8584
  190DG      H8 4355   1.883   1.355   1.462  0.5341 -0.2328  1.0715
  190DG      O9 4356   2.017   1.162   0.808 -0.2864 -0.2026  0.0874
  190DG     O10 4357   1.923   1.255   1.285 -0.0761 -0.0802 -0.0541
  190DG     C11 4358   1.894   1.228   0.778 -0.1500  0.2895 -0.1046
  190DG     C12 4359   1.793   1.295   1.232 -0.0739 -0.0424  0.0695
  190DG     H13 4360   1.854   1.189   0.684  0.0640 -1.7630  0.6098
  190DG     H14 4361   1.904   1.336   0.787  0.5181  0.1033  2.0158
  190DG     H15 4362   1.790   1.400   1.203 -2.3521 -0.5119 -1.7259
  190DG     H16 4363   1.703   1.291   1.294  0.9627 -0.8986  1.5592
  190DG     C17 4364   1.792   1.190   0.879 -0.0770 -0.1521 -0.2668
  190DG     C18 4365   1.748   1.212   1.110 -0.0702  0.4935  0.6186
  190DG     O19 4366   1.820   1.261   0.998 -0.5156 -0.3611 -0.1115
  190DG     H20 4367   1.787   1.082   0.890 -1.4884 -0.0845  0.0232
  190DG     H21 4368   1.692   1.217   0.844 -0.1328  0.8620  0.6113
  190DG     H22 4369   1.777   1.107   1.119 -0.6320  0.2701 -0.1780
  190DG     H23 4370   1.642   1.225   1.093 -0.0022  0.6938  0.3461
  191DG      C1 4371   1.513   1.120   5.059  0.1167 -0.3288 -0.5178
  191DG      C2 4372   1.633   0.794   5.542  0.8483 -0.0588  0.0968
  191DG      H3 4373   1.610   1.097   5.015 -0.4243  0.5103 -2.2403
  191DG      H4 4374   1.487   1.225   5.048 -0.3841 -0.3825  0.0653
  191DG      H5 4375   1.440   1.070   4.996  0.7829  0.0176 -1.5888
  191DG      H6 4376   1.599   0.762   5.641 -0.8607 -1.6090 -0.9294
  191DG      H7 4377   1.742   0.793   5.545  0.8570 -0.9258 -0.2378
  191DG      H8 4378   1.612   0.901   5.536 -2.2908 -0.5783 -0.3874
  191DG      O9 4379   1.510   1.075   5.191  0.4307  0.3191 -0.4934
  191DG     O10 4380   1.569   0.713   5.444 -0.0274 -0.3318  0.0553
  191DG     C11 4381   1.410   1.129   5.275  0.4471  0.5543 -0.0066
  191DG     C12 4382   1.429   0.679   5.464  0.2847  0.7434 -0.1084
  191DG     H13 4383   1.348   1.205   5.228 -1.5554  0.0793  1.7330
  191DG     H14 4384   1.452   1.175   5.364 -1.7251  0.1903  1.2931
  191DG     H15 4385   1.417   0.634   5.563 -1.2635  3.3910  1.0194
  191DG     H16 4386   1.403   0.600   5.394  2.5990 -0.6752  0.5264
  191DG     C17 4387   1.327   1.005   5.321 -1.7297 -0.0456  0.1295
  191DG     C18 4388   1.341   0.808   5.451  0.8366  0.0690  0.5264
  191DG     O19 4389   1.395   0.886   5.346 -0.4652  0.7718  0.0574
  191DG     H20 4390   1.260   0.971   5.242 -0.5231 -0.6618 -0.6687
  191DG     H21 4391   1.262   1.038   5.402  0.0029 -2.3991  2.6400
  191DG     H22 4392   1.236   0.782   5.436  1.2033 -0.7742 -0.8048
  191DG     H23 4393   1.339   0.869   5.541 -1.5967 -1.2795  1.4752
  192DG      C1 4394   2.179   0.790   1.915 -0.0768 -0.1247 -0.4562
  192DG      C2 4395   1.894   1.330   2.496 -0.5509 -0.2886 -0.6097
  192DG      H3 4396   2.171   0.683   1.892  1.7918 -0.6693  1.1393
  192DG      H4 4397   2.252   0.834   1.848  0.9932 -0.4691  0.4444
  192DG      H5 4398   2.084   0.842   1.902 -0.0816 -0.1434 -0.4953
  192DG      H6 4399   1.825   1.345   2.579  1.1410 -4.0713  1.6953
  192DG      H7 4400   1.983   1.314   2.556 -1.0788 -0.0849  0.2411
  192DG      H8 4401   1.884   1.405   2.417 -2.3660  0.3021  0.1233
  192DG      O9 4402   2.216   0.801   2.057 -0.1490 -0.4229  0.2747
  192DG     O10 4403   1.869   1.203   2.437 -0.5710  0.0179  0.4809
  192DG     C11 4404   2.268   0.926   2.095 -0.1585  0.0669  0.1309
  192DG     C12 4405   1.988   1.158   2.366  0.3583 -0.4728  0.3649
  192DG     H13 4406   2.277   0.993   2.010 -0.7280 -0.2432 -0.1823
  192DG     H14 4407   2.369   0.908   2.131  0.8264  1.0940 -1.9596
  192DG     H15 4408   2.066   1.141   2.440 -0.9715  0.8676  2.1517
  192DG     H16 4409   2.028   1.244   2.312  1.1411 -0.9045  0.2402
  192DG     C17 4410   2.191   0.979   2.213 -0.0756  0.6773 -0.1109
  192DG     C18 4411   1.959   1.035   2.268  0.1113  0.3159 -0.3312
  192DG     O19 4412   2.062   1.013   2.169 -0.1378  0.3373 -0.0149
  192DG     H20 4413   2.247   1.065   2.250  0.5022 -0.2482  1.2516
  192DG     H21 4414   2.187   0.898   2.286 -0.4857  1.0762  0.3210
  192DG     H22 4415   1.929   0.947   2.325  1.5809 -0.5246 -0.7893
  192DG     H23 4416   1.874   1.059   2.205  0.1491 -0.4358 -0.6774
  193DG      C1 4417   1.927   5.317   1.873 -0.5933 -0.1269  0.0400
  193DG      C2 4418   2.360   5.035   1.472 -0.2341  0.1735 -0.0584
  193DG      H3 4419   1.850   5.391   1.895  1.2742  1.7613  0.5736
  193DG      H4 4420   1.972   5.275   1.963  3.9255  1.5066 -1.2223
  193DG      H5 4421   1.872   5.241   1.816 -0.4830 -0.8466  0.8604
  193DG      H6 4422   2.465   5.011   1.486 -0.5085 -2.2927 -1.7553
  193DG      H7 4423   2.309   4.943   1.498 -2.4694  1.6690  1.2371
  193DG      H8 4424   2.355   5.048   1.364 -2.2575  2.8386  0.2446
  193DG      O9 4425   2.026   5.375   1.784 -0.0337 -0.1550  0.0266
  193DG     O10 4426   2.329   5.151   1.549  0.2200 -0.3648 -0.1520
  193DG     C11 4427   2.103   5.473   1.845 -0.3541 -0.2232 -0.6513
  193DG     C12 4428   2.423   5.259   1.560  0.6323 -0.1594 -0.2197
  193DG     H13 4429   2.147   5.422   1.931  0.8300  0.7231 -0.6632
  193DG     H14 4430   2.050   5.559   1.883  0.6217 -0.7734  2.2202
  193DG     H15 4431   2.487   5.267   1.472  0.1714 -2.0114 -0.7808
  193DG     H16 4432   2.489   5.236   1.643 -0.7254  0.7959  1.1593
  193DG     C17 4433   2.218   5.502   1.752 -0.1243 -0.1271 -0.0418
  193DG     C18 4434   2.360   5.401   1.586 -0.0149  0.3353  0.3643
  193DG     O19 4435   2.264   5.386   1.696  0.5980  0.3404 -0.2018
  193DG     H20 4436   2.299   5.556   1.802  0.3971 -0.2826 -0.7133
  193DG     H21 4437   2.180   5.564   1.670  0.0895 -0.3117 -0.2793
  193DG     H22 4438   2.430   5.478   1.618 -0.4622  1.2265 -0.7523
  193DG     H23 4439   2.305   5.432   1.497 -2.2656  0.1640  1.6027
  194DG      C1 4440   4.766   4.913   1.233  0.1226  0.1367 -0.1907
  194DG      C2 4441   5.048   4.480   0.809  0.0150  0.0680 -0.4565
  194DG      H3 4442   4.663   4.939   1.209  0.1053 -1.1659 -1.6769
  194DG      H4 4443   4.811   4.983   1.303  0.2222 -1.0643  0.9924
  194DG      H5 4444   4.766   4.821   1.292  2.2796 -0.2843 -0.7729
  194DG      H6 4445   4.955   4.426   0.824 -0.7669  1.0858 -1.4246
  194DG      H7 4446   5.100   4.442   0.721 -1.1635 -2.0226 -0.3283
  194DG      H8 4447   5.116   4.444   0.886 -0.6877 -1.3496 -0.4601
  194DG      O9 4448   4.847   4.891   1.109 -0.1474  0.3563 -0.0963
  194DG     O10 4449   5.018   4.618   0.801  0.3852  0.6059  1.0635
  194DG     C11 4450   4.875   5.011   1.039  0.1318 -0.3378 -0.2218
  194DG     C12 4451   5.119   4.703   0.757 -0.1698  0.2103  0.5722
  194DG     H13 4452   4.949   5.066   1.097  2.1054 -1.8066 -1.2167
  194DG     H14 4453   4.782   5.067   1.033  0.5939  0.5957  1.0982
  194DG     H15 4454   5.155   4.677   0.658 -1.0981  2.2666 -0.3627
  194DG     H16 4455   5.195   4.683   0.832 -1.6160 -0.3166  1.9748
  194DG     C17 4456   4.909   4.972   0.892  0.4203 -0.1803 -0.7224
  194DG     C18 4457   5.059   4.846   0.770 -1.0940 -0.0786 -1.2865
  194DG     O19 4458   4.994   4.856   0.889  0.2787 -0.2452 -0.6211
  194DG     H20 4459   4.958   5.052   0.836  0.8729 -1.5671 -2.4201
  194DG     H21 4460   4.812   4.954   0.847 -1.1431 -3.1221  3.1976
  194DG     H22 4461   5.144   4.913   0.763  0.0972 -1.4335 -0.3912
  194DG     H23 4462   4.984   4.864   0.692 -2.2122 -0.7411 -0.3974
  195THF     O1 4463   1.061   1.625   0.690  0.0276  0.6486  0.3101
  195THF     C2 4464   0.930   1.645   0.639 -0.0051  0.5780 -0.1011
  195THF     C3 4465   1.158   1.696   0.615  0.6318  0.5716 -0.2712
  195THF     H4 4466   0.856   1.622   0.716  0.2715 -1.0553 -0.2847
  195THF     H5 4467   0.913   1.579   0.554 -3.1057 -1.4676  1.8903
  195THF     H6 4468   1.231   1.719   0.692  0.4167  0.1207  0.0733
  195THF     H7 4469   1.186   1.616   0.546  1.1225 -1.8582  2.5590
  195THF     C8 4470   1.074   1.812   0.560  0.0261  0.2280  0.4179
  195THF     C9 4471   0.937   1.796   0.615 -0.6122  0.2833  0.0429
  195THF    H10 4472   1.079   1.811   0.452  2.3638  1.4497  0.4399
  195THF    H11 4473   1.121   1.907   0.587  0.8181 -0.0888  0.1751
  195THF    H12 4474   0.943   1.845   0.712 -0.4263  0.7887 -0.2157
  195THF    H13 4475   0.860   1.826   0.544  0.5868  0.5312 -1.2172
  196THF     O1 4476   4.410   0.471   4.797  0.1169  0.3420  0.4867
  196THF     C2 4477   4.401   0.593   4.854  0.0977 -0.0666  0.5805
  196THF     C3 4478   4.315   0.474   4.692  0.0543 -0.0034  0.0293
  196THF     H4 4479   4.483   0.619   4.921 -0.5929 -2.2141  2.3696
  196THF     H5 4480   4.311   0.585   4.914  0.3668 -0.4132  0.9399
  196THF     H6 4481   4.365   0.420   4.611 -0.7567 -2.0304  0.8194
  196THF     H7 4482   4.227   0.419   4.726  0.3859 -1.0201 -0.7040
  196THF     C8 4483   4.276   0.622   4.661  0.0455 -0.1648  0.0061
  196THF     C9 4484   4.373   0.696   4.749 -0.4381 -0.2225  0.4087
  196THF    H10 4485   4.176   0.642   4.701  0.1198  0.5780 -0.1681
  196THF    H11 4486   4.272   0.648   4.556 -3.2745  0.7708  0.2520
  196THF    H12 4487   4.461   0.718   4.689  0.2558  0.7846  1.7224
  196THF    H13 4488   4.328   0.787   4.790  0.0685 -0.8449  2.4575
  197THF     O1 4489   3.112   0.194   4.725  0.2218  0.3351 -0.1571
  197THF     C2 4490   3.170   0.248   4.841 -0.3010  0.0870 -0.6204
  197THF     C3 4491   3.179   0.063   4.714  0.0220 -0.0477  0.1043
  197THF     H4 4492   3.141   0.190   4.929 -0.3134 -0.3149 -0.8862
  197THF     H5 4493   3.147   0.354   4.849 -1.9141 -0.2733 -0.1506
  197THF     H6 4494   3.151   0.001   4.799 -2.1471  0.6548 -0.0174
  197THF     H7 4495   3.163   0.015   4.618  1.2466  2.1594 -1.2851
  197THF     C8 4496   3.323   0.095   4.728  1.1793 -0.0314 -0.1396
  197THF     C9 4497   3.317   0.218   4.814  0.2847 -0.2635 -0.4502
  197THF    H10 4498   3.368   0.120   4.632  1.4821  0.1179  0.0421
  197THF    H11 4499   3.385   0.022   4.781 -0.0747 -0.7827  0.3352
  197THF    H12 4500   3.368   0.203   4.909  0.8623 -1.1537 -0.8936
  197THF    H13 4501   3.362   0.300   4.758  0.0028 -0.0052 -0.3018
  198THF     O1 4502   0.732   2.074   3.723 -0.3268  0.5633  0.3518
  198THF     C2 4503   0.686   1.962   3.649  0.0397 -0.0679 -0.4024
  198THF     C3 4504   0.867   2.034   3.754 -0.0209 -0.6446 -0.0441
  198THF     H4 4505   0.592   1.994   3.602 -1.2310 -1.6189  0.9547
  198THF     H5 4506   0.664   1.872   3.707 -0.3724  0.5296  0.3867
  198THF     H6 4507   0.931   2.121   3.769 -0.9265  0.3461 -1.6599
  198THF     H7 4508   0.875   1.972   3.843 -0.8099  1.1358  1.3561
  198THF     C8 4509   0.922   1.976   3.625  0.0785  0.2001 -0.5023
  198THF     C9 4510   0.800   1.936   3.549  0.4676 -0.2613  0.7552
  198THF    H10 4511   0.976   1.884   3.647 -1.3333 -0.1113  1.9962
  198THF    H11 4512   0.992   2.045   3.579  0.1566 -0.6645 -1.7222
  198THF    H12 4513   0.776   1.995   3.461 -2.4099 -0.4556  1.3060
  198THF    H13 4514   0.802   1.833   3.512 -0.2431 -0.9112  2.4213
  199THF     O1 4515   4.336   2.042   5.371 -0.3539 -0.2858  0.2849
  199THF     C2 4516   4.472   2.016   5.324 -0.3485  0.4260  0.2653
  199THF     C3 4517   4.261   2.045   5.252  0.4240  0.2425  0.8858
  199THF     H4 4518   4.483   1.915   5.285 -1.5229  0.4089 -0.0467
  199THF     H5 4519   4.555   2.025   5.394  0.8123  0.6527 -1.1000
  199THF     H6 4520   4.239   1.947   5.209  0.4215  0.8481 -0.5263
  199THF     H7 4521   4.165   2.096   5.265  2.0371  3.2973  1.7157
  199THF     C8 4522   4.344   2.126   5.155 -1.3434 -0.8754  0.2857
  199THF     C9 4523   4.481   2.128   5.225  0.0628  0.4366 -0.5972
  199THF    H10 4524   4.298   2.223   5.137  1.1467  0.4347  0.5083
  199THF    H11 4525   4.339   2.062   5.067 -1.0040 -1.5671  0.7482
  199THF    H12 4526   4.562   2.134   5.152 -0.0923 -1.5610 -1.0006
  199THF    H13 4527   4.491   2.226   5.271 -1.3904  0.4200 -0.2142
  200THF     O1 4528   3.118   3.192   3.040 -0.7048  0.2630  0.7566
  200THF     C2 4529   3.224   3.107   3.080  0.0848  0.4133 -0.5419
  200THF     C3 4530   3.012   3.106   3.014  0.2478 -0.2722  0.4490
  200THF     H4 4531   3.301   3.163   3.134  0.8461 -0.0654 -1.0972
  200THF     H5 4532   3.282   3.063   2.998  0.7234 -1.3771  0.7931
  200THF     H6 4533   2.915   3.154   3.028  0.4113 -0.5368  3.0045
  200THF     H7 4534   3.002   3.073   2.910 -1.9191 -2.0154  1.1178
  200THF     C8 4535   3.021   2.986   3.109  0.0364 -0.3196  0.4261
  200THF     C9 4536   3.160   2.998   3.173  0.9524 -0.1497  0.3484
  200THF    H10 4537   3.018   2.895   3.049  0.5553  0.5373 -0.9350
  200THF    H11 4538   2.950   2.977   3.191  0.8537 -2.4560  0.9773
  200THF    H12 4539   3.159   3.039   3.274 -0.7165  0.3956  0.1255
  200THF    H13 4540   3.220   2.907   3.169  1.6064  0.2213  1.2936
  201THF     O1 4541   2.294   0.617   0.790  0.3205  0.2778 -0.7472
  201THF     C2 4542   2.181   0.681   0.853  0.0725  0.1861  0.5394
  201THF     C3 4543   2.337   0.686   0.678 -0.4649 -0.1220 -0.2185
  201THF     H4 4544   2.183   0.685   0.962  1.8805  2.4370  0.4942
  201THF     H5 4545   2.097   0.621   0.819  0.0539  0.9632 -0.8889
  201THF     H6 4546   2.416   0.755   0.708 -0.3675 -0.4257  0.2347
  201THF     H7 4547   2.365   0.611   0.604  1.3172 -0.9544  1.2067
  201THF     C8 4548   2.224   0.792   0.645  0.0782  0.2834 -0.2119
  201THF     C9 4549   2.167   0.818   0.786 -0.3244  0.2007 -0.0882
  201THF    H10 4550   2.148   0.749   0.579  0.6034 -0.4447 -0.3580
  201THF    H11 4551   2.262   0.881   0.596  3.0342 -0.2448  0.9204
  201THF    H12 4552   2.229   0.889   0.842 -1.1619 -0.7285  2.1301
  201THF    H13 4553   2.064   0.855   0.781 -0.8955 -1.4820 -1.6516
  202THF     O1 4554   1.150   1.812   1.854  0.8057 -0.2463 -0.0560
  202THF     C2 4555   1.266   1.732   1.883  1.0367 -0.1726  0.2800
  202THF     C3 4556   1.049   1.725   1.803 -0.5096 -1.0248 -0.1571
  202THF     H4 4557   1.330   1.783   1.955  0.6122  2.2042 -0.9046
  202THF     H5 4558   1.311   1.732   1.784  0.3514  1.9557 -0.0793
  202THF     H6 4559   0.949   1.769   1.798 -0.0128  0.0502 -1.1205
  202THF     H7 4560   1.095   1.709   1.706  2.5298 -0.0045  1.0071
  202THF     C8 4561   1.074   1.599   1.875  0.3661  0.6975 -0.7738
  202THF     C9 4562   1.215   1.597   1.927  0.0813 -0.1502 -0.0585
  202THF    H10 4563   1.035   1.513   1.820  0.0535  1.0540 -1.1151
  202THF    H11 4564   1.013   1.609   1.965 -0.5662  1.3940 -1.4597
  202THF    H12 4565   1.214   1.597   2.036  1.2904  0.3829 -0.0320
  202THF    H13 4566   1.273   1.513   1.889 -2.2061 -1.7698 -0.1913
  203THF     O1 4567   0.070   4.765   5.316  0.0801  0.0593  0.1903
  203THF     C2 4568   0.047   4.628   5.368  0.4860 -0.2647 -0.6941
  203THF     C3 4569   0.030   4.849   5.423 -0.5055 -0.2282  0.1973
  203THF     H4 4570   0.111   4.563   5.307 -0.1102 -1.5184 -0.0167
  203THF     H5 4571  -0.057   4.595   5.370  0.7678 -1.1369  0.1341
  203THF     H6 4572   0.054   4.955   5.410  0.6023 -0.5286 -0.3132
  203THF     H7 4573  -0.079   4.852   5.434 -0.5402  2.5672 -0.1807
  203THF     C8 4574   0.098   4.782   5.544 -0.3065  0.2436  0.3851
  203THF     C9 4575   0.100   4.628   5.512  0.1356  0.1549  0.6027
  203THF    H10 4576   0.028   4.803   5.625 -1.2043 -1.5458  0.1300
  203THF    H11 4577   0.199   4.816   5.563 -0.3251  1.0286 -0.8060
  203THF    H12 4578   0.201   4.587   5.509 -1.0354 -3.2329  2.3145
  203THF    H13 4579   0.049   4.566   5.585  0.7396 -2.3106 -0.9499
  204THF     O1 4580   1.616   1.844   0.028 -0.5293 -0.2487  0.3045
  204THF     C2 4581   1.701   1.738   0.066 -0.6461 -0.4437 -0.5132
  204THF     C3 4582   1.639   1.960   0.097  0.0258 -0.4060 -0.8296
  204THF     H4 4583   1.709   1.659  -0.008  0.6533  0.3221 -1.2442
  204THF     H5 4584   1.674   1.681   0.154  1.8969 -4.1351 -1.8897
  204THF     H6 4585   1.617   2.040   0.025 -0.0593 -1.3780 -1.9151
  204THF     H7 4586   1.593   1.973   0.195  3.9264 -0.8417  1.2533
  204THF     C8 4587   1.789   1.959   0.119 -0.5424  0.4927  0.2159
  204THF     C9 4588   1.833   1.815   0.081 -0.6435 -0.5036  0.9095
  204THF    H10 4589   1.818   1.988   0.220  0.2468 -0.8225  0.3905
  204THF    H11 4590   1.839   2.035   0.058  1.8941 -0.1788  1.2424
  204THF    H12 4591   1.881   1.817  -0.016  0.0950  0.3245  1.2754
  204THF    H13 4592   1.906   1.767   0.146  1.2449  0.0304 -0.7308
  205THF     O1 4593   0.141   1.571   1.239  0.0227 -0.5863 -0.3433
  205THF     C2 4594   0.274   1.585   1.196  0.0751  0.8031  0.3694
  205THF     C3 4595   0.125   1.675   1.337  0.5092  0.5565  0.0188
  205THF     H4 4596   0.273   1.565   1.089  0.2304 -0.0648  0.5180
  205THF     H5 4597   0.341   1.508   1.237  0.6476  1.0950  0.0006
  205THF     H6 4598   0.021   1.698   1.363  0.5429 -1.4284  2.2068
  205THF     H7 4599   0.177   1.656   1.431 -1.2212  0.8910  1.0898
  205THF     C8 4600   0.193   1.798   1.269 -0.8828  0.1608  0.4331
  205THF     C9 4601   0.323   1.723   1.219  0.5980 -0.6823 -0.5130
  205THF    H10 4602   0.209   1.874   1.346  1.5923  1.4955 -1.2675
  205THF    H11 4603   0.126   1.836   1.191 -0.3654 -1.3558 -0.8074
  205THF    H12 4604   0.366   1.771   1.131  0.6154 -0.9193 -0.6346
  205THF    H13 4605   0.398   1.727   1.298  0.6234 -2.3833 -0.4052
  206THF     O1 4606   2.527   3.438   0.974  0.2561  0.0106  0.7209
  206THF     C2 4607   2.570   3.308   0.961  0.0001  0.6058  0.0928
  206THF     C3 4608   2.390   3.449   1.026 -0.2305  0.0245  0.2002
  206THF     H4 4609   2.636   3.266   1.037  0.5764 -0.0611 -0.7519
  206THF     H5 4610   2.626   3.306   0.868  1.7406 -2.6719  1.0324
  206THF     H6 4611   2.382   3.517   1.111 -0.3670 -1.0660  1.0778
  206THF     H7 4612   2.327   3.494   0.949 -0.4084  1.1768  0.9981
  206THF     C8 4613   2.352   3.307   1.056 -0.2646  0.2343 -0.2173
  206THF     C9 4614   2.440   3.230   0.961 -0.2169  0.5622 -0.3537
  206THF    H10 4615   2.246   3.287   1.049 -0.0405 -1.6150  0.9107
  206THF    H11 4616   2.386   3.274   1.154  1.6526 -1.5606 -1.3990
  206THF    H12 4617   2.458   3.128   0.995 -0.0117  1.0760  1.1164
  206THF    H13 4618   2.394   3.226   0.862 -1.2266 -1.6080  0.1297
  207THF     O1 4619   4.930   0.232   1.338  0.0988 -0.1347 -0.1359
  207THF     C2 4620   4.977   0.362   1.304  1.1312  0.4979 -0.6734
  207THF     C3 4621   4.812   0.242   1.412  0.1585 -0.4226 -0.2294
  207THF     H4 4622   4.919   0.395   1.218 -1.0194  0.2854  0.6208
  207THF     H5 4623   5.082   0.363   1.272  0.9569 -0.8113 -1.3785
  207THF     H6 4624   4.732   0.258   1.340  1.8914  3.4330 -1.5602
  207THF     H7 4625   4.779   0.155   1.469 -2.1771  0.3236 -0.3374
  207THF     C8 4626   4.830   0.377   1.498 -0.3060 -0.1569 -0.0643
  207THF     C9 4627   4.947   0.445   1.430  0.1547  0.5176  0.0861
  207THF    H10 4628   4.855   0.352   1.601  0.0297  2.3785  0.5401
  207THF    H11 4629   4.738   0.434   1.512 -0.5579 -0.6422  0.2848
  207THF    H12 4630   4.940   0.553   1.422  0.3061  0.6793  1.7202
  207THF    H13 4631   5.027   0.419   1.500 -0.2113 -1.1731 -0.0895
  208THF     O1 4632   0.395   4.035   2.923 -0.1147  0.1171  0.0224
  208THF     C2 4633   0.499   3.942   2.950 -0.2768 -0.5473 -0.3484
  208THF     C3 4634   0.278   3.960   2.897  0.1828  0.3419  0.6841
  208THF     H4 4635   0.489   3.912   3.054  1.5582 -0.9614 -0.2548
  208THF     H5 4636   0.600   3.983   2.938 -1.3719  1.9983 -1.4814
  208THF     H6 4637   0.236   3.920   2.989 -0.0381  0.5036  0.6532
  208THF     H7 4638   0.196   4.017   2.854  1.8000  2.3955  0.1462
  208THF     C8 4639   0.324   3.845   2.804 -0.4340 -0.3960  0.7673
  208THF     C9 4640   0.470   3.827   2.843  0.7118  0.1024  0.6154
  208THF    H10 4641   0.310   3.877   2.701 -0.2311  1.5800  1.3192
  208THF    H11 4642   0.274   3.748   2.813 -3.3356  0.8031 -1.1079
  208THF    H12 4643   0.501   3.724   2.854  1.3393 -0.0287 -1.7756
  208THF    H13 4644   0.535   3.852   2.759 -1.0057 -0.7452 -1.0469
  209THF     O1 4645   2.134   0.231   5.118  0.1132 -0.2121 -0.1036
  209THF     C2 4646   2.131   0.362   5.172 -0.6774  0.9877  0.1362
  209THF     C3 4647   2.052   0.150   5.199 -0.4350 -0.0196 -0.0936
  209THF     H4 4648   2.053   0.413   5.114 -0.2678  0.8311 -0.5568
  209THF     H5 4649   2.227   0.411   5.158 -0.6262  0.3823 -2.0227
  209THF     H6 4650   1.947   0.166   5.177 -0.6826  0.2246  1.1796
  209THF     H7 4651   2.077   0.045   5.188 -0.6871 -0.0386 -0.5049
  209THF     C8 4652   2.072   0.199   5.338  0.6318  0.4112 -0.4671
  209THF     C9 4653   2.096   0.350   5.318  0.3413 -0.6066 -0.0750
  209THF    H10 4654   2.163   0.164   5.386 -0.3293 -1.9098 -0.2296
  209THF    H11 4655   1.995   0.189   5.415  1.1529  1.9227  0.2931
  209THF    H12 4656   2.004   0.408   5.331  1.1150  0.2649  1.9422
  209THF    H13 4657   2.171   0.393   5.385  0.9253 -2.3305  0.4350
  210THF     O1 4658   3.247   2.322   2.909  0.0780  0.1849 -0.1757
  210THF     C2 4659   3.108   2.312   2.945  0.0815 -0.1510  0.5580
  210THF     C3 4660   3.329   2.240   2.994  0.1135  0.0013 -0.0119
  210THF     H4 4661   3.054   2.237   2.887 -1.5828  0.3780  1.3571
  210THF     H5 4662   3.056   2.406   2.927 -0.3144 -0.7881 -2.0193
  210THF     H6 4663   3.329   2.142   2.946 -1.1592 -0.0056 -0.0286
  210THF     H7 4664   3.429   2.283   2.990  0.6947 -1.3963 -1.5617
  210THF     C8 4665   3.262   2.245   3.128 -0.4539 -0.2640  0.6688
  210THF     C9 4666   3.112   2.266   3.088  0.0845  0.1333 -0.0156
  210THF    H10 4667   3.309   2.320   3.192  1.7976  0.0321 -1.2344
  210THF    H11 4668   3.285   2.152   3.178  4.1592 -0.5436 -1.5061
  210THF    H12 4669   3.056   2.173   3.089  0.2057  0.0397 -1.1347
  210THF    H13 4670   3.060   2.336   3.153  1.2015  0.4399  0.5882
  211THF     O1 4671   4.517   4.533   4.702  0.3707 -0.6290 -0.1879
  211THF     C2 4672   4.498   4.657   4.776 -0.3745 -0.1729  0.6416
  211THF     C3 4673   4.395   4.533   4.632 -0.3758  0.1324  0.3155
  211THF     H4 4674   4.504   4.733   4.699 -1.1697  0.3824  1.1149
  211THF     H5 4675   4.580   4.675   4.844 -1.3641 -0.2783  1.9072
  211THF     H6 4676   4.393   4.602   4.549  0.4787 -0.5580 -0.3020
  211THF     H7 4677   4.402   4.439   4.577  3.6367  1.2813 -1.4969
  211THF     C8 4678   4.281   4.555   4.733  0.1411  0.5790 -0.3842
  211THF     C9 4679   4.352   4.649   4.826 -0.3354 -0.1769 -0.9861
  211THF    H10 4680   4.258   4.465   4.790  0.6411  1.4535  1.2338
  211THF    H11 4681   4.196   4.592   4.676 -0.7525  0.4432  0.8166
  211THF    H12 4682   4.313   4.750   4.837  1.6219  0.3044  3.9835
  211THF    H13 4683   4.350   4.616   4.930  0.5704 -2.1670 -1.5573
  212THF     O1 4684   0.277   0.796   5.148  0.5913 -0.5905  0.2184
  212THF     C2 4685   0.413   0.830   5.161  0.2174 -0.2948 -0.1876
  212THF     C3 4686   0.235   0.866   5.034  0.0785 -0.3945  0.2316
  212THF     H4 4687   0.450   0.774   5.247  0.6849  0.3174  0.0172
  212THF     H5 4688   0.433   0.934   5.185 -0.0091 -0.3119  0.0823
  212THF     H6 4689   0.142   0.824   4.995 -1.0964  0.9234  1.5429
  212THF     H7 4690   0.220   0.972   5.051  1.4868 -0.2524  0.6982
  212THF     C8 4691   0.350   0.839   4.939  0.1225 -0.2756 -0.1516
  212THF     C9 4692   0.467   0.800   5.023  0.2297 -0.4769  0.0177
  212THF    H10 4693   0.374   0.932   4.887  4.9182 -1.0636  0.2364
  212THF    H11 4694   0.336   0.758   4.867 -1.1866 -0.1527 -0.0571
  212THF    H12 4695   0.491   0.694   5.018  1.4894 -0.3505  2.2140
  212THF    H13 4696   0.556   0.858   4.997 -0.5722  0.4764 -0.6706
  213THF     O1 4697   1.653   1.674   2.119  0.1191 -0.0248 -0.1781
  213THF     C2 4698   1.635   1.548   2.073  0.2564  0.8655  0.1416
  213THF     C3 4699   1.593   1.688   2.246  0.3200  0.0180  0.5633
  213THF     H4 4700   1.718   1.514   2.012 -0.0650 -0.2870  0.3312
  213THF     H5 4701   1.544   1.541   2.013 -1.2430  1.4508  2.2454
  213THF     H6 4702   1.660   1.712   2.328 -1.1657  0.7868  1.6081
  213THF     H7 4703   1.524   1.771   2.234 -1.2568 -1.3390 -0.2961
  213THF     C8 4704   1.529   1.560   2.289 -0.4156 -0.5353  0.0549
  213THF     C9 4705   1.604   1.462   2.197 -0.2593 -0.1432  0.0830
  213THF    H10 4706   1.422   1.550   2.275 -0.9178  2.6469  0.9928
  213THF    H11 4707   1.548   1.546   2.395 -0.1634 -1.6849 -0.1308
  213THF    H12 4708   1.699   1.430   2.240 -0.8966 -1.2285  0.7603
  213THF    H13 4709   1.559   1.366   2.169  0.0767  0.1389 -1.4555
  214THF     O1 4710   3.433   5.487   3.708  0.2049 -0.1946  0.2919
  214THF     C2 4711   3.360   5.600   3.753 -0.7620  0.7346 -0.2576
  214THF     C3 4712   3.344   5.375   3.702 -0.1923  0.1341  0.1612
  214THF     H4 4713   3.414   5.685   3.711 -0.9884 -0.4790 -3.3134
  214THF     H5 4714   3.351   5.599   3.861 -0.5843 -0.1343 -0.2412
  214THF     H6 4715   3.373   5.293   3.635  1.3359  0.4626  0.3710
  214THF     H7 4716   3.347   5.327   3.800 -2.4810  2.1021  1.2920
  214THF     C8 4717   3.209   5.429   3.662  0.4514  0.1220 -0.0055
  214THF     C9 4718   3.218   5.576   3.690 -0.0233 -0.3805  0.4507
  214THF    H10 4719   3.128   5.375   3.713 -0.9784 -0.7587 -2.9799
  214THF    H11 4720   3.182   5.402   3.560 -3.0379 -1.4202  1.1631
  214THF    H12 4721   3.229   5.626   3.594 -0.7988  2.9296  1.9632
  214THF    H13 4722   3.132   5.620   3.741 -0.6534 -2.4740  1.3278
  215THF     O1 4723   3.257   1.516   3.949 -0.3929  0.5004  0.0282
  215THF     C2 4724   3.112   1.512   3.947  0.1174  0.4529  0.3501
  215THF     C3 4725   3.297   1.390   3.885 -0.1492  0.1006 -0.0571
  215THF     H4 4726   3.069   1.534   3.849 -2.2823 -3.5623  0.2622
  215THF     H5 4727   3.062   1.582   4.014 -0.6679 -0.2836  0.5578
  215THF     H6 4728   3.292   1.400   3.777  1.4124  0.8400 -0.0848
  215THF     H7 4729   3.393   1.344   3.909  0.2744 -0.8471 -3.1328
  215THF     C8 4730   3.189   1.289   3.925  0.2168 -0.6261 -0.0411
  215THF     C9 4731   3.068   1.365   3.975  0.5647  0.4940  0.1031
  215THF    H10 4732   3.233   1.223   4.000  0.7017  1.6444  1.7775
  215THF    H11 4733   3.163   1.229   3.838  0.0476 -1.1561  0.3633
  215THF    H12 4734   2.979   1.338   3.918  1.1029  0.0292 -0.5331
  215THF    H13 4735   3.065   1.337   4.080 -0.5781  0.8045  0.1717
  216THF     O1 4736   1.527   3.017   2.764  0.4261 -0.2948  0.1380
  216THF     C2 4737   1.388   2.997   2.785  0.3230 -0.9936 -1.1690
  216THF     C3 4738   1.582   2.906   2.692 -0.1925  1.1435  0.1109
  216THF     H4 4739   1.335   3.092   2.789 -0.1045 -1.2577 -0.3808
  216THF     H5 4740   1.374   2.963   2.888 -1.2513 -0.1733 -1.0777
  216THF     H6 4741   1.608   2.936   2.590  1.1670  1.0927  0.4123
  216THF     H7 4742   1.664   2.857   2.745 -0.5386  1.2287  0.7351
  216THF     C8 4743   1.468   2.799   2.676  0.2707 -0.5486 -0.1201
  216THF     C9 4744   1.349   2.896   2.682  0.0941  1.1252  0.1108
  216THF    H10 4745   1.474   2.734   2.764 -1.9234  1.5383  1.6968
  216THF    H11 4746   1.471   2.729   2.592 -1.9259 -0.5305 -0.2922
  216THF    H12 4747   1.336   2.945   2.586 -1.7091  3.1277  1.2953
  216THF    H13 4748   1.251   2.852   2.702 -0.3631  2.8990  2.1292
  217THF     O1 4749   2.635   1.603   3.856  0.6353  0.3679  0.2322
  217THF     C2 4750   2.509   1.543   3.868  0.0467 -0.0642  0.0466
  217THF     C3 4751   2.729   1.493   3.855  0.7206 -0.1292  0.2855
  217THF     H4 4752   2.437   1.623   3.850  0.6077  0.4852  0.2274
  217THF     H5 4753   2.497   1.504   3.970  1.2853  2.4259  1.2260
  217THF     H6 4754   2.825   1.527   3.816  1.0178 -1.2887 -0.0552
  217THF     H7 4755   2.751   1.461   3.957  1.8402 -0.8474 -0.1678
  217THF     C8 4756   2.660   1.383   3.771  0.5908 -0.2527  0.8518
  217THF     C9 4757   2.514   1.419   3.783 -0.2465 -0.5540  0.1539
  217THF    H10 4758   2.678   1.283   3.810  0.8621 -0.4640  0.2128
  217THF    H11 4759   2.692   1.389   3.667 -0.0127  1.5436  0.7419
  217THF    H12 4760   2.490   1.444   3.679 -1.3666 -2.0634  0.0218
  217THF    H13 4761   2.445   1.344   3.822  0.3292 -1.1031  0.1277
  218THF     O1 4762   2.616   1.088   4.175  0.4631  0.8823 -0.8966
  218THF     C2 4763   2.743   1.110   4.121 -0.1865 -0.3569 -0.5803
  218THF     C3 4764   2.546   1.203   4.155 -0.1820 -0.1979  0.1768
  218THF     H4 4765   2.738   1.113   4.012 -1.7563 -1.0960 -0.5474
  218THF     H5 4766   2.812   1.029   4.145  1.2960  0.8516 -0.6429
  218THF     H6 4767   2.507   1.208   4.053  0.6084  0.4463 -0.1094
  218THF     H7 4768   2.457   1.208   4.217  0.8037 -2.6126  1.9064
  218THF     C8 4769   2.642   1.313   4.201  0.2207  0.2955 -0.3706
  218THF     C9 4770   2.777   1.234   4.196  0.5434 -0.2357  0.9889
  218THF    H10 4771   2.620   1.355   4.299 -0.1127 -0.5795 -0.0597
  218THF    H11 4772   2.634   1.387   4.121 -0.0474  0.7343  0.0586
  218THF    H12 4773   2.849   1.288   4.136  0.1228  1.3771  1.8792
  218THF    H13 4774   2.819   1.205   4.293 -1.0757  1.3460  2.2309
  219THF     O1 4775   2.144   1.620   3.047  1.1334  0.5404 -0.3221
  219THF     C2 4776   2.065   1.560   2.937  0.4559  0.4521 -0.4261
  219THF     C3 4777   2.127   1.552   3.172  0.0232  1.0028 -0.3483
  219THF     H4 4778   2.109   1.599   2.845  0.6458  1.0540 -0.0815
  219THF     H5 4779   1.965   1.602   2.945 -0.1507 -0.9546 -0.2567
  219THF     H6 4780   2.226   1.538   3.215 -1.2499 -0.7767  2.2434
  219THF     H7 4781   2.062   1.611   3.236 -0.4438 -2.5165  2.7377
  219THF     C8 4782   2.071   1.414   3.123 -0.0690  0.1307 -0.4818
  219THF     C9 4783   2.063   1.405   2.969  1.3815 -0.2846  0.0890
  219THF    H10 4784   1.972   1.418   3.167  0.3225  0.0492  0.4210
  219THF    H11 4785   2.119   1.329   3.172  0.3953  0.0443 -1.0756
  219THF    H12 4786   2.158   1.368   2.930  2.2463  0.9147  0.9581
  219THF    H13 4787   1.968   1.370   2.930  1.3107  1.1326 -1.1002
  220THF     O1 4788   0.546   0.204   3.441  0.1351 -0.0409 -0.0315
  220THF     C2 4789   0.526   0.346   3.432 -0.2007  0.4208  0.5731
  220THF     C3 4790   0.573   0.170   3.571  0.1965  0.2229  0.6741
  220THF     H4 4791   0.425   0.378   3.405 -0.2688 -1.0129 -1.0686
  220THF     H5 4792   0.586   0.389   3.352  0.5199 -0.3134  0.7006
  220THF     H6 4793   0.485   0.134   3.625 -0.0716 -0.4769 -0.2051
  220THF     H7 4794   0.650   0.093   3.571  0.9081  0.8535  2.7635
  220THF     C8 4795   0.651   0.282   3.625 -0.3530  0.0396 -0.2629
  220THF     C9 4796   0.575   0.401   3.567  0.3300  0.1142  0.3820
  220THF    H10 4797   0.750   0.270   3.581 -1.0977 -2.2982 -1.4978
  220THF    H11 4798   0.661   0.269   3.733  1.5829 -1.6534 -0.5703
  220THF    H12 4799   0.494   0.431   3.634 -0.1900  0.0868 -0.2329
  220THF    H13 4800   0.634   0.490   3.543 -0.0942 -0.2609 -2.2678
  221THF     O1 4801   0.681   3.640   0.829 -0.3786 -0.2781 -0.4908
  221THF     C2 4802   0.777   3.716   0.749  0.2180 -0.1562 -0.3206
  221THF     C3 4803   0.716   3.666   0.961  0.6814 -0.3455  0.2636
  221THF     H4 4804   0.751   3.822   0.740 -0.7515 -0.5484 -3.2449
  221THF     H5 4805   0.790   3.678   0.648  2.1761 -0.7321  0.0980
  221THF     H6 4806   0.705   3.769   0.998  0.4245  0.3982 -1.7770
  221THF     H7 4807   0.660   3.602   1.029  2.4388 -1.4901  0.6697
  221THF     C8 4808   0.862   3.635   0.950  0.2419 -0.2193  0.7460
  221THF     C9 4809   0.914   3.701   0.823 -0.1396 -0.7389 -0.2301
  221THF    H10 4810   0.870   3.528   0.933  2.1157  0.1039 -0.7182
  221THF    H11 4811   0.906   3.655   1.047  1.2180 -1.4178  0.5765
  221THF    H12 4812   0.948   3.803   0.843 -0.8259 -0.4664 -0.3977
  221THF    H13 4813   0.998   3.650   0.777  0.9159 -1.5227  2.3644
  222THF     O1 4814   1.648   4.348   4.825 -0.4652 -0.4559 -0.1777
  222THF     C2 4815   1.737   4.245   4.788  0.1260 -0.5240 -0.1816
  222THF     C3 4816   1.725   4.462   4.860  0.3199 -0.4489 -0.4768
  222THF     H4 4817   1.683   4.185   4.714 -0.5373 -0.7941  0.5064
  222THF     H5 4818   1.753   4.164   4.859 -3.0757 -1.0364  0.1256
  222THF     H6 4819   1.666   4.554   4.857 -0.4918 -0.9276 -3.8721
  222THF     H7 4820   1.751   4.442   4.964 -0.5693 -2.5263 -0.6020
  222THF     C8 4821   1.842   4.461   4.772  0.6128  0.2349  0.7123
  222THF     C9 4822   1.866   4.315   4.738  0.3732  0.1799 -0.2307
  222THF    H10 4823   1.939   4.486   4.816  1.2055 -1.5740  0.5432
  222THF    H11 4824   1.826   4.510   4.676  0.2055 -0.8368  0.2081
  222THF    H12 4825   1.867   4.305   4.629 -0.9268  0.7099 -0.3103
  222THF    H13 4826   1.942   4.257   4.790 -0.8353 -1.5589 -0.3215
  223THF     O1 4827   0.022   0.129   1.562  0.1276  0.0753 -0.0573
  223THF     C2 4828   0.075   0.137   1.695  0.0747  0.1719  0.1730
  223THF     C3 4829  -0.106   0.070   1.574  0.1006  0.3173  0.6793
  223THF     H4 4830   0.169   0.192   1.703 -0.2825  1.0268 -1.1584
  223THF     H5 4831   0.089   0.034   1.730 -1.9061 -0.5326 -0.9452
  223THF     H6 4832  -0.165   0.093   1.485 -0.6474  1.2099  1.3919
  223THF     H7 4833  -0.096  -0.036   1.596 -2.3747 -0.4234 -1.3129
  223THF     C8 4834  -0.161   0.138   1.708 -0.0408  0.0135 -0.1195
  223THF     C9 4835  -0.037   0.204   1.772 -0.4139 -0.0594  0.3067
  223THF    H10 4836  -0.199   0.065   1.780  0.5865  1.9570  2.2958
  223THF    H11 4837  -0.237   0.210   1.680 -0.2417  0.5463  1.6940
  223THF    H12 4838  -0.020   0.308   1.747  0.0056 -0.2037 -0.0250
  223THF    H13 4839  -0.043   0.188   1.880 -0.1761  2.2215  0.7046
  224THF     O1 4840   2.805   5.324   2.121 -0.0293 -0.4133 -0.0431
  224THF     C2 4841   2.863   5.239   2.223  0.7972 -0.0785 -0.2448
  224THF     C3 4842   2.905   5.393   2.056 -0.4361  0.5158  0.1056
  224THF     H4 4843   2.840   5.133   2.212 -0.4505  0.2783 -1.3446
  224THF     H5 4844   2.844   5.276   2.324  4.4711 -0.5233  0.7586
  224THF     H6 4845   2.873   5.391   1.952 -0.6355 -1.4569  0.1646
  224THF     H7 4846   2.917   5.494   2.096  0.9872  0.0739  0.8875
  224THF     C8 4847   3.035   5.305   2.073 -0.7566  0.1802 -0.4034
  224THF     C9 4848   3.018   5.250   2.214 -0.2619 -0.6258 -0.5183
  224THF    H10 4849   3.123   5.366   2.054  0.2648 -0.4978  1.8154
  224THF    H11 4850   3.028   5.221   2.004 -0.0660 -0.9785  0.8860
  224THF    H12 4851   3.062   5.152   2.233 -0.5660 -0.8692 -1.0384
  224THF    H13 4852   3.061   5.315   2.290 -0.1260  0.1666 -1.2554
  225THF     O1 4853   1.707   4.953   1.558 -0.1113  0.3123  0.0860
  225THF     C2 4854   1.645   5.064   1.492 -0.3714 -0.1014  0.2416
  225THF     C3 4855   1.703   4.971   1.696  0.4171 -0.5385  0.3974
  225THF     H4 4856   1.635   5.050   1.385  0.4732  0.8210  0.0257
  225THF     H5 4857   1.697   5.155   1.523 -1.9285  0.8816  0.0591
  225THF     H6 4858   1.705   4.879   1.755 -2.0639  0.6812  2.6292
  225THF     H7 4859   1.784   5.036   1.728  1.1885 -1.1036 -0.3845
  225THF     C8 4860   1.567   5.035   1.719  0.3776 -0.5138 -0.5225
  225THF     C9 4861   1.514   5.065   1.571  0.2613  0.2654 -0.4384
  225THF    H10 4862   1.560   5.129   1.775  1.5421 -0.0731 -1.0859
  225THF    H11 4863   1.495   4.973   1.772 -1.3871  1.8822  0.0665
  225THF    H12 4864   1.472   4.971   1.535  2.8472 -0.8219 -0.8272
  225THF    H13 4865   1.449   5.152   1.568  0.0933  0.2521  1.4730
  226THF     O1 4866   5.078   0.598   5.366  0.0435 -0.0662 -1.0142
  226THF     C2 4867   5.083   0.666   5.242  0.3313 -0.2438  0.5909
  226THF     C3 4868   5.116   0.698   5.456  0.0861 -0.6438 -0.2120
  226THF     H4 4869   5.032   0.606   5.166 -0.8522 -1.2170  2.0921
  226THF     H5 4870   5.187   0.686   5.214  0.4358 -0.3800  0.8836
  226THF     H6 4871   5.093   0.675   5.560 -0.3832  2.0966  0.3713
  226THF     H7 4872   5.223   0.710   5.437 -0.3153  0.0247 -2.3138
  226THF     C8 4873   5.053   0.829   5.409 -0.5245  0.1405 -0.9307
  226THF     C9 4874   5.019   0.800   5.263 -0.8794 -0.7454  0.1370
  226THF    H10 4875   5.126   0.910   5.410 -1.2696  0.9106  2.1360
  226THF    H11 4876   4.971   0.871   5.468 -1.2018 -0.4195 -1.4488
  226THF    H12 4877   4.912   0.788   5.252 -0.8504 -0.7000 -0.2146
  226THF    H13 4878   5.058   0.878   5.198 -0.0725 -1.4402 -0.2384
  227THF     O1 4879   1.894   0.889   1.666  0.2284 -0.1844  0.5965
  227THF     C2 4880   2.019   0.830   1.633 -0.7094 -0.0189 -0.4549
  227THF     C3 4881   1.801   0.893   1.557  0.3346  0.4499  0.7818
  227THF     H4 4882   2.043   0.746   1.698  1.9552  1.0907  0.1668
  227THF     H5 4883   2.101   0.902   1.640  0.3032 -0.9955 -1.8122
  227THF     H6 4884   1.757   0.794   1.568 -1.2393  0.8953 -0.9255
  227THF     H7 4885   1.737   0.981   1.555  0.2433  0.4065 -1.7439
  227THF     C8 4886   1.888   0.900   1.440 -0.3204 -0.2621 -0.2620
  227THF     C9 4887   2.002   0.801   1.489 -0.6479 -0.2561 -0.4857
  227THF    H10 4888   1.920   1.003   1.432  0.1825 -0.4735 -1.0103
  227THF    H11 4889   1.837   0.867   1.350 -0.3294  0.1391 -0.4051
  227THF    H12 4890   1.971   0.696   1.492  0.0759 -0.4739  2.4608
  227THF    H13 4891   2.095   0.804   1.433 -1.1610  1.5765 -1.3062
  228THF     O1 4892   2.367   2.813   2.283 -0.2321 -0.1709 -0.4843
  228THF     C2 4893   2.490   2.862   2.241 -0.0104  0.0942  0.9647
  228THF     C3 4894   2.372   2.782   2.428  0.4611 -0.7190  0.5169
  228THF     H4 4895   2.470   2.927   2.156  0.5390 -0.4602  0.4050
  228THF     H5 4896   2.564   2.786   2.213 -0.6730 -0.0879 -0.3303
  228THF     H6 4897   2.277   2.792   2.479 -0.8850 -1.7347 -1.6570
  228THF     H7 4898   2.404   2.678   2.435 -1.0244 -1.5491 -2.9655
  228THF     C8 4899   2.477   2.876   2.478 -0.1467 -0.2552  0.2219
  228THF     C9 4900   2.535   2.950   2.351  0.0484 -0.0479 -0.1638
  228THF    H10 4901   2.555   2.817   2.526 -1.4323 -1.3391  1.0525
  228THF    H11 4902   2.443   2.951   2.549  2.3977 -0.6011  1.9309
  228THF    H12 4903   2.484   3.046   2.348  0.5558  0.2628  0.9593
  228THF    H13 4904   2.641   2.970   2.343 -0.1565  1.2155  0.0523
  229THF     O1 4905   2.578   4.313   4.007 -0.1762  0.4346 -0.1503
  229THF     C2 4906   2.584   4.199   4.088  0.7798  0.2520  0.0894
  229THF     C3 4907   2.593   4.425   4.092 -0.2544  0.0010  0.1738
  229THF     H4 4908   2.682   4.173   4.130 -0.4690 -3.3312  1.1158
  229THF     H5 4909   2.549   4.108   4.039  0.0707  1.4059 -1.6433
  229THF     H6 4910   2.700   4.431   4.111 -0.3195  5.2694  0.4911
  229THF     H7 4911   2.566   4.518   4.040 -1.5946 -0.4083  0.1033
  229THF     C8 4912   2.507   4.398   4.212  0.0035  0.1314 -0.2875
  229THF     C9 4913   2.499   4.242   4.206 -1.3901  0.1350 -0.3174
  229THF    H10 4914   2.404   4.432   4.200 -0.3399 -0.9169 -0.4002
  229THF    H11 4915   2.544   4.436   4.307 -0.4365 -2.6403  1.0667
  229THF    H12 4916   2.542   4.211   4.301 -1.7607  2.5962  0.7214
  229THF    H13 4917   2.394   4.212   4.200 -1.5404 -0.3608  3.0346
  230THF     O1 4918   0.084   5.345   0.668 -0.0159  0.2648  0.2550
  230THF     C2 4919   0.170   5.360   0.562 -0.2106 -0.1026 -0.2175
  230THF     C3 4920   0.015   5.474   0.685  0.7080  0.4344 -0.6769
  230THF     H4 4921   0.099   5.343   0.481 -1.1317  1.1100  0.3031
  230THF     H5 4922   0.256   5.293   0.566 -0.1570 -0.0077  0.3154
  230THF     H6 4923  -0.074   5.471   0.622  1.4906  1.0773 -1.8388
  230THF     H7 4924  -0.029   5.490   0.783  2.3130  4.2628 -0.4426
  230THF     C8 4925   0.115   5.586   0.635  0.2496  0.5084 -0.2393
  230THF     C9 4926   0.225   5.507   0.571 -0.5364 -0.5248 -0.5758
  230THF    H10 4927   0.156   5.647   0.715  0.5432  0.3252 -0.2476
  230THF    H11 4928   0.073   5.658   0.565  0.4401  1.6933  0.8400
  230THF    H12 4929   0.239   5.540   0.468 -1.9072  1.8422 -0.0626
  230THF    H13 4930   0.319   5.500   0.628 -1.4446  0.3575  1.1075
  231THF     O1 4931   3.767   3.330   4.409  0.2425 -0.1522 -0.2426
  231THF     C2 4932   3.809   3.452   4.457  0.4323 -0.4789 -0.4076
  231THF     C3 4933   3.661   3.350   4.315  0.6299 -0.1325  0.1846
  231THF     H4 4934   3.914   3.476   4.440 -0.0765  2.2971 -0.0467
  231THF     H5 4935   3.809   3.448   4.566 -2.1004 -0.2044 -0.3385
  231THF     H6 4936   3.699   3.383   4.218  0.6966  0.1265  0.2985
  231THF     H7 4937   3.598   3.262   4.309 -0.1913  0.4674 -0.1879
  231THF     C8 4938   3.584   3.473   4.379 -0.1992 -0.2352  0.3400
  231THF     C9 4939   3.700   3.558   4.420  0.5162 -0.6129 -0.2136
  231THF    H10 4940   3.533   3.440   4.469  2.6371 -1.3488  1.6808
  231THF    H11 4941   3.519   3.517   4.303 -0.0844  0.6567  0.7511
  231THF    H12 4942   3.744   3.624   4.345 -1.0231 -0.3418 -0.9000
  231THF    H13 4943   3.681   3.631   4.498 -0.1081  0.0325 -0.9603
  232THF     O1 4944   1.577   2.627   4.031 -0.3353 -0.0382 -0.1613
  232THF     C2 4945   1.618   2.720   3.926 -0.1257  0.2501 -0.8815
  232THF     C3 4946   1.447   2.580   3.999 -0.5339  0.0621  0.8801
  232THF     H4 4947   1.676   2.670   3.849 -1.3261 -1.9395 -0.4442
  232THF     H5 4948   1.683   2.800   3.962  0.3019 -0.0081 -1.0800
  232THF     H6 4949   1.454   2.471   4.002  0.4020  0.0808  0.0412
  232THF     H7 4950   1.375   2.619   4.070 -0.1354  1.0724  0.7535
  232THF     C8 4951   1.407   2.633   3.857  0.3456  0.4033 -0.0409
  232THF     C9 4952   1.493   2.759   3.845  0.4172  0.3238 -0.6131
  232THF    H10 4953   1.306   2.671   3.843  0.2888 -0.3135 -1.9620
  232THF    H11 4954   1.424   2.554   3.784 -0.4498  0.4341 -0.2707
  232THF    H12 4955   1.518   2.767   3.740  2.1682 -0.9873 -0.3440
  232THF    H13 4956   1.444   2.847   3.887  0.8057 -0.2052  1.0416
  233THF     O1 4957   3.946   3.677   0.289  0.4545 -0.1067  0.6253
  233THF     C2 4958   4.057   3.673   0.379 -0.1953 -0.1126  0.1031
  233THF     C3 4959   3.993   3.644   0.161  0.2067  0.6595  0.2403
  233THF     H4 4960   4.047   3.580   0.434  0.7089  0.1952  0.8067
  233THF     H5 4961   4.063   3.758   0.447 -1.8731  0.1876 -0.0777
  233THF     H6 4962   3.942   3.567   0.104  0.7636  1.1039 -0.8938
  233THF     H7 4963   4.008   3.731   0.098  0.1103 -0.5312 -1.5064
  233THF     C8 4964   4.130   3.582   0.179 -0.2372  0.3587  0.0753
  233THF     C9 4965   4.184   3.656   0.295  0.0149  0.0025 -0.6234
  233THF    H10 4966   4.195   3.590   0.092 -2.9154 -1.1147 -2.2500
  233THF    H11 4967   4.115   3.477   0.205  1.0439  0.4129  1.1558
  233THF    H12 4968   4.259   3.609   0.359 -0.5457  1.8775  1.5741
  233THF    H13 4969   4.228   3.749   0.258  1.9184 -0.8893 -0.7050
  234THF     O1 4970   0.757   4.539   4.012 -0.2922  0.9771 -0.4376
  234THF     C2 4971   0.669   4.446   4.092 -0.0756  0.0872 -0.6310
  234THF     C3 4972   0.740   4.477   3.880 -0.1725 -0.7167 -0.8720
  234THF     H4 4973   0.565   4.461   4.063 -0.0727  0.2780 -0.5474
  234THF     H5 4974   0.665   4.461   4.200 -1.0975 -0.8835 -0.5147
  234THF     H6 4975   0.651   4.528   3.843  0.6497  1.3415 -0.1160
  234THF     H7 4976   0.827   4.503   3.821 -1.9381  2.7297 -2.2131
  234THF     C8 4977   0.729   4.323   3.900 -0.1392 -0.5871  0.1276
  234THF     C9 4978   0.715   4.307   4.047  0.4029 -0.0754  0.3999
  234THF    H10 4979   0.823   4.280   3.868  0.2655  0.6936 -0.4974
  234THF    H11 4980   0.650   4.277   3.840  0.8985  0.0536 -1.8195
  234THF    H12 4981   0.633   4.240   4.073  0.0973 -0.3021 -1.0570
  234THF    H13 4982   0.813   4.282   4.089 -0.1515 -1.4790  0.9140
  235THF     O1 4983   2.325   0.388   1.926  0.3133  0.3774 -0.0141
  235THF     C2 4984   2.194   0.337   1.960 -0.3023  0.1493 -0.1544
  235THF     C3 4985   2.341   0.380   1.783  0.5850  0.1450 -0.3712
  235THF     H4 4986   2.173   0.376   2.060 -0.9915  1.5636 -0.8237
  235THF     H5 4987   2.193   0.228   1.954 -0.6350  0.1828 -0.7739
  235THF     H6 4988   2.416   0.449   1.745 -1.6790  2.8439 -0.2916
  235THF     H7 4989   2.376   0.278   1.766 -0.2250  0.0091 -1.2668
  235THF     C8 4990   2.196   0.409   1.736 -0.3586 -0.4590  0.2308
  235THF     C9 4991   2.105   0.406   1.857 -0.2548  0.0006 -0.6712
  235THF    H10 4992   2.171   0.333   1.662 -0.7324  1.2536 -1.4845
  235THF    H11 4993   2.191   0.500   1.676  1.2391 -0.4682  0.0391
  235THF    H12 4994   2.082   0.505   1.898 -1.4288 -0.9890  1.2263
  235THF    H13 4995   2.008   0.355   1.850  0.6803 -1.6182 -3.0556
  236THF     O1 4996   0.262   2.521   3.314  0.0042  0.3629 -0.3834
  236THF     C2 4997   0.331   2.637   3.273 -0.3960  0.3503  0.1938
  236THF     C3 4998   0.267   2.511   3.455 -0.1833 -1.0624 -0.4189
  236THF     H4 4999   0.258   2.711   3.308 -0.1908  1.2958 -1.2970
  236THF     H5 5000   0.354   2.641   3.167 -1.8712 -2.6391 -0.3337
  236THF     H6 5001   0.177   2.546   3.505 -0.4880 -0.5298 -1.3163
  236THF     H7 5002   0.285   2.406   3.479 -0.4494 -1.3232 -1.3357
  236THF     C8 5003   0.395   2.589   3.498 -0.6126  0.7319 -0.4661
  236THF     C9 5004   0.454   2.628   3.362  0.1148 -0.9847  0.1854
  236THF    H10 5005   0.457   2.521   3.558  2.0551  2.8806 -0.5584
  236THF    H11 5006   0.377   2.682   3.553 -0.1879  0.4704  0.1332
  236THF    H12 5007   0.512   2.720   3.370  0.7589 -1.3145 -0.4708
  236THF    H13 5008   0.523   2.546   3.338  0.8512  0.0361 -1.4033
  237THF     O1 5009   4.713   5.364   4.315 -0.0344  0.4128  0.8275
  237THF     C2 5010   4.698   5.288   4.200  0.4407 -0.3014  0.7927
  237THF     C3 5011   4.828   5.313   4.393  0.4799 -0.2962  0.6827
  237THF     H4 5012   4.757   5.326   4.117  0.3291 -3.2340 -0.7581
  237THF     H5 5013   4.590   5.290   4.180 -0.2313 -0.8941  3.9260
  237THF     H6 5014   4.909   5.382   4.370  0.8593  0.3579  3.5676
  237THF     H7 5015   4.814   5.326   4.501 -1.7397 -0.4832  0.4629
  237THF     C8 5016   4.848   5.167   4.345  0.1986 -0.6881  0.2834
  237THF     C9 5017   4.747   5.150   4.227  0.0338 -0.2807 -0.2076
  237THF    H10 5018   4.826   5.104   4.430 -1.9914  0.9501  1.0280
  237THF    H11 5019   4.953   5.149   4.323 -0.0133 -0.3710 -1.1405
  237THF    H12 5020   4.792   5.118   4.134 -1.1074  1.2553 -1.3324
  237THF    H13 5021   4.666   5.080   4.251 -0.7852  0.6057 -0.3118
  238THF     O1 5022   1.432   0.288   4.771 -0.4770 -0.9196  0.1324
  238THF     C2 5023   1.570   0.310   4.729 -0.7146 -0.5370  0.0529
  238THF     C3 5024   1.429   0.154   4.809  0.3596 -0.1782  0.1944
  238THF     H4 5025   1.628   0.345   4.814  0.5427  1.0711 -1.3764
  238THF     H5 5026   1.581   0.391   4.656 -0.6729 -1.5467 -1.0991
  238THF     H6 5027   1.476   0.138   4.906  1.6726  2.5963  0.1347
  238THF     H7 5028   1.331   0.107   4.818 -0.8756  2.3124  0.9225
  238THF     C8 5029   1.504   0.085   4.702 -0.7744  0.1210  0.2611
  238THF     C9 5030   1.619   0.180   4.677 -0.2882  0.2594  0.8018
  238THF    H10 5031   1.451   0.052   4.612  1.8776 -1.6546 -0.7907
  238THF    H11 5032   1.551  -0.001   4.750 -0.4882  0.5439  0.7408
  238THF    H12 5033   1.707   0.148   4.733 -2.0770 -2.2237  2.4252
  238THF    H13 5034   1.652   0.196   4.575 -1.4949 -1.4010  0.0899
  239THF     O1 5035   3.231   0.656   4.359 -0.9941 -0.0814 -0.1476
  239THF     C2 5036   3.282   0.621   4.490  0.0375  0.2737 -0.1857
  239THF     C3 5037   3.126   0.747   4.388 -0.3891  0.2590  0.1785
  239THF     H4 5038   3.333   0.702   4.543  0.8066  0.3209 -0.9769
  239THF     H5 5039   3.356   0.540   4.488  0.1470  0.2177  2.6142
  239THF     H6 5040   3.160   0.848   4.414 -2.6094  1.4503 -1.2089
  239THF     H7 5041   3.058   0.745   4.303  0.5776 -1.9412 -0.6205
  239THF     C8 5042   3.056   0.679   4.506 -0.0304  0.0989  0.2826
  239THF     C9 5043   3.155   0.580   4.569  0.2999 -0.1337  0.2820
  239THF    H10 5044   2.972   0.630   4.456 -0.4074 -1.4198  2.2888
  239THF    H11 5045   3.007   0.755   4.567 -2.6004 -0.2886 -1.1125
  239THF    H12 5046   3.154   0.599   4.676  1.4996  1.9805 -0.0149
  239THF    H13 5047   3.124   0.478   4.547  0.2884  0.1453 -1.0890
  240THF     O1 5048   4.848   2.865   3.377 -0.3383 -0.4291  0.7633
  240THF     C2 5049   4.819   2.953   3.268  0.3445  0.3204  0.0384
  240THF     C3 5050   4.726   2.843   3.449  0.2871 -0.2527  0.6304
  240THF     H4 5051   4.892   2.972   3.190 -0.5893  1.8150 -0.5097
  240THF     H5 5052   4.791   3.044   3.321  2.0344  0.4792  0.7135
  240THF     H6 5053   4.730   2.748   3.502  1.5495 -0.4082  0.3028
  240THF     H7 5054   4.702   2.917   3.525 -2.2273 -0.9822  0.6242
  240THF     C8 5055   4.624   2.849   3.341 -0.3426  0.1342  0.4327
  240THF     C9 5056   4.697   2.889   3.211  1.0590 -0.5739 -0.1297
  240THF    H10 5057   4.542   2.916   3.368  1.0556  1.9946  0.2391
  240THF    H11 5058   4.572   2.754   3.330 -0.9734  0.6452 -1.3706
  240THF    H12 5059   4.715   2.797   3.155 -2.2004 -1.4419 -0.0050
  240THF    H13 5060   4.636   2.953   3.147  0.4407 -1.5170 -0.5239
  241THF     O1 5061   4.301   2.768   2.994  0.4766 -0.0712  0.4641
  241THF     C2 5062   4.385   2.882   2.981  0.2056 -0.1893 -0.1245
  241THF     C3 5063   4.270   2.761   3.130  0.2625 -0.2411 -0.6350
  241THF     H4 5064   4.373   2.904   2.875 -1.2551  0.8199  0.2367
  241THF     H5 5065   4.488   2.856   3.007  1.0918  1.7302 -1.5043
  241THF     H6 5066   4.182   2.703   3.158  0.1812  0.1285 -0.1186
  241THF     H7 5067   4.362   2.743   3.184  0.7691  1.1234 -0.9980
  241THF     C8 5068   4.233   2.904   3.166 -0.1303  0.5605 -0.0680
  241THF     C9 5069   4.314   2.988   3.070 -0.6938  0.0446 -0.0784
  241THF    H10 5070   4.252   2.939   3.267 -0.4902  2.4729 -0.6260
  241THF    H11 5071   4.130   2.918   3.134 -0.2026 -0.6619 -0.4119
  241THF    H12 5072   4.270   3.060   3.001 -0.2882 -1.0371 -1.5013
  241THF    H13 5073   4.397   3.039   3.119 -0.1345  0.1185 -1.0895
  242THF     O1 5074   4.417   4.304   3.418  0.4448 -0.0466  0.5161
  242THF     C2 5075   4.518   4.254   3.506  0.2237  0.1885 -0.3795
  242THF     C3 5076   4.294   4.317   3.497 -0.9400  0.2160 -0.5928
  242THF     H4 5077   4.596   4.330   3.504  0.7276 -0.3423 -1.6581
  242THF     H5 5078   4.547   4.160   3.459  2.0153  1.2028 -1.4175
  242THF     H6 5079   4.283   4.418   3.538 -1.4227 -0.4192  0.9200
  242THF     H7 5080   4.213   4.296   3.427  0.1427 -2.4978 -1.1499
  242THF     C8 5081   4.306   4.228   3.620  0.0819 -1.1194  0.2497
  242THF     C9 5082   4.461   4.235   3.645  0.0573  0.5680  0.3418
  242THF    H10 5083   4.271   4.127   3.598 -1.1314 -0.7967  0.5765
  242THF    H11 5084   4.259   4.265   3.712  3.8117 -0.3975  2.0544
  242THF    H12 5085   4.488   4.328   3.697 -1.1681  0.1553  1.7614
  242THF    H13 5086   4.494   4.146   3.698 -2.9089 -0.5447  0.5153
  243THF     O1 5087   2.161   3.130   5.284 -0.4640 -0.1447 -0.1315
  243THF     C2 5088   2.242   3.226   5.224  0.3857 -1.0009 -0.3594
  243THF     C3 5089   2.035   3.173   5.326 -0.2172  0.0892  0.2781
  243THF     H4 5090   2.238   3.215   5.116 -1.1508 -0.4974 -0.3805
  243THF     H5 5091   2.343   3.220   5.265 -0.1555 -2.1251  0.8951
  243THF     H6 5092   1.953   3.175   5.255 -0.4781 -0.7617  0.5413
  243THF     H7 5093   1.997   3.110   5.407 -1.1877 -0.2161 -0.3955
  243THF     C8 5094   2.078   3.311   5.375  0.6221  0.2119 -0.5008
  243THF     C9 5095   2.169   3.354   5.265  0.1699 -0.3312 -0.6097
  243THF    H10 5096   2.133   3.305   5.469 -0.5786 -0.9107  0.1761
  243THF    H11 5097   1.993   3.379   5.388 -0.3868 -0.8739 -1.2154
  243THF    H12 5098   2.105   3.397   5.188 -1.8289  1.2891  1.7988
  243THF    H13 5099   2.241   3.431   5.290  0.3877 -0.2387 -1.4733
  244THF     O1 5100   5.220   5.004   3.038  0.5753  0.3816 -0.0063
  244THF     C2 5101   5.229   5.002   2.890  0.6815  0.2291 -0.5603
  244THF     C3 5102   5.323   5.092   3.080 -0.1673 -0.6616  0.1195
  244THF     H4 5103   5.135   4.971   2.844  0.1998 -0.3841  0.7723
  244THF     H5 5104   5.308   4.930   2.869  0.8271  0.6330 -1.4498
  244THF     H6 5105   5.304   5.166   3.158  0.1418  0.2384 -0.6442
  244THF     H7 5106   5.406   5.034   3.120 -0.6908 -0.5702  1.3620
  244THF     C8 5107   5.359   5.181   2.963  0.1362  0.0798 -0.9290
  244THF     C9 5108   5.288   5.127   2.840  0.0148  0.0755 -0.0601
  244THF    H10 5109   5.464   5.158   2.943 -0.6919 -2.1604 -3.1207
  244THF    H11 5110   5.336   5.287   2.978 -0.8591 -0.3991  1.3036
  244THF    H12 5111   5.212   5.193   2.799 -1.8571 -0.0732  2.8320
  244THF    H13 5112   5.355   5.101   2.759 -0.8022  0.4328 -0.8678
  245THF     O1 5113   1.092   2.195   2.304 -0.7846  0.8922  0.0050
  245THF     C2 5114   1.025   2.081   2.243 -0.1784 -0.4056  0.5341
  245THF     C3 5115   1.180   2.254   2.206 -0.5842  0.3713 -0.5845
  245THF     H4 5116   0.917   2.089   2.256 -0.5837 -1.2271 -1.7184
  245THF     H5 5117   1.052   1.983   2.281 -1.9387 -1.6074 -1.1162
  245THF     H6 5118   1.191   2.359   2.232  0.9042 -0.2649  1.5909
  245THF     H7 5119   1.272   2.195   2.211 -0.1002  1.0385 -1.4742
  245THF     C8 5120   1.096   2.239   2.076 -0.3965  0.3058  0.3268
  245THF     C9 5121   1.048   2.096   2.088  0.2037  0.1471 -0.3369
  245THF    H10 5122   1.152   2.249   1.983 -1.0764 -2.7478 -0.5192
  245THF    H11 5123   1.004   2.297   2.071 -2.1703 -2.2336  1.3245
  245THF    H12 5124   0.960   2.077   2.026  1.2503 -1.2529 -1.4651
  245THF    H13 5125   1.122   2.027   2.048  0.8601  1.3090 -1.2220
  246THF     O1 5126   1.168   1.540   2.422  0.1052  0.1513  0.0291
  246THF     C2 5127   1.104   1.535   2.297  0.5226  0.4523  0.5479
  246THF     C3 5128   1.121   1.425   2.498  0.0020  0.4930  0.3080
  246THF     H4 5129   1.138   1.459   2.226  0.0326  2.2236 -1.6790
  246THF     H5 5130   1.121   1.633   2.253  1.5015  0.0400 -0.0314
  246THF     H6 5131   1.192   1.346   2.473 -0.1610  0.9175 -1.6985
  246THF     H7 5132   1.118   1.455   2.602 -0.7136 -1.4611  0.8761
  246THF     C8 5133   0.982   1.386   2.447 -0.6810  0.4842 -0.0206
  246THF     C9 5134   0.967   1.490   2.334  0.0587 -0.3125  0.2298
  246THF    H10 5135   0.904   1.371   2.521  0.1580 -1.7363  0.4763
  246THF    H11 5136   1.003   1.288   2.404 -0.2948  1.2218 -1.6033
  246THF    H12 5137   0.917   1.445   2.248 -0.2444  1.5090 -0.6118
  246THF    H13 5138   0.896   1.566   2.366 -0.1185 -0.1792 -0.4601
  247THF     O1 5139   3.864   3.264   3.193 -0.0515 -0.5559 -0.5619
  247THF     C2 5140   3.990   3.215   3.202 -0.5124 -0.3138 -0.0523
  247THF     C3 5141   3.857   3.371   3.097 -0.3602  0.0445  0.7781
  247THF     H4 5142   3.998   3.120   3.255 -1.4251 -1.3757 -1.7475
  247THF     H5 5143   4.040   3.285   3.270 -0.0719 -0.3048 -0.3834
  247THF     H6 5144   3.760   3.405   3.060  1.0756 -0.8978 -4.7788
  247THF     H7 5145   3.903   3.457   3.147 -0.7228  2.3359 -2.4832
  247THF     C8 5146   3.945   3.310   2.982  0.1301  1.2609  0.2934
  247THF     C9 5147   4.046   3.222   3.065  0.1197 -0.4345 -0.3196
  247THF    H10 5148   3.990   3.382   2.914  2.0232 -0.5619 -0.5029
  247THF    H11 5149   3.889   3.253   2.909  1.6557  0.9075 -0.6515
  247THF    H12 5150   4.048   3.122   3.023 -0.9535 -0.1969 -0.9637
  247THF    H13 5151   4.145   3.269   3.064 -0.1591  0.2019 -1.7970
  248THF     O1 5152   2.315   2.613   0.396  0.5667 -0.1566  0.1180
  248THF     C2 5153   2.302   2.517   0.295 -0.4566  0.1703  0.3293
  248THF     C3 5154   2.392   2.558   0.506  0.0144  0.3532  0.2595
  248THF     H4 5155   2.387   2.509   0.228 -1.2967  0.3956 -0.7878
  248THF     H5 5156   2.217   2.527   0.228  0.4725 -1.8056 -1.2501
  248THF     H6 5157   2.495   2.590   0.492  0.5437 -0.7756  1.3482
  248THF     H7 5158   2.349   2.588   0.602 -0.7788 -0.5969  0.2224
  248THF     C8 5159   2.374   2.407   0.494 -1.0176 -0.1471 -0.0016
  248THF     C9 5160   2.285   2.389   0.375 -0.5460  0.0932  0.6845
  248THF    H10 5161   2.321   2.368   0.581  1.1076 -2.2886  0.4181
  248THF    H11 5162   2.469   2.359   0.472 -1.0494 -0.0379 -0.3908
  248THF    H12 5163   2.318   2.305   0.314  1.0032 -0.9535  2.8448
  248THF    H13 5164   2.190   2.359   0.418 -0.3121 -0.7396  0.6271
  249THF     O1 5165   2.236   0.813   3.918  0.2345 -0.1346  0.3470
  249THF     C2 5166   2.285   0.773   3.789  0.0326 -0.2662  0.4020
  249THF     C3 5167   2.301   0.925   3.969  0.2479 -1.1777  0.5448
  249THF     H4 5168   2.209   0.728   3.725  0.6608 -0.8924  0.0854
  249THF     H5 5169   2.374   0.711   3.801  0.8630  0.6397 -0.8397
  249THF     H6 5170   2.245   0.988   4.038  2.2574 -0.3875  1.5298
  249THF     H7 5171   2.402   0.893   3.997 -0.5498 -4.8840 -0.2608
  249THF     C8 5172   2.320   1.006   3.845  0.3618 -0.5187 -0.8704
  249THF     C9 5173   2.328   0.909   3.729  0.2230  0.4517 -0.0578
  249THF    H10 5174   2.417   1.057   3.848  0.1651 -0.1067 -1.3888
  249THF    H11 5175   2.253   1.088   3.821  1.3689  1.0373  1.2533
  249THF    H12 5176   2.259   0.944   3.652 -0.2893 -0.2061  0.1005
  249THF    H13 5177   2.427   0.900   3.684 -0.3983 -2.2499 -1.0387
  250THF     O1 5178   3.220   1.027   0.601 -0.1478 -0.2764 -0.6894
  250THF     C2 5179   3.289   1.152   0.630  0.4925  0.6912 -0.5534
  250THF     C3 5180   3.129   1.051   0.497  0.4239 -0.5648  0.2845
  250THF     H4 5181   3.347   1.183   0.543  0.6570  3.1862  0.3515
  250THF     H5 5182   3.352   1.148   0.719  0.4714 -0.7240 -0.5816
  250THF     H6 5183   3.178   1.080   0.404 -0.4945  0.1496  0.0133
  250THF     H7 5184   3.063   0.968   0.476 -2.3706  1.6655 -0.2454
  250THF     C8 5185   3.062   1.183   0.534  0.0785 -0.0707 -0.0001
  250THF     C9 5186   3.156   1.236   0.647 -0.7855 -0.1946  0.6228
  250THF    H10 5187   2.962   1.179   0.578  0.1963  2.6076  0.6781
  250THF    H11 5188   3.054   1.259   0.456 -2.8442 -0.5917 -0.3315
  250THF    H12 5189   3.171   1.343   0.634 -0.4939 -0.0693  1.9236
  250THF    H13 5190   3.098   1.213   0.736 -3.3736  0.7807 -0.6879
  251THF     O1 5191   2.801   2.273   2.141 -0.4573  0.1753  0.1396
  251THF     C2 5192   2.776   2.371   2.237 -0.1702  0.3650 -0.7322
  251THF     C3 5193   2.706   2.290   2.037  0.8154 -0.1691  0.1856
  251THF     H4 5194   2.799   2.471   2.200 -1.0551  1.2359  0.9657
  251THF     H5 5195   2.821   2.347   2.333 -0.0059 -0.6097 -1.0431
  251THF     H6 5196   2.724   2.383   1.983  0.1735  0.2892  0.7604
  251THF     H7 5197   2.706   2.208   1.964  1.9820 -0.2777  0.2805
  251THF     C8 5198   2.574   2.313   2.114  0.2018 -0.3383 -0.1451
  251THF     C9 5199   2.620   2.360   2.248 -0.0074 -0.1123  0.0428
  251THF    H10 5200   2.508   2.225   2.119  0.7696 -0.7587  0.0445
  251THF    H11 5201   2.522   2.393   2.063 -0.6893  0.3012  1.6668
  251THF    H12 5202   2.582   2.460   2.268  0.8634  0.0373  1.0404
  251THF    H13 5203   2.587   2.296   2.330  0.9046  0.8657  1.2159
  252THF     O1 5204   2.261   1.364   0.458  0.0740  0.4695  0.4033
  252THF     C2 5205   2.321   1.492   0.436  0.3340 -0.1229  0.5751
  252THF     C3 5206   2.344   1.271   0.384 -0.2555 -0.1432 -0.9018
  252THF     H4 5207   2.276   1.570   0.498  1.6982  0.2382  1.1428
  252THF     H5 5208   2.301   1.532   0.336  0.7468  0.2237  0.6295
  252THF     H6 5209   2.345   1.172   0.430 -2.5408  0.5428  0.7834
  252THF     H7 5210   2.322   1.266   0.278 -0.3217  0.2503 -0.9090
  252THF     C8 5211   2.490   1.322   0.409  0.5814 -0.1971  0.1479
  252THF     C9 5212   2.472   1.468   0.455  0.3736  0.2462 -0.3643
  252THF    H10 5213   2.556   1.309   0.322 -0.9446  0.2120 -1.1156
  252THF    H11 5214   2.539   1.269   0.490  0.9510  2.2744  1.6407
  252THF    H12 5215   2.496   1.493   0.559 -0.5104  2.0730 -0.5711
  252THF    H13 5216   2.530   1.525   0.382 -0.0454  0.4113 -0.5672
  253THF     O1 5217   0.846   0.783   1.304  0.4589  0.2796 -0.7129
  253THF     C2 5218   0.884   0.845   1.423  0.6280  1.0676 -0.3899
  253THF     C3 5219   0.812   0.644   1.337 -0.0065 -0.2595 -0.3557
  253THF     H4 5220   0.799   0.840   1.492 -0.5759 -0.5652 -1.8999
  253THF     H5 5221   0.911   0.949   1.405 -0.5986  1.2829 -1.0776
  253THF     H6 5222   0.716   0.630   1.385  0.7313  1.1319  1.6832
  253THF     H7 5223   0.813   0.578   1.250  1.3130 -2.0632  0.9496
  253THF     C8 5224   0.916   0.611   1.439  0.0924  0.0926 -0.0105
  253THF     C9 5225   0.988   0.743   1.461  0.5518  0.1063 -0.3193
  253THF    H10 5226   0.987   0.536   1.405  0.1997 -0.2451  0.9244
  253THF    H11 5227   0.861   0.561   1.520  2.1524 -2.9737 -0.3457
  253THF    H12 5228   1.043   0.747   1.556 -0.7365 -1.1563  0.5133
  253THF    H13 5229   1.076   0.749   1.397  0.4426  0.2381 -0.4575
  254THF     O1 5230   4.243   1.741   4.071  0.2081 -0.2889 -0.4057
  254THF     C2 5231   4.357   1.665   4.099 -0.3893 -0.4168  0.3802
  254THF     C3 5232   4.176   1.706   3.947  0.0167  0.4637  0.1292
  254THF     H4 5233   4.358   1.651   4.207 -0.1886 -1.5233  0.2452
  254THF     H5 5234   4.446   1.724   4.079 -1.0631  1.1935  1.8400
  254THF     H6 5235   4.077   1.664   3.966  0.5522 -1.6503 -1.3979
  254THF     H7 5236   4.151   1.785   3.877  0.1894  1.4416  1.1461
  254THF     C8 5237   4.271   1.599   3.894 -0.1085 -0.4268  0.3305
  254THF     C9 5238   4.351   1.548   4.005  0.0644  0.2408 -0.4552
  254THF    H10 5239   4.341   1.638   3.820 -1.7267  0.4917 -0.7840
  254THF    H11 5240   4.211   1.522   3.845 -0.8217 -0.3193  1.0143
  254THF    H12 5241   4.291   1.474   4.057 -1.6598  1.0947 -1.1535
  254THF    H13 5242   4.443   1.505   3.965  0.1529 -0.0327  0.0266
  255THF     O1 5243   2.478   1.761   0.866  0.2847 -0.0137  0.3304
  255THF     C2 5244   2.486   1.904   0.874 -0.6631  0.1725 -0.2504
  255THF     C3 5245   2.512   1.737   0.732 -0.3690 -0.4655 -0.3660
  255THF     H4 5246   2.534   1.942   0.965  0.2323 -2.1189  0.2990
  255THF     H5 5247   2.392   1.953   0.901 -0.5798 -0.4777  1.3038
  255THF     H6 5248   2.562   1.642   0.718  1.9154  0.7515 -0.9638
  255THF     H7 5249   2.426   1.746   0.666  1.0148  1.2287 -2.0599
  255THF     C8 5250   2.605   1.847   0.689  0.1132  0.2560  0.3852
  255THF     C9 5251   2.539   1.966   0.752  0.1563 -0.1247 -0.2725
  255THF    H10 5252   2.602   1.855   0.580  0.3934  0.5936  0.4018
  255THF    H11 5253   2.708   1.833   0.720 -0.1006  1.1059  1.5187
  255THF    H12 5254   2.616   2.032   0.793 -0.2660 -0.7808  1.7161
  255THF    H13 5255   2.469   2.012   0.683  0.5140 -1.2179 -1.4052
  256THF     O1 5256   4.372   5.334   0.052  0.0606  0.3591 -0.1433
  256THF     C2 5257   4.352   5.470   0.010 -0.0751 -0.2820 -0.0443
  256THF     C3 5258   4.473   5.339   0.158  0.3353 -0.0304  0.6315
  256THF     H4 5259   4.259   5.488  -0.044  0.1343 -1.0609 -0.6789
  256THF     H5 5260   4.419   5.493  -0.073 -1.2187  2.2194 -0.3565
  256THF     H6 5261   4.450   5.255   0.222  1.4733  0.3959  1.6412
  256THF     H7 5262   4.577   5.327   0.128 -0.2782 -0.9039 -1.2778
  256THF     C8 5263   4.436   5.464   0.237 -0.1401  0.0774  0.4677
  256THF     C9 5264   4.365   5.553   0.137 -0.3794  0.2323  0.0088
  256THF    H10 5265   4.522   5.514   0.280 -0.5195  0.3562  0.9222
  256THF    H11 5266   4.365   5.437   0.316 -1.0668  0.1318 -0.3265
  256THF    H12 5267   4.261   5.575   0.165 -0.0873  1.8440 -0.0846
  256THF    H13 5268   4.424   5.643   0.127  1.4460 -0.9402 -0.1899
  257THF     O1 5269   3.123   1.848   0.571 -0.1845  0.5700 -0.3927
  257THF     C2 5270   3.088   1.987   0.587  0.5031  0.5085 -0.0645
  257THF     C3 5271   3.157   1.794   0.699 -0.2987  0.2714 -0.5919
  257THF     H4 5272   3.044   2.040   0.502  0.4007  1.0344  0.3161
  257THF     H5 5273   3.187   2.031   0.603  0.1994  0.9264  0.6994
  257THF     H6 5274   3.143   1.686   0.692 -0.1645  0.1654  0.5162
  257THF     H7 5275   3.262   1.809   0.723 -0.5483 -0.2893  0.9738
  257THF     C8 5276   3.067   1.866   0.792 -0.5827  0.3580  0.6058
  257THF     C9 5277   3.013   1.988   0.716 -0.5584  0.9155  0.2989
  257THF    H10 5278   3.102   1.893   0.892  0.4771  1.0967  0.0477
  257THF    H11 5279   2.998   1.782   0.807  0.3189 -0.5145 -0.0043
  257THF    H12 5280   2.906   1.987   0.695 -0.6165  2.4162  0.3504
  257THF    H13 5281   3.027   2.082   0.771  0.0317  1.2069 -0.3308
  258THF     O1 5282   4.186   1.214   0.813  0.5332  0.0233 -0.6041
  258THF     C2 5283   4.216   1.354   0.836  0.3056  1.0036  0.8285
  258THF     C3 5284   4.248   1.168   0.696  0.0815  0.7595 -0.1695
  258THF     H4 5285   4.311   1.373   0.886  1.6225 -1.4816 -0.5241
  258THF     H5 5286   4.137   1.394   0.899  1.3491  0.1591  2.7719
  258THF     H6 5287   4.347   1.128   0.721  0.2816  1.6081  0.4604
  258THF     H7 5288   4.189   1.092   0.646  2.1421 -1.0878  0.0559
  258THF     C8 5289   4.284   1.296   0.612  0.5524  0.0096  0.1777
  258THF     C9 5290   4.225   1.408   0.692 -0.4769 -0.0848 -0.4580
  258THF    H10 5291   4.247   1.298   0.510 -0.8949  2.2652  0.7020
  258THF    H11 5292   4.393   1.301   0.613  0.7571 -2.8356  0.2272
  258THF    H12 5293   4.292   1.494   0.695  1.3289 -1.3052 -2.6833
  258THF    H13 5294   4.125   1.441   0.665  1.0066  1.7740 -4.4601
  259THF     O1 5295   0.824   2.046   3.053  0.6131  0.0567 -0.2867
  259THF     C2 5296   0.869   2.181   3.057  0.3991  0.0233 -0.5091
  259THF     C3 5297   0.910   1.976   3.152 -0.6843 -0.2715  1.0194
  259THF     H4 5298   0.843   2.236   3.147  2.0139  0.9016 -0.5453
  259THF     H5 5299   0.839   2.246   2.975 -1.7268  0.6834  0.7155
  259THF     H6 5300   0.878   1.997   3.254  0.3182 -2.8309  1.9371
  259THF     H7 5301   0.918   1.868   3.139  2.2312 -0.1183  0.7855
  259THF     C8 5302   1.048   2.040   3.122 -1.2332  0.6323 -0.8637
  259THF     C9 5303   1.020   2.167   3.049 -0.3532  0.1336  0.0888
  259THF    H10 5304   1.101   1.976   3.051 -0.9528  0.5600 -0.5877
  259THF    H11 5305   1.110   2.055   3.210 -0.5659 -0.3589 -1.1426
  259THF    H12 5306   1.066   2.257   3.091  1.8951 -0.5306 -0.8158
  259THF    H13 5307   1.053   2.163   2.946  1.1830 -1.2413  0.5870
  260THF     O1 5308   2.316   3.002   3.465 -0.2332  0.4146 -0.3192
  260THF     C2 5309   2.177   3.007   3.448  0.1517 -0.7737  0.6272
  260THF     C3 5310   2.340   3.035   3.603  0.4762  0.0057  0.5396
  260THF     H4 5311   2.134   2.917   3.491 -0.8515 -0.8496 -0.5098
  260THF     H5 5312   2.139   3.025   3.348 -0.7831  2.3843  1.4439
  260THF     H6 5313   2.309   2.953   3.667 -2.3222  0.3483 -0.2305
  260THF     H7 5314   2.447   3.052   3.606  0.1604  2.0346  2.3019
  260THF     C8 5315   2.243   3.159   3.624 -0.3245  0.1390  0.8315
  260THF     C9 5316   2.130   3.129   3.523  0.1585 -0.1153  0.2591
  260THF    H10 5317   2.305   3.248   3.614  0.3860 -0.2567  1.5428
  260THF    H11 5318   2.203   3.174   3.725  1.1967 -3.4570  2.1250
  260THF    H12 5319   2.028   3.120   3.561 -1.0831  2.5138 -2.0129
  260THF    H13 5320   2.128   3.211   3.450  0.0235  0.1595  0.5662
  261THF     O1 5321   2.127   5.322   0.259  0.1679  0.0009  0.0768
  261THF     C2 5322   2.196   5.407   0.165  0.1155 -0.2009 -0.2383
  261THF     C3 5323   2.222   5.256   0.342 -0.6353 -0.2340 -0.1604
  261THF     H4 5324   2.127   5.479   0.121  0.9385  0.6196 -0.2184
  261THF     H5 5325   2.239   5.355   0.080 -0.1520  0.5571 -0.8515
  261THF     H6 5326   2.175   5.215   0.432  0.2278  0.5139  0.6628
  261THF     H7 5327   2.261   5.179   0.275  0.8171 -0.7893  1.2401
  261THF     C8 5328   2.326   5.368   0.364 -0.0760 -0.2460 -0.1935
  261THF     C9 5329   2.313   5.460   0.243 -0.3284 -0.0984 -1.1340
  261THF    H10 5330   2.425   5.326   0.379 -0.4547 -1.5855 -1.2283
  261THF    H11 5331   2.315   5.429   0.453 -0.0621 -1.1478  0.4389
  261THF    H12 5332   2.289   5.558   0.286 -0.6844 -0.4358 -0.5455
  261THF    H13 5333   2.405   5.470   0.185 -0.7998  2.4579 -1.5739
  262THF     O1 5334   4.223   3.468   1.231  0.2365  0.3488 -0.7035
  262THF     C2 5335   4.305   3.506   1.123  0.2839 -0.2769 -0.5093
  262THF     C3 5336   4.216   3.583   1.322 -0.0979  0.5377  0.1868
  262THF     H4 5337   4.258   3.470   1.032 -1.6209  1.4729 -0.2761
  262THF     H5 5338   4.401   3.456   1.135  0.7164  0.5649 -0.3937
  262THF     H6 5339   4.127   3.574   1.385  0.7081 -1.0660  1.1738
  262THF     H7 5340   4.305   3.586   1.384 -0.5377 -0.9893  0.9640
  262THF     C8 5341   4.205   3.698   1.229 -0.5836  0.5778  0.2484
  262THF     C9 5342   4.300   3.660   1.121  0.4885  0.0232 -0.3720
  262THF    H10 5343   4.219   3.796   1.277 -0.9407  0.6519  0.2039
  262THF    H11 5344   4.104   3.707   1.189 -0.5756  0.1076  0.1240
  262THF    H12 5345   4.273   3.713   1.029  1.4095 -0.8095 -1.1544
  262THF    H13 5346   4.399   3.698   1.148 -0.1702  2.4437 -1.1249
  263THF     O1 5347   3.006   4.961   0.000 -0.0505 -0.7318 -0.3705
  263THF     C2 5348   3.119   5.002   0.073 -0.2049 -0.6497  0.1795
  263THF     C3 5349   2.901   4.950   0.097  0.1132 -0.0760 -0.2682
  263THF     H4 5350   3.103   5.107   0.097 -1.0126 -0.2414 -1.9430
  263THF     H5 5351   3.210   5.000   0.014 -0.2079  1.1963  0.0786
  263THF     H6 5352   2.855   5.043   0.131  2.8475  0.8862  1.1074
  263THF     H7 5353   2.826   4.885   0.052 -2.2826 -0.1625  3.4007
  263THF     C8 5354   2.975   4.885   0.212 -0.1191  0.4657 -1.0333
  263THF     C9 5355   3.120   4.913   0.196  0.1005  0.0906  0.6436
  263THF    H10 5356   2.961   4.777   0.215  1.1327  0.3096 -0.1492
  263THF    H11 5357   2.957   4.921   0.313  1.2428  2.3867 -1.4257
  263THF    H12 5358   3.173   4.948   0.285  0.3776  1.8315 -0.1484
  263THF    H13 5359   3.179   4.827   0.164 -0.6069  0.4627 -1.8974
  264THF     O1 5360   2.789   5.012   1.596 -0.0291  0.5565  0.3625
  264THF     C2 5361   2.819   5.113   1.502  0.0131 -0.1048 -0.1987
  264THF     C3 5362   2.751   5.078   1.720  0.0753 -0.4889  0.4041
  264THF     H4 5363   2.732   5.152   1.449  0.9309 -0.2806 -1.9237
  264THF     H5 5364   2.878   5.067   1.422  0.8998 -0.1292  0.4636
  264THF     H6 5365   2.647   5.108   1.714  0.3435  0.2594 -0.9923
  264THF     H7 5366   2.754   5.013   1.808 -1.8995 -0.2255  0.7133
  264THF     C8 5367   2.845   5.200   1.728  0.2135 -0.2297  0.2916
  264THF     C9 5368   2.885   5.220   1.583  0.1890 -0.4161 -0.2287
  264THF    H10 5369   2.936   5.173   1.782 -1.4689 -1.3885  2.7189
  264THF    H11 5370   2.798   5.293   1.758  0.4825 -0.6359  2.0434
  264THF    H12 5371   2.868   5.316   1.534  1.7621 -0.0233 -0.0631
  264THF    H13 5372   2.994   5.210   1.578  0.4244  1.5168  0.5105
  265THF     O1 5373   1.330   3.616   2.822  0.0729 -0.2157 -0.2168
  265THF     C2 5374   1.437   3.519   2.854  0.3331  0.0745 -0.4149
  265THF     C3 5375   1.311   3.688   2.944 -0.2049 -0.5254 -0.3524
  265THF     H4 5376   1.518   3.523   2.781  0.2688  2.0503 -0.4425
  265THF     H5 5377   1.388   3.422   2.847  0.0029  0.3314 -2.2295
  265THF     H6 5378   1.274   3.791   2.938  0.2193 -0.4525 -2.8288
  265THF     H7 5379   1.228   3.631   2.986 -0.6968  0.5818  0.2392
  265THF     C8 5380   1.438   3.684   3.032 -0.2658 -0.3719 -0.5155
  265THF     C9 5381   1.483   3.545   2.998 -0.1632 -0.0380  0.0788
  265THF    H10 5382   1.419   3.711   3.136 -0.4046  0.0177 -0.6379
  265THF    H11 5383   1.510   3.761   3.004 -0.0843  0.7091  2.5383
  265THF    H12 5384   1.592   3.544   2.998 -0.1592 -0.1797  0.8060
  265THF    H13 5385   1.454   3.462   3.062 -0.3590 -0.2722 -0.3060
  266THF     O1 5386   0.262   1.115   1.997 -0.4715 -0.0190 -0.1719
  266THF     C2 5387   0.186   1.101   1.873  0.4344 -0.1384 -0.3154
  266THF     C3 5388   0.183   1.080   2.109 -0.1851 -0.3833 -0.2217
  266THF     H4 5389   0.238   1.036   1.803 -1.2160  0.4657 -2.2012
  266THF     H5 5390   0.166   1.195   1.821 -0.5244 -0.7753 -1.1437
  266THF     H6 5391   0.247   1.037   2.187 -1.8472 -1.2509  0.7212
  266THF     H7 5392   0.145   1.172   2.153 -0.8520 -0.3090 -0.9437
  266THF     C8 5393   0.080   0.985   2.064  0.0134  0.3070 -0.6729
  266THF     C9 5394   0.060   1.019   1.918  0.1285  0.6462  0.2405
  266THF    H10 5395  -0.014   0.995   2.118  0.9643 -1.5422  1.4744
  266THF    H11 5396   0.107   0.879   2.061 -0.3684 -0.0435  3.2039
  266THF    H12 5397   0.037   0.929   1.860  0.4538  0.9922 -0.4332
  266THF    H13 5398  -0.030   1.080   1.919 -1.2351 -1.2687  1.1221
  267THF     O1 5399   2.992   3.664   3.337 -0.3451  0.8601  0.5802
  267THF     C2 5400   3.119   3.719   3.343  0.4552  0.1942  0.4063
  267THF     C3 5401   2.957   3.637   3.466  0.3646  0.4398  0.1402
  267THF     H4 5402   3.152   3.769   3.252 -2.3710 -0.1951 -0.9490
  267THF     H5 5403   3.193   3.642   3.364 -2.1252 -2.2140  1.1993
  267THF     H6 5404   2.849   3.641   3.478  0.1795 -1.6085 -0.3401
  267THF     H7 5405   2.981   3.533   3.489  0.8005  0.2905 -0.9105
  267THF     C8 5406   3.037   3.725   3.562 -0.2772  0.1175  0.5790
  267THF     C9 5407   3.105   3.817   3.456 -0.0283  0.2145 -0.5044
  267THF    H10 5408   3.104   3.662   3.620  1.0925 -0.0804 -1.1407
  267THF    H11 5409   2.975   3.781   3.632 -0.0706 -0.5703  1.3344
  267THF    H12 5410   3.043   3.906   3.444 -1.2243 -0.3097  1.2100
  267THF    H13 5411   3.194   3.861   3.501 -1.3147  1.8091  0.6127
  268THF     O1 5412   1.471   0.598   2.564 -0.0519  0.0290 -0.4098
  268THF     C2 5413   1.490   0.554   2.697 -0.3573 -0.0802  0.2282
  268THF     C3 5414   1.591   0.641   2.519 -0.0892  0.3202  0.3021
  268THF     H4 5415   1.396   0.509   2.730 -0.9712  0.1538 -1.1187
  268THF     H5 5416   1.517   0.644   2.753 -1.8090  0.2510  0.4544
  268THF     H6 5417   1.592   0.659   2.411  2.8044 -0.7185  0.0584
  268THF     H7 5418   1.631   0.727   2.573  2.0532  0.7754 -1.8149
  268THF     C8 5419   1.680   0.522   2.553 -0.2741 -0.6298  0.0551
  268THF     C9 5420   1.607   0.459   2.677  0.3346 -0.2587  0.6327
  268THF    H10 5421   1.777   0.560   2.585 -0.3134  0.9051 -1.5535
  268THF    H11 5422   1.707   0.454   2.472 -0.1673 -0.2994 -0.1846
  268THF    H12 5423   1.568   0.363   2.644 -0.3059  0.6113 -1.2654
  268THF    H13 5424   1.666   0.428   2.763  1.0903  0.1631  0.2771
  269THF     O1 5425   0.743   5.422   5.396  0.6432  0.2792  0.2536
  269THF     C2 5426   0.852   5.488   5.459 -0.8044  0.2780 -0.4258
  269THF     C3 5427   0.761   5.279   5.401  0.4829 -0.3340  0.1255
  269THF     H4 5428   0.825   5.567   5.529  0.6628  1.0272 -0.6514
  269THF     H5 5429   0.908   5.536   5.378 -0.0421 -0.6529 -0.4730
  269THF     H6 5430   0.668   5.221   5.403 -0.6623  1.4519  0.7814
  269THF     H7 5431   0.805   5.264   5.302  2.7545 -0.4590  1.0983
  269THF     C8 5432   0.860   5.252   5.512  0.8250 -0.3206  0.4247
  269THF     C9 5433   0.940   5.378   5.522  0.2655 -0.0483 -0.0460
  269THF    H10 5434   0.926   5.168   5.489 -0.4250 -1.4013  0.7001
  269THF    H11 5435   0.804   5.242   5.604  0.4763  1.1181  0.4017
  269THF    H12 5436   0.962   5.404   5.626 -0.9355 -1.2627  0.5538
  269THF    H13 5437   1.040   5.364   5.481  0.2967 -0.4579  0.1629
  270THF     O1 5438   0.092   4.466   3.122 -0.2118 -0.5811 -0.1520
  270THF     C2 5439   0.010   4.366   3.182  0.1545 -0.2997  0.5268
  270THF     C3 5440   0.211   4.412   3.061  0.2718 -0.1174 -0.5330
  270THF     H4 5441  -0.056   4.319   3.109 -0.5110 -0.4174  1.1871
  270THF     H5 5442  -0.058   4.418   3.250  0.2749  0.7211 -0.1223
  270THF     H6 5443   0.185   4.352   2.974  0.3617 -2.2788  0.8620
  270THF     H7 5444   0.277   4.494   3.029 -1.0843  0.3095 -2.3990
  270THF     C8 5445   0.259   4.325   3.180  0.2273  0.3219 -0.0439
  270THF     C9 5446   0.122   4.275   3.240  0.1104 -0.1845  0.4776
  270THF    H10 5447   0.313   4.382   3.256 -1.4994  0.3744  1.1860
  270THF    H11 5448   0.323   4.242   3.149  1.0874  0.5394  1.0973
  270THF    H12 5449   0.107   4.173   3.205  0.5615  0.8831 -3.2687
  270THF    H13 5450   0.108   4.276   3.348 -1.7999  0.3273  0.2603
  271THF     O1 5451   5.428   1.249   1.003  0.3219  0.3683 -0.1924
  271THF     C2 5452   5.523   1.260   1.107  1.2874 -0.2992  0.2623
  271THF     C3 5453   5.397   1.111   0.977  0.0218  0.4277 -0.2405
  271THF     H4 5454   5.485   1.338   1.172  1.9244  0.6295 -0.4461
  271THF     H5 5455   5.619   1.298   1.071  1.3464  0.1800  0.9258
  271THF     H6 5456   5.292   1.087   0.960 -0.6010  2.4222  0.5054
  271THF     H7 5457   5.453   1.068   0.894 -0.9045 -0.8616 -0.2151
  271THF     C8 5458   5.435   1.039   1.110 -0.2032  0.2484  0.1091
  271THF     C9 5459   5.545   1.123   1.168  0.0154  0.0405  0.3955
  271THF    H10 5460   5.471   0.938   1.087 -1.0491  0.3880 -2.0090
  271THF    H11 5461   5.344   1.029   1.169 -0.4676 -1.6397 -0.5353
  271THF    H12 5462   5.548   1.137   1.276  2.0470 -0.2104  0.4021
  271THF    H13 5463   5.644   1.089   1.140 -1.2202 -3.3136 -0.4740
  272THF     O1 5464   3.551   2.601   1.509 -0.3757  0.2046  0.3259
  272THF     C2 5465   3.460   2.554   1.408  0.1934 -0.3104  0.1791
  272THF     C3 5466   3.572   2.493   1.600  0.6694  0.0255  0.0652
  272THF     H4 5467   3.468   2.609   1.314 -1.8372 -1.2576 -0.6174
  272THF     H5 5468   3.357   2.560   1.444 -0.1771 -1.1423 -0.7119
  272THF     H6 5469   3.670   2.492   1.646  1.0964  0.0997 -0.8206
  272THF     H7 5470   3.497   2.510   1.678  1.0035 -3.7336  1.3764
  272THF     C8 5471   3.534   2.362   1.523 -0.3727 -0.2662  0.2554
  272THF     C9 5472   3.504   2.412   1.378 -0.1955  0.0751 -0.0694
  272THF    H10 5473   3.442   2.331   1.571 -0.1913 -0.5917  0.3972
  272THF    H11 5474   3.604   2.280   1.536  0.9986  0.9535  0.9703
  272THF    H12 5475   3.601   2.410   1.329  0.1193  1.3867  0.4468
  272THF    H13 5476   3.438   2.357   1.311  1.1391 -2.2562  0.4196
  273THF     O1 5477   1.755   4.471   4.338 -0.2521  0.1144  0.5595
  273THF     C2 5478   1.755   4.615   4.349  0.7758  0.7179  0.3173
  273THF     C3 5479   1.643   4.433   4.266  0.1625 -0.2485  1.0457
  273THF     H4 5480   1.801   4.677   4.272  1.4432  0.4290  0.4786
  273THF     H5 5481   1.816   4.636   4.436  1.1849 -1.7929  0.7357
  273THF     H6 5482   1.666   4.463   4.164  0.2037  1.0386  1.4115
  273THF     H7 5483   1.627   4.325   4.271 -1.3384 -0.0127  2.0425
  273THF     C8 5484   1.538   4.512   4.340  0.1993 -0.0691 -0.4142
  273THF     C9 5485   1.607   4.643   4.370 -0.0241 -0.5178 -0.0098
  273THF    H10 5486   1.522   4.465   4.436  0.5809  1.3241  0.3572
  273THF    H11 5487   1.449   4.516   4.277  0.1134 -0.9157 -0.3454
  273THF    H12 5488   1.578   4.723   4.301  1.0237 -0.0067  0.1361
  273THF    H13 5489   1.591   4.687   4.468 -0.1839  0.2770 -0.3800
  274THF     O1 5490   2.293   0.559   4.686  0.6180 -0.0937  0.2803
  274THF     C2 5491   2.358   0.650   4.780  0.5956 -0.7938  0.2871
  274THF     C3 5492   2.365   0.441   4.701  0.1222  0.3673  0.0977
  274THF     H4 5493   2.298   0.737   4.805  0.8753 -0.9928  1.7679
  274THF     H5 5494   2.455   0.679   4.739 -0.9125  2.2033 -1.4208
  274THF     H6 5495   2.321   0.351   4.658 -0.3246  0.1523  0.9964
  274THF     H7 5496   2.465   0.459   4.661 -0.6015  2.0632 -1.0840
  274THF     C8 5497   2.383   0.434   4.856 -0.1345  0.2769 -0.0968
  274THF     C9 5498   2.366   0.570   4.910 -0.1824 -0.3009  0.3730
  274THF    H10 5499   2.483   0.394   4.871 -0.3100 -0.0292  0.2747
  274THF    H11 5500   2.310   0.365   4.897  1.9584 -1.8289  0.2747
  274THF    H12 5501   2.274   0.575   4.968 -1.0974 -0.2226 -1.0524
  274THF    H13 5502   2.440   0.611   4.979  0.6718  1.0426 -1.2658
  275THF     O1 5503   1.454   1.858   0.591  0.3185 -0.0562 -0.1429
  275THF     C2 5504   1.465   1.812   0.460  0.3730  0.1644  0.9712
  275THF     C3 5505   1.561   1.802   0.669 -0.1393 -0.1718 -0.2791
  275THF     H4 5506   1.455   1.894   0.388  2.6641  1.5617  2.1274
  275THF     H5 5507   1.387   1.737   0.449  0.0908  0.7893 -2.5272
  275THF     H6 5508   1.593   1.870   0.748 -0.4952  0.0085 -0.2885
  275THF     H7 5509   1.545   1.700   0.704  0.1227  0.3868  1.5684
  275THF     C8 5510   1.676   1.799   0.572  0.4016  0.6348 -0.1970
  275THF     C9 5511   1.610   1.757   0.442 -0.5553  0.2424 -0.2331
  275THF    H10 5512   1.751   1.726   0.604 -0.9625 -0.8858 -0.2914
  275THF    H11 5513   1.723   1.897   0.570 -1.2380  1.4564 -0.2706
  275THF    H12 5514   1.653   1.807   0.355  0.5481  0.0317  0.1719
  275THF    H13 5515   1.623   1.650   0.426  1.3322  0.1959  1.2875
  276THF     O1 5516   3.018   1.726   2.228 -0.1009  0.2127 -0.5043
  276THF     C2 5517   3.060   1.720   2.367 -0.0151  0.5256  0.2761
  276THF     C3 5518   3.075   1.628   2.143  0.2937  0.2455 -0.0739
  276THF     H4 5519   3.018   1.636   2.422  1.5429 -0.9877 -0.7259
  276THF     H5 5520   3.057   1.820   2.412  0.2639  1.1766 -1.0824
  276THF     H6 5521   3.013   1.540   2.162  0.4580  0.5806  2.3998
  276THF     H7 5522   3.069   1.665   2.041  0.9911 -1.3305 -0.7243
  276THF     C8 5523   3.218   1.618   2.206  0.1303 -0.9620  0.9593
  276THF     C9 5524   3.212   1.677   2.349 -0.0216 -0.0141  0.7813
  276THF    H10 5525   3.278   1.692   2.153 -1.1329 -0.3383  0.3655
  276THF    H11 5526   3.260   1.519   2.189 -2.0126 -1.8086  0.2039
  276THF    H12 5527   3.250   1.601   2.417  2.2531  1.6223  1.4644
  276THF    H13 5528   3.278   1.763   2.357 -0.4928  0.4254  0.0296
  277THF     O1 5529   3.451   2.920   4.841  0.4841  0.1352 -0.7322
  277THF     C2 5530   3.359   2.941   4.943 -0.1724 -0.0736  0.4349
  277THF     C3 5531   3.553   2.841   4.893 -0.8526 -0.2238 -0.5551
  277THF     H4 5532   3.274   2.874   4.949 -0.6442  0.4286 -0.3999
  277THF     H5 5533   3.317   3.041   4.935 -1.2967 -0.5976 -0.4087
  277THF     H6 5534   3.581   2.753   4.836 -1.4952 -0.8141  0.0186
  277THF     H7 5535   3.639   2.907   4.886 -1.8102  1.1113 -0.1960
  277THF     C8 5536   3.522   2.811   5.044 -0.4635 -0.0562 -0.2355
  277THF     C9 5537   3.426   2.917   5.079  0.3746  0.6276 -0.0213
  277THF    H10 5538   3.612   2.828   5.104 -0.8487  0.8190  0.1084
  277THF    H11 5539   3.486   2.709   5.047 -0.1959 -0.1528  2.8247
  277THF    H12 5540   3.353   2.896   5.156 -0.2494  1.8348 -0.2526
  277THF    H13 5541   3.468   3.010   5.118  3.3242 -0.6951  0.2631
  278THF     O1 5542   3.434   3.080   1.018  0.1161  0.2364 -0.5333
  278THF     C2 5543   3.453   3.214   1.069 -0.0432  0.1449  0.2691
  278THF     C3 5544   3.516   2.993   1.085 -0.5075  0.6530 -0.5959
  278THF     H4 5545   3.370   3.279   1.043  0.0374 -0.1980 -0.8832
  278THF     H5 5546   3.550   3.256   1.043  0.4085 -1.7844 -1.4652
  278THF     H6 5547   3.489   2.887   1.090  2.6868 -0.2727 -0.3993
  278THF     H7 5548   3.612   2.985   1.034 -0.2097 -0.3822  0.0840
  278THF     C8 5549   3.525   3.050   1.234 -0.0699 -0.4356  0.3065
  278THF     C9 5550   3.461   3.189   1.225 -0.0241 -0.0594  0.0847
  278THF    H10 5551   3.624   3.058   1.279 -0.3986 -1.8101  1.3465
  278THF    H11 5552   3.473   2.985   1.305 -0.0940  0.3239  1.0001
  278THF    H12 5553   3.358   3.195   1.261 -0.2463 -2.4259  0.0010
  278THF    H13 5554   3.506   3.271   1.281 -0.2537  0.1243  0.0031
  279THF     O1 5555   3.597   0.321   2.208  0.1474  0.0324  0.1837
  279THF     C2 5556   3.698   0.225   2.194  0.5462  0.1257  0.0892
  279THF     C3 5557   3.610   0.377   2.341  0.1158  0.0588 -0.3136
  279THF     H4 5558   3.800   0.262   2.190  0.8566 -0.7928 -1.6404
  279THF     H5 5559   3.681   0.155   2.111  0.4900 -1.5268  1.4324
  279THF     H6 5560   3.681   0.460   2.339  0.5933 -0.3560 -2.1734
  279THF     H7 5561   3.515   0.412   2.381  0.5170  0.6137  0.1858
  279THF     C8 5562   3.662   0.260   2.424 -0.4579  0.2154 -0.1449
  279THF     C9 5563   3.688   0.152   2.325  0.9876 -0.0345 -1.2970
  279THF    H10 5564   3.591   0.219   2.496 -0.1941  1.3969  0.8166
  279THF    H11 5565   3.754   0.285   2.477 -0.3029 -1.0951  0.2406
  279THF    H12 5566   3.766   0.080   2.349  0.5105  0.1114  0.9078
  279THF    H13 5567   3.599   0.090   2.327  0.0718  1.2312  1.4900
  280THF     O1 5568   2.040   1.618   0.278 -0.5333 -0.5692  0.1431
  280THF     C2 5569   2.022   1.490   0.227  0.1396  0.0933  0.4986
  280THF     C3 5570   1.976   1.621   0.409 -0.3784  0.8779 -0.6231
  280THF     H4 5571   2.091   1.423   0.279  2.3778  1.3201 -0.6925
  280THF     H5 5572   2.042   1.492   0.120  1.0980  1.8843  0.6711
  280THF     H6 5573   2.044   1.624   0.494  0.7523 -2.5289 -1.2448
  280THF     H7 5574   1.907   1.705   0.409 -0.2052  1.0292  0.2303
  280THF     C8 5575   1.882   1.494   0.412 -0.2779 -0.4315 -0.2425
  280THF     C9 5576   1.880   1.458   0.268 -0.9235  0.5853 -0.5435
  280THF    H10 5577   1.787   1.526   0.455  0.3829  1.2927  0.0322
  280THF    H11 5578   1.933   1.409   0.457 -0.0395 -1.5443 -2.4733
  280THF    H12 5579   1.890   1.350   0.264  4.0639  0.7092  1.0605
  280THF    H13 5580   1.805   1.516   0.214 -0.0501  2.0814 -0.2038
  281THF     O1 5581   4.950   4.870   4.819  1.0674  0.6058  0.0370
  281THF     C2 5582   4.962   5.012   4.825 -0.3829  0.1219  0.4809
  281THF     C3 5583   4.811   4.838   4.839 -0.0077  0.4022 -0.2074
  281THF     H4 5584   5.059   5.044   4.784  0.1433 -1.1242  0.7067
  281THF     H5 5585   4.965   5.060   4.922 -1.3058 -2.1127  1.6938
  281THF     H6 5586   4.797   4.731   4.826  3.4698 -0.7140  3.3781
  281THF     H7 5587   4.779   4.867   4.939  0.7300 -1.3470  0.5695
  281THF     C8 5588   4.758   4.926   4.725 -0.2647  0.5936 -0.5680
  281THF     C9 5589   4.833   5.056   4.755  0.5452  0.0041 -0.4418
  281THF    H10 5590   4.651   4.941   4.741 -0.8960 -2.6851 -1.0697
  281THF    H11 5591   4.787   4.884   4.629  0.5582 -0.4138  0.0861
  281THF    H12 5592   4.861   5.115   4.667 -0.5830  0.2903 -0.6213
  281THF    H13 5593   4.776   5.121   4.822  0.7480 -0.2459 -0.0258
  282THF     O1 5594   3.178   2.329   3.953  0.5308 -0.2770  0.6025
  282THF     C2 5595   3.114   2.380   4.069 -0.9470  0.2420  0.2323
  282THF     C3 5596   3.223   2.442   3.881  0.5675  0.0780 -0.0556
  282THF     H4 5597   3.113   2.314   4.156  1.3116  1.2595  1.0883
  282THF     H5 5598   3.011   2.392   4.036 -0.5225  2.5049 -0.3838
  282THF     H6 5599   3.318   2.407   3.840 -0.5806 -0.3932 -2.4782
  282THF     H7 5600   3.158   2.476   3.801  1.8850  0.1891 -1.1097
  282THF     C8 5601   3.247   2.559   3.984  0.5787  0.3409 -0.6866
  282THF     C9 5602   3.177   2.511   4.112 -0.0982  0.2370 -0.3092
  282THF    H10 5603   3.188   2.645   3.952  0.1082  0.7214  1.1201
  282THF    H11 5604   3.351   2.589   3.998  0.9679 -1.2207 -0.0390
  282THF    H12 5605   3.262   2.495   4.178  1.9482  0.9608 -2.5940
  282THF    H13 5606   3.111   2.590   4.146 -0.4588  0.1532 -0.7986
  283THF     O1 5607   3.034   2.550   4.892 -0.2950  0.0235 -0.0598
  283THF     C2 5608   2.965   2.427   4.864 -0.2288  0.1023 -0.3561
  283THF     C3 5609   2.947   2.647   4.854  0.6466  0.5520 -0.2635
  283THF     H4 5610   3.014   2.347   4.920  0.4832 -0.2159 -1.4061
  283THF     H5 5611   2.974   2.406   4.757  0.8482  0.5854 -0.3793
  283THF     H6 5612   2.959   2.739   4.912 -0.4464 -0.2821  1.3870
  283THF     H7 5613   2.959   2.667   4.748 -0.6360  0.9382 -0.3583
  283THF     C8 5614   2.804   2.607   4.886 -0.5694 -0.1672 -0.4625
  283THF     C9 5615   2.818   2.454   4.902 -0.2506  0.3598  0.5170
  283THF    H10 5616   2.729   2.629   4.810 -1.6170 -0.6223  0.4112
  283THF    H11 5617   2.764   2.648   4.979  1.8700  0.6212  0.3019
  283THF    H12 5618   2.809   2.428   5.008  2.3932 -1.9255  0.2832
  283THF    H13 5619   2.748   2.391   4.847  0.7198  0.0608 -0.3923
  284THF     O1 5620   2.166   4.666   4.163 -0.2387  1.1127 -0.5541
  284THF     C2 5621   2.071   4.771   4.176  0.4817  0.2507  0.8351
  284THF     C3 5622   2.273   4.700   4.083 -0.5479 -0.0557  0.1129
  284THF     H4 5623   2.041   4.779   4.281  1.1592  0.5590  1.0117
  284THF     H5 5624   1.987   4.754   4.109 -2.4323  2.8749  3.4542
  284THF     H6 5625   2.360   4.697   4.149 -0.3713  0.7905 -0.0791
  284THF     H7 5626   2.280   4.629   4.001 -0.2367 -0.0367  0.1215
  284THF     C8 5627   2.241   4.841   4.029 -0.5225  0.0782 -0.4732
  284THF     C9 5628   2.143   4.898   4.129 -0.1225 -0.6598  0.1732
  284THF    H10 5629   2.195   4.821   3.932 -3.7688 -0.8146  1.1159
  284THF    H11 5630   2.331   4.902   4.021  1.0614 -1.5549  2.7388
  284THF    H12 5631   2.195   4.936   4.217 -2.4616 -2.0161  2.2675
  284THF    H13 5632   2.079   4.966   4.074  0.2678 -1.0518 -0.7840
  285THF     O1 5633   3.595   3.562   3.415  0.2044 -0.6642  0.0741
  285THF     C2 5634   3.710   3.610   3.351 -0.5076 -0.2360  0.1210
  285THF     C3 5635   3.492   3.661   3.404 -0.0528  0.2888  0.0662
  285THF     H4 5636   3.689   3.602   3.244  0.9011 -0.1655 -0.1807
  285THF     H5 5637   3.795   3.547   3.379  0.7271  0.9926 -0.7588
  285THF     H6 5638   3.456   3.659   3.301  1.4923  1.1177 -0.5282
  285THF     H7 5639   3.412   3.640   3.474 -0.1903 -1.2693 -0.5181
  285THF     C8 5640   3.571   3.785   3.417 -0.2582  0.1495 -0.3219
  285THF     C9 5641   3.721   3.743   3.415  0.6687  0.0827 -0.4412
  285THF    H10 5642   3.552   3.841   3.509  2.2126 -0.8356  0.8821
  285THF    H11 5643   3.550   3.863   3.344  1.7711  0.7958 -0.2882
  285THF    H12 5644   3.792   3.811   3.369  1.3687  1.0171  1.8457
  285THF    H13 5645   3.763   3.743   3.516  1.2321  0.2102 -0.6702
  286THF     O1 5646   3.941   2.516   0.391  0.3881 -0.4463  0.3202
  286THF     C2 5647   3.866   2.481   0.502  0.4083 -0.2866 -0.1616
  286THF     C3 5648   3.882   2.635   0.331 -0.4601  0.5618  0.0616
  286THF     H4 5649   3.884   2.544   0.589  2.0097  1.7100 -1.8354
  286THF     H5 5650   3.888   2.378   0.531  0.4006 -0.3678 -0.4347
  286THF     H6 5651   3.927   2.723   0.378 -0.7696  0.5281  0.4172
  286THF     H7 5652   3.904   2.628   0.224 -1.5121  1.6712 -0.2545
  286THF     C8 5653   3.731   2.617   0.364  0.2725  0.0885  0.2319
  286THF     C9 5654   3.719   2.495   0.455 -0.2265 -0.7785 -0.3583
  286THF    H10 5655   3.666   2.596   0.279  0.5363 -0.4828  0.1660
  286THF    H11 5656   3.690   2.706   0.411 -0.3111  1.1038 -2.0828
  286THF    H12 5657   3.654   2.516   0.539  0.2479  1.0928 -0.4000
  286THF    H13 5658   3.700   2.405   0.397  1.6556 -2.7739  1.9336
  287THF     O1 5659   5.386   1.150   1.572  0.1930 -0.1240  0.1132
  287THF     C2 5660   5.308   1.211   1.674 -0.7732  0.1767  0.1267
  287THF     C3 5661   5.293   1.067   1.499 -0.1268  0.6956  0.0008
  287THF     H4 5662   5.260   1.299   1.632  2.0662  1.7182 -0.1341
  287THF     H5 5663   5.377   1.237   1.754 -1.6233  0.6546  0.7197
  287THF     H6 5664   5.245   1.128   1.422 -1.8591 -1.0132 -0.3647
  287THF     H7 5665   5.343   0.981   1.453  0.2179 -0.2491  2.0256
  287THF     C8 5666   5.187   1.018   1.601 -0.3316 -0.3705 -0.3542
  287THF     C9 5667   5.205   1.118   1.721  0.2936 -0.1990 -0.0113
  287THF    H10 5668   5.208   0.915   1.629 -0.2822 -0.0221  0.9949
  287THF    H11 5669   5.089   1.022   1.554  0.6737 -1.5511 -2.6721
  287THF    H12 5670   5.112   1.174   1.737  1.2013  1.4570 -0.3660
  287THF    H13 5671   5.225   1.063   1.813  0.8510  0.2486  0.1402
  288THF     O1 5672   0.896   0.411   1.059 -0.1285  0.1677  0.5696
  288THF     C2 5673   0.933   0.527   0.989 -0.1292  0.0140  0.3065
  288THF     C3 5674   0.961   0.295   0.992  0.3287 -0.5870 -0.0087
  288THF     H4 5675   1.036   0.560   1.004  0.4715 -1.2271 -0.8380
  288THF     H5 5676   0.862   0.608   1.002  1.3003  1.6674 -1.4955
  288THF     H6 5677   1.047   0.271   1.054  0.2786  0.1367  0.3592
  288THF     H7 5678   0.906   0.201   0.990 -0.6200 -0.0691 -2.7154
  288THF     C8 5679   0.998   0.342   0.859  0.5291  0.4832 -0.2026
  288THF     C9 5680   0.938   0.482   0.846  0.3319  0.5075  0.3724
  288THF    H10 5681   0.954   0.274   0.786 -0.9351  1.6511 -0.4452
  288THF    H11 5682   1.106   0.349   0.845  0.6308  0.2528  0.4493
  288THF    H12 5683   0.992   0.549   0.779  2.1656 -3.3008 -2.4021
  288THF    H13 5684   0.834   0.470   0.817 -0.2460 -0.7919  2.7648
  289THF     O1 5685   0.646   2.837   0.397  0.0833  0.0160 -0.2813
  289THF     C2 5686   0.671   2.969   0.360 -0.2669 -0.0143 -0.0932
  289THF     C3 5687   0.664   2.814   0.534  0.4097 -0.1941 -0.1556
  289THF     H4 5688   0.587   3.027   0.397 -1.2748 -1.0990 -0.6005
  289THF     H5 5689   0.684   2.997   0.256  2.5770 -0.6429  0.0117
  289THF     H6 5690   0.579   2.846   0.594  2.8495  0.5361  3.1742
  289THF     H7 5691   0.683   2.709   0.560  1.3218  0.0679  0.2919
  289THF     C8 5692   0.779   2.904   0.560 -0.7966 -0.5016  0.0804
  289THF     C9 5693   0.803   2.988   0.432 -0.0258  0.0526 -0.1368
  289THF    H10 5694   0.866   2.846   0.591 -0.7152 -0.4401 -0.0302
  289THF    H11 5695   0.752   2.976   0.636 -0.1443  1.3122 -1.3416
  289THF    H12 5696   0.820   3.093   0.456 -0.4794  0.1425 -0.1943
  289THF    H13 5697   0.887   2.939   0.382 -0.3675  0.4525 -1.1149
  290THF     O1 5698   4.109   4.227   4.400  0.5695 -0.5267  0.3217
  290THF     C2 5699   4.022   4.113   4.381 -0.1452 -0.7365  0.5743
  290THF     C3 5700   4.182   4.201   4.522  0.3261  0.3213  0.0182
  290THF     H4 5701   3.984   4.106   4.279 -0.2328  0.2366  0.5263
  290THF     H5 5702   3.939   4.111   4.452 -0.0038  1.2486  0.8802
  290THF     H6 5703   4.263   4.274   4.527  0.8074  0.1042 -3.1020
  290THF     H7 5704   4.114   4.202   4.608 -1.6047 -1.6516 -1.3820
  290THF     C8 5705   4.224   4.057   4.503 -0.3522 -1.0700 -0.0488
  290THF     C9 5706   4.117   3.999   4.410 -0.0139 -0.1690 -0.2680
  290THF    H10 5707   4.245   4.010   4.600  1.1647  0.1672  0.2688
  290THF    H11 5708   4.318   4.060   4.449 -0.7447 -0.1018 -0.6839
  290THF    H12 5709   4.157   3.951   4.320 -1.1759 -0.7465 -0.4934
  290THF    H13 5710   4.073   3.916   4.466 -0.3143  0.1518 -0.0235
  291THF     O1 5711   1.947   0.905   0.215  0.0711 -0.1923 -0.5150
  291THF     C2 5712   2.083   0.868   0.228  0.5880  0.2078  0.7053
  291THF     C3 5713   1.944   1.041   0.175  0.3008  0.5350  0.2123
  291THF     H4 5714   2.129   0.844   0.132  0.1031 -1.0644  0.7772
  291THF     H5 5715   2.094   0.780   0.291  0.6888 -0.2801  0.0087
  291THF     H6 5716   1.990   1.052   0.077 -0.8104 -0.9575 -0.5307
  291THF     H7 5717   1.848   1.092   0.178  0.3714  0.8295 -1.3752
  291THF     C8 5718   2.049   1.100   0.273  0.2485 -0.4830  0.7430
  291THF     C9 5719   2.143   0.991   0.299 -0.0244  0.4653 -0.3231
  291THF    H10 5720   2.006   1.126   0.370  1.3451  0.9797  0.8759
  291THF    H11 5721   2.101   1.184   0.227 -0.1594  0.0924  1.3041
  291THF    H12 5722   2.247   1.008   0.269 -0.0494  0.4462 -0.4228
  291THF    H13 5723   2.151   0.969   0.405  1.3552  4.6254  0.6134
  292THF     O1 5724   0.629   0.754   2.794 -0.1854  0.2165  0.6321
  292THF     C2 5725   0.710   0.866   2.806 -0.3003 -0.1340 -0.1256
  292THF     C3 5726   0.685   0.674   2.690 -0.4148 -0.3966  0.0715
  292THF     H4 5727   0.699   0.922   2.899  0.5859  0.3292 -0.2871
  292THF     H5 5728   0.710   0.933   2.720 -1.5767  0.5498  0.3790
  292THF     H6 5729   0.638   0.576   2.690 -0.8143 -0.2241  1.5012
  292THF     H7 5730   0.667   0.723   2.594  1.5701 -0.4023 -0.3473
  292THF     C8 5731   0.834   0.672   2.724  0.6098 -0.2331 -0.2260
  292THF     C9 5732   0.849   0.795   2.810 -0.8089 -0.3297  0.3119
  292THF    H10 5733   0.886   0.670   2.629 -0.7073 -1.2746 -0.9648
  292THF    H11 5734   0.854   0.574   2.767 -1.7989 -1.7954 -2.3307
  292THF    H12 5735   0.876   0.768   2.912  0.1999 -0.2027  0.0856
  292THF    H13 5736   0.925   0.867   2.779  0.4911 -1.6204  0.4483
  293THF     O1 5737   0.859   3.348   5.475  0.7558  0.4592 -0.9502
  293THF     C2 5738   0.889   3.259   5.381 -0.4779  0.9020 -0.6291
  293THF     C3 5739   0.960   3.337   5.582 -0.4214 -0.4403 -0.0444
  293THF     H4 5740   0.987   3.280   5.337  0.2675  0.7057  0.8770
  293THF     H5 5741   0.813   3.254   5.303  1.0077 -0.8162 -2.1006
  293THF     H6 5742   1.062   3.350   5.545  0.8030 -1.2268  2.7408
  293THF     H7 5743   0.943   3.385   5.678 -2.7098 -1.6486  0.2266
  293THF     C8 5744   0.944   3.188   5.601 -0.7035 -0.0898  0.1698
  293THF     C9 5745   0.902   3.137   5.469  0.1709 -0.1635  0.5605
  293THF    H10 5746   0.859   3.175   5.669 -0.1326 -2.1242  0.5644
  293THF    H11 5747   1.032   3.134   5.635  1.0345  1.0255 -2.2622
  293THF    H12 5748   0.979   3.079   5.418 -0.0914  0.7230 -0.9086
  293THF    H13 5749   0.820   3.066   5.481  0.3996 -0.0822  3.1576
  294THF     O1 5750   4.710   2.603   4.353 -0.5486  0.0149  0.0603
  294THF     C2 5751   4.719   2.735   4.304  0.5194 -0.0480  0.0158
  294THF     C3 5752   4.586   2.550   4.307 -0.5644  0.0377  0.0126
  294THF     H4 5753   4.780   2.741   4.214 -1.0721 -1.4368 -1.2386
  294THF     H5 5754   4.770   2.774   4.392  1.6657 -0.2682 -0.5395
  294THF     H6 5755   4.597   2.522   4.202 -0.6317  3.0798 -0.9078
  294THF     H7 5756   4.553   2.465   4.367  0.2054 -0.1336  0.1984
  294THF     C8 5757   4.495   2.672   4.313  0.1524  0.3601 -0.7806
  294THF     C9 5758   4.578   2.783   4.266 -0.1509  0.5295 -0.2681
  294THF    H10 5759   4.460   2.695   4.414  3.3016  2.1695  0.0502
  294THF    H11 5760   4.405   2.651   4.255 -1.2186  0.9223  1.0506
  294THF    H12 5761   4.581   2.810   4.161  4.7501  0.2155 -0.4268
  294THF    H13 5762   4.558   2.874   4.323  2.2664  0.2417  1.1832
  295THF     O1 5763   2.823   2.255   4.407  0.6175 -0.0264  0.3580
  295THF     C2 5764   2.772   2.290   4.532 -0.0941  0.3297 -0.1832
  295THF     C3 5765   2.760   2.334   4.306  0.2860  0.1238 -0.2980
  295THF     H4 5766   2.837   2.254   4.612  1.1433 -0.8805 -1.6774
  295THF     H5 5767   2.677   2.241   4.556  0.5205 -0.2430  1.1767
  295THF     H6 5768   2.817   2.357   4.216  0.6696  0.3112 -0.0069
  295THF     H7 5769   2.666   2.281   4.288  0.3894 -0.5705  1.1049
  295THF     C8 5770   2.711   2.458   4.378  0.2103 -0.3619 -0.1768
  295THF     C9 5771   2.754   2.440   4.525  0.3940 -0.2656  0.3440
  295THF    H10 5772   2.605   2.480   4.371  0.0314 -0.8690  0.6880
  295THF    H11 5773   2.770   2.539   4.336  2.5065 -2.1766 -0.7211
  295THF    H12 5774   2.851   2.491   4.530 -0.5763  1.7340 -0.2687
  295THF    H13 5775   2.684   2.471   4.602  0.0328 -0.5447  0.1362
  296THF     O1 5776   0.367   0.718   3.663  0.0296  0.2237 -0.0276
  296THF     C2 5777   0.370   0.702   3.520 -0.9045 -0.6969 -0.0186
  296THF     C3 5778   0.239   0.759   3.698  0.0456  0.1206  0.0897
  296THF     H4 5779   0.422   0.610   3.495  1.6582  0.5165  0.5311
  296THF     H5 5780   0.448   0.769   3.484  0.4504 -2.0728  0.2720
  296THF     H6 5781   0.188   0.675   3.745  1.4652 -1.0974 -0.4658
  296THF     H7 5782   0.241   0.843   3.767 -0.5178  0.2909 -0.0974
  296THF     C8 5783   0.161   0.798   3.575 -0.0778  0.1936 -0.3963
  296THF     C9 5784   0.232   0.712   3.467  0.3547 -0.2468 -0.5451
  296THF    H10 5785   0.170   0.905   3.557  0.6776 -0.0186 -1.3520
  296THF    H11 5786   0.053   0.795   3.591  0.0150 -0.9143  0.0904
  296THF    H12 5787   0.194   0.610   3.461  1.5322 -0.8094  0.8501
  296THF    H13 5788   0.212   0.738   3.364 -0.4186  1.1657 -0.0613
  297THF     O1 5789   2.909   0.458   0.347  0.6482 -0.2947 -0.0564
  297THF     C2 5790   2.897   0.318   0.350 -0.3983  0.1790 -0.0262
  297THF     C3 5791   2.843   0.507   0.240 -0.3214 -0.8319  0.2670
  297THF     H4 5792   2.802   0.282   0.390 -0.9796 -0.0343 -1.5390
  297THF     H5 5793   2.977   0.267   0.404 -0.0254  0.4041 -0.3674
  297THF     H6 5794   2.748   0.540   0.284  0.5509  1.3195  0.6661
  297THF     H7 5795   2.878   0.607   0.211 -2.5442 -0.3305 -0.9278
  297THF     C8 5796   2.825   0.393   0.141 -0.0170  0.0127  0.0430
  297THF     C9 5797   2.895   0.275   0.203 -0.0709  0.0391  0.0811
  297THF    H10 5798   2.879   0.411   0.049 -0.9102 -0.4084 -0.5765
  297THF    H11 5799   2.722   0.368   0.116  0.5127 -0.8356 -1.3859
  297THF    H12 5800   2.823   0.196   0.186  0.0270  0.3387 -1.9857
  297THF    H13 5801   2.987   0.246   0.151 -1.6192 -1.9390 -1.7050
  298THF     O1 5802   1.810   0.505   1.991 -0.2808 -0.5175  0.1079
  298THF     C2 5803   1.812   0.442   2.119  0.1767 -0.1121  0.0099
  298THF     C3 5804   1.833   0.642   2.023  0.4905 -0.2805  0.8875
  298THF     H4 5805   1.873   0.352   2.119  2.2287  1.2129  0.1532
  298THF     H5 5806   1.710   0.415   2.147 -0.5861  0.6965 -1.8036
  298THF     H6 5807   1.859   0.703   1.937 -0.7116  0.2637  0.8924
  298THF     H7 5808   1.738   0.689   2.046  0.5293 -0.2371  0.9562
  298THF     C8 5809   1.923   0.657   2.136 -0.5037  0.1890 -0.1582
  298THF     C9 5810   1.877   0.537   2.216 -0.2945 -0.6101  0.0436
  298THF    H10 5811   1.904   0.752   2.186  0.6610 -0.0724  0.8278
  298THF    H11 5812   2.024   0.639   2.100 -0.8697  0.4219 -1.3243
  298THF    H12 5813   1.956   0.504   2.284  0.5225  0.5537 -0.2997
  298THF    H13 5814   1.798   0.568   2.284  0.2452  0.0831  0.3685
  299THF     O1 5815   2.078   4.193   4.066 -0.1522  0.4697  0.0129
  299THF     C2 5816   1.981   4.115   4.125 -0.3139  0.1438 -0.2585
  299THF     C3 5817   2.114   4.290   4.162  0.1983 -0.0731 -0.0006
  299THF     H4 5818   1.996   4.008   4.110 -0.7991 -0.1544  1.1612
  299THF     H5 5819   1.883   4.128   4.080 -0.0335  0.7014 -0.7223
  299THF     H6 5820   2.205   4.276   4.220 -0.4542  1.9285  1.6237
  299THF     H7 5821   2.115   4.385   4.110 -1.6918  0.5038  0.9162
  299THF     C8 5822   1.998   4.296   4.265 -0.5599  0.2928 -0.1855
  299THF     C9 5823   1.966   4.151   4.272 -0.2612 -0.7817  0.0915
  299THF    H10 5824   1.913   4.348   4.221  0.5593  0.8947 -1.7269
  299THF    H11 5825   2.033   4.342   4.358  2.1884 -1.0633 -0.4550
  299THF    H12 5826   2.039   4.098   4.333  1.2720  1.4412  0.3089
  299THF    H13 5827   1.871   4.121   4.315 -0.9951 -0.7469 -1.4426
  300THF     O1 5828   2.644   4.796   0.485 -0.1087  0.1924  0.1911
  300THF     C2 5829   2.543   4.897   0.479 -0.5245 -0.1634 -0.0536
  300THF     C3 5830   2.623   4.722   0.607  0.2342 -0.4588  0.3965
  300THF     H4 5831   2.525   4.925   0.376 -0.4194 -0.4073 -0.1378
  300THF     H5 5832   2.582   4.983   0.534 -1.6944 -1.1648  2.5407
  300THF     H6 5833   2.672   4.625   0.612 -1.2321 -1.1709  1.9878
  300THF     H7 5834   2.665   4.778   0.691 -0.4307 -2.1578  1.9399
  300THF     C8 5835   2.468   4.712   0.616 -0.1122 -0.6439 -0.8191
  300THF     C9 5836   2.420   4.839   0.548  0.7200  0.3503  0.6568
  300THF    H10 5837   2.428   4.700   0.717 -0.0791 -1.7711 -0.9180
  300THF    H11 5838   2.440   4.623   0.559 -1.3889 -1.6445  1.2396
  300THF    H12 5839   2.352   4.816   0.466  0.9936 -0.6183  0.6919
  300THF    H13 5840   2.365   4.900   0.620 -2.6119  0.3519 -1.6545
  301THF     O1 5841   4.175   2.030   0.610  0.8903  0.5622  0.1266
  301THF     C2 5842   4.292   2.104   0.656 -0.3761  0.4102  0.0905
  301THF     C3 5843   4.102   2.135   0.564  0.0407  0.1367  0.2864
  301THF     H4 5844   4.370   2.027   0.665 -0.0188  0.5342 -1.5918
  301THF     H5 5845   4.284   2.174   0.739 -3.2474  0.6478 -0.3013
  301THF     H6 5846   4.020   2.096   0.503 -1.7712  2.8548  0.8496
  301THF     H7 5847   4.062   2.197   0.644 -0.8647 -1.3160  1.0148
  301THF     C8 5848   4.189   2.209   0.469  0.7477 -0.0037  0.0855
  301THF     C9 5849   4.324   2.193   0.531  0.2056  0.5898 -0.1877
  301THF    H10 5850   4.157   2.311   0.450  2.4949  0.3396 -1.1947
  301THF    H11 5851   4.210   2.154   0.377  2.5122 -0.3833  0.6705
  301THF    H12 5852   4.400   2.136   0.476 -0.0441 -1.3508  1.3479
  301THF    H13 5853   4.362   2.289   0.565  0.3256  0.5827 -0.3007
  302THF     O1 5854   1.343   1.674   1.326  0.0371  0.0585  0.3481
  302THF     C2 5855   1.459   1.601   1.355 -0.1654 -0.4925  0.2952
  302THF     C3 5856   1.230   1.605   1.387 -0.0987  0.3869 -0.4583
  302THF     H4 5857   1.550   1.662   1.346 -0.7413  0.2064 -1.1565
  302THF     H5 5858   1.464   1.528   1.274 -0.2356  0.1121 -0.2719
  302THF     H6 5859   1.148   1.672   1.415  1.5101  3.0371 -1.6528
  302THF     H7 5860   1.188   1.527   1.324 -0.2697 -0.1376  0.2966
  302THF     C8 5861   1.285   1.513   1.499  0.3993 -0.2605  0.2864
  302THF     C9 5862   1.431   1.539   1.487 -0.2116 -0.0359  0.6349
  302THF    H10 5863   1.264   1.407   1.491  1.2872 -0.5088  1.0622
  302THF    H11 5864   1.252   1.540   1.599 -1.2152  0.2835 -0.3642
  302THF    H12 5865   1.449   1.615   1.562  0.9103  0.7253 -0.3827
  302THF    H13 5866   1.477   1.445   1.517 -0.7150  0.0299  1.6542
  303THF     O1 5867   0.935   4.898   3.762  0.0613 -0.4160 -0.2960
  303THF     C2 5868   0.917   4.754   3.759 -0.7525 -0.7216  0.1164
  303THF     C3 5869   0.890   4.948   3.631  0.5172 -0.1543  0.3271
  303THF     H4 5870   0.920   4.723   3.864  0.2007  1.1240  0.6822
  303THF     H5 5871   1.001   4.710   3.706  0.0968  1.2431 -0.2291
  303THF     H6 5872   0.854   5.049   3.647 -1.4724 -0.9347  1.1282
  303THF     H7 5873   0.980   4.948   3.570 -0.0087 -0.5928 -0.4668
  303THF     C8 5874   0.774   4.858   3.584 -0.5801 -0.3559 -0.2305
  303THF     C9 5875   0.789   4.740   3.679 -0.6201  0.3135 -0.6939
  303THF    H10 5876   0.785   4.822   3.482  1.1517  1.5318 -0.7569
  303THF    H11 5877   0.671   4.888   3.602 -0.4772 -1.1070  1.9038
  303THF    H12 5878   0.716   4.763   3.757 -0.8635 -0.4075 -0.7013
  303THF    H13 5879   0.775   4.644   3.629  0.1427  1.0358 -2.3511
  304THF     O1 5880   3.586   4.205   0.989  0.2854  0.0333  0.1994
  304THF     C2 5881   3.623   4.104   0.896  0.1039  0.0720 -0.3354
  304THF     C3 5882   3.452   4.189   1.035 -0.2806 -0.2488  0.2724
  304THF     H4 5883   3.658   4.012   0.944  0.9842  0.6421  0.1573
  304THF     H5 5884   3.699   4.137   0.825 -1.1667  0.3367 -1.6147
  304THF     H6 5885   3.455   4.144   1.134  3.6703  0.5398  0.6819
  304THF     H7 5886   3.412   4.289   1.053  2.1232  1.0313 -0.9285
  304THF     C8 5887   3.388   4.109   0.924  0.0968  0.3269 -0.1249
  304THF     C9 5888   3.494   4.072   0.823 -0.4167 -0.1344 -0.1773
  304THF    H10 5889   3.301   4.163   0.886 -0.3539  0.1383  0.6193
  304THF    H11 5890   3.362   4.010   0.963  0.2417 -0.3810 -1.7385
  304THF    H12 5891   3.498   3.970   0.785  1.4506 -0.8914  1.8358
  304THF    H13 5892   3.497   4.125   0.728  1.9830 -0.0734 -0.1154
  305THF     O1 5893   1.869   3.778   5.117  0.2617 -0.4319 -0.1896
  305THF     C2 5894   2.009   3.795   5.151 -0.4702  0.4587 -0.2439
  305THF     C3 5895   1.844   3.842   4.990  0.0601  0.3281 -1.2490
  305THF     H4 5896   2.036   3.719   5.224  0.6653  2.1754  1.2062
  305THF     H5 5897   2.014   3.893   5.198  1.2969  0.5162 -0.5103
  305THF     H6 5898   1.746   3.815   4.952 -0.9978 -1.6853  2.4667
  305THF     H7 5899   1.839   3.948   5.012 -0.9966 -0.2501  1.8104
  305THF     C8 5900   1.966   3.811   4.908  0.7187  0.5790 -0.7032
  305THF     C9 5901   2.071   3.786   5.016  0.0282  0.0720 -0.5817
  305THF    H10 5902   1.999   3.881   4.831  0.5999  0.0793 -1.2219
  305THF    H11 5903   1.941   3.716   4.860  0.3715  0.8740 -1.1221
  305THF    H12 5904   2.113   3.687   5.000  1.1933  0.5443 -0.5309
  305THF    H13 5905   2.161   3.847   5.017  0.7281 -0.9171  1.7004
  306THF     O1 5906   5.364   0.545   1.336  0.3612  0.3301  0.7975
  306THF     C2 5907   5.255   0.628   1.366  0.0865  0.4996 -0.7701
  306THF     C3 5908   5.350   0.426   1.404 -0.4954  0.2678 -0.5087
  306THF     H4 5909   5.167   0.591   1.313 -0.3088  1.6678 -0.9426
  306THF     H5 5910   5.262   0.731   1.333 -0.0950  0.3423 -1.3157
  306THF     H6 5911   5.278   0.359   1.358 -1.0545 -1.6631  2.9297
  306THF     H7 5912   5.451   0.388   1.420 -0.8324 -0.2151  0.5049
  306THF     C8 5913   5.301   0.466   1.543  0.4870  0.3321  0.0233
  306THF     C9 5914   5.238   0.601   1.515  0.4036  0.0335 -0.8158
  306THF    H10 5915   5.380   0.466   1.619 -1.1341 -2.4366  1.8608
  306THF    H11 5916   5.223   0.400   1.580 -0.8813  1.3767 -0.8960
  306THF    H12 5917   5.138   0.616   1.557  0.3486  1.6533 -1.4301
  306THF    H13 5918   5.301   0.673   1.568  0.4326  1.0100 -2.1201
  307THF     O1 5919   0.860   4.704   1.718 -0.3374 -0.0468 -0.0335
  307THF     C2 5920   0.937   4.599   1.658  0.3514 -0.5331 -0.4084
  307THF     C3 5921   0.821   4.659   1.845  0.2415 -0.1738 -0.5642
  307THF     H4 5922   1.040   4.630   1.677  0.0004  0.9393 -0.7612
  307THF     H5 5923   0.942   4.590   1.550  1.1511 -0.6909 -0.3647
  307THF     H6 5924   0.899   4.678   1.918 -0.0576  0.6467 -0.4483
  307THF     H7 5925   0.731   4.712   1.876  0.9678  0.4650  0.5240
  307THF     C8 5926   0.784   4.512   1.826 -0.0393  0.3304  0.8201
  307THF     C9 5927   0.900   4.471   1.734  0.7389  1.1002 -0.7120
  307THF    H10 5928   0.694   4.512   1.766  1.3471  2.3552 -1.4255
  307THF    H11 5929   0.772   4.455   1.919 -0.7126  1.0043  1.1491
  307THF    H12 5930   0.980   4.436   1.799 -0.5732  2.3177  1.7335
  307THF    H13 5931   0.874   4.384   1.673 -0.3290  0.8360  0.0786
  308THF     O1 5932   5.095   5.405   5.370 -0.4917 -0.3172 -0.6942
  308THF     C2 5933   5.211   5.420   5.289 -0.5925 -0.2620  0.5370
  308THF     C3 5934   5.119   5.313   5.473 -0.0364 -0.3665 -0.5949
  308THF     H4 5935   5.248   5.522   5.275 -0.7433 -0.2323  0.3490
  308THF     H5 5936   5.175   5.394   5.190  0.9331  1.2287 -0.4484
  308THF     H6 5937   5.161   5.371   5.555 -0.0977  0.3897 -1.0985
  308THF     H7 5938   5.032   5.251   5.499  0.4840 -0.3120  1.5217
  308THF     C8 5939   5.226   5.214   5.416  0.2198 -0.8074  0.4966
  308THF     C9 5940   5.314   5.313   5.335 -0.0949 -0.1508  0.0051
  308THF    H10 5941   5.170   5.154   5.346 -0.7494  1.8343 -1.1426
  308THF    H11 5942   5.273   5.153   5.493 -0.7554 -1.1463  0.8347
  308THF    H12 5943   5.394   5.354   5.396  0.8676 -2.9369  0.7664
  308THF    H13 5944   5.362   5.262   5.252 -1.1055 -2.0310  0.5078
  309THF     O1 5945   0.162   3.603   1.179 -0.0832 -0.3276  0.2988
  309THF     C2 5946   0.106   3.736   1.165 -0.0382 -0.4901  0.5108
  309THF     C3 5947   0.204   3.608   1.316  0.0448 -0.1476 -0.6244
  309THF     H4 5948   0.036   3.733   1.081 -0.1093  0.2042  0.5459
  309THF     H5 5949   0.191   3.803   1.150  1.8375 -2.8010  0.0773
  309THF     H6 5950   0.231   3.511   1.358 -0.4535  0.5531  1.3901
  309THF     H7 5951   0.289   3.676   1.316 -0.5273  0.5831  0.3375
  309THF     C8 5952   0.087   3.672   1.389  0.4056 -0.4845 -0.5602
  309THF     C9 5953   0.021   3.766   1.289  0.5247 -0.0304 -0.0658
  309THF    H10 5954   0.112   3.726   1.480  0.8854  0.1469 -1.0497
  309THF    H11 5955   0.012   3.596   1.413 -2.4185  1.8021 -1.4537
  309THF    H12 5956  -0.077   3.726   1.266  1.0097 -1.0081 -0.5035
  309THF    H13 5957   0.008   3.864   1.334  0.4951 -0.9208  1.9669
  310THF     O1 5958   1.226   0.032   0.643 -0.1220  0.4513  0.4125
  310THF     C2 5959   1.283  -0.065   0.735 -0.0524  0.5059  0.4616
  310THF     C3 5960   1.117  -0.021   0.574 -0.4193 -0.7592 -0.3041
  310THF     H4 5961   1.328  -0.011   0.818  0.1199  0.8217  0.1675
  310THF     H5 5962   1.349  -0.140   0.692  1.8504  1.1041  2.1994
  310THF     H6 5963   1.058   0.056   0.524  0.8855  0.1736 -0.4564
  310THF     H7 5964   1.154  -0.092   0.501  0.5928 -2.4034  1.6826
  310THF     C8 5965   1.046  -0.086   0.690 -0.0647 -0.2851 -0.6562
  310THF     C9 5966   1.156  -0.129   0.781 -0.4626  0.2881  0.4216
  310THF    H10 5967   0.985  -0.169   0.653  0.3754 -1.2121  0.6381
  310THF    H11 5968   0.986  -0.019   0.752  2.7277  0.5880  1.3215
  310THF    H12 5969   1.136  -0.093   0.882  1.1292  3.4652 -0.2456
  310THF    H13 5970   1.171  -0.237   0.778 -2.2690  0.0162  0.4116
  311THF     O1 5971   0.247   5.313   0.044 -0.1216 -0.0690 -0.0808
  311THF     C2 5972   0.315   5.202  -0.008  0.1064  0.1114 -0.1698
  311THF     C3 5973   0.183   5.260   0.162 -0.1041 -0.2605 -0.0007
  311THF     H4 5974   0.377   5.222  -0.095 -0.0711  0.1913 -0.2784
  311THF     H5 5975   0.238   5.130  -0.035  2.2585 -2.5442  0.3857
  311THF     H6 5976   0.139   5.341   0.220 -1.8110  0.0007 -1.5535
  311THF     H7 5977   0.112   5.182   0.133  0.3174 -0.5232 -0.3394
  311THF     C8 5978   0.301   5.193   0.238  0.6664  0.7296  0.0466
  311THF     C9 5979   0.387   5.140   0.116  0.5669  0.7066 -0.0481
  311THF    H10 5980   0.255   5.110   0.291  4.0271 -1.9398 -0.8898
  311THF    H11 5981   0.363   5.251   0.306 -1.9840 -0.7745  4.0785
  311THF    H12 5982   0.487   5.182   0.126  0.2826  0.9303  2.5291
  311THF    H13 5983   0.409   5.033   0.112  4.1918  1.2958  0.4188
  312THF     O1 5984   3.705   1.024   4.610 -0.7020  0.7358 -0.7674
  312THF     C2 5985   3.749   0.891   4.639 -0.6799  0.5333  0.2531
  312THF     C3 5986   3.647   1.016   4.481  0.5081 -0.2494  0.0386
  312THF     H4 5987   3.739   0.861   4.744  2.2087  0.0952  0.4740
  312THF     H5 5988   3.857   0.887   4.624 -1.0328 -1.9670 -2.6692
  312THF     H6 5989   3.541   1.000   4.500  0.9019  0.3740  3.4818
  312THF     H7 5990   3.660   1.111   4.429  0.7980  0.5070  1.4467
  312THF     C8 5991   3.694   0.891   4.417 -0.3005 -0.5806  0.3935
  312THF     C9 5992   3.695   0.792   4.535  0.2478  0.0614  0.8466
  312THF    H10 5993   3.793   0.901   4.374 -0.4351  0.6071  0.3085
  312THF    H11 5994   3.632   0.862   4.333 -0.1887  0.2009  0.0274
  312THF    H12 5995   3.598   0.772   4.579  0.2469 -0.1636  0.7448
  312THF    H13 5996   3.756   0.702   4.535  0.4471  0.1929  1.0241
  313THF     O1 5997   0.522   2.267   3.017  0.2726 -0.4684  0.5283
  313THF     C2 5998   0.575   2.298   2.883 -0.1322  0.2045  0.3716
  313THF     C3 5999   0.408   2.348   3.045  0.1541  0.5150  1.1011
  313THF     H4 6000   0.623   2.211   2.837 -1.6127 -0.3856 -0.1092
  313THF     H5 6001   0.646   2.380   2.875  1.2878 -1.0586 -0.5116
  313THF     H6 6002   0.332   2.291   3.099 -1.1004  0.5610 -0.5530
  313THF     H7 6003   0.436   2.439   3.098  1.1111  1.8534 -1.5225
  313THF     C8 6004   0.354   2.391   2.915  0.1153  0.8993  0.1728
  313THF     C9 6005   0.444   2.321   2.807 -0.0276 -0.1797  0.0783
  313THF    H10 6006   0.338   2.496   2.890 -1.7257 -0.0232 -3.1075
  313THF    H11 6007   0.254   2.351   2.903  0.2267  0.9543 -1.0960
  313THF    H12 6008   0.405   2.224   2.777 -0.1093  0.2414 -1.2587
  313THF    H13 6009   0.444   2.382   2.717 -0.0808  2.5990  1.8282
  314THF     O1 6010   4.407   3.874   2.778  0.3744 -0.4927  0.1728
  314THF     C2 6011   4.401   3.990   2.693 -0.0561  0.0828  0.1719
  314THF     C3 6012   4.376   3.761   2.698  0.5516  0.4906  0.0117
  314THF     H4 6013   4.492   4.011   2.637 -0.6939 -0.8176 -1.2766
  314THF     H5 6014   4.370   4.082   2.742  0.2132  1.3753 -1.9436
  314THF     H6 6015   4.471   3.743   2.647  0.5904  0.6148  0.0399
  314THF     H7 6016   4.352   3.674   2.760 -0.8047  0.5691 -0.3646
  314THF     C8 6017   4.268   3.796   2.592 -0.2746  0.2532 -0.0223
  314THF     C9 6018   4.292   3.949   2.588 -0.8434  0.0516  0.1547
  314THF    H10 6019   4.166   3.780   2.627 -0.5590  1.2086 -0.3763
  314THF    H11 6020   4.279   3.760   2.490 -2.1556  2.1843 -0.9732
  314THF    H12 6021   4.332   3.981   2.492 -2.5333  1.7296 -0.0443
  314THF    H13 6022   4.201   4.005   2.611 -0.5260  1.1309 -1.1031
  315THF     O1 6023   2.935   0.628   3.234 -0.2185 -0.0576  0.3801
  315THF     C2 6024   2.874   0.616   3.109 -0.6370 -0.3030  0.1357
  315THF     C3 6025   2.866   0.713   3.325  0.1401 -1.6458  0.0663
  315THF     H4 6026   2.912   0.530   3.054 -0.5080 -0.5448  0.5966
  315THF     H5 6027   2.898   0.705   3.051  2.2568 -0.5054  0.8810
  315THF     H6 6028   2.862   0.678   3.428 -0.9082 -0.4482  0.4525
  315THF     H7 6029   2.923   0.805   3.325  1.9987 -2.6518 -2.8733
  315THF     C8 6030   2.728   0.727   3.256  0.2037  0.1050 -0.0712
  315THF     C9 6031   2.729   0.613   3.161  0.1268 -0.4503 -0.7825
  315THF    H10 6032   2.708   0.819   3.201 -2.8745 -0.9588 -0.9343
  315THF    H11 6033   2.661   0.719   3.341  1.6543  3.0980  1.5185
  315THF    H12 6034   2.704   0.520   3.212  0.4284  0.3774  0.9554
  315THF    H13 6035   2.655   0.624   3.082 -1.2782 -2.9559  0.0660
  316THF     O1 6036   3.878   1.771   2.922 -0.3334 -0.6326  0.5083
  316THF     C2 6037   3.860   1.679   3.038 -1.0950 -0.3818 -0.0327
  316THF     C3 6038   3.765   1.742   2.837  0.1210 -0.2059 -0.0627
  316THF     H4 6039   3.838   1.735   3.129  2.1819 -1.7002  1.7277
  316THF     H5 6040   3.958   1.633   3.049 -1.5706 -1.1872  1.0195
  316THF     H6 6041   3.726   1.832   2.789  1.0666 -0.6706 -1.8041
  316THF     H7 6042   3.792   1.683   2.749 -0.8992  1.4987 -1.5832
  316THF     C8 6043   3.662   1.672   2.933  0.3564 -0.1242  0.5054
  316THF     C9 6044   3.756   1.575   3.008  0.3944  0.1608 -0.0118
  316THF    H10 6045   3.584   1.629   2.870  0.9493  0.2420 -0.4969
  316THF    H11 6046   3.613   1.735   3.007  0.4010 -0.1664  0.5717
  316THF    H12 6047   3.724   1.516   3.095  3.4878 -0.3371  0.9213
  316THF    H13 6048   3.785   1.495   2.940 -0.6341  0.5665 -0.9413
  317THF     O1 6049   0.885   0.825   4.111  0.1881  0.2762  0.0135
  317THF     C2 6050   1.008   0.853   4.164 -0.1026 -0.7135  0.1317
  317THF     C3 6051   0.797   0.804   4.223 -0.8923 -0.1008  0.2841
  317THF     H4 6052   1.020   0.959   4.188 -2.3348 -0.8238  1.9624
  317THF     H5 6053   1.088   0.829   4.093  0.6717 -0.1880  0.8017
  317THF     H6 6054   0.779   0.901   4.269 -2.7552 -0.2280 -0.1033
  317THF     H7 6055   0.696   0.765   4.210 -1.7479  2.1752 -0.4883
  317THF     C8 6056   0.880   0.723   4.319  0.0135 -0.1764  0.0253
  317THF     C9 6057   1.016   0.772   4.293 -0.4934 -0.5496 -0.0180
  317THF    H10 6058   0.855   0.622   4.288 -0.5596  0.9256 -3.6100
  317THF    H11 6059   0.839   0.751   4.415 -2.1145 -1.7962 -0.3330
  317THF    H12 6060   1.050   0.828   4.380 -2.0084 -1.3084  1.1236
  317THF    H13 6061   1.088   0.692   4.276 -0.1885 -0.0078 -1.3864
  318THF     O1 6062   0.553   3.065   3.267  0.1493  0.0549  0.0812
  318THF     C2 6063   0.669   3.009   3.211 -0.1344 -0.0611  0.2400
  318THF     C3 6064   0.581   3.131   3.387  0.0782  0.6170  0.7017
  318THF     H4 6065   0.739   3.089   3.185  1.6445 -1.4954  0.4191
  318THF     H5 6066   0.648   2.930   3.140 -1.8522 -1.4487  2.1886
  318THF     H6 6067   0.632   3.222   3.358 -0.3643  0.2290 -1.4771
  318THF     H7 6068   0.490   3.158   3.441  0.3930  1.3997  0.8579
  318THF     C8 6069   0.674   3.040   3.454  0.4134  0.5363  0.3849
  318THF     C9 6070   0.741   2.953   3.335 -0.0677 -0.4844 -0.3455
  318THF    H10 6071   0.617   2.971   3.516  1.1856  0.7365  1.3482
  318THF    H11 6072   0.743   3.096   3.517  1.4755  0.4695 -0.6655
  318THF    H12 6073   0.845   2.976   3.315 -0.0150 -1.1735 -0.9247
  318THF    H13 6074   0.725   2.845   3.343  0.6263 -0.5301  0.6060
  319THF     O1 6075   4.076   1.090   4.617 -0.3455  0.1058  0.0190
  319THF     C2 6076   4.039   1.139   4.486 -0.2012 -0.3169 -0.2094
  319THF     C3 6077   4.140   0.963   4.597  0.5589 -0.3279 -0.0483
  319THF     H4 6078   4.006   1.243   4.484  0.8906  0.0266 -0.6667
  319THF     H5 6079   3.957   1.082   4.442 -1.1644  2.4589 -2.3253
  319THF     H6 6080   4.194   0.934   4.687  1.5588 -1.3954 -0.9645
  319THF     H7 6081   4.074   0.883   4.564  1.7454 -1.6685  0.7046
  319THF     C8 6082   4.235   0.995   4.481  0.3172  0.6940  0.6380
  319THF     C9 6083   4.169   1.119   4.412  0.0098 -0.4077  0.5171
  319THF    H10 6084   4.252   0.905   4.422 -0.6365  0.9910 -0.1371
  319THF    H11 6085   4.331   1.028   4.520  0.4756  2.2886 -0.9297
  319THF    H12 6086   4.240   1.200   4.424 -0.2660 -0.0412 -0.2643
  319THF    H13 6087   4.163   1.117   4.303 -1.3219  2.3049  0.4575
  320THF     O1 6088   1.752   5.325   5.336 -0.5850 -0.4375  0.1862
  320THF     C2 6089   1.696   5.206   5.293  0.2872  0.5328  0.0041
  320THF     C3 6090   1.714   5.422   5.248 -0.5373  0.8291 -0.1248
  320THF     H4 6091   1.595   5.187   5.328  0.1453 -0.1756 -0.7460
  320THF     H5 6092   1.746   5.117   5.332  1.0398  0.9447  0.0100
  320THF     H6 6093   1.608   5.441   5.264 -0.9048 -1.7169  0.8215
  320THF     H7 6094   1.774   5.513   5.258 -0.9105  1.3615 -2.1231
  320THF     C8 6095   1.740   5.356   5.113 -0.2173  0.0581 -0.0620
  320THF     C9 6096   1.710   5.209   5.139 -0.0822 -0.8964 -0.4627
  320THF    H10 6097   1.846   5.361   5.087 -0.0211  0.0227  0.7289
  320THF    H11 6098   1.690   5.401   5.027 -0.9141  0.7494  0.6842
  320THF    H12 6099   1.609   5.192   5.102 -1.1522 -1.4440  2.5221
  320THF    H13 6100   1.790   5.149   5.096 -0.5760  0.7119 -4.0157
  321THF     O1 6101   2.825   2.411   3.294  0.0469 -0.1289 -0.0962
  321THF     C2 6102   2.875   2.333   3.406 -0.4642 -0.4642 -0.3935
  321THF     C3 6103   2.841   2.552   3.317 -0.6574  0.2468 -0.2788
  321THF     H4 6104   2.922   2.241   3.373  1.0160  0.2889 -0.4461
  321THF     H5 6105   2.806   2.307   3.486 -0.8625 -1.1051 -0.9299
  321THF     H6 6106   2.843   2.611   3.226 -1.1068 -0.4823 -0.7775
  321THF     H7 6107   2.763   2.582   3.386 -0.7434  1.7388 -0.9876
  321THF     C8 6108   2.986   2.541   3.382 -0.5610  0.6926  0.1083
  321THF     C9 6109   2.997   2.407   3.454  0.4052  0.0349 -0.7438
  321THF    H10 6110   3.004   2.620   3.455  0.1016 -0.7064  1.5048
  321THF    H11 6111   3.056   2.552   3.298 -2.3976  2.1636 -1.3297
  321THF    H12 6112   3.087   2.356   3.419  0.3595 -0.5314 -0.0588
  321THF    H13 6113   3.006   2.400   3.562 -0.2776 -1.3100 -0.7563
  322THF     O1 6114   2.179   4.263   5.251 -0.3383  0.0852  0.2870
  322THF     C2 6115   2.243   4.226   5.127 -0.5474 -0.4280  0.1857
  322THF     C3 6116   2.139   4.399   5.236  0.1778  0.2670  0.8019
  322THF     H4 6117   2.253   4.122   5.097  1.2697 -0.8444  1.9991
  322THF     H5 6118   2.343   4.269   5.123 -1.5122  1.9548 -0.3005
  322THF     H6 6119   2.049   4.435   5.285  0.0053  1.6489 -0.4504
  322THF     H7 6120   2.217   4.467   5.273  0.2273  0.4614  0.3534
  322THF     C8 6121   2.106   4.417   5.095 -0.0255  0.0046  0.7370
  322THF     C9 6122   2.169   4.300   5.018 -0.1348 -0.5461 -0.4019
  322THF    H10 6123   2.166   4.505   5.074  0.9837 -0.5986  0.9757
  322THF    H11 6124   2.002   4.415   5.063  0.2986  1.4880 -0.5356
  322THF    H12 6125   2.087   4.235   4.988 -2.0973  1.5091  0.1528
  322THF    H13 6126   2.226   4.330   4.929  0.8454  1.3688  0.7911
  323THF     O1 6127   4.246   1.148   3.950 -0.2539 -0.1256 -0.0148
  323THF     C2 6128   4.308   1.018   3.943 -0.2698  0.2436  0.5290
  323THF     C3 6129   4.230   1.190   3.815  0.3940 -0.7684  0.3589
  323THF     H4 6130   4.280   0.946   4.020 -0.1700  0.3446  0.6623
  323THF     H5 6131   4.415   1.034   3.954 -0.0343 -1.0290  0.2028
  323THF     H6 6132   4.151   1.264   3.799  2.4716  1.6228  0.5216
  323THF     H7 6133   4.317   1.248   3.786  0.9752 -0.2563  2.8615
  323THF     C8 6134   4.201   1.065   3.726 -0.4608 -0.2630  0.2821
  323THF     C9 6135   4.284   0.960   3.805 -0.3469 -0.1472 -0.1806
  323THF    H10 6136   4.249   1.095   3.633 -2.9338  1.4128 -0.5580
  323THF    H11 6137   4.094   1.051   3.712 -0.2046 -1.7584 -0.3099
  323THF    H12 6138   4.232   0.866   3.821 -1.2444  0.4294  0.4233
  323THF    H13 6139   4.377   0.933   3.755 -1.5875 -1.6924 -1.7835
  324THF     O1 6140   4.907   2.660   2.030  0.1090  0.2478  0.3699
  324THF     C2 6141   4.958   2.792   2.015 -0.4332  1.0573  0.2541
  324THF     C3 6142   4.853   2.654   2.156 -0.3311 -0.3227 -0.0484
  324THF     H4 6143   4.898   2.845   1.942 -1.6242 -0.9650 -0.3101
  324THF     H5 6144   5.064   2.772   1.994 -0.6842  0.8825 -0.9093
  324THF     H6 6145   4.753   2.699   2.152 -0.9958 -1.4140  2.4014
  324THF     H7 6146   4.837   2.552   2.193  0.9442 -0.3018  0.5904
  324THF     C8 6147   4.936   2.737   2.248  0.1337 -0.7475  0.0491
  324THF     C9 6148   4.941   2.860   2.153  0.1160  0.2322  0.0644
  324THF    H10 6149   5.036   2.696   2.263  0.2418 -0.4940  0.0169
  324THF    H11 6150   4.887   2.759   2.343  0.6543  0.7193 -0.0050
  324THF    H12 6151   4.854   2.925   2.164 -1.2631 -1.6459  0.9767
  324THF    H13 6152   5.018   2.925   2.193  0.5580 -0.3818  0.2227
  325THF     O1 6153   3.231   2.141   3.502 -0.6873 -0.1999  0.3913
  325THF     C2 6154   3.150   2.085   3.607 -0.7768  0.0084 -0.7437
  325THF     C3 6155   3.327   2.209   3.577  0.3847  0.6095  0.1008
  325THF     H4 6156   3.069   2.018   3.580  1.0562 -1.2849 -3.5416
  325THF     H5 6157   3.111   2.169   3.664  1.5295  0.0012  1.0087
  325THF     H6 6158   3.418   2.241   3.525  0.5902 -0.8637 -0.4969
  325THF     H7 6159   3.278   2.301   3.607 -1.2604  0.1134 -0.9226
  325THF     C8 6160   3.371   2.124   3.696  0.2062  0.3848 -0.0604
  325THF     C9 6161   3.259   2.018   3.697 -0.0880  0.1873  0.6167
  325THF    H10 6162   3.384   2.179   3.789  0.4381  1.0347 -0.4696
  325THF    H11 6163   3.455   2.059   3.672  0.5302 -0.2498  2.4474
  325THF    H12 6164   3.294   1.922   3.661  0.3121  0.5307  0.0709
  325THF    H13 6165   3.223   2.025   3.799  0.2806  3.3256  0.6382
  326THF     O1 6166   3.563   1.785   4.153  0.0564  0.3476 -0.0384
  326THF     C2 6167   3.511   1.670   4.078  0.1335  0.2479  0.8062
  326THF     C3 6168   3.666   1.737   4.233 -0.3309  0.3514 -0.3562
  326THF     H4 6169   3.464   1.697   3.984 -0.0476 -1.3668  0.4047
  326THF     H5 6170   3.426   1.617   4.122  0.5668 -1.3705 -0.2528
  326THF     H6 6171   3.737   1.813   4.266 -0.6600  0.0803  1.0460
  326THF     H7 6172   3.629   1.689   4.324 -2.5117 -1.4034 -2.0540
  326THF     C8 6173   3.738   1.633   4.142 -0.0100 -0.0513 -0.1646
  326THF     C9 6174   3.629   1.567   4.060 -0.6275 -0.5848  0.6512
  326THF    H10 6175   3.799   1.564   4.201 -0.1997 -0.1787 -0.1144
  326THF    H11 6176   3.818   1.683   4.089  0.0072 -0.3315 -0.4044
  326THF    H12 6177   3.661   1.569   3.956  2.9948  0.7470  1.6450
  326THF    H13 6178   3.601   1.467   4.093 -0.7629 -0.8568 -0.2601
  327THF     O1 6179   1.517   3.152   5.431 -0.3223  0.7755 -0.1323
  327THF     C2 6180   1.502   3.034   5.344  0.4418 -0.4679 -0.4739
  327THF     C3 6181   1.391   3.188   5.479  0.5532 -0.9166 -0.0740
  327THF     H4 6182   1.531   2.947   5.403 -1.0260 -0.4401  0.3208
  327THF     H5 6183   1.563   3.038   5.254 -2.6687 -0.0391 -2.7071
  327THF     H6 6184   1.387   3.142   5.578  0.0138  0.1055  0.3995
  327THF     H7 6185   1.392   3.295   5.498  2.2622 -1.0920  1.0463
  327THF     C8 6186   1.298   3.147   5.360  0.3206 -0.4556  0.6854
  327THF     C9 6187   1.359   3.022   5.306  1.8032 -0.0907 -0.3681
  327THF    H10 6188   1.307   3.230   5.290  0.1465  0.6647  1.9441
  327THF    H11 6189   1.195   3.140   5.394  0.0740 -0.9591 -0.1392
  327THF    H12 6190   1.321   2.938   5.364  0.6242  0.4943 -0.2598
  327THF    H13 6191   1.345   3.003   5.200  2.6015  0.7340 -0.6357
  328THF     O1 6192   4.158   0.422   2.478  0.0074  0.5218  0.6281
  328THF     C2 6193   4.044   0.499   2.507 -0.4856 -0.0311 -0.3366
  328THF     C3 6194   4.127   0.284   2.502 -0.3433 -0.6605  0.5234
  328THF     H4 6195   3.963   0.496   2.434 -1.8413 -1.3704  1.1306
  328THF     H5 6196   4.076   0.599   2.536  1.0919 -0.6408  0.1059
  328THF     H6 6197   4.076   0.250   2.411 -1.8946 -1.4239  1.6357
  328THF     H7 6198   4.214   0.223   2.522 -0.3940 -1.6198 -1.8483
  328THF     C8 6199   4.037   0.285   2.621  0.5966 -0.0099  0.0913
  328THF     C9 6200   3.982   0.429   2.627  0.0426  0.2102  0.0118
  328THF    H10 6201   4.093   0.266   2.712 -0.1818  3.5593  1.5008
  328THF    H11 6202   3.953   0.216   2.613 -0.0436  0.9224 -1.8203
  328THF    H12 6203   3.874   0.439   2.632  0.1247  0.5337  2.1483
  328THF    H13 6204   4.009   0.467   2.726  1.3662 -0.3967 -0.0938
  329THF     O1 6205   4.383   3.261   2.806  0.0988 -0.0458  0.1815
  329THF     C2 6206   4.506   3.188   2.790  0.0680 -0.3802 -0.7694
  329THF     C3 6207   4.371   3.361   2.698  0.6332 -0.8121 -0.0733
  329THF     H4 6208   4.490   3.115   2.710  2.1669  0.2999 -1.8856
  329THF     H5 6209   4.543   3.131   2.876 -0.8290  0.3963  0.1499
  329THF     H6 6210   4.336   3.311   2.607 -0.1275 -0.7666  0.1890
  329THF     H7 6211   4.295   3.435   2.722  0.7327 -1.0427  1.0197
  329THF     C8 6212   4.522   3.405   2.678  1.1937 -0.2275  0.1462
  329THF     C9 6213   4.602   3.290   2.739 -0.1130 -0.3321  0.0339
  329THF    H10 6214   4.553   3.498   2.726 -0.9817 -0.2823  1.8290
  329THF    H11 6215   4.545   3.433   2.575  0.0738 -1.4899 -0.4791
  329THF    H12 6216   4.673   3.249   2.666 -0.4805 -0.7977 -0.0700
  329THF    H13 6217   4.661   3.339   2.816 -2.5503  2.3082  0.3477
  330THF     O1 6218   0.540   2.171   0.867  0.0787  0.4881 -0.2677
  330THF     C2 6219   0.662   2.193   0.798  0.8882  0.2163  0.5690
  330THF     C3 6220   0.530   2.031   0.899 -0.6893  0.9377 -0.0784
  330THF     H4 6221   0.709   2.280   0.844  2.3023 -0.9631  1.4472
  330THF     H5 6222   0.644   2.203   0.691  0.7320 -2.2488  0.2940
  330THF     H6 6223   0.463   2.015   0.983  2.9897 -0.4902  2.8838
  330THF     H7 6224   0.495   1.980   0.809  2.1174 -0.4553 -0.5155
  330THF     C8 6225   0.680   1.984   0.929 -0.6277  0.5224 -0.5647
  330THF     C9 6226   0.746   2.064   0.822  0.2222  0.6344 -0.1587
  330THF    H10 6227   0.710   1.881   0.915  2.3000  1.1958  0.0084
  330THF    H11 6228   0.705   2.014   1.031 -0.5813  0.2160 -0.4852
  330THF    H12 6229   0.850   2.081   0.847  0.5758 -2.6321  1.0895
  330THF    H13 6230   0.746   2.020   0.722  3.0112  2.9916 -1.3179
  331THF     O1 6231   3.576   0.768   1.277 -0.1309  0.1921 -0.0292
  331THF     C2 6232   3.714   0.791   1.238  0.0294 -0.2733  0.0549
  331THF     C3 6233   3.488   0.843   1.192  0.1613 -0.1569  0.0777
  331THF     H4 6234   3.732   0.744   1.141 -0.2931 -3.2849  1.3208
  331THF     H5 6235   3.787   0.759   1.313 -1.5754 -0.2425  1.7066
  331THF     H6 6236   3.451   0.797   1.100 -1.4018  0.8031  0.1834
  331THF     H7 6237   3.398   0.877   1.244 -0.1840 -0.6875 -0.1641
  331THF     C8 6238   3.569   0.962   1.158  0.0308 -0.2305 -0.0548
  331THF     C9 6239   3.703   0.938   1.221  0.6820 -0.3899  0.1291
  331THF    H10 6240   3.543   1.059   1.200  1.1752 -0.6497  1.7416
  331THF    H11 6241   3.583   0.959   1.050 -0.6097  1.6834 -0.2178
  331THF    H12 6242   3.787   0.978   1.164  0.3942 -2.7745 -2.1714
  331THF    H13 6243   3.711   0.979   1.322  1.9787  0.3173 -0.2384
  332THF     O1 6244   1.834   4.913   4.473 -0.1395 -0.2563  0.0311
  332THF     C2 6245   1.951   4.993   4.481  0.0878  0.0720 -0.3379
  332THF     C3 6246   1.831   4.838   4.595  0.2956  0.0037 -0.0299
  332THF     H4 6247   1.960   5.078   4.412 -0.5754  1.5315  1.2954
  332THF     H5 6248   2.029   4.919   4.461  0.2669 -0.3528  1.7700
  332THF     H6 6249   1.737   4.788   4.619  0.3755 -1.1651 -1.9243
  332THF     H7 6250   1.900   4.754   4.585 -1.5244 -1.6021  0.3511
  332THF     C8 6251   1.881   4.941   4.699  0.2274  1.1161  0.4232
  332THF     C9 6252   1.964   5.045   4.622  1.2848  1.4443  0.2522
  332THF    H10 6253   1.913   4.885   4.787  0.8963  0.3232 -0.3056
  332THF    H11 6254   1.794   4.996   4.736 -0.4738  1.2907 -1.3719
  332THF    H12 6255   1.918   5.141   4.645  1.5126  1.2603  1.5633
  332THF    H13 6256   2.065   5.038   4.663  0.5855 -2.8607  1.7117
  333THF     O1 6257   2.176   4.687   4.646  0.3200 -0.3573 -0.0771
  333THF     C2 6258   2.281   4.768   4.590 -0.0509  0.3419  0.2521
  333THF     C3 6259   2.148   4.581   4.553  0.0687 -0.5858 -0.3017
  333THF     H4 6260   2.340   4.828   4.660 -0.2077 -0.0278  0.7024
  333THF     H5 6261   2.231   4.828   4.514 -1.4890 -0.1434  0.8000
  333THF     H6 6262   2.094   4.502   4.605 -2.7972  1.1510 -0.3910
  333THF     H7 6263   2.093   4.633   4.473 -1.0478  3.0002  2.5055
  333THF     C8 6264   2.285   4.541   4.500 -0.5640  0.2020 -0.1735
  333THF     C9 6265   2.368   4.672   4.516 -0.1219  0.2129  0.0374
  333THF    H10 6266   2.272   4.500   4.400  0.6697  0.2220 -0.3550
  333THF    H11 6267   2.321   4.466   4.570 -1.3405  2.3407  2.7670
  333THF    H12 6268   2.464   4.648   4.563 -0.8814  1.7783  2.5923
  333THF    H13 6269   2.393   4.709   4.417 -0.8197  1.2116  0.2217
  334THF     O1 6270   4.732   0.067   0.107  0.2898 -0.4041  0.1097
  334THF     C2 6271   4.741   0.201   0.158  0.0180  0.1858 -0.3219
  334THF     C3 6272   4.846  -0.001   0.146 -0.8450  0.0291  0.5339
  334THF     H4 6273   4.723   0.204   0.266 -1.2229  0.9203 -0.5307
  334THF     H5 6274   4.671   0.258   0.098 -0.2155  0.2096 -0.0274
  334THF     H6 6275   4.822  -0.037   0.246 -0.3078 -0.9287  0.3265
  334THF     H7 6276   4.870  -0.082   0.077  0.8823 -1.2720  2.5379
  334THF     C8 6277   4.960   0.106   0.151  0.4052  1.3949  0.1381
  334THF     C9 6278   4.890   0.243   0.137 -0.4533  0.4424 -0.3702
  334THF    H10 6279   5.022   0.089   0.064  0.6711 -1.0873  0.7487
  334THF    H11 6280   5.024   0.097   0.239 -0.0436  1.8873  0.5299
  334THF    H12 6281   4.911   0.319   0.212 -0.3213  1.1963 -1.1501
  334THF    H13 6282   4.909   0.288   0.040 -0.6355  3.2439  0.8191
  335THF     O1 6283   5.188   2.898   4.376  0.2435  0.7019 -0.3314
  335THF     C2 6284   5.048   2.878   4.373  0.6617  0.5580 -0.6824
  335THF     C3 6285   5.201   3.037   4.417 -0.0498  0.2709  0.1247
  335THF     H4 6286   5.019   2.773   4.368 -1.5385  1.0754 -0.1363
  335THF     H5 6287   4.998   2.940   4.299  1.0311 -0.0050 -1.4090
  335THF     H6 6288   5.302   3.072   4.439 -0.1474  1.2036 -0.8149
  335THF     H7 6289   5.162   3.099   4.336  1.0416 -0.0630 -0.6756
  335THF     C8 6290   5.100   3.043   4.534 -0.2381  0.3804 -0.1939
  335THF     C9 6291   4.999   2.938   4.509  0.5805  0.5010  0.2569
  335THF    H10 6292   5.051   3.140   4.531 -0.3826  0.2952 -0.8919
  335THF    H11 6293   5.144   3.029   4.633  0.0543  1.3616 -0.1786
  335THF    H12 6294   5.005   2.855   4.580 -0.9050 -0.5500 -0.7924
  335THF    H13 6295   4.895   2.971   4.511 -0.3564 -2.1427  2.5369
  336THF     O1 6296   3.346   2.342   0.232  0.9188 -0.2305  0.5188
  336THF     C2 6297   3.268   2.227   0.271  0.3686  0.1195  0.0722
  336THF     C3 6298   3.242   2.446   0.208 -0.3910  1.1612 -0.6493
  336THF     H4 6299   3.262   2.226   0.380  2.2686  1.0597  0.2196
  336THF     H5 6300   3.313   2.134   0.236  0.2027 -0.3346  1.0297
  336THF     H6 6301   3.228   2.500   0.302 -2.6668 -0.8244  0.2445
  336THF     H7 6302   3.275   2.525   0.140  0.4923  1.9452  0.6453
  336THF     C8 6303   3.115   2.376   0.164 -0.4455 -0.3053  0.1954
  336THF     C9 6304   3.123   2.235   0.223  0.1713 -0.4430  0.1614
  336THF    H10 6305   3.123   2.370   0.056 -3.9517 -1.8102 -0.1365
  336THF    H11 6306   3.019   2.418   0.195 -1.2638 -1.6385 -0.4560
  336THF    H12 6307   3.052   2.231   0.305 -0.0995  3.0724  0.2661
  336THF    H13 6308   3.098   2.166   0.143 -0.2497  0.5482 -0.5953
  337THF     O1 6309   3.732   0.377   1.757 -0.5367  0.9992  0.1944
  337THF     C2 6310   3.711   0.434   1.628  0.6610 -0.1103  0.3026
  337THF     C3 6311   3.782   0.243   1.748 -0.5795  0.1898  0.5161
  337THF     H4 6312   3.709   0.543   1.625 -0.5792 -0.0427  1.8019
  337THF     H5 6313   3.616   0.406   1.583  1.0522 -2.2078  0.7023
  337THF     H6 6314   3.857   0.232   1.825  0.3362  1.3301 -0.1738
  337THF     H7 6315   3.711   0.162   1.762 -2.9066  1.6666 -1.6286
  337THF     C8 6316   3.861   0.238   1.614 -0.6595 -0.2815  0.1437
  337THF     C9 6317   3.816   0.365   1.533 -0.1052  0.1383  0.1162
  337THF    H10 6318   3.858   0.142   1.564  1.1666 -0.0651 -0.4731
  337THF    H11 6319   3.968   0.243   1.636 -0.3104 -0.8924 -1.3070
  337THF    H12 6320   3.901   0.423   1.497 -0.5603  0.9680  0.3622
  337THF    H13 6321   3.763   0.322   1.448  0.2962 -1.9760  0.8680
  338THF     O1 6322   3.126   2.897   1.416 -0.3251  0.3000  0.4943
  338THF     C2 6323   3.002   2.952   1.383 -0.3465 -0.1263  0.1858
  338THF     C3 6324   3.188   2.849   1.294 -0.0624  0.1620  0.8007
  338THF     H4 6325   2.994   3.057   1.357  0.9863 -0.2480 -0.8482
  338THF     H5 6326   2.940   2.925   1.468  0.2591  0.7776  0.9332
  338THF     H6 6327   3.219   2.944   1.250 -1.4474  1.2830  2.1284
  338THF     H7 6328   3.270   2.778   1.306 -1.0431 -1.3022 -0.6994
  338THF     C8 6329   3.073   2.790   1.211 -0.4468  0.8327 -0.1125
  338THF     C9 6330   2.951   2.863   1.265  0.0470  0.9363 -0.2864
  338THF    H10 6331   3.071   2.683   1.230  2.8222  0.7389  0.2704
  338THF    H11 6332   3.095   2.799   1.104  0.5826 -0.9031 -0.0919
  338THF    H12 6333   2.883   2.907   1.192  0.8064 -0.1702 -1.7166
  338THF    H13 6334   2.894   2.779   1.304  0.2970  0.2900 -1.2612
  339THF     O1 6335   3.062   1.867   1.273  0.7908 -0.2842 -0.0936
  339THF     C2 6336   3.001   1.814   1.157 -0.4433 -0.2011  0.3228
  339THF     C3 6337   3.120   1.753   1.342  0.0114  0.1759 -0.4159
  339THF     H4 6338   2.997   1.905   1.097 -1.1261  0.4813  1.3517
  339THF     H5 6339   2.896   1.791   1.177 -1.0641  0.1320 -2.2699
  339THF     H6 6340   3.171   1.776   1.436 -0.3498 -1.1127  0.1262
  339THF     H7 6341   3.036   1.691   1.377 -0.4969  1.7342  1.3064
  339THF     C8 6342   3.189   1.684   1.231 -0.1970  0.2415  0.0132
  339THF     C9 6343   3.086   1.689   1.114 -0.3949 -0.2461 -0.7800
  339THF    H10 6344   3.222   1.582   1.248 -0.2384 -0.2644 -2.4871
  339THF    H11 6345   3.276   1.740   1.198 -1.2733  0.4974 -2.6401
  339THF    H12 6346   3.131   1.705   1.016  0.8449  1.8946  0.0574
  339THF    H13 6347   3.031   1.595   1.112  0.1181 -0.7020  2.3581
  340THF     O1 6348   2.886   0.968   3.793  0.1693 -0.0576 -0.3557
  340THF     C2 6349   3.024   0.957   3.827  0.0040  0.0380 -0.2827
  340THF     C3 6350   2.855   1.063   3.694 -0.1869  0.2000  0.7055
  340THF     H4 6351   3.042   0.862   3.878  1.6111  0.9039  0.8201
  340THF     H5 6352   3.062   1.038   3.889 -1.2793  0.2200  0.3121
  340THF     H6 6353   2.767   1.031   3.638  0.1874  1.1920 -0.4881
  340THF     H7 6354   2.820   1.162   3.724  2.1656  1.5498 -0.6683
  340THF     C8 6355   2.980   1.072   3.615  1.1570 -0.3189 -0.1436
  340THF     C9 6356   3.073   0.959   3.677 -0.0774 -0.3412  0.0875
  340THF    H10 6357   3.032   1.163   3.643 -0.4212  0.3895  0.5471
  340THF    H11 6358   2.975   1.070   3.506  0.4729  0.7574 -0.1424
  340THF    H12 6359   3.050   0.867   3.622  0.7845 -0.8250  0.4980
  340THF    H13 6360   3.178   0.975   3.652 -0.4465 -1.0212 -2.1003
  341THF     O1 6361   3.322   0.162   3.135  0.6191  0.3651  0.2133
  341THF     C2 6362   3.225   0.063   3.176  0.3942 -0.2023  0.6158
  341THF     C3 6363   3.318   0.272   3.219  0.4893 -0.1711 -0.4610
  341THF     H4 6364   3.263   0.005   3.260  0.1935 -1.1138  0.0958
  341THF     H5 6365   3.201  -0.005   3.094  1.0731 -0.9254  1.0007
  341THF     H6 6366   3.372   0.253   3.312 -1.3177 -1.7726  0.3160
  341THF     H7 6367   3.345   0.358   3.159  0.0051 -0.7359 -1.5134
  341THF     C8 6368   3.173   0.287   3.262 -0.0231  0.0454  0.5343
  341THF     C9 6369   3.110   0.147   3.231  0.2308 -0.0661 -0.0841
  341THF    H10 6370   3.113   0.357   3.204 -0.4856 -0.9522 -0.2429
  341THF    H11 6371   3.160   0.318   3.366 -0.8215  0.6585  0.2639
  341THF    H12 6372   3.072   0.110   3.326  1.4969  3.4539  2.0058
  341THF    H13 6373   3.036   0.161   3.153  0.8673 -2.2563 -1.1606
  342THF     O1 6374   2.056   3.569   2.783  0.3783  0.0497 -0.6407
  342THF     C2 6375   1.916   3.536   2.758  0.1873  0.5389 -0.2592
  342THF     C3 6376   2.063   3.694   2.853  0.0088  0.3247 -0.8029
  342THF     H4 6377   1.895   3.429   2.761  1.0758  0.3758  0.4050
  342THF     H5 6378   1.902   3.569   2.655  2.9426 -1.5049 -1.4064
  342THF     H6 6379   2.158   3.709   2.904  0.5052 -1.3761 -1.1594
  342THF     H7 6380   2.039   3.773   2.782 -1.5647 -2.2798 -3.3607
  342THF     C8 6381   1.944   3.686   2.948  0.0475 -0.1699  0.1509
  342THF     C9 6382   1.839   3.619   2.860 -0.2930  0.5546 -0.0268
  342THF    H10 6383   1.912   3.785   2.980 -1.1726  0.1399 -1.8600
  342THF    H11 6384   1.970   3.624   3.034  1.3768 -0.1743 -0.2292
  342THF    H12 6385   1.781   3.563   2.934  0.2521  0.7879  0.5893
  342THF    H13 6386   1.776   3.691   2.808 -0.6372  0.3595  0.1129
  343THF     O1 6387   0.845   4.008   1.686 -0.7814  0.1580  0.3580
  343THF     C2 6388   0.986   3.972   1.676  0.4025 -0.7695  0.1830
  343THF     C3 6389   0.784   3.924   1.782 -1.0895  0.1177  0.1124
  343THF     H4 6390   1.053   4.027   1.741 -2.8311  1.7672  1.6861
  343THF     H5 6391   1.018   3.980   1.572  1.5139 -2.9747  0.2889
  343THF     H6 6392   0.768   3.986   1.870 -2.6677  1.8627 -1.3044
  343THF     H7 6393   0.683   3.887   1.762 -0.1917 -3.1649  1.0041
  343THF     C8 6394   0.876   3.815   1.822 -0.7755  0.2433  0.3051
  343THF     C9 6395   0.981   3.822   1.707  0.1446  0.0057 -0.4972
  343THF    H10 6396   0.812   3.727   1.816  0.0601 -0.3015 -0.7366
  343THF    H11 6397   0.922   3.826   1.920  1.5282 -0.3388 -0.6566
  343THF    H12 6398   1.078   3.781   1.735  0.4075  1.0769  0.2332
  343THF    H13 6399   0.944   3.771   1.618 -1.8832 -0.3785  0.5129
  344THF     O1 6400   4.259   1.330   1.537  0.1458  0.7541  0.2552
  344THF     C2 6401   4.166   1.227   1.568 -0.3522  0.3445  0.0126
  344THF     C3 6402   4.172   1.444   1.527  0.8764 -0.0647 -0.2525
  344THF     H4 6403   4.210   1.137   1.611  1.8679 -0.0933 -2.8124
  344THF     H5 6404   4.121   1.199   1.472 -1.4365  0.3788  0.5006
  344THF     H6 6405   4.227   1.537   1.539 -1.8535  1.5028  0.9380
  344THF     H7 6406   4.120   1.439   1.431  2.1329 -1.1345 -0.9290
  344THF     C8 6407   4.088   1.431   1.641 -0.5732 -0.0476 -0.0826
  344THF     C9 6408   4.062   1.289   1.656  0.2906 -0.5156 -0.0362
  344THF    H10 6409   3.996   1.487   1.627 -0.0620  0.8575  0.1004
  344THF    H11 6410   4.126   1.476   1.733  0.2809 -0.2275 -0.3386
  344THF    H12 6411   4.067   1.254   1.760 -0.6997 -0.6345 -0.0229
  344THF    H13 6412   3.962   1.263   1.623 -0.0005 -1.7928  1.6678
  345THF     O1 6413   4.612   4.553   0.752 -0.0438  0.6858 -0.0671
  345THF     C2 6414   4.546   4.645   0.673  0.2908 -0.8726 -1.0350
  345THF     C3 6415   4.552   4.426   0.715  0.6257  0.7179 -0.1489
  345THF     H4 6416   4.603   4.738   0.673  1.9445 -1.8505 -1.2422
  345THF     H5 6417   4.448   4.660   0.719  0.5618 -0.7036 -0.5024
  345THF     H6 6418   4.619   4.345   0.743  0.0119  0.2203 -0.1151
  345THF     H7 6419   4.455   4.419   0.764  0.7509  0.9018  0.1238
  345THF     C8 6420   4.528   4.429   0.570  0.3061 -0.6906  0.0159
  345THF     C9 6421   4.534   4.579   0.539 -0.2999 -0.1424  0.4744
  345THF    H10 6422   4.430   4.389   0.547  0.6148 -0.9310 -0.9166
  345THF    H11 6423   4.601   4.379   0.506  1.6182  2.1536 -0.8570
  345THF    H12 6424   4.614   4.606   0.471  0.2180 -1.9035  0.3186
  345THF    H13 6425   4.446   4.631   0.500  0.1004 -0.1580 -0.4695
  346THF     O1 6426   0.314   0.480   0.778  0.9553  0.5077 -0.3345
  346THF     C2 6427   0.249   0.443   0.656 -0.1696 -0.4589  0.3169
  346THF     C3 6428   0.283   0.617   0.793 -0.0612  0.2406 -0.0038
  346THF     H4 6429   0.145   0.419   0.678 -0.6282  2.7377  2.1363
  346THF     H5 6430   0.302   0.358   0.612  1.5474  1.3215 -1.2734
  346THF     H6 6431   0.189   0.629   0.848  0.2548 -0.8705  0.8135
  346THF     H7 6432   0.362   0.652   0.859 -0.4980  0.5094  0.3818
  346THF     C8 6433   0.286   0.685   0.662  0.1449 -0.3521  0.5010
  346THF     C9 6434   0.258   0.565   0.566  0.0698 -0.5926 -0.0775
  346THF    H10 6435   0.383   0.731   0.643 -0.3408  0.0382 -1.2358
  346THF    H11 6436   0.216   0.767   0.651  1.8281  0.9071 -1.6003
  346THF    H12 6437   0.172   0.596   0.507  1.6766  6.6861  0.4000
  346THF    H13 6438   0.344   0.553   0.500  0.0466 -0.5198 -0.1206
  347THF     O1 6439   1.109   0.135   5.064  0.3156 -0.7400 -0.4935
  347THF     C2 6440   1.217   0.221   5.126  0.3987  0.0057 -0.3314
  347THF     C3 6441   0.991   0.212   5.075  0.2063 -0.2403  0.7313
  347THF     H4 6442   1.313   0.184   5.090  1.1955  0.2439  1.4491
  347THF     H5 6443   1.218   0.215   5.235  2.5097  1.1338 -0.2350
  347THF     H6 6444   0.919   0.170   5.005  0.3148 -1.6316  1.4066
  347THF     H7 6445   0.941   0.212   5.172  0.6325  0.9584  0.9704
  347THF     C8 6446   1.037   0.356   5.047  0.2897 -0.2361  0.3360
  347THF     C9 6447   1.183   0.364   5.078 -0.0268  0.3553 -0.3435
  347THF    H10 6448   0.983   0.437   5.097  2.7501  1.2913  0.7524
  347THF    H11 6449   1.022   0.372   4.940 -0.4424 -1.3843  0.2578
  347THF    H12 6450   1.237   0.393   4.988  1.4233 -1.9371 -0.2808
  347THF    H13 6451   1.209   0.446   5.144 -2.9376  1.0873  0.0596
  348THF     O1 6452   4.818   1.813   3.789 -0.2526  0.3711  0.0443
  348THF     C2 6453   4.836   1.914   3.889  0.5462 -0.6443  0.1149
  348THF     C3 6454   4.686   1.763   3.803 -0.8383 -0.0006 -0.3538
  348THF     H4 6455   4.903   1.996   3.863  1.3163 -0.5831  2.1155
  348THF     H5 6456   4.868   1.867   3.982  0.2681  0.0525  0.5660
  348THF     H6 6457   4.656   1.708   3.714 -1.5379 -0.1352 -0.0400
  348THF     H7 6458   4.676   1.704   3.894 -0.7677  0.8908  0.2465
  348THF     C8 6459   4.611   1.893   3.817  0.2527  0.0907  0.0673
  348THF     C9 6460   4.694   1.982   3.905  0.1834 -0.0749  0.6950
  348THF    H10 6461   4.506   1.884   3.848  0.1025  1.9441  0.1913
  348THF    H11 6462   4.617   1.937   3.718 -0.3276 -0.1456 -0.0766
  348THF    H12 6463   4.682   2.089   3.889  0.6137 -0.3419 -1.9438
  348THF    H13 6464   4.653   1.957   4.003  2.0682 -0.1202  1.5074
  349THF     O1 6465   4.678   3.888   1.395  0.3518  0.1157 -0.8840
  349THF     C2 6466   4.568   3.904   1.482 -0.1739 -0.1946 -0.1116
  349THF     C3 6467   4.720   3.748   1.403 -0.1635 -0.0753  0.2123
  349THF     H4 6468   4.479   3.856   1.441 -1.0142 -1.0565  2.5096
  349THF     H5 6469   4.551   4.009   1.503 -1.8546 -0.6517  0.9720
  349THF     H6 6470   4.660   3.692   1.331 -1.1331 -0.3977  1.2412
  349THF     H7 6471   4.824   3.734   1.374 -0.2934  0.4781 -0.5689
  349THF     C8 6472   4.682   3.709   1.544 -0.3036  0.2419 -0.4164
  349THF     C9 6473   4.608   3.823   1.603  0.1112 -0.0507 -0.5136
  349THF    H10 6474   4.765   3.671   1.603 -0.7009  0.8184  0.5375
  349THF    H11 6475   4.614   3.624   1.541 -1.5148  1.0357  2.1453
  349THF    H12 6476   4.523   3.794   1.665  1.0056 -0.4894  0.5461
  349THF    H13 6477   4.679   3.885   1.658 -0.0069 -0.6841  0.3724
  350THF     O1 6478   5.461   3.181   3.486  0.3525 -0.7622 -0.2379
  350THF     C2 6479   5.531   3.309   3.520 -0.4589  0.4344  0.4213
  350THF     C3 6480   5.399   3.203   3.356  0.5185 -0.1157 -0.0012
  350THF     H4 6481   5.592   3.305   3.610  1.3234  0.9322 -0.7244
  350THF     H5 6482   5.467   3.395   3.540  1.6301  1.9010  1.1504
  350THF     H6 6483   5.385   3.113   3.295  0.0438  0.9893 -1.5802
  350THF     H7 6484   5.301   3.250   3.349  0.4913 -0.2644 -0.6647
  350THF     C8 6485   5.501   3.285   3.290 -0.0897  0.0965  0.0819
  350THF     C9 6486   5.611   3.321   3.389 -0.5589  0.9860  0.0804
  350THF    H10 6487   5.450   3.376   3.262  0.1043 -0.3395 -1.8160
  350THF    H11 6488   5.538   3.240   3.198  2.6913  0.5141  0.8749
  350THF    H12 6489   5.690   3.247   3.374 -0.8108  0.5980  0.6089
  350THF    H13 6490   5.662   3.417   3.383  0.5474  0.6474  2.5807
  351THF     O1 6491   4.027   4.386   4.006  0.1277 -0.8031 -0.3703
  351THF     C2 6492   4.021   4.441   3.877  0.3503 -0.6645 -0.3285
  351THF     C3 6493   3.898   4.406   4.066  0.2160 -0.7838 -0.0765
  351THF     H4 6494   4.105   4.418   3.812  1.3454  1.1825  0.2218
  351THF     H5 6495   4.019   4.549   3.891 -1.4117 -0.9907  2.6197
  351THF     H6 6496   3.879   4.315   4.123 -0.4565 -2.1079 -2.2977
  351THF     H7 6497   3.901   4.494   4.130 -2.1785 -1.5806  1.2860
  351THF     C8 6498   3.798   4.400   3.952 -0.6800  0.0440  0.5940
  351THF     C9 6499   3.881   4.404   3.826  0.0197 -0.4842  0.6656
  351THF    H10 6500   3.732   4.487   3.964 -2.1403 -1.0467  0.7197
  351THF    H11 6501   3.730   4.316   3.965 -1.7889  1.1070  1.9626
  351THF    H12 6502   3.891   4.306   3.779  2.3288  0.9657 -2.1457
  351THF    H13 6503   3.852   4.477   3.751 -1.2995  0.3578  1.9399
  352THF     O1 6504   3.655   4.155   4.260 -0.0770  0.3589 -0.1765
  352THF     C2 6505   3.539   4.209   4.206 -0.6649 -0.4178 -0.2724
  352THF     C3 6506   3.638   4.029   4.317  0.0076 -0.1990 -0.6382
  352THF     H4 6507   3.550   4.275   4.120 -2.0618 -0.0602 -0.2092
  352THF     H5 6508   3.485   4.270   4.278 -1.2874  0.4743 -1.4479
  352THF     H6 6509   3.719   3.965   4.281 -0.0695  0.0537 -1.2659
  352THF     H7 6510   3.659   4.015   4.423  2.0386 -1.1886 -1.1073
  352THF     C8 6511   3.507   3.976   4.260  0.8434 -0.9816  0.5068
  352THF     C9 6512   3.469   4.084   4.154  0.0459  0.9467 -0.2770
  352THF    H10 6513   3.429   3.955   4.334 -0.2635 -0.3871 -0.4615
  352THF    H11 6514   3.516   3.882   4.207 -0.5011 -0.2947 -1.0348
  352THF    H12 6515   3.510   4.065   4.055 -2.3547  1.4425 -1.4522
  352THF    H13 6516   3.360   4.089   4.147 -0.2685  0.5279  2.8968
  353THF     O1 6517   0.327   1.772   3.883  0.3354 -0.6388  0.2246
  353THF     C2 6518   0.392   1.825   3.994  0.7059 -0.0602 -0.3288
  353THF     C3 6519   0.215   1.701   3.929 -0.1364  0.5416 -1.0510
  353THF     H4 6520   0.444   1.918   3.973 -0.6553  0.5365 -1.1804
  353THF     H5 6521   0.460   1.751   4.037 -0.6791 -0.6707  0.9290
  353THF     H6 6522   0.150   1.682   3.843 -1.4287  0.6185 -0.1297
  353THF     H7 6523   0.232   1.605   3.979 -1.1068  0.9125  0.0623
  353THF     C8 6524   0.154   1.804   4.035 -0.5439 -0.1913 -0.1959
  353THF     C9 6525   0.277   1.867   4.095  0.4098  0.3393 -0.7826
  353THF    H10 6526   0.095   1.751   4.110  1.9020 -2.4495  0.2746
  353THF    H11 6527   0.086   1.875   3.988  0.8883  1.4566  0.0954
  353THF    H12 6528   0.262   1.975   4.092 -3.5390 -0.0602 -0.4166
  353THF    H13 6529   0.300   1.838   4.198 -0.2516 -0.1411 -0.7638
  354THF     O1 6530   1.675   4.271   1.156 -0.1415  1.1525 -0.1050
  354THF     C2 6531   1.815   4.271   1.122  0.4494 -0.5229  0.5031
  354THF     C3 6532   1.599   4.295   1.041  0.0730 -0.2329  0.7822
  354THF     H4 6533   1.852   4.184   1.069  0.4407  0.9194 -2.0073
  354THF     H5 6534   1.881   4.292   1.207  0.7729  0.4643  0.0288
  354THF     H6 6535   1.587   4.201   0.988 -0.0131 -1.2056  2.4519
  354THF     H7 6536   1.500   4.335   1.065 -0.7564 -1.0696 -1.0728
  354THF     C8 6537   1.695   4.392   0.962  0.6172  0.0099 -0.3653
  354THF     C9 6538   1.834   4.378   1.011  0.0256 -1.3418  0.0030
  354THF    H10 6539   1.661   4.492   0.991 -0.3511 -1.1375  2.8712
  354THF    H11 6540   1.678   4.375   0.856 -0.9284 -0.7546 -0.0241
  354THF    H12 6541   1.888   4.333   0.927 -2.0088 -0.4700 -1.8634
  354THF    H13 6542   1.882   4.472   1.039 -1.2589 -0.4400 -0.7466
  355THF     O1 6543   4.175   1.760   4.524  0.3802  0.1463 -0.6079
  355THF     C2 6544   4.182   1.631   4.583  0.3130  0.9326  0.1532
  355THF     C3 6545   4.086   1.764   4.413  0.3894  0.0372  0.2423
  355THF     H4 6546   4.103   1.625   4.658  0.3355  1.9755  0.2636
  355THF     H5 6547   4.280   1.614   4.626  0.4642 -1.0278 -0.8111
  355THF     H6 6548   3.984   1.801   4.425 -0.3477 -0.3907 -3.5117
  355THF     H7 6549   4.141   1.827   4.344 -1.5824  2.1147  0.4608
  355THF     C8 6550   4.078   1.615   4.364 -0.3577 -0.5689 -0.5574
  355THF     C9 6551   4.173   1.544   4.460  0.4672  0.5750  0.3828
  355THF    H10 6552   4.101   1.602   4.258 -2.0725 -1.5429 -0.8446
  355THF    H11 6553   3.976   1.576   4.369 -0.7002  0.4342  0.5224
  355THF    H12 6554   4.136   1.443   4.479 -1.2339  1.1683  0.3791
  355THF    H13 6555   4.269   1.541   4.410  0.6028 -0.7741  0.6901
  356THF     O1 6556   0.856   1.172   0.745 -0.0790  0.0535  0.4454
  356THF     C2 6557   0.894   1.053   0.674  0.1437  0.3112  0.4936
  356THF     C3 6558   0.961   1.264   0.747 -0.0128 -0.0879  0.0432
  356THF     H4 6559   0.820   0.993   0.620  3.0590 -3.3527  0.1242
  356THF     H5 6560   0.937   0.983   0.745 -0.1190  1.9876  2.4047
  356THF     H6 6561   0.928   1.365   0.771  3.0679  0.7918  1.1207
  356THF     H7 6562   1.031   1.239   0.827 -0.4256  1.6833  1.0072
  356THF     C8 6563   1.016   1.254   0.613 -0.0373 -0.3147 -1.0651
  356THF     C9 6564   0.997   1.106   0.576 -0.1983 -0.1111 -0.5399
  356THF    H10 6565   1.120   1.286   0.607  0.0381  0.0703  1.3161
  356THF    H11 6566   0.951   1.318   0.554  0.9553  1.6883 -0.0882
  356THF    H12 6567   0.977   1.086   0.471  0.6159  1.2326 -0.9735
  356THF    H13 6568   1.091   1.058   0.604  0.4200  1.3551 -0.0458
  357THF     O1 6569   2.659   2.993   1.344 -0.2373 -0.2065 -0.5248
  357THF     C2 6570   2.577   3.098   1.285  0.1941  0.2635  0.2997
  357THF     C3 6571   2.583   2.886   1.385 -0.8320 -0.6979 -0.0600
  357THF     H4 6572   2.549   3.075   1.182  0.5815  1.3717 -0.0575
  357THF     H5 6573   2.636   3.189   1.281  0.5265  0.0967 -4.4127
  357THF     H6 6574   2.548   2.822   1.305 -2.7297 -0.1396  0.2667
  357THF     H7 6575   2.639   2.833   1.462 -1.0450 -0.7209  0.0784
  357THF     C8 6576   2.466   2.957   1.453  0.1218  0.0737 -0.2673
  357THF     C9 6577   2.450   3.088   1.373  0.7992  0.1733  0.2418
  357THF    H10 6578   2.496   2.981   1.555 -0.1990  0.7896 -0.3379
  357THF    H11 6579   2.377   2.896   1.466 -0.7120  1.2905 -0.1413
  357THF    H12 6580   2.360   3.066   1.316 -1.2381 -0.1056  3.2735
  357THF    H13 6581   2.419   3.170   1.438  1.3155 -1.1159  2.2375
  358THF     O1 6582   5.495   3.742   0.243 -0.3123 -0.8079  0.1833
  358THF     C2 6583   5.600   3.765   0.334 -0.0627 -0.0243 -0.7573
  358THF     C3 6584   5.376   3.745   0.312  0.5327 -0.4421  0.2979
  358THF     H4 6585   5.609   3.872   0.351 -2.7085 -0.0329  1.3374
  358THF     H5 6586   5.698   3.721   0.320 -0.5367 -1.8539  1.1520
  358THF     H6 6587   5.315   3.833   0.292  0.4973 -0.4406  0.4147
  358THF     H7 6588   5.319   3.658   0.278 -1.9705  0.8063  1.0569
  358THF     C8 6589   5.405   3.741   0.458 -0.3066  0.2818  0.1878
  358THF     C9 6590   5.547   3.701   0.460 -0.1554  0.3546  0.5376
  358THF    H10 6591   5.347   3.674   0.521 -1.8120 -0.5217 -1.9360
  358THF    H11 6592   5.395   3.843   0.496  3.5914  0.7565  0.2968
  358THF    H12 6593   5.600   3.732   0.551 -0.2207 -1.1846  1.1344
  358THF    H13 6594   5.552   3.592   0.457  0.4990  0.3849  0.3561
  359THF     O1 6595   4.495   2.271   3.329  0.3020  0.0932 -0.1492
  359THF     C2 6596   4.610   2.348   3.283  0.7480 -0.0688  0.3763
  359THF     C3 6597   4.443   2.191   3.222 -0.4001 -0.6059 -0.5946
  359THF     H4 6598   4.694   2.282   3.302  1.1327  0.2206 -0.2989
  359THF     H5 6599   4.628   2.440   3.339  0.7560 -0.9095  1.8099
  359THF     H6 6600   4.502   2.100   3.218 -1.9597 -1.8247  1.8890
  359THF     H7 6601   4.337   2.175   3.241 -0.8628 -0.1223 -2.5562
  359THF     C8 6602   4.458   2.267   3.095  0.2478 -0.1470  0.0976
  359THF     C9 6603   4.581   2.361   3.135  0.9754 -0.0514  0.5746
  359THF    H10 6604   4.369   2.326   3.074  0.3889  0.5178  1.2543
  359THF    H11 6605   4.478   2.201   3.011 -0.6187  0.1058 -0.3200
  359THF    H12 6606   4.661   2.348   3.062  1.3128 -1.1392  1.1289
  359THF    H13 6607   4.556   2.466   3.114  0.1755 -0.6302 -1.7659
  360THF     O1 6608   1.884   3.492   1.373 -0.3341 -0.1962  0.5580
  360THF     C2 6609   2.014   3.528   1.414 -0.4080  0.7340  0.0854
  360THF     C3 6610   1.896   3.434   1.241  0.2209  0.0898 -0.0830
  360THF     H4 6611   2.073   3.442   1.447  0.4373  0.7125 -1.4343
  360THF     H5 6612   2.003   3.594   1.501  0.1205 -1.0301  1.5502
  360THF     H6 6613   1.933   3.333   1.256 -0.1259 -0.0207  0.0396
  360THF     H7 6614   1.805   3.426   1.182  0.9351 -1.6163 -1.0172
  360THF     C8 6615   2.009   3.515   1.179  0.3850  0.1694 -0.1869
  360THF     C9 6616   2.079   3.587   1.292 -0.7604 -0.0275  0.2161
  360THF    H10 6617   1.967   3.604   1.132  1.2702  0.7782  0.1321
  360THF    H11 6618   2.071   3.470   1.101  1.0283  0.2660  0.2565
  360THF    H12 6619   2.187   3.591   1.284 -0.6937 -2.0956 -0.4031
  360THF    H13 6620   2.039   3.689   1.296 -3.8235 -1.1438  2.8793
  361THF     O1 6621   5.116   3.934   0.455  0.2292  0.3503 -0.0200
  361THF     C2 6622   5.135   4.067   0.390 -0.2111  1.1144 -0.2704
  361THF     C3 6623   5.090   3.955   0.586  0.3487 -0.5502  0.0700
  361THF     H4 6624   5.121   4.061   0.282 -0.3692 -0.7359 -0.1854
  361THF     H5 6625   5.237   4.096   0.416 -0.0537  0.2683  0.0915
  361THF     H6 6626   5.033   3.874   0.633 -3.4893  3.0610  2.2610
  361THF     H7 6627   5.189   3.965   0.632 -0.2231  0.4174  1.1276
  361THF     C8 6628   5.018   4.091   0.593  0.1534  0.0087  0.3276
  361THF     C9 6629   5.032   4.160   0.454 -0.4074 -0.2187 -0.3994
  361THF    H10 6630   5.040   4.155   0.678  0.0674 -0.0847  0.4211
  361THF    H11 6631   4.912   4.066   0.603  0.0314 -2.0191 -3.8478
  361THF    H12 6632   4.940   4.161   0.396 -0.2191 -0.5115 -0.7017
  361THF    H13 6633   5.072   4.262   0.456  1.5514 -0.9302 -0.8518
  362THF     O1 6634   4.061   4.006   4.990 -0.2807 -0.1421 -0.3103
  362THF     C2 6635   3.985   4.036   5.104  0.1171 -0.3473 -0.0944
  362THF     C3 6636   4.148   4.119   4.954  0.5897  0.2991  0.4644
  362THF     H4 6637   4.044   3.987   5.181  1.3615  0.9270 -0.1994
  362THF     H5 6638   3.887   3.989   5.096 -0.0546  0.1167 -0.8599
  362THF     H6 6639   4.251   4.087   4.942  0.4944  0.3616 -0.5924
  362THF     H7 6640   4.115   4.147   4.854  0.1827  1.7450  0.9753
  362THF     C8 6641   4.113   4.225   5.066 -0.7868  0.7148 -1.0067
  362THF     C9 6642   3.969   4.193   5.102  0.3578  0.0708  0.1300
  362THF    H10 6643   4.127   4.329   5.035  0.0108  0.5443 -1.2451
  362THF    H11 6644   4.171   4.203   5.156 -2.0902 -1.0402 -0.5446
  362THF    H12 6645   3.938   4.237   5.197 -2.2131  1.1621 -1.1244
  362THF    H13 6646   3.893   4.224   5.031 -0.1499  1.7979  1.3633
  363THF     O1 6647   5.333   2.066   0.993  0.1953  0.1046  0.0784
  363THF     C2 6648   5.257   2.022   1.103 -0.0984  0.4085  0.1410
  363THF     C3 6649   5.466   2.067   1.029 -0.5140 -0.9437  0.0773
  363THF     H4 6650   5.275   1.918   1.128 -1.0125 -0.3494 -2.0447
  363THF     H5 6651   5.150   2.030   1.085 -0.2184  0.5782  0.9272
  363THF     H6 6652   5.512   1.971   1.004 -0.6618 -0.7173 -1.1115
  363THF     H7 6653   5.529   2.133   0.970  1.0791 -2.5977 -0.1588
  363THF     C8 6654   5.461   2.113   1.175 -0.3186  0.1383  0.1558
  363THF     C9 6655   5.313   2.106   1.216  0.4151  0.4971  0.3927
  363THF    H10 6656   5.498   2.215   1.188  3.0932 -1.2348  2.4184
  363THF    H11 6657   5.518   2.042   1.234  2.2262  0.8255 -1.3141
  363THF    H12 6658   5.299   2.055   1.312  0.8410  1.8567  1.1967
  363THF    H13 6659   5.266   2.204   1.224 -1.0494 -0.1830  0.5081
  364THF     O1 6660   1.255   2.627   3.485  0.1752  0.5787  0.5715
  364THF     C2 6661   1.390   2.633   3.450 -0.4400 -0.2764  0.8279
  364THF     C3 6662   1.175   2.642   3.368  0.0448 -0.1119  0.3321
  364THF     H4 6663   1.461   2.581   3.514  0.5576  0.1494  0.0836
  364THF     H5 6664   1.417   2.738   3.443  0.5480 -0.2797  3.4150
  364THF     H6 6665   1.070   2.627   3.394 -0.6983 -0.8679 -2.6736
  364THF     H7 6666   1.190   2.747   3.341 -0.4015  0.1258  0.9945
  364THF     C8 6667   1.243   2.550   3.273 -0.8617 -0.1348 -1.2018
  364THF     C9 6668   1.391   2.582   3.308 -0.1925  0.0358 -0.0826
  364THF    H10 6669   1.208   2.583   3.175  1.1151 -4.3487 -3.6074
  364THF    H11 6670   1.222   2.445   3.296  1.5990 -0.0999  1.8434
  364THF    H12 6671   1.451   2.491   3.309 -1.4153 -0.7968  1.0004
  364THF    H13 6672   1.423   2.652   3.232 -1.2526  0.6662  0.0344
  365THF     O1 6673   3.186   4.452   4.125 -0.0717  0.1445  0.2566
  365THF     C2 6674   3.123   4.478   4.252  0.1407 -0.4881  0.6182
  365THF     C3 6675   3.299   4.529   4.118  0.1971 -0.7726 -0.0862
  365THF     H4 6676   3.044   4.412   4.289  0.4946 -1.5467 -0.4671
  365THF     H5 6677   3.073   4.575   4.251 -0.4933 -0.7987 -1.4488
  365THF     H6 6678   3.376   4.512   4.043  1.1510 -1.6739  1.0548
  365THF     H7 6679   3.251   4.621   4.084 -1.7908 -1.8894 -0.5007
  365THF     C8 6680   3.350   4.551   4.260 -0.5853 -0.1613  0.2222
  365THF     C9 6681   3.242   4.490   4.344  0.5873  0.2334  0.4464
  365THF    H10 6682   3.363   4.657   4.284  3.3211 -0.3554 -0.2648
  365THF    H11 6683   3.453   4.520   4.280 -0.2740  0.8532  0.2875
  365THF    H12 6684   3.276   4.391   4.374 -0.0976 -0.5520 -1.2532
  365THF    H13 6685   3.222   4.536   4.441  1.3219  0.3466  0.5517
  366THF     O1 6686   1.593   3.728   1.603  0.0822  0.5440  0.6240
  366THF     C2 6687   1.704   3.717   1.519 -0.1503  0.4707 -0.0659
  366THF     C3 6688   1.491   3.772   1.519 -0.2264 -0.2424  0.2123
  366THF     H4 6689   1.689   3.631   1.454 -2.7456 -0.1651  1.2113
  366THF     H5 6690   1.788   3.717   1.588 -0.9783  1.6387  0.9841
  366THF     H6 6691   1.450   3.682   1.473  0.0381  0.3958 -1.3003
  366THF     H7 6692   1.408   3.820   1.570 -0.3179  0.3085 -0.4464
  366THF     C8 6693   1.563   3.885   1.432 -0.1777  0.1566 -0.0296
  366THF     C9 6694   1.713   3.846   1.443  0.1177  0.7266 -0.1954
  366THF    H10 6695   1.543   3.981   1.480 -0.7451  0.6121 -1.1339
  366THF    H11 6696   1.517   3.887   1.334  0.2352  0.3242 -0.2205
  366THF    H12 6697   1.767   3.835   1.349 -0.6810 -1.4260 -0.4467
  366THF    H13 6698   1.760   3.930   1.495 -0.4268  0.5907  0.5388
  367THF     O1 6699   1.899   2.760   2.256 -0.0152 -0.3480 -0.0926
  367THF     C2 6700   1.892   2.880   2.326  0.2416  0.2638 -0.2498
  367THF     C3 6701   2.016   2.689   2.302 -0.0811  0.0326  0.2214
  367THF     H4 6702   1.805   2.944   2.308  0.7083  0.7598 -0.7928
  367THF     H5 6703   1.977   2.944   2.305 -0.4779  0.4639 -2.8884
  367THF     H6 6704   2.004   2.591   2.256 -1.7671  0.8123 -1.0788
  367THF     H7 6705   2.104   2.743   2.266 -1.1742  2.3735  0.8650
  367THF     C8 6706   1.987   2.696   2.455 -0.5066  0.4923  0.3045
  367THF     C9 6707   1.897   2.825   2.467  0.3656  0.2745 -0.1746
  367THF    H10 6708   2.079   2.699   2.513  1.3317 -1.9576 -2.1742
  367THF    H11 6709   1.928   2.610   2.488 -1.9132  0.5344 -1.8823
  367THF    H12 6710   1.798   2.783   2.482  1.0465 -1.4181 -0.2147
  367THF    H13 6711   1.919   2.884   2.556  0.7047 -0.9854  0.5993
  368THF     O1 6712   0.639   0.847   1.950  0.1154 -0.5627 -0.4421
  368THF     C2 6713   0.740   0.862   1.847 -0.1458  0.0327  0.0630
  368THF     C3 6714   0.550   0.956   1.951  0.1132 -0.2513  0.0595
  368THF     H4 6715   0.784   0.769   1.809  0.8965  0.8582 -0.8196
  368THF     H5 6716   0.822   0.917   1.892  0.4827  0.4209 -1.4974
  368THF     H6 6717   0.460   0.939   2.010 -0.4482 -0.2046 -0.7663
  368THF     H7 6718   0.597   1.037   2.006 -0.1343  0.1543 -0.3213
  368THF     C8 6719   0.539   0.998   1.804  0.8932 -0.0845  0.6449
  368THF     C9 6720   0.667   0.938   1.736  0.2396 -0.0675 -0.0063
  368THF    H10 6721   0.536   1.107   1.795 -0.9059 -0.2415 -1.3901
  368THF    H11 6722   0.447   0.960   1.761  0.2078 -2.2148  3.6391
  368THF    H12 6723   0.641   0.877   1.649  0.2776 -0.2392  0.1024
  368THF    H13 6724   0.727   1.014   1.686  0.4848 -0.5414 -0.4558
  369THF     O1 6725   3.840   3.223   5.403  0.5753 -0.3421 -0.1342
  369THF     C2 6726   3.758   3.112   5.427  0.1731  0.2457  0.8351
  369THF     C3 6727   3.775   3.336   5.457  0.1823 -0.9901  0.1582
  369THF     H4 6728   3.774   3.087   5.532 -0.3834  0.5600  1.0021
  369THF     H5 6729   3.776   3.026   5.363 -1.9389  2.2443 -2.8210
  369THF     H6 6730   3.781   3.326   5.566  0.1671  4.0243  0.8428
  369THF     H7 6731   3.819   3.433   5.434 -1.4591 -0.1746  0.2702
  369THF     C8 6732   3.635   3.319   5.408  0.2690  0.3838  0.0385
  369THF     C9 6733   3.613   3.164   5.404 -0.3660  0.2172 -0.2654
  369THF    H10 6734   3.620   3.345   5.303 -1.8785  0.4344  0.3012
  369THF    H11 6735   3.558   3.370   5.465  0.2496  1.1879 -0.6776
  369THF    H12 6736   3.550   3.121   5.483  1.3854 -1.1070  0.4839
  369THF    H13 6737   3.573   3.121   5.313 -2.2362 -1.2171  1.1372
  370THF     O1 6738   4.119   2.930   2.334  0.5870  0.5986  0.6986
  370THF     C2 6739   4.070   3.046   2.404 -0.1114  0.1162 -0.4442
  370THF     C3 6740   4.133   2.825   2.425  0.6489 -0.8584  0.3654
  370THF     H4 6741   3.961   3.052   2.407 -0.1223  0.1058  2.8849
  370THF     H5 6742   4.107   3.134   2.351 -0.0051  1.3604  1.6049
  370THF     H6 6743   4.054   2.752   2.412 -0.1224 -0.0188  0.2567
  370THF     H7 6744   4.221   2.767   2.398 -0.6885 -2.3196 -0.9931
  370THF     C8 6745   4.123   2.891   2.566 -0.3695  0.1658  0.0471
  370THF     C9 6746   4.125   3.042   2.552  0.2477  0.3053  0.4827
  370THF    H10 6747   4.200   2.856   2.634 -0.5613 -1.5463 -0.5847
  370THF    H11 6748   4.024   2.852   2.589  0.3348 -1.5785  0.2721
  370THF    H12 6749   4.072   3.095   2.631 -1.9058  1.8789 -1.8715
  370THF    H13 6750   4.226   3.083   2.551  0.1584  0.5525 -0.6956
  371THF     O1 6751   2.822   1.584   0.395 -0.3463  0.6680  0.0439
  371THF     C2 6752   2.937   1.665   0.389 -0.3988  0.3298  0.0522
  371THF     C3 6753   2.851   1.473   0.310  0.2185  0.1784  0.0150
  371THF     H4 6754   3.012   1.631   0.460  0.8729  0.1625 -1.3410
  371THF     H5 6755   2.907   1.766   0.418 -1.0515  0.2472 -0.3144
  371THF     H6 6756   2.892   1.386   0.362 -0.7663  0.2414  0.9372
  371THF     H7 6757   2.758   1.445   0.262 -0.6031  2.5255  0.1017
  371THF     C8 6758   2.947   1.513   0.202 -0.2253 -0.0339  0.2727
  371THF     C9 6759   2.992   1.656   0.252  0.7307  0.7558 -0.9105
  371THF    H10 6760   2.888   1.527   0.111  0.1688  1.2335  0.1849
  371THF    H11 6761   3.033   1.448   0.186 -1.3875 -0.9579 -3.0049
  371THF    H12 6762   3.101   1.664   0.243  0.6515  1.7632 -1.0543
  371THF    H13 6763   2.943   1.729   0.188  0.1110  0.3704 -0.8753
  372THF     O1 6764   0.041   1.111   5.189  0.7169 -0.1505 -0.2180
  372THF     C2 6765  -0.063   1.023   5.165 -0.4078 -0.0426 -0.0725
  372THF     C3 6766   0.051   1.130   5.335 -0.0037 -0.3272  0.2125
  372THF     H4 6767  -0.035   0.966   5.077 -3.4468 -0.4612 -0.8834
  372THF     H5 6768  -0.160   1.072   5.158 -0.3233  0.7291  2.6943
  372THF     H6 6769   0.156   1.130   5.361  0.2403 -2.6176 -0.5078
  372THF     H7 6770   0.009   1.224   5.369 -1.5119 -0.4481 -1.1803
  372THF     C8 6771  -0.021   1.017   5.398  0.0122 -0.4387 -0.3931
  372THF     C9 6772  -0.054   0.931   5.287  0.5146 -0.9323  0.6104
  372THF    H10 6773  -0.106   1.055   5.454  0.4200  0.5623 -0.4414
  372THF    H11 6774   0.034   0.958   5.472  0.2762 -0.3044 -0.4817
  372THF    H12 6775   0.033   0.868   5.266  0.4828 -0.9403  0.5058
  372THF    H13 6776  -0.140   0.867   5.305  1.1712 -1.7092  1.0720
  373THF     O1 6777   0.866   2.724   3.857 -0.3283  0.6021  0.3890
  373THF     C2 6778   0.837   2.815   3.753  0.2376 -0.4641 -0.5383
  373THF     C3 6779   1.006   2.759   3.893  0.2248  0.0057  0.7599
  373THF     H4 6780   0.833   2.912   3.801 -0.2775 -0.0528 -1.3765
  373THF     H5 6781   0.745   2.800   3.696 -0.1855 -1.4437  0.3813
  373THF     H6 6782   1.002   2.847   3.957 -2.8233  0.1079  0.5983
  373THF     H7 6783   1.068   2.679   3.932 -0.4293 -1.4345 -1.0068
  373THF     C8 6784   1.069   2.815   3.764 -0.4676 -0.4969  0.6125
  373THF     C9 6785   0.958   2.835   3.668 -0.2305 -0.9454  0.2928
  373THF    H10 6786   1.140   2.738   3.732  0.8239  0.9414 -0.0869
  373THF    H11 6787   1.129   2.902   3.789 -0.0972 -0.7183  0.5115
  373THF    H12 6788   0.957   2.931   3.618  2.2307 -2.1477 -2.3971
  373THF    H13 6789   0.960   2.761   3.588  3.7237 -0.2562 -0.4613
  374THF     O1 6790   0.683   3.327   0.536  0.1219 -0.1225 -0.3392
  374THF     C2 6791   0.602   3.321   0.417  0.0005  0.3225 -0.3826
  374THF     C3 6792   0.788   3.425   0.515  0.5150  0.3766 -0.4806
  374THF     H4 6793   0.501   3.285   0.436 -0.3655  2.1352  1.4652
  374THF     H5 6794   0.640   3.256   0.337  1.2892  1.3813 -0.6791
  374THF     H6 6795   0.825   3.473   0.605  2.6912  1.0203 -1.6546
  374THF     H7 6796   0.870   3.374   0.465  0.9186  2.4716 -2.0723
  374THF     C8 6797   0.733   3.523   0.414 -0.9969  0.3297 -0.5124
  374THF     C9 6798   0.593   3.461   0.374 -0.3689 -0.6813 -0.2483
  374THF    H10 6799   0.801   3.533   0.329 -1.4049  1.1554 -0.7535
  374THF    H11 6800   0.722   3.625   0.451 -2.3894  0.1234 -0.3059
  374THF    H12 6801   0.520   3.520   0.429  1.0663  0.6867  0.2501
  374THF    H13 6802   0.578   3.478   0.267  2.3788 -1.9298 -0.9485
  375THF     O1 6803   1.736   4.146   3.038  0.0901  0.3743  0.2181
  375THF     C2 6804   1.768   4.013   2.990 -0.0789  0.3272  0.2391
  375THF     C3 6805   1.612   4.174   2.974  0.3822 -0.3198  0.2212
  375THF     H4 6806   1.721   3.934   3.047 -0.0649  0.8205  0.9431
  375THF     H5 6807   1.874   3.993   3.001 -0.3427 -1.8536 -0.7274
  375THF     H6 6808   1.532   4.117   3.023 -0.6878  1.7034  0.9582
  375THF     H7 6809   1.587   4.279   2.988  0.7226 -0.1573 -0.3727
  375THF     C8 6810   1.616   4.122   2.830  0.0861  0.4330 -0.2197
  375THF     C9 6811   1.726   4.020   2.835 -0.3061  0.3094 -0.5011
  375THF    H10 6812   1.650   4.202   2.765 -0.4870  2.8665  2.2726
  375THF    H11 6813   1.516   4.089   2.802  1.4108 -2.3939 -2.0504
  375THF    H12 6814   1.687   3.927   2.793 -1.2419  1.0981 -1.4509
  375THF    H13 6815   1.814   4.044   2.776 -1.0665 -0.6137 -2.0920
  376THF     O1 6816   0.003   0.286   3.728 -0.7958 -0.2223  0.3182
  376THF     C2 6817  -0.030   0.297   3.583  0.1716 -0.1798 -0.1681
  376THF     C3 6818   0.140   0.323   3.752 -0.4382 -0.1000  0.5818
  376THF     H4 6819  -0.104   0.373   3.558  2.2923  2.0523 -0.0491
  376THF     H5 6820  -0.079   0.204   3.555 -0.7412  0.7162 -1.7485
  376THF     H6 6821   0.138   0.413   3.813 -2.6658 -1.3234  2.4883
  376THF     H7 6822   0.185   0.236   3.801  0.0675 -1.1828 -1.6697
  376THF     C8 6823   0.207   0.334   3.611 -0.3646  0.2820  0.1940
  376THF     C9 6824   0.101   0.305   3.507  0.3249  0.3905 -1.0811
  376THF    H10 6825   0.294   0.268   3.609 -0.2305  0.4588  0.2311
  376THF    H11 6826   0.249   0.434   3.609  2.3371 -0.7399  0.8338
  376THF    H12 6827   0.101   0.392   3.441 -1.2365  1.2349 -0.0246
  376THF    H13 6828   0.139   0.223   3.446 -1.4998 -0.6016 -0.9278
  377THF     O1 6829   2.616   1.403   3.036 -0.4407 -0.0947  0.1286
  377THF     C2 6830   2.582   1.322   2.927 -0.1563 -0.4125  1.1651
  377THF     C3 6831   2.597   1.538   3.002 -0.3076 -0.6193 -0.5583
  377THF     H4 6832   2.487   1.271   2.947 -1.0980 -0.1539 -1.9850
  377THF     H5 6833   2.657   1.254   2.887  1.2021  3.3814 -3.7800
  377THF     H6 6834   2.556   1.595   3.085 -0.5541  0.7977 -1.6103
  377THF     H7 6835   2.687   1.590   2.970 -0.5072  0.9188  1.1651
  377THF     C8 6836   2.499   1.536   2.892  0.0341  0.1526  0.5290
  377THF     C9 6837   2.552   1.416   2.815  0.1565 -0.9021  0.2036
  377THF    H10 6838   2.500   1.629   2.835  2.3596 -0.0659  0.1154
  377THF    H11 6839   2.403   1.512   2.937 -0.6695 -0.5120 -1.2380
  377THF    H12 6840   2.480   1.378   2.743 -0.4455 -0.3162  0.4930
  377THF    H13 6841   2.650   1.431   2.769  0.4785 -1.0952  0.8085
  378THF     O1 6842   2.641   3.414   4.221  0.1863  0.6227  0.5351
  378THF     C2 6843   2.728   3.457   4.329 -0.8347 -0.7302 -0.7066
  378THF     C3 6844   2.569   3.300   4.277 -0.2243 -0.1997 -0.0699
  378THF     H4 6845   2.761   3.557   4.304 -0.1206 -0.6038  0.6682
  378THF     H5 6846   2.813   3.391   4.344  0.6705  0.9062 -1.6042
  378THF     H6 6847   2.465   3.311   4.245 -0.5811 -0.0669  1.0831
  378THF     H7 6848   2.611   3.205   4.243  1.4614 -0.7357  3.1511
  378THF     C8 6849   2.574   3.313   4.426 -0.0164 -0.1673 -0.0491
  378THF     C9 6850   2.633   3.454   4.444  0.1866 -0.2889  0.3732
  378THF    H10 6851   2.635   3.231   4.465  1.0979  1.3537  1.5696
  378THF    H11 6852   2.490   3.298   4.494 -0.0544 -2.0901 -0.4397
  378THF    H12 6853   2.555   3.528   4.431 -0.4447 -1.2333 -1.7126
  378THF    H13 6854   2.679   3.453   4.543  1.2514 -1.0583 -0.0991
  379THF     O1 6855   2.252   5.021   5.114 -0.1063  0.6119  0.1318
  379THF     C2 6856   2.275   4.906   5.028 -0.3416 -0.5111  0.8688
  379THF     C3 6857   2.117   5.050   5.123  0.2968 -0.2290  0.1843
  379THF     H4 6858   2.317   4.822   5.084  1.3932 -0.1764  0.1157
  379THF     H5 6859   2.354   4.936   4.960  0.9247 -0.7202  2.1960
  379THF     H6 6860   2.082   4.988   5.206 -2.0229 -0.1848 -0.6690
  379THF     H7 6861   2.089   5.154   5.139  0.8701 -0.3643  2.4512
  379THF     C8 6862   2.063   5.002   4.989  0.2606  0.0516  0.3414
  379THF     C9 6863   2.136   4.869   4.970 -0.3461 -0.2851 -0.9794
  379THF    H10 6864   2.077   5.069   4.906 -1.2426  0.4142  0.3413
  379THF    H11 6865   1.955   4.985   4.998  0.4133 -2.0631 -1.2308
  379THF    H12 6866   2.083   4.791   5.024 -0.5222  2.2549  2.9386
  379THF    H13 6867   2.137   4.841   4.864  1.0153  0.1241 -1.0976
  380THF     O1 6868   3.045   1.874   4.716  0.3263 -0.4858  0.2514
  380THF     C2 6869   2.937   1.797   4.778 -0.3670 -0.0331  0.3245
  380THF     C3 6870   3.120   1.933   4.822  0.1455 -0.2484 -0.6343
  380THF     H4 6871   2.967   1.700   4.816  0.6923 -0.2458 -0.9920
  380THF     H5 6872   2.848   1.792   4.715  0.1206 -0.2428 -0.3578
  380THF     H6 6873   3.204   1.870   4.853  0.4275  0.5211  0.2045
  380THF     H7 6874   3.172   2.022   4.787  0.5681 -0.1649  0.1768
  380THF     C8 6875   3.016   1.949   4.944  0.0518 -0.2057 -0.3968
  380THF     C9 6876   2.894   1.882   4.901  0.2978 -0.2104 -0.0281
  380THF    H10 6877   3.001   2.056   4.955  0.1134 -0.3128  0.8972
  380THF    H11 6878   3.045   1.913   5.043 -1.5505 -0.6835 -0.0596
  380THF    H12 6879   2.844   1.825   4.979 -0.1649 -0.1036 -0.2448
  380THF    H13 6880   2.820   1.959   4.880  1.2060  0.6546 -0.1614
  381THF     O1 6881   4.774   1.041   3.771 -0.3700  0.0910  0.1418
  381THF     C2 6882   4.856   0.937   3.737  0.5749  0.6160 -0.4167
  381THF     C3 6883   4.684   1.003   3.874 -0.4448 -0.2602 -0.7381
  381THF     H4 6884   4.951   0.969   3.693  1.0568  0.1020  0.2314
  381THF     H5 6885   4.797   0.868   3.677 -1.1082  0.0021  1.8211
  381THF     H6 6886   4.643   1.091   3.923  1.2885 -1.0014  2.2441
  381THF     H7 6887   4.594   0.957   3.832 -1.4531 -0.4767  1.5036
  381THF     C8 6888   4.762   0.912   3.967  0.5088 -0.3203 -0.6868
  381THF     C9 6889   4.875   0.870   3.878 -0.5208 -0.2707 -0.0178
  381THF    H10 6890   4.698   0.828   3.996  1.4768 -0.2204  2.0546
  381THF    H11 6891   4.804   0.956   4.058  0.4269 -1.2362 -0.1826
  381THF    H12 6892   4.970   0.892   3.927 -0.0500 -2.1748  0.0101
  381THF    H13 6893   4.879   0.761   3.874  0.0184 -0.2128 -1.9399
  382THF     O1 6894   4.226   2.059   2.766 -0.7166  0.1795  0.2091
  382THF     C2 6895   4.118   1.966   2.745  0.2894 -0.3606 -0.2973
  382THF     C3 6896   4.302   2.004   2.863  0.0203  0.6150  0.6774
  382THF     H4 6897   4.063   1.963   2.651 -0.8082 -3.6537  0.2882
  382THF     H5 6898   4.044   1.996   2.819 -1.1804  0.1197 -1.9122
  382THF     H6 6899   4.401   2.048   2.859  0.3542 -0.2101 -1.6104
  382THF     H7 6900   4.254   2.008   2.961 -1.5620  1.0521 -0.0946
  382THF     C8 6901   4.318   1.855   2.831  0.1330 -0.1569  0.2846
  382THF     C9 6902   4.186   1.832   2.772  0.5492  0.3892  0.5784
  382THF    H10 6903   4.323   1.805   2.928 -0.7469 -0.2302  0.3024
  382THF    H11 6904   4.394   1.831   2.757 -0.5292  0.6566 -0.6871
  382THF    H12 6905   4.186   1.767   2.685  0.5484 -0.7928  1.4372
  382THF    H13 6906   4.129   1.784   2.852 -0.5262 -0.6708 -0.7935
  383THF     O1 6907   3.012   3.064   3.944 -0.0413  0.7167  0.4494
  383THF     C2 6908   2.944   3.189   3.949  0.1329  0.6887  0.1373
  383THF     C3 6909   2.931   2.968   4.016 -0.1992 -0.0147 -0.2051
  383THF     H4 6910   2.856   3.183   3.885 -0.1506 -2.1358  0.6369
  383THF     H5 6911   3.005   3.274   3.919 -2.2123  2.0139 -1.2047
  383THF     H6 6912   2.864   2.943   3.934  1.0653  0.4911 -1.4457
  383THF     H7 6913   2.999   2.892   4.053  3.6638  2.7637 -1.0016
  383THF     C8 6914   2.858   3.047   4.127  0.1953  0.2444  0.0011
  383THF     C9 6915   2.886   3.193   4.093 -1.2148  0.5805 -0.7207
  383THF    H10 6916   2.887   3.008   4.224  0.9478 -0.1344 -0.3606
  383THF    H11 6917   2.753   3.025   4.112 -0.1350  0.7342  1.4738
  383THF    H12 6918   2.793   3.248   4.083 -2.5355 -1.6330 -1.2856
  383THF    H13 6919   2.955   3.244   4.160 -0.7189  2.2535 -2.4025
  384THF     O1 6920   3.456   1.917   1.210 -0.2337  0.3579 -0.0320
  384THF     C2 6921   3.435   1.906   1.348  0.3241 -0.5697 -0.3181
  384THF     C3 6922   3.579   1.973   1.184  0.5939  0.2192 -0.5254
  384THF     H4 6923   3.460   1.804   1.378  2.0638  0.3465  1.6680
  384THF     H5 6924   3.328   1.922   1.360  0.1188 -1.2635 -1.1372
  384THF     H6 6925   3.656   1.895   1.185 -1.1232 -1.5972  1.3869
  384THF     H7 6926   3.591   2.034   1.095  1.4253  2.0843  0.7984
  384THF     C8 6927   3.612   2.058   1.304 -0.1584 -0.8890  0.8973
  384THF     C9 6928   3.531   2.007   1.418 -0.0500  0.1305 -0.2611
  384THF    H10 6929   3.589   2.159   1.272  1.9525 -0.7908 -0.5512
  384THF    H11 6930   3.721   2.067   1.312 -0.1457  0.4092 -0.3884
  384THF    H12 6931   3.602   1.965   1.489  2.0020  0.9622 -1.7021
  384THF    H13 6932   3.478   2.091   1.463  0.8463 -0.0064  1.0862
  385THF     O1 6933   3.522   4.821   3.440 -0.4297 -0.2686  0.3796
  385THF     C2 6934   3.454   4.925   3.506  0.2345  0.7748 -1.1166
  385THF     C3 6935   3.577   4.873   3.317 -0.0089 -0.5532 -0.2114
  385THF     H4 6936   3.464   4.929   3.614 -0.0487  2.5377 -1.1275
  385THF     H5 6937   3.347   4.929   3.484  0.1342  1.5570 -0.5389
  385THF     H6 6938   3.684   4.854   3.312  0.2690  1.2326 -2.2188
  385THF     H7 6939   3.540   4.824   3.228  1.2383  0.9402 -1.6286
  385THF     C8 6940   3.536   5.023   3.315  0.1948 -0.3667  0.1965
  385THF     C9 6941   3.510   5.064   3.456 -0.4530  0.2989 -0.1619
  385THF    H10 6942   3.441   5.024   3.263  0.8584  0.2315 -1.0512
  385THF    H11 6943   3.615   5.079   3.265 -0.1203  0.6798  0.8391
  385THF    H12 6944   3.604   5.095   3.502 -1.7618  0.6048  2.5129
  385THF    H13 6945   3.447   5.151   3.475 -1.2907 -0.1958 -0.6450
  386THF     O1 6946   4.790   0.212   1.853  1.1957 -0.1201 -0.2138
  386THF     C2 6947   4.844   0.091   1.798 -0.1609 -0.0910 -0.2349
  386THF     C3 6948   4.904   0.261   1.928 -0.3268  0.2040 -0.1087
  386THF     H4 6949   4.778   0.058   1.717 -1.0690 -1.6128  1.0771
  386THF     H5 6950   4.850   0.013   1.873 -0.4205  0.7337  0.6735
  386THF     H6 6951   4.894   0.363   1.966  0.7586  0.0448  0.6629
  386THF     H7 6952   4.918   0.190   2.009 -2.7961 -2.9727 -2.2388
  386THF     C8 6953   5.013   0.256   1.825  0.0866 -0.3408 -0.0072
  386THF     C9 6954   4.985   0.122   1.753  0.0737 -0.2038  0.2123
  386THF    H10 6955   5.110   0.269   1.873  0.3717  3.0896 -1.2197
  386THF    H11 6956   5.013   0.338   1.753 -0.5527 -1.4424 -1.3064
  386THF    H12 6957   4.987   0.127   1.644 -0.0619  0.6803  0.2448
  386THF    H13 6958   5.060   0.047   1.778 -0.8035 -1.4966 -0.8529
  387THF     O1 6959   4.351   3.483   5.260 -0.6728  0.4559  0.0848
  387THF     C2 6960   4.327   3.365   5.340 -0.7514 -0.0473  0.5956
  387THF     C3 6961   4.306   3.440   5.134  0.3211  0.6020  0.1798
  387THF     H4 6962   4.221   3.355   5.360 -0.7841 -0.6418  0.1650
  387THF     H5 6963   4.380   3.363   5.435 -0.8392 -0.3573  0.6399
  387THF     H6 6964   4.199   3.421   5.143  0.5116  0.3018  2.8145
  387THF     H7 6965   4.329   3.506   5.051 -2.2830 -0.4933 -1.5269
  387THF     C8 6966   4.375   3.305   5.114 -0.2707 -0.1104  0.0650
  387THF     C9 6967   4.372   3.245   5.250  0.0520  0.5282  0.2472
  387THF    H10 6968   4.482   3.314   5.092 -0.2488  0.3210  0.3152
  387THF    H11 6969   4.341   3.234   5.039 -0.0110  0.2218 -0.3715
  387THF    H12 6970   4.302   3.161   5.255  0.8648 -0.3621 -2.0586
  387THF    H13 6971   4.469   3.208   5.283  0.8207  1.7623 -0.5357
  388THF     O1 6972   3.932   3.961   4.670  0.2879 -0.0802 -0.5111
  388THF     C2 6973   3.900   3.837   4.742  0.6714 -0.5053  0.0339
  388THF     C3 6974   3.821   4.051   4.685 -0.6446 -0.0682 -0.6651
  388THF     H4 6975   3.982   3.798   4.803  0.8940 -0.8411 -0.4748
  388THF     H5 6976   3.901   3.763   4.662 -1.0044  1.4370 -1.8969
  388THF     H6 6977   3.855   4.109   4.772 -1.5550 -1.2592  0.5281
  388THF     H7 6978   3.799   4.117   4.601 -0.9956  0.9576  0.2007
  388THF     C8 6979   3.711   3.969   4.725  0.0791 -0.0998  0.2930
  388THF     C9 6980   3.772   3.864   4.810 -0.9123 -0.3202  0.2374
  388THF    H10 6981   3.658   3.909   4.651  0.0583 -1.3410  1.2971
  388THF    H11 6982   3.645   4.040   4.776  0.1199  0.3516 -0.2765
  388THF    H12 6983   3.771   3.910   4.909 -0.9822 -1.4951  0.8120
  388THF    H13 6984   3.702   3.781   4.814 -0.1646 -0.9532  0.5645
  389THF     O1 6985   5.292   0.141   1.152 -0.3573 -0.4434 -0.3505
  389THF     C2 6986   5.336   0.115   1.014  0.3648  0.1494  0.0701
  389THF     C3 6987   5.201   0.044   1.191  0.1905  0.2862  0.2795
  389THF     H4 6988   5.428   0.057   1.019  0.4309  0.3421  1.4653
  389THF     H5 6989   5.333   0.211   0.963 -3.2992 -0.3699 -0.9525
  389THF     H6 6990   5.257  -0.043   1.224  0.8440  1.5881  2.7957
  389THF     H7 6991   5.137   0.084   1.269  1.4873  3.2986 -0.0871
  389THF     C8 6992   5.114   0.019   1.063 -0.5596  0.2022 -0.2374
  389THF     C9 6993   5.228   0.028   0.959  0.7697  0.1020  0.0032
  389THF    H10 6994   5.047   0.104   1.051 -0.6173 -0.1123 -2.8029
  389THF    H11 6995   5.065  -0.079   1.064 -0.7587  0.1976  3.7143
  389THF    H12 6996   5.273  -0.072   0.959 -0.0208 -0.2745 -1.0219
  389THF    H13 6997   5.196   0.052   0.858 -1.5203 -1.6148  0.2373
  390THF     O1 6998   2.602   4.152   0.747 -0.7319  0.0021  0.6564
  390THF     C2 6999   2.728   4.209   0.703 -0.0363  1.2374 -0.0838
  390THF     C3 7000   2.501   4.225   0.682  0.3822  0.0528  0.6406
  390THF     H4 7001   2.731   4.176   0.600 -0.1231  3.2516 -0.7674
  390THF     H5 7002   2.811   4.168   0.761 -0.3786  0.2716 -0.2609
  390THF     H6 7003   2.503   4.197   0.577 -0.2913  0.4798  0.5013
  390THF     H7 7004   2.404   4.214   0.731 -0.1256  2.4457  0.3136
  390THF     C8 7005   2.556   4.365   0.695  0.0158  0.4375 -0.0545
  390THF     C9 7006   2.702   4.354   0.710 -0.0014 -0.9609  0.5003
  390THF    H10 7007   2.503   4.402   0.782 -1.0149 -3.8176  1.4057
  390THF    H11 7008   2.527   4.422   0.607  3.9068  0.7663 -1.3438
  390THF    H12 7009   2.749   4.413   0.631 -2.5670  0.5148 -0.0358
  390THF    H13 7010   2.728   4.385   0.812 -0.4047 -0.5465  0.4805
  391THF     O1 7011   2.978   2.710   3.815  0.4624 -0.2456 -0.7484
  391THF     C2 7012   3.015   2.804   3.711  0.2827 -0.2056 -0.1581
  391THF     C3 7013   2.838   2.686   3.819  0.0332 -0.2970  0.3554
  391THF     H4 7014   3.063   2.740   3.637 -2.0540 -3.4838  0.8766
  391THF     H5 7015   3.081   2.879   3.754 -0.1928  0.5188 -0.6735
  391THF     H6 7016   2.813   2.580   3.826  0.5684 -0.3949  0.8433
  391THF     H7 7017   2.790   2.725   3.909 -1.9909 -0.7831 -0.4600
  391THF     C8 7018   2.772   2.752   3.702 -0.3091 -0.2856 -0.1831
  391THF     C9 7019   2.880   2.853   3.669 -0.0937 -0.7022 -0.0457
  391THF    H10 7020   2.675   2.794   3.727 -0.5798 -0.4666 -0.8881
  391THF    H11 7021   2.770   2.684   3.617  3.8767 -0.4869 -0.3007
  391THF    H12 7022   2.879   2.856   3.560 -1.7251  2.3007 -0.0464
  391THF    H13 7023   2.858   2.951   3.710 -0.9739 -0.9963  0.1908
  392THF     O1 7024   1.522   1.399   0.423  0.4597  0.3655  0.6870
  392THF     C2 7025   1.462   1.325   0.317  0.6422 -0.0646 -0.6630
  392THF     C3 7026   1.597   1.312   0.502 -0.0074  0.3539 -0.0047
  392THF     H4 7027   1.431   1.381   0.230 -0.6524 -0.0708 -0.2283
  392THF     H5 7028   1.368   1.278   0.345  0.6502  0.3497  0.0898
  392THF     H6 7029   1.675   1.355   0.564 -0.7582 -2.5183  3.2705
  392THF     H7 7030   1.531   1.268   0.577 -0.5570  1.7150  0.3410
  392THF     C8 7031   1.649   1.202   0.416  0.3353  0.5512  0.3076
  392THF     C9 7032   1.571   1.222   0.283 -0.1463 -0.1912 -1.3119
  392THF    H10 7033   1.609   1.109   0.456 -0.1951  0.3377 -0.6880
  392THF    H11 7034   1.756   1.186   0.408  0.2279  0.1823 -0.5139
  392THF    H12 7035   1.635   1.266   0.207  1.5193 -0.3695 -0.0807
  392THF    H13 7036   1.537   1.130   0.235  1.9689  0.0808 -3.4934
  393THF     O1 7037   2.197   1.757   2.120 -0.8435  0.0764  0.3251
  393THF     C2 7038   2.138   1.865   2.047  0.4295  0.7002  1.0245
  393THF     C3 7039   2.112   1.676   2.186 -0.4698  0.0218  0.1166
  393THF     H4 7040   2.135   1.827   1.945 -0.6571  1.2819  0.8287
  393THF     H5 7041   2.199   1.955   2.054 -0.2734  1.1351  1.8165
  393THF     H6 7042   2.115   1.574   2.147 -0.2558  0.2161 -0.3797
  393THF     H7 7043   2.139   1.690   2.290 -2.2622  1.3513  0.4678
  393THF     C8 7044   1.971   1.717   2.152 -1.2387  0.0883 -0.2615
  393THF     C9 7045   1.995   1.863   2.116  0.6174 -0.5094 -0.2172
  393THF    H10 7046   1.894   1.696   2.226  0.7488 -1.4521  1.5264
  393THF    H11 7047   1.942   1.661   2.063 -3.8208 -0.2843  0.7462
  393THF    H12 7048   1.902   1.886   2.064 -0.1320  0.0095  1.2767
  393THF    H13 7049   1.999   1.920   2.209  0.1202 -0.2699 -0.3342
  394THF     O1 7050   4.470   4.102   4.765  0.2702 -0.1904  0.8006
  394THF     C2 7051   4.529   3.998   4.840  0.6559  0.9401 -0.1830
  394THF     C3 7052   4.543   4.221   4.789 -0.4520  0.2856  0.1236
  394THF     H4 7053   4.563   3.914   4.779  1.2906  0.3199  0.9859
  394THF     H5 7054   4.453   3.949   4.901  0.7136 -2.5354 -2.6095
  394THF     H6 7055   4.594   4.266   4.703 -0.2650  0.6710  0.4318
  394THF     H7 7056   4.475   4.300   4.821 -2.1387 -0.0112 -2.4538
  394THF     C8 7057   4.631   4.193   4.911 -0.6754  0.2581  0.0772
  394THF     C9 7058   4.652   4.044   4.908 -0.4049 -0.1031 -0.0197
  394THF    H10 7059   4.580   4.211   5.005 -0.1305 -0.2840  0.4881
  394THF    H11 7060   4.728   4.243   4.910  0.5694 -2.0213 -0.7709
  394THF    H12 7061   4.731   4.015   4.839 -1.4153 -1.0255 -0.8362
  394THF    H13 7062   4.664   3.999   5.007 -0.1443 -0.0857 -0.0425
  395THF     O1 7063   4.232   4.154   1.686  0.2380  0.1925 -0.2136
  395THF     C2 7064   4.104   4.132   1.642 -0.2586  0.6281  0.0702
  395THF     C3 7065   4.289   4.037   1.743  0.8293  0.0034  0.3797
  395THF     H4 7066   4.073   4.187   1.553 -0.5085 -0.6611 -0.6802
  395THF     H5 7067   4.039   4.163   1.724 -1.3799 -0.2651 -0.4336
  395THF     H6 7068   4.392   4.019   1.713  1.4211  0.2524  2.1492
  395THF     H7 7069   4.290   4.043   1.851  1.1080  0.1207  0.3718
  395THF     C8 7070   4.214   3.925   1.676  0.0492  0.0578  0.3955
  395THF     C9 7071   4.087   3.982   1.623  0.3514  0.8581  0.1347
  395THF    H10 7072   4.184   3.848   1.747 -1.7455 -0.8033 -1.1826
  395THF    H11 7073   4.269   3.882   1.593 -1.3910 -0.3138 -0.4160
  395THF    H12 7074   4.070   3.943   1.522  0.1835 -1.9690  1.1449
  395THF    H13 7075   4.000   3.952   1.681  1.2786  0.8816  1.5886
  396THF     O1 7076   2.305   3.130   0.638  0.2399  0.3999 -0.0252
  396THF     C2 7077   2.212   3.240   0.631 -0.1230 -0.2221 -0.8677
  396THF     C3 7078   2.340   3.092   0.504  0.2165  0.3039  0.4289
  396THF     H4 7079   2.205   3.289   0.728  0.3049 -1.8471  0.0339
  396THF     H5 7080   2.113   3.195   0.620 -0.7498  0.7879  0.3415
  396THF     H6 7081   2.444   3.063   0.492 -0.1413 -0.3263 -1.6865
  396THF     H7 7082   2.297   2.995   0.479  1.8339 -0.0069 -1.3560
  396THF     C8 7083   2.296   3.214   0.412 -0.4415  0.1640 -0.2204
  396THF     C9 7084   2.255   3.325   0.510 -0.1161  0.1781 -0.1707
  396THF    H10 7085   2.207   3.186   0.355  0.9071 -2.1737 -1.3244
  396THF    H11 7086   2.376   3.241   0.343  0.5171 -0.0253  0.7938
  396THF    H12 7087   2.338   3.394   0.524  1.6158 -1.5467 -1.3628
  396THF    H13 7088   2.171   3.379   0.467  0.1148  1.3988  0.8542
  397THF     O1 7089   4.292   3.371   0.687 -0.4610  0.1419  0.1718
  397THF     C2 7090   4.420   3.377   0.630 -0.0494  0.0810  0.2223
  397THF     C3 7091   4.241   3.500   0.693  0.5011 -0.2315 -0.2776
  397THF     H4 7092   4.408   3.395   0.523  0.7851 -2.3810 -0.3694
  397THF     H5 7093   4.476   3.284   0.647 -1.2280 -1.2274 -2.4285
  397THF     H6 7094   4.211   3.535   0.594 -0.2194  2.2625  0.7399
  397THF     H7 7095   4.161   3.522   0.764  1.5941  2.3002  0.2768
  397THF     C8 7096   4.362   3.591   0.723  0.3882 -0.0250  0.3738
  397THF     C9 7097   4.480   3.495   0.714 -0.3181  0.2038 -0.1155
  397THF    H10 7098   4.352   3.633   0.823 -0.7011 -1.2188  0.8001
  397THF    H11 7099   4.363   3.674   0.653  0.5613 -1.1449 -0.9753
  397THF    H12 7100   4.574   3.534   0.675  2.2497 -0.2798  4.7863
  397THF    H13 7101   4.508   3.461   0.814  3.5901 -1.5073 -1.5638
  398THF     O1 7102   3.241   0.277   2.023 -0.4708 -0.5134 -0.0028
  398THF     C2 7103   3.351   0.202   1.974 -0.3776  0.4946  0.5153
  398THF     C3 7104   3.130   0.235   1.937 -0.2310  0.6793  0.1889
  398THF     H4 7105   3.350   0.096   2.001  1.2831  0.1461 -0.6695
  398THF     H5 7106   3.450   0.232   2.008  0.7665 -1.6351 -0.7051
  398THF     H6 7107   3.115   0.129   1.955  1.3542  0.6034  1.2549
  398THF     H7 7108   3.035   0.284   1.953  0.3809  1.9882 -0.0093
  398THF     C8 7109   3.191   0.249   1.792  0.3645  0.5158 -0.0993
  398THF     C9 7110   3.342   0.217   1.816  0.5129  0.4267 -0.4461
  398THF    H10 7111   3.167   0.349   1.757  0.0500  1.6889  3.1223
  398THF    H11 7112   3.146   0.175   1.725  2.9045 -1.8809  0.6600
  398THF    H12 7113   3.386   0.136   1.758  0.3543  1.6348 -2.3445
  398THF    H13 7114   3.406   0.301   1.786 -0.2542  0.7863 -1.1303
  399THF     O1 7115   0.712   1.816   1.591  0.4383 -0.0084 -0.0534
  399THF     C2 7116   0.687   1.840   1.451 -0.4050 -0.1495 -0.0454
  399THF     C3 7117   0.673   1.928   1.668 -0.0453 -0.4387  0.1254
  399THF     H4 7118   0.633   1.754   1.412 -0.7813 -1.0681  2.3373
  399THF     H5 7119   0.783   1.828   1.401  0.7011  0.0165  1.9140
  399THF     H6 7120   0.568   1.918   1.695 -0.0851 -0.3176  0.0140
  399THF     H7 7121   0.741   1.942   1.752  0.0400 -1.4367  0.2322
  399THF     C8 7122   0.687   2.040   1.565 -0.2767 -0.1704  0.2827
  399THF     C9 7123   0.632   1.978   1.436 -0.2469 -0.0734 -0.0961
  399THF    H10 7124   0.792   2.066   1.551 -0.2612  2.5372  3.9058
  399THF    H11 7125   0.639   2.135   1.587  0.2631  0.0619  0.4766
  399THF    H12 7126   0.525   1.995   1.444 -0.5970 -2.0587 -0.1052
  399THF    H13 7127   0.666   2.035   1.349  0.8046 -1.6663 -0.7665
  400THF     O1 7128   2.395   4.002   4.638  0.1095 -0.3831 -0.3406
  400THF     C2 7129   2.436   4.068   4.518 -0.5056 -0.4771 -0.3923
  400THF     C3 7130   2.450   4.061   4.751  0.4072 -0.2406 -0.3425
  400THF     H4 7131   2.342   4.063   4.462 -1.7616  1.9360  1.3251
  400THF     H5 7132   2.524   4.025   4.471 -0.3346 -2.0101  1.2293
  400THF     H6 7133   2.383   4.041   4.834 -0.3412  0.2447 -0.8209
  400THF     H7 7134   2.549   4.020   4.773  2.1537  4.3175  1.3184
  400THF     C8 7135   2.460   4.214   4.711  0.3734 -0.1763 -0.1694
  400THF     C9 7136   2.477   4.209   4.562 -0.0765  0.3105  0.6795
  400THF    H10 7137   2.533   4.260   4.778 -1.4743  0.4743  1.5153
  400THF    H11 7138   2.367   4.263   4.740  0.5224  0.2193 -0.3562
  400THF    H12 7139   2.415   4.284   4.513 -1.2925 -2.1339 -1.8638
  400THF    H13 7140   2.580   4.220   4.527 -0.1693 -0.3229  0.1791
  401THF     O1 7141   3.307   1.414   1.591  0.3153 -1.1441  0.0601
  401THF     C2 7142   3.396   1.308   1.612  0.0929  0.1065  0.3952
  401THF     C3 7143   3.363   1.498   1.487 -0.4859  0.0024  0.1216
  401THF     H4 7144   3.387   1.221   1.547  0.9133 -0.4772  1.0295
  401THF     H5 7145   3.389   1.274   1.716  0.0266 -0.3463  0.2445
  401THF     H6 7146   3.349   1.437   1.398 -0.8219  0.0852  0.1164
  401THF     H7 7147   3.320   1.598   1.488  1.3184  0.8271 -0.3689
  401THF     C8 7148   3.512   1.502   1.527 -0.2185 -0.6651  0.4802
  401THF     C9 7149   3.534   1.360   1.584  0.2743  0.2410 -0.1828
  401THF    H10 7150   3.530   1.572   1.608  1.5238 -0.8085  0.2372
  401THF    H11 7151   3.580   1.530   1.447  0.1977  0.2558  1.1355
  401THF    H12 7152   3.575   1.303   1.500 -0.1721 -0.3571 -0.0025
  401THF    H13 7153   3.597   1.354   1.673  0.5725  0.9777 -0.3336
  402THF     O1 7154   3.186   3.504   4.273 -0.6535  0.1776 -0.2372
  402THF     C2 7155   3.098   3.481   4.377  0.2549  0.5265 -1.5765
  402THF     C3 7156   3.252   3.633   4.296 -0.5588 -0.0765 -0.4388
  402THF     H4 7157   3.060   3.379   4.385 -1.6716  1.2779 -0.2355
  402THF     H5 7158   3.010   3.546   4.370 -1.7924 -1.9886 -0.7659
  402THF     H6 7159   3.345   3.654   4.245  0.4088  0.1581  1.3336
  402THF     H7 7160   3.183   3.709   4.259  0.6038  0.9318 -0.5707
  402THF     C8 7161   3.256   3.645   4.454 -0.5363  0.5280  1.1271
  402THF     C9 7162   3.179   3.524   4.501 -0.4047 -0.2309  0.4127
  402THF    H10 7163   3.215   3.740   4.489 -0.4683  0.8581  0.3275
  402THF    H11 7164   3.361   3.627   4.479  0.1839 -0.3454 -2.0578
  402THF    H12 7165   3.255   3.451   4.527  1.4094  1.4553  0.0695
  402THF    H13 7166   3.120   3.542   4.591 -2.4054  1.4387 -1.1452
  403THF     O1 7167   4.511   3.911   0.018  0.4349 -0.0227  0.6582
  403THF     C2 7168   4.597   3.956  -0.084 -0.1763  0.2395  0.1710
  403THF     C3 7169   4.484   3.777  -0.005 -1.0593  0.1630  0.6312
  403THF     H4 7170   4.700   3.928  -0.064 -0.1695  1.9687  3.1749
  403THF     H5 7171   4.594   4.065  -0.090 -0.5980  0.1742 -1.2702
  403THF     H6 7172   4.567   3.718   0.033  0.0246 -1.0325 -3.1353
  403THF     H7 7173   4.389   3.745   0.036 -1.8989  0.9972 -0.5803
  403THF     C8 7174   4.466   3.771  -0.155  0.2025 -0.3794  0.1817
  403THF     C9 7175   4.542   3.900  -0.215  0.0024 -0.1782 -0.1711
  403THF    H10 7176   4.364   3.775  -0.192  1.0191 -0.8448 -2.2536
  403THF    H11 7177   4.506   3.673  -0.183  1.0730  0.0892 -0.2542
  403THF    H12 7178   4.619   3.872  -0.287 -0.5288 -3.5129  0.3844
  403THF    H13 7179   4.471   3.964  -0.266  1.1290  0.6674 -0.7368
  404THF     O1 7180   3.688   4.945   0.336  0.1602 -0.2496  0.4873
  404THF     C2 7181   3.619   4.841   0.403  0.6096 -0.0164  0.0853
  404THF     C3 7182   3.678   5.057   0.420  0.0793  0.5095  0.0220
  404THF     H4 7183   3.666   4.790   0.487  1.2358  0.9323  0.3226
  404THF     H5 7184   3.598   4.760   0.334 -2.1161 -1.1323  2.0252
  404THF     H6 7185   3.744   5.043   0.506  0.7095 -0.6579 -0.6282
  404THF     H7 7186   3.689   5.145   0.357  2.4284 -1.3271 -2.3458
  404THF     C8 7187   3.531   5.058   0.485 -0.3762  0.6635 -0.6722
  404THF     C9 7188   3.484   4.911   0.455 -0.3957 -0.4942  0.3827
  404THF    H10 7189   3.465   5.131   0.437 -1.7548  1.2025  1.8433
  404THF    H11 7190   3.537   5.075   0.592  1.7145  0.1854 -0.6859
  404THF    H12 7191   3.434   4.864   0.540  0.7062 -0.3007  1.1519
  404THF    H13 7192   3.416   4.908   0.370 -0.6226 -0.1440  0.5479
  405THF     O1 7193   3.419   0.411   5.361  0.0628  0.0134  0.2746
  405THF     C2 7194   3.283   0.362   5.355  0.3758 -1.0094 -0.1844
  405THF     C3 7195   3.499   0.313   5.302  0.1411 -0.1552 -0.2288
  405THF     H4 7196   3.197   0.427   5.371 -0.9066 -2.7754  0.3422
  405THF     H5 7197   3.275   0.294   5.440  0.5046  0.5203  1.1043
  405THF     H6 7198   3.597   0.352   5.276 -0.5102  1.1366 -0.8269
  405THF     H7 7199   3.510   0.238   5.380 -0.7583  0.7809  0.8367
  405THF     C8 7200   3.417   0.264   5.182 -0.4178  0.0100 -0.5197
  405THF     C9 7201   3.273   0.304   5.214 -0.1245  0.1160 -0.8571
  405THF    H10 7202   3.434   0.159   5.158  1.4430  0.0424  0.4588
  405THF    H11 7203   3.448   0.333   5.103 -1.0277  1.9772  0.8827
  405THF    H12 7204   3.252   0.385   5.144 -0.8582 -0.0806 -0.8677
  405THF    H13 7205   3.202   0.222   5.200  0.5262 -0.5544 -0.3026
  406THF     O1 7206   5.415   3.788   2.931 -0.7664  0.5656  0.0842
  406THF     C2 7207   5.462   3.747   3.056 -0.5279 -0.6583 -0.5027
  406THF     C3 7208   5.414   3.671   2.844 -0.5574 -0.4807 -0.5615
  406THF     H4 7209   5.379   3.702   3.110  1.1405 -2.4574  0.7406
  406THF     H5 7210   5.516   3.825   3.110  0.1716 -0.1290 -1.9034
  406THF     H6 7211   5.309   3.641   2.841 -0.3707 -1.7429  2.3891
  406THF     H7 7212   5.439   3.704   2.743  1.9041  2.4232  0.8333
  406THF     C8 7213   5.496   3.557   2.906  0.4769 -0.1389 -0.0622
  406THF     C9 7214   5.550   3.629   3.026  0.1139 -0.1115  1.0442
  406THF    H10 7215   5.578   3.531   2.840  0.5733  0.2800 -0.1117
  406THF    H11 7216   5.439   3.468   2.931  0.1593 -0.2287 -1.0657
  406THF    H12 7217   5.561   3.563   3.112  1.3132 -0.1586  0.8756
  406THF    H13 7218   5.653   3.665   3.017 -0.1774  0.7751  1.1440
  407THF     O1 7219   4.599   0.737   3.733  0.8069 -0.4579 -0.2732
  407THF     C2 7220   4.618   0.604   3.776  0.6730 -0.0355 -0.1633
  407THF     C3 7221   4.535   0.729   3.610  0.2295 -0.3034  0.2095
  407THF     H4 7222   4.522   0.589   3.826 -0.3682  1.2970 -1.6790
  407THF     H5 7223   4.703   0.605   3.844  0.1827  0.9624  0.4640
  407THF     H6 7224   4.432   0.699   3.625 -0.6870  1.4961 -1.8799
  407THF     H7 7225   4.544   0.832   3.574 -1.1551 -0.0589  0.5101
  407THF     C8 7226   4.612   0.627   3.535 -0.7153 -0.1341  0.0427
  407THF     C9 7227   4.658   0.530   3.646  0.2734  0.6862 -0.4177
  407THF    H10 7228   4.705   0.665   3.493 -0.6512  2.3450  2.1394
  407THF    H11 7229   4.557   0.586   3.450 -0.6716 -0.3886  0.1368
  407THF    H12 7230   4.610   0.434   3.628  0.4019  0.9219 -2.2193
  407THF    H13 7231   4.763   0.502   3.636  0.0393  0.2439 -1.8743
  408THF     O1 7232   4.595   5.274   1.501 -0.1788 -0.3953 -0.7282
  408THF     C2 7233   4.584   5.137   1.562  0.1419  0.5480  0.1897
  408THF     C3 7234   4.497   5.360   1.561 -0.5124 -0.2669  0.2106
  408THF     H4 7235   4.690   5.123   1.584 -0.1518 -2.7476 -0.0978
  408THF     H5 7236   4.557   5.069   1.482 -1.8817  1.6138 -0.0999
  408THF     H6 7237   4.538   5.461   1.561  2.5586 -1.3563  2.5768
  408THF     H7 7238   4.398   5.368   1.516 -0.4483  1.5209  0.3103
  408THF     C8 7239   4.491   5.316   1.705 -0.1359  0.6013  0.1948
  408THF     C9 7240   4.494   5.164   1.689 -0.1551  0.2264 -0.5385
  408THF    H10 7241   4.404   5.340   1.767 -0.2720 -0.6915  0.5470
  408THF    H11 7242   4.578   5.348   1.761  2.0188 -0.7892 -2.1509
  408THF    H12 7243   4.542   5.110   1.770 -0.7206  2.8556  1.7233
  408THF    H13 7244   4.393   5.126   1.678 -0.0026 -0.8809  1.5665
  409THF     O1 7245   3.236   2.900   0.710 -0.5298 -0.2489  0.9461
  409THF     C2 7246   3.295   2.880   0.588 -0.3761  0.3344 -0.1829
  409THF     C3 7247   3.337   2.895   0.802  0.4378  0.2933  0.4902
  409THF     H4 7248   3.340   2.972   0.552 -1.4754  0.8150 -0.3699
  409THF     H5 7249   3.227   2.840   0.512  0.4289  1.8563 -1.7685
  409THF     H6 7250   3.398   2.984   0.785  0.8372 -0.3928 -2.0970
  409THF     H7 7251   3.291   2.896   0.901 -2.3021  3.4867 -0.6212
  409THF     C8 7252   3.420   2.771   0.755 -0.3193  0.3445 -0.3728
  409THF     C9 7253   3.406   2.774   0.604 -0.5925 -0.6476  0.1905
  409THF    H10 7254   3.367   2.686   0.797  1.3342  0.6613  2.6699
  409THF    H11 7255   3.522   2.776   0.795 -0.2231  0.4752 -0.6304
  409THF    H12 7256   3.498   2.798   0.551  0.4905  1.0088  2.6184
  409THF    H13 7257   3.382   2.673   0.573 -0.5998 -0.8738  0.8955
  410THF     O1 7258   1.982   1.549   3.740  0.1698 -0.0241  0.0814
  410THF     C2 7259   2.117   1.496   3.762 -0.9809 -0.1622  0.6240
  410THF     C3 7260   1.971   1.617   3.619 -0.4172  0.6712  0.1540
  410THF     H4 7261   2.108   1.391   3.788  1.2316 -0.7684 -0.7420
  410THF     H5 7262   2.181   1.547   3.835 -0.2760  1.4322 -1.0173
  410THF     H6 7263   1.867   1.609   3.585 -0.7299  0.4551  1.1303
  410THF     H7 7264   1.995   1.718   3.651  2.0761  0.3836 -0.6134
  410THF     C8 7265   2.073   1.550   3.527 -0.4044 -0.1713 -0.5272
  410THF     C9 7266   2.188   1.504   3.621  0.0093 -0.2175 -0.0511
  410THF    H10 7267   2.115   1.623   3.458  0.1023 -0.5694 -0.6485
  410THF    H11 7268   2.027   1.466   3.475  0.1835 -1.2089  0.5844
  410THF    H12 7269   2.236   1.412   3.589  0.4861  0.5611 -1.6520
  410THF    H13 7270   2.263   1.582   3.608  1.0102 -1.3654 -1.5175
  411THF     O1 7271   3.153   4.498   2.043 -0.1308  0.0416  0.1651
  411THF     C2 7272   3.252   4.401   2.024 -0.3350  0.3209  0.5882
  411THF     C3 7273   3.167   4.554   2.169 -0.6259 -0.7078 -0.2083
  411THF     H4 7274   3.338   4.461   1.993 -0.3968  1.0835  1.8095
  411THF     H5 7275   3.222   4.333   1.945 -0.3891 -0.7413  1.5083
  411THF     H6 7276   3.253   4.618   2.152 -0.3350 -0.9288  0.4048
  411THF     H7 7277   3.081   4.607   2.210  0.4631  0.7902  0.2093
  411THF     C8 7278   3.199   4.444   2.259  0.1626 -0.5505 -0.7258
  411THF     C9 7279   3.269   4.343   2.166  0.7075  0.3348  0.3016
  411THF    H10 7280   3.113   4.404   2.311  1.6641  0.4357  2.8260
  411THF    H11 7281   3.260   4.479   2.343 -0.3798 -2.9712  0.7580
  411THF    H12 7282   3.376   4.336   2.186  0.2785  1.2381  3.5185
  411THF    H13 7283   3.219   4.246   2.165  0.2139  0.5766 -1.3485
  412THF     O1 7284   1.048   0.309   5.415 -0.2168  0.0381  0.3484
  412THF     C2 7285   0.981   0.429   5.437 -0.2040 -0.5881  0.5938
  412THF     C3 7286   1.129   0.277   5.523 -0.1893  0.1527 -0.3962
  412THF     H4 7287   0.900   0.396   5.501  0.0848  0.8567  1.7585
  412THF     H5 7288   0.944   0.465   5.341 -1.0809  0.0675  1.1625
  412THF     H6 7289   1.083   0.219   5.603  0.7046 -0.1261 -0.0720
  412THF     H7 7290   1.206   0.215   5.476 -1.6721 -2.0830 -0.0457
  412THF     C8 7291   1.177   0.415   5.569  0.0358 -0.2594 -0.1202
  412THF     C9 7292   1.077   0.514   5.519 -0.1832  0.7257  0.0433
  412THF    H10 7293   1.276   0.435   5.527  0.4906  0.7952  1.3544
  412THF    H11 7294   1.179   0.407   5.678  0.5760 -0.7856 -0.1655
  412THF    H12 7295   1.025   0.568   5.598  0.9102  1.3797  0.3416
  412THF    H13 7296   1.123   0.590   5.457  0.6485  0.5767  0.4651
  413THF     O1 7297   5.013   0.464   2.949  0.5025  0.0371  0.5161
  413THF     C2 7298   5.013   0.346   3.030  0.2365  0.1759  0.2364
  413THF     C3 7299   5.018   0.579   3.031  0.0021  0.6503 -0.5109
  413THF     H4 7300   5.112   0.303   3.041  0.2375  0.4126  1.2383
  413THF     H5 7301   4.952   0.266   2.989 -0.0320  0.4373  0.1188
  413THF     H6 7302   5.120   0.598   3.064  0.3270  3.9213 -2.9154
  413THF     H7 7303   4.977   0.666   2.978  0.5041  0.6212 -0.9497
  413THF     C8 7304   4.923   0.535   3.136  0.5781 -0.4748  0.7124
  413THF     C9 7305   4.952   0.391   3.162  0.1326  0.1149  1.1442
  413THF    H10 7306   4.821   0.529   3.097  1.1851 -2.5773 -0.7249
  413THF    H11 7307   4.933   0.595   3.226 -2.6068  0.1246  0.8145
  413THF    H12 7308   5.042   0.374   3.221  0.0641 -3.1596  0.4843
  413THF    H13 7309   4.870   0.331   3.202 -1.0592  0.2616 -0.9085
  414THF     O1 7310   4.597   4.333   3.011 -0.2336  0.3760 -0.2818
  414THF     C2 7311   4.612   4.242   2.905 -0.0507 -0.5666  0.6714
  414THF     C3 7312   4.630   4.465   2.964 -0.0248  0.3114 -0.6780
  414THF     H4 7313   4.513   4.240   2.860  0.8126 -2.6434 -1.3325
  414THF     H5 7314   4.643   4.142   2.936  1.1884 -0.8864 -1.4357
  414THF     H6 7315   4.545   4.503   2.907 -2.0327 -0.4615  1.6523
  414THF     H7 7316   4.666   4.543   3.032  1.6192 -0.2036 -0.8989
  414THF     C8 7317   4.755   4.440   2.873  0.0010 -0.1351 -0.4305
  414THF     C9 7318   4.726   4.302   2.817 -0.4276 -0.4854 -0.2857
  414THF    H10 7319   4.854   4.449   2.919 -0.9830 -0.6077  1.9178
  414THF    H11 7320   4.756   4.515   2.794  2.3863  0.5010  0.1109
  414THF    H12 7321   4.691   4.306   2.713 -2.0334 -1.5480  0.1859
  414THF    H13 7322   4.815   4.241   2.831  0.2968  0.6084  0.0070
  415THF     O1 7323   4.519   1.261   3.433 -0.0508 -0.5202  0.6015
  415THF     C2 7324   4.432   1.370   3.478  0.4757  0.0379 -0.3084
  415THF     C3 7325   4.564   1.206   3.554  0.1033 -0.1792 -0.7290
  415THF     H4 7326   4.345   1.346   3.540  1.2093 -0.4949  0.5342
  415THF     H5 7327   4.391   1.434   3.399  2.4384  1.8864  0.0999
  415THF     H6 7328   4.484   1.141   3.589  1.5444 -1.2999  0.6449
  415THF     H7 7329   4.647   1.137   3.539  0.0740 -0.6896  1.2170
  415THF     C8 7330   4.594   1.328   3.648  0.1369  0.1366 -0.5438
  415THF     C9 7331   4.537   1.444   3.563 -0.4743 -0.2202  0.2176
  415THF    H10 7332   4.696   1.350   3.680 -1.0468  0.2302  3.8017
  415THF    H11 7333   4.539   1.304   3.738  2.2625 -2.7859  0.1042
  415THF    H12 7334   4.497   1.529   3.618 -0.7051 -0.8214  0.9963
  415THF    H13 7335   4.599   1.479   3.480 -0.9272 -1.6591 -0.7705
  416THF     O1 7336   3.178   1.327   2.562 -0.3873  0.2628 -0.1251
  416THF     C2 7337   3.175   1.375   2.700  0.2113  0.4601  0.4671
  416THF     C3 7338   3.039   1.284   2.537  0.7808  0.2530  0.4005
  416THF     H4 7339   3.266   1.415   2.745 -1.0661  2.7162  1.1958
  416THF     H5 7340   3.170   1.287   2.764  3.2217 -0.2377 -0.0623
  416THF     H6 7341   3.022   1.284   2.430  1.3350  1.6144  0.2924
  416THF     H7 7342   3.029   1.185   2.580 -0.5795 -0.1058 -0.6600
  416THF     C8 7343   2.951   1.387   2.618 -0.1953 -0.6945 -0.3160
  416THF     C9 7344   3.043   1.451   2.715 -0.2592 -0.1820  0.0254
  416THF    H10 7345   2.880   1.336   2.683 -0.8786  1.0938  0.3987
  416THF    H11 7346   2.890   1.452   2.554  0.2059  0.6885  0.6623
  416THF    H12 7347   3.063   1.555   2.687  0.5821 -0.4030 -0.2360
  416THF    H13 7348   3.008   1.457   2.818  2.4003  1.5472  0.9539
  417THF     O1 7349   2.953   3.051   4.678  0.4215 -0.0697  0.1076
  417THF     C2 7350   2.906   3.100   4.801  0.2252 -0.7418  0.4894
  417THF     C3 7351   3.036   3.149   4.631 -0.0252 -0.8039  0.5511
  417THF     H4 7352   2.975   3.105   4.886  0.3982  3.6127  0.3576
  417THF     H5 7353   2.820   3.039   4.828  0.2229 -0.3497  1.4165
  417THF     H6 7354   3.133   3.150   4.681  0.8682 -0.6042 -1.1411
  417THF     H7 7355   3.058   3.124   4.528  0.1845  0.7568  0.2044
  417THF     C8 7356   2.953   3.277   4.658  1.0191 -0.3960  0.1531
  417THF     C9 7357   2.862   3.239   4.776 -0.9614 -0.2884  0.5688
  417THF    H10 7358   2.891   3.306   4.572  0.3041 -2.4808 -0.0774
  417THF    H11 7359   3.011   3.361   4.695 -0.2442  2.2630 -3.3294
  417THF    H12 7360   2.867   3.307   4.861 -0.3015 -0.2888  0.5364
  417THF    H13 7361   2.761   3.228   4.738 -0.2401 -2.5260 -0.9078
  418THF     O1 7362   2.728   3.119   3.340  0.3260 -0.7350 -0.0994
  418THF     C2 7363   2.838   3.173   3.410 -0.0697  0.3612  0.5481
  418THF     C3 7364   2.623   3.222   3.346 -0.8731  0.2132  0.0624
  418THF     H4 7365   2.898   3.222   3.333  1.2060 -2.2234 -0.2492
  418THF     H5 7366   2.898   3.095   3.458  0.2532  0.4699  0.3273
  418THF     H6 7367   2.651   3.296   3.271  0.3975  1.4854  1.7166
  418THF     H7 7368   2.525   3.181   3.319 -0.5204 -0.0592 -0.8674
  418THF     C8 7369   2.638   3.296   3.474  0.2541 -0.2484  0.1530
  418THF     C9 7370   2.780   3.265   3.515  0.5207 -0.2562  0.5354
  418THF    H10 7371   2.566   3.242   3.537 -0.8564 -1.1633 -1.8249
  418THF    H11 7372   2.601   3.398   3.462 -1.5706 -0.9602 -0.5583
  418THF    H12 7373   2.836   3.350   3.555 -0.4460 -0.7066  3.0126
  418THF    H13 7374   2.769   3.206   3.606 -2.3124 -0.6192  0.0575
  419THF     O1 7375   1.695   2.452   1.203 -0.0253 -0.5676  0.1196
  419THF     C2 7376   1.559   2.478   1.246 -0.2555  0.4492 -0.0929
  419THF     C3 7377   1.768   2.577   1.182  0.2818 -0.2601  0.3608
  419THF     H4 7378   1.564   2.512   1.349  0.1567  0.4474 -0.1096
  419THF     H5 7379   1.494   2.392   1.231 -0.3700  0.2837  1.2030
  419THF     H6 7380   1.799   2.637   1.268  1.5483 -0.9391  0.4036
  419THF     H7 7381   1.863   2.558   1.131  0.3707 -5.0597  1.7661
  419THF     C8 7382   1.664   2.657   1.108  0.2700  0.8241  0.0948
  419THF     C9 7383   1.535   2.590   1.146 -0.1162  1.1615 -0.1803
  419THF    H10 7384   1.693   2.649   1.003  1.6898  1.8774  0.3731
  419THF    H11 7385   1.667   2.762   1.136 -1.9514  1.1413 -0.6840
  419THF    H12 7386   1.451   2.639   1.195 -0.6163  0.3626 -0.2131
  419THF    H13 7387   1.514   2.533   1.056  2.6210  1.3296 -1.0216
  420THF     O1 7388   3.751   1.366   4.791 -0.0673 -0.0321 -0.0272
  420THF     C2 7389   3.709   1.342   4.663  0.5880  0.4531 -0.3205
  420THF     C3 7390   3.861   1.456   4.782 -0.1631 -0.3011  0.5255
  420THF     H4 7391   3.610   1.299   4.654 -0.1048  2.2503 -2.2502
  420THF     H5 7392   3.779   1.269   4.623 -0.7989 -0.8280 -0.4752
  420THF     H6 7393   3.902   1.496   4.875 -1.2000  1.2559  0.3456
  420THF     H7 7394   3.941   1.401   4.732 -0.6551  0.0869 -0.7228
  420THF     C8 7395   3.799   1.554   4.690 -0.3930 -0.8871 -0.1505
  420THF     C9 7396   3.724   1.476   4.594 -0.0574 -0.4030  0.2916
  420THF    H10 7397   3.874   1.612   4.635 -2.8740  1.2608 -1.5150
  420THF    H11 7398   3.727   1.621   4.736 -1.7644  1.4310 -5.0184
  420THF    H12 7399   3.629   1.525   4.571 -0.9011 -1.0518  2.1873
  420THF    H13 7400   3.781   1.465   4.502 -1.3439  1.4157 -0.8092
  421THF     O1 7401   0.979   4.439   3.530 -0.1040 -0.4061  0.6738
  421THF     C2 7402   1.026   4.374   3.416 -0.2145  0.9196  0.5545
  421THF     C3 7403   1.068   4.418   3.639  0.1886 -0.3293 -0.2806
  421THF     H4 7404   1.023   4.434   3.325  0.3566  1.1616  0.6883
  421THF     H5 7405   0.989   4.273   3.400  0.0518  0.6376  1.6171
  421THF     H6 7406   1.118   4.512   3.660 -1.8972  1.3358 -2.2495
  421THF     H7 7407   1.002   4.384   3.719 -3.1154  1.2511 -2.1010
  421THF     C8 7408   1.176   4.312   3.593 -1.0641  0.4598 -0.8305
  421THF     C9 7409   1.176   4.351   3.444  0.6507  0.5321  0.3987
  421THF    H10 7410   1.152   4.207   3.611 -1.0869  0.9496  2.6126
  421THF    H11 7411   1.274   4.333   3.635 -1.6614  0.8632  0.4238
  421THF    H12 7412   1.223   4.448   3.425 -0.5368  1.0088 -0.1955
  421THF    H13 7413   1.214   4.283   3.368  0.7881 -1.8593  2.4790
  422THF     O1 7414   4.114   0.428   1.995  0.4293  0.3760 -0.0904
  422THF     C2 7415   4.025   0.392   2.099 -0.0965  0.6600  0.0106
  422THF     C3 7416   4.047   0.514   1.904  0.3231  0.0835 -0.3223
  422THF     H4 7417   4.080   0.375   2.191 -1.0884  3.0458  1.1455
  422THF     H5 7418   3.971   0.298   2.090  1.7572 -0.4481  0.0466
  422THF     H6 7419   4.129   0.586   1.897  0.1918  0.2225 -0.4493
  422THF     H7 7420   4.019   0.479   1.805 -1.8100  2.2231 -0.5606
  422THF     C8 7421   3.939   0.572   1.984 -0.1828 -0.7215  0.6469
  422THF     C9 7422   3.949   0.518   2.130  0.5201 -0.5305  0.1619
  422THF    H10 7423   3.850   0.531   1.935 -1.0869  2.4896 -0.6656
  422THF    H11 7424   3.918   0.677   1.964 -0.0920 -0.6736  0.8031
  422THF    H12 7425   4.009   0.591   2.185 -1.0521  0.8107  0.2004
  422THF    H13 7426   3.848   0.517   2.172  1.5808  0.0249  2.9603
  423THF     O1 7427   3.822   2.159   5.213  0.3924  0.2378  0.1058
  423THF     C2 7428   3.931   2.242   5.241 -0.4395 -0.7997  0.3377
  423THF     C3 7429   3.727   2.231   5.138  0.5659  0.1012  0.3938
  423THF     H4 7430   4.000   2.245   5.157 -0.4475  0.9126  0.3529
  423THF     H5 7431   3.988   2.218   5.331  2.7593  0.1662 -1.2880
  423THF     H6 7432   3.721   2.179   5.042  0.5827 -0.8841  0.9105
  423THF     H7 7433   3.628   2.211   5.181  0.6076  0.8840  0.8719
  423THF     C8 7434   3.768   2.371   5.139  0.0949  0.1510  0.3248
  423THF     C9 7435   3.874   2.384   5.244  0.4243 -0.2013 -0.1670
  423THF    H10 7436   3.682   2.437   5.142 -0.1943 -0.2152  0.1738
  423THF    H11 7437   3.816   2.392   5.043  0.6801  0.4801  0.6802
  423THF    H12 7438   3.951   2.459   5.223 -1.5127  1.8092 -0.3968
  423THF    H13 7439   3.821   2.409   5.335  1.3333  1.3031 -0.0033
  424THF     O1 7440   3.155   4.937   2.143 -0.4881  0.2570 -0.2091
  424THF     C2 7441   3.251   4.959   2.041 -0.2096  0.0234 -0.1304
  424THF     C3 7442   3.034   4.901   2.081  0.4681  0.1234 -0.4879
  424THF     H4 7443   3.349   4.941   2.085 -1.2558 -3.0877  1.1817
  424THF     H5 7444   3.241   5.064   2.013 -2.2191  0.0449  0.4998
  424THF     H6 7445   3.001   4.805   2.120 -1.8964  0.7009 -0.9118
  424THF     H7 7446   2.949   4.966   2.102  0.6407  0.8398 -1.9321
  424THF     C8 7447   3.064   4.884   1.927 -0.1333 -0.4524 -0.3548
  424THF     C9 7448   3.213   4.867   1.934  0.3149  0.1544  0.0159
  424THF    H10 7449   3.029   4.978   1.886 -0.9088 -0.4158  0.3830
  424THF    H11 7450   3.006   4.801   1.887  0.1909 -0.4414 -0.8732
  424THF    H12 7451   3.248   4.765   1.951  1.8158  0.5543 -0.5837
  424THF    H13 7452   3.263   4.890   1.841 -0.7047 -1.0269 -0.8639
  425THF     O1 7453   2.629   3.942   1.232 -0.2120 -0.0333 -0.2507
  425THF     C2 7454   2.734   3.877   1.168  0.4278  0.7055  0.0643
  425THF     C3 7455   2.535   3.962   1.123 -0.0856  0.2437 -0.3286
  425THF     H4 7456   2.696   3.777   1.145  2.1407  0.4102 -1.7858
  425THF     H5 7457   2.828   3.864   1.222  1.1550 -1.8690 -1.5972
  425THF     H6 7458   2.473   3.876   1.100  1.0976 -0.4646 -0.9974
  425THF     H7 7459   2.472   4.046   1.152 -1.0822 -0.3099 -0.8645
  425THF     C8 7460   2.621   4.004   1.000  0.0366 -0.0475 -0.5158
  425THF     C9 7461   2.746   3.935   1.031 -0.1012  0.1059 -0.6150
  425THF    H10 7462   2.634   4.112   0.996 -0.0952  0.0351  0.8355
  425THF    H11 7463   2.576   3.962   0.910  0.4886  0.0929 -0.8125
  425THF    H12 7464   2.768   3.857   0.958 -0.1394  0.5687 -1.1271
  425THF    H13 7465   2.831   4.001   1.042 -1.6607  2.3818 -1.4270
  426THF     O1 7466   1.555   3.885   4.801  0.4286 -0.0357  0.0032
  426THF     C2 7467   1.618   3.853   4.675 -0.4310 -0.0280  0.0477
  426THF     C3 7468   1.421   3.925   4.770  0.2822 -0.3638 -0.4021
  426THF     H4 7469   1.620   3.745   4.664  0.0632 -0.1838  1.3781
  426THF     H5 7470   1.720   3.889   4.662 -0.4519 -0.1203 -0.3831
  426THF     H6 7471   1.349   3.845   4.755 -0.6252  0.2269  0.6247
  426THF     H7 7472   1.364   3.992   4.835 -2.7123 -0.0721 -3.0693
  426THF     C8 7473   1.441   4.005   4.644 -0.1028  0.3548 -0.5085
  426THF     C9 7474   1.534   3.922   4.563 -0.3508 -0.6018 -0.4128
  426THF    H10 7475   1.488   4.097   4.677 -1.4223  0.8968 -0.0742
  426THF    H11 7476   1.354   4.046   4.593  1.5384  2.5802 -1.6828
  426THF    H12 7477   1.473   3.846   4.514 -0.3655 -0.1156 -1.1714
  426THF    H13 7478   1.596   3.968   4.487 -3.2361  0.3918 -2.3615
  427THF     O1 7479   0.519   3.567   2.175  0.8294  0.0936  0.5005
  427THF     C2 7480   0.570   3.634   2.065 -0.2311 -0.0395  0.5187
  427THF     C3 7481   0.553   3.427   2.159 -0.4063 -0.0136 -0.8447
  427THF     H4 7482   0.676   3.658   2.075 -0.2247 -0.7334  2.7116
  427THF     H5 7483   0.520   3.730   2.051  0.8268  0.7999  2.1480
  427THF     H6 7484   0.660   3.412   2.171 -0.3396  1.5880  1.1150
  427THF     H7 7485   0.495   3.361   2.224 -1.2155  1.2991 -0.1971
  427THF     C8 7486   0.516   3.405   2.013 -0.8214 -0.0124 -0.0552
  427THF     C9 7487   0.555   3.540   1.944  0.2647  0.7328  0.5079
  427THF    H10 7488   0.409   3.391   2.001 -0.6773  0.7473 -2.7623
  427THF    H11 7489   0.555   3.312   1.973 -2.9060 -1.9647  2.1441
  427THF    H12 7490   0.649   3.547   1.890 -0.4321  0.4474 -0.7869
  427THF    H13 7491   0.487   3.570   1.864  3.2925  0.8114 -2.2349
  428THF     O1 7492   4.887   2.278   4.042 -1.1592  0.9361  0.0733
  428THF     C2 7493   4.907   2.171   4.134 -0.0287  0.2607 -0.3662
  428THF     C3 7494   4.862   2.387   4.132  0.0026 -0.0637  0.2237
  428THF     H4 7495   4.951   2.084   4.085  1.5954 -0.1970  1.7642
  428THF     H5 7496   4.807   2.146   4.171 -0.1029  0.3075 -0.5332
  428THF     H6 7497   4.890   2.482   4.086  0.2522 -0.1814  0.1323
  428THF     H7 7498   4.755   2.390   4.151 -0.3497 -0.7270 -1.4325
  428THF     C8 7499   4.947   2.376   4.262 -0.0128  0.0743 -0.5708
  428THF     C9 7500   4.992   2.228   4.245 -0.0779 -0.5440  0.3907
  428THF    H10 7501   4.875   2.395   4.342  0.3549  2.0459 -0.6717
  428THF    H11 7502   5.035   2.439   4.278  0.3266 -1.0569  2.8226
  428THF    H12 7503   5.100   2.219   4.232 -0.0086 -0.1500  0.6586
  428THF    H13 7504   4.971   2.174   4.338  1.0642 -1.3176  0.2337
  429THF     O1 7505   0.780   3.638   1.291 -0.2791  0.2393 -0.5010
  429THF     C2 7506   0.803   3.771   1.327 -0.1913 -0.2604 -0.0570
  429THF     C3 7507   0.695   3.589   1.388  0.0558  0.9893  0.2254
  429THF     H4 7508   0.843   3.829   1.245  2.4225 -0.3511  1.0458
  429THF     H5 7509   0.883   3.774   1.402 -1.7147 -0.0458  1.6209
  429THF     H6 7510   0.631   3.511   1.348  1.0038  1.1474 -1.7015
  429THF     H7 7511   0.742   3.542   1.474 -0.7995 -0.3814 -0.0401
  429THF     C8 7512   0.602   3.703   1.433 -0.3852  0.5037 -0.2655
  429THF     C9 7513   0.676   3.832   1.390 -0.1993 -0.3487 -0.1241
  429THF    H10 7514   0.583   3.706   1.541  0.5459  1.3491 -0.1102
  429THF    H11 7515   0.511   3.712   1.374 -1.1990 -0.7519  0.7398
  429THF    H12 7516   0.620   3.880   1.310 -0.5824 -0.4603  0.0722
  429THF    H13 7517   0.702   3.897   1.474 -5.5148 -0.9980  2.4163
  430THF     O1 7518   4.951   3.156   3.050  0.0834  0.1629  0.0328
  430THF     C2 7519   5.078   3.093   3.082  0.0899 -0.6604  0.0517
  430THF     C3 7520   4.959   3.292   3.084  0.4650  0.2369  0.1486
  430THF     H4 7521   5.084   3.002   3.021 -0.1732  1.8572 -4.1170
  430THF     H5 7522   5.089   3.077   3.189  0.3946 -0.1607  0.0950
  430THF     H6 7523   4.896   3.342   3.010  2.1657  0.3688 -1.2930
  430THF     H7 7524   4.921   3.314   3.183  2.1587  0.2909  0.8167
  430THF     C8 7525   5.108   3.328   3.067 -0.0913  0.3970 -0.3752
  430THF     C9 7526   5.172   3.196   3.028 -0.3508 -0.1479  0.1938
  430THF    H10 7527   5.154   3.370   3.157 -0.9602  0.6220 -0.0244
  430THF    H11 7528   5.129   3.397   2.985  1.3770  0.8633  0.3479
  430THF    H12 7529   5.184   3.178   2.921  0.5033 -0.6854  0.3697
  430THF    H13 7530   5.269   3.182   3.076 -0.2816 -0.0671  0.0749
  431THF     O1 7531   1.069   0.582   3.045  0.2469 -0.5144  0.6593
  431THF     C2 7532   1.115   0.705   3.097 -0.3538 -0.3326  0.5396
  431THF     C3 7533   1.160   0.538   2.949 -0.4931  0.2843 -0.0173
  431THF     H4 7534   1.194   0.695   3.172 -0.6261 -0.5761  0.7961
  431THF     H5 7535   1.040   0.748   3.163  0.3834 -0.9215  1.7906
  431THF     H6 7536   1.244   0.480   2.988 -0.0488  1.0712  0.2340
  431THF     H7 7537   1.109   0.473   2.878  1.3252 -1.7153  0.3816
  431THF     C8 7538   1.220   0.669   2.883  0.6213 -0.4022 -0.1647
  431THF     C9 7539   1.172   0.783   2.972 -0.1937  0.6492 -0.2888
  431THF    H10 7540   1.188   0.688   2.781  0.0965 -1.8505 -0.2982
  431THF    H11 7541   1.328   0.657   2.872  0.6317 -0.3314 -0.1422
  431THF    H12 7542   1.246   0.860   2.992 -0.8342  1.2447 -0.1446
  431THF    H13 7543   1.098   0.837   2.913 -0.1518  0.5839 -0.3989
  432THF     O1 7544   4.433   0.430   1.071 -0.1702 -0.0410  0.4219
  432THF     C2 7545   4.308   0.351   1.072 -0.6478  0.3092 -0.1011
  432THF     C3 7546   4.484   0.416   1.198  0.4333 -0.4306 -0.5072
  432THF     H4 7547   4.287   0.339   0.966  0.3497 -0.5660 -0.2164
  432THF     H5 7548   4.222   0.403   1.114 -1.6275 -0.1647 -1.4483
  432THF     H6 7549   4.586   0.455   1.196  1.0314 -1.9196 -1.0313
  432THF     H7 7550   4.422   0.469   1.270  2.0551  0.2877  0.4120
  432THF     C8 7551   4.476   0.264   1.209 -0.3993 -0.2167 -0.4404
  432THF     C9 7552   4.342   0.223   1.158  0.5474 -0.3968 -0.4574
  432THF    H10 7553   4.500   0.241   1.313  0.1775  3.4976  0.3852
  432THF    H11 7554   4.549   0.224   1.139  0.7923  1.2735 -0.1177
  432THF    H12 7555   4.351   0.123   1.115  2.5905  0.4208 -2.1070
  432THF    H13 7556   4.267   0.224   1.238 -1.1482 -1.1767 -1.9673
  433THF     O1 7557   1.717   3.592   3.343 -0.2278 -0.0532 -0.0091
  433THF     C2 7558   1.624   3.493   3.370  0.2107  0.3726 -0.2242
  433THF     C3 7559   1.840   3.524   3.322  0.3572 -0.2073 -0.0145
  433THF     H4 7560   1.588   3.452   3.275  1.9404 -0.0618 -0.7131
  433THF     H5 7561   1.542   3.536   3.428 -0.4780  0.8430 -1.5100
  433THF     H6 7562   1.837   3.452   3.240 -0.2866 -0.1225 -0.0681
  433THF     H7 7563   1.926   3.591   3.311  0.5503 -0.1659  1.5314
  433THF     C8 7564   1.849   3.429   3.437 -0.5452  0.1073 -0.2320
  433THF     C9 7565   1.705   3.393   3.455 -0.2752 -0.0503  0.3285
  433THF    H10 7566   1.882   3.481   3.527 -1.4609 -1.7837  1.2651
  433THF    H11 7567   1.913   3.344   3.416  0.9839  1.9533 -3.8819
  433THF    H12 7568   1.686   3.288   3.435 -0.3956 -0.8093  3.7514
  433THF    H13 7569   1.676   3.403   3.560  0.5736 -1.6655  0.7476
  434THF     O1 7570   1.774   0.041   3.881  0.4043  0.6467 -0.3113
  434THF     C2 7571   1.904   0.021   3.826 -0.9731  0.5224 -0.7969
  434THF     C3 7572   1.714   0.147   3.811  0.2887  0.0634 -0.6268
  434THF     H4 7573   1.936  -0.079   3.855 -0.2415  0.9030 -0.2640
  434THF     H5 7574   1.974   0.091   3.870  2.1647 -3.2619  0.8093
  434THF     H6 7575   1.606   0.143   3.827  0.4085  1.4523  0.7760
  434THF     H7 7576   1.731   0.246   3.852 -1.0125 -0.3966  1.1592
  434THF     C8 7577   1.763   0.133   3.666  0.3227  0.1375 -0.0319
  434THF     C9 7578   1.887   0.039   3.675 -0.5354 -0.5495  0.8347
  434THF    H10 7579   1.782   0.229   3.617 -0.2980  0.9575  1.2699
  434THF    H11 7580   1.685   0.087   3.605 -0.0467  0.4526  0.1988
  434THF    H12 7581   1.870  -0.052   3.617  1.0943 -0.4635  0.1668
  434THF    H13 7582   1.973   0.095   3.638 -0.6054  0.1904  1.7665
  435THF     O1 7583   5.047   1.584   1.406  0.4805 -0.2357  0.3359
  435THF     C2 7584   5.027   1.452   1.363  0.1057  0.4405  0.0353
  435THF     C3 7585   5.156   1.644   1.339 -0.2431  0.3937 -0.1458
  435THF     H4 7586   4.983   1.449   1.263  2.2507  1.3858 -1.0094
  435THF     H5 7587   4.972   1.398   1.439  1.8767 -1.6375 -0.0781
  435THF     H6 7588   5.124   1.684   1.244 -1.5933  1.8931  0.8993
  435THF     H7 7589   5.179   1.735   1.395 -4.9242  0.5923  1.8993
  435THF     C8 7590   5.252   1.524   1.330 -0.4872  0.5255  0.6944
  435THF     C9 7591   5.165   1.404   1.352  0.2152  0.1887 -0.5580
  435THF    H10 7592   5.329   1.532   1.406  0.7372 -3.4759  0.1154
  435THF    H11 7593   5.295   1.524   1.230  0.5593 -2.4202  1.0473
  435THF    H12 7594   5.168   1.325   1.278 -1.2835 -1.0631  0.6478
  435THF    H13 7595   5.202   1.370   1.449 -0.9128  0.2404 -0.0917
  436THF     O1 7596   4.871   2.326   3.560 -0.0247  1.0529 -0.0021
  436THF     C2 7597   4.860   2.317   3.698 -0.4073 -0.4891 -0.1579
  436THF     C3 7598   4.963   2.439   3.538  0.8445  0.7715 -0.5724
  436THF     H4 7599   4.824   2.218   3.723 -0.0237 -0.3826  0.8452
  436THF     H5 7600   4.797   2.394   3.743  0.9106  0.1815  0.6187
  436THF     H6 7601   5.012   2.434   3.441 -4.1606 -0.2001 -3.4096
  436THF     H7 7602   4.908   2.533   3.550  0.5236  0.6956 -1.3751
  436THF     C8 7603   5.070   2.426   3.647  0.1101  0.5009  0.7459
  436THF     C9 7604   5.007   2.340   3.757 -0.0463  0.1103  0.2063
  436THF    H10 7605   5.111   2.524   3.671 -1.7650  1.0058  2.1511
  436THF    H11 7606   5.158   2.371   3.614 -0.9257 -1.0382  0.4074
  436THF    H12 7607   5.051   2.240   3.763  0.0874  0.1595  0.0420
  436THF    H13 7608   5.004   2.394   3.852 -0.6478  1.8476 -0.7642
  437THF     O1 7609   0.670   5.220   2.177  0.0157 -0.2639  0.7348
  437THF     C2 7610   0.771   5.269   2.096 -0.4111 -0.0414  0.5721
  437THF     C3 7611   0.637   5.316   2.276 -0.1463  0.1460  0.2158
  437THF     H4 7612   0.753   5.356   2.034  2.3363 -0.3706 -0.8550
  437THF     H5 7613   0.826   5.203   2.029 -0.1887  0.5812  0.1316
  437THF     H6 7614   0.576   5.392   2.227 -1.4432  1.4398  3.4763
  437THF     H7 7615   0.576   5.276   2.358  1.2729 -1.3823  0.5669
  437THF     C8 7616   0.771   5.377   2.315 -0.6418  0.0442 -0.9776
  437THF     C9 7617   0.866   5.320   2.207  0.2489 -0.2756  0.0798
  437THF    H10 7618   0.795   5.343   2.415  1.8185  2.2478 -0.7111
  437THF    H11 7619   0.760   5.485   2.320 -1.7288 -0.0930  0.0462
  437THF    H12 7620   0.939   5.392   2.168 -2.1922  0.6505 -3.1909
  437THF    H13 7621   0.913   5.229   2.245 -0.3497 -0.9491 -0.7560
  438THF     O1 7622   0.369   1.153   1.520  0.5821  0.1881  0.1836
  438THF     C2 7623   0.277   1.168   1.412 -0.0728 -0.4552 -0.0284
  438THF     C3 7624   0.484   1.225   1.478 -0.1752  0.0205  0.0491
  438THF     H4 7625   0.225   1.264   1.415 -1.1330 -0.9894  3.2488
  438THF     H5 7626   0.195   1.099   1.428  0.6457 -1.2536  0.2764
  438THF     H6 7627   0.484   1.331   1.500  0.6081  0.1380 -0.4943
  438THF     H7 7628   0.576   1.182   1.517  0.7735  1.6841 -0.2968
  438THF     C8 7629   0.491   1.188   1.333  0.3495  0.0787 -0.0371
  438THF     C9 7630   0.360   1.134   1.291  0.6822 -0.2164 -0.6526
  438THF    H10 7631   0.577   1.127   1.304 -1.0735 -3.5782  2.7437
  438THF    H11 7632   0.493   1.287   1.287 -1.8720 -0.4279 -1.3645
  438THF    H12 7633   0.338   1.170   1.190 -0.3142  0.3554 -0.2419
  438THF    H13 7634   0.379   1.028   1.277 -0.0725 -0.4388 -0.0683
  439THF     O1 7635   0.019   2.818   4.755 -0.5614 -0.2142  0.2556
  439THF     C2 7636  -0.094   2.815   4.669 -0.0460  0.5587 -0.2283
  439THF     C3 7637   0.052   2.685   4.792 -0.0489 -0.1847  0.0902
  439THF     H4 7638  -0.095   2.912   4.619  0.4683  1.4363  1.3835
  439THF     H5 7639  -0.182   2.813   4.733  1.1328  0.6442  1.4659
  439THF     H6 7640   0.157   2.682   4.819  0.1050 -0.6714 -0.5481
  439THF     H7 7641  -0.016   2.638   4.864  0.2721 -2.3593 -0.9542
  439THF     C8 7642   0.041   2.614   4.656 -0.3294 -1.0412 -0.4494
  439THF     C9 7643  -0.063   2.696   4.575  0.0752 -0.1343 -0.0876
  439THF    H10 7644   0.004   2.511   4.666 -2.0915 -0.4781 -0.7019
  439THF    H11 7645   0.138   2.621   4.608  0.2188 -0.7963  0.6590
  439THF    H12 7646  -0.006   2.739   4.492 -2.3388  1.1693 -1.1493
  439THF    H13 7647  -0.150   2.639   4.544 -0.1503  0.4286 -0.5205
  440THF     O1 7648   1.203   5.109   0.347 -0.4159 -0.0824  0.0922
  440THF     C2 7649   1.099   5.184   0.282  0.7848  0.3644 -0.2627
  440THF     C3 7650   1.158   5.055   0.468  0.0211 -0.0399 -0.2923
  440THF     H4 7651   1.111   5.195   0.174  3.6974  0.0377 -0.0356
  440THF     H5 7652   1.075   5.281   0.324 -0.8873 -0.8471  1.8423
  440THF     H6 7653   1.214   4.966   0.495 -0.9443 -0.3382  0.8638
  440THF     H7 7654   1.176   5.133   0.542  2.3572  1.9098 -2.7782
  440THF     C8 7655   1.011   5.025   0.441  0.3771  0.1563 -0.0785
  440THF     C9 7656   0.977   5.095   0.308 -0.5347  0.7853 -0.1114
  440THF    H10 7657   0.939   5.040   0.522  0.0511 -0.5234 -0.2308
  440THF    H11 7658   1.004   4.916   0.434  2.1975 -0.0061  0.1541
  440THF    H12 7659   0.964   5.025   0.225 -1.9994  0.6164  0.2191
  440THF    H13 7660   0.885   5.152   0.323 -1.8272 -1.3754  0.7122
  441THF     O1 7661   1.378   5.280   4.298 -0.0145  0.0183  0.3341
  441THF     C2 7662   1.291   5.312   4.189  0.0972  0.0628  0.6182
  441THF     C3 7663   1.490   5.363   4.293  0.2659  0.6286 -0.2104
  441THF     H4 7664   1.187   5.284   4.206  0.0518 -0.4384 -0.3697
  441THF     H5 7665   1.322   5.259   4.099  0.0146 -0.2613  0.7784
  441THF     H6 7666   1.517   5.390   4.395 -3.7364  2.4600  0.5510
  441THF     H7 7667   1.568   5.314   4.234  0.6518  0.7735  0.1745
  441THF     C8 7668   1.442   5.498   4.228  0.1753  0.1250  0.0409
  441THF     C9 7669   1.314   5.463   4.163 -0.2817  0.3445  0.9074
  441THF    H10 7670   1.515   5.539   4.158 -0.6718 -1.3316 -1.7963
  441THF    H11 7671   1.428   5.565   4.312 -0.8228 -0.4138  0.3184
  441THF    H12 7672   1.232   5.515   4.212 -0.6993  0.0995  0.4792
  441THF    H13 7673   1.312   5.478   4.055 -1.5986  0.7542  0.9639
  442THF     O1 7674   0.539   4.564   5.014  0.5707  0.8202  0.0651
  442THF     C2 7675   0.539   4.612   5.147  0.0618 -0.4784 -0.9763
  442THF     C3 7676   0.405   4.530   4.985 -0.4890 -0.3134 -0.1983
  442THF     H4 7677   0.631   4.663   5.176 -0.5170  0.3361 -0.5244
  442THF     H5 7678   0.530   4.525   5.212 -5.1953  0.0544 -0.5362
  442THF     H6 7679   0.379   4.504   4.883  1.3399 -0.0433 -0.7691
  442THF     H7 7680   0.374   4.440   5.038  2.6620 -0.8083  0.9833
  442THF     C8 7681   0.344   4.661   5.029  0.3460 -0.3342  0.0913
  442THF     C9 7682   0.406   4.690   5.164  0.2179  0.2684 -0.0468
  442THF    H10 7683   0.236   4.648   5.038  0.4926 -1.9544 -0.1279
  442THF    H11 7684   0.356   4.744   4.961  0.1403 -2.3540 -2.5566
  442THF    H12 7685   0.416   4.797   5.178  0.2987  0.2839 -0.2315
  442THF    H13 7686   0.347   4.643   5.244 -1.6456 -1.9681 -2.5510
  443THF     O1 7687   4.976   0.874   4.820  0.2162 -0.0885 -0.6501
  443THF     C2 7688   4.905   0.972   4.742  0.0049  0.6403 -0.4388
  443THF     C3 7689   4.882   0.817   4.906 -0.1958 -0.0240  0.1265
  443THF     H4 7690   4.962   0.997   4.653  2.0245  0.6447  0.7951
  443THF     H5 7691   4.857   1.050   4.801 -0.3490 -1.2263  1.8833
  443THF     H6 7692   4.924   0.718   4.924  0.1626  0.2431  0.8190
  443THF     H7 7693   4.884   0.880   4.995  0.1143 -0.3279  0.3356
  443THF     C8 7694   4.748   0.821   4.840  0.0919  0.8141 -0.1316
  443THF     C9 7695   4.780   0.899   4.714  0.5940  0.4138  0.2058
  443THF    H10 7696   4.682   0.869   4.912  1.4933  1.6870  0.6031
  443THF    H11 7697   4.716   0.717   4.835 -1.6928  1.3855 -1.7615
  443THF    H12 7698   4.793   0.821   4.638  1.8902 -0.2313  1.0535
  443THF    H13 7699   4.689   0.957   4.697 -2.3858 -3.5904  0.7637
  444THF     O1 7700   3.135   4.353   1.256  0.0107 -0.2606  0.1912
  444THF     C2 7701   3.133   4.419   1.125 -0.1637  0.3775 -0.1018
  444THF     C3 7702   3.114   4.216   1.225  0.1239  0.3583  0.1491
  444THF     H4 7703   3.230   4.395   1.080 -0.4033 -1.6574  0.3770
  444THF     H5 7704   3.133   4.528   1.120  1.2396  0.3380 -2.3636
  444THF     H6 7705   3.206   4.190   1.173  0.0916 -0.8098  0.6455
  444THF     H7 7706   3.100   4.153   1.313 -2.9089  1.0183  0.2511
  444THF     C8 7707   2.999   4.208   1.123  0.7848  0.2093  0.5012
  444THF     C9 7708   3.015   4.343   1.057 -0.1676  0.4200 -0.2680
  444THF    H10 7709   2.899   4.208   1.166  0.6768  1.1363  0.2650
  444THF    H11 7710   3.007   4.122   1.056  1.0538 -0.5672  1.4951
  444THF    H12 7711   3.047   4.342   0.952  0.6405  1.1492 -0.0365
  444THF    H13 7712   2.923   4.401   1.066 -0.4777 -0.1475  0.2285
  445THF     O1 7713   0.510   5.061   4.056  0.5371 -0.5573  0.0773
  445THF     C2 7714   0.506   4.944   4.135  0.5775  0.6313 -0.3110
  445THF     C3 7715   0.647   5.109   4.054  0.1051  0.0558 -0.7226
  445THF     H4 7716   0.426   4.876   4.106  0.9425  1.0062 -2.2967
  445THF     H5 7717   0.498   4.965   4.242  2.9870 -1.3902  0.3788
  445THF     H6 7718   0.665   5.180   3.973  3.6148 -1.4019 -1.3838
  445THF     H7 7719   0.666   5.149   4.153  0.8597 -0.5741 -0.6066
  445THF     C8 7720   0.730   4.980   4.034 -0.4839 -0.2454  0.4200
  445THF     C9 7721   0.639   4.868   4.090 -0.1212  0.1898 -0.4406
  445THF    H10 7722   0.828   4.975   4.081  0.4821  1.2822 -1.3157
  445THF    H11 7723   0.742   4.975   3.925 -1.2305  1.4622  0.2282
  445THF    H12 7724   0.625   4.805   4.002 -1.7061  0.3719 -0.3493
  445THF    H13 7725   0.691   4.814   4.169 -1.2662  0.3989  0.4778
  446THF     O1 7726   0.309   3.429   3.111 -0.3645 -0.2541  0.9890
  446THF     C2 7727   0.419   3.501   3.164  0.6942 -0.5102 -0.1266
  446THF     C3 7728   0.345   3.294   3.104 -0.1577  0.1812  0.1225
  446THF     H4 7729   0.392   3.503   3.269 -1.0350  0.4112 -0.5548
  446THF     H5 7730   0.423   3.599   3.117  1.2249 -0.7971 -0.6983
  446THF     H6 7731   0.334   3.255   3.205 -0.3027  0.3043  0.1534
  446THF     H7 7732   0.280   3.235   3.040  1.0179 -1.0284 -0.0129
  446THF     C8 7733   0.489   3.297   3.051 -0.4586  0.4628 -0.2419
  446THF     C9 7734   0.546   3.419   3.132  0.5267  0.3634  0.7308
  446THF    H10 7735   0.484   3.321   2.945 -2.0967  2.0648  0.1247
  446THF    H11 7736   0.541   3.203   3.065 -1.8557 -0.5144 -1.2940
  446THF    H12 7737   0.591   3.388   3.226  0.6391 -1.1616  0.1895
  446THF    H13 7738   0.628   3.473   3.084 -1.1544  1.1270 -1.4791
  447THF     O1 7739   5.452   1.645   0.734 -0.1031 -0.0288 -0.0371
  447THF     C2 7740   5.503   1.705   0.856  0.2362  0.5182  0.4056
  447THF     C3 7741   5.547   1.577   0.651  0.2907  0.9971 -0.5083
  447THF     H4 7742   5.494   1.624   0.929 -2.4903 -0.9209 -1.3603
  447THF     H5 7743   5.439   1.785   0.893 -0.0385  1.3988 -1.8485
  447THF     H6 7744   5.531   1.470   0.634  0.7433  0.8217  0.1411
  447THF     H7 7745   5.530   1.607   0.547 -1.4080 -0.6711 -0.7694
  447THF     C8 7746   5.677   1.623   0.716 -0.2540  0.0960  0.4351
  447THF     C9 7747   5.641   1.735   0.808  0.3660  0.1442 -0.6004
  447THF    H10 7748   5.761   1.651   0.652 -1.3616  2.5437 -0.0619
  447THF    H11 7749   5.704   1.532   0.771 -2.2786 -0.3702  0.7318
  447THF    H12 7750   5.712   1.744   0.890 -1.8291 -0.3331  1.4704
  447THF    H13 7751   5.639   1.825   0.747  2.8058  0.4349 -0.3337
  448THF     O1 7752   0.877   3.207   3.794 -0.1799  0.0306  0.6056
  448THF     C2 7753   0.923   3.181   3.926  0.7389 -0.2426  0.7042
  448THF     C3 7754   0.992   3.239   3.710  0.6916  1.0781  0.4268
  448THF     H4 7755   0.891   3.083   3.962 -0.2551  0.1046  0.8003
  448THF     H5 7756   0.874   3.254   3.990 -2.1581 -0.7296 -0.7713
  448THF     H6 7757   1.016   3.146   3.659 -1.2424  0.0126  1.3555
  448THF     H7 7758   0.960   3.314   3.638 -1.1489  1.5546  1.6736
  448THF     C8 7759   1.099   3.285   3.802  0.8012 -0.5199 -0.8243
  448THF     C9 7760   1.075   3.191   3.923 -0.3764 -0.4877 -0.0051
  448THF    H10 7761   1.066   3.386   3.827  1.5229 -0.2606 -0.9101
  448THF    H11 7762   1.201   3.291   3.764  0.6153 -1.8244 -1.6156
  448THF    H12 7763   1.123   3.094   3.915  1.3310  0.2245  0.9437
  448THF    H13 7764   1.112   3.237   4.014  1.1587 -0.5320 -0.5886
  449THF     O1 7765   2.645   1.775   3.415  0.2070  0.3806 -0.3941
  449THF     C2 7766   2.520   1.712   3.397 -0.7895  0.0897  0.8451
  449THF     C3 7767   2.637   1.839   3.546 -0.1044 -0.1666  0.2931
  449THF     H4 7768   2.529   1.627   3.464  1.7057  0.7003  1.3602
  449THF     H5 7769   2.512   1.688   3.291  3.5924 -0.3213  0.4316
  449THF     H6 7770   2.657   1.769   3.627 -1.0867  1.0681  1.6714
  449THF     H7 7771   2.717   1.914   3.551  1.8895 -2.0192 -1.5336
  449THF     C8 7772   2.501   1.889   3.556 -0.0600 -0.6033 -0.3714
  449THF     C9 7773   2.421   1.819   3.450  0.2527  0.7428  0.0443
  449THF    H10 7774   2.486   1.996   3.540 -0.2496 -0.4916  0.4703
  449THF    H11 7775   2.470   1.863   3.657  0.1040 -1.5043 -0.5489
  449THF    H12 7776   2.323   1.789   3.486  1.4454 -0.4285  2.6147
  449THF    H13 7777   2.405   1.888   3.367 -1.7897 -0.8610 -1.0002
  450THF     O1 7778   0.531   4.118   4.704 -0.5821 -0.4920  0.0187
  450THF     C2 7779   0.604   4.002   4.664  0.9014  0.2018 -0.4468
  450THF     C3 7780   0.482   4.182   4.587 -0.1044 -0.4356  0.5658
  450THF     H4 7781   0.567   3.915   4.718 -0.6259  0.2339 -1.4090
  450THF     H5 7782   0.709   4.026   4.682  0.7894  0.8217 -0.5931
  450THF     H6 7783   0.379   4.147   4.584 -0.4613  0.4235  1.9983
  450THF     H7 7784   0.484   4.291   4.584 -4.0270 -0.2011  1.3170
  450THF     C8 7785   0.559   4.126   4.471  0.3449 -0.0978 -0.1161
  450THF     C9 7786   0.571   3.987   4.513 -0.4028  0.2936  0.5998
  450THF    H10 7787   0.656   4.176   4.468  0.8080 -0.7880  1.7656
  450THF    H11 7788   0.499   4.141   4.381 -0.7528  1.1121  0.7752
  450THF    H12 7789   0.475   3.940   4.493  0.2602 -0.6412 -0.5569
  450THF    H13 7790   0.636   3.921   4.455 -0.3318  1.5262 -0.7876
  451THF     O1 7791   2.346   2.762   1.945 -0.3284 -0.0563 -0.1374
  451THF     C2 7792   2.212   2.735   1.916  0.2080  0.2526  0.4606
  451THF     C3 7793   2.406   2.638   1.966 -0.3932 -0.8908 -0.8531
  451THF     H4 7794   2.220   2.719   1.808 -0.6169 -2.0292  0.6836
  451THF     H5 7795   2.147   2.821   1.928 -0.2438  0.1356 -0.9680
  451THF     H6 7796   2.424   2.584   1.873 -1.7036  0.1478 -1.7556
  451THF     H7 7797   2.505   2.639   2.012  0.8871 -0.3365 -3.4266
  451THF     C8 7798   2.293   2.553   2.040  0.2930  0.4374 -0.3345
  451THF     C9 7799   2.163   2.609   1.978 -0.3054  0.9764  0.4268
  451THF    H10 7800   2.300   2.571   2.148  0.7331  1.4864 -0.5256
  451THF    H11 7801   2.305   2.446   2.025  0.0163  0.5612 -1.5246
  451THF    H12 7802   2.121   2.548   1.898  3.5149  1.4421 -2.1575
  451THF    H13 7803   2.083   2.622   2.051 -1.1922 -2.8239  0.3780
  452THF     O1 7804   1.046   3.630   5.189  0.5187 -0.3263 -0.2304
  452THF     C2 7805   1.099   3.755   5.147  0.4249  0.3832 -0.2357
  452THF     C3 7806   1.103   3.528   5.106  0.7564 -0.0159 -0.4702
  452THF     H4 7807   1.187   3.771   5.209  0.1906 -0.4256  0.3214
  452THF     H5 7808   1.019   3.826   5.166 -0.5186 -1.0890  1.6803
  452THF     H6 7809   1.200   3.505   5.149  0.7490  1.5199  0.4361
  452THF     H7 7810   1.042   3.438   5.102  1.0852 -0.3403  1.1262
  452THF     C8 7811   1.117   3.600   4.972  0.6679 -0.2057  0.2493
  452THF     C9 7812   1.137   3.743   5.004 -0.6181 -0.0663  0.0214
  452THF    H10 7813   1.034   3.578   4.905  1.2435 -0.1907 -0.4780
  452THF    H11 7814   1.193   3.541   4.920  1.8768  0.2268  1.4635
  452THF    H12 7815   1.243   3.770   4.997 -0.2079 -1.1413  1.4571
  452THF    H13 7816   1.074   3.800   4.936 -0.1094 -1.6071 -1.8485
  453THF     O1 7817   3.165   4.727   5.068 -0.0329  0.1290  0.3715
  453THF     C2 7818   3.083   4.613   5.053 -0.3154  0.2937  0.7033
  453THF     C3 7819   3.067   4.821   5.107 -0.2197 -0.2489 -0.4331
  453THF     H4 7820   3.157   4.534   5.057  1.4104  1.7453 -0.7307
  453THF     H5 7821   3.038   4.635   4.955  3.0329  0.5461 -0.9301
  453THF     H6 7822   3.111   4.910   5.153 -1.3353  2.2404 -3.7741
  453THF     H7 7823   3.006   4.870   5.031  0.3162  1.4141  0.1681
  453THF     C8 7824   2.976   4.753   5.212  0.4219  0.1095  0.9665
  453THF     C9 7825   2.987   4.606   5.166 -0.2689 -0.0676 -0.0988
  453THF    H10 7826   2.874   4.791   5.210  0.4198  0.0922  0.1863
  453THF    H11 7827   3.009   4.766   5.315  0.8812  0.9027  0.7251
  453THF    H12 7828   3.025   4.543   5.247 -1.0367 -1.2535 -0.6248
  453THF    H13 7829   2.893   4.555   5.141  0.5400 -1.4175 -0.5061
  454THF     O1 7830   4.674   0.267   4.816 -0.1006 -0.3518  0.0789
  454THF     C2 7831   4.559   0.201   4.745 -0.5158  0.0183  0.1282
  454THF     C3 7832   4.771   0.315   4.726 -0.1428  0.3830  0.1595
  454THF     H4 7833   4.498   0.272   4.690  1.0385  1.9986  0.8414
  454THF     H5 7834   4.510   0.131   4.813  2.6364 -0.4929  2.1399
  454THF     H6 7835   4.764   0.423   4.709 -1.3411  0.3680  0.4665
  454THF     H7 7836   4.875   0.303   4.755 -0.3723  0.2416  0.9488
  454THF     C8 7837   4.761   0.231   4.601 -0.2291  0.5352 -0.4436
  454THF     C9 7838   4.635   0.129   4.632 -0.4724  0.6857 -0.1706
  454THF    H10 7839   4.852   0.185   4.562 -0.2853 -2.6701  2.6842
  454THF    H11 7840   4.737   0.298   4.519 -0.0781  3.9892  2.1378
  454THF    H12 7841   4.564   0.115   4.551 -0.3539 -1.1074  0.0152
  454THF    H13 7842   4.665   0.037   4.683 -1.4752  0.1220 -0.5797
  455THF     O1 7843   2.888   5.118   4.760 -0.0969  0.1139  0.2619
  455THF     C2 7844   2.995   5.213   4.736  0.1356  0.0744  0.4959
  455THF     C3 7845   2.894   5.012   4.666 -0.4674  0.4281  0.1042
  455THF     H4 7846   3.027   5.279   4.817 -0.0083  0.9719 -0.1609
  455THF     H5 7847   2.958   5.280   4.659 -1.7427 -0.1873  1.1055
  455THF     H6 7848   2.828   4.926   4.669 -1.5361  1.1986 -0.5931
  455THF     H7 7849   2.866   5.047   4.566  1.5098 -2.1011 -1.4796
  455THF     C8 7850   3.043   4.983   4.666 -0.9018 -0.0635  0.1253
  455THF     C9 7851   3.101   5.121   4.676 -0.7730 -0.6430  0.0968
  455THF    H10 7852   3.076   4.930   4.577  0.9577  1.1788  0.0110
  455THF    H11 7853   3.065   4.926   4.756 -1.0487 -0.9898 -0.4153
  455THF    H12 7854   3.192   5.117   4.736 -0.2152 -1.5629 -0.7794
  455THF    H13 7855   3.131   5.148   4.575  0.2166 -0.0468  0.5272
  456THF     O1 7856   4.529   1.517   2.977  0.3699 -0.1093 -0.6946
  456THF     C2 7857   4.630   1.462   3.066 -0.0196 -0.0236 -0.3718
  456THF     C3 7858   4.404   1.445   2.994 -0.7545 -0.1807  0.0397
  456THF     H4 7859   4.620   1.517   3.160  1.2617  0.4092 -0.4778
  456THF     H5 7860   4.730   1.475   3.026 -0.1428 -0.5737 -0.8689
  456THF     H6 7861   4.358   1.472   3.089  1.2092 -0.3602  1.0947
  456THF     H7 7862   4.321   1.457   2.924  0.7859 -0.7025 -1.9860
  456THF     C8 7863   4.460   1.305   3.020  0.9296 -0.0687 -0.2691
  456THF     C9 7864   4.600   1.319   3.069  0.0847  0.5740  0.3874
  456THF    H10 7865   4.453   1.242   2.931 -0.2705  1.0648 -1.0289
  456THF    H11 7866   4.399   1.249   3.091 -0.8990  1.3275 -0.6481
  456THF    H12 7867   4.605   1.293   3.175  0.7544 -1.7526 -0.1668
  456THF    H13 7868   4.657   1.246   3.012 -3.2191 -1.7908 -0.1664
  457THF     O1 7869   0.297   4.462   2.011 -0.2246 -0.4774  0.5724
  457THF     C2 7870   0.326   4.331   1.972 -0.2290  0.7237  0.0768
  457THF     C3 7871   0.419   4.533   2.027  0.1744  0.0436 -0.0107
  457THF     H4 7872   0.356   4.332   1.867  2.5291 -2.0247  0.7028
  457THF     H5 7873   0.235   4.272   1.978 -0.8608  1.5045 -1.2413
  457THF     H6 7874   0.475   4.533   1.934  4.2215  1.7641  2.1782
  457THF     H7 7875   0.421   4.628   2.081 -1.3507 -0.1377  0.4031
  457THF     C8 7876   0.488   4.432   2.112 -0.7005 -0.2196  0.0921
  457THF     C9 7877   0.433   4.300   2.074  0.4957  0.7289  0.4742
  457THF    H10 7878   0.485   4.454   2.219 -3.2630  0.1142  0.0023
  457THF    H11 7879   0.595   4.435   2.091 -0.2810  1.1988  2.1400
  457THF    H12 7880   0.512   4.246   2.022 -1.4407 -1.7899 -0.0418
  457THF    H13 7881   0.405   4.246   2.164  1.7820  0.4424  0.7208
  458THF     O1 7882   3.259   0.560   3.477 -0.1601  0.3247  0.2315
  458THF     C2 7883   3.354   0.559   3.577 -0.2360 -0.1242  0.4303
  458THF     C3 7884   3.135   0.549   3.537 -0.4930 -0.1852  0.3691
  458THF     H4 7885   3.370   0.662   3.608 -2.0203 -0.3620  2.4409
  458THF     H5 7886   3.440   0.513   3.529 -1.6744  1.1493 -3.8640
  458THF     H6 7887   3.090   0.644   3.568 -0.4252 -0.3338  0.9409
  458THF     H7 7888   3.059   0.501   3.475 -0.2609 -4.0787  2.8083
  458THF     C8 7889   3.157   0.447   3.646  0.2139 -0.6862  0.0331
  458THF     C9 7890   3.294   0.481   3.693  0.0531  0.5641  0.4777
  458THF    H10 7891   3.158   0.345   3.606 -0.1731 -0.8390  0.4012
  458THF    H11 7892   3.091   0.452   3.733  0.1250 -1.1627 -0.0012
  458THF    H12 7893   3.281   0.556   3.771  0.6106  1.8460 -0.6309
  458THF    H13 7894   3.357   0.401   3.732 -0.0038 -0.1684 -0.8810
  459THF     O1 7895   3.460   5.438   0.204 -0.0353  0.0776 -0.2970
  459THF     C2 7896   3.346   5.380   0.139  0.0670 -0.0936  0.2277
  459THF     C3 7897   3.414   5.460   0.334  0.5988  0.1174 -0.2243
  459THF     H4 7898   3.351   5.271   0.150  0.5952 -0.2191 -1.0076
  459THF     H5 7899   3.345   5.419   0.038  1.2067  0.4004  0.3938
  459THF     H6 7900   3.452   5.390   0.408  0.1692  2.0206  1.9029
  459THF     H7 7901   3.466   5.550   0.366  0.6379  0.1145 -0.2784
  459THF     C8 7902   3.266   5.461   0.346  0.7853 -0.8563 -0.1944
  459THF     C9 7903   3.222   5.436   0.203  0.4774  0.1425 -0.2710
  459THF    H10 7904   3.227   5.560   0.370 -1.2296 -1.0834 -2.0813
  459THF    H11 7905   3.237   5.381   0.414 -0.7086  0.3735  0.6889
  459THF    H12 7906   3.146   5.359   0.194  2.8213 -2.1838 -1.2619
  459THF    H13 7907   3.190   5.521   0.142 -1.7848  0.7089  1.5673
  460THF     O1 7908   4.635   5.281   1.037 -0.1511 -0.9348 -0.9753
  460THF     C2 7909   4.653   5.306   1.173  0.1101 -0.1463 -0.0635
  460THF     C3 7910   4.717   5.377   0.953  0.1523 -0.4868  0.1931
  460THF     H4 7911   4.733   5.243   1.211  0.0655  0.7286  1.5390
  460THF     H5 7912   4.562   5.273   1.222 -1.4254  0.4178 -2.3659
  460THF     H6 7913   4.816   5.333   0.940  1.2451  2.0891 -0.9110
  460THF     H7 7914   4.675   5.397   0.854  0.4459  0.4656  0.2588
  460THF     C8 7915   4.715   5.504   1.036  0.5334 -0.1074  0.5520
  460THF     C9 7916   4.690   5.457   1.176 -0.2884  0.2363 -0.2924
  460THF    H10 7917   4.638   5.574   1.003  0.7629  0.3033  0.8836
  460THF    H11 7918   4.808   5.558   1.018  0.3133 -0.1759 -0.9301
  460THF    H12 7919   4.779   5.476   1.236 -1.4154  3.8354  0.5060
  460THF    H13 7920   4.610   5.517   1.219  0.1085  0.5044  0.0856
  461THF     O1 7921   0.890   2.399   3.391  0.3381 -0.2028 -0.2430
  461THF     C2 7922   0.983   2.300   3.425 -0.8740  0.6779 -0.1687
  461THF     C3 7923   0.840   2.477   3.499 -0.2912  0.2359  0.2841
  461THF     H4 7924   1.062   2.280   3.352 -0.4838 -0.7758  0.6194
  461THF     H5 7925   0.936   2.204   3.444 -0.7305  0.4368 -0.9971
  461THF     H6 7926   0.841   2.583   3.474  0.2609  0.4744  1.2654
  461THF     H7 7927   0.736   2.460   3.529 -0.1113 -0.0751  0.7412
  461THF     C8 7928   0.941   2.450   3.607  0.4740  0.1305 -0.0733
  461THF     C9 7929   1.050   2.359   3.551  0.3216 -0.1382 -0.4482
  461THF    H10 7930   0.889   2.388   3.681 -0.1004 -0.7088 -1.1588
  461THF    H11 7931   0.979   2.540   3.655 -0.5740  1.0604 -0.9335
  461THF    H12 7932   1.136   2.418   3.520  1.2873 -1.4695 -0.3846
  461THF    H13 7933   1.086   2.290   3.627 -2.5408 -0.7448  0.4856
  462THF     O1 7934   1.308   5.209   3.243 -0.2507  0.0128 -0.2392
  462THF     C2 7935   1.331   5.346   3.249 -0.8083  0.3770 -1.0651
  462THF     C3 7936   1.223   5.170   3.349  0.6619  0.5856  0.0748
  462THF     H4 7937   1.247   5.384   3.191 -1.5169 -1.6142 -1.4319
  462THF     H5 7938   1.416   5.373   3.187  0.9192 -0.8527  0.6597
  462THF     H6 7939   1.120   5.181   3.315  0.7059  2.2250  0.4112
  462THF     H7 7940   1.246   5.073   3.393 -0.6172  1.2011  2.2411
  462THF     C8 7941   1.239   5.275   3.457  1.0751  0.2554 -0.5091
  462THF     C9 7942   1.326   5.383   3.403 -1.0525 -0.0584 -0.5300
  462THF    H10 7943   1.273   5.237   3.553 -3.4220  1.0881  1.6825
  462THF    H11 7944   1.146   5.326   3.482  1.6436 -0.2158  2.9691
  462THF    H12 7945   1.287   5.482   3.426  0.5245 -0.1151  3.2482
  462THF    H13 7946   1.424   5.364   3.449 -1.9908 -0.0890  1.5689
  463THF     O1 7947   0.828   2.536   5.074  0.3525  0.2210  0.5538
  463THF     C2 7948   0.928   2.614   5.131 -0.5825  0.6133  0.0620
  463THF     C3 7949   0.834   2.562   4.932 -0.1130 -0.1905 -0.3045
  463THF     H4 7950   0.958   2.565   5.224  1.5902 -0.7051 -1.2280
  463THF     H5 7951   0.914   2.722   5.129 -0.2467  0.6888 -3.5764
  463THF     H6 7952   0.767   2.489   4.887 -1.6966  1.0479 -0.0414
  463THF     H7 7953   0.801   2.660   4.899  3.7975  1.0351 -1.0515
  463THF     C8 7954   0.977   2.540   4.901  0.0707 -0.4750 -0.2635
  463THF     C9 7955   1.046   2.581   5.038  0.1532  0.0190 -0.8064
  463THF    H10 7956   1.005   2.594   4.811 -1.5830 -0.2681 -0.6939
  463THF    H11 7957   0.996   2.437   4.872 -2.2444 -1.0366  0.0103
  463THF    H12 7958   1.089   2.492   5.084 -2.3743 -0.5651  0.6313
  463THF    H13 7959   1.121   2.658   5.026  0.0577  0.3515  0.5718
  464THF     O1 7960   1.174   2.395   2.928 -0.0563 -0.1764  0.5132
  464THF     C2 7961   1.268   2.365   2.820  0.7695 -0.7894  0.2451
  464THF     C3 7962   1.085   2.501   2.887 -0.6532  0.5634  0.0793
  464THF     H4 7963   1.212   2.320   2.738  0.9307  0.7376 -0.7351
  464THF     H5 7964   1.356   2.301   2.834  2.6827  1.6748  0.1098
  464THF     H6 7965   1.011   2.463   2.817 -1.7484 -0.8960  1.9334
  464THF     H7 7966   1.038   2.544   2.975  0.4076  1.9666 -0.0102
  464THF     C8 7967   1.180   2.591   2.816 -0.6196 -0.0564 -0.0949
  464THF     C9 7968   1.305   2.508   2.795 -0.6753  0.2728 -0.8931
  464THF    H10 7969   1.195   2.682   2.874 -2.1702  1.7726 -2.4199
  464THF    H11 7970   1.131   2.631   2.728 -3.4794 -1.8864  0.5184
  464THF    H12 7971   1.351   2.521   2.696  2.2683 -1.7076  0.0651
  464THF    H13 7972   1.385   2.516   2.868  1.4031  0.6162 -3.0556
  465THF     O1 7973   0.934   4.682   2.624  0.3621  0.2575  0.5634
  465THF     C2 7974   1.016   4.624   2.524 -0.2371 -0.0588 -0.4525
  465THF     C3 7975   0.898   4.578   2.714 -0.1356  0.0844 -0.1274
  465THF     H4 7976   1.118   4.623   2.562 -0.0767  0.8787 -0.8282
  465THF     H5 7977   1.026   4.688   2.437 -0.1368 -0.6072 -0.8446
  465THF     H6 7978   0.987   4.584   2.777  0.3581 -1.3334 -0.6541
  465THF     H7 7979   0.803   4.604   2.762 -0.5793 -2.6199  0.6180
  465THF     C8 7980   0.893   4.446   2.635  0.0818  0.1261  0.0777
  465THF     C9 7981   0.951   4.489   2.504  0.2445 -0.4870  0.8424
  465THF    H10 7982   0.794   4.400   2.629  0.7169 -1.7521  2.3871
  465THF    H11 7983   0.958   4.374   2.685  1.5386  0.2770 -1.4839
  465THF    H12 7984   1.014   4.425   2.443  0.1820  1.2407 -1.1600
  465THF    H13 7985   0.866   4.519   2.442  0.2258 -1.6416  0.2980
  466THF     O1 7986   2.352   0.158   1.332 -0.2631  0.6427 -0.3142
  466THF     C2 7987   2.254   0.104   1.243  0.1327  0.6256  0.6349
  466THF     C3 7988   2.481   0.105   1.292 -0.3256  0.2606  0.4218
  466THF     H4 7989   2.178   0.176   1.213  0.3048  0.9492  0.9641
  466THF     H5 7990   2.209   0.018   1.292  0.6938 -0.0387  0.0066
  466THF     H6 7991   2.544   0.185   1.253  2.2214 -2.1353 -0.7138
  466THF     H7 7992   2.518   0.057   1.382 -0.0513 -0.8391 -0.2621
  466THF     C8 7993   2.456  -0.010   1.196 -0.2977 -0.6595 -0.0331
  466THF     C9 7994   2.331   0.038   1.124  0.2534 -0.2047  0.2690
  466THF    H10 7995   2.418  -0.098   1.248 -0.7611  0.4427  1.5857
  466THF    H11 7996   2.548  -0.032   1.142  1.2382  1.5075  1.5420
  466THF    H12 7997   2.361   0.104   1.043  0.1896  1.5159  1.5745
  466THF    H13 7998   2.267  -0.040   1.084 -0.9697  0.4854  0.8033
  467THF     O1 7999   1.705   2.205   2.124  0.2689  0.3246 -0.0405
  467THF     C2 8000   1.745   2.339   2.096 -0.4775  0.3679 -0.2791
  467THF     C3 8001   1.587   2.170   2.048  0.3001  0.0828 -0.7536
  467THF     H4 8002   1.851   2.365   2.104  0.5131 -2.7119 -1.7938
  467THF     H5 8003   1.693   2.412   2.158 -0.3741  0.3996 -0.2295
  467THF     H6 8004   1.565   2.064   2.035 -0.1234  0.1716 -0.7580
  467THF     H7 8005   1.496   2.219   2.082 -0.0521 -0.0428 -1.4917
  467THF     C8 8006   1.633   2.224   1.910 -0.3125 -0.7277 -0.2645
  467THF     C9 8007   1.697   2.358   1.948 -0.0124 -0.0646 -0.6241
  467THF    H10 8008   1.548   2.235   1.842 -1.9056 -1.6855  1.4693
  467THF    H11 8009   1.708   2.166   1.857 -1.5113 -2.4752 -0.1434
  467THF    H12 8010   1.777   2.395   1.884  1.4355  0.0738  1.1861
  467THF    H13 8011   1.621   2.435   1.936 -1.8765 -1.9800 -1.8837
  468THF     O1 8012   0.191   5.352   2.784 -0.0633  0.0303 -0.4402
  468THF     C2 8013   0.148   5.291   2.662 -0.1396  1.1165  0.2862
  468THF     C3 8014   0.143   5.479   2.774 -0.4420 -0.2924 -0.0663
  468THF     H4 8015   0.116   5.188   2.678 -1.6679  0.4413 -5.2007
  468THF     H5 8016   0.230   5.294   2.590 -1.1314 -0.4088 -0.9701
  468THF     H6 8017   0.137   5.522   2.874 -2.9534 -2.0506  0.6416
  468THF     H7 8018   0.210   5.542   2.716 -1.5873  2.3848  1.3323
  468THF     C8 8019   0.010   5.466   2.718 -0.2123 -0.2648  0.4978
  468THF     C9 8020   0.027   5.368   2.608 -0.2293  0.1116  0.4194
  468THF    H10 8021  -0.020   5.570   2.708  0.7427  0.0232  0.5561
  468THF    H11 8022  -0.054   5.427   2.798 -0.0747  0.2771  0.8731
  468THF    H12 8023  -0.062   5.310   2.587 -0.2876  0.5206 -0.5321
  468THF    H13 8024   0.061   5.419   2.518 -0.2698  0.2136  0.4617
  469THF     O1 8025   0.234   1.312   4.846  0.2336  0.0732 -0.0058
  469THF     C2 8026   0.119   1.317   4.929  0.4318 -0.0018 -0.2057
  469THF     C3 8027   0.221   1.425   4.764  0.6449 -0.7966 -0.0956
  469THF     H4 8028   0.135   1.254   5.017  0.6172  1.9674  1.2406
  469THF     H5 8029   0.030   1.286   4.874  0.0966  0.8098 -0.1327
  469THF     H6 8030   0.309   1.434   4.701 -1.1805  2.0053 -2.5351
  469THF     H7 8031   0.140   1.422   4.690 -0.9051  0.9286  1.4123
  469THF     C8 8032   0.201   1.539   4.866  0.4103  0.0067  1.0304
  469THF     C9 8033   0.105   1.470   4.954 -0.5064  0.6382 -0.8459
  469THF    H10 8034   0.177   1.629   4.809  2.4488  2.0243  3.1284
  469THF    H11 8035   0.296   1.563   4.913  0.6934 -0.3536  0.6468
  469THF    H12 8036   0.125   1.496   5.058  1.1406 -1.6929 -0.4950
  469THF    H13 8037   0.014   1.513   4.911  0.5134  3.7858 -0.1115
  470THF     O1 8038   2.283   4.058   2.893  0.3890 -0.6695 -0.2149
  470THF     C2 8039   2.361   3.947   2.871  0.7708 -0.0251 -0.6708
  470THF     C3 8040   2.357   4.178   2.880 -0.3669 -0.2986  0.5526
  470THF     H4 8041   2.301   3.860   2.844 -1.3721  0.4629  2.1386
  470THF     H5 8042   2.418   3.927   2.962  0.7184 -0.8746 -0.8193
  470THF     H6 8043   2.295   4.266   2.861  1.9364  0.9691 -1.6747
  470THF     H7 8044   2.419   4.198   2.968  0.9184 -0.3333 -0.3183
  470THF     C8 8045   2.439   4.143   2.754  0.0357 -0.4204  0.0064
  470THF     C9 8046   2.454   3.995   2.759  0.5018  0.1933 -0.6073
  470THF    H10 8047   2.538   4.188   2.761 -0.2001  0.4543 -1.9211
  470THF    H11 8048   2.384   4.175   2.666  0.2354 -2.4576 -0.9272
  470THF    H12 8049   2.432   3.946   2.664 -0.7305  2.0766 -1.3571
  470THF    H13 8050   2.554   3.974   2.797  0.4637 -0.0245 -0.6276
  471THF     O1 8051   1.248   1.557   5.415 -0.5410 -0.3091 -0.2597
  471THF     C2 8052   1.301   1.677   5.362  0.2541 -0.3168  0.0079
  471THF     C3 8053   1.360   1.492   5.471  0.9231  0.3190 -0.0836
  471THF     H4 8054   1.333   1.753   5.433 -3.1686  2.7241 -1.3794
  471THF     H5 8055   1.229   1.736   5.306  0.0165 -0.0148  0.6190
  471THF     H6 8056   1.385   1.551   5.559 -0.9104  0.4158  0.4215
  471THF     H7 8057   1.328   1.389   5.486  1.6975 -0.0542 -0.8893
  471THF     C8 8058   1.459   1.506   5.360 -0.5654  0.8504 -0.0233
  471THF     C9 8059   1.408   1.615   5.272 -0.3766 -0.4075  0.5333
  471THF    H10 8060   1.464   1.418   5.297  2.8080  1.7215 -1.1797
  471THF    H11 8061   1.560   1.512   5.401 -1.1744  1.7390  1.4426
  471THF    H12 8062   1.476   1.692   5.237 -1.2055 -0.4390 -1.2339
  471THF    H13 8063   1.365   1.570   5.182  0.0393  0.2255  0.0125
  472THF     O1 8064   1.258   3.398   1.356  0.2422 -0.3629 -0.2120
  472THF     C2 8065   1.214   3.470   1.469 -0.3492  0.2147 -0.3235
  472THF     C3 8066   1.144   3.329   1.309  0.5214  0.1713  0.3649
  472THF     H4 8067   1.229   3.577   1.456  3.3714 -0.2642 -1.3762
  472THF     H5 8068   1.277   3.444   1.554 -0.4737  1.3369  0.1285
  472THF     H6 8069   1.157   3.324   1.201  2.1483  0.8291  0.4981
  472THF     H7 8070   1.148   3.227   1.346  0.5990  0.6416  1.6973
  472THF     C8 8071   1.021   3.402   1.352  0.2242  0.0950 -0.2022
  472THF     C9 8072   1.066   3.432   1.492  0.6797 -0.8282 -0.0689
  472THF    H10 8073   0.929   3.344   1.349 -0.1782  0.7172 -0.2182
  472THF    H11 8074   1.009   3.483   1.279 -0.3394 -0.4778 -0.7547
  472THF    H12 8075   1.005   3.514   1.529  0.9843 -1.3958  1.8185
  472THF    H13 8076   1.056   3.353   1.567  0.9214  3.7696  5.4636
  473THF     O1 8077   3.106   3.789   0.587 -0.3322  0.0547  0.5030
  473THF     C2 8078   2.970   3.757   0.625 -0.3486 -0.8002 -0.3175
  473THF     C3 8079   3.163   3.838   0.702 -0.1432  0.4734 -0.0503
  473THF     H4 8080   2.937   3.679   0.556 -0.4306 -1.7686  0.7638
  473THF     H5 8081   2.903   3.842   0.613  1.6483  0.7513 -0.8213
  473THF     H6 8082   3.272   3.846   0.692 -0.2866  0.0910 -3.2099
  473THF     H7 8083   3.129   3.940   0.719 -1.5852  0.3644 -1.9301
  473THF     C8 8084   3.121   3.744   0.811  0.0112 -0.0561 -1.0968
  473THF     C9 8085   2.980   3.703   0.767  0.2605 -0.1849 -0.4520
  473THF    H10 8086   3.106   3.789   0.909  1.4230 -1.4348 -0.2014
  473THF    H11 8087   3.181   3.654   0.818 -1.7206 -1.0957  1.9988
  473THF    H12 8088   2.974   3.594   0.768 -0.3509 -0.1490  0.3282
  473THF    H13 8089   2.891   3.733   0.821  1.4795  0.7203  1.1343
  474THF     O1 8090   4.579   3.465   1.801 -0.1993 -0.5440  0.7205
  474THF     C2 8091   4.608   3.466   1.943 -0.3619 -0.0441  0.4961
  474THF     C3 8092   4.628   3.345   1.738 -0.1552  0.4755 -0.1662
  474THF     H4 8093   4.520   3.464   2.007 -0.1848  0.9045  0.7804
  474THF     H5 8094   4.663   3.555   1.974  1.2925 -2.1868  4.4741
  474THF     H6 8095   4.563   3.315   1.656 -1.3469  3.3098 -0.3546
  474THF     H7 8096   4.722   3.355   1.684  0.1976  0.1445  0.3784
  474THF     C8 8097   4.651   3.252   1.849  0.5899  0.5880 -0.1923
  474THF     C9 8098   4.688   3.340   1.966 -0.4394  0.8886  0.2329
  474THF    H10 8099   4.717   3.167   1.831  0.3375  0.3871 -0.1620
  474THF    H11 8100   4.554   3.207   1.870 -0.0528  2.2632  0.6044
  474THF    H12 8101   4.680   3.289   2.063 -0.1425  0.0920 -0.1483
  474THF    H13 8102   4.793   3.366   1.952  0.3213 -1.6086  0.7001
  475THF     O1 8103   3.808   1.717   1.368 -0.2040 -0.2083 -0.3229
  475THF     C2 8104   3.889   1.807   1.444  0.1333  0.4916  0.3120
  475THF     C3 8105   3.872   1.689   1.246  0.4650  0.3180  0.4535
  475THF     H4 8106   3.882   1.786   1.550  1.9170  2.6160  0.9178
  475THF     H5 8107   3.847   1.908   1.443 -2.1618 -0.3557  2.1062
  475THF     H6 8108   3.882   1.580   1.252 -0.2732  0.1880 -0.3656
  475THF     H7 8109   3.829   1.713   1.148 -0.0092 -0.6892  0.3959
  475THF     C8 8110   4.011   1.755   1.250  0.4322  0.6366  0.6839
  475THF     C9 8111   4.037   1.781   1.398  0.1097  0.6390  0.1033
  475THF    H10 8112   4.004   1.854   1.206 -2.0264  0.0718 -0.3918
  475THF    H11 8113   4.077   1.691   1.192 -0.7641  0.8268 -0.9680
  475THF    H12 8114   4.074   1.687   1.436  0.0059  0.6939  0.3391
  475THF    H13 8115   4.115   1.856   1.414  2.0516 -1.1835 -0.4328
  476THF     O1 8116   3.767   1.027   0.695  0.1862 -0.3718 -1.0500
  476THF     C2 8117   3.801   1.093   0.580  0.2186  0.6898  0.0356
  476THF     C3 8118   3.636   1.072   0.731  0.3085  0.1303  0.0464
  476THF     H4 8119   3.736   1.055   0.501  0.1244  0.7544  0.0823
  476THF     H5 8120   3.906   1.082   0.551  0.4440  1.3004  0.6140
  476THF     H6 8121   3.571   1.007   0.673 -0.1770  0.9418 -0.3352
  476THF     H7 8122   3.636   1.048   0.837 -1.2390 -1.1417 -0.2028
  476THF     C8 8123   3.639   1.225   0.692 -0.2812 -0.0916  0.0266
  476THF     C9 8124   3.768   1.234   0.607 -0.1346 -0.4405 -0.0437
  476THF    H10 8125   3.633   1.291   0.779 -4.1363 -0.5967  0.3439
  476THF    H11 8126   3.551   1.251   0.634 -0.3080  2.8429  1.2235
  476THF    H12 8127   3.750   1.290   0.515 -0.8046  2.5224  1.7384
  476THF    H13 8128   3.843   1.282   0.669 -1.1789 -1.8052  2.3892
  477THF     O1 8129   0.595   3.562   4.851  0.1308  0.5239 -0.3284
  477THF     C2 8130   0.504   3.569   4.741  0.4026  0.0987 -0.0672
  477THF     C3 8131   0.721   3.603   4.804 -0.0001  0.1331 -0.2516
  477THF     H4 8132   0.457   3.666   4.727  0.6445 -0.0332 -2.2082
  477THF     H5 8133   0.420   3.502   4.759  0.4382  0.4811  1.6793
  477THF     H6 8134   0.723   3.712   4.806  1.9082  0.2092  3.7400
  477THF     H7 8135   0.803   3.570   4.867  0.1900  2.3850  0.7794
  477THF     C8 8136   0.728   3.544   4.665 -0.2036 -0.0118  0.3341
  477THF     C9 8137   0.582   3.536   4.616 -0.1348 -0.1403 -0.2389
  477THF    H10 8138   0.775   3.447   4.679 -1.1271 -0.3274  1.4958
  477THF    H11 8139   0.791   3.597   4.594 -0.5736 -0.8457 -0.6384
  477THF    H12 8140   0.551   3.604   4.537  1.1234  0.1134 -0.5229
  477THF    H13 8141   0.577   3.433   4.581  1.2730 -0.0433 -0.7765
  478THF     O1 8142   5.326   3.882   2.562 -0.2305  0.1493  0.0957
  478THF     C2 8143   5.407   3.946   2.664  0.1340  0.0380  1.0256
  478THF     C3 8144   5.221   3.969   2.530  0.1112 -0.5972  0.5465
  478THF     H4 8145   5.506   3.902   2.670 -0.9126 -2.7456 -0.1092
  478THF     H5 8146   5.355   3.940   2.760 -0.0551 -1.3321  0.8524
  478THF     H6 8147   5.158   3.937   2.447 -1.5031  3.1001  0.1857
  478THF     H7 8148   5.158   3.978   2.619 -0.8399  0.4145 -0.2010
  478THF     C8 8149   5.294   4.102   2.520 -0.2319 -0.9978  0.3798
  478THF     C9 8150   5.421   4.090   2.608  0.7427  0.3137 -0.1131
  478THF    H10 8151   5.227   4.185   2.543 -0.1363 -1.3074  1.9067
  478THF    H11 8152   5.340   4.109   2.422 -2.7928  1.0665 -0.7867
  478THF    H12 8153   5.507   4.088   2.541 -1.0446  2.0092 -2.6336
  478THF    H13 8154   5.441   4.153   2.695 -0.6362  0.3156  0.2235
  479THF     O1 8155   4.097   0.628   1.383 -0.0688 -0.0951  0.3010
  479THF     C2 8156   4.198   0.699   1.308 -0.0921  0.1877  0.3502
  479THF     C3 8157   4.129   0.655   1.514  1.1889 -0.0794  0.0558
  479THF     H4 8158   4.161   0.691   1.206 -1.0787 -2.3399  0.8546
  479THF     H5 8159   4.298   0.657   1.315  0.1529  0.2870 -1.7338
  479THF     H6 8160   4.037   0.623   1.563 -0.3154  1.2122 -1.7840
  479THF     H7 8161   4.215   0.598   1.550  2.9740  1.6252 -1.3303
  479THF     C8 8162   4.142   0.811   1.503  0.6450  0.2670  0.5572
  479THF     C9 8163   4.190   0.837   1.364 -0.2731  1.1849  0.2818
  479THF    H10 8164   4.211   0.844   1.580 -1.2018 -0.1801  2.4856
  479THF    H11 8165   4.045   0.850   1.534  0.1084 -0.7105  0.1795
  479THF    H12 8166   4.122   0.893   1.299  0.5485  1.6556 -0.1913
  479THF    H13 8167   4.289   0.881   1.351 -0.6097  1.7595 -0.3907
  480THF     O1 8168   3.450   2.107   0.581 -0.2907 -0.0119  0.0016
  480THF     C2 8169   3.527   2.068   0.465  0.2095 -0.2264 -0.0205
  480THF     C3 8170   3.513   2.035   0.690  1.1468  0.4492  0.5502
  480THF     H4 8171   3.488   2.125   0.381 -2.2566  0.0295  1.1915
  480THF     H5 8172   3.506   1.961   0.453  0.6072 -0.4950  1.4899
  480THF     H6 8173   3.486   2.084   0.784  0.0257 -1.0055  1.0314
  480THF     H7 8174   3.480   1.932   0.675  2.3203  0.1931 -0.4518
  480THF     C8 8175   3.653   2.059   0.652 -0.6308  0.3042 -0.1288
  480THF     C9 8176   3.668   2.090   0.504 -0.6705  0.5285 -0.2932
  480THF    H10 8177   3.715   1.973   0.676 -0.3242  1.1588  2.5335
  480THF    H11 8178   3.692   2.142   0.711 -0.2089 -1.2773  1.9406
  480THF    H12 8179   3.714   2.188   0.486  2.0243 -0.5804  0.1143
  480THF    H13 8180   3.741   2.022   0.461 -0.2704  1.5797 -1.3415
  481THF     O1 8181   1.899   3.024   0.150  0.8774 -0.2955 -0.4395
  481THF     C2 8182   1.941   3.048   0.287  0.1148  0.6680  0.5974
  481THF     C3 8183   1.793   3.110   0.110 -0.1539 -0.4702 -0.5306
  481THF     H4 8184   2.048   3.052   0.268 -0.2064 -1.2863 -2.3251
  481THF     H5 8185   1.920   2.969   0.359  0.9253  0.9169  1.1206
  481THF     H6 8186   1.798   3.135   0.004  3.6410  1.5852 -0.0555
  481THF     H7 8187   1.696   3.071   0.139 -1.0730  1.3738 -0.9719
  481THF     C8 8188   1.826   3.230   0.198  0.0421 -0.4420 -0.2000
  481THF     C9 8189   1.868   3.166   0.325  0.4537 -0.0679  0.0064
  481THF    H10 8190   1.738   3.292   0.215  1.5600  2.1055 -1.0558
  481THF    H11 8191   1.908   3.292   0.162  1.0790 -1.9104 -0.4808
  481THF    H12 8192   1.934   3.233   0.381 -1.3258  3.0821 -1.3916
  481THF    H13 8193   1.788   3.130   0.390 -0.2099  0.3910 -0.5291
  482THF     O1 8194   4.015   3.530   3.882 -0.3902  0.3549  0.1034
  482THF     C2 8195   3.892   3.596   3.892 -0.7007 -0.2599  0.4732
  482THF     C3 8196   4.026   3.444   3.995 -0.4882 -0.2239  0.0734
  482THF     H4 8197   3.806   3.543   3.853  1.2947 -2.4869 -1.1575
  482THF     H5 8198   3.887   3.690   3.837  1.1187  1.4774  3.0609
  482THF     H6 8199   4.004   3.338   3.976 -3.9442  0.1106  1.5329
  482THF     H7 8200   4.129   3.449   4.029 -0.2852  0.5441 -0.6266
  482THF     C8 8201   3.930   3.502   4.089  0.1239 -0.1059 -0.1770
  482THF     C9 8202   3.882   3.631   4.035  0.1694 -0.6518  0.0394
  482THF    H10 8203   3.973   3.511   4.189  0.2378 -0.9873 -0.1358
  482THF    H11 8204   3.839   3.442   4.096 -0.0328  0.2013  0.4866
  482THF    H12 8205   3.779   3.651   4.065  0.2082 -0.7725  0.2567
  482THF    H13 8206   3.949   3.712   4.063  1.5793 -1.5325 -0.6769
  483THF     O1 8207   4.228   1.868   0.259 -0.1873  0.1450  0.2704
  483THF     C2 8208   4.305   1.810   0.367  0.4914  0.4576 -0.5779
  483THF     C3 8209   4.307   1.922   0.160 -0.0830  0.0826 -0.6803
  483THF     H4 8210   4.256   1.734   0.428  0.0802  0.0513 -1.3928
  483THF     H5 8211   4.322   1.894   0.434 -1.2331  0.1661  0.2781
  483THF     H6 8212   4.246   1.953   0.075 -0.4438 -0.1551 -0.5098
  483THF     H7 8213   4.361   2.009   0.197 -0.5624 -0.3341  1.0998
  483THF     C8 8214   4.402   1.806   0.150  1.0076  0.5340  0.4192
  483THF     C9 8215   4.427   1.767   0.295 -0.2241  0.1135 -0.4208
  483THF    H10 8216   4.494   1.820   0.093 -0.7996 -1.2089 -3.2528
  483THF    H11 8217   4.349   1.729   0.093  0.3726  1.9720 -1.0134
  483THF    H12 8218   4.433   1.659   0.308 -2.8140  0.0542  0.8274
  483THF    H13 8219   4.517   1.812   0.338 -1.1884  1.1962  0.5152
  484THF     O1 8220   5.279   0.120   3.366  0.0131 -0.4564  0.6990
  484THF     C2 8221   5.326   0.081   3.239  0.5606 -0.9373 -0.2265
  484THF     C3 8222   5.153   0.068   3.388 -0.7211 -0.4377  0.0452
  484THF     H4 8223   5.430   0.050   3.241  0.6988 -0.4180  0.7042
  484THF     H5 8224   5.319   0.162   3.167 -3.1043  0.3414  1.3003
  484THF     H6 8225   5.149  -0.012   3.463 -0.4250  2.0778  2.9513
  484THF     H7 8226   5.086   0.140   3.435  0.9195  0.0276  1.7951
  484THF     C8 8227   5.104   0.016   3.258  0.4184  0.3766 -0.0726
  484THF     C9 8228   5.231  -0.016   3.184  1.1979  0.4908  0.2769
  484THF    H10 8229   5.053   0.092   3.199 -0.9751 -1.0299 -0.7583
  484THF    H11 8230   5.028  -0.060   3.279  0.2478  0.8560  1.1410
  484THF    H12 8231   5.274  -0.114   3.207  1.4019  0.0903 -1.6513
  484THF    H13 8232   5.204  -0.017   3.078  0.6432  1.1550  0.4057
  485THF     O1 8233   4.022   1.263   3.439 -0.3595 -0.7353 -0.2125
  485THF     C2 8234   3.880   1.249   3.441  0.1257  0.1103  0.0520
  485THF     C3 8235   4.057   1.309   3.311 -0.0751  0.6020 -0.6083
  485THF     H4 8236   3.844   1.302   3.529 -0.7529 -0.4761  0.0679
  485THF     H5 8237   3.856   1.143   3.456  1.0899  0.0251  1.1563
  485THF     H6 8238   4.086   1.414   3.312  1.8441  0.3720 -5.3088
  485THF     H7 8239   4.150   1.262   3.279 -1.5033 -1.7194 -1.6056
  485THF     C8 8240   3.932   1.306   3.223  0.0862  0.0355 -0.0917
  485THF     C9 8241   3.823   1.322   3.324 -0.0521 -0.0081 -0.2998
  485THF    H10 8242   3.917   1.216   3.162  5.4357 -0.1102 -1.6727
  485THF    H11 8243   3.922   1.389   3.153  1.9185 -1.5085 -2.3581
  485THF    H12 8244   3.792   1.417   3.368  2.2557  0.9121 -0.5299
  485THF    H13 8245   3.733   1.269   3.293  0.6508 -0.4546 -1.6140
  486THF     O1 8246   5.312   2.810   3.602  0.1029 -0.1387 -0.7082
  486THF     C2 8247   5.371   2.714   3.514 -0.5366  0.2849  0.4492
  486THF     C3 8248   5.235   2.897   3.516 -0.5614  0.2358  0.5180
  486THF     H4 8249   5.394   2.624   3.572  4.9437  1.8164  1.2349
  486THF     H5 8250   5.466   2.749   3.476  0.7424 -1.6899  1.6442
  486THF     H6 8251   5.172   2.955   3.584 -0.9917 -0.5345  0.7805
  486THF     H7 8252   5.288   2.971   3.456 -1.6431 -1.2228 -2.4126
  486THF     C8 8253   5.161   2.798   3.429 -0.5089 -0.7470 -0.0958
  486THF     C9 8254   5.262   2.687   3.415  0.2241  0.0193 -0.0396
  486THF    H10 8255   5.132   2.851   3.338 -0.5747 -0.4034  0.1245
  486THF    H11 8256   5.066   2.765   3.471  0.1615 -1.6459  0.7481
  486THF    H12 8257   5.211   2.596   3.447 -2.8457  1.6772  0.1630
  486THF    H13 8258   5.299   2.660   3.316 -0.6830 -1.8106  0.0814
  487THF     O1 8259   0.247   3.375   0.120  0.2314  0.2485 -0.8170
  487THF     C2 8260   0.245   3.384   0.261 -0.0816  0.6538 -0.3428
  487THF     C3 8261   0.113   3.402   0.081 -0.5276  0.3243  0.1571
  487THF     H4 8262   0.257   3.490   0.284  2.5087  0.5083 -0.7194
  487THF     H5 8263   0.327   3.327   0.305 -0.5651 -0.1480 -0.4466
  487THF     H6 8264   0.087   3.501   0.043 -1.9706 -0.1084 -0.0484
  487THF     H7 8265   0.087   3.331   0.003  1.6340 -2.4702  1.7724
  487THF     C8 8266   0.022   3.385   0.200 -0.0500 -0.2308 -0.2807
  487THF     C9 8267   0.111   3.326   0.314 -0.4171 -0.9233  0.3981
  487THF    H10 8268  -0.062   3.323   0.169 -0.3110  0.0580 -0.1642
  487THF    H11 8269  -0.025   3.478   0.232  1.4910  0.7371 -0.7411
  487THF    H12 8270   0.090   3.368   0.413  1.3015  0.8938  0.0595
  487THF    H13 8271   0.103   3.217   0.321 -3.5776 -0.6682  3.4644
  488THF     O1 8272   2.496   0.172   0.771  0.7488 -0.4633  0.3552
  488THF     C2 8273   2.435   0.300   0.768 -0.9798  0.0081  0.0871
  488THF     C3 8274   2.475   0.115   0.642 -0.1904 -0.2088 -0.9400
  488THF     H4 8275   2.496   0.366   0.829 -2.1007  2.1788 -1.0456
  488THF     H5 8276   2.335   0.285   0.811 -0.4647 -2.2807  0.6132
  488THF     H6 8277   2.541   0.030   0.626 -2.2906 -2.0010 -0.5567
  488THF     H7 8278   2.375   0.075   0.629 -0.5145 -0.2237  1.2763
  488THF     C8 8279   2.499   0.234   0.548 -0.4202  0.3043  0.2355
  488THF     C9 8280   2.442   0.351   0.626 -0.6463 -0.4788  0.2037
  488THF    H10 8281   2.477   0.240   0.442 -1.8758  3.8442  0.6188
  488THF    H11 8282   2.607   0.248   0.550 -0.4288  0.3072  1.6710
  488THF    H12 8283   2.508   0.438   0.620  1.5615 -2.1373 -1.1253
  488THF    H13 8284   2.345   0.387   0.592 -0.1649 -1.0966 -1.9907
  489THF     O1 8285   2.633   2.050   2.629  0.6549  0.1695  0.2118
  489THF     C2 8286   2.698   1.966   2.725  0.3638 -0.4306  0.6526
  489THF     C3 8287   2.691   2.177   2.628 -0.1979 -1.0714 -0.3469
  489THF     H4 8288   2.671   1.860   2.717 -1.8878  0.1681 -1.0170
  489THF     H5 8289   2.663   2.000   2.822  0.4604 -1.0665  0.9181
  489THF     H6 8290   2.665   2.229   2.536 -0.1819  0.3409  0.4303
  489THF     H7 8291   2.654   2.231   2.714  1.1636 -1.0733  0.2608
  489THF     C8 8292   2.836   2.148   2.656 -0.0703  0.6756  0.4116
  489THF     C9 8293   2.839   2.000   2.697  0.4662 -0.2033  0.0049
  489THF    H10 8294   2.879   2.202   2.740  0.2871 -0.9117  1.2703
  489THF    H11 8295   2.902   2.148   2.569  0.0308 -1.5849  0.4393
  489THF    H12 8296   2.873   1.940   2.612  0.0601 -0.4000 -0.0181
  489THF    H13 8297   2.911   1.990   2.778  2.2148 -0.4245 -1.5045
  490THF     O1 8298   5.074   1.383   0.724  0.9563  0.8109 -0.3564
  490THF     C2 8299   5.105   1.300   0.838  0.5758 -0.0476  0.1964
  490THF     C3 8300   5.134   1.508   0.742 -0.0071 -0.9259 -0.1536
  490THF     H4 8301   5.203   1.256   0.814  0.5307  0.5367 -1.1424
  490THF     H5 8302   5.025   1.231   0.866 -0.4949  0.6990 -0.9262
  490THF     H6 8303   5.240   1.514   0.719  0.8161 -1.2623  3.0239
  490THF     H7 8304   5.084   1.583   0.681  0.3436 -0.7456 -0.2197
  490THF     C8 8305   5.118   1.532   0.896 -1.0114 -0.2142 -0.0945
  490THF     C9 8306   5.124   1.397   0.957 -0.2186 -0.2048 -0.5665
  490THF    H10 8307   5.018   1.570   0.915 -2.1883 -3.2613  0.4499
  490THF    H11 8308   5.187   1.603   0.942 -0.7961 -0.5868  0.1603
  490THF    H12 8309   5.222   1.385   1.004  0.0037  2.4474 -0.1972
  490THF    H13 8310   5.047   1.389   1.033 -0.8478  0.2666 -1.1450
  491THF     O1 8311   4.693   1.287   4.267 -0.6345  0.3145  0.7741
  491THF     C2 8312   4.590   1.191   4.293  0.2537 -1.0097  1.3146
  491THF     C3 8313   4.784   1.285   4.378 -0.0090  0.4423 -0.0678
  491THF     H4 8314   4.524   1.178   4.208  0.6004  2.0690  0.4193
  491THF     H5 8315   4.530   1.237   4.372  0.9441 -0.3336  1.4591
  491THF     H6 8316   4.885   1.305   4.341  0.5554  1.4792  1.8916
  491THF     H7 8317   4.748   1.359   4.450 -0.2034  0.4297 -0.1501
  491THF     C8 8318   4.765   1.141   4.433  0.3759 -0.4907  0.3301
  491THF     C9 8319   4.669   1.075   4.345 -0.5992 -0.2771 -0.8546
  491THF    H10 8320   4.737   1.163   4.536 -0.9674 -0.3672 -0.0429
  491THF    H11 8321   4.860   1.089   4.442  0.7875  0.3684  1.2624
  491THF    H12 8322   4.725   1.044   4.256  3.6963 -0.2016  1.5504
  491THF    H13 8323   4.616   0.996   4.397  2.2721 -2.8143 -1.4956
  492THF     O1 8324   1.849   3.538   4.367  0.4826 -0.6773  0.0901
  492THF     C2 8325   1.849   3.661   4.439  0.4679  0.2253 -0.2119
  492THF     C3 8326   1.780   3.551   4.243  0.9066  0.6005 -0.7802
  492THF     H4 8327   1.949   3.681   4.477  1.0199 -0.4287 -1.2787
  492THF     H5 8328   1.782   3.648   4.524  1.4398 -0.0198  0.5217
  492THF     H6 8329   1.823   3.471   4.183 -0.1971 -0.5508 -0.0786
  492THF     H7 8330   1.671   3.543   4.246  1.0380 -1.9309 -0.2299
  492THF     C8 8331   1.822   3.683   4.207  0.3156  0.2419 -0.5166
  492THF     C9 8332   1.800   3.756   4.332  0.3343 -0.0896  0.5331
  492THF    H10 8333   1.756   3.720   4.129 -1.4232 -0.4469  0.5509
  492THF    H11 8334   1.927   3.694   4.181  0.7138  0.4547  1.0687
  492THF    H12 8335   1.853   3.852   4.329 -0.2940  0.2338 -0.7295
  492THF    H13 8336   1.695   3.782   4.338  0.5039  0.6478  0.4449
  493THF     O1 8337   3.670   4.256   5.204  0.2951  0.0207  0.1993
  493THF     C2 8338   3.565   4.167   5.162 -0.0090 -0.2701 -0.1468
  493THF     C3 8339   3.628   4.313   5.327 -0.0682 -0.3704 -0.1662
  493THF     H4 8340   3.614   4.097   5.095  0.7835  0.3828 -0.2679
  493THF     H5 8341   3.486   4.225   5.114  0.2015 -0.4053 -0.6531
  493THF     H6 8342   3.718   4.355   5.372  1.6493 -1.0860 -2.7490
  493THF     H7 8343   3.552   4.387   5.301 -2.0613 -2.4912 -0.7298
  493THF     C8 8344   3.565   4.197   5.408  0.1905  0.4736 -0.8165
  493THF     C9 8345   3.511   4.110   5.296 -0.8397 -0.3433  0.1800
  493THF    H10 8346   3.486   4.239   5.472  0.2377  0.0303 -0.4607
  493THF    H11 8347   3.627   4.134   5.472 -1.2399  0.3724  0.5603
  493THF    H12 8348   3.548   4.008   5.305 -1.1560 -0.5198 -0.4749
  493THF    H13 8349   3.404   4.100   5.312 -1.3758  3.0937 -0.4083
  494THF     O1 8350   0.026   2.532   3.988  0.7041  0.6582  0.0657
  494THF     C2 8351  -0.105   2.579   3.976 -0.5761  0.2141 -0.7894
  494THF     C3 8352   0.034   2.482   4.123  0.1844 -0.5015  0.5382
  494THF     H4 8353  -0.135   2.581   3.871  2.1020  1.9036 -1.6213
  494THF     H5 8354  -0.097   2.686   3.995 -0.0343  0.3540 -1.7533
  494THF     H6 8355   0.130   2.432   4.132 -0.0198 -0.9277  0.4227
  494THF     H7 8356   0.039   2.568   4.189  0.9990 -0.8317  0.9123
  494THF     C8 8357  -0.105   2.412   4.153  0.2388 -0.0200  0.2790
  494THF     C9 8358  -0.199   2.494   4.063  0.1772  0.7949 -0.6998
  494THF    H10 8359  -0.132   2.412   4.258  2.1340  0.2468  0.8053
  494THF    H11 8360  -0.105   2.305   4.134  0.2496 -0.3681  2.1382
  494THF    H12 8361  -0.279   2.432   4.022  0.5220  0.4487 -0.8561
  494THF    H13 8362  -0.256   2.572   4.114 -1.5468  0.8765 -2.6306
  495THF     O1 8363   4.552   1.176   4.831 -0.2330  0.6184  0.0886
  495THF     C2 8364   4.548   1.310   4.844 -0.1572 -0.6984 -0.7195
  495THF     C3 8365   4.463   1.131   4.725 -0.0466 -0.6958 -0.1374
  495THF     H4 8366   4.641   1.362   4.870 -1.2839  0.4288  1.3785
  495THF     H5 8367   4.484   1.339   4.927  1.9830 -0.1215  0.8034
  495THF     H6 8368   4.514   1.057   4.662  2.1408  1.6905 -1.3537
  495THF     H7 8369   4.380   1.076   4.770  0.4189 -1.4699 -0.1951
  495THF     C8 8370   4.404   1.255   4.659 -0.1912 -0.3938  0.0492
  495THF     C9 8371   4.479   1.373   4.720 -0.2336  0.3008  0.6509
  495THF    H10 8372   4.297   1.248   4.675 -0.3897  1.3944 -0.3541
  495THF    H11 8373   4.422   1.252   4.552 -0.4203  0.5765 -0.0224
  495THF    H12 8374   4.536   1.436   4.652  0.8170 -0.4506  0.8092
  495THF    H13 8375   4.394   1.439   4.736 -1.3372 -0.8529 -0.2726
  496THF     O1 8376   0.498   4.798   3.365  0.0861  0.4070 -0.9801
  496THF     C2 8377   0.416   4.857   3.462 -0.0919  0.0493 -0.1279
  496THF     C3 8378   0.422   4.810   3.242 -0.0898  0.0656 -0.4246
  496THF     H4 8379   0.474   4.890   3.549  1.3685  0.6900 -1.2987
  496THF     H5 8380   0.341   4.781   3.482 -0.1561 -1.5267 -5.0752
  496THF     H6 8381   0.482   4.792   3.153 -0.6630 -0.1639 -0.7773
  496THF     H7 8382   0.346   4.732   3.232  0.0117 -0.1339  0.3247
  496THF     C8 8383   0.352   4.947   3.242 -0.4270  0.4311  0.7866
  496THF     C9 8384   0.363   4.978   3.389 -0.2252 -0.1604  0.2769
  496THF    H10 8385   0.251   4.929   3.206 -0.0580 -1.3521  0.5780
  496THF    H11 8386   0.395   5.024   3.177 -0.4297 -0.9486 -0.9137
  496THF    H12 8387   0.445   5.049   3.402 -0.3529  0.5804 -2.3467
  496THF    H13 8388   0.265   5.020   3.413  0.1969  1.7155 -1.0367
  497THF     O1 8389   4.110   1.674   1.897 -0.0546 -0.8154 -0.3934
  497THF     C2 8390   4.049   1.764   1.804  0.6411 -0.4961  0.0184
  497THF     C3 8391   4.164   1.751   2.008 -1.3382  0.1056 -0.3362
  497THF     H4 8392   3.950   1.727   1.778  0.6298 -1.5219  1.4111
  497THF     H5 8393   4.104   1.772   1.710  1.1846  0.0984  0.3750
  497THF     H6 8394   4.180   1.694   2.100 -1.1160  1.0236  0.2170
  497THF     H7 8395   4.266   1.770   1.975 -0.2258 -2.3216  1.3762
  497THF     C8 8396   4.076   1.873   2.016  0.8018  0.1163 -0.1958
  497THF     C9 8397   4.054   1.906   1.872  0.0724  0.1035 -0.2594
  497THF    H10 8398   4.114   1.963   2.063  0.1972  0.5331 -0.4922
  497THF    H11 8399   3.980   1.856   2.064 -0.3058  1.6406 -1.7588
  497THF    H12 8400   3.964   1.965   1.856  1.0602  1.0528 -3.0742
  497THF    H13 8401   4.142   1.956   1.830 -1.0350  1.4682 -1.0526
  498THF     O1 8402   2.280   2.493   2.642  0.0440 -0.3811  0.0153
  498THF     C2 8403   2.421   2.498   2.641 -0.3314 -0.1585  0.3089
  498THF     C3 8404   2.233   2.510   2.778 -0.2135 -0.5832  0.3439
  498THF     H4 8405   2.457   2.601   2.645 -2.1408  0.5296 -0.2483
  498THF     H5 8406   2.469   2.450   2.556  0.2652  2.1498 -0.7347
  498THF     H6 8407   2.192   2.611   2.778 -1.3152 -1.0158  0.2725
  498THF     H7 8408   2.154   2.435   2.791 -1.3262  0.4001 -0.4937
  498THF     C8 8409   2.360   2.490   2.861  0.2015  0.5712 -0.4003
  498THF     C9 8410   2.462   2.429   2.766  0.2741  0.4033  0.2629
  498THF    H10 8411   2.346   2.426   2.948  2.7477  0.4330  0.0092
  498THF    H11 8412   2.389   2.590   2.894 -0.4048  0.5792  0.1392
  498THF    H12 8413   2.560   2.467   2.793 -0.8139  1.3151  3.3613
  498THF    H13 8414   2.460   2.320   2.769 -0.7587  0.3829 -0.6059
  499THF     O1 8415   1.072   4.876   4.299 -0.3809 -0.3002 -0.3897
  499THF     C2 8416   1.203   4.912   4.352  0.2946 -0.3013  0.5498
  499THF     C3 8417   1.101   4.769   4.214  0.2365 -0.4208 -0.0893
  499THF     H4 8418   1.197   4.950   4.454  0.6051  1.2871  0.0087
  499THF     H5 8419   1.240   4.998   4.296 -0.5725  0.8348  1.6669
  499THF     H6 8420   1.012   4.710   4.190  0.9011 -2.4181  1.9451
  499THF     H7 8421   1.150   4.806   4.124 -0.3099 -0.4902 -0.4225
  499THF     C8 8422   1.200   4.689   4.293 -0.1398  1.1706 -0.4272
  499THF     C9 8423   1.292   4.794   4.334  0.2720  0.5585  0.6520
  499THF    H10 8424   1.248   4.617   4.227  0.7630  1.1846  0.1990
  499THF    H11 8425   1.163   4.642   4.385  0.9996  1.0885  0.0049
  499THF    H12 8426   1.357   4.772   4.418  1.3138  0.4576 -0.1598
  499THF    H13 8427   1.350   4.803   4.242 -1.0694 -0.9365 -0.3962
  500THF     O1 8428   4.545   0.752   4.323  0.3265 -0.0308  0.2055
  500THF     C2 8429   4.626   0.728   4.442 -0.2641 -0.0541  0.0760
  500THF     C3 8430   4.593   0.648   4.240  0.2237  0.3182  0.8135
  500THF     H4 8431   4.574   0.765   4.530  0.5958  0.1658  0.5045
  500THF     H5 8432   4.726   0.770   4.433  0.6745 -1.7887  1.7468
  500THF     H6 8433   4.526   0.632   4.155 -1.8696 -3.1430  2.8881
  500THF     H7 8434   4.691   0.687   4.214  0.6718  0.2428  2.3114
  500THF     C8 8435   4.606   0.526   4.321  0.4405 -0.0157  0.0838
  500THF     C9 8436   4.643   0.572   4.457  0.2393 -0.2846 -0.2187
  500THF    H10 8437   4.680   0.457   4.282  1.3603  0.8612  0.2374
  500THF    H11 8438   4.511   0.472   4.328 -0.3430  0.7092 -3.2735
  500THF    H12 8439   4.577   0.530   4.533  1.1900  0.0823  0.8386
  500THF    H13 8440   4.744   0.543   4.487  0.0179 -0.8125  0.0310
  501THF     O1 8441   2.174   4.729   5.466  0.5770  0.1807 -0.0331
  501THF     C2 8442   2.259   4.794   5.369 -0.1176 -0.5845 -0.3042
  501THF     C3 8443   2.240   4.751   5.586 -0.3536  0.6096  0.1674
  501THF     H4 8444   2.196   4.819   5.284  1.7380  2.6754 -0.8593
  501THF     H5 8445   2.345   4.733   5.343  0.1706 -0.8421  1.1559
  501THF     H6 8446   2.158   4.727   5.655 -0.9940  0.7784 -0.5232
  501THF     H7 8447   2.330   4.691   5.601  0.6726  2.0970  0.1684
  501THF     C8 8448   2.274   4.896   5.593 -0.0219 -0.1738  0.1925
  501THF     C9 8449   2.295   4.923   5.440 -1.0114 -0.1086  0.6120
  501THF    H10 8450   2.362   4.917   5.653 -0.4182  0.6946  0.4900
  501THF    H11 8451   2.190   4.958   5.626  0.3083  0.5407 -0.2711
  501THF    H12 8452   2.238   5.008   5.403  0.6589 -0.1060 -2.2377
  501THF    H13 8453   2.398   4.949   5.415 -1.5417 -1.7015 -4.3200
  502THF     O1 8454   1.534   5.378   0.233  0.7834 -0.1541  0.3089
  502THF     C2 8455   1.518   5.344   0.095  0.0682 -0.4735 -0.6564
  502THF     C3 8456   1.506   5.525   0.240 -0.6191  0.2844  0.0531
  502THF     H4 8457   1.521   5.235   0.089  0.0618 -0.3880 -2.9582
  502THF     H5 8458   1.619   5.364   0.060  1.1909 -0.0488  2.4797
  502THF     H6 8459   1.481   5.569   0.336  0.7986  2.7193 -0.5917
  502THF     H7 8460   1.593   5.583   0.208 -1.6773 -0.0480 -4.0822
  502THF     C8 8461   1.402   5.545   0.126 -0.1388 -0.9888  0.0462
  502THF     C9 8462   1.415   5.427   0.030  0.2779  0.0524  0.0619
  502THF    H10 8463   1.403   5.642   0.076 -0.8257 -1.3917 -0.7561
  502THF    H11 8464   1.302   5.547   0.169 -0.4972 -2.6704 -0.6600
  502THF    H12 8465   1.323   5.369   0.022 -0.8295  1.6950  0.3950
  502THF    H13 8466   1.443   5.460  -0.070  2.9785  1.6804  1.2488
  503THF     O1 8467   4.161   1.998   3.698  0.4392 -0.0590  0.8700
  503THF     C2 8468   4.063   2.082   3.634  0.0803 -0.5521 -1.0351
  503THF     C3 8469   4.284   2.065   3.691 -0.6942  0.3190 -1.2188
  503THF     H4 8470   4.030   2.155   3.708  2.4846 -0.3018 -0.1167
  503THF     H5 8471   3.980   2.025   3.592 -1.3216 -0.0130  0.9017
  503THF     H6 8472   4.314   2.110   3.786  1.2899 -1.8045 -0.7534
  503THF     H7 8473   4.354   1.988   3.657 -1.4149 -0.7851 -0.2665
  503THF     C8 8474   4.276   2.165   3.584 -0.0358 -0.0360 -1.0265
  503THF     C9 8475   4.144   2.155   3.526 -0.1366 -0.0387  0.8392
  503THF    H10 8476   4.356   2.151   3.510  0.6821  2.1158 -0.7242
  503THF    H11 8477   4.295   2.255   3.642  2.8008 -0.6964 -0.7741
  503THF    H12 8478   4.093   2.249   3.503  1.2717  0.4521 -0.4012
  503THF    H13 8479   4.152   2.103   3.431 -2.0076  2.8828 -1.0805
  504THF     O1 8480   2.607   2.313   1.043 -0.1628  0.0239 -0.5303
  504THF     C2 8481   2.563   2.419   1.134 -0.0901 -0.0809 -0.3117
  504THF     C3 8482   2.570   2.362   0.918 -0.3746  0.0005 -0.2542
  504THF     H4 8483   2.630   2.422   1.221 -0.4822 -2.2321  0.1243
  504THF     H5 8484   2.472   2.399   1.190 -0.5226 -0.2618 -1.0667
  504THF     H6 8485   2.621   2.299   0.845 -1.5231 -0.9242 -0.2817
  504THF     H7 8486   2.464   2.352   0.893 -0.6668  3.3757 -0.8538
  504THF     C8 8487   2.620   2.508   0.917  0.3374  0.4879  0.0984
  504THF     C9 8488   2.573   2.548   1.056  0.1260 -0.2010 -0.2464
  504THF    H10 8489   2.584   2.564   0.831 -1.7339 -1.0644 -0.1269
  504THF    H11 8490   2.729   2.507   0.915  0.4045  2.7905 -1.1955
  504THF    H12 8491   2.635   2.622   1.106 -1.6580  0.5093  1.0640
  504THF    H13 8492   2.475   2.595   1.053 -0.6777 -1.6530  1.1623
  505THF     O1 8493   3.127   5.076   1.302 -0.7125  0.3633 -0.6675
  505THF     C2 8494   3.232   5.003   1.379 -0.2444  0.5693 -0.5371
  505THF     C3 8495   3.187   5.199   1.255 -0.1741  0.2712  0.1747
  505THF     H4 8496   3.219   4.895   1.371  0.0565  0.4856  0.0710
  505THF     H5 8497   3.227   5.041   1.480 -1.0710  0.4572 -0.5321
  505THF     H6 8498   3.132   5.231   1.167  1.3611  1.1555 -0.5050
  505THF     H7 8499   3.176   5.276   1.331 -0.4346 -0.3416  0.7731
  505THF     C8 8500   3.333   5.164   1.225  0.5217 -0.3981  0.3053
  505THF     C9 8501   3.364   5.048   1.318 -0.4211  0.7789  0.4933
  505THF    H10 8502   3.392   5.256   1.228  0.3564 -0.1970 -1.5625
  505THF    H11 8503   3.345   5.137   1.120 -1.0480 -1.0825  0.2779
  505THF    H12 8504   3.420   4.970   1.266  0.1483  1.4752  0.0488
  505THF    H13 8505   3.433   5.079   1.397  0.2523 -0.2797  0.3404
  506THF     O1 8506   3.708   2.103   3.200  0.0056 -0.1586 -1.1266
  506THF     C2 8507   3.828   2.156   3.242  0.7470  0.5341  0.2749
  506THF     C3 8508   3.675   2.144   3.067  0.1570  0.3504 -0.5603
  506THF     H4 8509   3.871   2.087   3.314  0.5622  0.4766  0.3277
  506THF     H5 8510   3.820   2.255   3.286 -0.1543  1.3387 -1.5611
  506THF     H6 8511   3.603   2.077   3.019 -1.3654  0.7093  1.1011
  506THF     H7 8512   3.632   2.244   3.072  0.9620  0.7860 -1.8532
  506THF     C8 8513   3.815   2.135   3.003  0.1008 -0.8800 -0.1733
  506THF     C9 8514   3.915   2.169   3.112  0.4983 -0.9011  0.2597
  506THF    H10 8515   3.823   2.201   2.917 -0.7942 -1.9293 -1.0891
  506THF    H11 8516   3.837   2.033   2.971 -0.7397 -0.5415 -1.9839
  506THF    H12 8517   3.996   2.096   3.107 -0.0214 -1.4282 -0.9462
  506THF    H13 8518   3.958   2.267   3.089 -0.2925 -1.0051 -2.0173
  507THF     O1 8519   0.136   3.404   5.016  0.3003  0.6710  0.6022
  507THF     C2 8520   0.080   3.417   5.148  0.5111 -0.7629  0.7397
  507THF     C3 8521   0.134   3.533   4.949 -0.7928 -0.4356  0.9132
  507THF     H4 8522   0.079   3.337   5.222 -0.5675 -1.3307  0.1260
  507THF     H5 8523  -0.025   3.442   5.131  1.1669  0.7892 -1.3719
  507THF     H6 8524   0.205   3.532   4.866  0.5779 -0.1864  2.0481
  507THF     H7 8525   0.039   3.572   4.914 -1.0758 -1.6987  0.2012
  507THF     C8 8526   0.191   3.615   5.062 -0.2674  0.0867  0.0816
  507THF     C9 8527   0.158   3.535   5.191 -0.1803 -0.2560  0.2199
  507THF    H10 8528   0.157   3.718   5.066 -0.6315 -0.0717  1.9969
  507THF    H11 8529   0.297   3.630   5.042  0.0116 -1.4736  0.2432
  507THF    H12 8530   0.251   3.502   5.237  1.7582 -0.1429 -3.3194
  507THF    H13 8531   0.100   3.592   5.264 -0.9041 -1.1069  0.3376
  508THF     O1 8532   2.801   5.277   0.595 -0.2154 -0.2734 -0.4209
  508THF     C2 8533   2.876   5.398   0.593 -0.1525 -0.6508  0.2091
  508THF     C3 8534   2.705   5.285   0.497  0.1226  0.3775  0.4401
  508THF     H4 8535   2.975   5.385   0.638  0.0215 -2.5814 -0.6649
  508THF     H5 8536   2.811   5.475   0.636  0.7188 -0.1388  0.6480
  508THF     H6 8537   2.684   5.182   0.469 -0.3295  0.0702  1.8129
  508THF     H7 8538   2.613   5.338   0.523 -1.3681 -2.0297  0.4069
  508THF     C8 8539   2.769   5.372   0.386 -0.2824  0.3343 -1.3393
  508THF     C9 8540   2.896   5.423   0.442 -0.1938  0.4130 -0.0042
  508THF    H10 8541   2.700   5.449   0.351 -0.5789 -0.1471 -1.8243
  508THF    H11 8542   2.787   5.308   0.300  0.1061 -1.3294 -0.0755
  508THF    H12 8543   2.984   5.367   0.411  0.1374 -1.0666  3.2382
  508THF    H13 8544   2.917   5.527   0.414  0.1806  0.9342  2.0288
  509THF     O1 8545   2.724   4.750   4.061  0.2780  0.2137 -0.3954
  509THF     C2 8546   2.650   4.863   4.104 -0.2823  0.3633 -0.1500
  509THF     C3 8547   2.808   4.712   4.162  0.0920  0.4107  0.1855
  509THF     H4 8548   2.559   4.829   4.154 -0.4571 -0.0291 -0.7228
  509THF     H5 8549   2.615   4.913   4.015 -0.6369 -1.1788 -0.9167
  509THF     H6 8550   2.757   4.662   4.244  1.4665  0.5562  1.1617
  509THF     H7 8551   2.885   4.641   4.133  1.0211 -0.2317  3.7092
  509THF     C8 8552   2.871   4.845   4.210 -0.5571 -0.6709  0.8996
  509THF     C9 8553   2.756   4.939   4.182 -0.1907 -0.0997 -0.2593
  509THF    H10 8554   2.952   4.877   4.144 -2.0753  0.4121 -0.5046
  509THF    H11 8555   2.894   4.855   4.316  1.2971 -0.0540  0.4787
  509THF    H12 8556   2.717   4.985   4.273  1.1733  2.4391 -0.8581
  509THF    H13 8557   2.792   5.035   4.144  0.0376  0.1434  0.5488
  510THF     O1 8558   5.061   0.449   0.814 -0.0014 -0.2172 -0.3865
  510THF     C2 8559   4.974   0.367   0.902 -0.0547 -0.3907  0.5067
  510THF     C3 8560   4.988   0.566   0.770 -0.1039  0.2863 -0.1592
  510THF     H4 8561   5.021   0.356   1.000 -0.1593 -2.7650  0.3460
  510THF     H5 8562   4.953   0.266   0.868  0.6634 -0.2172 -0.5190
  510THF     H6 8563   5.019   0.651   0.830 -1.3220 -0.6774  1.9613
  510THF     H7 8564   5.013   0.582   0.665  2.0339 -4.0549 -0.5569
  510THF     C8 8565   4.844   0.531   0.792  0.2932  0.2915 -0.5196
  510THF     C9 8566   4.851   0.451   0.926 -0.2730 -0.5301 -0.1203
  510THF    H10 8567   4.803   0.468   0.713  0.5784  1.4286 -1.6069
  510THF    H11 8568   4.781   0.620   0.802  3.4297  2.5260  1.1931
  510THF    H12 8569   4.872   0.531   0.997 -0.4788 -1.1343  0.6430
  510THF    H13 8570   4.762   0.391   0.947  0.4834 -2.0873 -1.2033
  511THF     O1 8571   1.226   2.118   3.439 -0.8513  0.4763  0.2353
  511THF     C2 8572   1.271   2.000   3.504 -0.1756  0.9371  0.1564
  511THF     C3 8573   1.328   2.213   3.464  0.3392  0.8120  0.5810
  511THF     H4 8574   1.233   1.908   3.459  2.4202  0.3745 -1.0670
  511THF     H5 8575   1.250   2.016   3.610 -1.0818 -0.0270  0.1426
  511THF     H6 8576   1.325   2.295   3.393  2.0974  0.2866 -0.1689
  511THF     H7 8577   1.316   2.253   3.564 -0.6328  0.1804  0.7306
  511THF     C8 8578   1.465   2.140   3.440  0.2715  0.0353  0.0797
  511THF     C9 8579   1.426   2.004   3.490  0.6179  0.1190  0.0067
  511THF    H10 8580   1.543   2.191   3.496 -0.4299  0.0330  1.0811
  511THF    H11 8581   1.497   2.130   3.336  2.4996 -2.5850  0.9196
  511THF    H12 8582   1.465   1.925   3.426  0.9162 -0.3924  0.7992
  511THF    H13 8583   1.468   1.981   3.588  0.6048 -0.0541 -0.0279
  512THF     O1 8584   5.433   1.328   4.332 -0.0444  0.1226 -0.6094
  512THF     C2 8585   5.324   1.408   4.284  0.2069 -0.2174 -0.4486
  512THF     C3 8586   5.538   1.427   4.365 -0.3717  0.4040 -0.0639
  512THF     H4 8587   5.229   1.360   4.311  0.7643 -1.0133  0.1795
  512THF     H5 8588   5.346   1.414   4.178 -1.6819 -0.3645 -0.8890
  512THF     H6 8589   5.599   1.383   4.444 -1.8485 -1.7436 -0.0207
  512THF     H7 8590   5.601   1.436   4.277 -0.4244  0.9396 -0.0498
  512THF     C8 8591   5.470   1.554   4.415  0.3251 -0.5008  0.0003
  512THF     C9 8592   5.334   1.545   4.356  0.0340  0.1574  0.0849
  512THF    H10 8593   5.526   1.638   4.376 -0.7993  0.1721 -0.2066
  512THF    H11 8594   5.465   1.545   4.524  2.7111 -1.6449  0.0827
  512THF    H12 8595   5.265   1.549   4.440 -0.4361 -0.6167 -0.2506
  512THF    H13 8596   5.329   1.626   4.284  1.7393 -1.0582 -1.4896
  513THF     O1 8597   4.294   5.082   4.574 -0.3786  0.4690 -0.1771
  513THF     C2 8598   4.343   5.027   4.699  0.3472  0.8309  0.1013
  513THF     C3 8599   4.373   5.199   4.538 -0.3285  1.1188  0.1492
  513THF     H4 8600   4.386   4.933   4.666  0.2887  1.4014 -1.7096
  513THF     H5 8601   4.256   5.004   4.760 -0.5535  1.2486 -0.9913
  513THF     H6 8602   4.394   5.210   4.432  0.0451  2.1325  0.3197
  513THF     H7 8603   4.318   5.289   4.565  1.3529  2.9543 -2.2259
  513THF     C8 8604   4.494   5.180   4.635  0.6073 -0.5595 -0.3591
  513THF     C9 8605   4.436   5.126   4.759  0.1751 -0.3897  0.2872
  513THF    H10 8606   4.543   5.276   4.651 -0.6104  0.1226 -0.5748
  513THF    H11 8607   4.556   5.101   4.593 -0.0039 -0.8991 -0.6491
  513THF    H12 8608   4.501   5.087   4.838 -0.0943  1.0940  1.2907
  513THF    H13 8609   4.375   5.203   4.807  0.7905  0.2111  0.1241
  514THF     O1 8610   0.031   0.949   4.533  0.0568  0.2160 -0.3628
  514THF     C2 8611  -0.013   0.825   4.575  0.3252  0.2564 -0.1477
  514THF     C3 8612   0.002   1.048   4.637  0.5195  0.4955 -0.7905
  514THF     H4 8613   0.058   0.742   4.576  1.9674  1.5964  1.5895
  514THF     H5 8614  -0.095   0.802   4.508  0.7302 -2.2862  0.1292
  514THF     H6 8615   0.084   1.113   4.666  1.5216 -0.9501 -0.2546
  514THF     H7 8616  -0.086   1.103   4.606 -0.9940 -0.3749  1.6955
  514THF     C8 8617  -0.032   0.970   4.763  0.1429  0.0457  0.2602
  514THF     C9 8618  -0.084   0.835   4.717  0.1681 -0.7607  0.4114
  514THF    H10 8619  -0.114   1.015   4.819 -1.2982 -1.0880 -0.8564
  514THF    H11 8620   0.060   0.970   4.821  0.9672 -2.6444 -0.8448
  514THF    H12 8621  -0.063   0.755   4.788  1.1212  0.3275  1.4034
  514THF    H13 8622  -0.193   0.838   4.719  0.1759 -0.6529  0.9222
  515THF     O1 8623   0.619   4.594   0.653  0.0340 -0.2252  0.3338
  515THF     C2 8624   0.616   4.623   0.514  0.4725 -0.1331 -0.7402
  515THF     C3 8625   0.497   4.520   0.670  0.6715 -0.2590 -0.1417
  515THF     H4 8626   0.719   4.651   0.495  1.3296 -0.7978  2.2531
  515THF     H5 8627   0.549   4.705   0.487 -0.6257 -1.0727 -0.9484
  515THF     H6 8628   0.466   4.476   0.765 -0.3956 -1.0159 -0.8327
  515THF     H7 8629   0.419   4.596   0.672  0.1899 -0.6568 -2.1286
  515THF     C8 8630   0.494   4.419   0.558  0.2238 -0.0686 -0.1290
  515THF     C9 8631   0.575   4.495   0.447 -0.0586 -0.0835  0.3480
  515THF    H10 8632   0.390   4.393   0.535 -0.7112  0.8424  2.6735
  515THF    H11 8633   0.552   4.327   0.571 -0.5780 -0.7247 -1.0018
  515THF    H12 8634   0.669   4.442   0.428 -0.6150 -0.9326 -0.0849
  515THF    H13 8635   0.527   4.514   0.352  2.4400 -0.6743 -1.1126
  516THF     O1 8636   3.964   3.520   2.520  0.1634 -0.7406  0.1396
  516THF     C2 8637   4.049   3.407   2.520 -0.5482 -0.5018  0.1642
  516THF     C3 8638   3.931   3.562   2.386  0.8005 -0.1625  0.2316
  516THF     H4 8639   4.003   3.313   2.489  1.3211 -1.3294 -0.2849
  516THF     H5 8640   4.097   3.388   2.616 -0.2846  1.3473  0.4250
  516THF     H6 8641   3.841   3.520   2.341  0.9489  0.1820 -0.4096
  516THF     H7 8642   3.917   3.670   2.387  2.6793  0.1175  0.7578
  516THF     C8 8643   4.055   3.520   2.302 -0.7734  0.2318  0.1274
  516THF     C9 8644   4.141   3.443   2.402 -0.0248 -0.7465 -0.0549
  516THF    H10 8645   4.115   3.596   2.253 -2.2982  0.9651 -0.6526
  516THF    H11 8646   4.028   3.438   2.236  1.8524 -2.6136  2.2417
  516THF    H12 8647   4.177   3.352   2.354  0.6284 -0.8499  0.6077
  516THF    H13 8648   4.225   3.503   2.436 -0.6207 -0.0966  0.2934
  517THF     O1 8649   5.160   2.999   1.760 -0.8449 -1.2444 -0.1430
  517THF     C2 8650   5.221   3.094   1.670 -0.1163 -0.4136 -0.5125
  517THF     C3 8651   5.040   2.947   1.709 -0.3876 -0.2333  0.2792
  517THF     H4 8652   5.327   3.092   1.693 -0.2723 -3.5247  0.3510
  517THF     H5 8653   5.183   3.196   1.684  0.4136  0.0583 -2.3348
  517THF     H6 8654   5.026   2.841   1.730 -0.8863  0.0028  1.1793
  517THF     H7 8655   4.956   3.003   1.752 -1.2864 -1.4354  0.1523
  517THF     C8 8656   5.050   2.971   1.556  0.1781  0.2570 -0.5723
  517THF     C9 8657   5.191   3.022   1.536 -0.2317  0.0577  0.1670
  517THF    H10 8658   4.985   3.051   1.521 -0.4159  0.6322  1.2741
  517THF    H11 8659   5.030   2.882   1.496  0.1481 -0.3851  0.3805
  517THF    H12 8660   5.256   2.935   1.527  0.9252  0.7762  1.2311
  517THF    H13 8661   5.196   3.085   1.448  0.9611 -0.1617  0.0568
  518THF     O1 8662   3.649   1.447   1.950  0.1134 -0.1108  0.1372
  518THF     C2 8663   3.647   1.514   2.080 -0.2709 -0.0872  0.2517
  518THF     C3 8664   3.785   1.445   1.905  0.6525 -0.4384  0.7548
  518THF     H4 8665   3.561   1.498   2.145  0.3907 -0.3423  1.0878
  518THF     H5 8666   3.643   1.622   2.063 -0.9361 -0.5652 -3.5421
  518THF     H6 8667   3.789   1.345   1.861 -1.0383 -0.1160 -0.2132
  518THF     H7 8668   3.794   1.522   1.828 -2.0962 -0.0861  0.6863
  518THF     C8 8669   3.873   1.451   2.029  0.3090  0.3630 -0.6997
  518THF     C9 8670   3.778   1.464   2.146 -1.3356  0.2314  0.4171
  518THF    H10 8671   3.949   1.529   2.026  1.3506 -0.5519  0.4439
  518THF    H11 8672   3.928   1.357   2.027 -0.4932 -0.1289 -0.3302
  518THF    H12 8673   3.761   1.369   2.196  0.8116 -0.3422  0.1351
  518THF    H13 8674   3.819   1.532   2.221  2.1778 -1.4297  0.1730
  519THF     O1 8675   1.641   0.326   4.154  0.1611 -0.4030  0.0263
  519THF     C2 8676   1.603   0.316   4.292  0.6339  0.0578  0.2400
  519THF     C3 8677   1.583   0.441   4.097  0.6870 -0.5441  0.2733
  519THF     H4 8678   1.658   0.378   4.362 -2.4492  3.1258  0.1776
  519THF     H5 8679   1.618   0.215   4.330  0.6304  0.1720  0.5407
  519THF     H6 8680   1.661   0.516   4.092  0.6827 -0.1804  3.3919
  519THF     H7 8681   1.550   0.422   3.995 -0.0530 -2.5643  0.8316
  519THF     C8 8682   1.477   0.489   4.202 -0.1355  0.1342 -0.3577
  519THF     C9 8683   1.465   0.381   4.302  0.4168  0.0468 -0.1315
  519THF    H10 8684   1.375   0.512   4.174 -0.9486 -1.8492  0.7751
  519THF    H11 8685   1.509   0.577   4.257  1.7062  0.5211 -1.8946
  519THF    H12 8686   1.452   0.414   4.406  0.8782  0.0458 -0.0694
  519THF    H13 8687   1.396   0.300   4.279  1.0230 -0.7084  0.6501
  520THF     O1 8688   0.899   2.546   0.018 -0.0740  0.0723 -0.1272
  520THF     C2 8689   0.965   2.566   0.148  0.6338 -0.5472  0.2900
  520THF     C3 8690   0.799   2.642   0.004 -0.0919 -0.2469  0.1127
  520THF     H4 8691   1.053   2.630   0.155  0.4293 -0.3575  1.2213
  520THF     H5 8692   0.992   2.467   0.187 -2.4039 -0.6724  2.3594
  520THF     H6 8693   0.833   2.744  -0.013 -1.0153  0.0672  0.0446
  520THF     H7 8694   0.738   2.627  -0.085  1.1951  0.3866 -0.9111
  520THF     C8 8695   0.738   2.642   0.142 -0.2334  0.2262 -0.4070
  520THF     C9 8696   0.858   2.632   0.236  0.7655 -0.2727 -0.3907
  520THF    H10 8697   0.686   2.547   0.149 -1.5202  0.7854 -1.8961
  520THF    H11 8698   0.680   2.731   0.165  1.4968  1.1791  0.4602
  520THF    H12 8699   0.882   2.732   0.271 -3.3666  0.3785  1.0847
  520THF    H13 8700   0.831   2.576   0.325  1.0760  2.2497  1.3574
  521THF     O1 8701   0.327   3.329   2.560 -0.1632 -0.0143  0.6743
  521THF     C2 8702   0.337   3.352   2.702  0.1863 -0.5460  0.9937
  521THF     C3 8703   0.346   3.450   2.494  0.1595  0.3802 -0.0557
  521THF     H4 8704   0.415   3.287   2.742 -0.1790 -1.8766 -0.3832
  521THF     H5 8705   0.244   3.309   2.739 -0.8367 -1.9211 -2.7494
  521THF     H6 8706   0.398   3.435   2.399  1.6150  0.7490  0.6506
  521THF     H7 8707   0.245   3.489   2.479  0.2957  0.0213 -2.2358
  521THF     C8 8708   0.422   3.546   2.578  0.4065  0.0360  0.0523
  521THF     C9 8709   0.365   3.505   2.711  0.4073  0.3396  0.4979
  521THF    H10 8710   0.399   3.649   2.547 -0.9857  0.0427  1.0249
  521THF    H11 8711   0.530   3.530   2.572  0.5686 -0.1087  2.5694
  521THF    H12 8712   0.424   3.531   2.800 -1.3497  0.4628  1.6692
  521THF    H13 8713   0.273   3.562   2.710  1.8860  2.9753 -2.4173
  522THF     O1 8714   4.914   3.597   0.809  0.8017  0.1482  0.3223
  522THF     C2 8715   4.948   3.484   0.891  0.6356  0.2530  0.7772
  522THF     C3 8716   4.942   3.711   0.897  0.7367  0.5447 -0.4286
  522THF     H4 8717   5.057   3.481   0.891  0.7052 -1.9613 -2.1757
  522THF     H5 8718   4.905   3.390   0.856 -2.6317  1.1504  2.0278
  522THF     H6 8719   5.050   3.720   0.882  0.5839  0.5633 -1.6302
  522THF     H7 8720   4.899   3.804   0.860 -0.5371 -0.5259 -1.7428
  522THF     C8 8721   4.903   3.666   1.044  0.8387  0.0014  0.6278
  522THF     C9 8722   4.885   3.516   1.034 -0.7996 -0.2555 -0.2520
  522THF    H10 8723   4.806   3.695   1.085  0.1244 -2.2363  0.6375
  522THF    H11 8724   4.969   3.697   1.125 -0.4823 -1.8674  2.5436
  522THF    H12 8725   4.938   3.466   1.115  0.0445  1.6815  0.4490
  522THF    H13 8726   4.783   3.478   1.025  0.1149 -2.8398 -0.7040
  523THF     O1 8727   3.259   2.660   4.442 -0.0280  0.1715  0.6120
  523THF     C2 8728   3.199   2.750   4.348  0.3226 -0.6036  0.4041
  523THF     C3 8729   3.242   2.702   4.576 -0.1092  0.7412 -0.0356
  523THF     H4 8730   3.098   2.717   4.323 -0.0247  0.2964  0.6093
  523THF     H5 8731   3.256   2.765   4.256 -0.7078  0.6537 -0.0453
  523THF     H6 8732   3.154   2.656   4.622 -0.9464  1.6901 -0.6623
  523THF     H7 8733   3.324   2.655   4.631 -0.9514 -1.0811 -0.2355
  523THF     C8 8734   3.238   2.851   4.565 -0.4364  0.2698 -0.5482
  523THF     C9 8735   3.177   2.880   4.427  0.3476  0.8658 -0.1203
  523THF    H10 8736   3.340   2.887   4.577 -0.2556 -0.5081  0.3908
  523THF    H11 8737   3.191   2.895   4.653 -0.5469 -3.4930  1.4905
  523THF    H12 8738   3.072   2.903   4.440  0.2369  0.2067  0.1988
  523THF    H13 8739   3.233   2.967   4.395 -0.4867  1.2472 -0.5478
  524THF     O1 8740   4.908   4.171   2.564  0.5975 -0.0274  0.2226
  524THF     C2 8741   4.907   4.288   2.483 -0.2154  0.5334  0.2891
  524THF     C3 8742   4.837   4.065   2.501 -0.1551 -0.0298 -0.2888
  524THF     H4 8743   4.986   4.269   2.410 -0.8582 -0.7111 -0.1171
  524THF     H5 8744   4.922   4.374   2.548  1.2910  0.7341 -0.2584
  524THF     H6 8745   4.894   4.010   2.426 -0.5786  0.2666 -0.8245
  524THF     H7 8746   4.803   3.994   2.577  0.4949  0.2120  0.2458
  524THF     C8 8747   4.720   4.145   2.451  0.1807 -0.0075 -0.3378
  524THF     C9 8748   4.773   4.285   2.417 -0.5165  0.1871  0.6501
  524THF    H10 8749   4.647   4.151   2.532  1.6385 -1.6753  1.1823
  524THF    H11 8750   4.677   4.100   2.362  2.7619 -0.8909 -1.2177
  524THF    H12 8751   4.785   4.301   2.310  0.1787 -2.1369  0.3265
  524THF    H13 8752   4.712   4.356   2.474 -1.0433  0.8092 -0.6512
  525THF     O1 8753   3.376   0.476   2.606 -0.6838 -0.4442  0.6606
  525THF     C2 8754   3.424   0.393   2.712  0.4096  0.4174  0.3078
  525THF     C3 8755   3.405   0.608   2.663  0.1681 -0.6690  0.1714
  525THF     H4 8756   3.453   0.295   2.675  0.9143 -0.2216  2.2946
  525THF     H5 8757   3.346   0.396   2.788  0.9859 -0.3774  0.9452
  525THF     H6 8758   3.404   0.686   2.588  3.1795 -0.9196 -0.2462
  525THF     H7 8759   3.325   0.612   2.737  0.8885  0.3551  0.9221
  525THF     C8 8760   3.542   0.598   2.728 -0.0926 -0.7185  0.4272
  525THF     C9 8761   3.550   0.458   2.776  0.1937  0.2261  0.5244
  525THF    H10 8762   3.571   0.681   2.793  2.6446 -0.2244 -1.2863
  525THF    H11 8763   3.607   0.618   2.643  1.5650 -0.8530  1.6146
  525THF    H12 8764   3.641   0.409   2.740 -0.2143  0.0066 -0.2515
  525THF    H13 8765   3.532   0.462   2.883 -0.4979  0.3642  0.4068
  526THF     O1 8766   0.993   2.952   1.630  0.3934  0.4105  0.0182
  526THF     C2 8767   1.069   3.014   1.519 -0.1808 -0.0488  0.1123
  526THF     C3 8768   0.977   2.813   1.600 -0.5774 -0.1058 -0.4711
  526THF     H4 8769   1.158   3.067   1.551  0.3077 -0.2555 -0.8514
  526THF     H5 8770   0.988   3.083   1.497 -1.3602  0.1418  4.2034
  526THF     H6 8771   1.065   2.768   1.644  1.4153  1.6556 -2.4019
  526THF     H7 8772   0.880   2.784   1.642 -1.0393  1.2587 -0.5410
  526THF     C8 8773   0.984   2.806   1.449  0.1874 -0.5419  0.4592
  526THF     C9 8774   1.098   2.908   1.414 -0.4429  1.3430 -0.6995
  526THF    H10 8775   0.886   2.824   1.405 -0.5782  1.4813  2.7645
  526THF    H11 8776   1.007   2.704   1.417  1.9693 -0.5176  1.5392
  526THF    H12 8777   1.199   2.869   1.413 -0.5684  0.8785  1.1354
  526THF    H13 8778   1.085   2.963   1.321 -1.3233  1.1952 -0.6757
  527THF     O1 8779   4.466   5.056   2.668 -0.2934 -1.3812 -0.2753
  527THF     C2 8780   4.470   4.919   2.628 -0.3844  0.3882  0.4791
  527THF     C3 8781   4.477   5.060   2.809 -0.2651 -0.0301  0.0983
  527THF     H4 8782   4.541   4.910   2.547 -0.6973  0.3464  0.2099
  527THF     H5 8783   4.372   4.889   2.590 -0.2494  1.7979 -1.0941
  527THF     H6 8784   4.519   5.158   2.832  1.0383  0.0314 -2.2271
  527THF     H7 8785   4.378   5.064   2.854 -0.2847  1.2203 -0.0264
  527THF     C8 8786   4.553   4.934   2.848  0.1447 -0.1339 -0.9501
  527THF     C9 8787   4.513   4.830   2.742 -0.5182 -0.1064 -0.2732
  527THF    H10 8788   4.528   4.905   2.950  1.1469 -1.7188 -1.1200
  527THF    H11 8789   4.660   4.953   2.855 -0.1970  1.7605 -0.3696
  527THF    H12 8790   4.594   4.762   2.717  0.9076  1.8999 -1.4328
  527THF    H13 8791   4.430   4.770   2.780 -0.9155  1.7348  2.0324
  528THF     O1 8792   2.757   4.252   5.329  0.1495 -0.0926  0.2533
  528THF     C2 8793   2.751   4.189   5.456  0.3622  0.3184  0.4856
  528THF     C3 8794   2.621   4.287   5.293  0.7019 -0.1432  0.4504
  528THF     H4 8795   2.726   4.258   5.537 -0.0190 -1.6983  2.1572
  528THF     H5 8796   2.846   4.139   5.477 -0.5358 -1.7130 -0.1045
  528THF     H6 8797   2.587   4.386   5.323 -1.1714 -0.5904 -0.0756
  528THF     H7 8798   2.618   4.292   5.184 -2.3334 -0.7507  0.4207
  528THF     C8 8799   2.532   4.184   5.354  0.7256  0.0876  0.2354
  528THF     C9 8800   2.629   4.097   5.436  0.2501 -0.3449  0.4709
  528THF    H10 8801   2.474   4.129   5.280  1.0668 -0.8671  0.6681
  528THF    H11 8802   2.458   4.233   5.417  0.0572  0.6513 -0.9633
  528THF    H12 8803   2.581   4.051   5.522 -0.8229 -1.0064 -0.4529
  528THF    H13 8804   2.666   4.010   5.381  2.2541  0.4963  0.3924
  529THF     O1 8805   4.707   0.770   1.547 -0.7978 -0.3888  0.2304
  529THF     C2 8806   4.571   0.766   1.591  0.0876 -0.0202 -0.1494
  529THF     C3 8807   4.774   0.866   1.619 -0.6896 -0.0737 -0.5189
  529THF     H4 8808   4.530   0.665   1.588 -2.4434  0.9484 -0.9401
  529THF     H5 8809   4.512   0.826   1.521  2.5390  0.5887 -1.8464
  529THF     H6 8810   4.880   0.840   1.617 -0.8123 -0.6444 -2.7117
  529THF     H7 8811   4.765   0.962   1.569 -2.5402 -0.1699 -0.4435
  529THF     C8 8812   4.710   0.858   1.758  0.5314  0.0498 -1.1476
  529THF     C9 8813   4.565   0.823   1.736  0.1794 -0.4123 -0.2862
  529THF    H10 8814   4.718   0.947   1.821  0.5340 -0.0357 -1.0267
  529THF    H11 8815   4.746   0.776   1.821 -1.9724  0.2453  0.6990
  529THF    H12 8816   4.523   0.742   1.796  0.4934  0.3434  0.9943
  529THF    H13 8817   4.502   0.911   1.745  1.6998  0.6089  0.8944
  530THF     O1 8818   0.069   2.959   2.450 -0.0580  0.0052  0.1633
  530THF     C2 8819   0.119   3.069   2.520  0.8893 -0.2610 -0.2496
  530THF     C3 8820  -0.044   3.006   2.382 -0.3507 -0.1512  1.0473
  530THF     H4 8821   0.137   3.148   2.447 -1.2929  0.8498  0.3535
  530THF     H5 8822   0.197   3.036   2.589  0.0615  0.5561  1.1102
  530THF     H6 8823  -0.008   3.066   2.298  3.2402 -0.6528  2.0808
  530THF     H7 8824  -0.098   2.923   2.337  0.4414  1.0254 -2.4048
  530THF     C8 8825  -0.116   3.086   2.497 -0.0486 -0.0451  0.6049
  530THF     C9 8826  -0.001   3.112   2.596  0.3802 -0.4582 -0.8482
  530THF    H10 8827  -0.199   3.025   2.532  0.3469 -1.8344 -1.3733
  530THF    H11 8828  -0.177   3.170   2.464  2.3773  1.5440 -0.0801
  530THF    H12 8829   0.002   3.216   2.628  1.0243 -0.7572  0.1218
  530THF    H13 8830  -0.013   3.066   2.695 -1.1749  3.2991  0.8716
  531THF     O1 8831   4.061   4.513   2.030  0.3925  0.1726  0.5237
  531THF     C2 8832   4.016   4.442   2.142 -0.2638  0.5892  0.3677
  531THF     C3 8833   4.073   4.646   2.053  0.2039  0.3221  0.1482
  531THF     H4 8834   4.100   4.389   2.189  1.5335  1.8690 -1.2725
  531THF     H5 8835   3.932   4.376   2.120 -0.5526  1.3973 -1.0289
  531THF     H6 8836   4.168   4.670   2.005  0.2222  0.3287  0.1884
  531THF     H7 8837   3.997   4.708   2.005  1.0513  0.8241 -0.5877
  531THF     C8 8838   4.060   4.663   2.198  0.1029 -0.6490  0.2541
  531THF     C9 8839   3.966   4.553   2.234  1.0561  0.1233 -0.2013
  531THF    H10 8840   4.019   4.760   2.228  2.8790  0.0338  2.2882
  531THF    H11 8841   4.159   4.665   2.243  0.5592  2.4560 -0.6101
  531THF    H12 8842   3.974   4.530   2.341 -1.3682 -2.7788 -0.5167
  531THF    H13 8843   3.865   4.581   2.205  1.3565  0.1156 -1.2972
  532THF     O1 8844   1.722   0.514   0.553  0.0648  0.3335 -0.0562
  532THF     C2 8845   1.835   0.593   0.553  0.4228 -1.1052  0.2100
  532THF     C3 8846   1.626   0.583   0.627 -0.0789  0.7347 -0.4846
  532THF     H4 8847   1.896   0.559   0.469 -1.1026 -3.2362 -0.0989
  532THF     H5 8848   1.881   0.598   0.652 -1.0503  0.9373  0.8687
  532THF     H6 8849   1.521   0.560   0.606  0.0756 -0.6726  0.1529
  532THF     H7 8850   1.644   0.564   0.733  0.1671 -0.5334 -0.7437
  532THF     C8 8851   1.648   0.729   0.590 -0.2023 -0.0173  0.2327
  532THF     C9 8852   1.788   0.738   0.529  0.2924 -0.0352  0.0514
  532THF    H10 8853   1.624   0.800   0.669 -3.0583 -0.9621  0.3055
  532THF    H11 8854   1.572   0.752   0.516  0.3069 -3.0091 -1.4074
  532THF    H12 8855   1.799   0.770   0.425 -1.1837  3.0691  0.7609
  532THF    H13 8856   1.853   0.798   0.593  0.7939  0.4905 -0.9203
  533THF     O1 8857   5.390   0.723   0.879  0.0206 -0.0484 -0.0533
  533THF     C2 8858   5.412   0.662   1.006  0.1415 -0.1080 -0.5418
  533THF     C3 8859   5.351   0.624   0.785  0.3965  0.2573  0.0367
  533THF     H4 8860   5.370   0.721   1.088 -0.3852 -1.9556  0.5670
  533THF     H5 8861   5.519   0.671   1.023  0.0994 -0.1332 -0.2587
  533THF     H6 8862   5.243   0.629   0.773  0.2473  0.2415  1.2451
  533THF     H7 8863   5.385   0.662   0.689 -1.3753 -1.8727 -1.5615
  533THF     C8 8864   5.392   0.489   0.838  0.7415  0.1925 -0.0132
  533THF     C9 8865   5.372   0.512   0.989 -0.6684  0.4139 -0.2158
  533THF    H10 8866   5.499   0.478   0.822  0.6390 -0.2117 -0.4344
  533THF    H11 8867   5.339   0.408   0.788 -2.7775 -0.0880  3.7174
  533THF    H12 8868   5.267   0.504   1.017 -0.5662  1.0025  0.3451
  533THF    H13 8869   5.435   0.437   1.037  0.2583  0.2424 -1.6665
  534THF     O1 8870   0.249   4.019   3.859 -0.3980  0.2277  0.5979
  534THF     C2 8871   0.369   3.962   3.912  0.5031  0.8363 -0.0745
  534THF     C3 8872   0.140   3.983   3.939 -0.7209 -0.5613  0.7451
  534THF     H4 8873   0.459   4.016   3.881  0.7422  0.8190  0.5821
  534THF     H5 8874   0.380   3.860   3.875 -1.7065  0.1922  0.8814
  534THF     H6 8875   0.050   4.037   3.909 -1.5160 -3.2873 -2.4972
  534THF     H7 8876   0.108   3.879   3.926 -2.4991 -0.0381  0.7191
  534THF     C8 8877   0.197   3.985   4.082 -0.2808 -0.0526  0.6479
  534THF     C9 8878   0.348   3.956   4.061  0.3605  0.5007  0.0021
  534THF    H10 8879   0.150   3.911   4.146 -2.5371  1.4566  0.8511
  534THF    H11 8880   0.177   4.085   4.120  2.4539  0.6007  0.5760
  534THF    H12 8881   0.403   4.040   4.101  2.4331 -0.2531 -1.1239
  534THF    H13 8882   0.379   3.861   4.104 -0.5337  0.2179  0.0488
  535THF     O1 8883   3.408   2.661   1.925 -0.1411 -0.2843  0.6884
  535THF     C2 8884   3.358   2.779   1.870  0.7311 -0.6431 -0.9907
  535THF     C3 8885   3.527   2.699   1.982 -0.5729  0.3702  0.1810
  535THF     H4 8886   3.256   2.761   1.835  0.4028 -0.5491 -0.1099
  535THF     H5 8887   3.414   2.811   1.782 -1.5462  3.2660 -1.2740
  535THF     H6 8888   3.563   2.628   2.056  0.8235  0.3303 -0.5003
  535THF     H7 8889   3.600   2.708   1.902 -0.1425  0.9414  0.6259
  535THF     C8 8890   3.496   2.832   2.039 -0.3517  0.1512  0.0968
  535THF     C9 8891   3.367   2.885   1.973 -0.6302 -0.2558 -0.2504
  535THF    H10 8892   3.577   2.897   2.009 -0.8023  0.0609 -1.3956
  535THF    H11 8893   3.487   2.826   2.148 -2.0933  0.8761  0.0227
  535THF    H12 8894   3.295   2.877   2.054  0.9364 -2.2047  1.0387
  535THF    H13 8895   3.378   2.989   1.942  0.2822 -0.2932 -0.0845
  536THF     O1 8896   5.163   5.078   1.433 -0.6922 -0.4466  0.1827
  536THF     C2 8897   5.170   5.188   1.341 -0.1813  0.0555  0.0594
  536THF     C3 8898   5.046   5.087   1.509  0.6343  0.5620 -0.0808
  536THF     H4 8899   5.109   5.164   1.255  2.1481 -1.1279 -1.3843
  536THF     H5 8900   5.272   5.205   1.305  0.6020 -1.9954  1.1466
  536THF     H6 8901   4.957   5.040   1.468  0.3644 -1.3230  2.4479
  536THF     H7 8902   5.059   5.038   1.606  0.3244  1.0611  0.2117
  536THF     C8 8903   5.013   5.240   1.525  0.1102 -0.5889 -0.1843
  536THF     C9 8904   5.098   5.303   1.413 -0.4490  0.6737 -0.0853
  536THF    H10 8905   5.036   5.278   1.625  0.7166 -1.5775  0.0709
  536THF    H11 8906   4.905   5.250   1.518 -0.2030 -2.8310  0.7868
  536THF    H12 8907   5.044   5.370   1.345  0.7543  1.7654  0.0082
  536THF    H13 8908   5.175   5.364   1.460  1.4764  0.5473 -2.8284
  537THF     O1 8909   4.716   2.899   1.707  0.0404  0.0573  0.5730
  537THF     C2 8910   4.692   2.795   1.603  0.2216 -0.2322  0.1166
  537THF     C3 8911   4.638   2.856   1.818  0.3314 -0.3160  0.2616
  537THF     H4 8912   4.766   2.807   1.523 -1.3654  2.9534 -1.0574
  537THF     H5 8913   4.599   2.818   1.552  1.1740 -0.4658 -1.8119
  537THF     H6 8914   4.696   2.872   1.909  0.5577 -0.0150  0.0645
  537THF     H7 8915   4.553   2.922   1.836  0.9247  0.3859  0.5349
  537THF     C8 8916   4.597   2.711   1.796  0.3212  0.0687  0.8530
  537THF     C9 8917   4.679   2.663   1.676  0.4137  0.0575  0.5130
  537THF    H10 8918   4.498   2.693   1.754  0.9779  2.6861 -2.2584
  537THF    H11 8919   4.612   2.643   1.880 -0.7942 -0.1709  0.8731
  537THF    H12 8920   4.780   2.631   1.701  0.2186 -0.9549  0.0419
  537THF    H13 8921   4.629   2.581   1.624  1.2027  0.5602 -1.0921
  538THF     O1 8922   3.291   3.550   4.799  0.4621  0.1367 -0.1727
  538THF     C2 8923   3.279   3.451   4.895  0.0327 -0.3226 -0.2564
  538THF     C3 8924   3.423   3.595   4.808  0.0201  0.2119 -0.5234
  538THF     H4 8925   3.303   3.353   4.855  0.7827 -0.3789  0.3155
  538THF     H5 8926   3.177   3.449   4.935 -0.7413  1.7408 -1.9136
  538THF     H6 8927   3.490   3.518   4.771 -1.4812 -0.5872 -1.6748
  538THF     H7 8928   3.441   3.684   4.747 -2.5908  1.2952  0.1428
  538THF     C8 8929   3.437   3.627   4.953  0.6774 -0.1010  0.5072
  538THF     C9 8930   3.360   3.505   5.014 -0.2822 -0.3276  0.0229
  538THF    H10 8931   3.380   3.717   4.977  0.1326 -0.7639  1.8229
  538THF    H11 8932   3.538   3.641   4.993  1.4115 -2.0579 -0.5674
  538THF    H12 8933   3.429   3.429   5.050  0.4080 -1.3160 -3.1089
  538THF    H13 8934   3.282   3.528   5.087 -0.1287 -1.7167  0.6625
  539THF     O1 8935   4.466   2.592   3.590 -0.2200  0.4552  0.2921
  539THF     C2 8936   4.335   2.570   3.646 -0.0693  0.0324  0.7493
  539THF     C3 8937   4.554   2.507   3.657  0.1982 -0.3667  0.1063
  539THF     H4 8938   4.280   2.505   3.578  3.0502 -0.3701 -1.6027
  539THF     H5 8939   4.281   2.665   3.651 -3.3325 -1.6473 -0.0272
  539THF     H6 8940   4.536   2.404   3.625 -0.3706 -0.7357  1.5495
  539THF     H7 8941   4.659   2.524   3.631  0.1036 -1.2337 -0.9406
  539THF     C8 8942   4.513   2.522   3.802 -0.4506 -0.0249  0.4279
  539THF     C9 8943   4.363   2.522   3.786  0.1218 -0.1287 -0.1769
  539THF    H10 8944   4.553   2.619   3.832  0.3509  0.4800 -1.9879
  539THF    H11 8945   4.560   2.438   3.853  1.2641 -0.0091 -1.0297
  539THF    H12 8946   4.332   2.417   3.787  0.6796 -0.3448  2.2631
  539THF    H13 8947   4.313   2.571   3.870 -0.8180  0.5512 -1.1116
  540THF     O1 8948   2.869   5.379   4.150 -0.2032  0.1342 -0.2992
  540THF     C2 8949   2.847   5.383   4.289  0.3273  0.5307  0.1110
  540THF     C3 8950   2.999   5.434   4.120 -0.1223 -0.0814 -0.4476
  540THF     H4 8951   2.824   5.281   4.322 -2.3974  0.2162 -2.2913
  540THF     H5 8952   2.768   5.451   4.321 -1.7391 -2.3194  1.5817
  540THF     H6 8953   3.066   5.351   4.098 -0.0384  0.2102 -1.3115
  540THF     H7 8954   2.990   5.502   4.036  1.0368  2.5400  1.4016
  540THF     C8 8955   3.037   5.502   4.248  0.1027 -0.5171  0.5778
  540THF     C9 8956   2.980   5.419   4.350 -0.6643  0.0840 -0.3790
  540THF    H10 8957   3.003   5.605   4.245  1.0451 -0.2207 -0.2167
  540THF    H11 8958   3.144   5.522   4.254 -0.1478  1.1366 -0.0331
  540THF    H12 8959   3.041   5.331   4.367  1.6362  1.8115  0.7880
  540THF    H13 8960   2.984   5.466   4.449  0.3173 -1.2490  0.2457
  541THF     O1 8961   1.669   0.690   3.640  0.4872 -0.3025  0.7636
  541THF     C2 8962   1.716   0.621   3.525 -0.6163  0.1121 -0.1155
  541THF     C3 8963   1.702   0.621   3.760  0.1053 -0.1002  0.3063
  541THF     H4 8964   1.762   0.693   3.457  1.7089  0.8617  2.1040
  541THF     H5 8965   1.629   0.574   3.480 -0.7845  0.7958 -0.5101
  541THF     H6 8966   1.776   0.672   3.821  1.5294  0.1710 -1.5697
  541THF     H7 8967   1.610   0.608   3.818  1.0170  0.8122  2.0290
  541THF     C8 8968   1.767   0.490   3.707  0.3759  0.0129  0.0556
  541THF     C9 8969   1.820   0.520   3.571 -0.6686 -0.1492  0.3828
  541THF    H10 8970   1.696   0.407   3.707 -0.7454  0.9014  2.2114
  541THF    H11 8971   1.858   0.472   3.764 -0.2403 -1.6670  0.5553
  541THF    H12 8972   1.914   0.573   3.555 -1.3172  0.9470  0.1766
  541THF    H13 8973   1.832   0.439   3.499  0.0672 -1.7451  2.1985
  542THF     O1 8974   1.206   4.525   0.275 -0.6846  0.0201 -0.0689
  542THF     C2 8975   1.128   4.443   0.195 -0.6157  1.0702 -0.3121
  542THF     C3 8976   1.114   4.600   0.361 -0.3449  0.3606 -0.0258
  542THF     H4 8977   1.066   4.375   0.253 -0.6819  1.7766  0.4698
  542THF     H5 8978   1.190   4.390   0.123  0.0295  0.3729  0.7232
  542THF     H6 8979   1.071   4.541   0.442 -0.1719 -1.7893 -1.4290
  542THF     H7 8980   1.163   4.691   0.398 -0.6369  0.4384  0.1822
  542THF     C8 8981   1.003   4.635   0.261 -0.0376  0.0311  0.0305
  542THF     C9 8982   1.041   4.550   0.137 -0.4539 -0.4698 -0.1407
  542THF    H10 8983   1.010   4.741   0.239  0.6174  0.2168  1.0268
  542THF    H11 8984   0.905   4.623   0.306  0.5438 -3.3851  0.6920
  542THF    H12 8985   0.953   4.508   0.090 -0.7961  0.2338 -0.1466
  542THF    H13 8986   1.087   4.604   0.054 -0.1296 -1.8663 -0.8848
  543THF     O1 8987   3.765   0.162   5.412  0.0322 -0.3018 -0.1139
  543THF     C2 8988   3.708   0.035   5.449  0.2095  1.1493 -0.7217
  543THF     C3 8989   3.846   0.148   5.306  0.1307 -0.0642  1.0690
  543THF     H4 8990   3.619   0.036   5.511  0.8652  2.1971  0.2369
  543THF     H5 8991   3.783  -0.018   5.508  0.5847  0.0003 -2.1602
  543THF     H6 8992   3.868   0.249   5.269  2.3139 -0.0554  2.2525
  543THF     H7 8993   3.933   0.095   5.346 -0.2297 -0.3175  1.5134
  543THF     C8 8994   3.755   0.059   5.215  0.0117  0.2519  0.6421
  543THF     C9 8995   3.678  -0.027   5.312 -0.4213  0.5620 -0.0631
  543THF    H10 8996   3.809   0.004   5.137  2.1000  1.7080  0.9689
  543THF    H11 8997   3.687   0.125   5.160 -0.1479  0.5946  1.2437
  543THF    H12 8998   3.572  -0.017   5.290 -0.7278 -0.9636  0.5765
  543THF    H13 8999   3.683  -0.136   5.308 -0.5645  0.4759  1.4259
  544THF     O1 9000   1.280   3.489   0.115 -0.1337 -0.2782 -0.1913
  544THF     C2 9001   1.221   3.571   0.216 -0.3793  0.2433 -0.0326
  544THF     C3 9002   1.321   3.571   0.004  0.3344  0.3371  0.0716
  544THF     H4 9003   1.295   3.633   0.266 -0.9593 -1.2642  2.9053
  544THF     H5 9004   1.166   3.513   0.290 -0.3180  0.4381  0.1658
  544THF     H6 9005   1.427   3.597  -0.002  1.1903 -2.8261 -0.2629
  544THF     H7 9006   1.300   3.517  -0.089  1.7089 -0.6595  0.3110
  544THF     C8 9007   1.236   3.694   0.020  0.2690  0.1188 -0.4535
  544THF     C9 9008   1.129   3.650   0.123  0.0042 -0.0229 -0.1072
  544THF    H10 9009   1.181   3.723  -0.070  0.1840 -0.9295 -0.7531
  544THF    H11 9010   1.273   3.790   0.056  0.0222  0.0432  0.0111
  544THF    H12 9011   1.070   3.731   0.166  0.9776  0.6752 -0.0587
  544THF    H13 9012   1.056   3.579   0.086 -0.4849  0.1962  0.4127
  545THF     O1 9013   0.529   1.735   2.074 -0.5853  0.3778  0.2983
  545THF     C2 9014   0.647   1.656   2.082  0.0265 -0.2306 -0.0196
  545THF     C3 9015   0.570   1.868   2.054  0.3085 -0.6863  0.7821
  545THF     H4 9016   0.664   1.620   1.980  2.2483 -1.2382  0.6428
  545THF     H5 9017   0.644   1.572   2.151  3.3000 -0.2490  0.2771
  545THF     H6 9018   0.588   1.882   1.948 -1.4802 -1.7498  0.3029
  545THF     H7 9019   0.480   1.928   2.072  2.2236  2.3945  0.7350
  545THF     C8 9020   0.687   1.889   2.148  0.3643 -0.6675 -0.2921
  545THF     C9 9021   0.755   1.761   2.132  0.7469 -0.3877  0.4503
  545THF    H10 9022   0.644   1.919   2.243 -1.9696  0.6469 -1.6755
  545THF    H11 9023   0.742   1.977   2.116 -0.0365  0.0017  0.8023
  545THF    H12 9024   0.841   1.762   2.066 -0.2268 -0.0070 -0.8424
  545THF    H13 9025   0.802   1.730   2.225  3.5187 -0.9444 -1.0419
  546THF     O1 9026   2.203   4.081   1.234  0.2178 -0.1574  0.3838
  546THF     C2 9027   2.177   3.939   1.251 -0.5323  0.0373 -0.2462
  546THF     C3 9028   2.160   4.144   1.350 -0.2813 -0.0841 -0.8528
  546THF     H4 9029   2.221   3.870   1.178 -2.9502 -0.0690 -1.6776
  546THF     H5 9030   2.072   3.916   1.266 -0.6258  1.3097  1.2688
  546THF     H6 9031   2.199   4.246   1.355  1.8973 -0.8832  0.3458
  546THF     H7 9032   2.053   4.141   1.369  0.0868 -1.5311  1.3255
  546THF     C8 9033   2.233   4.062   1.449 -0.6111 -0.5858  0.2682
  546THF     C9 9034   2.256   3.921   1.382  0.2207 -0.2220 -0.1344
  546THF    H10 9035   2.164   4.049   1.532  0.2156  0.7986  1.2150
  546THF    H11 9036   2.321   4.114   1.487  0.1123 -1.6467  0.1017
  546THF    H12 9037   2.360   3.915   1.350  0.5864  1.8640  0.5241
  546THF    H13 9038   2.215   3.838   1.441 -2.6059  1.0497 -0.1091
  547THF     O1 9039   0.958   2.151   4.952  0.0716  0.3418  0.2297
  547THF     C2 9040   0.850   2.136   4.864 -0.1881 -0.1032 -0.2288
  547THF     C3 9041   1.073   2.094   4.886 -0.0614 -0.0477  0.2050
  547THF     H4 9042   0.844   2.224   4.800  0.3433  0.4924  0.5200
  547THF     H5 9043   0.762   2.135   4.928  0.4523 -2.0802  0.7012
  547THF     H6 9044   1.112   2.155   4.805 -1.4702  1.9323  0.9647
  547THF     H7 9045   1.157   2.072   4.952  0.0258  1.4989  0.6445
  547THF     C8 9046   1.008   1.968   4.818 -0.0550  0.2011 -0.5449
  547THF     C9 9047   0.870   2.011   4.775  0.9897 -0.4708 -0.0737
  547THF    H10 9048   1.000   1.900   4.902 -1.1695  0.2165 -0.6159
  547THF    H11 9049   1.069   1.924   4.739  0.5996 -0.2177  0.1807
  547THF    H12 9050   0.870   2.039   4.669 -0.1065 -1.0737 -0.2542
  547THF    H13 9051   0.796   1.931   4.779 -0.7230  0.9577 -1.2212
  548THF     O1 9052   1.351   2.847   0.418 -0.5385  0.3186 -0.3905
  548THF     C2 9053   1.284   2.957   0.478  0.0749  0.2980 -1.0891
  548THF     C3 9054   1.260   2.787   0.329 -0.3499 -0.8412 -0.8094
  548THF     H4 9055   1.346   3.028   0.533 -2.1215  1.8732 -0.5100
  548THF     H5 9056   1.216   2.932   0.559  0.2953 -0.5872 -1.1703
  548THF     H6 9057   1.316   2.711   0.274  1.4256  1.3249 -2.1731
  548THF     H7 9058   1.182   2.740   0.389  0.9227 -0.8962  0.8786
  548THF     C8 9059   1.215   2.906   0.249  0.7379  0.7677 -0.6104
  548THF     C9 9060   1.223   3.020   0.351 -0.1565 -0.1469 -0.0012
  548THF    H10 9061   1.111   2.901   0.217 -0.7738  0.5683  3.6679
  548THF    H11 9062   1.285   2.937   0.171 -0.0423  0.1364 -1.5803
  548THF    H12 9063   1.294   3.099   0.327 -0.4747  0.1862  0.1441
  548THF    H13 9064   1.128   3.071   0.366 -1.6601 -3.2995  2.1425
  549THF     O1 9065   2.931   4.918   3.678 -0.5551 -0.0459 -0.0536
  549THF     C2 9066   3.027   4.957   3.775 -0.5417 -0.0500 -0.0621
  549THF     C3 9067   2.815   4.993   3.707  0.4129 -0.1871  0.7348
  549THF     H4 9068   3.124   4.926   3.736  0.4382  1.5404  1.0040
  549THF     H5 9069   3.013   4.919   3.876 -0.0883  0.9378  0.3820
  549THF     H6 9070   2.767   5.001   3.610  0.1649 -0.4499  0.8336
  549THF     H7 9071   2.754   4.935   3.775 -0.5664 -1.2470 -0.9780
  549THF     C8 9072   2.871   5.124   3.756  0.4398 -0.3210  0.4715
  549THF     C9 9073   3.020   5.104   3.776  0.2816  0.0246 -0.0622
  549THF    H10 9074   2.826   5.156   3.850  0.5927  0.1998  0.3684
  549THF    H11 9075   2.836   5.206   3.694  3.0341  0.5248 -0.0088
  549THF    H12 9076   3.070   5.133   3.684 -0.6656 -0.7628 -0.8473
  549THF    H13 9077   3.061   5.160   3.860  1.3591 -0.7598 -0.0442
  550THF     O1 9078   0.438   2.333   3.955 -0.0435 -0.0158  0.8113
  550THF     C2 9079   0.368   2.218   3.981  0.2071  0.1566 -0.3738
  550THF     C3 9080   0.383   2.389   3.837  0.0940  0.2377  0.0692
  550THF     H4 9081   0.270   2.239   4.023  1.3304  2.1780  1.3910
  550THF     H5 9082   0.415   2.156   4.058 -1.6884  0.6604  1.2525
  550THF     H6 9083   0.297   2.451   3.865  0.3421 -0.0558  1.5613
  550THF     H7 9084   0.459   2.457   3.799 -0.3232  0.2285 -0.7966
  550THF     C8 9085   0.350   2.268   3.756  0.4796  0.0459  0.3682
  550THF     C9 9086   0.360   2.152   3.841 -0.6367 -0.2454 -0.0443
  550THF    H10 9087   0.422   2.277   3.675 -0.8903 -1.1705 -1.0416
  550THF    H11 9088   0.247   2.278   3.723  0.1387  0.5410  1.5144
  550THF    H12 9089   0.273   2.087   3.835 -1.9585  1.5048 -0.6108
  550THF    H13 9090   0.461   2.110   3.837 -1.1043 -1.3390 -1.7372
  551THF     O1 9091   1.828   0.793   4.061 -0.1072  0.0503  0.3750
  551THF     C2 9092   1.966   0.750   4.082  0.0253 -0.1857  0.2803
  551THF     C3 9093   1.777   0.826   4.190 -0.1588  0.0747  0.3194
  551THF     H4 9094   2.030   0.736   3.994 -0.8055  0.0624 -0.3717
  551THF     H5 9095   1.966   0.651   4.128 -1.7771 -1.3958 -2.1277
  551THF     H6 9096   1.696   0.899   4.197  0.8134  1.2204  0.0776
  551THF     H7 9097   1.732   0.737   4.232 -1.2448  0.0816 -0.7770
  551THF     C8 9098   1.910   0.869   4.270 -0.6530 -0.1871 -0.2714
  551THF     C9 9099   2.019   0.852   4.179 -0.1461 -0.3558  0.5054
  551THF    H10 9100   1.918   0.819   4.366 -1.5342 -2.2210 -1.2141
  551THF    H11 9101   1.891   0.972   4.301 -1.2233 -0.4495  0.2558
  551THF    H12 9102   2.043   0.946   4.130 -0.6430  0.1832  1.2871
  551THF    H13 9103   2.109   0.821   4.232  0.6175  1.7993  0.5395
  552THF     O1 9104   0.652   4.324   3.235 -0.5689  0.1240 -0.8289
  552THF     C2 9105   0.676   4.251   3.116  0.1022  0.0166 -0.3034
  552THF     C3 9106   0.671   4.464   3.218 -0.4239 -0.1899 -0.0428
  552THF     H4 9107   0.609   4.165   3.115 -2.2369  1.6757  1.3708
  552THF     H5 9108   0.781   4.230   3.098  0.5990  0.0418  2.2352
  552THF     H6 9109   0.635   4.514   3.308  2.8975  0.6350  0.9964
  552THF     H7 9110   0.777   4.492   3.214 -0.8461  1.6010  0.3023
  552THF     C8 9111   0.605   4.484   3.090 -0.2777 -0.2808  0.0254
  552THF     C9 9112   0.627   4.352   3.011 -0.2892  0.0530  1.0178
  552THF    H10 9113   0.645   4.564   3.028 -1.7970  1.4581  1.1956
  552THF    H11 9114   0.501   4.516   3.101 -0.2695 -0.4198  0.5479
  552THF    H12 9115   0.527   4.322   2.979 -0.7470  0.3777  2.1039
  552THF    H13 9116   0.695   4.368   2.927 -1.7116  1.0323 -0.0129
  553THF     O1 9117   0.638   0.986   2.441  0.0836 -0.5583 -0.6242
  553THF     C2 9118   0.712   1.099   2.479  0.5501  0.5118  0.6489
  553THF     C3 9119   0.588   0.993   2.304  0.8013  0.0534  0.0846
  553THF     H4 9120   0.813   1.093   2.439  0.7356 -0.8998  1.2829
  553THF     H5 9121   0.716   1.133   2.583 -1.1765  3.0547 -0.0091
  553THF     H6 9122   0.653   0.950   2.227 -2.6899 -1.1500 -2.4665
  553THF     H7 9123   0.493   0.939   2.298  1.4768 -1.0187 -3.1148
  553THF     C8 9124   0.572   1.148   2.284 -0.4933  0.4547  0.0247
  553THF     C9 9125   0.624   1.210   2.409  0.3367 -0.1481  0.4518
  553THF    H10 9126   0.467   1.175   2.278 -0.2858  2.0726  2.3375
  553THF    H11 9127   0.623   1.175   2.192  0.6597 -0.9324  0.2140
  553THF    H12 9128   0.697   1.285   2.378 -1.2512  1.4244  0.4199
  553THF    H13 9129   0.551   1.246   2.480  1.1609 -1.9050  2.2940
  554THF     O1 9130   5.481   3.298   4.542 -0.0535  0.0985  0.3176
  554THF     C2 9131   5.513   3.227   4.656 -0.5513  0.5536  0.2493
  554THF     C3 9132   5.604   3.357   4.496 -0.2672 -0.0259 -0.1580
  554THF     H4 9133   5.436   3.160   4.695 -0.5057  0.0657 -0.4786
  554THF     H5 9134   5.543   3.300   4.731  0.5607  1.5589 -1.1267
  554THF     H6 9135   5.587   3.407   4.401 -3.3847  1.4369  1.0426
  554THF     H7 9136   5.619   3.442   4.562  1.0828 -0.6606  0.3898
  554THF     C8 9137   5.705   3.245   4.516  0.0680  0.2751 -0.2780
  554THF     C9 9138   5.641   3.155   4.618 -0.2906 -1.0576 -0.2014
  554THF    H10 9139   5.802   3.291   4.537  0.0766  0.1035  0.0748
  554THF    H11 9140   5.712   3.186   4.425  0.5298 -0.6017  0.3037
  554THF    H12 9141   5.618   3.058   4.575 -1.5745 -2.5696  3.5000
  554THF    H13 9142   5.712   3.140   4.699 -0.2168  0.7417  0.1226
  555THF     O1 9143   2.573   1.782   2.162 -0.1960  0.3271 -0.2522
  555THF     C2 9144   2.695   1.767   2.230 -0.4823 -0.6860 -0.4719
  555THF     C3 9145   2.481   1.858   2.236  0.1642  1.0375 -0.5430
  555THF     H4 9146   2.768   1.798   2.156 -0.9859  0.6976 -0.4359
  555THF     H5 9147   2.697   1.670   2.278  0.4672 -0.4170  0.0569
  555THF     H6 9148   2.395   1.900   2.184 -1.3500  0.0615  1.0579
  555THF     H7 9149   2.437   1.790   2.309 -0.2931  1.5331 -0.3521
  555THF     C8 9150   2.566   1.955   2.315  0.3078  0.0572  0.0870
  555THF     C9 9151   2.695   1.880   2.342  0.6600 -0.1010  0.1209
  555THF    H10 9152   2.523   1.987   2.410 -0.5529  2.3110 -1.0005
  555THF    H11 9153   2.592   2.038   2.249  1.2146  1.6749  2.3371
  555THF    H12 9154   2.774   1.955   2.345  1.3897 -0.8802  1.6652
  555THF    H13 9155   2.692   1.825   2.436 -0.0895 -2.7397 -1.3396
  556THF     O1 9156   2.767   4.319   1.587  0.1420 -0.5370 -0.6238
  556THF     C2 9157   2.873   4.226   1.556 -0.6103  0.3996  0.9621
  556THF     C3 9158   2.667   4.244   1.657  0.0037  0.5101  0.5098
  556THF     H4 9159   2.935   4.216   1.646  2.3928  0.9315 -0.9196
  556THF     H5 9160   2.935   4.273   1.479  0.3774 -2.1505  0.0818
  556THF     H6 9161   2.694   4.234   1.762 -3.4213 -1.0214  1.3755
  556THF     H7 9162   2.570   4.292   1.650 -0.8619 -1.2804 -0.6182
  556THF     C8 9163   2.673   4.100   1.604 -0.1625  0.4845 -0.2211
  556THF     C9 9164   2.793   4.100   1.511  0.0636 -0.2398  0.4907
  556THF    H10 9165   2.585   4.069   1.548 -0.3210 -1.8868  1.1881
  556THF    H11 9166   2.684   4.019   1.676  0.6493 -0.7373 -1.6529
  556THF    H12 9167   2.842   4.002   1.516 -1.4290 -0.9655  1.5698
  556THF    H13 9168   2.749   4.115   1.413 -1.1851  1.3083  1.2619
  557THF     O1 9169   1.035   4.206   4.034  0.3115 -0.5129 -0.0083
  557THF     C2 9170   1.129   4.304   4.015  0.2168 -0.1516  0.2493
  557THF     C3 9171   1.096   4.122   4.127  0.2244  0.1957  0.1728
  557THF     H4 9172   1.085   4.382   3.952 -0.0638  0.2112  0.8922
  557THF     H5 9173   1.209   4.255   3.959 -0.1657 -1.2872  0.6635
  557THF     H6 9174   1.021   4.050   4.160  1.2552 -0.6965  0.6391
  557THF     H7 9175   1.174   4.060   4.084 -1.8521 -2.4411 -0.0495
  557THF     C8 9176   1.144   4.217   4.240 -0.0737  0.3460  0.1089
  557THF     C9 9177   1.167   4.343   4.160 -0.4918  0.0143 -0.4244
  557THF    H10 9178   1.238   4.179   4.281 -0.2557 -0.6839 -0.3844
  557THF    H11 9179   1.071   4.233   4.319  0.9050  1.8682  0.7362
  557THF    H12 9180   1.110   4.427   4.200  0.1863  0.6281 -0.7052
  557THF    H13 9181   1.272   4.372   4.164 -0.5559  0.1891  0.0151
  558THF     O1 9182   2.517   2.446   4.814  0.0902 -0.4142 -0.2429
  558THF     C2 9183   2.471   2.323   4.756 -0.1271  0.2178  0.7647
  558THF     C3 9184   2.403   2.537   4.835  0.1689  0.0208  0.2354
  558THF     H4 9185   2.551   2.251   4.775  2.0953  2.1498 -0.7808
  558THF     H5 9186   2.465   2.326   4.647 -0.3043 -0.4671  0.7506
  558THF     H6 9187   2.433   2.627   4.888  0.1462  0.4218 -0.4156
  558THF     H7 9188   2.370   2.582   4.741  3.6897 -0.8649 -1.5957
  558THF     C8 9189   2.306   2.440   4.898  0.4100  0.0571 -0.0279
  558THF     C9 9190   2.339   2.301   4.836  0.1041  0.0619  0.4448
  558THF    H10 9191   2.204   2.466   4.871  0.3590 -0.6952 -0.5904
  558THF    H11 9192   2.335   2.449   5.003 -0.9046  0.1034  0.3393
  558THF    H12 9193   2.345   2.222   4.910  0.3961  0.0253  0.3858
  558THF    H13 9194   2.261   2.271   4.766  0.5599  1.5173 -0.7492
  559THF     O1 9195   3.018   3.414   2.079  0.6204  0.5124  0.1301
  559THF     C2 9196   3.148   3.361   2.061  0.2097  0.1097 -0.8313
  559THF     C3 9197   2.999   3.510   1.974  0.1077  0.9113 -0.5234
  559THF     H4 9198   3.143   3.252   2.065 -0.9066  0.1767  0.2438
  559THF     H5 9199   3.221   3.378   2.140  0.6849 -1.5929 -0.8628
  559THF     H6 9200   2.894   3.524   1.949 -0.6408  0.7960  2.1927
  559THF     H7 9201   3.034   3.602   2.021  1.0463  1.0823 -1.5270
  559THF     C8 9202   3.088   3.452   1.864 -0.6340  0.0961  0.2502
  559THF     C9 9203   3.211   3.409   1.931  1.0661 -0.2148  0.1966
  559THF    H10 9204   3.112   3.531   1.793 -1.6679  0.9822  0.8654
  559THF    H11 9205   3.048   3.360   1.821  2.3411 -2.1913  1.9244
  559THF    H12 9206   3.255   3.324   1.878  0.4069 -0.6863  0.4089
  559THF    H13 9207   3.284   3.488   1.951  0.7629 -0.0082  0.4831
  560THF     O1 9208   0.209   1.834   5.023  0.5435  0.3934  0.3129
  560THF     C2 9209   0.335   1.860   5.087 -0.9103 -0.1071 -0.0408
  560THF     C3 9210   0.117   1.933   5.065  0.3148 -0.7868 -0.5567
  560THF     H4 9211   0.404   1.926   5.034 -2.3131  1.8869  0.4836
  560THF     H5 9212   0.394   1.772   5.112 -0.9055 -0.0377  0.1972
  560THF     H6 9213   0.120   2.025   5.007 -1.7055  0.8529  1.7380
  560THF     H7 9214   0.017   1.890   5.056 -0.0299  0.1802 -1.5471
  560THF     C8 9215   0.148   1.949   5.211 -0.1795 -0.0159 -0.0183
  560THF     C9 9216   0.294   1.916   5.223 -0.8393 -0.1796  0.2244
  560THF    H10 9217   0.097   1.867   5.262 -0.2994  0.5138  0.7472
  560THF    H11 9218   0.114   2.042   5.258  0.3969  0.3137 -0.2421
  560THF    H12 9219   0.354   2.003   5.247 -2.5589  0.4995  2.4470
  560THF    H13 9220   0.312   1.837   5.297  0.3964 -0.4903 -0.3820
  561THF     O1 9221   1.234   4.451   0.621 -0.0557  0.4993  0.2404
  561THF     C2 9222   1.126   4.454   0.715 -0.6574 -0.3718 -0.0130
  561THF     C3 9223   1.295   4.322   0.634 -0.2970 -0.3863  0.3794
  561THF     H4 9224   1.035   4.485   0.664 -0.4422 -0.1440 -0.2568
  561THF     H5 9225   1.150   4.528   0.792  1.8514  0.3942 -1.4457
  561THF     H6 9226   1.268   4.258   0.551  1.8797 -0.1010 -0.6289
  561THF     H7 9227   1.403   4.328   0.618  0.0139  2.4876  2.5649
  561THF     C8 9228   1.253   4.269   0.773  0.1663 -0.3019  0.3078
  561THF     C9 9229   1.111   4.322   0.784 -0.1678  0.1452  0.1917
  561THF    H10 9230   1.306   4.322   0.853 -0.4683 -0.4582  0.8395
  561THF    H11 9231   1.266   4.164   0.799  2.3352  0.2051  1.5515
  561THF    H12 9232   1.039   4.259   0.732  0.6078 -0.0067 -0.7236
  561THF    H13 9233   1.076   4.342   0.885  0.8021  0.8416  0.3978
  562THF     O1 9234   2.044   3.306   2.403 -0.6066  0.3956  0.1366
  562THF     C2 9235   2.063   3.230   2.281 -0.5686 -0.5287 -1.1672
  562THF     C3 9236   2.087   3.218   2.509 -0.4199  0.4885  0.0132
  562THF     H4 9237   2.059   3.305   2.202  0.4066  0.6845 -0.0928
  562THF     H5 9238   1.995   3.145   2.267  1.0276 -1.9995 -0.3355
  562THF     H6 9239   2.092   3.261   2.609  1.2033 -1.5279  0.8672
  562THF     H7 9240   2.011   3.143   2.530 -0.2759 -0.0169 -1.2089
  562THF     C8 9241   2.207   3.142   2.449  0.2063  0.0444  0.0520
  562THF     C9 9242   2.202   3.173   2.299  0.0977  0.4845 -0.5404
  562THF    H10 9243   2.198   3.034   2.460  1.3613  0.0553  1.3727
  562THF    H11 9244   2.304   3.168   2.489 -0.2691  2.0105  0.0048
  562THF    H12 9245   2.287   3.234   2.268  1.2453 -0.4123  0.6816
  562THF    H13 9246   2.207   3.080   2.242  1.3127 -0.0459  0.3852
  563THF     O1 9247   3.460   2.549   1.066 -0.9319 -0.6831 -1.1160
  563THF     C2 9248   3.339   2.502   1.011 -0.5005  0.0504  0.2424
  563THF     C3 9249   3.562   2.482   1.000  0.4586 -0.3436 -0.1044
  563THF     H4 9250   3.278   2.583   0.972 -0.4053  0.7934  1.5529
  563THF     H5 9251   3.287   2.471   1.102  0.3702  1.5957  1.3195
  563THF     H6 9252   3.603   2.536   0.915  1.7424 -1.8364 -0.4881
  563THF     H7 9253   3.652   2.494   1.062  0.6357 -1.6685 -0.0861
  563THF     C8 9254   3.508   2.351   0.953  0.7906 -0.3645  0.1304
  563THF     C9 9255   3.365   2.382   0.915 -0.8130 -0.3858  0.3714
  563THF    H10 9256   3.516   2.279   1.035 -0.8642  2.1515  2.6721
  563THF    H11 9257   3.567   2.304   0.874 -1.4053  0.4434 -2.0801
  563THF    H12 9258   3.354   2.410   0.810  2.2561 -0.1284  0.0080
  563THF    H13 9259   3.297   2.301   0.938 -0.0951 -0.4306  2.6189
  564THF     O1 9260   2.598   4.747   0.044  0.5508 -0.0194 -0.2105
  564THF     C2 9261   2.615   4.670  -0.074 -1.0391 -0.3343 -0.0971
  564THF     C3 9262   2.631   4.661   0.150  0.7806  0.1201 -0.4466
  564THF     H4 9263   2.617   4.744  -0.154  4.6498  0.9271  0.7348
  564THF     H5 9264   2.542   4.589  -0.081 -0.2408 -1.1359  0.5923
  564THF     H6 9265   2.657   4.725   0.234 -0.1396  0.1908 -0.1965
  564THF     H7 9266   2.548   4.601   0.189  2.2087 -1.9204 -0.3955
  564THF     C8 9267   2.739   4.574   0.098 -0.2627 -0.5060 -0.0800
  564THF     C9 9268   2.756   4.609  -0.047  0.3883 -0.4433  0.2775
  564THF    H10 9269   2.725   4.468   0.118  0.1575 -0.4098  0.7622
  564THF    H11 9270   2.829   4.601   0.153  0.1061 -1.5622 -0.1460
  564THF    H12 9271   2.842   4.676  -0.051  0.7341 -0.9072 -0.2463
  564THF    H13 9272   2.783   4.526  -0.112  2.8363  0.7831 -0.3845
  565THF     O1 9273   2.587   0.981   0.941 -0.4503  0.2696 -0.6635
  565THF     C2 9274   2.500   1.072   1.003 -0.3337  0.8109 -0.3043
  565THF     C3 9275   2.661   1.052   0.841 -0.3725  0.1840  1.1663
  565THF     H4 9276   2.544   1.114   1.094  0.7465 -0.5906 -0.1429
  565THF     H5 9277   2.410   1.020   1.034  0.4234 -1.0344 -1.0693
  565THF     H6 9278   2.731   1.112   0.900  2.4198 -1.4395 -0.2927
  565THF     H7 9279   2.708   0.985   0.769  1.0374  1.6635  0.6385
  565THF     C8 9280   2.557   1.141   0.777  0.2720 -0.0054 -0.0450
  565THF     C9 9281   2.465   1.175   0.901  0.4348  0.3381 -0.1456
  565THF    H10 9282   2.501   1.090   0.699  1.2240 -2.5689  0.8523
  565THF    H11 9283   2.595   1.234   0.734 -0.7072  0.3420 -0.1906
  565THF    H12 9284   2.490   1.277   0.928 -0.1879  0.3756  0.3104
  565THF    H13 9285   2.356   1.173   0.888  0.2791  1.4227  0.8478
  566THF     O1 9286   3.487   4.226   2.894  0.0229 -0.1745  0.7527
  566THF     C2 9287   3.536   4.109   2.826  0.0117 -0.5883 -0.6360
  566THF     C3 9288   3.537   4.206   3.023  0.0329  0.0506 -0.7095
  566THF     H4 9289   3.644   4.125   2.819  0.1717 -0.2940  1.5874
  566THF     H5 9290   3.490   4.109   2.728 -0.2637 -0.3657 -0.5076
  566THF     H6 9291   3.639   4.244   3.030  0.4124 -1.1198  0.6559
  566THF     H7 9292   3.489   4.264   3.102 -0.3868  0.4530 -1.2559
  566THF     C8 9293   3.526   4.058   3.052 -1.1301  0.1679  0.0667
  566THF     C9 9294   3.504   3.993   2.915 -0.5626 -0.6191  0.0533
  566THF    H10 9295   3.447   4.020   3.116 -1.8997 -0.4643 -1.2135
  566THF    H11 9296   3.617   4.025   3.103 -2.3680 -0.6337  1.8183
  566THF    H12 9297   3.572   3.910   2.897  1.9696  1.4461 -0.5800
  566THF    H13 9298   3.398   3.971   2.906 -0.8456  1.0305 -1.0897
  567THF     O1 9299   4.873   0.154   3.618 -0.2692 -0.0554 -0.1048
  567THF     C2 9300   4.789   0.039   3.638  0.1450 -0.5998 -0.4116
  567THF     C3 9301   4.812   0.223   3.506  0.0560  0.3321  0.0997
  567THF     H4 9302   4.797   0.001   3.740 -0.6994  0.6292  0.1315
  567THF     H5 9303   4.818  -0.042   3.571  0.0169 -1.0888  0.1146
  567THF     H6 9304   4.816   0.332   3.513  2.5824  0.3529 -0.8542
  567THF     H7 9305   4.870   0.224   3.414  0.8995  1.9674  0.6116
  567THF     C8 9306   4.667   0.176   3.484  0.0179  0.2781 -0.1441
  567THF     C9 9307   4.648   0.092   3.604 -0.0975 -0.2004  0.5893
  567THF    H10 9308   4.660   0.125   3.388  2.1096 -0.4796  0.0602
  567THF    H11 9309   4.596   0.259   3.482 -0.8770 -0.4739 -0.0284
  567THF    H12 9310   4.618   0.159   3.685  1.2030 -0.0564  0.9854
  567THF    H13 9311   4.576   0.010   3.600 -0.7954  0.3857  0.9980
  568THF     O1 9312   2.263   1.889   0.506 -0.4478  0.5036  0.4290
  568THF     C2 9313   2.181   1.885   0.613  0.0250 -0.6043 -0.2695
  568THF     C3 9314   2.230   2.006   0.421 -0.7242 -0.1164  0.1288
  568THF     H4 9315   2.230   1.949   0.686  1.0601 -2.1833  0.4843
  568THF     H5 9316   2.166   1.791   0.667 -2.2744  1.5900  3.3176
  568THF     H6 9317   2.318   2.070   0.417  1.9786 -3.5357  0.0226
  568THF     H7 9318   2.216   1.968   0.320 -0.8923 -1.6801  0.7046
  568THF     C8 9319   2.099   2.064   0.481 -0.1074  0.9885 -0.6303
  568THF     C9 9320   2.055   1.949   0.566  0.8481  0.1892 -0.3663
  568THF    H10 9321   2.026   2.100   0.408 -1.9263 -1.0157  0.1011
  568THF    H11 9322   2.110   2.148   0.549 -0.1498  1.6314 -1.4015
  568THF    H12 9323   1.984   1.980   0.643 -0.4040  0.4457 -1.5817
  568THF    H13 9324   1.999   1.875   0.508 -1.0016  0.2552  1.2605
  569THF     O1 9325   2.687   2.503   1.742  0.3181  0.0547  0.0888
  569THF     C2 9326   2.680   2.364   1.696  0.0797 -0.6211  0.0071
  569THF     C3 9327   2.645   2.580   1.636  0.4004 -0.4645  0.1520
  569THF     H4 9328   2.576   2.330   1.703  0.6613 -2.5945 -0.5027
  569THF     H5 9329   2.745   2.293   1.747  0.7577 -0.8577 -1.1537
  569THF     H6 9330   2.536   2.580   1.629  0.4049  2.9889 -2.6658
  569THF     H7 9331   2.688   2.680   1.645 -2.3658  0.7156  1.5656
  569THF     C8 9332   2.709   2.514   1.511 -0.0635  0.0495  0.2690
  569THF     C9 9333   2.725   2.372   1.552  0.0681 -0.3721  0.2712
  569THF    H10 9334   2.811   2.550   1.497  0.0583 -0.5906 -0.5760
  569THF    H11 9335   2.655   2.530   1.418  1.2242  1.5066 -0.2713
  569THF    H12 9336   2.683   2.300   1.482 -0.3308  0.7254 -0.6436
  569THF    H13 9337   2.832   2.353   1.558 -0.3249 -3.0916  0.2569
  570THF     O1 9338   4.656   3.529   2.238 -0.3573 -0.2827  0.4024
  570THF     C2 9339   4.774   3.524   2.313  0.0693 -0.5944 -0.6412
  570THF     C3 9340   4.572   3.632   2.284 -0.0001 -0.0696  0.4068
  570THF     H4 9341   4.855   3.473   2.260 -0.0734 -0.7813 -0.6783
  570THF     H5 9342   4.755   3.459   2.398  2.1081 -1.4476 -0.7622
  570THF     H6 9343   4.545   3.690   2.196 -1.1711 -1.8426 -0.4572
  570THF     H7 9344   4.473   3.607   2.323 -1.0197  2.5355 -0.3218
  570THF     C8 9345   4.657   3.721   2.378  0.2536  0.3365  0.1235
  570THF     C9 9346   4.796   3.666   2.352 -0.4293 -0.5741  0.4146
  570THF    H10 9347   4.633   3.710   2.483  3.1378 -0.1756  0.8135
  570THF    H11 9348   4.651   3.828   2.356 -0.1796  0.6190  1.5481
  570THF    H12 9349   4.854   3.705   2.269  0.5291 -0.5817  1.0714
  570THF    H13 9350   4.852   3.677   2.445 -0.4429 -1.6423  0.5596
  571THF     O1 9351   2.268   2.261   0.957 -0.6166  0.0485 -0.4516
  571THF     C2 9352   2.198   2.194   0.850 -0.6120  0.3909  0.5157
  571THF     C3 9353   2.168   2.347   1.014  0.5343  0.0539  0.6711
  571THF     H4 9354   2.144   2.111   0.896  0.7660  0.3331  2.1062
  571THF     H5 9355   2.268   2.157   0.775 -1.8927 -0.2743 -0.4023
  571THF     H6 9356   2.109   2.278   1.075 -0.1154  0.1508  0.1572
  571THF     H7 9357   2.206   2.424   1.080  0.8951  0.9436 -0.5489
  571THF     C8 9358   2.099   2.407   0.893 -0.4719  0.0084 -0.3805
  571THF     C9 9359   2.095   2.294   0.798  0.0504 -0.2618  0.1894
  571THF    H10 9360   2.167   2.485   0.857 -1.1880  0.3769 -0.9411
  571THF    H11 9361   2.002   2.453   0.908 -0.3312  0.2043 -0.0628
  571THF    H12 9362   1.993   2.255   0.804  0.5413 -1.5185  0.6614
  571THF    H13 9363   2.102   2.322   0.693  0.9360  1.9795  0.7888
  572THF     O1 9364   4.760   1.586   4.995  0.3249  0.1252  0.4011
  572THF     C2 9365   4.653   1.662   4.940  0.1653 -0.6875  1.0362
  572THF     C3 9366   4.812   1.650   5.109 -0.1373  0.0962 -0.2348
  572THF     H4 9367   4.594   1.612   4.863 -1.8776  0.4624  1.8006
  572THF     H5 9368   4.696   1.751   4.894 -0.8104 -0.8113 -0.1897
  572THF     H6 9369   4.870   1.593   5.182  0.1099 -1.1398 -1.3626
  572THF     H7 9370   4.876   1.735   5.086 -0.5740  0.2461 -0.9104
  572THF     C8 9371   4.688   1.699   5.182 -0.1638 -0.0920 -0.3643
  572THF     C9 9372   4.575   1.696   5.072  0.4721  0.4579  0.4526
  572THF    H10 9373   4.719   1.790   5.234  1.0992 -1.2632  1.0123
  572THF    H11 9374   4.663   1.626   5.259  0.1963 -0.0212 -0.1819
  572THF    H12 9375   4.502   1.616   5.085  1.4986 -0.3193  1.6315
  572THF    H13 9376   4.511   1.785   5.067 -0.1385  0.1082  1.7002
  573THF     O1 9377   3.868   5.404   0.312 -0.0153 -0.7598 -0.2165
  573THF     C2 9378   3.792   5.475   0.406 -0.1613 -0.2963 -0.0737
  573THF     C3 9379   3.988   5.481   0.284  0.3092 -1.1906  0.2518
  573THF     H4 9380   3.831   5.446   0.504 -0.6154 -0.1362  0.1557
  573THF     H5 9381   3.687   5.449   0.395 -0.6544  1.8802 -0.9611
  573THF     H6 9382   4.053   5.464   0.370 -0.5509  0.9227  1.4004
  573THF     H7 9383   4.031   5.451   0.189  2.6481 -0.2410  0.9443
  573THF     C8 9384   3.943   5.628   0.288 -0.6924 -0.1611  0.4443
  573THF     C9 9385   3.809   5.620   0.363  0.0728 -0.4631  0.2193
  573THF    H10 9386   3.932   5.662   0.185 -1.0266  0.4605  0.6764
  573THF    H11 9387   4.015   5.700   0.327  1.1984 -1.0943 -1.1157
  573THF    H12 9388   3.782   5.700   0.432  1.4255  1.1833 -1.0610
  573THF    H13 9389   3.730   5.632   0.288  0.2259 -0.0712  0.1211
  574THF     O1 9390   2.050   5.138   1.536  0.1726  0.6158 -0.2784
  574THF     C2 9391   2.026   5.020   1.463  0.2223 -0.1621 -0.3615
  574THF     C3 9392   2.011   5.250   1.469 -0.5828  0.5094  0.1524
  574THF     H4 9393   1.924   4.983   1.472  1.3330 -3.6478 -0.3925
  574THF     H5 9394   2.089   4.936   1.492  1.3516  1.0319  0.7673
  574THF     H6 9395   1.902   5.250   1.460 -0.4196 -0.9591 -3.2663
  574THF     H7 9396   2.057   5.342   1.505  0.4385  0.0683 -0.0117
  574THF     C8 9397   2.062   5.219   1.331  0.1895  0.1006 -0.1726
  574THF     C9 9398   2.034   5.069   1.315 -0.5521 -0.1231 -0.5570
  574THF    H10 9399   2.170   5.230   1.335  0.5883 -2.4245 -1.9082
  574THF    H11 9400   2.036   5.277   1.243  0.0436 -0.2245 -0.3477
  574THF    H12 9401   1.940   5.042   1.267 -0.0435  0.2648 -1.7972
  574THF    H13 9402   2.120   5.035   1.258 -0.4660  0.6864 -0.9201
  575THF     O1 9403   5.273   0.675   2.042 -0.1932  0.7941 -0.1174
  575THF     C2 9404   5.152   0.734   2.086 -0.2183 -0.2342 -0.8767
  575THF     C3 9405   5.245   0.604   1.920  0.8692 -0.3862  0.7208
  575THF     H4 9406   5.186   0.822   2.140 -2.5100  1.3096 -1.8354
  575THF     H5 9407   5.116   0.667   2.165 -0.5936  1.1785  0.1799
  575THF     H6 9408   5.292   0.665   1.843 -0.2974  1.1599  1.1855
  575THF     H7 9409   5.276   0.499   1.924  0.7992 -0.4141  0.5193
  575THF     C8 9410   5.093   0.614   1.903  0.3125  0.0593  0.8425
  575THF     C9 9411   5.064   0.744   1.967 -0.1509  0.3922 -0.2069
  575THF    H10 9412   5.042   0.532   1.954 -3.2457  0.2041 -2.0533
  575THF    H11 9413   5.053   0.614   1.802  1.7622  1.1455  0.2282
  575THF    H12 9414   5.100   0.825   1.903 -1.2025  1.1244  0.0901
  575THF    H13 9415   4.959   0.769   1.986  0.4185  0.9257  2.7858
  576THF     O1 9416   2.405   4.661   2.667  0.0320 -0.3907  0.6779
  576THF     C2 9417   2.369   4.601   2.796 -0.1844 -0.0900  0.2743
  576THF     C3 9418   2.393   4.802   2.686 -0.1343  0.3420  0.1558
  576THF     H4 9419   2.452   4.539   2.830  0.4874  1.1905  1.0429
  576THF     H5 9420   2.278   4.542   2.788 -0.1019 -0.3037  0.8345
  576THF     H6 9421   2.494   4.838   2.706  1.2181 -1.6230 -2.4139
  576THF     H7 9422   2.358   4.855   2.597  1.4060  0.5936 -0.3336
  576THF     C8 9423   2.303   4.829   2.799 -0.0296 -0.0556 -0.2947
  576THF     C9 9424   2.345   4.716   2.891  0.3517  0.1511  0.0737
  576THF    H10 9425   2.203   4.815   2.757 -0.7562  1.5508  0.7894
  576THF    H11 9426   2.300   4.934   2.827  0.9364 -0.1067  0.0433
  576THF    H12 9427   2.434   4.740   2.951 -1.5461  1.9657  2.3725
  576THF    H13 9428   2.260   4.690   2.954 -0.0812  1.4535  0.0655
  577THF     O1 9429   3.160   1.869   2.700 -0.3145  0.0327  0.1850
  577THF     C2 9430   3.196   2.004   2.682  0.8210  0.4491 -0.0395
  577THF     C3 9431   3.282   1.809   2.752 -0.6286  0.2393  0.0339
  577THF     H4 9432   3.173   2.061   2.772 -4.0698 -0.2009 -0.5896
  577THF     H5 9433   3.138   2.046   2.599  2.1974 -0.9530 -1.8065
  577THF     H6 9434   3.287   1.823   2.860  0.7371  0.4889 -0.0447
  577THF     H7 9435   3.283   1.702   2.728 -0.4074  0.6251 -1.8368
  577THF     C8 9436   3.397   1.884   2.696 -0.1707  0.7439 -0.4869
  577THF     C9 9437   3.342   2.017   2.666 -0.4618 -0.2428  0.2488
  577THF    H10 9438   3.445   1.848   2.604  0.7459  0.4848  0.0796
  577THF    H11 9439   3.478   1.886   2.769 -0.3002 -0.9368 -0.2562
  577THF    H12 9440   3.398   2.082   2.733  0.8816 -1.7829  0.6890
  577THF    H13 9441   3.372   2.038   2.563 -1.6548  0.1338 -0.0351
  578THF     O1 9442   0.476   1.609   0.249  0.0136  0.4896  0.5248
  578THF     C2 9443   0.603   1.565   0.251  0.1012  0.3864 -0.0433
  578THF     C3 9444   0.422   1.555   0.375 -0.1888 -0.2207 -0.0800
  578THF     H4 9445   0.668   1.612   0.178  0.0719  0.0993 -0.2526
  578THF     H5 9446   0.618   1.457   0.243 -0.3753  0.4068 -1.3120
  578THF     H6 9447   0.320   1.586   0.397  0.3379  0.7813  1.0897
  578THF     H7 9448   0.413   1.448   0.359 -1.3613  0.1925 -2.7921
  578THF     C8 9449   0.531   1.584   0.479  0.1641 -0.2781 -0.0319
  578THF     C9 9450   0.655   1.605   0.388  0.2565  0.6788  0.0228
  578THF    H10 9451   0.533   1.489   0.533 -1.6428  0.1742  0.9303
  578THF    H11 9452   0.507   1.671   0.540 -0.3127  1.8966 -3.0936
  578THF    H12 9453   0.689   1.708   0.398 -0.0009  0.6804  1.0349
  578THF    H13 9454   0.738   1.539   0.411 -0.0750  0.2506  0.0132
  579THF     O1 9455   3.953   5.410   4.732 -0.3029  0.0569  0.3052
  579THF     C2 9456   3.889   5.511   4.802 -0.0349 -0.3236  0.2381
  579THF     C3 9457   4.067   5.371   4.810 -0.8113 -0.4357  0.0898
  579THF     H4 9458   3.833   5.470   4.887 -1.8213 -0.7192 -1.0781
  579THF     H5 9459   3.822   5.569   4.738 -1.5508 -0.4865  1.6030
  579THF     H6 9460   4.058   5.271   4.853 -1.7054 -0.4569 -0.1291
  579THF     H7 9461   4.156   5.352   4.749 -0.0242 -2.9862  1.8489
  579THF     C8 9462   4.098   5.475   4.910  0.1650 -0.7635  0.1329
  579THF     C9 9463   4.010   5.586   4.861  0.7858 -0.2277 -0.3656
  579THF    H10 9464   4.200   5.513   4.909  0.2497 -0.9779  0.3870
  579THF    H11 9465   4.071   5.452   5.013  1.9749 -0.1125  0.7908
  579THF    H12 9466   3.992   5.672   4.925  2.8513  0.3372 -0.4874
  579THF    H13 9467   4.068   5.629   4.780  0.3442  0.2378 -0.4359
  580THF     O1 9468   5.309   2.402   3.279 -0.4177  0.4348  0.9782
  580THF     C2 9469   5.368   2.406   3.145 -0.0857 -0.0160 -0.2007
  580THF     C3 9470   5.383   2.314   3.366 -0.8070  0.3595 -0.1750
  580THF     H4 9471   5.352   2.501   3.093  0.5814 -0.3649 -1.0692
  580THF     H5 9472   5.324   2.336   3.075  3.2038 -1.9132 -0.5597
  580THF     H6 9473   5.402   2.367   3.460  0.9526 -0.3938 -0.0626
  580THF     H7 9474   5.320   2.228   3.384 -0.4366  0.1193 -0.0059
  580THF     C8 9475   5.507   2.271   3.290 -0.8885  0.0629 -0.3138
  580THF     C9 9476   5.511   2.369   3.169  0.6836 -0.2567 -0.4975
  580THF    H10 9477   5.494   2.167   3.260 -4.9231  0.5211 -0.7944
  580THF    H11 9478   5.598   2.283   3.348 -0.3341  0.1878 -1.1780
  580THF    H12 9479   5.565   2.456   3.204 -0.6685 -0.5611  2.6696
  580THF    H13 9480   5.557   2.330   3.078  0.6148  2.2493 -1.6775
  581THF     O1 9481   3.290   0.871   3.222 -0.0990 -0.2892  0.1406
  581THF     C2 9482   3.408   0.810   3.258 -0.4140  0.1382 -0.1399
  581THF     C3 9483   3.202   0.773   3.167 -0.3488  0.4568 -0.9852
  581THF     H4 9484   3.403   0.762   3.356 -0.3744  2.0393  0.8200
  581THF     H5 9485   3.492   0.878   3.263 -1.0217  1.0155 -1.2843
  581THF     H6 9486   3.139   0.730   3.244 -0.8729  0.8690 -1.1739
  581THF     H7 9487   3.126   0.810   3.097 -1.3587 -0.9401 -0.6752
  581THF     C8 9488   3.300   0.665   3.104  0.0792  0.1314  0.4400
  581THF     C9 9489   3.434   0.710   3.152  0.0477  0.5372  0.6705
  581THF    H10 9490   3.295   0.656   2.995 -1.8751  0.4664  0.4735
  581THF    H11 9491   3.269   0.571   3.150  0.7994  0.2679  1.2238
  581THF    H12 9492   3.499   0.633   3.194 -1.1581 -1.8261 -1.6031
  581THF    H13 9493   3.490   0.763   3.075 -0.0560  1.1490  1.0045
  582THF     O1 9494   2.016   2.053   3.299  0.2065  0.1769 -0.0095
  582THF     C2 9495   1.920   2.151   3.271 -0.0435 -0.2343 -0.0951
  582THF     C3 9496   1.946   1.927   3.292 -0.4064 -0.6145 -0.3564
  582THF     H4 9497   1.899   2.168   3.165 -0.2142 -2.3718 -0.4307
  582THF     H5 9498   1.955   2.244   3.316  1.6466 -0.2679 -1.2197
  582THF     H6 9499   1.919   1.902   3.189  1.0527 -3.1032 -0.2040
  582THF     H7 9500   2.002   1.848   3.341  1.4089  1.1137  0.5255
  582THF     C8 9501   1.818   1.953   3.370 -0.7212 -0.2957  0.0949
  582THF     C9 9502   1.808   2.103   3.363 -0.5329  0.5179 -0.0753
  582THF    H10 9503   1.826   1.927   3.476 -0.1373 -1.5314 -0.2395
  582THF    H11 9504   1.734   1.897   3.331 -0.7878 -0.9969  1.1936
  582THF    H12 9505   1.716   2.143   3.320 -1.3015 -0.4735  0.5974
  582THF    H13 9506   1.821   2.162   3.454  1.3835 -0.3871  0.3002
  583THF     O1 9507   4.786   5.203   0.651  0.6214  0.2880  0.3021
  583THF     C2 9508   4.661   5.216   0.579 -0.1714 -0.7608  0.0668
  583THF     C3 9509   4.875   5.154   0.548 -0.4252 -0.2608 -0.7998
  583THF     H4 9510   4.599   5.295   0.621 -0.3360 -0.4709 -0.7112
  583THF     H5 9511   4.606   5.122   0.568 -0.6285 -0.3452 -1.5187
  583THF     H6 9512   4.975   5.145   0.593 -0.2028 -0.4633 -1.3291
  583THF     H7 9513   4.845   5.052   0.526  3.5189 -1.3031 -2.1796
  583THF     C8 9514   4.855   5.256   0.438  0.4036 -0.0087 -0.9967
  583THF     C9 9515   4.696   5.259   0.438 -0.2729 -0.2727  0.3346
  583THF    H10 9516   4.907   5.218   0.351 -1.5063  2.5432 -3.4250
  583THF    H11 9517   4.902   5.346   0.479 -1.0340 -0.1361  1.0860
  583THF    H12 9518   4.652   5.352   0.401  0.7840 -0.6310 -1.9555
  583THF    H13 9519   4.658   5.181   0.373  0.8833 -1.3510  0.9278
  584THF     O1 9520   2.823   3.575   3.755 -0.0062  0.1470 -0.6624
  584THF     C2 9521   2.885   3.584   3.882 -0.6216 -0.2570 -0.4269
  584THF     C3 9522   2.702   3.651   3.763 -0.0215 -0.3964 -0.1857
  584THF     H4 9523   2.990   3.609   3.863 -0.7280 -0.5678 -1.5233
  584THF     H5 9524   2.877   3.483   3.923 -0.1338 -1.0528 -2.1878
  584THF     H6 9525   2.724   3.747   3.717  0.7161  0.5276  1.9668
  584THF     H7 9526   2.619   3.606   3.708 -0.6262  1.2110 -0.6370
  584THF     C8 9527   2.662   3.652   3.910 -0.0968  0.3660  0.3535
  584THF     C9 9528   2.801   3.683   3.963  0.4264  0.2454  0.3741
  584THF    H10 9529   2.629   3.561   3.961 -0.4422 -0.1084 -0.6786
  584THF    H11 9530   2.589   3.730   3.927  0.0502  0.0615  2.7388
  584THF    H12 9531   2.830   3.787   3.942  0.3625  0.4038  1.0455
  584THF    H13 9532   2.813   3.662   4.069  3.7459  0.7073  0.2077
  585THF     O1 9533   5.406   1.765   1.660  0.6874  0.3441 -0.0498
  585THF     C2 9534   5.270   1.768   1.695 -0.7044 -0.0501 -0.8605
  585THF     C3 9535   5.427   1.874   1.570 -0.3064 -0.1284  0.0460
  585THF     H4 9536   5.268   1.744   1.802 -0.6196  2.4782 -0.2142
  585THF     H5 9537   5.223   1.679   1.655  1.0733 -2.1451  1.3665
  585THF     H6 9538   5.534   1.892   1.560 -0.2995  1.1590  1.8994
  585THF     H7 9539   5.390   1.858   1.468 -0.0587  0.6631 -0.1828
  585THF     C8 9540   5.349   1.985   1.652 -0.4022 -0.5801  0.5049
  585THF     C9 9541   5.219   1.914   1.683  0.1204  0.6156 -0.1982
  585THF    H10 9542   5.330   2.073   1.591 -0.7494 -1.4212 -0.6278
  585THF    H11 9543   5.407   2.020   1.738 -0.1269  2.6538 -0.8392
  585THF    H12 9544   5.163   1.942   1.773 -1.8046 -2.4930 -0.2650
  585THF    H13 9545   5.151   1.911   1.597  0.1367  2.1630 -0.2910
  586THF     O1 9546   4.047   1.165   5.063 -0.3185  1.0445  0.1388
  586THF     C2 9547   3.980   1.109   4.947 -0.0090  0.2244 -0.5687
  586THF     C3 9548   3.966   1.137   5.175 -0.0525  0.2850 -0.4047
  586THF     H4 9549   4.035   1.024   4.909  2.4666  0.9156  1.2515
  586THF     H5 9550   4.002   1.180   4.867  2.6211 -0.5508 -0.6252
  586THF     H6 9551   3.995   1.038   5.210 -1.6418  0.0456  0.2860
  586THF     H7 9552   3.972   1.214   5.252  0.4706  0.9303 -1.0624
  586THF     C8 9553   3.822   1.124   5.124  0.7026 -0.5672  0.0021
  586THF     C9 9554   3.834   1.095   4.977 -0.3318  0.4725  0.0813
  586THF    H10 9555   3.770   1.216   5.146  2.1995  0.1589  0.6918
  586THF    H11 9556   3.768   1.050   5.183  0.0042  1.3179  1.8369
  586THF    H12 9557   3.794   0.995   4.961 -0.2387  0.3679  0.4873
  586THF    H13 9558   3.778   1.168   4.918 -2.1110  0.0955  1.2064
  587THF     O1 9559   2.684   0.141   3.427 -0.2352 -0.7535 -0.3673
  587THF     C2 9560   2.721   0.270   3.391  0.2481 -0.1206  0.4657
  587THF     C3 9561   2.679   0.125   3.569  0.1622 -0.1020 -0.9121
  587THF     H4 9562   2.628   0.322   3.367  0.9042  1.7552  1.7355
  587THF     H5 9563   2.792   0.258   3.309  0.9003 -0.3057  1.0484
  587THF     H6 9564   2.578   0.153   3.598 -0.1006 -0.4225 -1.5133
  587THF     H7 9565   2.704   0.024   3.601 -2.0960 -0.2125  0.7489
  587THF     C8 9566   2.786   0.223   3.616 -0.0805 -0.1891 -0.2414
  587THF     C9 9567   2.786   0.336   3.513 -0.0675  0.1868  1.3446
  587THF    H10 9568   2.879   0.168   3.626 -0.4729 -1.1141 -1.4608
  587THF    H11 9569   2.765   0.264   3.715  0.3083 -0.0451 -0.2155
  587THF    H12 9570   2.732   0.428   3.537  0.3106  0.5456  0.8450
  587THF    H13 9571   2.888   0.358   3.481  0.1731 -0.6894  1.5023
  588THF     O1 9572   2.866   4.447   2.029  0.2202  0.2286  0.3086
  588THF     C2 9573   2.759   4.418   2.114  0.6776 -0.5155  0.7562
  588THF     C3 9574   2.819   4.545   1.937  0.1849 -0.3561  0.0750
  588THF     H4 9575   2.790   4.358   2.200  2.7622 -1.5490 -0.6233
  588THF     H5 9576   2.678   4.361   2.067  1.2556 -0.1085 -0.7968
  588THF     H6 9577   2.905   4.602   1.903 -0.2399  0.2489 -0.0042
  588THF     H7 9578   2.766   4.515   1.847 -1.7717 -1.5685  1.5476
  588THF     C8 9579   2.716   4.627   2.023 -0.2221 -0.2949 -1.0626
  588THF     C9 9580   2.713   4.556   2.150  0.0986 -0.2865  0.3716
  588THF    H10 9581   2.617   4.628   1.976 -1.4727  0.0199  1.3788
  588THF    H11 9582   2.752   4.730   2.030  0.4037 -0.6126  0.9908
  588THF    H12 9583   2.782   4.589   2.227 -0.1828  1.4936 -0.0873
  588THF    H13 9584   2.615   4.558   2.197 -0.5792  1.2328 -0.9958
  589THF     O1 9585   3.956   2.865   1.275 -0.2066 -0.5693 -0.1804
  589THF     C2 9586   3.825   2.816   1.287  0.3897 -0.0168 -0.3991
  589THF     C3 9587   4.018   2.784   1.179 -0.3645  0.1216 -1.0790
  589THF     H4 9588   3.750   2.848   1.215 -2.1878 -1.7577  1.3264
  589THF     H5 9589   3.787   2.842   1.386 -1.9617  0.6294 -1.3920
  589THF     H6 9590   3.981   2.802   1.078 -2.1114  0.7515 -0.3659
  589THF     H7 9591   4.126   2.797   1.168 -0.4065  1.9468  0.2672
  589THF     C8 9592   3.980   2.648   1.229  0.3906 -0.7249  0.5391
  589THF     C9 9593   3.828   2.671   1.266 -0.9827 -0.2729  0.5373
  589THF    H10 9594   4.043   2.620   1.314  0.8735  2.7253  1.4998
  589THF    H11 9595   3.978   2.579   1.145 -1.8612 -0.9435  0.7353
  589THF    H12 9596   3.771   2.644   1.177 -1.4235  0.4087  0.6083
  589THF    H13 9597   3.792   2.622   1.356 -1.1904  0.6102  0.9485
  590THF     O1 9598   4.285   3.617   3.561 -0.0579  0.3448 -0.2301
  590THF     C2 9599   4.189   3.534   3.499 -0.8874 -0.2503  0.0895
  590THF     C3 9600   4.211   3.683   3.661  0.5579  0.0164 -0.1100
  590THF     H4 9601   4.157   3.456   3.567 -1.2687 -1.1229 -1.0521
  590THF     H5 9602   4.224   3.477   3.413 -0.3242  0.8345 -0.4287
  590THF     H6 9603   4.193   3.617   3.746  0.1438  0.9790  0.5705
  590THF     H7 9604   4.278   3.760   3.700  0.3277 -0.2145  0.7588
  590THF     C8 9605   4.084   3.726   3.589 -0.2748  0.0162 -0.1353
  590THF     C9 9606   4.076   3.627   3.471  0.7539 -0.4688  0.0647
  590THF    H10 9607   4.103   3.826   3.551 -0.3054  0.7087  1.5747
  590THF    H11 9608   3.986   3.733   3.636  0.3819 -1.1931  1.4860
  590THF    H12 9609   3.988   3.564   3.458 -0.4639  1.3432 -0.9038
  590THF    H13 9610   4.093   3.680   3.377  0.2674 -0.7485 -0.1853
  591THF     O1 9611   3.198   3.911   4.975  0.5887 -0.2167  0.0007
  591THF     C2 9612   3.085   3.835   5.015  0.5694 -0.5912  0.1481
  591THF     C3 9613   3.231   3.993   5.091 -0.6603 -0.0783 -0.3392
  591THF     H4 9614   3.091   3.740   4.962 -2.6997  0.1714 -1.8499
  591THF     H5 9615   2.992   3.882   4.983  1.4156  1.1956  0.1950
  591THF     H6 9616   3.335   4.008   5.118 -1.3924  1.0983  2.1956
  591THF     H7 9617   3.217   4.099   5.068  2.2345  0.6888  1.0107
  591THF     C8 9618   3.152   3.947   5.209 -0.3284 -0.1943  0.0880
  591THF     C9 9619   3.108   3.820   5.166 -0.2415  0.5016 -0.0493
  591THF    H10 9620   3.070   4.016   5.233  1.0491  1.6190 -0.1656
  591THF    H11 9621   3.209   3.957   5.301 -1.7094  0.8680  0.8852
  591THF    H12 9622   3.184   3.744   5.183 -1.1773 -0.1009  1.7322
  591THF    H13 9623   3.019   3.785   5.218  0.6250  0.2694  1.3260
  592THF     O1 9624   4.425   4.619   1.513 -0.1580  0.0294  0.2438
  592THF     C2 9625   4.417   4.755   1.559  0.5316  0.8921 -0.4127
  592THF     C3 9626   4.561   4.574   1.537 -0.7693  0.2249  1.1634
  592THF     H4 9627   4.315   4.770   1.593  0.4600  1.3272 -0.8127
  592THF     H5 9628   4.443   4.828   1.482  0.9958 -0.3118 -1.4282
  592THF     H6 9629   4.573   4.467   1.524 -0.9177  0.1576  1.5615
  592THF     H7 9630   4.627   4.626   1.468 -1.9908  1.2969  0.7552
  592THF     C8 9631   4.573   4.614   1.679 -0.4974 -0.9977 -0.0900
  592THF     C9 9632   4.519   4.756   1.680 -0.1425  0.0797 -0.1269
  592THF    H10 9633   4.678   4.611   1.708 -0.2785  1.2306 -0.4199
  592THF    H11 9634   4.504   4.547   1.728 -1.5732  0.3741  0.3373
  592THF    H12 9635   4.481   4.777   1.779 -0.9250 -0.2321 -0.3528
  592THF    H13 9636   4.600   4.827   1.660  0.6766 -0.0104  2.5171
  593THF     O1 9637   1.146   0.244   4.437 -0.4718  0.1986 -0.0560
  593THF     C2 9638   1.022   0.243   4.369 -0.2284  0.4677 -0.5818
  593THF     C3 9639   1.157   0.365   4.513 -0.6648 -0.6404 -0.0980
  593THF     H4 9640   0.992   0.138   4.360  0.1147 -0.0008  2.5664
  593THF     H5 9641   1.032   0.285   4.269  0.8500 -0.7813 -1.0365
  593THF     H6 9642   1.181   0.353   4.619 -0.6676  0.1296 -0.0041
  593THF     H7 9643   1.247   0.413   4.475 -0.6194  1.1783  2.0745
  593THF     C8 9644   1.028   0.449   4.488 -0.0153 -0.2841  0.2049
  593THF     C9 9645   0.936   0.329   4.451  0.5525 -0.2320 -0.6904
  593THF    H10 9646   1.035   0.516   4.403  0.4144  0.3809  0.7541
  593THF    H11 9647   0.993   0.505   4.575 -1.3042  0.7983 -0.9711
  593THF    H12 9648   0.907   0.265   4.535  0.0532  0.4940 -0.3000
  593THF    H13 9649   0.846   0.356   4.396 -0.1280  0.2523  0.6119
  594THF     O1 9650   0.666   0.552   3.215 -0.0252  0.4364  0.1103
  594THF     C2 9651   0.761   0.631   3.286  0.2247 -0.5436  0.5707
  594THF     C3 9652   0.609   0.634   3.119  0.4529  0.8289  0.2884
  594THF     H4 9653   0.859   0.624   3.239 -0.2370 -0.9740 -0.3655
  594THF     H5 9654   0.770   0.596   3.389  1.8231 -0.4168  0.4874
  594THF     H6 9655   0.679   0.631   3.036  0.2233  1.1993  0.0793
  594THF     H7 9656   0.519   0.583   3.086 -0.0219  0.9444  1.3502
  594THF     C8 9657   0.590   0.769   3.181  0.0958  0.1093  0.1905
  594THF     C9 9658   0.709   0.781   3.273 -0.1856  0.2736  0.0027
  594THF    H10 9659   0.500   0.787   3.239 -0.8180 -0.0404 -1.1302
  594THF    H11 9660   0.585   0.844   3.102  1.0038 -1.8848 -1.8904
  594THF    H12 9661   0.785   0.838   3.220 -0.6810 -0.0886 -1.1301
  594THF    H13 9662   0.698   0.816   3.376 -1.6598  0.4129 -0.1874
  595THF     O1 9663   1.033   1.704   3.263 -0.2357  0.4504 -0.4180
  595THF     C2 9664   1.032   1.635   3.392 -0.1085 -0.7096  0.3588
  595THF     C3 9665   1.127   1.629   3.185 -0.4954 -0.0067 -0.7299
  595THF     H4 9666   0.956   1.557   3.399 -1.1526  0.0533 -1.7011
  595THF     H5 9667   1.022   1.699   3.479 -0.3049  0.1143 -0.2568
  595THF     H6 9668   1.081   1.542   3.140 -0.6779 -0.2206 -0.1391
  595THF     H7 9669   1.167   1.682   3.098 -0.3100  0.1340 -0.5604
  595THF     C8 9670   1.242   1.597   3.280 -0.2518  0.0036 -0.2929
  595THF     C9 9671   1.162   1.558   3.400 -0.4619  0.0848 -0.6451
  595THF    H10 9672   1.305   1.685   3.294  1.0064 -1.1484  1.7895
  595THF    H11 9673   1.305   1.521   3.233 -0.5050 -0.3461 -0.0714
  595THF    H12 9674   1.145   1.451   3.405 -0.2628  0.0653 -0.3682
  595THF    H13 9675   1.217   1.598   3.485 -0.6703  1.7030 -1.2340
  596THF     O1 9676   1.190   0.980   0.306 -0.1970 -0.4966 -0.1448
  596THF     C2 9677   1.103   0.892   0.246  0.4691  0.1822 -0.1778
  596THF     C3 9678   1.296   0.910   0.371  0.0446 -0.7368  0.2312
  596THF     H4 9679   1.101   0.899   0.137  0.7141  1.5760 -0.0993
  596THF     H5 9680   1.002   0.925   0.268 -0.3106 -2.6284  0.9559
  596THF     H6 9681   1.367   0.884   0.293 -0.1733  0.2532 -0.3135
  596THF     H7 9682   1.338   0.976   0.446 -2.0537  2.7627 -1.4238
  596THF     C8 9683   1.235   0.783   0.415  0.1176  0.7884 -0.2947
  596THF     C9 9684   1.136   0.749   0.310  0.6270 -0.3683 -0.2994
  596THF    H10 9685   1.186   0.798   0.511 -0.5091  0.4657 -0.5538
  596THF    H11 9686   1.311   0.705   0.421  0.4566  1.0679 -0.8490
  596THF    H12 9687   1.163   0.673   0.237  0.8345  3.0570 -4.0795
  596THF    H13 9688   1.048   0.709   0.360 -0.4067  1.1059 -0.8876
  597THF     O1 9689   4.680   2.111   2.044  0.0270  0.7284 -0.1041
  597THF     C2 9690   4.542   2.127   2.071 -0.4116 -0.4185  0.4999
  597THF     C3 9691   4.744   2.240   2.051 -0.9151  0.4179 -0.1191
  597THF     H4 9692   4.490   2.032   2.087 -1.2334 -0.1177 -0.3388
  597THF     H5 9693   4.516   2.155   1.969  0.9285 -0.6954  0.0519
  597THF     H6 9694   4.849   2.228   2.080 -1.0998 -1.0466  0.0367
  597THF     H7 9695   4.735   2.281   1.950 -1.2766  0.2619 -0.1508
  597THF     C8 9696   4.662   2.314   2.160  0.4383 -0.4312 -0.0130
  597THF     C9 9697   4.528   2.244   2.167  0.4384  0.2541 -0.0068
  597THF    H10 9698   4.651   2.421   2.143  1.6732 -0.2507  0.2381
  597THF    H11 9699   4.716   2.296   2.253  0.7669  3.2609  0.6935
  597THF    H12 9700   4.500   2.201   2.263 -1.2847  0.7772 -0.2430
  597THF    H13 9701   4.448   2.315   2.145  0.4889 -0.0789 -1.4095
  598THF     O1 9702   0.805   0.489   2.192 -0.2056  0.4546 -0.0970
  598THF     C2 9703   0.699   0.579   2.173  0.5018  0.0614 -0.5323
  598THF     C3 9704   0.757   0.383   2.272 -0.9913  0.6892  0.5477
  598THF     H4 9705   0.638   0.561   2.085 -2.8321 -0.1367  1.6546
  598THF     H5 9706   0.734   0.680   2.150  0.3759  0.1607 -0.2906
  598THF     H6 9707   0.674   0.329   2.225 -1.3836 -1.2701  3.2286
  598THF     H7 9708   0.835   0.319   2.314  0.6454  1.2744 -1.4694
  598THF     C8 9709   0.692   0.467   2.380  0.0680  0.3192  0.4405
  598THF     C9 9710   0.615   0.575   2.305  0.6699  0.0164  0.3102
  598THF    H10 9711   0.772   0.491   2.451 -0.5261 -1.3015  1.7225
  598THF    H11 9712   0.623   0.414   2.445 -0.8686  1.4945  0.4350
  598THF    H12 9713   0.514   0.539   2.284 -0.3043  2.4589  0.5443
  598THF    H13 9714   0.608   0.673   2.350 -0.9816 -1.3706  3.3776
  599THF     O1 9715   2.705   1.374   1.001 -0.5886 -0.3782  0.0731
  599THF     C2 9716   2.844   1.331   1.021  0.3843  0.3231 -0.0298
  599THF     C3 9717   2.715   1.501   0.943 -0.2572  0.6855 -0.3881
  599THF     H4 9718   2.853   1.224   1.044  0.4927  0.3950  0.2709
  599THF     H5 9719   2.894   1.375   1.107  0.4272  2.1135 -0.9463
  599THF     H6 9720   2.620   1.521   0.892 -0.1023 -2.0629 -1.9536
  599THF     H7 9721   2.722   1.584   1.014 -0.5113 -0.2447  0.7641
  599THF     C8 9722   2.831   1.496   0.844  0.9482 -0.0052  0.0664
  599THF     C9 9723   2.918   1.390   0.899 -0.2906  0.0583  0.6366
  599THF    H10 9724   2.883   1.592   0.832 -1.4025  1.3458  0.1329
  599THF    H11 9725   2.784   1.492   0.746 -2.3832  2.9143  1.3378
  599THF    H12 9726   2.934   1.316   0.820  0.5505  0.3740  0.5048
  599THF    H13 9727   3.014   1.426   0.937  0.4884 -1.4093  0.1600
  600THF     O1 9728   3.274   0.947   2.244 -0.2439 -0.3765  0.1011
  600THF     C2 9729   3.205   1.035   2.329 -0.3487 -0.6152  0.2075
  600THF     C3 9730   3.370   0.877   2.329 -0.0509 -0.1906  0.6573
  600THF     H4 9731   3.132   0.970   2.378 -0.9029  0.6080  1.0411
  600THF     H5 9732   3.162   1.115   2.270 -0.2489 -0.4768  0.3209
  600THF     H6 9733   3.327   0.788   2.375  0.4225 -1.5348 -1.3610
  600THF     H7 9734   3.458   0.852   2.269 -1.2760 -0.7579 -0.9970
  600THF     C8 9735   3.415   0.984   2.431 -0.0363  0.3894  0.4100
  600THF     C9 9736   3.304   1.089   2.432 -0.1577 -0.0696  1.0052
  600THF    H10 9737   3.504   1.040   2.400  0.4714 -0.0395  1.0788
  600THF    H11 9738   3.429   0.941   2.530 -2.2005  0.0725  0.6064
  600THF    H12 9739   3.262   1.100   2.532 -0.3693 -1.6249  1.1106
  600THF    H13 9740   3.344   1.185   2.400 -1.9583  0.3237 -0.2712
  601THF     O1 9741   2.605   1.319   0.041 -0.5056  0.3805 -0.0461
  601THF     C2 9742   2.693   1.310  -0.067  0.0946  0.3059 -0.6056
  601THF     C3 9743   2.494   1.249  -0.001  0.3227  0.2156 -0.3333
  601THF     H4 9744   2.792   1.291  -0.023 -0.4083 -0.3959  0.2690
  601THF     H5 9745   2.716   1.405  -0.114  2.8063 -0.0526 -0.1892
  601THF     H6 9746   2.438   1.214   0.086 -0.0228  1.3143 -0.0936
  601THF     H7 9747   2.416   1.317  -0.037  0.5782  1.0300  0.6057
  601THF     C8 9748   2.542   1.132  -0.089  0.5032  0.6113 -0.5931
  601THF     C9 9749   2.652   1.197  -0.169 -0.2773 -0.3628  0.2346
  601THF    H10 9750   2.464   1.092  -0.154  0.5597  0.8837 -0.8287
  601THF    H11 9751   2.583   1.050  -0.030 -0.2303  0.0327 -0.8708
  601THF    H12 9752   2.746   1.147  -0.192  0.0562 -0.5946  1.9450
  601THF    H13 9753   2.609   1.235  -0.262 -2.2497 -0.5476  1.0152
  602THF     O1 9754   5.386   1.716   3.932 -0.5003  0.4490 -0.0784
  602THF     C2 9755   5.350   1.612   3.845 -0.9286 -0.2769  0.7873
  602THF     C3 9756   5.269   1.760   3.996 -0.1742 -0.2094  0.2295
  602THF     H4 9757   5.338   1.520   3.901 -0.1279 -0.8782 -0.0046
  602THF     H5 9758   5.426   1.607   3.767 -1.6793  0.3905 -0.0099
  602THF     H6 9759   5.253   1.680   4.067 -3.5016  1.2787  1.3224
  602THF     H7 9760   5.289   1.855   4.046 -1.7701  1.8631 -2.7509
  602THF     C8 9761   5.154   1.756   3.892 -0.9055  0.7882 -0.5042
  602THF     C9 9762   5.216   1.651   3.790 -0.0508 -0.2326 -0.1734
  602THF    H10 9763   5.156   1.855   3.848  1.7890  0.8444 -0.4516
  602THF    H11 9764   5.058   1.717   3.925 -0.6103 -1.1588 -1.7650
  602THF    H12 9765   5.149   1.566   3.782 -0.4061  0.1729 -2.1621
  602THF    H13 9766   5.214   1.691   3.688 -1.1994  1.2704  0.4000
  603THF     O1 9767   4.424   1.242   0.193 -0.4158 -0.1375 -0.4618
  603THF     C2 9768   4.437   1.388   0.170  0.7828  0.2642  0.3198
  603THF     C3 9769   4.341   1.182   0.100  0.0051  0.6488 -0.0123
  603THF     H4 9770   4.534   1.426   0.137  0.9971 -0.6634 -0.1584
  603THF     H5 9771   4.401   1.442   0.258  1.3129  0.1118  0.6352
  603THF     H6 9772   4.399   1.156   0.012  0.4715  0.1775  0.4259
  603THF     H7 9773   4.293   1.095   0.143  1.2178  1.9196  4.4517
  603THF     C8 9774   4.248   1.291   0.056 -0.4334 -0.2044 -0.0644
  603THF     C9 9775   4.333   1.420   0.063 -0.0483 -0.2192  0.2414
  603THF    H10 9776   4.166   1.295   0.128 -0.1502 -1.0953  0.3142
  603THF    H11 9777   4.199   1.275  -0.041 -0.9690 -1.9760  0.4662
  603THF    H12 9778   4.396   1.438  -0.024 -0.2604 -0.9034 -0.0638
  603THF    H13 9779   4.280   1.512   0.089  0.5779  0.6961 -1.5681
  604THF     O1 9780   0.111   0.530   4.717 -0.0200 -0.1566 -0.2739
  604THF     C2 9781   0.136   0.433   4.608  0.6519  0.3294 -0.0168
  604THF     C3 9782   0.177   0.470   4.832  0.1522  0.1499  0.5044
  604THF     H4 9783   0.231   0.456   4.560  1.4083 -1.4332  0.5506
  604THF     H5 9784   0.058   0.431   4.532  1.6492 -2.1835 -1.1107
  604THF     H6 9785   0.258   0.534   4.866  0.2099  1.3009 -1.6649
  604THF     H7 9786   0.102   0.485   4.910 -0.1024  0.9880  0.1089
  604THF     C8 9787   0.213   0.327   4.804 -0.5260 -0.3932 -0.7953
  604THF     C9 9788   0.148   0.292   4.679 -0.4913  0.1633  0.1028
  604THF    H10 9789   0.173   0.262   4.882 -0.2283 -0.3374 -0.5912
  604THF    H11 9790   0.321   0.319   4.791 -0.2386 -1.1951  1.5520
  604THF    H12 9791   0.209   0.219   4.626 -0.6017 -1.0735  1.6203
  604THF    H13 9792   0.049   0.256   4.705 -0.6914 -0.6130 -1.6351
  605THF     O1 9793   1.174   4.144   5.486 -0.1367 -0.1290 -0.1563
  605THF     C2 9794   1.117   4.083   5.600 -0.2053  0.2316  0.1521
  605THF     C3 9795   1.074   4.222   5.421 -0.4248 -0.8057  0.0945
  605THF     H4 9796   1.095   4.161   5.673 -0.0468  4.2526 -3.6634
  605THF     H5 9797   1.186   4.006   5.636 -2.5326 -1.6321  0.8519
  605THF     H6 9798   1.058   4.324   5.458  0.6532  0.8596 -3.5606
  605THF     H7 9799   1.101   4.237   5.316 -0.8316  1.0208  0.2047
  605THF     C8 9800   0.949   4.135   5.437 -0.4670 -0.4708 -0.2288
  605THF     C9 9801   0.992   4.025   5.535 -0.0007  0.2626 -0.1099
  605THF    H10 9802   0.934   4.093   5.338  2.6287 -0.5389 -0.7837
  605THF    H11 9803   0.870   4.192   5.487 -0.6829  0.3582 -1.4768
  605THF    H12 9804   0.917   4.011   5.613  1.7308 -1.7652  1.3136
  605THF    H13 9805   1.018   3.930   5.488  1.0966 -0.5246  1.9317
  606THF     O1 9806   0.723   3.096   1.074 -0.1611  0.5281  0.9924
  606THF     C2 9807   0.845   3.128   1.135 -0.6488 -0.4127 -0.6783
  606THF     C3 9808   0.740   3.102   0.934  0.0079  0.1143  0.2236
  606THF     H4 9809   0.904   3.036   1.140 -1.1736 -0.6711  2.0925
  606THF     H5 9810   0.845   3.162   1.238 -0.4415  0.1894 -0.8714
  606THF     H6 9811   0.790   3.009   0.906 -0.4217 -0.0006 -0.1782
  606THF     H7 9812   0.649   3.099   0.875  0.9772  1.0615 -1.3760
  606THF     C8 9813   0.830   3.222   0.911  0.0485 -0.7650 -0.2173
  606THF     C9 9814   0.911   3.229   1.044 -0.4285  0.3751 -0.0371
  606THF    H10 9815   0.769   3.312   0.909  0.2710 -0.5574  1.2788
  606THF    H11 9816   0.881   3.209   0.815  0.7706 -0.3879  0.1080
  606THF    H12 9817   1.017   3.206   1.038 -0.3810  0.2899  0.9650
  606THF    H13 9818   0.896   3.323   1.097  1.0130 -0.1733  1.4240
  607THF     O1 9819   4.246   2.939   0.240  0.4946 -0.0766 -0.1201
  607THF     C2 9820   4.254   3.045   0.149  0.3164 -0.3378  1.1410
  607THF     C3 9821   4.182   2.837   0.179  0.2008 -0.2095 -0.0069
  607THF     H4 9822   4.337   3.028   0.081 -0.7494  0.9551 -0.5704
  607THF     H5 9823   4.267   3.145   0.189 -2.9870  1.9948 -2.7629
  607THF     H6 9824   4.246   2.783   0.109  0.6682 -0.4487  0.5998
  607THF     H7 9825   4.155   2.758   0.249  1.0577 -1.4003 -0.9590
  607THF     C8 9826   4.066   2.903   0.107  0.7481 -0.0264  0.4146
  607THF     C9 9827   4.118   3.043   0.082 -0.2303 -0.2036  0.4836
  607THF    H10 9828   3.976   2.901   0.169  0.7174 -0.8573  0.3575
  607THF    H11 9829   4.031   2.853   0.017  0.7171  1.6567 -0.5523
  607THF    H12 9830   4.117   3.068  -0.024 -2.0293 -2.4602 -0.1320
  607THF    H13 9831   4.049   3.116   0.123 -1.1249 -1.3077  1.0078
  608THF     O1 9832   4.890   1.224   2.813 -0.2447  0.0171 -0.1384
  608THF     C2 9833   4.873   1.242   2.675  0.5453 -0.4285  0.4731
  608THF     C3 9834   5.030   1.244   2.839  0.1665  0.3779 -0.1539
  608THF     H4 9835   4.865   1.343   2.636  0.1714 -0.5519  0.2191
  608THF     H5 9836   4.786   1.186   2.639 -0.6979  2.3311 -1.1435
  608THF     H6 9837   5.073   1.343   2.823 -1.4742  1.2166  0.3954
  608THF     H7 9838   5.054   1.194   2.933 -1.9464 -1.6313 -0.6104
  608THF     C8 9839   5.091   1.157   2.728  0.6988 -0.2345  0.6675
  608THF     C9 9840   5.005   1.183   2.609 -0.1524  0.5059 -0.0348
  608THF    H10 9841   5.084   1.051   2.756 -0.7294 -0.9472 -1.9807
  608THF    H11 9842   5.196   1.160   2.699  0.6207  0.2355  0.4284
  608THF    H12 9843   5.042   1.263   2.545 -0.1081  0.7048  0.2362
  608THF    H13 9844   4.990   1.086   2.560  2.5196 -1.0213  1.9240
  609THF     O1 9845   3.806   2.816   2.105 -0.0495  0.1311 -0.1983
  609THF     C2 9846   3.847   2.694   2.165 -0.1724 -0.1187  0.1278
  609THF     C3 9847   3.809   2.917   2.205  0.1057 -0.3744 -0.1956
  609THF     H4 9848   3.955   2.683   2.178 -0.2307 -1.0180 -0.0393
  609THF     H5 9849   3.811   2.605   2.114 -1.8471 -1.6472  3.6375
  609THF     H6 9850   3.907   2.965   2.207 -0.4773  1.3442 -3.8533
  609THF     H7 9851   3.742   2.999   2.179  0.7468 -0.2462 -1.5343
  609THF     C8 9852   3.768   2.846   2.328 -0.0346 -0.1404  0.0404
  609THF     C9 9853   3.779   2.701   2.296 -0.6821 -0.1273 -0.2313
  609THF    H10 9854   3.667   2.866   2.362 -1.7944 -2.5325 -3.2565
  609THF    H11 9855   3.825   2.878   2.416 -0.1392 -0.3291  0.1768
  609THF    H12 9856   3.831   2.645   2.374  0.5366  0.6885 -0.4204
  609THF    H13 9857   3.678   2.664   2.283 -0.4931 -0.0415 -2.3166
  610THF     O1 9858   2.749   0.784   0.431  0.6118  0.8019  0.0153
  610THF     C2 9859   2.619   0.748   0.457 -0.1197  0.3070 -1.0688
  610THF     C3 9860   2.752   0.847   0.303  0.6175 -0.2357 -0.6038
  610THF     H4 9861   2.605   0.761   0.564  0.0915  0.8238 -1.1005
  610THF     H5 9862   2.603   0.647   0.419 -0.0896  0.1579 -0.6843
  610THF     H6 9863   2.843   0.896   0.269 -0.4159  1.6557 -0.7988
  610THF     H7 9864   2.716   0.782   0.223 -0.7442 -0.4228  0.1379
  610THF     C8 9865   2.644   0.955   0.339  0.3784 -1.0987  0.0509
  610THF     C9 9866   2.535   0.859   0.391 -0.0867 -0.6809  0.4012
  610THF    H10 9867   2.615   1.010   0.249  0.4946  0.7071  1.0732
  610THF    H11 9868   2.673   1.035   0.406  0.4438  1.3034 -2.6493
  610THF    H12 9869   2.461   0.909   0.453  0.4996 -0.7529  1.1714
  610THF    H13 9870   2.491   0.812   0.303 -1.1161 -0.3681  0.7375
  611THF     O1 9871   4.370   5.187   2.208  0.3853 -0.1671  0.2929
  611THF     C2 9872   4.276   5.120   2.299  1.0611  0.2667 -1.0749
  611THF     C3 9873   4.356   5.132   2.079 -0.2007  0.3863 -0.5143
  611THF     H4 9874   4.177   5.163   2.287 -0.4293 -2.7255 -0.3277
  611THF     H5 9875   4.290   5.135   2.406  0.2068  1.5800 -1.1289
  611THF     H6 9876   4.263   5.166   2.033 -0.2910 -0.8416 -1.2806
  611THF     H7 9877   4.437   5.170   2.018 -1.4203  4.8041  0.3158
  611THF     C8 9878   4.355   4.983   2.120  0.0581 -0.3126  0.5170
  611THF     C9 9879   4.282   4.981   2.254 -0.8376  0.5613  0.7669
  611THF    H10 9880   4.456   4.950   2.143  0.7158 -0.0337 -1.7104
  611THF    H11 9881   4.313   4.923   2.040  1.1995 -1.1215  0.4929
  611THF    H12 9882   4.178   4.949   2.240 -1.4521  1.5251  2.7437
  611THF    H13 9883   4.327   4.913   2.326  3.4310  0.7702 -1.4100
  612THF     O1 9884   0.329   0.353   2.990  0.5808  0.0445  0.6292
  612THF     C2 9885   0.249   0.319   3.099  0.2524  0.6876 -1.0297
  612THF     C3 9886   0.261   0.435   2.898  0.3505 -0.0481 -0.4096
  612THF     H4 9887   0.299   0.281   3.188  1.2993 -2.2330 -2.7204
  612THF     H5 9888   0.182   0.238   3.068 -0.5543  0.8468  0.2260
  612THF     H6 9889   0.339   0.483   2.838 -1.2957 -0.4419 -3.0223
  612THF     H7 9890   0.201   0.372   2.832  2.6628 -0.6096 -2.1240
  612THF     C8 9891   0.182   0.527   2.991  0.2872 -0.4043  0.1077
  612THF     C9 9892   0.172   0.453   3.130 -0.1871 -0.2629  0.2263
  612THF    H10 9893   0.078   0.534   2.960  0.1711 -0.7875  0.4038
  612THF    H11 9894   0.239   0.620   3.002 -1.0053  1.1907 -4.3602
  612THF    H12 9895   0.214   0.503   3.217  0.1353 -0.7755  0.3694
  612THF    H13 9896   0.069   0.435   3.160  0.1562 -0.9937  0.9960
  613THF     O1 9897   4.543   3.081   4.611  0.6715 -0.1401  0.4066
  613THF     C2 9898   4.611   2.955   4.606 -0.0390 -0.0999 -0.1286
  613THF     C3 9899   4.499   3.100   4.742  0.7717  0.3159 -0.1541
  613THF     H4 9900   4.714   2.984   4.623  0.8934 -2.5288 -1.2020
  613THF     H5 9901   4.599   2.910   4.507 -0.6838  1.1160 -0.6335
  613THF     H6 9902   4.586   3.140   4.793 -0.9574  2.9958  0.9249
  613THF     H7 9903   4.424   3.179   4.750 -1.6179 -1.8594  0.2966
  613THF     C8 9904   4.448   2.965   4.789  0.4242 -0.0543  0.8984
  613THF     C9 9905   4.535   2.870   4.716 -0.1927 -0.1338  0.5444
  613THF    H10 9906   4.342   2.954   4.766  0.8379 -0.8586 -0.7484
  613THF    H11 9907   4.437   2.944   4.896 -1.7122 -2.2937  0.3058
  613THF    H12 9908   4.608   2.824   4.782  0.1847 -0.6690 -0.2227
  613THF    H13 9909   4.492   2.788   4.658  0.6325 -0.2001  0.0132
  614THF     O1 9910   3.349   3.960   2.485 -0.4330  0.4091  0.4678
  614THF     C2 9911   3.282   4.026   2.386 -0.3135  0.2370  1.0189
  614THF     C3 9912   3.267   3.951   2.600  0.8987  0.5602  0.1455
  614THF     H4 9913   3.197   3.966   2.354  0.7352 -1.1957  0.7889
  614THF     H5 9914   3.348   4.041   2.301 -0.6432  0.5119  0.8091
  614THF     H6 9915   3.205   3.868   2.567  1.0538  1.3606 -2.3586
  614THF     H7 9916   3.316   3.941   2.697  0.6964 -0.5598  0.1502
  614THF     C8 9917   3.189   4.086   2.596 -0.2820 -0.1012  0.0747
  614THF     C9 9918   3.240   4.147   2.463 -0.4753 -0.0821 -0.2792
  614THF    H10 9919   3.196   4.141   2.690  2.2574 -0.7996  0.3756
  614THF    H11 9920   3.085   4.056   2.591  0.3152 -2.1262 -1.3257
  614THF    H12 9921   3.153   4.193   2.416 -0.1741 -0.7541 -1.5261
  614THF    H13 9922   3.321   4.218   2.479 -1.6099  0.9986  1.0791
  615THF     O1 9923   0.538   4.427   1.591  0.4724  0.3151 -0.0356
  615THF     C2 9924   0.608   4.458   1.477  0.6951 -0.4310  0.0841
  615THF     C3 9925   0.575   4.292   1.625  0.1309  0.5540 -0.8582
  615THF     H4 9926   0.708   4.480   1.516  0.1011 -0.4228  1.6821
  615THF     H5 9927   0.565   4.543   1.423  0.8815 -0.3114  0.1229
  615THF     H6 9928   0.667   4.300   1.684 -1.2065  0.7046  1.3186
  615THF     H7 9929   0.506   4.247   1.697  1.1926  0.2436  0.0106
  615THF     C8 9930   0.594   4.218   1.494  0.5380  0.2865  0.3372
  615THF     C9 9931   0.602   4.327   1.393 -0.4262 -0.5380 -0.0187
  615THF    H10 9932   0.512   4.153   1.464 -0.6440  0.8914  2.1134
  615THF    H11 9933   0.683   4.158   1.512  0.4124  0.1388  0.4686
  615THF    H12 9934   0.698   4.320   1.342  0.2575 -0.0368  1.1642
  615THF    H13 9935   0.525   4.323   1.317  0.4336  0.7025 -0.9926
  616THF     O1 9936   3.816   1.828   2.352  0.5684  0.3775  0.1795
  616THF     C2 9937   3.772   1.846   2.479  0.8395  0.7033  0.4331
  616THF     C3 9938   3.713   1.866   2.258 -0.0459  0.0857 -0.0630
  616THF     H4 9939   3.855   1.841   2.550 -0.7405 -1.5200  2.3097
  616THF     H5 9940   3.714   1.754   2.491  2.5239 -0.6213 -0.8811
  616THF     H6 9941   3.749   1.878   2.156 -2.4239  0.2289 -0.9402
  616THF     H7 9942   3.646   1.781   2.248  0.6126 -0.5158  0.4823
  616THF     C8 9943   3.657   1.991   2.317  0.2060  0.4190  0.2886
  616THF     C9 9944   3.696   1.974   2.461 -0.3351 -0.5619 -0.3226
  616THF    H10 9945   3.549   1.993   2.302  0.3211 -1.2817 -1.1126
  616THF    H11 9946   3.707   2.082   2.284  0.3607 -0.1965 -1.2638
  616THF    H12 9947   3.763   2.055   2.489  0.1608 -1.7226  2.1032
  616THF    H13 9948   3.616   1.986   2.534 -0.1269  0.4416 -0.2474
  617THF     O1 9949   1.054   3.035   2.891 -0.1537 -0.1203 -0.4772
  617THF     C2 9950   1.098   3.110   3.003  0.1963  1.1946  0.1682
  617THF     C3 9951   0.973   2.927   2.942 -0.7778  0.6984 -0.4087
  617THF     H4 9952   1.022   3.186   3.022 -0.3551  0.9417 -0.9401
  617THF     H5 9953   1.200   3.148   2.998  0.7936 -0.1745  1.1527
  617THF     H6 9954   0.877   2.966   2.975  0.2007  1.6302  1.4586
  617THF     H7 9955   0.965   2.852   2.863  0.2774  0.5268 -0.3675
  617THF     C8 9956   1.058   2.868   3.059 -0.4671 -0.2589 -0.2268
  617THF     C9 9957   1.104   3.003   3.117  0.6547 -0.1410  0.1691
  617THF    H10 9958   1.147   2.822   3.015  0.3183  1.3997 -0.4559
  617THF    H11 9959   0.995   2.806   3.122 -1.2326  0.8951  0.1758
  617THF    H12 9960   1.029   3.029   3.192  2.6655  0.0060  2.2418
  617THF    H13 9961   1.200   3.013   3.168  1.3777  4.7901 -1.6102
  618THF     O1 9962   1.468   4.774   0.969 -0.0073 -0.1022  0.7266
  618THF     C2 9963   1.474   4.911   0.952  0.4268 -0.0356  0.1766
  618THF     C3 9964   1.406   4.714   0.856 -0.5906  0.2106  0.3345
  618THF     H4 9965   1.577   4.927   0.921  0.7178 -0.1335  1.0480
  618THF     H5 9966   1.457   4.948   1.053  0.1436 -2.7883  1.2217
  618THF     H6 9967   1.481   4.692   0.779 -0.2312  0.7219  0.5341
  618THF     H7 9968   1.359   4.619   0.882 -0.5882  0.0679 -0.1624
  618THF     C8 9969   1.311   4.817   0.805 -0.0387  0.2395 -0.1701
  618THF     C9 9970   1.357   4.954   0.861 -0.0446  0.0701  0.3292
  618THF    H10 9971   1.211   4.795   0.842 -0.0208 -0.6139 -0.6098
  618THF    H11 9972   1.295   4.811   0.697 -0.8267  1.7189 -0.1585
  618THF    H12 9973   1.383   5.017   0.776 -1.4790  1.7701  1.0989
  618THF    H13 9974   1.287   5.008   0.924 -0.2029 -2.5981  2.6779
  619THF     O1 9975   2.623   4.240   2.401  0.6213  0.9837 -0.0532
  619THF     C2 9976   2.725   4.138   2.418  0.0959  0.0023 -0.2701
  619THF     C3 9977   2.643   4.341   2.495  0.1120  0.5511 -0.1465
  619THF     H4 9978   2.791   4.146   2.332 -0.3836 -2.5887 -0.9691
  619THF     H5 9979   2.689   4.038   2.394  0.9044 -0.1284 -0.9980
  619THF     H6 9980   2.631   4.428   2.430 -0.1439  0.2403 -0.5170
  619THF     H7 9981   2.563   4.337   2.569  1.2198 -0.5192  1.0510
  619THF     C8 9982   2.780   4.324   2.550  0.4768  0.3055 -0.5335
  619THF     C9 9983   2.808   4.174   2.543  0.0029 -0.1457 -0.4834
  619THF    H10 9984   2.798   4.360   2.652 -1.2904  0.0313 -0.0881
  619THF    H11 9985   2.852   4.383   2.494  0.4940 -0.3648 -1.2263
  619THF    H12 9986   2.917   4.166   2.538 -0.1636 -3.5685 -0.8404
  619THF    H13 9987   2.779   4.120   2.634 -0.6381  2.1667  0.7694
  620THF     O1 9988   2.260   4.265   2.125  0.0835  0.3190  0.3085
  620THF     C2 9989   2.249   4.301   1.987 -0.2789 -0.7326 -0.1127
  620THF     C3 9990   2.400   4.227   2.137 -0.1178  0.4278 -0.0121
  620THF     H4 9991   2.302   4.395   1.970 -0.5428 -0.4702  0.4674
  620THF     H5 9992   2.145   4.297   1.955 -0.2137 -1.6975 -0.2361
  620THF     H6 9993   2.459   4.312   2.172 -1.0838  0.0526  2.8071
  620THF     H7 9994   2.398   4.153   2.217  1.6579  1.3518  0.9609
  620THF     C8 9995   2.450   4.162   2.007 -0.0381  0.0167 -0.3942
  620THF     C9 9996   2.329   4.192   1.920 -0.0213  0.2404 -0.2328
  620THF    H10 9997   2.457   4.055   2.027 -1.0991  0.0323  0.1623
  620THF    H11 9998   2.546   4.204   1.980  1.0195 -0.1667  2.6368
  620THF    H12 9999   2.366   4.219   1.821  0.0733 -2.8698 -1.1344
  620THF    H1310000   2.277   4.097   1.927  0.6896 -0.0624  1.1977
  621THF     O110001   2.577   3.872   0.535  0.0534  0.4943  0.0914
  621THF     C210002   2.480   3.847   0.444 -0.5708  0.1090  0.1888
  621THF     C310003   2.550   3.792   0.646  0.0354  0.3373 -0.0530
  621THF     H410004   2.510   3.892   0.349 -1.3394 -0.5001 -0.3614
  621THF     H510005   2.382   3.891   0.465 -0.8223 -1.3824  2.3869
  621THF     H610006   2.625   3.779   0.724 -0.6591 -0.2854  0.5357
  621THF     H710007   2.458   3.832   0.689  0.4613  0.6810  0.5458
  621THF     C810008   2.517   3.653   0.584 -0.0035 -0.0050  0.3820
  621THF     C910009   2.465   3.692   0.444  0.3183 -0.8427 -0.1013
  621THF    H1010010   2.455   3.592   0.649  0.0309 -1.9755 -1.3206
  621THF    H1110011   2.614   3.605   0.568  0.0676 -0.0009  0.7963
  621THF    H1210012   2.521   3.648   0.362 -0.5777  0.9745 -1.7723
  621THF    H1310013   2.358   3.672   0.435  0.0072  0.2322  0.9542
  622THF     O110014   3.931   2.364   1.590 -0.6583  0.2772 -0.2640
  622THF     C210015   3.913   2.304   1.465  0.2738 -0.1484 -0.3373
  622THF     C310016   3.980   2.259   1.681  0.3012 -0.2803 -0.2153
  622THF     H410017   3.933   2.375   1.384 -2.8170  1.2380 -0.0484
  622THF     H510018   3.811   2.268   1.454 -0.5807  1.9735  0.0191
  622THF     H610019   4.033   2.311   1.761  0.8836 -0.1692 -0.6687
  622THF     H710020   3.893   2.203   1.717 -0.0906 -0.4039 -1.3200
  622THF     C810021   4.080   2.182   1.593  0.3834  0.8527 -0.4367
  622THF     C910022   4.015   2.188   1.456  0.6751 -0.4400 -0.2259
  622THF    H1010023   4.100   2.080   1.627  0.6572  1.5526  1.6645
  622THF    H1110024   4.170   2.242   1.584  1.3728 -0.7091 -1.5336
  622THF    H1210025   4.096   2.206   1.385 -0.3849 -0.0863 -1.3953
  622THF    H1310026   3.979   2.090   1.422  1.8721 -0.9940  0.0463
  623THF     O110027   4.113   1.266   2.976 -0.2643  0.3216 -0.3258
  623THF     C210028   4.026   1.320   2.876 -0.7392  0.0423 -0.1769
  623THF     C310029   4.148   1.135   2.949 -0.6838  0.3063  0.0744
  623THF     H410030   4.038   1.428   2.885  0.8276 -0.0114 -1.1583
  623THF     H510031   3.920   1.300   2.887 -0.7076 -0.0936 -0.1088
  623THF     H610032   4.225   1.095   3.014 -0.6005 -0.3127 -0.3901
  623THF     H710033   4.054   1.085   2.974 -0.7920 -1.0196 -2.6048
  623THF     C810034   4.171   1.144   2.794  0.4285 -0.9074  0.5804
  623THF     C910035   4.083   1.260   2.748 -0.7439  0.0575 -0.7035
  623THF    H1010036   4.158   1.054   2.734 -4.1669 -0.5355  0.6797
  623THF    H1110037   4.270   1.190   2.788 -0.2420  0.5175  0.2408
  623THF    H1210038   4.148   1.330   2.697 -0.2735  0.4955  0.4726
  623THF    H1310039   4.007   1.231   2.675 -0.0337 -0.6828 -1.1647
  624THF     O110040   0.800   2.555   1.857 -0.1972 -0.0078 -0.4244
  624THF     C210041   0.709   2.507   1.771  0.5846  0.2201 -0.0383
  624THF     C310042   0.927   2.514   1.804 -0.5560  0.1771 -0.1998
  624THF     H410043   0.710   2.555   1.673  0.9534  0.5639  0.1324
  624THF     H510044   0.608   2.520   1.810  0.0863 -0.4906 -1.0248
  624THF     H610045   0.964   2.580   1.725 -2.7226  2.0167  0.2005
  624THF     H710046   1.004   2.507   1.881  1.8391  0.8487 -2.3981
  624THF     C810047   0.899   2.372   1.759 -0.0669  0.0154  0.6020
  624THF     C910048   0.751   2.365   1.753 -0.2625 -0.6021 -0.5691
  624THF    H1010049   0.944   2.302   1.829  0.5535  0.3380  0.5399
  624THF    H1110050   0.941   2.345   1.662 -1.4427 -2.5224  0.6314
  624THF    H1210051   0.712   2.322   1.661 -1.9690 -1.2061  0.3745
  624THF    H1310052   0.724   2.302   1.838  1.7976  0.3694  0.8876
  625THF     O110053   2.417   1.998   4.784 -0.5317 -0.1171 -0.0965
  625THF     C210054   2.296   1.932   4.773  0.6296  0.3005  1.2317
  625THF     C310055   2.469   2.003   4.646 -0.2978  0.4000  0.4832
  625THF     H410056   2.235   2.020   4.753 -0.7755 -0.9694 -0.4634
  625THF     H510057   2.263   1.889   4.867 -1.4198  2.1070  1.4206
  625THF     H610058   2.422   2.088   4.597  3.7785  2.0923 -0.9252
  625THF     H710059   2.572   2.035   4.635 -0.2503  0.6766  1.5700
  625THF     C810060   2.435   1.866   4.596 -0.3739 -0.2035  0.4926
  625THF     C910061   2.299   1.835   4.662 -0.6313 -0.5463 -0.2061
  625THF    H1010062   2.515   1.804   4.635  2.5105  1.4611 -2.2274
  625THF    H1110063   2.430   1.862   4.487 -1.3143  1.1505  0.4469
  625THF    H1210064   2.212   1.846   4.598 -0.5809  3.0365  0.1247
  625THF    H1310065   2.294   1.735   4.706 -2.4252 -0.5075 -0.2429
  626THF     O110066   5.179   1.824   4.608 -0.0427  0.4010 -0.0654
  626THF     C210067   5.287   1.760   4.682 -0.0551 -0.7376 -0.3742
  626THF     C310068   5.092   1.876   4.710  0.3554 -0.9266  0.3996
  626THF     H410069   5.375   1.729   4.626  0.0628 -2.4311  0.6809
  626THF     H510070   5.251   1.670   4.731 -3.2716  0.4059 -0.3999
  626THF     H610071   5.042   1.963   4.669  1.6470  0.7319  2.1693
  626THF     H710072   5.016   1.809   4.752 -2.2584  1.2747 -0.4895
  626THF     C810073   5.181   1.929   4.813 -0.9080  0.0048 -0.5126
  626THF     C910074   5.319   1.861   4.789 -0.0184  0.2667 -0.2336
  626THF    H1010075   5.162   1.900   4.916  1.7067  0.0807  0.0806
  626THF    H1110076   5.192   2.037   4.801  1.1800  0.2028  2.1272
  626THF    H1210077   5.401   1.923   4.752 -2.1399  1.0899 -4.0666
  626THF    H1310078   5.350   1.820   4.886  1.0224  1.5618  0.0078
  627THF     O110079   0.189   1.977   2.616 -0.3154 -0.0995  0.0516
  627THF     C210080   0.267   2.003   2.507 -0.3218 -0.3079  0.4391
  627THF     C310081   0.111   1.860   2.584  0.8102 -0.4312 -0.3394
  627THF     H410082   0.348   2.071   2.534  0.3402 -1.0393  0.3201
  627THF     H510083   0.200   2.044   2.431  0.8004 -1.9273 -1.5172
  627THF     H610084   0.072   1.805   2.668  2.2498 -2.0922 -0.7011
  627THF     H710085   0.027   1.893   2.523 -0.2919 -0.7660  0.9721
  627THF     C810086   0.218   1.776   2.505 -0.3039  0.1654 -0.6013
  627THF     C910087   0.332   1.873   2.471 -0.0268 -0.0887  0.9814
  627THF    H1010088   0.170   1.736   2.416  1.4278  1.1497 -2.0715
  627THF    H1110089   0.250   1.691   2.565 -0.4341 -0.9858 -2.1031
  627THF    H1210090   0.423   1.856   2.529  0.1061  0.6840  1.0175
  627THF    H1310091   0.361   1.872   2.366 -1.3139  2.4774  0.5110
  628THF     O110092   4.023   5.125   4.149  0.1248  0.8356 -1.2815
  628THF     C210093   4.087   4.992   4.151 -0.3085  0.1333 -0.5017
  628THF     C310094   4.062   5.193   4.033 -0.1766  0.5609  0.1329
  628THF     H410095   4.030   4.920   4.209 -1.0622  0.3796 -0.9199
  628THF     H510096   4.182   5.008   4.202 -0.4092 -0.4541 -0.1244
  628THF     H610097   3.978   5.226   3.972 -1.5519  1.8777  2.6054
  628THF     H710098   4.110   5.288   4.055  0.6543  0.6290 -1.7355
  628THF     C810099   4.158   5.102   3.964 -0.4784  0.4571  0.7922
  628THF     C910100   4.134   4.964   4.009 -0.0808  0.2438  0.2294
  628THF    H1010101   4.252   5.135   4.008  0.3177 -0.6263 -0.0559
  628THF    H1110102   4.158   5.120   3.856 -0.7787  2.5150  1.0963
  628THF    H1210103   4.060   4.905   3.954 -1.2656  2.1506 -0.3415
  628THF    H1310104   4.223   4.902   4.012 -0.6504 -0.6825  4.1998
  629THF     O110105   0.242   3.775   4.592  0.1308 -0.0890 -0.6877
  629THF     C210106   0.219   3.888   4.677 -0.6254  0.0921  0.1678
  629THF     C310107   0.116   3.755   4.526  0.1403  0.4137  0.3406
  629THF     H410108   0.302   3.930   4.734 -0.1829 -0.7136  0.1282
  629THF     H510109   0.149   3.849   4.752 -0.1776 -4.6710 -1.5411
  629THF     H610110   0.124   3.678   4.450  0.1894 -0.8784  1.6285
  629THF     H710111   0.045   3.715   4.597  1.7918 -1.1123  1.2179
  629THF     C810112   0.067   3.897   4.487  0.5920  0.5431  0.0733
  629THF     C910113   0.154   3.981   4.578 -0.4431 -0.5271  0.5553
  629THF    H1010114  -0.037   3.927   4.500  0.7098  0.9678  0.0676
  629THF    H1110115   0.084   3.912   4.380  0.2181  1.9190  0.1800
  629THF    H1210116   0.223   4.033   4.511  1.0431 -2.2762  0.6476
  629THF    H1310117   0.089   4.056   4.623  0.8924 -0.2398  2.0775
  630THF     O110118   2.266   1.490   4.092  0.0610 -0.2273 -0.4294
  630THF     C210119   2.147   1.418   4.114  0.0100  0.3546 -0.3621
  630THF     C310120   2.297   1.562   4.218  0.1330  0.4936  0.1990
  630THF     H410121   2.141   1.338   4.040  1.2968 -1.6456  1.5601
  630THF     H510122   2.062   1.486   4.107 -0.6626 -0.3392  0.7576
  630THF     H610123   2.403   1.545   4.237  0.1061 -0.0114 -0.0821
  630THF     H710124   2.282   1.669   4.233 -2.6391 -0.0501  1.8508
  630THF     C810125   2.227   1.474   4.321  0.0402 -0.3974 -0.4600
  630THF     C910126   2.167   1.360   4.255 -0.7108 -0.6997 -0.3773
  630THF    H1010127   2.157   1.540   4.372 -1.9910 -2.0183 -1.0446
  630THF    H1110128   2.291   1.443   4.404  1.5017 -1.4084 -1.8942
  630THF    H1210129   2.235   1.276   4.242 -3.0847 -3.2317  2.1657
  630THF    H1310130   2.078   1.325   4.307 -0.9217  1.8978  1.1460
  631THF     O110131   2.225   5.094   0.846  0.6744  0.5029 -0.1020
  631THF     C210132   2.333   5.184   0.821  0.1564  0.1277 -0.5576
  631THF     C310133   2.118   5.181   0.897  0.6166 -0.4107 -0.5429
  631THF     H410134   2.416   5.130   0.774 -0.9021 -2.0163 -0.1024
  631THF     H510135   2.366   5.219   0.919  0.2831  0.1419 -0.6050
  631THF     H610136   2.022   5.132   0.881  0.4779  0.1693 -1.6306
  631THF     H710137   2.123   5.204   1.003 -0.3086 -0.9715 -0.3619
  631THF     C810138   2.145   5.316   0.824 -0.1664 -0.4174 -0.2886
  631THF     C910139   2.269   5.301   0.738 -0.0610  0.3670  0.4456
  631THF    H1010140   2.164   5.393   0.899  0.6304  0.3535 -1.2617
  631THF    H1110141   2.053   5.346   0.775 -1.1248  0.9657  2.1771
  631THF    H1210142   2.243   5.264   0.639 -2.9282 -0.0971  1.2885
  631THF    H1310143   2.329   5.392   0.739 -0.9379  0.9658 -0.0039
  632THF     O110144   1.604   1.992   2.968  0.5907 -0.0065  0.3432
  632THF     C210145   1.585   1.906   3.079  0.2350  0.1541  0.2084
  632THF     C310146   1.475   2.030   2.925 -0.1530 -0.1314  0.7383
  632THF     H410147   1.575   1.975   3.164 -1.0018  3.2062 -2.2324
  632THF     H510148   1.668   1.838   3.102 -0.0810 -0.5152 -0.6090
  632THF     H610149   1.441   2.107   2.994 -0.0229 -0.5273  1.2520
  632THF     H710150   1.464   2.077   2.827 -0.8235  1.5447  1.5869
  632THF     C810151   1.396   1.900   2.945  0.5130 -0.1763 -0.3087
  632THF     C910152   1.457   1.830   3.064  1.2427 -0.3508  0.1010
  632THF    H1010153   1.409   1.829   2.863  1.3008 -0.1531 -0.2116
  632THF    H1110154   1.293   1.925   2.968  0.1615  0.5707 -2.5161
  632THF    H1210155   1.393   1.833   3.152  1.4744 -1.1931  0.3020
  632THF    H1310156   1.481   1.726   3.043  0.5324 -0.5281  0.1489
  633THF     O110157   2.003   0.552   2.980  0.3791 -0.0981 -0.4429
  633THF     C210158   2.077   0.543   3.101 -1.1044  0.3873 -0.4261
  633THF     C310159   1.873   0.502   3.006 -0.2620  0.2199 -0.0006
  633THF     H410160   2.165   0.608   3.093 -1.2080  0.3356 -3.1614
  633THF     H510161   2.114   0.441   3.109 -2.0157  0.0500 -0.4521
  633THF     H610162   1.795   0.537   2.938 -1.3119 -1.2616  0.3783
  633THF     H710163   1.867   0.393   2.998 -0.1995  0.3530 -2.3799
  633THF     C810164   1.845   0.539   3.153  0.3378  0.2430 -0.8592
  633THF     C910165   1.981   0.575   3.210  0.7435  0.1298 -0.1074
  633THF    H1010166   1.785   0.466   3.209 -0.5378 -0.0828 -2.1803
  633THF    H1110167   1.795   0.635   3.154 -0.6970 -0.2856 -0.4483
  633THF    H1210168   1.985   0.683   3.222  0.5428  0.2072 -0.7096
  633THF    H1310169   1.994   0.525   3.306  0.5438  2.1398  1.0203
  634THF     O110170   3.955   2.083   4.712 -0.1260 -0.6651  0.1091
  634THF     C210171   4.072   2.107   4.640 -0.0210 -0.1792 -0.1016
  634THF     C310172   3.967   2.168   4.826 -0.3664  0.4092 -0.1222
  634THF     H410173   4.059   2.197   4.580 -0.1359  0.1162  0.3602
  634THF     H510174   4.094   2.014   4.586  2.1472 -0.1361  0.6079
  634THF     H610175   3.947   2.263   4.778  0.9039 -0.0021 -1.5442
  634THF     H710176   3.894   2.159   4.907 -0.7784  1.1797 -0.3970
  634THF     C810177   4.113   2.154   4.879  0.1513 -0.0586  0.1603
  634THF     C910178   4.184   2.131   4.738  0.2712 -0.1752 -0.2703
  634THF    H1010179   4.130   2.065   4.940 -1.0036  0.3357  1.0783
  634THF    H1110180   4.163   2.239   4.925 -0.7912  1.0323 -0.7880
  634THF    H1210181   4.247   2.217   4.712  0.6578  0.6447  3.0083
  634THF    H1310182   4.250   2.046   4.756  0.9249  0.3401 -0.1589
  635THF     O110183   5.139   1.462   4.809 -0.1565 -0.4880  0.6961
  635THF     C210184   5.000   1.441   4.778 -0.6875 -0.5073 -0.3900
  635THF     C310185   5.207   1.345   4.772  0.0090  0.4458  0.3406
  635THF     H410186   4.954   1.537   4.754 -0.9944 -0.7291 -0.7086
  635THF     H510187   4.937   1.412   4.861 -2.2114  2.3729 -0.3939
  635THF     H610188   5.307   1.376   4.741 -0.3781 -0.8285 -2.5112
  635THF     H710189   5.225   1.274   4.853  3.9569  1.3445  0.4682
  635THF     C810190   5.144   1.300   4.641  0.5741  0.2168  0.4695
  635THF     C910191   4.999   1.351   4.657 -0.1108  0.1100  0.2398
  635THF    H1010192   5.138   1.193   4.621  2.8893  0.5739 -2.9917
  635THF    H1110193   5.172   1.354   4.551  0.2427 -0.9286 -0.3454
  635THF    H1210194   4.964   1.416   4.576  1.7253  0.0363 -0.6659
  635THF    H1310195   4.933   1.266   4.672  1.1242 -0.6217  1.7823
  636THF     O110196   3.934   0.220   0.994 -0.2443 -0.4562  0.3533
  636THF     C210197   3.795   0.203   0.962 -0.1132 -0.4527 -0.4914
  636THF     C310198   3.936   0.263   1.128 -0.0114  0.1874 -0.0124
  636THF     H410199   3.753   0.121   1.019  0.6065 -0.7047 -0.3067
  636THF     H510200   3.787   0.202   0.853  0.2089  1.8652 -0.5980
  636THF     H610201   3.914   0.181   1.196 -0.2069 -0.0115 -0.3130
  636THF     H710202   4.036   0.301   1.151 -0.1522  0.3802  0.2911
  636THF     C810203   3.827   0.372   1.135  0.0375 -0.2642 -0.1499
  636THF     C910204   3.742   0.337   1.011  0.2907 -0.6403 -0.6438
  636THF    H1010205   3.866   0.473   1.143 -0.7013 -0.0175  0.3999
  636THF    H1110206   3.775   0.349   1.228  0.1189 -0.4357 -0.1460
  636THF    H1210207   3.635   0.336   1.031  0.5859  1.2182  1.2959
  636THF    H1310208   3.768   0.410   0.934  0.4604  0.2746  0.2665
  637THF     O110209   4.953   2.395   2.409 -0.0266 -0.3143 -0.1029
  637THF     C210210   4.993   2.496   2.500  0.1482  0.5809 -0.3307
  637THF     C310211   5.042   2.283   2.414  0.4892  0.3820 -0.2133
  637THF     H410212   4.910   2.566   2.512  0.4059  0.8374 -0.0078
  637THF     H510213   5.084   2.550   2.471 -1.1560  2.9292 -0.3325
  637THF     H610214   4.996   2.189   2.386  2.9753 -1.0041  0.0451
  637THF     H710215   5.131   2.303   2.354  2.0477 -1.7084  1.2471
  637THF     C810216   5.094   2.285   2.562 -0.3565 -0.1491  0.4599
  637THF     C910217   5.018   2.407   2.621  0.2763  0.1022 -0.5245
  637THF    H1010218   5.202   2.299   2.571 -0.1020 -1.1422 -0.7258
  637THF    H1110219   5.063   2.202   2.625 -1.2088  0.4143  0.7914
  637THF    H1210220   4.916   2.393   2.656  0.2189  0.6666 -0.4470
  637THF    H1310221   5.076   2.456   2.700  2.2685 -0.7243 -1.4130
  638THF     O110222   1.459   3.548   5.113 -0.1176 -0.4953 -0.4162
  638THF     C210223   1.553   3.578   5.012  0.0826 -0.3487 -0.3446
  638THF     C310224   1.523   3.454   5.195 -0.3917  0.3263 -0.2273
  638THF     H410225   1.615   3.658   5.052 -1.0180  1.3247 -1.8570
  638THF     H510226   1.492   3.612   4.928  1.5361  2.0381 -0.5210
  638THF     H610227   1.592   3.506   5.261 -1.4515  0.6438  0.6566
  638THF     H710228   1.443   3.407   5.253  0.7712 -1.5199 -0.0504
  638THF     C810229   1.587   3.366   5.094  0.5339 -0.2264 -0.5608
  638THF     C910230   1.635   3.456   4.985 -0.9553  0.1042  0.2586
  638THF    H1010231   1.514   3.294   5.056 -0.2462  0.9843 -1.4078
  638THF    H1110232   1.666   3.306   5.140  2.1746  1.6336 -0.8039
  638THF    H1210233   1.741   3.480   4.980 -0.6130 -0.9221  1.8352
  638THF    H1310234   1.612   3.416   4.886  0.7580 -1.0992  0.3042
  639THF     O110235   4.619   5.187   3.148  0.6176 -0.0334 -0.0439
  639THF     C210236   4.564   5.309   3.091 -0.1241 -1.1225  0.2058
  639THF     C310237   4.611   5.201   3.293  0.4074  0.0839 -0.1001
  639THF     H410238   4.457   5.309   3.073 -0.1648  1.5814 -0.0018
  639THF     H510239   4.602   5.337   2.993 -1.9060 -0.2648 -0.2709
  639THF     H610240   4.518   5.168   3.339  0.1687  2.7774  1.5815
  639THF     H710241   4.685   5.132   3.332  1.6176  1.0371 -0.6385
  639THF     C810242   4.654   5.345   3.322 -0.2703  0.2696  0.1670
  639THF     C910243   4.590   5.415   3.203 -0.9681 -0.3741 -0.0349
  639THF    H1010244   4.762   5.357   3.324  0.0758 -0.4798 -4.2220
  639THF    H1110245   4.620   5.379   3.420 -0.4746  0.2525  0.1011
  639THF    H1210246   4.492   5.452   3.233 -1.3227 -1.6688  0.4933
  639THF    H1310247   4.656   5.495   3.169 -1.9843  0.6874  0.4420
  640THF     O110248   0.155   2.916   0.583 -0.1898  0.2013 -0.7616
  640THF     C210249   0.079   2.833   0.494  0.7401 -0.4249 -0.2961
  640THF     C310250   0.227   3.019   0.517  0.3765  0.8611 -0.3811
  640THF     H410251  -0.025   2.835   0.525  0.4736 -1.7655 -1.0619
  640THF     H510252   0.110   2.729   0.494 -0.3527 -0.7796 -1.8287
  640THF     H610253   0.166   3.107   0.497 -1.8466  0.6539  4.1901
  640THF     H710254   0.316   3.052   0.571 -0.0465  1.1977  0.1209
  640THF     C810255   0.248   2.955   0.383 -0.3198 -0.1818 -0.1259
  640THF     C910256   0.117   2.878   0.358 -0.0678 -0.7089 -0.2916
  640THF    H1010257   0.328   2.881   0.390 -0.5685 -0.3197  1.6363
  640THF    H1110258   0.278   3.029   0.309 -0.3453  0.9945  1.0037
  640THF    H1210259   0.039   2.948   0.328  3.1575  3.0573 -0.8510
  640THF    H1310260   0.119   2.808   0.275 -0.0881 -0.5703 -0.4091
  641THF     O110261   2.314   5.213   1.923  0.5318 -0.1009  0.2208
  641THF     C210262   2.259   5.174   2.048 -0.1063 -0.1255 -0.9965
  641THF     C310263   2.442   5.263   1.953 -0.0882 -0.1314 -0.4080
  641THF     H410264   2.162   5.126   2.031 -0.1863 -0.2554 -0.2299
  641THF     H510265   2.238   5.270   2.095  1.1624 -0.5681  0.5725
  641THF     H610266   2.507   5.265   1.865  0.0381 -1.4393 -0.3745
  641THF     H710267   2.443   5.361   1.999 -1.3370 -0.5732  0.6237
  641THF     C810268   2.500   5.162   2.052  0.4568  0.1337 -0.5972
  641THF     C910269   2.382   5.098   2.109 -0.6497  0.5803 -1.1723
  641THF    H1010270   2.567   5.215   2.120 -1.3447  0.2224  1.1893
  641THF    H1110271   2.559   5.078   2.013 -0.1984 -0.1300 -1.0427
  641THF    H1210272   2.385   4.993   2.079  1.7496 -0.5420  2.3205
  641THF    H1310273   2.371   5.091   2.218 -1.0752  0.1987 -1.2325
  642THF     O110274   0.066   1.782   3.372 -0.3243 -0.1876  0.0141
  642THF     C210275   0.002   1.669   3.314  0.2883 -1.0958  0.0531
  642THF     C310276   0.101   1.748   3.510 -0.0313  0.0822 -0.2935
  642THF     H410277   0.016   1.656   3.207  0.5871 -1.3268  0.1189
  642THF     H510278  -0.106   1.675   3.331  0.2005 -1.5956 -0.3148
  642THF     H610279   0.188   1.802   3.548  1.0590 -0.4063 -1.9731
  642THF     H710280   0.008   1.766   3.564 -0.2429 -0.1657 -0.5737
  642THF     C810281   0.140   1.603   3.497 -0.5721  0.1454  0.5075
  642THF     C910282   0.053   1.548   3.388  0.1784  0.9231 -0.4601
  642THF    H1010283   0.138   1.554   3.594  2.3824  1.1840  1.1978
  642THF    H1110284   0.245   1.609   3.469 -1.0354  2.0548 -1.1084
  642THF    H1210285   0.097   1.469   3.327 -2.8877 -0.7412 -0.7345
  642THF    H1310286  -0.033   1.509   3.442 -0.4306  2.6867 -0.0674
  643THF     O110287   4.685   3.302   0.132 -0.2461  0.1720  0.3914
  643THF     C210288   4.578   3.216   0.101  0.4373  0.5666 -0.4314
  643THF     C310289   4.786   3.221   0.174  0.1971  0.2923 -0.1822
  643THF     H410290   4.590   3.178   0.000 -2.9527 -1.7822 -0.1318
  643THF     H510291   4.478   3.260   0.096  0.1249 -0.2503 -1.8020
  643THF     H610292   4.837   3.178   0.088  0.0047  3.1299 -1.8622
  643THF     H710293   4.853   3.284   0.233  0.3049 -2.1754  2.5456
  643THF     C810294   4.723   3.119   0.273 -0.8140  0.3797  0.4554
  643THF     C910295   4.577   3.113   0.222  0.0106 -0.1193  0.1800
  643THF    H1010296   4.715   3.163   0.372  0.0837  0.9660  0.2844
  643THF    H1110297   4.765   3.018   0.278  1.5832  1.0948 -2.3190
  643THF    H1210298   4.559   3.017   0.174 -0.9822  0.8146 -1.4515
  643THF    H1310299   4.501   3.138   0.296  0.0572  1.1109 -0.1590
  644THF     O110300   1.567   2.015   5.084  0.3004  0.4977  0.0535
  644THF     C210301   1.592   2.003   5.220  0.7073 -0.1196 -0.2730
  644THF     C310302   1.589   2.144   5.041  0.0489  0.4469 -0.3028
  644THF     H410303   1.699   2.002   5.239  0.8021 -0.3857 -0.8158
  644THF     H510304   1.541   1.913   5.254  1.0060 -1.0650 -2.2063
  644THF     H610305   1.694   2.174   5.044  0.3079 -0.3703 -0.8706
  644THF     H710306   1.554   2.175   4.942 -0.0577  1.0478 -0.0803
  644THF     C810307   1.519   2.225   5.146  0.3166 -0.1078 -0.1811
  644THF     C910308   1.537   2.135   5.272  0.4713  0.0219  0.4858
  644THF    H1010309   1.413   2.244   5.129  0.3423 -0.0067 -0.2283
  644THF    H1110310   1.562   2.325   5.157 -0.3470 -0.0344  2.2291
  644THF    H1210311   1.602   2.176   5.349 -0.5956 -0.3292  1.6113
  644THF    H1310312   1.438   2.119   5.316 -0.0551 -1.2245 -1.0526
  645THF     O110313   5.328   1.026   4.151 -0.3677  0.0517  0.1618
  645THF     C210314   5.326   0.988   4.285 -0.3533  0.6384  0.4584
  645THF     C310315   5.214   0.958   4.095  0.2493 -0.3582 -0.0553
  645THF     H410316   5.385   1.063   4.338  0.6958  0.2509 -0.1320
  645THF     H510317   5.380   0.895   4.303 -0.1708  1.0050  1.9755
  645THF     H610318   5.180   1.004   4.002 -2.0490 -1.3185  0.2398
  645THF     H710319   5.232   0.860   4.050  0.5834 -0.3876  0.1384
  645THF     C810320   5.098   0.972   4.204 -1.0259  1.2961  0.2359
  645THF     C910321   5.183   1.003   4.333 -0.1332 -0.0869 -0.1531
  645THF    H1010322   5.037   0.883   4.221  1.1686 -0.3700 -0.1759
  645THF    H1110323   5.038   1.052   4.159 -2.0691  0.2348 -0.3146
  645THF    H1210324   5.166   1.109   4.353  0.0095  0.0529 -0.7535
  645THF    H1310325   5.160   0.935   4.415  0.8066 -0.5279 -0.2399
  646THF     O110326   5.016   2.925   0.323 -0.8055  0.2937 -0.1063
  646THF     C210327   5.150   2.963   0.367  1.4371 -0.4451 -0.4913
  646THF     C310328   5.019   2.893   0.180  0.2101 -0.7821 -0.8464
  646THF     H410329   5.214   2.876   0.381  0.3139 -1.1395  0.4995
  646THF     H510330   5.159   3.020   0.459  1.0091  2.9665 -2.4203
  646THF     H610331   4.999   2.792   0.147  1.6885 -0.7499 -1.9707
  646THF     H710332   4.952   2.957   0.123  2.1732  2.0097 -0.2485
  646THF     C810333   5.158   2.938   0.139 -0.6071 -0.2777  0.0718
  646THF     C910334   5.202   3.041   0.247  0.1900  0.3150 -0.5004
  646THF    H1010335   5.179   2.982   0.042  1.1998 -0.7954  0.1894
  646THF    H1110336   5.220   2.854   0.172 -1.5445 -0.7777  0.5969
  646THF    H1210337   5.308   3.064   0.241  0.3632 -0.1824  0.5056
  646THF    H1310338   5.148   3.132   0.222 -1.1168 -0.9090 -2.4681
  647THF     O110339   0.794   5.341   3.204 -0.0329  0.1162  0.2492
  647THF     C210340   0.689   5.272   3.259  0.4760 -0.0849 -0.6350
  647THF     C310341   0.827   5.437   3.300 -0.1829  0.7334  1.0491
  647THF     H410342   0.674   5.179   3.206 -0.0141 -0.4838  0.1847
  647THF     H510343   0.594   5.326   3.262 -0.6658 -2.0503  0.9567
  647THF     H610344   0.923   5.483   3.279  0.2981 -1.1529 -1.3153
  647THF     H710345   0.750   5.515   3.307 -1.6945 -0.6066  0.0263
  647THF     C810346   0.822   5.363   3.433  0.3843  0.2738  0.4395
  647THF     C910347   0.745   5.239   3.397 -0.3391 -0.5274  0.1188
  647THF    H1010348   0.766   5.428   3.501  1.7346  1.5118  0.4282
  647THF    H1110349   0.923   5.353   3.475 -0.2772 -1.8965  1.6596
  647THF    H1210350   0.810   5.151   3.395  0.8333  0.2842 -3.0027
  647THF    H1310351   0.658   5.230   3.462 -0.1043 -0.5400  0.4358
  648THF     O110352   5.104   4.891   4.417 -0.1869 -0.0763 -0.1075
  648THF     C210353   5.127   4.972   4.532 -0.3145 -0.4643  0.0984
  648THF     C310354   5.225   4.824   4.389 -0.5867  0.7119 -0.2769
  648THF     H410355   5.119   4.909   4.620 -4.6057 -0.6227 -0.2119
  648THF     H510356   5.061   5.058   4.542 -1.6422 -1.4442 -0.0506
  648THF     H610357   5.246   4.736   4.450 -0.6718 -1.0561 -2.6856
  648THF     H710358   5.218   4.783   4.289 -2.3858 -0.3616  0.2365
  648THF     C810359   5.334   4.923   4.410  0.2346 -0.5956 -0.6385
  648THF     C910360   5.267   5.031   4.501 -0.0840  0.0461  0.5190
  648THF    H1010361   5.377   4.953   4.315  3.0769  1.3000  1.0938
  648THF    H1110362   5.415   4.873   4.463 -0.2720 -0.8644 -0.1028
  648THF    H1210363   5.324   5.039   4.594  0.6788 -0.8639  0.1509
  648THF    H1310364   5.269   5.129   4.453  2.9600  0.2652  0.8598
  649THF     O110365   0.698   0.644   0.464 -0.3085  0.3985  0.0672
  649THF     C210366   0.706   0.552   0.565  0.5288 -0.8287 -0.3200
  649THF     C310367   0.669   0.568   0.344  0.4117  0.0332  0.0301
  649THF     H410368   0.609   0.515   0.602  1.1859  0.4131  2.9620
  649THF     H510369   0.748   0.593   0.657 -1.1790  0.7112 -0.1561
  649THF     H610370   0.573   0.516   0.347 -0.3841  1.4734  1.8970
  649THF     H710371   0.680   0.628   0.254  1.0843  0.7576  0.5783
  649THF     C810372   0.773   0.454   0.357  0.6439 -0.5982  0.6879
  649THF     C910373   0.791   0.442   0.505 -0.2078  0.7261 -0.1479
  649THF    H1010374   0.870   0.486   0.319 -0.7203  1.5342 -1.2502
  649THF    H1110375   0.749   0.357   0.313  1.4997 -0.4907 -0.0652
  649THF    H1210376   0.756   0.349   0.550  2.5630  0.2156  1.1157
  649THF    H1310377   0.898   0.440   0.523 -0.2762  0.3037  0.2281
  650THF     O110378   2.090   2.135   4.191 -0.4540 -0.6048  0.7417
  650THF     C210379   2.210   2.221   4.197  0.1821 -0.0025 -0.2829
  650THF     C310380   2.056   2.076   4.314 -0.9561 -1.0915  0.0906
  650THF     H410381   2.188   2.323   4.226 -1.6598 -0.8188  1.4690
  650THF     H510382   2.264   2.228   4.103  2.1242 -1.8783  0.5860
  650THF     H610383   1.971   2.126   4.361 -0.9171 -2.5143  1.8080
  650THF     H710384   2.037   1.969   4.301 -0.3974 -1.0853 -0.8777
  650THF     C810385   2.169   2.117   4.405 -0.8110  0.9586 -0.0603
  650THF     C910386   2.285   2.145   4.308  0.0525  0.1347 -0.3607
  650THF    H1010387   2.198   2.041   4.477  1.1784 -1.4319 -3.1120
  650THF    H1110388   2.152   2.210   4.459  0.2810  0.5893  0.9608
  650THF    H1210389   2.369   2.200   4.351  1.3668 -2.0649  0.0250
  650THF    H1310390   2.322   2.053   4.264 -1.2556 -0.2379 -0.7251
  651THF     O110391   4.882   3.843   2.970  0.0761  0.2467 -0.2404
  651THF     C210392   4.881   3.699   2.962 -0.2249 -0.5612  0.1175
  651THF     C310393   4.851   3.895   2.839 -0.0199  0.4253  0.3022
  651THF     H410394   4.846   3.654   3.055 -0.1182 -3.0580 -0.9782
  651THF     H510395   4.969   3.650   2.920  1.5355  1.0591  1.7153
  651THF     H610396   4.817   3.999   2.845 -0.7756  0.2627 -0.8423
  651THF     H710397   4.936   3.895   2.771  0.0139 -1.8336  0.2644
  651THF     C810398   4.748   3.791   2.784  0.1496  0.2615 -0.9029
  651THF     C910399   4.773   3.665   2.865  1.0842 -0.1922  0.2141
  651THF    H1010400   4.770   3.758   2.682  0.9185 -1.3274 -0.2654
  651THF    H1110401   4.648   3.833   2.796  0.1940 -0.0555  0.7098
  651THF    H1210402   4.676   3.646   2.911  1.0930  1.8114  1.1302
  651THF    H1310403   4.788   3.578   2.800 -2.0216 -0.1994 -0.6211
  652THF     O110404   2.370   4.267   0.349  0.1525 -0.3169  0.0560
  652THF     C210405   2.231   4.241   0.374  0.4747  0.2691 -0.6260
  652THF     C310406   2.389   4.405   0.311 -0.0794 -0.3701 -0.4209
  652THF     H410407   2.215   4.163   0.449  0.8156 -1.0963 -1.9171
  652THF     H510408   2.201   4.201   0.276  0.2544 -0.0186 -0.4439
  652THF     H610409   2.460   4.447   0.382 -2.8146  2.1143  1.0427
  652THF     H710410   2.434   4.425   0.213 -0.4195  0.7840 -0.3465
  652THF     C810411   2.256   4.477   0.328 -0.2437 -0.1743 -0.7020
  652THF     C910412   2.177   4.379   0.422 -0.1186  0.5304 -0.3701
  652THF    H1010413   2.202   4.485   0.233 -1.8783  0.7305  0.2597
  652THF    H1110414   2.265   4.578   0.369  2.6637 -1.3688  1.9989
  652THF    H1210415   2.214   4.395   0.523 -0.0334  0.5554 -0.4047
  652THF    H1310416   2.069   4.379   0.434  0.0643 -1.9189  2.1977
  653THF     O110417   3.533   4.664   5.428 -0.2786 -0.3773 -0.0184
  653THF     C210418   3.521   4.757   5.533 -0.3711  0.6966  0.1429
  653THF     C310419   3.499   4.728   5.308  0.8127  0.0733  0.1378
  653THF     H410420   3.576   4.722   5.620 -1.6164 -4.0438 -0.6642
  653THF     H510421   3.415   4.762   5.557 -0.0631 -0.7069  2.0165
  653THF     H610422   3.519   4.683   5.211 -0.0564  0.9586 -0.4704
  653THF     H710423   3.394   4.757   5.312  0.2349 -1.9749  1.8040
  653THF     C810424   3.577   4.859   5.321 -0.4358 -0.2885 -0.3518
  653THF     C910425   3.578   4.881   5.472  0.2974 -0.5839  0.2932
  653THF    H1010426   3.535   4.938   5.260  1.7984  2.1454  1.0890
  653THF    H1110427   3.682   4.859   5.296  0.0588 -1.4157  1.4848
  653THF    H1210428   3.682   4.894   5.500  1.0725 -1.7133 -1.8439
  653THF    H1310429   3.519   4.969   5.501 -2.3192 -1.7308 -1.1669
  654THF     O110430   3.173   2.118   5.381 -0.2270  0.0975 -0.7214
  654THF     C210431   3.116   2.170   5.264 -0.1374 -0.0659  0.0975
  654THF     C310432   3.283   2.039   5.335 -0.4058 -0.2406 -0.1336
  654THF     H410433   3.046   2.251   5.289 -0.3031 -0.3561  0.5960
  654THF     H510434   3.074   2.082   5.217 -0.0620 -1.9838  3.3411
  654THF     H610435   3.357   2.024   5.414 -1.7266 -0.7157  1.0627
  654THF     H710436   3.236   1.947   5.300 -0.3517 -0.3343  0.0363
  654THF     C810437   3.341   2.118   5.215 -0.1126 -0.0834 -0.0421
  654THF     C910438   3.235   2.216   5.191 -0.3227 -0.0660 -0.3824
  654THF    H1010439   3.349   2.053   5.128 -2.0055  0.3352 -0.5739
  654THF    H1110440   3.435   2.164   5.242 -0.3542 -0.4872  1.5537
  654THF    H1210441   3.269   2.308   5.238 -1.4900 -0.1935  0.7683
  654THF    H1310442   3.217   2.258   5.092 -0.5447  1.7915  0.4121
  655THF     O110443   1.508   1.478   2.881 -0.7535 -0.2891 -0.3594
  655THF     C210444   1.535   1.352   2.936  0.8189 -0.4284  0.1346
  655THF     C310445   1.375   1.486   2.828  0.4100  0.2466 -0.1307
  655THF     H410446   1.616   1.360   3.009  0.4679 -3.7214  1.0345
  655THF     H510447   1.580   1.287   2.861  0.5216  0.3878 -0.7799
  655THF     H610448   1.334   1.576   2.874  2.3537  0.3078  1.6008
  655THF     H710449   1.368   1.483   2.719  0.3887 -2.2870 -0.1083
  655THF     C810450   1.306   1.365   2.895  0.7904 -0.7826 -0.3298
  655THF     C910451   1.406   1.302   2.994  0.1647 -0.8683 -0.1331
  655THF    H1010452   1.263   1.311   2.811  2.9221  0.7399 -2.5458
  655THF    H1110453   1.214   1.395   2.945  0.8474 -1.2402  0.0494
  655THF    H1210454   1.395   1.349   3.092  0.5460 -1.8088  0.3798
  655THF    H1310455   1.393   1.194   3.004 -0.5047 -1.0563 -2.4378
  656THF     O110456   0.512   4.633   4.478  0.0602  0.0315  0.1774
  656THF     C210457   0.430   4.702   4.384  0.7225 -0.5131 -0.1621
  656THF     C310458   0.448   4.620   4.606  0.3276  0.2116 -0.7815
  656THF     H410459   0.364   4.631   4.335  0.6261 -0.6935  0.2308
  656THF     H510460   0.492   4.737   4.302  0.4307  0.1550 -0.1020
  656THF     H610461   0.382   4.533   4.613  0.0882  0.5257  1.6780
  656THF     H710462   0.518   4.616   4.689  0.1983  1.5048 -0.5981
  656THF     C810463   0.374   4.756   4.607 -0.1918 -0.2033  0.8320
  656THF     C910464   0.368   4.811   4.467  0.4097  0.1885  0.4378
  656THF    H1010465   0.401   4.837   4.675 -2.1789  3.0232 -1.8986
  656THF    H1110466   0.275   4.730   4.645  1.2124 -1.0255  4.3263
  656THF    H1210467   0.265   4.830   4.439  0.5157 -0.2797 -0.2936
  656THF    H1310468   0.438   4.891   4.441  1.3760 -1.2575 -1.6563
  657THF     O110469   1.957   3.759   0.429  0.5717 -0.1621 -0.6212
  657THF     C210470   1.925   3.872   0.351  0.5335 -0.2889  0.5887
  657THF     C310471   1.996   3.645   0.359 -0.9008  0.1014 -0.2521
  657THF     H410472   1.968   3.964   0.390 -2.3291  1.3198  0.2615
  657THF     H510473   1.816   3.880   0.345  0.5731  1.7196  1.6168
  657THF     H610474   2.096   3.618   0.393 -0.5593  2.1158  0.4778
  657THF     H710475   1.931   3.559   0.377 -1.0868  0.1698 -0.5829
  657THF     C810476   1.991   3.697   0.214 -0.6753 -0.1655  0.9257
  657THF     C910477   2.000   3.847   0.219  0.2187 -0.6236 -0.1922
  657THF    H1010478   1.905   3.665   0.155  1.5364 -3.8179 -0.6815
  657THF    H1110479   2.070   3.645   0.159 -0.4601  1.9008 -0.8425
  657THF    H1210480   2.106   3.872   0.222  0.3289 -1.0189 -0.6918
  657THF    H1310481   1.940   3.895   0.141 -2.0162  1.1700  2.4302
  658THF     O110482   2.514   5.146   4.585 -0.3661  0.1328 -0.1990
  658THF     C210483   2.561   5.086   4.464  0.9952  0.0142 -0.3992
  658THF     C310484   2.375   5.160   4.587 -0.0534 -0.3375  0.0160
  658THF     H410485   2.562   4.977   4.474  3.4348 -0.1457 -1.6323
  658THF     H510486   2.661   5.118   4.437  0.1664  0.6497 -3.0543
  658THF     H610487   2.336   5.058   4.597  2.0457 -1.3090 -1.0630
  658THF     H710488   2.338   5.220   4.670  2.4616 -0.9534  1.6949
  658THF     C810489   2.358   5.211   4.443  0.5343  0.4211  0.0417
  658THF     C910490   2.449   5.116   4.364  0.3284 -0.3258 -0.2745
  658THF    H1010491   2.391   5.313   4.427 -2.2011  1.6134  1.3993
  658THF    H1110492   2.253   5.207   4.413  0.5858 -1.0114 -0.0491
  658THF    H1210493   2.406   5.018   4.340 -1.0911  0.7021 -2.2208
  658THF    H1310494   2.484   5.160   4.271  0.6669  0.8893  0.4111
  659THF     O110495   4.825   1.214   1.524  0.1150 -0.0766  0.8178
  659THF     C210496   4.700   1.268   1.483 -0.5520  0.7687 -0.4357
  659THF     C310497   4.849   1.227   1.657 -0.4206 -0.1264  0.0567
  659THF     H410498   4.662   1.239   1.385 -0.4470 -2.6388  0.4137
  659THF     H510499   4.716   1.375   1.473 -0.1727  0.7379 -0.1790
  659THF     H610500   4.873   1.127   1.692  1.4124 -0.0158 -0.7471
  659THF     H710501   4.937   1.289   1.675  0.4123 -0.9722 -1.0371
  659THF     C810502   4.712   1.278   1.708 -0.9443  0.0067 -0.4249
  659THF     C910503   4.611   1.238   1.604  0.8027 -0.0627  0.0731
  659THF    H1010504   4.716   1.387   1.710 -1.7406  0.0322  0.1479
  659THF    H1110505   4.688   1.244   1.809  1.4965 -0.0598  0.1870
  659THF    H1210506   4.586   1.132   1.612  0.4336 -0.0117 -0.3690
  659THF    H1310507   4.511   1.280   1.610 -0.5776 -2.3048 -3.6420
  660THF     O110508   0.209   3.979   2.482  0.3092 -0.3036  0.8793
  660THF     C210509   0.298   4.026   2.379 -1.2287 -0.0355  0.3747
  660THF     C310510   0.129   3.871   2.419  0.1324 -0.3143  0.1574
  660THF     H410511   0.387   4.083   2.406 -0.7685 -1.0108  0.9830
  660THF     H510512   0.244   4.091   2.311 -2.2471 -1.0699  0.1621
  660THF     H610513   0.088   3.789   2.478  0.8855 -2.1027 -1.6853
  660THF     H710514   0.049   3.924   2.367  2.0041  2.4591 -0.0916
  660THF     C810515   0.230   3.808   2.317  0.5069  0.9277 -0.2312
  660THF     C910516   0.338   3.905   2.294 -0.3085 -0.2497  0.2616
  660THF    H1010517   0.184   3.776   2.224 -2.5354 -1.1396  1.7678
  660THF    H1110518   0.268   3.712   2.353 -4.5172 -1.3261 -0.1667
  660THF    H1210519   0.429   3.863   2.335 -0.5447 -2.0691 -0.9750
  660THF    H1310520   0.351   3.923   2.187 -1.0822  0.5964  0.2918
  661THF     O110521   2.036   3.627   1.746 -0.0078  0.0285 -0.4228
  661THF     C210522   1.987   3.649   1.877 -0.0333 -0.2118 -0.0129
  661THF     C310523   2.082   3.758   1.720 -0.2818 -0.6789  0.0256
  661THF     H410524   2.068   3.644   1.950  0.3542 -1.0278 -0.4804
  661THF     H510525   1.911   3.571   1.886  0.7319 -1.1478 -1.3522
  661THF     H610526   2.171   3.790   1.774 -1.2169  0.0308  1.2168
  661THF     H710527   2.093   3.767   1.612 -5.0435  1.9858 -0.5423
  661THF     C810528   1.974   3.856   1.762  0.4443  0.1173  0.5856
  661THF     C910529   1.909   3.784   1.867  0.2251  0.6914 -0.0876
  661THF    H1010530   1.913   3.880   1.675  2.0275 -0.6464 -0.8051
  661THF    H1110531   2.011   3.952   1.798 -2.2260  0.8256  1.7043
  661THF    H1210532   1.897   3.838   1.961  0.0321  0.7018 -0.1180
  661THF    H1310533   1.803   3.767   1.847  0.1987  1.2865 -0.4658
  662THF     O110534   3.300   1.093   4.209 -0.0199 -0.4304  0.1537
  662THF     C210535   3.197   1.133   4.304  0.6302  0.2436 -0.0882
  662THF     C310536   3.414   1.173   4.245  0.0817 -0.5512 -0.3687
  662THF     H410537   3.208   1.079   4.398  2.2100 -0.4402 -0.6440
  662THF     H510538   3.097   1.122   4.261  0.4865  0.1194  0.2642
  662THF     H610539   3.461   1.110   4.321 -1.0646 -0.8500  0.1117
  662THF     H710540   3.483   1.193   4.163 -0.4809  2.1274 -0.2482
  662THF     C810541   3.356   1.306   4.287 -0.4097  0.7258  0.3505
  662THF     C910542   3.223   1.276   4.348  0.2734  0.2025 -0.3102
  662THF    H1010543   3.348   1.362   4.194  2.4613  0.0786 -0.3990
  662THF    H1110544   3.419   1.370   4.349  2.2996 -0.1224 -1.3315
  662THF    H1210545   3.228   1.292   4.456 -0.6077  1.0044 -0.3691
  662THF    H1310546   3.145   1.340   4.306  2.0806  1.2877 -2.1967
  663THF     O110547   1.984   4.793   1.171 -0.1449  0.6253  0.4778
  663THF     C210548   1.960   4.690   1.269  0.5601  0.0049 -0.0651
  663THF     C310549   1.883   4.792   1.074  0.2616  0.0757  0.7964
  663THF     H410550   2.027   4.722   1.349  1.7552 -0.0277 -1.0150
  663THF     H510551   1.984   4.589   1.234  0.8378 -0.0900  0.3901
  663THF     H610552   1.885   4.885   1.017 -0.3486 -0.5209 -0.2350
  663THF     H710553   1.896   4.707   1.007 -0.6044 -0.7096  1.5906
  663THF     C810554   1.758   4.769   1.157 -0.4167  0.8713  0.4083
  663THF     C910555   1.807   4.714   1.282 -0.2876 -0.0788 -0.3144
  663THF    H1010556   1.705   4.686   1.110 -0.6484  0.6914  0.9784
  663THF    H1110557   1.690   4.853   1.166 -0.1905  1.0236  0.7193
  663THF    H1210558   1.791   4.790   1.358  0.5918 -0.5212  0.3249
  663THF    H1310559   1.750   4.625   1.307 -0.1288 -0.2901 -0.7020
  664THF     O110560   0.182   4.561   1.102  0.4788 -0.2625 -0.1382
  664THF     C210561   0.230   4.618   0.980 -0.4807 -0.2356 -0.4539
  664THF     C310562   0.238   4.637   1.210  0.0018  0.4960 -0.1166
  664THF     H410563   0.203   4.720   0.951  0.6316  0.8482  2.0843
  664THF     H510564   0.220   4.549   0.896  1.6058  1.5030 -2.2503
  664THF     H610565   0.177   4.726   1.227 -2.7780 -1.0880 -1.1744
  664THF     H710566   0.242   4.575   1.300 -2.0146  1.4435  0.6678
  664THF     C810567   0.381   4.653   1.161  0.1504  0.7196  0.2714
  664THF     C910568   0.380   4.628   1.010 -0.2772 -0.2715 -0.2383
  664THF    H1010569   0.451   4.584   1.207  0.2855  1.2038  0.8104
  664THF    H1110570   0.421   4.753   1.180 -1.7006  1.3044  1.4598
  664THF    H1210571   0.421   4.709   0.949  1.7187 -0.8901  0.2155
  664THF    H1310572   0.437   4.539   0.987  2.0159  0.8477  0.7959
  665THF     O110573   1.888   4.671   2.736 -0.0105 -0.0034 -1.2885
  665THF     C210574   1.742   4.668   2.741  0.0753 -0.3947 -0.4382
  665THF     C310575   1.933   4.646   2.875 -0.7813  0.2971 -0.2566
  665THF     H410576   1.707   4.571   2.706 -0.2783 -0.3152 -0.3131
  665THF     H510577   1.706   4.747   2.674  1.5781 -1.8071 -3.0654
  665THF     H610578   1.997   4.557   2.874 -0.0388  0.8201 -0.1573
  665THF     H710579   1.990   4.726   2.922 -0.6326  2.1990 -3.4515
  665THF     C810580   1.812   4.617   2.968  0.0257 -0.4337 -0.1491
  665THF     C910581   1.701   4.685   2.893 -0.0904 -0.5265  0.2539
  665THF    H1010582   1.829   4.637   3.073  1.0834 -1.7479 -0.0405
  665THF    H1110583   1.786   4.511   2.978 -0.1426 -0.2022  2.2206
  665THF    H1210584   1.606   4.637   2.915 -1.2191  0.5907 -1.8614
  665THF    H1310585   1.684   4.790   2.914 -4.0448 -1.2599  1.5506
  666THF     O110586   4.922   4.953   2.674 -0.4133 -0.7019  0.2988
  666THF     C210587   5.009   5.048   2.617  0.3800  0.2816  0.1485
  666THF     C310588   4.836   4.898   2.574 -0.0741  0.3108 -0.3552
  666THF     H410589   5.104   4.999   2.599  0.5316  0.1557  1.2426
  666THF     H510590   5.029   5.131   2.685  3.2043 -1.7553  2.0040
  666THF     H610591   4.885   4.812   2.528  0.6923  0.2206  0.6049
  666THF     H710592   4.734   4.875   2.606 -0.6461  2.2567 -0.6736
  666THF     C810593   4.816   5.016   2.480  0.2162  0.9127 -0.0062
  666THF     C910594   4.942   5.099   2.495 -0.4753 -0.5795  0.2346
  666THF    H1010595   4.728   5.070   2.515  0.2141  0.3271  0.9443
  666THF    H1110596   4.803   4.997   2.374 -0.4524  0.0877  0.2029
  666THF    H1210597   5.011   5.092   2.410 -1.4205  1.2140 -0.7358
  666THF    H1310598   4.929   5.206   2.508  2.4391  0.1002 -1.5245
  667THF     O110599   2.086   1.176   3.546  0.1315  0.3862  0.5768
  667THF     C210600   2.003   1.139   3.655  0.0698 -1.0351 -0.4508
  667THF     C310601   2.045   1.101   3.435  0.0743  0.2796 -0.3935
  667THF     H410602   1.918   1.206   3.664  0.4085 -0.8547  1.8289
  667THF     H510603   2.050   1.147   3.753 -1.6858  1.6152  0.2777
  667THF     H610604   1.965   1.156   3.384 -1.1673  0.1790  1.3477
  667THF     H710605   2.121   1.073   3.362 -0.1652  0.0578 -0.5590
  667THF     C810606   1.977   0.972   3.494 -0.4363  0.0744 -0.1838
  667THF     C910607   1.965   0.993   3.642 -0.0101  0.3068 -0.1686
  667THF    H1010608   2.034   0.882   3.468  1.2656  1.0689 -0.0620
  667THF    H1110609   1.878   0.963   3.450 -0.2897 -0.3411 -0.4448
  667THF    H1210610   1.866   0.974   3.684 -1.5280 -0.4049 -3.7010
  667THF    H1310611   2.040   0.936   3.696  2.0688  1.3304 -1.8017
  668THF     O110612   4.156   5.474   0.650  1.0989 -0.0016 -0.9979
  668THF     C210613   4.279   5.464   0.713 -0.0088 -0.4578 -0.3298
  668THF     C310614   4.048   5.434   0.738 -0.1845 -0.5565  0.6282
  668THF     H410615   4.338   5.554   0.696 -0.3336  0.2365  1.9192
  668THF     H510616   4.320   5.368   0.683 -0.3776 -0.7057 -0.0473
  668THF     H610617   3.985   5.523   0.741  0.2529 -0.2183  0.0816
  668THF     H710618   3.989   5.350   0.703  0.9743 -0.7979 -0.8661
  668THF     C810619   4.118   5.405   0.871  0.8755 -0.0220  0.5225
  668THF     C910620   4.243   5.477   0.859  0.1495  0.1269  0.4810
  668THF    H1010621   4.141   5.298   0.872  1.7185  0.1529  0.7358
  668THF    H1110622   4.058   5.448   0.951  0.5183  1.6760 -0.5858
  668THF    H1210623   4.232   5.581   0.886 -1.1800  0.3134 -0.6470
  668THF    H1310624   4.322   5.432   0.920  0.3930  0.2112  0.2333
  669THF     O110625   2.852   0.987   3.025 -0.3505  0.0658 -0.1802
  669THF     C210626   2.904   0.959   2.895 -0.3637  0.0332 -0.3362
  669THF     C310627   2.947   1.059   3.103 -0.0434  0.2447 -0.4496
  669THF     H410628   2.824   0.937   2.824 -0.2619 -1.6344  0.0212
  669THF     H510629   2.965   0.870   2.912 -1.1368 -0.4379  0.0007
  669THF     H610630   2.896   1.142   3.152  0.2210  0.9436 -1.3150
  669THF     H710631   3.008   1.004   3.174  1.8729  1.7675 -0.8165
  669THF     C810632   3.036   1.126   3.002 -0.1060 -0.9047  0.0918
  669THF     C910633   2.987   1.080   2.867  0.5501  0.0699  0.4430
  669THF    H1010634   3.139   1.091   3.010 -0.2442 -1.4956 -0.6739
  669THF    H1110635   3.046   1.234   3.019  0.8926 -0.7339 -1.3963
  669THF    H1210636   2.936   1.154   2.806  1.3104  0.6465  0.4981
  669THF    H1310637   3.062   1.067   2.789 -0.9248 -1.3518 -0.8110
  670THF     O110638   2.096   2.342   2.263  0.0877 -0.7427 -0.3638
  670THF     C210639   2.097   2.203   2.248  0.3414 -0.6267  0.7547
  670THF     C310640   2.169   2.382   2.379 -0.2143 -0.6697 -0.2476
  670THF     H410641   2.144   2.176   2.153  1.2031  0.3843  0.8707
  670THF     H510642   1.991   2.182   2.237  0.2336  0.6475 -1.2264
  670THF     H610643   2.236   2.456   2.336 -1.1055  0.5689  0.4099
  670THF     H710644   2.098   2.423   2.451  0.6446 -2.0539  1.4525
  670THF     C810645   2.248   2.256   2.433  0.5153 -0.6022 -0.1560
  670THF     C910646   2.171   2.145   2.365 -0.0195  0.3873 -0.1950
  670THF    H1010647   2.248   2.246   2.542 -1.0292 -0.6517 -0.1360
  670THF    H1110648   2.351   2.255   2.397  0.2057 -1.5551 -1.0606
  670THF    H1210649   2.235   2.060   2.340 -0.2490  0.1782 -0.0781
  670THF    H1310650   2.101   2.098   2.434  0.6132  0.0584  0.2404
  671THF     O110651   1.997   5.459   3.149 -0.3962 -0.4655  0.4028
  671THF     C210652   1.995   5.597   3.106 -0.0807  0.1081 -0.1088
  671THF     C310653   1.898   5.440   3.252 -0.0429 -0.9743 -0.2182
  671THF     H410654   1.914   5.621   3.037 -0.2776  0.1469  0.1377
  671THF     H510655   2.088   5.617   3.053  0.6971 -0.4809  0.9936
  671THF     H610656   1.796   5.418   3.220 -0.6608 -0.2663  1.1584
  671THF     H710657   1.929   5.363   3.323 -1.1003 -1.1526  0.0650
  671THF     C810658   1.891   5.583   3.318  0.4461 -0.1250 -0.4209
  671THF     C910659   1.975   5.669   3.234 -0.0834 -0.8620  0.1924
  671THF    H1010660   1.932   5.579   3.419 -0.6162  1.1453  0.0816
  671THF    H1110661   1.788   5.612   3.340  0.4231  1.3790 -2.3423
  671THF    H1210662   1.935   5.770   3.224  0.7726 -0.3277  1.7054
  671THF    H1310663   2.078   5.684   3.269  0.2495 -1.2521 -0.5887
  672THF     O110664   3.654   2.849   0.094 -0.4966  0.2374 -0.0829
  672THF     C210665   3.511   2.826   0.097  0.1188 -0.5757 -0.4606
  672THF     C310666   3.719   2.752   0.010  0.0154 -0.0193  0.3725
  672THF     H410667   3.458   2.914   0.131 -0.4636 -1.3084  0.5853
  672THF     H510668   3.496   2.743   0.166 -0.0700 -0.2931 -0.1598
  672THF     H610669   3.808   2.799  -0.032  0.9923 -0.9704  1.3228
  672THF     H710670   3.745   2.664   0.069  1.2676 -1.1443 -1.6916
  672THF     C810671   3.606   2.717  -0.094 -0.3187  0.8599  0.4677
  672THF     C910672   3.484   2.792  -0.051  0.8897 -0.3854 -0.7140
  672THF    H1010673   3.597   2.609  -0.089 -0.2098  0.7435 -1.2953
  672THF    H1110674   3.622   2.746  -0.198 -2.7731  1.3075  0.1610
  672THF    H1210675   3.466   2.877  -0.117  2.9833 -0.8904 -2.0157
  672THF    H1310676   3.395   2.733  -0.074 -0.7410  1.9548 -0.8085
  673THF     O110677   5.262   2.517   1.421 -0.5413  0.5048 -0.2362
  673THF     C210678   5.390   2.481   1.460 -0.4127 -0.0834  0.3046
  673THF     C310679   5.224   2.641   1.483  0.2243  0.2295  0.4823
  673THF     H410680   5.464   2.527   1.395  0.4178 -2.2546 -0.4068
  673THF     H510681   5.396   2.372   1.450 -0.8876 -0.1612  0.8265
  673THF     H610682   5.236   2.721   1.410  1.0812 -0.2948  0.0423
  673THF     H710683   5.118   2.644   1.512 -0.1256 -1.5436 -0.4939
  673THF     C810684   5.321   2.668   1.595 -0.6114  0.6175  0.9937
  673THF     C910685   5.396   2.540   1.607  0.5779  0.0960  0.1758
  673THF    H1010686   5.276   2.684   1.693 -1.1418 -0.0985  0.8818
  673THF    H1110687   5.394   2.742   1.564  1.8387 -2.3206 -0.7485
  673THF    H1210688   5.490   2.562   1.657  0.6930  0.0825 -0.0333
  673THF    H1310689   5.338   2.476   1.673 -1.9266  0.5963 -1.3973
  674THF     O110690   2.947   0.461   4.014 -0.5641 -0.8714 -0.3946
  674THF     C210691   2.952   0.317   3.992 -0.5415  0.1418 -0.0736
  674THF     C310692   3.056   0.489   4.101  0.0072  0.0010  0.5442
  674THF     H410693   2.906   0.280   3.901 -0.6816 -1.8324  0.7271
  674THF     H510694   2.902   0.266   4.075  1.0387  0.0806  0.8865
  674THF     H610695   3.110   0.576   4.062  3.6490 -1.8281  1.0903
  674THF     H710696   3.030   0.531   4.198 -1.1842 -0.8955  0.6340
  674THF     C810697   3.138   0.366   4.122 -0.4851  0.1799 -0.1271
  674THF     C910698   3.099   0.284   4.002  0.5583  0.1969 -0.0338
  674THF    H1010699   3.106   0.326   4.218  2.1195  1.4343  1.3682
  674THF    H1110700   3.245   0.379   4.134 -0.1061 -1.8078 -0.9487
  674THF    H1210701   3.145   0.315   3.907 -1.3779 -1.6481 -1.6692
  674THF    H1310702   3.124   0.178   4.008 -1.7309 -0.3172  4.9742
  675THF     O110703   3.595   1.197   3.008  0.4778 -0.0370 -0.1846
  675THF     C210704   3.657   1.080   2.973  0.0674 -0.6653  0.2065
  675THF     C310705   3.458   1.173   2.992 -0.0252  0.0930 -0.1323
  675THF     H410706   3.656   1.014   3.060 -1.6012 -2.2154 -0.9124
  675THF     H510707   3.763   1.083   2.947  0.9849 -2.3787  3.2133
  675THF     H610708   3.414   1.174   3.092 -0.0998  0.8903 -0.1678
  675THF     H710709   3.413   1.257   2.940  1.6657  0.2375 -1.4575
  675THF     C810710   3.429   1.038   2.916 -0.5280  0.2964  0.3911
  675THF     C910711   3.570   1.009   2.868  0.2643 -0.2597 -0.2528
  675THF    H1010712   3.361   1.043   2.831 -0.1319  0.2924  0.0750
  675THF    H1110713   3.398   0.959   2.985  1.5811 -0.4396  0.5522
  675THF    H1210714   3.581   0.901   2.874  0.1759 -0.2722 -0.3106
  675THF    H1310715   3.588   1.058   2.772 -1.0518 -2.4135 -1.6904
  676THF     O110716   4.956   2.879   4.016  0.6558  0.4354  0.1885
  676THF     C210717   4.893   2.984   3.951  0.0712 -1.1113 -0.3940
  676THF     C310718   4.914   2.762   3.942 -0.2417 -0.1322 -0.7748
  676THF     H410719   4.948   3.074   3.979 -0.5505 -0.5019 -1.1011
  676THF     H510720   4.791   3.002   3.984  0.3524 -0.6615  0.2451
  676THF     H610721   4.986   2.681   3.958  1.7965  1.8384  0.8476
  676THF     H710722   4.822   2.736   3.993  0.7987 -0.9841  0.7461
  676THF     C810723   4.894   2.805   3.797 -0.9626 -0.1291  0.4352
  676THF     C910724   4.889   2.954   3.806 -0.8596  0.1042  0.3681
  676THF    H1010725   4.805   2.753   3.764 -0.5617 -0.0597 -0.8536
  676THF    H1110726   4.977   2.775   3.732 -0.1762  4.1073 -0.8890
  676THF    H1210727   4.979   3.006   3.774 -1.4311  0.6975 -0.2968
  676THF    H1310728   4.803   2.985   3.747  0.1348  3.2324  0.3456
  677THF     O110729   2.236   1.380   2.439  0.6099 -0.3346 -0.6743
  677THF     C210730   2.351   1.380   2.367 -0.3295  0.0653 -0.3375
  677THF     C310731   2.254   1.472   2.549  0.0352  0.7116  0.6458
  677THF     H410732   2.346   1.331   2.270 -0.0605  0.8397 -0.7565
  677THF     H510733   2.423   1.324   2.426 -1.1725  0.8707  1.5571
  677THF     H610734   2.162   1.523   2.576 -1.1535 -0.9965  0.0513
  677THF     H710735   2.290   1.409   2.630  1.8237 -1.8825 -1.9222
  677THF     C810736   2.356   1.574   2.496  0.0187 -0.2230 -0.7357
  677THF     C910737   2.395   1.517   2.366  0.4483  0.1384  0.0807
  677THF    H1010738   2.429   1.597   2.574  0.7310  4.6591 -2.4809
  677THF    H1110739   2.324   1.677   2.481  2.1091  1.0539  2.4597
  677THF    H1210740   2.348   1.573   2.286  2.3400  0.6993 -0.6968
  677THF    H1310741   2.504   1.526   2.365  0.5602  0.2013  3.1757
  678THF     O110742   2.544   3.009   4.495  0.5768  0.2380  0.9692
  678THF     C210743   2.604   2.934   4.389 -0.4554  0.5878  0.5498
  678THF     C310744   2.624   2.987   4.605 -0.2309  0.4004 -0.0951
  678THF     H410745   2.685   2.975   4.329 -0.3211 -2.8750 -1.9758
  678THF     H510746   2.530   2.907   4.313  2.3306 -0.7830 -1.8577
  678THF     H610747   2.711   3.051   4.590  0.6386 -0.0470  2.5318
  678THF     H710748   2.575   3.023   4.695 -1.9604  1.6409 -1.4589
  678THF     C810749   2.651   2.841   4.609  0.1010 -0.4982  0.6640
  678THF     C910750   2.664   2.813   4.461  0.3806 -0.3783  0.8211
  678THF    H1010751   2.562   2.789   4.645 -2.5387  2.7230 -0.6276
  678THF    H1110752   2.742   2.813   4.661 -0.0647  0.3316  1.4248
  678THF    H1210753   2.770   2.808   4.437  0.4165 -2.2506  1.2115
  678THF    H1310754   2.623   2.716   4.431  1.0912 -0.1082 -1.1449
  679THF     O110755   1.050   2.816   0.900 -0.1699  0.0732  0.0367
  679THF     C210756   1.054   2.768   1.036  0.0748 -0.8697  0.5950
  679THF     C310757   1.070   2.705   0.815 -0.1740 -0.2775 -0.8642
  679THF     H410758   0.954   2.747   1.072  0.4877 -0.3062  2.1219
  679THF     H510759   1.082   2.844   1.109 -2.0227 -1.0328  1.6440
  679THF     H610760   0.987   2.636   0.804  0.8295 -1.3589 -2.2091
  679THF     H710761   1.090   2.731   0.711 -0.9814 -1.4670 -1.3382
  679THF     C810762   1.172   2.628   0.889  0.1401 -0.1498 -0.3282
  679THF     C910763   1.144   2.644   1.032  0.6646 -1.3064  0.1606
  679THF    H1010764   1.275   2.662   0.876  0.0773 -0.2016 -0.9524
  679THF    H1110765   1.183   2.522   0.865  0.7729 -0.2029  0.1411
  679THF    H1210766   1.081   2.559   1.059 -0.3608 -0.9955 -1.1345
  679THF    H1310767   1.231   2.660   1.095  0.0359  1.3568  0.5016
  680THF     O110768   0.180   5.326   3.839  0.0640 -0.3884  0.4332
  680THF     C210769   0.061   5.306   3.922 -0.0533 -0.4438  0.0915
  680THF     C310770   0.149   5.433   3.754  0.1081  0.3812 -0.2465
  680THF     H410771   0.067   5.383   4.000  1.6092 -1.3162  0.8805
  680THF     H510772   0.058   5.205   3.963 -0.2229 -0.1455  0.8437
  680THF     H610773   0.156   5.525   3.812 -1.4841 -0.0870  0.7613
  680THF     H710774   0.217   5.448   3.671  1.9244 -0.5418  1.0010
  680THF     C810775   0.011   5.400   3.711 -0.2500  0.3935  0.8475
  680THF     C910776  -0.056   5.331   3.827 -0.5309 -0.5560 -0.2141
  680THF    H1010777   0.028   5.326   3.633 -0.0034  3.0428 -1.8303
  680THF    H1110778  -0.043   5.474   3.651  1.2382  0.6291 -0.2640
  680THF    H1210779  -0.129   5.392   3.881 -0.7507 -0.8553 -0.1712
  680THF    H1310780  -0.097   5.239   3.785  0.2305  0.1815 -2.7901
  681THF     O110781   1.687   2.905   5.042  0.3572  0.1506  0.2242
  681THF     C210782   1.571   2.818   5.076 -0.2778  0.0014 -0.1367
  681THF     C310783   1.646   2.988   4.936  0.5143  0.6857  0.6549
  681THF     H410784   1.535   2.827   5.178 -1.6704  1.2825 -0.7055
  681THF     H510785   1.604   2.714   5.085  1.0254  0.3682 -0.4622
  681THF     H610786   1.587   3.070   4.979 -1.5556  0.6256 -1.8206
  681THF     H710787   1.733   3.016   4.876  1.2634  0.0464  1.4187
  681THF     C810788   1.545   2.904   4.863 -0.7054 -0.5407  0.7570
  681THF     C910789   1.462   2.844   4.969  0.7881  0.4946 -0.3462
  681THF    H1010790   1.604   2.827   4.814 -0.8778 -0.5485  0.5562
  681THF    H1110791   1.486   2.959   4.788  0.6380  0.5513  0.4633
  681THF    H1210792   1.395   2.922   5.005  1.5376  0.9898  0.0104
  681THF    H1310793   1.415   2.752   4.935 -0.4854  0.9697  0.0768
  682THF     O110794   1.796   3.249   4.791 -0.4728 -0.3559  0.2166
  682THF     C210795   1.848   3.266   4.660 -0.3342  0.3479  0.2192
  682THF     C310796   1.898   3.254   4.887 -0.9297  0.2362 -0.5709
  682THF     H410797   1.788   3.320   4.587  0.9722  3.9100  1.5429
  682THF     H510798   1.874   3.166   4.626  1.0336 -0.2731  2.7999
  682THF     H610799   1.855   3.264   4.987  1.0251 -1.6598  0.5584
  682THF     H710800   1.943   3.157   4.867 -0.7455  0.0091  0.8425
  682THF     C810801   1.984   3.369   4.835 -0.0985  0.1733 -0.0836
  682THF     C910802   1.977   3.344   4.687  0.3045  0.2432  0.0241
  682THF    H1010803   2.091   3.367   4.856 -0.3677  2.5183  1.9537
  682THF    H1110804   1.942   3.466   4.860 -1.3489 -0.5527  0.7185
  682THF    H1210805   1.980   3.438   4.631  0.0069  0.0400 -0.3369
  682THF    H1310806   2.056   3.275   4.658  0.5320  0.9342 -1.0723
  683THF     O110807   3.179   1.076   0.078 -0.9479  0.0164 -0.4787
  683THF     C210808   3.187   1.186  -0.021 -0.9068 -0.6943  0.1925
  683THF     C310809   3.170   0.956  -0.003  0.1062 -0.0752 -0.1648
  683THF     H410810   3.287   1.172  -0.061 -1.4003 -0.5455 -1.1493
  683THF     H510811   3.166   1.285   0.021 -0.3191 -1.0333  1.3187
  683THF     H610812   3.261   0.917  -0.049  0.5479  0.2241  0.4354
  683THF     H710813   3.152   0.876   0.069 -0.2083  0.5964  0.5110
  683THF     C810814   3.061   1.008  -0.106  0.0668 -0.5678  0.1348
  683THF     C910815   3.101   1.149  -0.140 -0.3149  0.0319 -1.1202
  683THF    H1010816   2.964   1.019  -0.059 -0.3269  2.2079 -1.1194
  683THF    H1110817   3.059   0.938  -0.189  1.1029 -2.1528  1.3824
  683THF    H1210818   3.154   1.157  -0.235  0.0817  0.1778 -0.8893
  683THF    H1310819   3.012   1.211  -0.151 -0.0694  1.8073  4.1487
  684THF     O110820   2.614   5.231   1.023 -0.3457  0.6510  0.4037
  684THF     C210821   2.702   5.173   1.122  0.0463  0.2972 -0.8213
  684THF     C310822   2.696   5.288   0.921  0.1397  1.2594  0.1986
  684THF     H410823   2.683   5.070   1.150  1.4278 -0.3274 -2.0837
  684THF     H510824   2.682   5.232   1.211 -3.0336 -2.8483  0.8278
  684THF     H610825   2.700   5.226   0.831  1.4162  1.5447  0.0431
  684THF     H710826   2.662   5.383   0.881 -1.3648  0.8060  0.3239
  684THF     C810827   2.836   5.296   0.979  0.4824 -0.1073  0.5804
  684THF     C910828   2.847   5.181   1.072  1.0566 -0.0764  0.9877
  684THF    H1010829   2.855   5.394   1.023 -0.4245  0.3457 -0.0139
  684THF    H1110830   2.907   5.285   0.898 -0.3097 -0.7618 -0.0355
  684THF    H1210831   2.868   5.092   1.013  0.9862  0.3795  0.2690
  684THF    H1310832   2.930   5.187   1.143  0.9158 -0.7558  1.2244
  685THF     O110833   2.343   3.340   2.065 -0.3550  0.5390  0.1555
  685THF     C210834   2.415   3.249   1.991  0.1857  0.4829  0.1111
  685THF     C310835   2.284   3.433   1.967 -0.4271  0.1203 -0.1858
  685THF     H410836   2.442   3.152   2.031 -0.1828  0.3320 -0.0052
  685THF     H510837   2.503   3.307   1.962  0.6910 -0.3925 -0.1538
  685THF     H610838   2.192   3.465   2.015  0.4088  2.5189 -0.0613
  685THF     H710839   2.353   3.515   1.950  0.5623 -0.7202 -0.2991
  685THF     C810840   2.262   3.351   1.843 -0.6872  0.0910  0.1197
  685THF     C910841   2.313   3.223   1.873 -0.3941 -0.8423 -0.1626
  685THF    H1010842   2.315   3.402   1.762  1.3596  0.7049  1.7773
  685THF    H1110843   2.154   3.349   1.825 -0.8980 -0.1470  1.3784
  685THF    H1210844   2.227   3.161   1.899 -1.3638 -1.0024 -3.2855
  685THF    H1310845   2.360   3.177   1.786  1.3151  1.2195 -0.4289
  686THF     O110846   3.972   4.466   0.327  0.0036 -0.2229  0.0256
  686THF     C210847   3.891   4.564   0.397 -0.3026  0.4207  0.1443
  686THF     C310848   4.107   4.471   0.373  0.0056  0.0133 -0.3812
  686THF     H410849   3.853   4.517   0.487 -0.2696  1.5299  0.7626
  686THF     H510850   3.809   4.604   0.337 -0.3062  0.7434  0.3591
  686THF     H610851   4.122   4.412   0.463  2.1393 -1.0435 -1.3839
  686THF     H710852   4.180   4.436   0.300  2.0558 -3.2372  2.9003
  686THF     C810853   4.130   4.625   0.372 -0.5998 -0.2677  0.0178
  686THF     C910854   3.989   4.678   0.423 -1.1178 -0.5166  0.0620
  686THF    H1010855   4.149   4.663   0.271  0.6888 -0.2993  0.2285
  686THF    H1110856   4.216   4.663   0.428 -0.9693  0.8777 -0.1683
  686THF    H1210857   3.991   4.719   0.524  2.4057  1.6012 -0.6707
  686THF    H1310858   3.972   4.766   0.361 -1.6739 -0.1312  0.7423
  687THF     O110859   5.106   2.521   2.992 -0.1742 -0.0681  0.3857
  687THF     C210860   4.997   2.466   3.071 -0.4175 -0.2078  0.0531
  687THF     C310861   5.084   2.653   2.957  0.1868  0.8117  0.1329
  687THF     H410862   5.034   2.386   3.136  0.0347  0.7390  1.0071
  687THF     H510863   4.912   2.442   3.007 -0.9169  1.0959  0.1876
  687THF     H610864   5.172   2.709   2.923 -0.4879  1.2513 -0.9505
  687THF     H710865   5.018   2.646   2.870  0.8626  2.3293 -0.5415
  687THF     C810866   5.014   2.704   3.082 -0.1117 -0.5505 -0.4906
  687THF     C910867   4.973   2.587   3.169 -0.6136  0.3430  0.4785
  687THF    H1010868   4.925   2.758   3.047 -0.1842  0.2243  0.8106
  687THF    H1110869   5.084   2.779   3.120 -3.3740  1.5849  1.8948
  687THF    H1210870   5.047   2.591   3.249  1.0590 -0.8396 -0.9343
  687THF    H1310871   4.877   2.587   3.220 -1.3739  1.6445 -0.8877
  688THF     O110872   0.267   3.618   0.845 -0.4415 -0.0306 -0.4063
  688THF     C210873   0.348   3.547   0.760 -0.0688  0.8897 -0.3375
  688THF     C310874   0.338   3.732   0.887 -0.3319 -0.9444  0.2561
  688THF     H410875   0.287   3.477   0.703  0.3054  0.6687 -0.4734
  688THF     H510876   0.423   3.490   0.815 -0.7230 -0.0335 -0.3775
  688THF     H610877   0.266   3.799   0.935 -2.4384 -3.9833  1.7047
  688THF     H710878   0.413   3.705   0.961  1.6018 -0.5982 -1.4992
  688THF     C810879   0.410   3.779   0.765  0.0649  0.1659 -0.0798
  688THF     C910880   0.405   3.656   0.672  0.0448 -0.2741 -0.2371
  688THF    H1010881   0.509   3.817   0.792 -0.1595 -0.0958  1.1575
  688THF    H1110882   0.356   3.861   0.720 -0.8062 -0.0212  0.6073
  688THF    H1210883   0.338   3.672   0.588 -2.1742  0.4605  1.5443
  688THF    H1310884   0.501   3.622   0.633  1.2497  2.6953 -0.1743
  689THF     O110885   3.037   2.875   0.220 -0.8888 -0.0791 -0.4518
  689THF     C210886   2.967   2.919   0.334  0.2162  0.2030 -0.2680
  689THF     C310887   2.978   2.754   0.175  0.7489  0.2823  0.0503
  689THF     H410888   2.993   3.023   0.356  0.0364 -0.0303  1.1455
  689THF     H510889   3.011   2.864   0.417 -0.7834 -0.6074 -0.2574
  689THF     H610890   2.989   2.745   0.067 -1.5141  2.6527 -0.4826
  689THF     H710891   3.005   2.670   0.240  3.1225 -0.0966 -1.3138
  689THF     C810892   2.826   2.787   0.197 -0.3524 -0.1498  0.6972
  689THF     C910893   2.823   2.887   0.318  0.3117  0.6959  0.2264
  689THF    H1010894   2.761   2.701   0.211 -0.5841 -0.2675 -0.9187
  689THF    H1110895   2.786   2.835   0.108  3.4991 -3.4188 -3.2741
  689THF    H1210896   2.766   2.977   0.297  0.1582  0.0046 -2.9422
  689THF    H1310897   2.788   2.823   0.400 -0.4189 -1.4488 -1.6306
  690THF     O110898   4.025   2.928   4.439  0.3628  0.5166 -0.0205
  690THF     C210899   3.971   2.984   4.556 -0.1651  0.0397 -0.0294
  690THF     C310900   4.152   2.975   4.412  1.2405 -0.4775 -0.1885
  690THF     H410901   3.990   2.913   4.637  1.6776  1.2367  0.6730
  690THF     H510902   3.868   3.015   4.540 -0.1073  1.3508  1.7845
  690THF     H610903   4.229   2.919   4.466  1.9951  0.4851 -0.2379
  690THF     H710904   4.172   2.966   4.305 -1.0892 -0.8618 -0.6500
  690THF     C810905   4.141   3.123   4.464  0.6593  0.6782  0.1666
  690THF     C910906   4.054   3.114   4.588 -0.1104  0.1159  0.3912
  690THF    H1010907   4.078   3.179   4.396  0.7661 -1.4523 -1.8015
  690THF    H1110908   4.240   3.163   4.486  1.3373 -0.8064 -0.0685
  690THF    H1210909   4.113   3.089   4.676  1.4528  0.4092 -0.5460
  690THF    H1310910   3.995   3.205   4.601  1.4901  1.0667  1.4079
  691THF     O110911   3.050   2.509   5.383  0.2363  0.2715  0.2322
  691THF     C210912   2.930   2.576   5.343 -0.1401  0.3579  0.3341
  691THF     C310913   3.145   2.531   5.289  0.2977  0.7042  0.3994
  691THF     H410914   2.860   2.592   5.425 -0.5759 -0.6210  0.1709
  691THF     H510915   2.890   2.504   5.271  2.3074 -1.3648  0.5624
  691THF     H610916   3.242   2.507   5.332  0.2231 -0.3649 -0.0006
  691THF     H710917   3.116   2.482   5.196 -0.2959  1.7653  0.0149
  691THF     C810918   3.121   2.683   5.256  0.0966  0.0609 -0.0460
  691THF     C910919   2.973   2.708   5.282 -0.2015  0.0649  0.5011
  691THF    H1010920   3.162   2.711   5.159 -1.2040  0.3403 -0.5462
  691THF    H1110921   3.171   2.753   5.323 -0.1202  0.9245 -0.7638
  691THF    H1210922   2.964   2.794   5.348  0.5142 -1.3490  2.5302
  691THF    H1310923   2.916   2.724   5.190 -0.4690 -2.8833  0.0452
  692THF     O110924   2.720   0.839   4.482  0.1293 -0.4141 -0.4525
  692THF     C210925   2.707   0.821   4.626  0.0061 -0.5493 -0.2210
  692THF     C310926   2.756   0.975   4.463 -0.6088  0.0454  0.1906
  692THF     H410927   2.701   0.723   4.674  2.3143 -0.8414 -0.4201
  692THF     H510928   2.611   0.858   4.662  0.1951  0.1817 -0.4579
  692THF     H610929   2.795   0.996   4.363 -1.1217 -1.3742 -0.3375
  692THF     H710930   2.671   1.042   4.477  0.1806  0.6380  2.7619
  692THF     C810931   2.864   0.996   4.570 -0.1451  0.4638  0.0551
  692THF     C910932   2.824   0.905   4.682 -0.1931 -0.2809 -0.2609
  692THF    H1010933   2.855   1.101   4.597  2.7697  1.4854 -2.3502
  692THF    H1110934   2.964   0.971   4.534  0.4357  2.1057  0.4837
  692THF    H1210935   2.897   0.828   4.707 -0.6132 -1.7231 -3.0779
  692THF    H1310936   2.799   0.958   4.774 -0.0652  0.4947 -0.6628
  693THF     O110937   0.915   2.970   5.050  0.4741 -0.0958  0.2421
  693THF     C210938   1.029   3.052   5.024 -0.4361 -0.8904  0.5732
  693THF     C310939   0.832   2.997   4.937 -0.1580  0.3028 -0.8650
  693THF     H410940   1.111   2.995   5.068 -1.3291 -2.2103  0.5644
  693THF     H510941   1.023   3.148   5.076  1.9712 -0.2791 -0.1470
  693THF     H610942   0.759   2.920   4.915  0.7359  0.1471 -3.6156
  693THF     H710943   0.794   3.099   4.946 -2.6813 -0.7473  3.1525
  693THF     C810944   0.926   2.997   4.816 -0.1852  0.0722 -0.0073
  693THF     C910945   1.046   3.079   4.873  0.4430  0.4747 -0.5887
  693THF    H1010946   0.866   3.046   4.739 -0.0755  0.3559  0.0862
  693THF    H1110947   0.945   2.891   4.797 -0.7240 -0.1221  0.5178
  693THF    H1210948   1.137   3.026   4.844 -0.2301 -1.4602  0.6493
  693THF    H1310949   1.042   3.187   4.859 -1.7726  0.3922 -1.0597
  694THF     O110950   2.654   0.172   4.787 -0.1746 -0.5097  0.9486
  694THF     C210951   2.629   0.188   4.646  0.2799 -0.1172  0.6574
  694THF     C310952   2.784   0.221   4.825  0.2011  0.0649  0.5006
  694THF     H410953   2.526   0.222   4.631  0.1652 -0.5185  0.5299
  694THF     H510954   2.656   0.096   4.595  0.3619 -1.1286  2.4211
  694THF     H610955   2.786   0.238   4.933 -1.4749 -0.4336  0.6406
  694THF     H710956   2.856   0.145   4.795 -3.6277 -3.5232 -0.5064
  694THF     C810957   2.788   0.340   4.734 -0.5018  0.4814 -0.4440
  694THF     C910958   2.722   0.298   4.602 -0.0803 -1.3464 -0.7481
  694THF    H1010959   2.883   0.392   4.721 -0.7797  1.1810  0.2484
  694THF    H1110960   2.716   0.408   4.779 -1.7077 -1.4117  0.6151
  694THF    H1210961   2.665   0.375   4.550  0.9927 -0.9514 -1.3671
  694THF    H1310962   2.797   0.254   4.536  0.0096 -1.7728 -0.3648
  695THF     O110963   5.204   0.036   4.466 -0.3756  0.6096 -0.2190
  695THF     C210964   5.312   0.121   4.479  0.5188  0.2170  0.6867
  695THF     C310965   5.251  -0.081   4.400 -1.3542  0.0372  0.4178
  695THF     H410966   5.375   0.072   4.553 -0.1578 -3.8704 -1.1381
  695THF     H510967   5.291   0.222   4.515  1.4628  1.2733 -1.5284
  695THF     H610968   5.289  -0.154   4.472 -0.0630  0.1181 -0.1560
  695THF     H710969   5.175  -0.143   4.353 -0.3373 -1.7417  1.0368
  695THF     C810970   5.361  -0.029   4.302 -0.5800 -0.6321  0.1191
  695THF     C910971   5.394   0.113   4.355  0.5789 -0.0050 -0.1409
  695THF    H1010972   5.329  -0.018   4.198  1.0111 -2.9588 -0.6958
  695THF    H1110973   5.445  -0.098   4.299  2.0367  2.3280 -0.8544
  695THF    H1210974   5.497   0.127   4.386  0.9234  0.4472 -1.4429
  695THF    H1310975   5.359   0.187   4.284 -3.5435  0.1905  1.7501
  696THF     O110976   2.696   0.260   2.217 -0.2141 -0.6215  0.4308
  696THF     C210977   2.674   0.150   2.298 -0.3365 -0.1525  0.4731
  696THF     C310978   2.820   0.323   2.249 -0.1271 -0.0001  0.1069
  696THF     H410979   2.647   0.068   2.232  0.0425  0.0180  0.1011
  696THF     H510980   2.598   0.169   2.374 -1.1418  3.4493 -1.0213
  696THF     H610981   2.865   0.372   2.164 -0.1474 -2.2429 -1.2662
  696THF     H710982   2.805   0.391   2.333 -1.3983  1.1242 -0.9749
  696THF     C810983   2.909   0.213   2.296 -0.4135  0.3915 -0.3055
  696THF     C910984   2.818   0.116   2.365  0.6415  0.1028 -0.6014
  696THF    H1010985   2.992   0.247   2.359  1.4601 -2.6306 -0.9084
  696THF    H1110986   2.972   0.169   2.218  2.0061  1.0078  1.1646
  696THF    H1210987   2.846   0.011   2.351  0.1358 -0.1304  0.0905
  696THF    H1310988   2.822   0.151   2.468 -1.8529  2.2067 -1.1167
  697THF     O110989   1.489   3.871   3.936 -0.0582 -0.3325  0.0499
  697THF     C210990   1.453   4.012   3.923  0.6030 -0.3478 -0.2462
  697THF     C310991   1.440   3.839   4.068 -0.3165 -0.4255  0.7163
  697THF     H410992   1.345   4.018   3.914  0.4195  0.3688  1.8660
  697THF     H510993   1.498   4.071   3.844  1.6105  0.0867  0.6337
  697THF     H610994   1.333   3.820   4.079 -0.3465  0.0690  1.3216
  697THF     H710995   1.484   3.744   4.097  1.7443  0.7269  1.5607
  697THF     C810996   1.481   3.956   4.155  0.2713 -0.6142  0.1013
  697THF     C910997   1.484   4.076   4.060 -0.5959  0.1687  0.2570
  697THF    H1010998   1.584   3.942   4.188  1.0170  0.6955 -1.5364
  697THF    H1110999   1.415   3.981   4.239 -0.3355  2.0914 -1.0480
  697THF    H1211000   1.413   4.157   4.078 -1.0314 -0.6311  2.5009
  697THF    H1311001   1.581   4.122   4.042  0.1287 -2.3371 -3.3199
  698THF     O111002   0.198   0.436   1.832 -0.1536  0.3144  0.3218
  698THF     C211003   0.293   0.486   1.739  0.3730  0.2783 -0.4560
  698THF     C311004   0.155   0.538   1.919 -0.9038 -0.3523 -0.0985
  698THF     H411005   0.238   0.530   1.656 -2.6314 -0.8159  0.8302
  698THF     H511006   0.358   0.403   1.709  1.7582  0.7167  1.1247
  698THF     H611007   0.078   0.596   1.868  0.5401  0.1415 -1.8162
  698THF     H711008   0.108   0.508   2.013  1.3418  1.8247  1.8441
  698THF     C811009   0.286   0.617   1.945  0.0943  0.2451 -0.1539
  698THF     C911010   0.362   0.599   1.821  0.7461  0.3362 -0.4238
  698THF    H1011011   0.347   0.581   2.028 -2.1449 -3.0925  0.2308
  698THF    H1111012   0.264   0.722   1.963 -3.8632 -0.5479  0.4496
  698THF    H1211013   0.361   0.690   1.762 -0.7524  0.2865 -0.5025
  698THF    H1311014   0.468   0.581   1.840  0.7608 -0.2097 -1.0019
  699THF     O111015   4.513   3.705   4.121 -0.3424 -0.4470 -0.3962
  699THF     C211016   4.499   3.821   4.034 -0.1305 -0.2823  0.1485
  699THF     C311017   4.386   3.686   4.175  0.7682  0.8321 -0.0499
  699THF     H411018   4.558   3.794   3.946 -0.5753  0.7540 -0.4803
  699THF     H511019   4.559   3.894   4.087  2.3792 -1.9521 -0.1993
  699THF     H611020   4.361   3.584   4.205 -0.6408  1.3495  0.6522
  699THF     H711021   4.373   3.748   4.264 -0.6708  0.6885 -0.1346
  699THF     C811022   4.282   3.736   4.077  0.4940  0.0770  0.1764
  699THF     C911023   4.346   3.849   3.996 -0.2766  0.3163 -0.4686
  699THF    H1011024   4.185   3.765   4.118  0.7114  0.8794  0.1192
  699THF    H1111025   4.268   3.664   3.996 -0.7406  0.3977  0.0826
  699THF    H1211026   4.309   3.843   3.894 -0.2900 -0.1971 -0.4376
  699THF    H1311027   4.320   3.949   4.031 -0.7772  0.2457 -0.6327
  700THF     O111028   4.610   2.957   2.323 -0.2406  0.3098  0.3975
  700THF     C211029   4.548   2.991   2.443 -0.4182 -0.9475  0.3745
  700THF     C311030   4.617   3.076   2.240 -0.6388  0.1215  0.0799
  700THF     H411031   4.614   3.057   2.501  0.5186 -1.7090  0.1899
  700THF     H511032   4.506   2.912   2.506 -1.2704 -1.2211 -0.5125
  700THF     H611033   4.704   3.127   2.281 -0.5562 -1.4586  2.0074
  700THF     H711034   4.626   3.037   2.139 -0.7306 -1.2896  0.5989
  700THF     C811035   4.475   3.138   2.263 -0.1499 -0.7472 -0.4848
  700THF     C911036   4.434   3.080   2.394  1.0239  0.1219 -0.0242
  700THF    H1011037   4.420   3.109   2.174  2.7819 -0.8753 -2.3919
  700THF    H1111038   4.489   3.246   2.253 -0.6180 -0.6015  0.3871
  700THF    H1211039   4.406   3.156   2.467  1.0504 -1.5532  1.8151
  700THF    H1311040   4.339   3.028   2.377  1.4159 -0.7172  0.2988
  701THF     O111041   2.263   2.763   0.983  0.0935  0.3462 -0.9765
  701THF     C211042   2.286   2.901   1.017  0.0463  0.2227 -0.5590
  701THF     C311043   2.153   2.712   1.057  0.0747  0.1189  0.3395
  701THF     H411044   2.340   2.955   0.938 -0.9768  3.4939  0.7993
  701THF     H511045   2.354   2.919   1.100 -0.0313  0.4897 -0.5516
  701THF     H611046   2.093   2.645   0.996  2.3583 -0.6317 -1.1955
  701THF     H711047   2.197   2.678   1.151  0.5469  2.0277  0.8576
  701THF     C811048   2.084   2.843   1.107  0.3492  0.7376 -0.3271
  701THF     C911049   2.152   2.959   1.035 -0.1644  0.7574 -0.7719
  701THF    H1011050   2.095   2.848   1.215  1.8969  1.4634 -0.4909
  701THF    H1111051   1.978   2.849   1.081  0.0138 -2.6973 -0.1890
  701THF    H1211052   2.106   2.978   0.938 -0.6550 -2.2100 -1.2231
  701THF    H1311053   2.158   3.052   1.092  3.3140  0.0222  0.2976
  702THF     O111054   1.611   4.119   3.314 -1.1806  0.2254 -0.0209
  702THF     C211055   1.488   4.173   3.340 -0.0080 -0.0659  0.3434
  702THF     C311056   1.626   4.005   3.392  0.0254  0.4575  0.3336
  702THF     H411057   1.414   4.148   3.264 -0.5591  2.4866 -0.0479
  702THF     H511058   1.496   4.282   3.333  0.1137 -0.0922  0.0689
  702THF     H611059   1.669   3.925   3.332 -2.6891 -1.9692  1.3632
  702THF     H711060   1.688   4.019   3.480  0.9616 -3.1759  0.4072
  702THF     C811061   1.486   3.966   3.444  0.4804 -0.6140 -0.1524
  702THF     C911062   1.443   4.111   3.470  0.4034  0.0296  0.2444
  702THF    H1011063   1.487   3.902   3.532  1.8244 -0.1105  0.2249
  702THF    H1111064   1.423   3.922   3.367 -0.5300 -0.2646  0.4614
  702THF    H1211065   1.339   4.123   3.501  0.4717  2.7325 -0.3347
  702THF    H1311066   1.498   4.153   3.553  0.3288 -0.2156  0.4179
  703THF     O111067   0.948   4.286   5.026  0.2848  0.1259  0.0597
  703THF     C211068   0.997   4.154   5.033 -0.0467 -0.1075 -0.2206
  703THF     C311069   0.827   4.280   5.103  0.1543  0.8875  0.1101
  703THF     H411070   1.035   4.138   5.134 -0.7019  1.2474  0.2636
  703THF     H511071   1.081   4.136   4.965 -0.5894  0.1809 -0.9870
  703THF     H611072   0.848   4.284   5.210 -0.6861 -2.8735  0.5384
  703THF     H711073   0.761   4.360   5.070 -0.5604  1.3835  2.5149
  703THF     C811074   0.765   4.146   5.076 -0.1267  0.9042 -0.5299
  703THF     C911075   0.867   4.075   4.995 -0.2143 -0.0440  1.0218
  703THF    H1011076   0.671   4.161   5.025  0.2811 -0.8922 -1.9122
  703THF    H1111077   0.735   4.092   5.166 -0.9949  1.3937 -0.5201
  703THF    H1211078   0.877   3.968   5.015 -0.9281 -0.4042 -0.4202
  703THF    H1311079   0.842   4.083   4.890  1.8099  0.6649  0.5548
  704THF     O111080   3.757   3.632   5.212  0.0061 -0.2664 -0.0951
  704THF     C211081   3.816   3.533   5.131 -0.4017  0.2137 -0.6439
  704THF     C311082   3.846   3.683   5.298 -1.2784 -0.2433  0.6201
  704THF     H411083   3.752   3.513   5.045 -0.5423  2.1981 -1.0404
  704THF     H511084   3.826   3.444   5.193  0.4791  1.2252  0.7131
  704THF     H611085   3.840   3.792   5.299  1.5309  0.0125 -0.2242
  704THF     H711086   3.840   3.645   5.400 -1.4532 -0.4983  0.5146
  704THF     C811087   3.987   3.639   5.238 -0.0676 -0.0041  0.8902
  704THF     C911088   3.954   3.587   5.099 -0.1645 -0.1228 -0.0807
  704THF    H1011089   4.034   3.565   5.304  1.2955 -0.4530 -0.5174
  704THF    H1111090   4.051   3.726   5.228 -2.2829  1.5375 -0.8922
  704THF    H1211091   3.946   3.673   5.031 -1.9825 -0.9491 -0.9797
  704THF    H1311092   4.009   3.505   5.052 -0.9058 -0.0045 -1.2014
  705THF     O111093   5.180   3.294   0.488  0.0557 -0.8975 -0.0648
  705THF     C211094   5.042   3.277   0.511 -0.0572  1.1421 -0.3772
  705THF     C311095   5.194   3.392   0.388  0.2759  0.5243 -0.3592
  705THF     H411096   5.030   3.252   0.617  0.0500  1.8565 -0.1959
  705THF     H511097   5.000   3.202   0.445  0.3028 -0.6139  1.2778
  705THF     H611098   5.298   3.423   0.376  0.9711 -0.3268  2.6435
  705THF     H711099   5.174   3.355   0.288 -2.3220 -1.3108  0.7263
  705THF     C811100   5.100   3.504   0.441 -0.4926 -0.2047 -0.5422
  705THF     C911101   4.984   3.417   0.497 -0.7459  0.4143  0.1340
  705THF    H1011102   5.057   3.579   0.374 -2.4523 -0.6692  0.1107
  705THF    H1111103   5.154   3.561   0.517  0.2228  0.3215 -1.4310
  705THF    H1211104   4.938   3.460   0.586 -2.0702 -1.3775  0.3624
  705THF    H1311105   4.899   3.410   0.429 -1.7505  3.9235  0.8346
  706THF     O111106   1.929   0.049   4.763  0.2635  0.3336  0.0642
  706THF     C211107   2.029   0.109   4.685 -0.5510  0.4103  0.0248
  706THF     C311108   1.985  -0.055   4.844 -0.2710 -0.4165 -0.2222
  706THF     H411109   2.055   0.206   4.728  2.2564  0.2498 -1.0856
  706THF     H511110   1.996   0.108   4.582  1.0100 -0.3389 -0.5006
  706THF     H611111   2.018  -0.006   4.936  0.7514  1.0261 -1.3095
  706THF     H711112   1.913  -0.127   4.882 -1.0809  1.6675  2.5020
  706THF     C811113   2.089  -0.113   4.752  0.9249 -0.1028  0.2715
  706THF     C911114   2.151   0.016   4.688  0.0299  0.5465 -0.0100
  706THF    H1011115   2.036  -0.170   4.676  0.3993  0.6908  0.0314
  706THF    H1111116   2.164  -0.168   4.808 -0.2349  0.9893  3.0686
  706THF    H1211117   2.216   0.066   4.759 -2.3658  1.3972  1.6972
  706THF    H1311118   2.182   0.008   4.583 -3.1161  3.8007 -1.4289
  707THF     O111119   5.331   5.413   2.051 -0.3392  0.4055 -0.2687
  707THF     C211120   5.443   5.370   2.126 -0.5932 -0.5036  0.0902
  707THF     C311121   5.293   5.545   2.098  0.7379 -0.9827 -0.1022
  707THF     H411122   5.487   5.280   2.083 -1.9752 -0.1954 -2.1578
  707THF     H511123   5.409   5.340   2.225 -2.8316  0.9745 -0.1425
  707THF     H611124   5.271   5.617   2.018  0.8939 -1.0955 -0.2483
  707THF     H711125   5.209   5.521   2.163  0.7841  1.2243  0.8701
  707THF     C811126   5.412   5.599   2.176  0.0929 -0.3453  0.3082
  707THF     C911127   5.526   5.500   2.145  0.1486 -0.2503  0.1254
  707THF    H1011128   5.399   5.609   2.284 -0.0169  0.6821  0.2129
  707THF    H1111129   5.440   5.696   2.135 -0.5230 -0.5544 -0.6443
  707THF    H1211130   5.583   5.541   2.062  1.9988 -0.1266  1.4061
  707THF    H1311131   5.604   5.490   2.220  0.7973 -1.6537 -0.6944
  708THF     O111132   4.679   4.040   0.820  0.7337  1.1804 -0.1779
  708THF     C211133   4.625   3.932   0.899  0.0026 -0.3327  0.1021
  708THF     C311134   4.749   4.127   0.906 -0.4428  0.3272 -0.0264
  708THF     H411135   4.695   3.850   0.912 -0.0562 -0.2939  0.6565
  708THF     H511136   4.526   3.897   0.870 -0.1753 -0.0079  0.3288
  708THF     H611137   4.852   4.132   0.872 -0.1438 -0.6740  0.6778
  708THF     H711138   4.706   4.227   0.899 -2.2818 -0.4348 -0.3351
  708THF     C811139   4.742   4.071   1.049 -0.1167  0.5367  0.5516
  708THF     C911140   4.623   3.982   1.038  0.6720 -0.0621  0.9858
  708THF    H1011141   4.733   4.150   1.123 -1.6802  1.1648 -0.2620
  708THF    H1111142   4.824   4.002   1.068 -1.3175 -0.6691  1.6087
  708THF    H1211143   4.615   3.896   1.103 -0.6372  0.2576  1.2679
  708THF    H1311144   4.533   4.040   1.059  0.5630 -0.2192  0.9468
  709THF     O111145   2.092   2.103   2.934 -0.3293 -0.3322 -1.4883
  709THF     C211146   2.097   2.118   2.797  0.2278 -0.4147  0.2737
  709THF     C311147   2.145   1.976   2.970 -0.2332  0.9719  0.8142
  709THF     H411148   2.086   2.217   2.753  0.4839 -0.6386 -0.3068
  709THF     H511149   2.010   2.062   2.762  1.9976 -4.5034  1.8061
  709THF     H611150   2.191   1.976   3.069  1.9980  0.1916 -0.1673
  709THF     H711151   2.066   1.901   2.972  2.5389 -2.2046  0.7995
  709THF     C811152   2.243   1.937   2.857  0.3635 -0.0272  0.2075
  709THF     C911153   2.217   2.036   2.748 -0.2906 -0.1318  0.2550
  709THF    H1011154   2.209   1.842   2.816 -0.1281  0.8284 -1.4859
  709THF    H1111155   2.348   1.926   2.884  0.0078  0.2168  1.7687
  709THF    H1211156   2.301   2.097   2.713 -0.8785  0.5916  0.0892
  709THF    H1311157   2.195   1.983   2.655  2.2620  1.7957 -1.6003
  710THF     O111158   3.318   0.950   3.938 -0.3544 -0.1597  0.1648
  710THF     C211159   3.459   0.956   3.900  0.1320  0.3979 -0.2474
  710THF     C311160   3.309   0.839   4.034  0.1204 -0.2767  0.0479
  710THF     H411161   3.509   1.040   3.949  0.7899 -1.4357  2.5199
  710THF     H511162   3.472   0.961   3.792  1.6769  0.7830 -0.0760
  710THF     H611163   3.236   0.858   4.114  0.0959  0.9535 -0.2450
  710THF     H711164   3.283   0.753   3.972  2.3546  0.0206 -1.3752
  710THF     C811165   3.453   0.817   4.081 -0.4222 -0.0942 -0.0017
  710THF     C911166   3.529   0.833   3.952 -0.1125 -0.0550 -0.2174
  710THF    H1011167   3.478   0.719   4.121  3.0464  0.9900  0.8278
  710THF    H1111168   3.480   0.893   4.155 -0.4947 -2.1155  2.2196
  710THF    H1211169   3.637   0.840   3.965 -0.1615 -2.2104  2.1827
  710THF    H1311170   3.517   0.755   3.877  1.8550  0.2239 -0.8788
  711THF     O111171   1.649   2.363   2.474 -0.7622  0.0226 -0.5762
  711THF     C211172   1.570   2.245   2.496 -0.6676 -0.1925  0.1138
  711THF     C311173   1.789   2.344   2.511 -0.3840  0.3327  0.6477
  711THF     H411174   1.526   2.222   2.399  2.5960  0.0114 -1.5854
  711THF     H511175   1.497   2.251   2.576 -0.4060 -0.2259  0.3573
  711THF     H611176   1.853   2.409   2.451 -0.3559  1.2134  1.6221
  711THF     H711177   1.804   2.367   2.616  2.6740 -1.9969  0.8785
  711THF     C811178   1.808   2.200   2.481  0.3543  0.1045  0.3197
  711THF     C911179   1.681   2.141   2.536  0.3706 -0.1522 -0.5192
  711THF    H1011180   1.900   2.172   2.533  0.8252  2.2382  0.7340
  711THF    H1111181   1.814   2.170   2.376 -1.1392 -1.0376  0.5219
  711THF    H1211182   1.662   2.041   2.495  0.6568 -0.8100  0.8757
  711THF    H1311183   1.691   2.140   2.644 -1.9540  1.6853 -0.2091
  712THF     O111184   2.169   3.737   4.179  0.3802 -0.6140  0.1107
  712THF     C211185   2.267   3.798   4.106  0.1537 -0.6944  0.0622
  712THF     C311186   2.206   3.756   4.315  0.5168 -0.2924  0.3529
  712THF     H411187   2.247   3.904   4.091 -1.6542 -0.9312  0.6013
  712THF     H511188   2.266   3.752   4.007  0.2330 -0.2452 -0.1523
  712THF     H611189   2.178   3.855   4.351  1.3307 -0.5269  1.7024
  712THF     H711190   2.153   3.674   4.364  0.7501 -0.9270 -0.4149
  712THF     C811191   2.355   3.729   4.316  0.4561  0.0684  0.3216
  712THF     C911192   2.398   3.780   4.175  0.2325 -0.5907 -0.0852
  712THF    H1011193   2.390   3.626   4.314  3.9578  1.0892 -1.8218
  712THF    H1111194   2.418   3.783   4.387 -1.6130  0.2317  2.1054
  712THF    H1211195   2.464   3.867   4.173 -0.0096 -0.3397  1.4769
  712THF    H1311196   2.451   3.697   4.128 -0.7591  0.3518 -3.0709
  713THF     O111197   4.699   2.248   0.450 -0.2476  0.0445 -0.1519
  713THF     C211198   4.691   2.146   0.349  0.4194  0.1171  0.1458
  713THF     C311199   4.828   2.305   0.437  0.1659  0.8156 -0.5519
  713THF     H411200   4.667   2.194   0.254  0.1137 -3.0426 -1.5035
  713THF     H511201   4.618   2.065   0.359 -0.0137  0.6208  1.3896
  713THF     H611202   4.805   2.387   0.369 -0.9294  1.3232  0.3972
  713THF     H711203   4.863   2.350   0.530  1.9114 -1.2157 -0.1319
  713THF     C811204   4.919   2.190   0.395  0.6618  0.0436 -0.0704
  713THF     C911205   4.823   2.080   0.340  0.1941 -0.1459  0.0425
  713THF    H1011206   4.964   2.153   0.487  2.7845 -1.1071 -1.4891
  713THF    H1111207   4.999   2.226   0.332  2.1191 -0.6369  1.3262
  713THF    H1211208   4.847   2.047   0.239  2.2660 -2.6730  1.2382
  713THF    H1311209   4.829   1.987   0.397  2.1482 -0.0812 -0.0182
  714THF     O111210   3.397   1.559   0.822  0.7192 -0.6862 -0.2277
  714THF     C211211   3.365   1.441   0.902  0.4799 -0.6332  0.3389
  714THF     C311212   3.438   1.658   0.913 -0.2412 -0.3109 -0.3910
  714THF     H411213   3.368   1.360   0.829  0.9121 -2.7627  2.6044
  714THF     H511214   3.260   1.446   0.930  0.1698  1.4529 -0.9294
  714THF     H611215   3.474   1.747   0.862  0.4700 -0.9728 -1.0601
  714THF     H711216   3.354   1.682   0.979 -0.6380  0.1530 -1.0539
  714THF     C811217   3.537   1.582   1.016  0.4629  0.0686  0.3412
  714THF     C911218   3.472   1.440   1.012 -0.1336  0.0450  0.1222
  714THF    H1011219   3.546   1.636   1.110 -2.4713 -0.7928  1.2121
  714THF    H1111220   3.640   1.570   0.983  1.3195  0.5454  2.6128
  714THF    H1211221   3.530   1.354   0.978 -2.1209 -0.7297 -1.5652
  714THF    H1311222   3.435   1.427   1.114  1.3350 -1.4792  0.5050
  715THF     O111223   2.963   1.970   3.843  0.3731 -0.3015  0.2350
  715THF     C211224   2.919   2.080   3.919 -0.0389 -0.2940  0.4308
  715THF     C311225   2.888   1.849   3.882  0.3627 -0.1914 -0.2813
  715THF     H411226   2.936   2.179   3.878  0.0913 -0.4077  0.2139
  715THF     H511227   2.958   2.084   4.021  1.0032  0.4869  0.0193
  715THF     H611228   2.888   1.782   3.796 -3.5083  1.3907 -1.6892
  715THF     H711229   2.945   1.810   3.966  2.7949  1.0273 -1.2637
  715THF     C811230   2.742   1.914   3.913  0.3998  0.2848  0.1311
  715THF     C911231   2.771   2.060   3.931  0.2423  0.0108  0.1476
  715THF    H1011232   2.705   1.866   4.004 -1.6106 -0.5686 -1.0600
  715THF    H1111233   2.662   1.893   3.841 -0.4005  2.3926  0.3313
  715THF    H1211234   2.726   2.107   3.843 -2.2613  0.0039  1.3437
  715THF    H1311235   2.720   2.095   4.020  0.6914 -0.6022  0.6591
  716THF     O111236   4.282   4.201   1.201 -0.1886  0.2528 -0.0832
  716THF     C211237   4.343   4.122   1.304 -0.2159  0.4081  0.8174
  716THF     C311238   4.377   4.301   1.172 -0.0732  0.1603  0.0236
  716THF     H411239   4.411   4.054   1.252  0.6494 -0.0982  2.5344
  716THF     H511240   4.268   4.071   1.364 -2.1265  2.5418  0.4018
  716THF     H611241   4.467   4.275   1.115  0.1883  0.3509  0.3476
  716THF     H711242   4.328   4.387   1.127 -1.0511 -0.1909  0.4043
  716THF     C811243   4.430   4.347   1.299 -0.1206  0.5301 -0.0009
  716THF     C911244   4.432   4.221   1.386  0.9309 -0.9225 -0.0290
  716THF    H1011245   4.356   4.416   1.341  0.6149  2.0745 -1.1410
  716THF    H1111246   4.522   4.405   1.296 -0.5881  1.2615 -1.9311
  716THF    H1211247   4.533   4.181   1.394  1.3399  0.2709  0.9122
  716THF    H1311248   4.392   4.217   1.488 -0.8116 -0.5830 -0.6548
  717THF     O111249   1.072   5.242   1.153 -0.4403 -0.2824 -0.3229
  717THF     C211250   1.196   5.180   1.188  0.5227 -0.7344  0.3410
  717THF     C311251   1.085   5.379   1.187 -0.3710 -0.1436 -0.2123
  717THF     H411252   1.249   5.119   1.115 -2.3486  0.0590 -2.6770
  717THF     H511253   1.182   5.119   1.278  0.6503  1.5295  1.9653
  717THF     H611254   1.007   5.446   1.149 -1.3439  0.4052  2.5254
  717THF     H711255   1.061   5.393   1.292 -2.4550 -1.6316 -0.4342
  717THF     C811256   1.230   5.406   1.169 -0.4886 -0.7724  0.3543
  717THF     C911257   1.293   5.290   1.228  0.4835 -0.1993 -0.1302
  717THF    H1011258   1.266   5.498   1.214 -0.9687 -0.5692  0.3295
  717THF    H1111259   1.245   5.407   1.061  0.1531  1.8730  0.4124
  717THF    H1211260   1.395   5.268   1.196  1.4448  0.5973  2.1982
  717THF    H1311261   1.279   5.294   1.336 -2.7380  0.0878 -0.4600
  718THF     O111262   0.156   4.407   4.521 -0.1385  0.2646 -0.2372
  718THF     C211263   0.071   4.498   4.582 -0.2004  0.2216  0.4246
  718THF     C311264   0.120   4.369   4.388  0.5008  0.2642  0.0749
  718THF     H411265   0.131   4.563   4.645 -0.9669  1.2818  0.0908
  718THF     H511266  -0.012   4.453   4.637  0.2089 -0.5203  0.4540
  718THF     H611267   0.198   4.318   4.331  0.8646 -1.1600  1.7714
  718THF     H711268   0.039   4.297   4.396 -0.4089  1.2506 -0.1342
  718THF     C811269   0.074   4.505   4.339  0.1535 -0.4995  0.7021
  718THF     C911270   0.019   4.572   4.461  0.4361 -0.6773 -0.5392
  718THF    H1011271  -0.001   4.513   4.260  1.4601  0.4459 -0.4833
  718THF    H1111272   0.159   4.562   4.302 -0.0993 -1.8442 -2.2198
  718THF    H1211273   0.040   4.678   4.475  1.0334 -1.0408  1.5145
  718THF    H1311274  -0.090   4.565   4.461  0.1843  1.6497 -2.6667
  719THF     O111275   2.541   3.532   3.150  0.2550  0.0452 -0.0297
  719THF     C211276   2.444   3.627   3.124  1.3978 -0.5067 -0.2464
  719THF     C311277   2.658   3.597   3.186 -0.9821 -0.1635  0.6750
  719THF     H411278   2.345   3.584   3.140  1.8235 -0.8913  1.6251
  719THF     H511279   2.441   3.671   3.025  1.4657 -0.9223 -0.4373
  719THF     H611280   2.732   3.526   3.224 -3.3165 -1.3242  3.3666
  719THF     H711281   2.706   3.635   3.096 -0.9429 -0.8353  0.4079
  719THF     C811282   2.610   3.711   3.279 -0.1495  0.2577  0.2376
  719THF     C911283   2.470   3.736   3.226  0.2773 -0.5226 -0.2475
  719THF    H1011284   2.674   3.799   3.286 -1.2896  1.1377 -0.1705
  719THF    H1111285   2.596   3.676   3.381  0.6970 -0.5165  0.1021
  719THF    H1211286   2.404   3.739   3.312  0.0105  0.1067 -0.4683
  719THF    H1311287   2.469   3.835   3.179 -0.6131 -0.4883 -0.1650
  720THF     O111288   5.426   2.123   2.995 -0.1509 -0.2018  0.1729
  720THF     C211289   5.337   2.032   3.052 -0.5556 -0.0044  0.7448
  720THF     C311290   5.401   2.134   2.859 -0.2933 -0.1010 -0.7104
  720THF     H411291   5.326   2.055   3.158  0.2398  0.9405  0.6373
  720THF     H511292   5.359   1.928   3.029  0.8413  0.3966  0.1193
  720THF     H611293   5.439   2.233   2.835  0.5538 -0.1936  0.1953
  720THF     H711294   5.441   2.052   2.800 -1.2330 -0.7271 -0.5082
  720THF     C811295   5.249   2.146   2.856  0.4232  0.2422 -1.0801
  720THF     C911296   5.205   2.066   2.983  0.2269 -0.0135  0.8829
  720THF    H1011297   5.197   2.102   2.771 -1.4619  1.0666 -0.3973
  720THF    H1111298   5.210   2.247   2.868 -1.3559 -0.5432  0.1457
  720THF    H1211299   5.142   2.138   3.035 -1.1630 -0.6151  0.0877
  720THF    H1311300   5.152   1.976   2.953 -0.1868  0.6895 -0.5823
  721THF     O111301   5.113   3.362   5.232 -0.3001  0.3172  0.0026
  721THF     C211302   5.154   3.494   5.271 -0.4780  0.0930  0.2123
  721THF     C311303   5.193   3.273   5.310 -0.2164  0.4562 -0.3759
  721THF     H411304   5.089   3.577   5.243  1.2771  0.8789 -1.8040
  721THF     H511305   5.260   3.509   5.251 -0.5715 -0.5785 -0.8729
  721THF     H611306   5.133   3.187   5.341 -1.6089  1.3585 -0.4797
  721THF     H711307   5.270   3.226   5.249 -0.5926 -3.5840  1.9327
  721THF     C811308   5.237   3.342   5.436 -0.0276 -0.0866 -0.4863
  721THF     C911309   5.167   3.472   5.427  0.2894 -0.3400  0.4724
  721THF    H1011310   5.344   3.357   5.429 -0.4196  3.7181 -0.4255
  721THF    H1111311   5.228   3.288   5.531 -0.2093  0.4405 -0.1966
  721THF    H1211312   5.063   3.465   5.461  1.1334 -0.6969  3.2850
  721THF    H1311313   5.217   3.551   5.483 -1.1734  0.3142  0.9216
  722THF     O111314   4.263   3.594   1.682  0.2003  0.1265 -0.2501
  722THF     C211315   4.289   3.554   1.814 -0.5371 -0.7127  0.3063
  722THF     C311316   4.125   3.556   1.658 -0.2791  1.1099 -0.3571
  722THF     H411317   4.372   3.614   1.852 -1.4170 -1.0387  2.9420
  722THF     H511318   4.319   3.449   1.815 -0.1723 -0.6090  0.5077
  722THF     H611319   4.072   3.628   1.595 -0.1180  1.6994  0.1578
  722THF     H711320   4.123   3.458   1.611  0.7159  0.3998  0.9983
  722THF     C811321   4.051   3.544   1.794 -0.0705 -0.6284  0.0116
  722THF     C911322   4.159   3.582   1.892  0.0831  0.6082  0.3972
  722THF    H1011323   4.010   3.446   1.818 -0.6959  0.0247  1.7872
  722THF    H1111324   3.965   3.609   1.788  0.6380  0.3649  0.4357
  722THF    H1211325   4.153   3.690   1.903 -2.3111  0.6839 -1.0152
  722THF    H1311326   4.163   3.521   1.982 -1.3257  0.1783  0.1915
  723THF     O111327   0.130   2.753   2.036  0.4345 -0.1677 -0.5888
  723THF     C211328   0.036   2.761   1.932  0.8119  0.4016 -0.1802
  723THF     C311329   0.160   2.878   2.088  0.8059 -0.4719 -0.1064
  723THF     H411330  -0.058   2.769   1.988  2.6164  1.6627  2.9384
  723THF     H511331   0.039   2.676   1.864  2.6409  0.2432  0.0375
  723THF     H611332   0.110   2.891   2.184 -0.7844 -1.5558 -0.7343
  723THF     H711333   0.265   2.903   2.104  0.0392  2.6883  0.7596
  723THF     C811334   0.107   2.987   1.988 -0.4058  0.8840  0.2262
  723THF     C911335   0.066   2.898   1.868  0.2772 -0.2144 -0.7229
  723THF    H1011336   0.186   3.055   1.957 -0.2142 -0.1219 -1.6008
  723THF    H1111337   0.021   3.036   2.034  0.2095  0.9064  1.3957
  723THF    H1211338  -0.021   2.941   1.818 -1.3119 -1.7745  0.5535
  723THF    H1311339   0.154   2.896   1.803 -0.6911  1.1208 -2.1574
  724THF     O111340   5.424   4.540   0.643 -0.1217  0.2230  0.0060
  724THF     C211341   5.424   4.560   0.500 -0.2195 -0.2068 -0.0097
  724THF     C311342   5.428   4.398   0.661  0.4742 -0.6930  0.0968
  724THF     H411343   5.523   4.543   0.457 -0.2695  0.6351 -0.4667
  724THF     H511344   5.408   4.662   0.466  2.5493  0.2989 -0.0850
  724THF     H611345   5.532   4.369   0.644  0.2246 -1.8563  0.4437
  724THF     H711346   5.389   4.389   0.762 -1.1628 -0.6220 -0.5041
  724THF     C811347   5.345   4.345   0.553  0.3364  0.4653 -0.1626
  724THF     C911348   5.321   4.455   0.457 -0.2929 -0.0467  0.5466
  724THF    H1011349   5.246   4.325   0.596  1.0291 -1.2551  0.7415
  724THF    H1111350   5.387   4.264   0.495  2.0697  1.4544 -0.3434
  724THF    H1211351   5.335   4.426   0.353 -3.1931 -1.2979  0.4389
  724THF    H1311352   5.223   4.501   0.466 -0.7702 -0.3316 -2.3907
  725THF     O111353   0.590   3.797   0.260  0.0327 -0.5216 -0.3225
  725THF     C211354   0.490   3.859   0.338  0.2853  0.9426 -0.0481
  725THF     C311355   0.695   3.891   0.257  0.0183 -0.3417 -0.1796
  725THF     H411356   0.415   3.781   0.354  0.1422  0.6318 -2.0016
  725THF     H511357   0.424   3.937   0.301 -3.0036 -1.8838 -0.6196
  725THF     H611358   0.791   3.840   0.248 -0.1175 -0.2444 -3.1799
  725THF     H711359   0.693   3.959   0.172  0.5388  0.3976  0.3841
  725THF     C811360   0.693   3.963   0.390  1.0466  0.1928  0.3614
  725THF     C911361   0.566   3.902   0.456 -0.6625  0.0923 -0.5022
  725THF    H1011362   0.682   4.069   0.367 -0.2845  0.0185  0.1222
  725THF    H1111363   0.782   3.953   0.453  0.6549  0.5269  0.9756
  725THF    H1211364   0.611   3.824   0.518 -0.4654  0.9284  0.4435
  725THF    H1311365   0.519   3.976   0.520 -2.3252 -0.5385 -0.9528
  726THF     O111366   3.719   0.855   3.605  0.7303  0.4852  0.1271
  726THF     C211367   3.859   0.869   3.635  0.8074 -0.5150  0.5943
  726THF     C311368   3.705   0.715   3.575 -0.3895  0.1807  0.3325
  726THF     H411369   3.874   0.842   3.740 -1.2548  1.3776  1.4758
  726THF     H511370   3.889   0.974   3.633  0.5547 -0.1913  4.7806
  726THF     H611371   3.690   0.673   3.674 -1.8110  2.5836  1.2090
  726THF     H711372   3.615   0.698   3.516 -1.0767 -0.9832  1.6692
  726THF     C811373   3.841   0.685   3.504 -0.0878  0.5805 -0.0951
  726THF     C911374   3.947   0.786   3.547  0.5756  1.2073 -0.1992
  726THF    H1011375   3.830   0.712   3.399 -1.1969  0.5240  0.0005
  726THF    H1111376   3.873   0.582   3.521 -1.2481  0.4473  1.4023
  726THF    H1211377   4.025   0.743   3.609  0.3616  0.6309 -0.3263
  726THF    H1311378   3.989   0.837   3.460  0.3421 -1.2373 -1.8647
  727THF     O111379   1.550   0.962   2.490 -0.1186 -0.0245 -0.2979
  727THF     C211380   1.576   1.103   2.497 -0.5342 -0.4309 -0.8395
  727THF     C311381   1.410   0.940   2.475  0.2823 -0.1987 -0.4381
  727THF     H411382   1.618   1.134   2.401 -3.1774  1.4003 -1.5058
  727THF     H511383   1.648   1.119   2.577 -0.4839 -0.9950 -0.7690
  727THF     H611384   1.394   0.871   2.392 -0.2864 -0.7562  0.1261
  727THF     H711385   1.393   0.895   2.573 -1.3664  0.7632 -0.2626
  727THF     C811386   1.356   1.078   2.459 -0.5371  0.5050  0.6154
  727THF     C911387   1.447   1.180   2.518  1.0877  0.1840  0.3009
  727THF    H1011388   1.255   1.090   2.497 -1.0871 -0.0941 -0.5806
  727THF    H1111389   1.346   1.104   2.353  0.8005  0.7526  0.5264
  727THF    H1211390   1.461   1.275   2.466  0.5054  0.7917  1.2287
  727THF    H1311391   1.425   1.214   2.619  1.6200 -0.5714  0.6821
  728THF     O111392   3.416   3.685   2.935 -0.1514 -0.1798  0.1238
  728THF     C211393   3.331   3.578   2.901  0.0572 -0.5095  0.4596
  728THF     C311394   3.533   3.635   2.997  0.1065  0.0509 -0.5247
  728THF     H411395   3.355   3.536   2.803 -0.6157 -0.0384  0.0786
  728THF     H511396   3.232   3.618   2.879 -0.1658 -2.0075 -1.4704
  728THF     H611397   3.628   3.662   2.951  1.2312 -1.4749  0.7692
  728THF     H711398   3.528   3.682   3.095  0.6385 -1.0803  0.0694
  728THF     C811399   3.504   3.485   3.025  0.0824  0.0074  0.6511
  728THF     C911400   3.352   3.475   3.010 -0.2317 -0.1410  0.4849
  728THF    H1011401   3.536   3.459   3.126 -0.1255  1.3875  1.1058
  728THF    H1111402   3.568   3.425   2.961  1.4934  1.7594  0.3382
  728THF    H1211403   3.316   3.376   2.980  0.3028  0.3519 -1.9736
  728THF    H1311404   3.300   3.502   3.102 -0.8320  0.4007 -0.0085
  729THF     O111405   3.723   0.562   4.861 -0.2083  0.5931 -0.2483
  729THF     C211406   3.693   0.447   4.941  0.6291 -0.3342 -0.0303
  729THF     C311407   3.857   0.538   4.818  0.8762  0.2968 -0.1266
  729THF     H411408   3.650   0.377   4.870  1.6178 -1.4665  0.4559
  729THF     H511409   3.621   0.478   5.017  1.0023  1.0224 -0.1873
  729THF     H611410   3.867   0.472   4.732 -0.7907  2.3659 -2.0402
  729THF     H711411   3.901   0.627   4.773 -0.2371 -0.3820 -2.6810
  729THF     C811412   3.930   0.487   4.942  0.7504 -0.0302  0.5830
  729THF     C911413   3.818   0.413   5.014 -0.7147  0.0646 -0.9439
  729THF    H1011414   3.956   0.579   4.995  0.1670 -0.0384  0.8930
  729THF    H1111415   4.018   0.430   4.913  1.6634  1.2878  0.6608
  729THF    H1211416   3.832   0.305   5.007 -0.6497 -0.1451  1.5123
  729THF    H1311417   3.809   0.441   5.119  1.4058  2.2863 -1.2581
  730THF     O111418   2.607   5.116   2.585  0.3255 -0.0746  0.1734
  730THF     C211419   2.632   5.251   2.622 -0.4288 -0.8114 -0.2671
  730THF     C311420   2.548   5.123   2.451  0.3633  0.1853 -0.0402
  730THF     H411421   2.707   5.284   2.550 -0.4091 -0.4192 -0.0703
  730THF     H511422   2.682   5.261   2.718  1.3411 -3.3665 -0.8020
  730THF     H611423   2.631   5.151   2.387  1.1335  1.0272  1.2902
  730THF     H711424   2.486   5.036   2.430 -2.0786  1.7803  0.0344
  730THF     C811425   2.451   5.242   2.471  0.5232 -0.1016 -0.1540
  730THF     C911426   2.512   5.328   2.580 -0.7608 -0.6593 -0.0461
  730THF    H1011427   2.366   5.183   2.505  1.2951 -1.5341 -0.6195
  730THF    H1111428   2.427   5.294   2.378  1.1919 -0.4719 -0.5433
  730THF    H1211429   2.550   5.419   2.533 -1.2667 -0.1732  0.4660
  730THF    H1311430   2.443   5.357   2.660 -1.9116 -1.8265 -0.5762
  731THF     O111431   5.113   2.514   0.670 -0.4828  0.1136 -0.4151
  731THF     C211432   5.175   2.514   0.798 -0.3035 -0.6175 -0.4286
  731THF     C311433   5.156   2.637   0.612  0.2977  0.0401  0.9169
  731THF     H411434   5.270   2.466   0.777 -0.2728  0.1884 -2.3684
  731THF     H511435   5.118   2.466   0.878 -0.4484  1.5181  0.8220
  731THF     H611436   5.254   2.616   0.568  0.6004 -2.2371  2.4818
  731THF     H711437   5.079   2.656   0.537 -1.5089 -1.5326  2.2893
  731THF     C811438   5.164   2.748   0.722  0.2815  0.1561  0.5608
  731THF     C911439   5.191   2.665   0.843 -0.0311 -0.2401  0.1642
  731THF    H1011440   5.081   2.818   0.734  0.6788  0.6389  0.5741
  731THF    H1111441   5.252   2.806   0.692 -1.7532  2.4206 -1.5483
  731THF    H1211442   5.289   2.691   0.884  0.2839  0.3354 -0.9323
  731THF    H1311443   5.114   2.687   0.917  0.4835  1.1768  0.3125
  732THF     O111444   5.144   2.045   3.348  0.5858  0.0814  0.3289
  732THF     C211445   5.036   2.127   3.376  0.4013 -0.1357  0.1545
  732THF     C311446   5.129   1.926   3.413  0.1444  0.7953 -0.1866
  732THF     H411447   4.986   2.169   3.288  3.1264  0.2658 -1.3062
  732THF     H511448   5.086   2.205   3.433 -2.0780 -0.0961  2.4677
  732THF     H611449   5.096   1.848   3.344 -0.8250  1.0683 -0.0530
  732THF     H711450   5.226   1.893   3.450  0.4493  1.6625 -0.1891
  732THF     C811451   5.033   1.941   3.522 -0.3289 -0.3859 -0.3379
  732THF     C911452   4.941   2.044   3.461 -0.0611 -0.0562 -0.1208
  732THF    H1011453   5.082   1.977   3.612 -0.1144  0.7935 -0.9094
  732THF    H1111454   4.981   1.852   3.556 -1.8782  0.8107  0.5381
  732THF    H1211455   4.858   1.999   3.406 -1.0473  0.1736  1.1466
  732THF    H1311456   4.895   2.108   3.537 -0.7759 -0.5003 -0.1698
  733THF     O111457   3.146   3.216   3.443 -0.1492  0.6358  0.4237
  733THF     C211458   3.179   3.178   3.577  0.7125  0.0462 -0.2792
  733THF     C311459   3.260   3.282   3.395 -0.0270 -0.2225  0.6400
  733THF     H411460   3.242   3.089   3.570 -1.2063 -1.4819  0.8247
  733THF     H511461   3.094   3.147   3.636 -0.6564  0.5398 -1.8985
  733THF     H611462   3.336   3.211   3.361  0.3288 -0.0514  1.0686
  733THF     H711463   3.234   3.344   3.309 -2.1339 -1.3138  0.4125
  733THF     C811464   3.317   3.370   3.504  0.5810  0.8927 -0.8158
  733THF     C911465   3.273   3.292   3.636 -0.0105  0.3944  0.3573
  733THF    H1011466   3.272   3.469   3.507 -1.5349  0.0718 -2.5914
  733THF    H1111467   3.425   3.375   3.504  0.8070 -2.1054 -0.4763
  733THF    H1211468   3.363   3.249   3.679  0.2621 -1.8040 -2.1421
  733THF    H1311469   3.222   3.360   3.705  0.4992  1.6282 -0.4428
  734THF     O111470   4.645   3.723   0.391 -0.7392  0.0101  0.6335
  734THF     C211471   4.617   3.858   0.361  0.0851 -0.2028  0.1611
  734THF     C311472   4.748   3.720   0.489 -0.2998 -0.5915  0.1932
  734THF     H411473   4.518   3.880   0.323 -0.1021 -0.3580  0.5524
  734THF     H511474   4.691   3.896   0.291  2.6964  0.8227  3.2104
  734THF     H611475   4.773   3.620   0.526  1.8822 -1.2382 -2.6777
  734THF     H711476   4.843   3.747   0.443 -1.6660  0.3000 -2.3116
  734THF     C811477   4.705   3.830   0.584  0.3480 -0.1789 -1.1557
  734THF     C911478   4.637   3.927   0.497  0.3020 -0.0970  0.3302
  734THF    H1011479   4.784   3.876   0.643 -0.1331  0.2094 -0.8077
  734THF    H1111480   4.639   3.794   0.662  2.8913  1.2017  1.8439
  734THF    H1211481   4.548   3.979   0.533  1.8237  1.1125  2.6649
  734THF    H1311482   4.707   4.011   0.493 -0.0968  0.3652  2.1161
  735THF     O111483   1.223   1.993   0.297  0.2719 -0.0907  0.3481
  735THF     C211484   1.289   2.114   0.345  0.0532  0.1811 -0.4474
  735THF     C311485   1.269   1.986   0.157 -0.2227  0.0984  0.8239
  735THF     H411486   1.388   2.101   0.388  0.1458 -2.9564 -1.3745
  735THF     H511487   1.228   2.155   0.426 -0.4991 -0.5427 -0.4881
  735THF     H611488   1.363   1.933   0.161 -0.4528 -0.3971 -0.0937
  735THF     H711489   1.199   1.937   0.089 -0.9733  2.7109 -0.4112
  735THF     C811490   1.296   2.133   0.110  0.3342 -0.0281  0.1764
  735THF     C911491   1.276   2.214   0.235  0.0636 -0.6524 -0.5750
  735THF    H1011492   1.226   2.172   0.036  0.9334  1.7347  0.4677
  735THF    H1111493   1.397   2.149   0.072  0.0685 -0.3819 -0.7078
  735THF    H1211494   1.347   2.297   0.244 -0.9372  0.0604  1.4653
  735THF    H1311495   1.177   2.259   0.231  1.0989  2.1998  1.8534
  736THF     O111496   3.644   1.531   2.585 -0.4369  0.4648 -0.1957
  736THF     C211497   3.512   1.476   2.581 -0.4327 -0.0533  0.0989
  736THF     C311498   3.731   1.420   2.549 -0.2858 -0.1164 -0.5115
  736THF     H411499   3.475   1.461   2.480 -0.8835 -0.4370  0.3186
  736THF     H511500   3.455   1.538   2.650 -0.7180  0.7331 -0.8122
  736THF     H611501   3.734   1.406   2.441  2.4019 -0.2930 -0.4637
  736THF     H711502   3.832   1.441   2.583  0.2208  0.7573 -2.3931
  736THF     C811503   3.668   1.299   2.614 -0.2855 -0.1560 -0.6260
  736THF     C911504   3.526   1.338   2.637 -0.3219  0.0575 -0.0679
  736THF    H1011505   3.712   1.269   2.709 -3.1025 -0.8166  0.5578
  736THF    H1111506   3.679   1.215   2.546 -3.2831  2.2720 -4.6005
  736THF    H1211507   3.455   1.265   2.599  2.4247 -3.3541  0.8444
  736THF    H1311508   3.513   1.357   2.743 -1.2944  0.7416 -0.2865
  737THF     O111509   4.656   1.806   1.395 -0.4625  0.3727  0.1833
  737THF     C211510   4.601   1.864   1.517 -0.1070  0.0830  0.4987
  737THF     C311511   4.715   1.685   1.442 -0.2432 -0.3937 -0.2625
  737THF     H411512   4.500   1.836   1.546  0.4820 -1.5154  1.1215
  737THF     H511513   4.602   1.970   1.495 -0.2894  0.2198  1.1309
  737THF     H611514   4.647   1.609   1.479 -0.6623  0.7829  1.5006
  737THF     H711515   4.778   1.628   1.373  2.7490  0.5354  1.4945
  737THF     C811516   4.794   1.734   1.567  0.3676 -0.5622 -0.1657
  737THF     C911517   4.703   1.842   1.620 -0.2525 -0.3895  0.3413
  737THF    H1011518   4.880   1.795   1.541 -0.7439  2.1061  1.9729
  737THF    H1111519   4.822   1.650   1.630  1.4462  0.5816  0.9359
  737THF    H1211520   4.660   1.831   1.720  0.2818 -1.6013  0.4492
  737THF    H1311521   4.777   1.920   1.638  0.3027 -0.8193 -0.0637
  738THF     O111522   4.960   2.352   1.704  0.5028 -0.3713 -0.3867
  738THF     C211523   4.959   2.453   1.816  0.2145 -0.2478 -0.1998
  738THF     C311524   5.096   2.316   1.687 -0.0315 -0.0585  0.5515
  738THF     H411525   4.864   2.450   1.869  0.7663 -1.3519  0.7670
  738THF     H511526   4.994   2.547   1.773 -1.0826 -0.8440 -2.8218
  738THF     H611527   5.100   2.218   1.640  4.7693  0.5810 -0.8135
  738THF     H711528   5.139   2.383   1.614  1.8775 -2.8194 -1.0358
  738THF     C811529   5.159   2.328   1.830 -0.0759  0.1498  0.0396
  738THF     C911530   5.063   2.412   1.915 -0.0938  0.0512  0.1821
  738THF    H1011531   5.264   2.357   1.822 -0.1116  0.0404 -0.8802
  738THF    H1111532   5.154   2.227   1.872 -2.7182  0.1746 -0.0840
  738THF    H1211533   5.017   2.344   1.986 -1.4689  0.3317 -0.3981
  738THF    H1311534   5.105   2.498   1.967  0.6257  1.5515 -2.6294
  739THF     O111535   0.517   0.080   1.816  0.1982 -0.2928  0.1430
  739THF     C211536   0.432   0.113   1.921 -0.1647 -0.1079 -0.8023
  739THF     C311537   0.636   0.157   1.841 -0.1394 -0.5308 -0.4553
  739THF     H411538   0.435   0.037   1.999  1.3959 -0.6048 -1.3280
  739THF     H511539   0.324   0.115   1.902 -0.6595 -0.1840  1.5990
  739THF     H611540   0.705   0.104   1.907  2.8052  1.6982 -1.5108
  739THF     H711541   0.700   0.167   1.753  0.3407 -2.8314 -0.4193
  739THF     C811542   0.599   0.290   1.903 -0.5538  0.2536 -0.0346
  739THF     C911543   0.480   0.243   1.990  0.6271  0.7711  0.8522
  739THF    H1011544   0.572   0.372   1.838 -0.7330 -0.7278 -1.2361
  739THF    H1111545   0.693   0.323   1.948  1.7112 -1.0901 -3.3495
  739THF    H1211546   0.511   0.239   2.095  0.7664  2.1311  0.8795
  739THF    H1311547   0.398   0.315   1.994  1.4119  1.7631 -0.1766
  740THF     O111548   0.536   2.252   2.106 -0.1252 -0.1704  0.0405
  740THF     C211549   0.464   2.257   2.225 -0.9679  0.3478 -0.1336
  740THF     C311550   0.464   2.323   2.004 -0.0351 -0.0277 -0.3907
  740THF     H411551   0.457   2.356   2.272 -1.3981 -1.0200  2.9683
  740THF     H511552   0.493   2.186   2.303 -0.1236  1.7821  0.9285
  740THF     H611553   0.498   2.426   2.011 -0.8373  0.3854 -2.0128
  740THF     H711554   0.495   2.300   1.902 -0.0380 -1.6357 -0.0501
  740THF     C811555   0.320   2.296   2.041  0.1763 -0.4156  0.0401
  740THF     C911556   0.327   2.217   2.172 -0.5306 -0.4085 -0.8586
  740THF    H1011557   0.267   2.246   1.960 -0.2475  0.0165  0.0434
  740THF    H1111558   0.269   2.391   2.057 -0.0371 -0.2577 -1.4599
  740THF    H1211559   0.253   2.250   2.244  0.6059  1.5595 -0.5120
  740THF    H1311560   0.316   2.112   2.146 -0.5522 -0.7109  0.3496
  741THF     O111561   1.326   0.809   0.725 -0.4378 -0.6038 -0.0016
  741THF     C211562   1.361   0.935   0.791 -0.2697 -0.2333  0.0130
  741THF     C311563   1.284   0.722   0.835  0.0647 -0.7332 -0.3883
  741THF     H411564   1.367   1.018   0.721 -2.8627  1.0882  1.2256
  741THF     H511565   1.462   0.920   0.829 -0.4104 -1.4711 -0.0517
  741THF     H611566   1.213   0.655   0.787  0.9212  0.0540 -2.9338
  741THF     H711567   1.366   0.671   0.886  0.0856  1.1570  1.6227
  741THF     C811568   1.212   0.809   0.936  0.4574  0.3549  0.9592
  741THF     C911569   1.251   0.953   0.895  0.4764 -0.0179 -0.5372
  741THF    H1011570   1.253   0.779   1.032  0.9767 -2.9040 -0.1862
  741THF    H1111571   1.103   0.802   0.936  0.4193 -2.1040 -2.7444
  741THF    H1211572   1.175   1.010   0.843  0.3304  0.7053  0.4460
  741THF    H1311573   1.291   1.003   0.984 -1.5231  1.0551 -0.1999
  742THF     O111574   3.852   3.744   2.979  0.2585 -0.3402 -0.1361
  742THF     C211575   3.927   3.863   2.985 -0.5627 -0.5619  0.2813
  742THF     C311576   3.897   3.664   2.875 -0.3186  0.0106 -0.3997
  742THF     H411577   3.917   3.915   3.080 -0.5465  1.1310 -0.5901
  742THF     H511578   3.874   3.915   2.905  2.3055 -0.2489 -1.6021
  742THF     H611579   3.852   3.565   2.878 -2.3859  0.8463 -1.4944
  742THF     H711580   3.879   3.713   2.780  3.2276  1.5681 -0.4228
  742THF     C811581   4.047   3.665   2.918  0.4559 -0.1097  0.0498
  742THF     C911582   4.063   3.811   2.943 -0.5245  0.6404  0.0061
  742THF    H1011583   4.111   3.643   2.833 -0.7343  0.3315 -0.9949
  742THF    H1111584   4.062   3.602   3.006 -0.1313  0.2145  0.3919
  742THF    H1211585   4.141   3.841   3.013 -1.5934 -1.1757  2.0854
  742THF    H1311586   4.094   3.860   2.850 -0.6520  1.3111  0.3090
  743THF     O111587   5.087   3.325   2.058  0.4614 -0.1427  0.0289
  743THF     C211588   5.171   3.266   1.962 -0.2652 -0.0406  0.4528
  743THF     C311589   5.072   3.243   2.168  0.6697 -0.1248 -0.3096
  743THF     H411590   5.247   3.331   1.918 -2.9965  1.6489 -2.1504
  743THF     H511591   5.112   3.249   1.871  1.0279  2.2170 -0.9273
  743THF     H611592   5.065   3.299   2.262  1.3230  1.8411 -1.3618
  743THF     H711593   4.978   3.189   2.162 -0.3725  1.3188  1.6357
  743THF     C811594   5.198   3.163   2.174 -0.4059 -0.0407 -0.0190
  743THF     C911595   5.229   3.132   2.027 -0.0209 -0.6414  0.1000
  743THF    H1011596   5.210   3.070   2.231  0.7725 -0.1776 -0.4515
  743THF    H1111597   5.289   3.217   2.200  0.3615 -0.7939 -1.0911
  743THF    H1211598   5.329   3.101   1.998  0.2481 -0.2166  0.5486
  743THF    H1311599   5.165   3.051   1.995 -0.3946 -0.4129  0.2637
  744THF     O111600   1.551   3.513   2.083 -0.7382 -0.0105  0.2412
  744THF     C211601   1.571   3.590   1.960 -0.1637 -0.2773  0.5172
  744THF     C311602   1.407   3.496   2.098  0.4148  0.3999 -0.3000
  744THF     H411603   1.558   3.521   1.877  0.6140 -1.5647  1.4231
  744THF     H511604   1.673   3.627   1.956 -0.1241 -0.1608  1.9798
  744THF     H611605   1.372   3.424   2.025 -2.0312  0.5806  0.6154
  744THF     H711606   1.383   3.464   2.199  0.1199 -0.3391 -0.5959
  744THF     C811607   1.362   3.635   2.065 -0.0213 -0.4560  0.5437
  744THF     C911608   1.458   3.694   1.966 -0.4127 -0.1699  0.7613
  744THF    H1011609   1.369   3.706   2.147  0.2817  1.2546 -0.9105
  744THF    H1111610   1.263   3.631   2.019  1.3915 -1.4756 -2.6708
  744THF    H1211611   1.427   3.706   1.862 -1.7312 -2.3863  0.8258
  744THF    H1311612   1.490   3.793   2.000  0.0944 -0.6760  1.8076
  745THF     O111613   1.806   1.708   1.686 -0.2699 -0.1851 -0.2078
  745THF     C211614   1.824   1.749   1.820  0.6422  0.4796 -0.1326
  745THF     C311615   1.752   1.809   1.606 -0.8896 -0.1394  0.6090
  745THF     H411616   1.921   1.799   1.820  1.0367 -0.2833 -0.3113
  745THF     H511617   1.830   1.674   1.899  0.1620 -0.6341 -1.1363
  745THF     H611618   1.832   1.879   1.583 -1.3198  0.2274  0.2194
  745THF     H711619   1.709   1.761   1.518 -2.0671  1.0631  0.4914
  745THF     C811620   1.661   1.882   1.696  0.0265  0.3419 -0.0188
  745THF     C911621   1.716   1.851   1.832  0.1943  0.1553 -0.5027
  745THF    H1011622   1.561   1.839   1.699  1.2031 -2.6351  0.0234
  745THF    H1111623   1.667   1.991   1.693  1.1006  0.2920  0.1643
  745THF    H1211624   1.765   1.938   1.877 -0.9661  1.1374 -1.0827
  745THF    H1311625   1.633   1.833   1.901 -2.1969 -0.4480 -3.3590
  746THF     O111626   4.236   0.216   4.538 -0.2429  1.0028 -0.4160
  746THF     C211627   4.226   0.079   4.501 -0.0242  0.0650  0.1281
  746THF     C311628   4.188   0.296   4.426 -0.0490  0.0447  0.1834
  746THF     H411629   4.131   0.028   4.516  0.1098 -1.0365 -2.3263
  746THF     H511630   4.304   0.025   4.555 -0.5176 -1.2886 -0.4703
  746THF     H611631   4.080   0.311   4.426  0.2790  3.0830  0.7484
  746THF     H711632   4.225   0.398   4.413 -1.9684  0.7518 -0.0503
  746THF     C811633   4.219   0.212   4.298  0.1301  0.7072  0.3294
  746THF     C911634   4.257   0.073   4.350  0.4071  0.0843 -0.3054
  746THF    H1011635   4.311   0.255   4.259  0.7904  1.3589  2.4695
  746THF    H1111636   4.138   0.216   4.226 -0.7602 -1.9787  1.0805
  746THF    H1211637   4.212  -0.008   4.293 -1.0276 -0.6668  1.7774
  746THF    H1311638   4.364   0.061   4.334  0.0354 -1.1470 -2.2409
  747THF     O111639   4.403   2.624   1.235  0.4402 -0.1521  0.4307
  747THF     C211640   4.287   2.538   1.261 -0.5090 -0.4751  0.2510
  747THF     C311641   4.530   2.555   1.256 -0.3237 -0.3982 -0.1767
  747THF     H411642   4.209   2.558   1.187  0.4545  0.5555 -0.5181
  747THF     H511643   4.243   2.564   1.357  1.0155 -0.1643  0.8829
  747THF     H611644   4.573   2.528   1.160  1.5203 -0.4339  0.6167
  747THF     H711645   4.601   2.613   1.315  0.3796  0.1687 -1.5390
  747THF     C811646   4.485   2.427   1.324 -0.6960 -0.3804 -0.3667
  747THF     C911647   4.343   2.403   1.276 -0.1364 -0.3082 -0.1180
  747THF    H1011648   4.498   2.435   1.432 -0.0448 -2.0698 -0.3033
  747THF    H1111649   4.551   2.352   1.283  1.4120  2.1382 -1.9153
  747THF    H1211650   4.357   2.354   1.179  0.1677 -1.8396  0.6730
  747THF    H1311651   4.277   2.332   1.325 -0.1750 -1.1648 -1.3563
  748THF     O111652   1.028   1.301   1.412 -0.2208  0.4036  0.0965
  748THF     C211653   0.900   1.349   1.359 -0.4928  0.1747 -0.9568
  748THF     C311654   1.004   1.286   1.551  0.7672  0.6040 -0.7443
  748THF     H411655   0.828   1.268   1.365  1.4586 -1.6839 -1.6189
  748THF     H511656   0.910   1.392   1.259  3.3820  2.8834  0.3416
  748THF     H611657   0.986   1.182   1.577  0.0699  0.1173 -2.9385
  748THF     H711658   1.090   1.313   1.613 -1.0049 -1.2058  2.8236
  748THF     C811659   0.884   1.366   1.595 -0.0700 -0.1044  0.0211
  748THF     C911660   0.854   1.452   1.466 -0.2829  0.7219 -0.6434
  748THF    H1011661   0.911   1.425   1.682 -0.1507 -1.4340  0.9767
  748THF    H1111662   0.794   1.309   1.618 -1.4329  1.6358 -0.7023
  748THF    H1211663   0.751   1.489   1.467  0.2223  2.1941  1.1359
  748THF    H1311664   0.913   1.542   1.450 -0.6306  0.8135 -1.4382
  749THF     O111665   2.810   3.840   2.925 -0.1863  0.0497  0.6323
  749THF     C211666   2.859   3.900   2.811  0.1895 -0.1539  0.5482
  749THF     C311667   2.906   3.851   3.026  0.0573 -0.9882  0.0527
  749THF     H411668   2.776   3.912   2.742 -1.4170  0.2873  2.4975
  749THF     H511669   2.931   3.830   2.767 -0.4212 -0.3682 -0.1287
  749THF     H611670   2.860   3.836   3.123 -1.2092 -0.5969 -0.4685
  749THF     H711671   2.990   3.786   3.002  0.1671 -0.1208 -2.1569
  749THF     C811672   2.965   3.993   3.001 -0.1564 -0.1178 -0.2457
  749THF     C911673   2.929   4.022   2.860 -0.0907  0.4021 -0.3116
  749THF    H1011674   3.073   4.006   3.004 -0.1633  0.7160 -2.0211
  749THF    H1111675   2.917   4.052   3.079 -0.1086  0.1084 -0.3889
  749THF    H1211676   2.849   4.096   2.854 -0.7154  0.0082  1.9119
  749THF    H1311677   3.014   4.048   2.797  0.2684  1.3304  0.5384
  750THF     O111678   1.724   3.853   2.235 -0.8566  0.1865 -0.0729
  750THF     C211679   1.675   3.934   2.339 -0.0042 -0.1893 -0.2631
  750THF     C311680   1.708   3.721   2.269  0.4512 -0.6625  0.5237
  750THF     H411681   1.567   3.930   2.343 -0.0772  0.4767 -1.1637
  750THF     H511682   1.710   4.037   2.329 -0.3040  0.0667  1.1490
  750THF     H611683   1.605   3.697   2.243  0.6440 -1.2474  0.2909
  750THF     H711684   1.765   3.656   2.203  0.2655  0.7809 -1.1265
  750THF     C811685   1.749   3.708   2.423  0.5572  0.5242  0.8662
  750THF     C911686   1.737   3.856   2.462  0.5030 -0.2321  0.1034
  750THF    H1011687   1.854   3.680   2.432  0.0052 -1.7497  0.9598
  750THF    H1111688   1.686   3.640   2.481 -0.7670 -1.1514 -2.2874
  750THF    H1211689   1.693   3.879   2.559 -1.7648 -4.5708  0.3576
  750THF    H1311690   1.842   3.885   2.463  0.3989  0.5993 -3.0551
  751THF     O111691   3.074   3.762   1.686 -0.0033 -0.2110  0.2709
  751THF     C211692   3.202   3.751   1.623  0.0438  0.3206  0.6316
  751THF     C311693   2.970   3.709   1.602 -0.3810  0.2000 -0.2205
  751THF     H411694   3.281   3.717   1.689  0.3952 -1.2324 -0.5515
  751THF     H511695   3.228   3.849   1.584 -0.3046  1.0701  2.1747
  751THF     H611696   2.942   3.625   1.665  0.6650  0.8615  1.1834
  751THF     H711697   2.883   3.772   1.586 -1.1766 -0.7930  0.1170
  751THF     C811698   3.037   3.672   1.473 -0.5785  0.2468  0.0928
  751THF     C911699   3.183   3.655   1.506 -0.5034  0.4213  0.1893
  751THF    H1011700   3.016   3.760   1.412  0.0466  0.9711  0.9062
  751THF    H1111701   2.989   3.589   1.422  0.1685  0.8333 -1.6549
  751THF    H1211702   3.213   3.552   1.526  1.9588  0.9068 -0.6065
  751THF    H1311703   3.238   3.690   1.419 -1.2082  0.6594 -0.1691
  752THF     O111704   0.515   1.921   4.736  0.0834 -0.5711  0.7225
  752THF     C211705   0.494   1.993   4.620  0.4377 -0.2603  0.4467
  752THF     C311706   0.413   1.818   4.741  0.0830  0.0953  0.8325
  752THF     H411707   0.557   1.948   4.543  0.2611  0.6453 -0.2451
  752THF     H511708   0.528   2.096   4.625  2.9336 -0.9634 -0.5866
  752THF     H611709   0.442   1.736   4.675 -2.1567 -0.5281  0.5425
  752THF     H711710   0.400   1.775   4.840 -2.5822 -1.8529 -0.2298
  752THF     C811711   0.279   1.884   4.695 -0.0239  0.5189 -0.1165
  752THF     C911712   0.340   1.977   4.585  0.6254  0.2549 -0.2667
  752THF    H1011713   0.224   1.943   4.768 -2.4185 -0.1489 -1.2777
  752THF    H1111714   0.208   1.809   4.659  0.3915 -0.6277  1.3604
  752THF    H1211715   0.323   1.928   4.490 -1.9324 -0.0863  0.2835
  752THF    H1311716   0.286   2.072   4.581 -1.9109 -1.0790 -0.1250
  753THF     O111717   5.203   4.386   4.542 -0.2915 -0.0875  0.3438
  753THF     C211718   5.228   4.255   4.507  0.8993 -0.6371  0.8024
  753THF     C311719   5.100   4.433   4.449  0.3033  0.9136 -0.5096
  753THF     H411720   5.278   4.207   4.592  2.0096 -0.9580 -0.0149
  753THF     H511721   5.293   4.248   4.420 -1.3092  0.5361 -1.0442
  753THF     H611722   5.053   4.528   4.478  0.7243  0.5318  1.6075
  753THF     H711723   5.146   4.450   4.352 -0.8067 -1.0776 -1.4610
  753THF     C811724   4.997   4.320   4.436  0.1648 -0.0625 -0.4167
  753THF     C911725   5.087   4.199   4.464 -0.2953  0.6629  0.1157
  753THF    H1011726   4.964   4.317   4.332  0.5837  1.7312 -0.6206
  753THF    H1111727   4.920   4.315   4.514 -0.0069 -1.3760 -0.6460
  753THF    H1211728   5.051   4.136   4.545 -1.1690  1.3935  0.3021
  753THF    H1311729   5.084   4.140   4.372 -1.6276  1.3653 -0.3060
  754THF     O111730   3.759   1.279   4.090 -0.0934 -0.6719  0.0727
  754THF     C211731   3.858   1.192   4.152  0.8596  0.1648 -0.5745
  754THF     C311732   3.742   1.251   3.950 -0.2864 -0.1247  0.3084
  754THF     H411733   3.827   1.116   4.223  1.4883  1.1727  0.8343
  754THF     H511734   3.936   1.255   4.195  1.3556 -1.1662  0.5467
  754THF     H611735   3.655   1.193   3.921 -0.6639  1.6172 -2.4478
  754THF     H711736   3.716   1.340   3.892 -0.0051 -0.6286 -0.6140
  754THF     C811737   3.879   1.192   3.917  0.1111  0.1723  0.3756
  754THF     C911738   3.901   1.103   4.036  0.2842 -0.3061 -0.2342
  754THF    H1011739   3.950   1.275   3.918  0.2020  0.0942  1.0607
  754THF    H1111740   3.900   1.144   3.822  1.3366 -0.2065  0.8132
  754THF    H1211741   3.836   1.017   4.023 -1.3915  0.9285 -0.4247
  754THF    H1311742   4.003   1.065   4.039 -0.5912 -2.8291  1.6389
  755THF     O111743   3.409   4.035   4.600  0.3736  0.3258 -0.0997
  755THF     C211744   3.309   3.994   4.691  0.2888  0.1100 -0.5120
  755THF     C311745   3.359   4.148   4.534 -0.2295 -0.4649  0.6516
  755THF     H411746   3.358   3.917   4.751  2.1410  0.7565 -1.1498
  755THF     H511747   3.224   3.954   4.636 -0.6494 -1.4026  1.8781
  755THF     H611748   3.449   4.206   4.511 -1.0124  0.9961  1.1610
  755THF     H711749   3.305   4.116   4.445  0.3082 -0.1778  0.2210
  755THF     C811750   3.272   4.222   4.635 -0.9263 -0.5549  0.2717
  755THF     C911751   3.266   4.129   4.751  0.7584  0.2032 -0.3490
  755THF    H1011752   3.170   4.232   4.597 -1.5254  2.5187  2.3313
  755THF    H1111753   3.305   4.322   4.662  1.7266 -0.5702 -2.4242
  755THF    H1211754   3.339   4.153   4.828 -0.4245  0.4886  0.7148
  755THF    H1311755   3.168   4.129   4.798  0.7586  0.8538 -0.3299
  756THF     O111756   1.216   1.926   2.639 -0.2937 -0.5456  0.1717
  756THF     C211757   1.252   2.024   2.545 -0.1161 -0.5588 -0.0843
  756THF     C311758   1.204   1.812   2.558 -0.3640  0.0889  0.6521
  756THF     H411759   1.278   2.121   2.587 -0.5620 -0.0727 -0.9038
  756THF     H511760   1.178   2.047   2.469  1.0662 -2.1573 -1.8351
  756THF     H611761   1.189   1.723   2.620 -2.4295 -1.0995 -1.4047
  756THF     H711762   1.109   1.807   2.504  1.5138 -0.1054 -2.8437
  756THF     C811763   1.325   1.811   2.459 -0.2744 -0.2606 -0.1972
  756THF     C911764   1.365   1.955   2.466  0.2768 -0.6008  0.4287
  756THF    H1011765   1.305   1.774   2.358 -0.9333 -0.0320 -0.1517
  756THF    H1111766   1.408   1.748   2.490 -0.3052 -0.5715 -0.7432
  756THF    H1211767   1.456   1.954   2.525 -0.4545  0.1318  1.6166
  756THF    H1311768   1.377   2.001   2.367 -0.6842  0.4006  0.7453
  757THF     O111769   4.633   0.921   0.982 -0.4286  0.1822  0.5248
  757THF     C211770   4.575   0.810   1.045 -0.1928  0.6745  0.2243
  757THF     C311771   4.537   1.027   0.972  0.1615  0.5391  0.1881
  757THF     H411772   4.591   0.811   1.153  1.3195 -0.5380  0.0368
  757THF     H511773   4.610   0.714   1.007  0.8694  0.7476  0.9959
  757THF     H611774   4.566   1.118   1.023  1.5551  1.0209 -1.3820
  757THF     H711775   4.538   1.054   0.867  3.2784 -0.4057 -0.1332
  757THF     C811776   4.406   0.974   1.033  0.0401  0.4618  0.1962
  757THF     C911777   4.423   0.825   1.024  0.6032  0.0938 -0.7615
  757THF    H1011778   4.317   1.009   0.980 -0.6622  1.2331  1.8136
  757THF    H1111779   4.387   1.002   1.136  0.9601 -0.1545  0.5475
  757THF    H1211780   4.363   0.782   1.104 -0.2398 -0.0457 -1.4623
  757THF    H1311781   4.389   0.780   0.931  1.7987 -2.0233 -0.2371
  758THF     O111782   5.219   1.559   2.963  0.1358 -0.0407 -0.0048
  758THF     C211783   5.332   1.541   2.874  0.0547  0.6620  0.0743
  758THF     C311784   5.124   1.651   2.913  0.3605  0.1558  0.3891
  758THF     H411785   5.316   1.449   2.818 -1.2217  0.6363  0.4601
  758THF     H511786   5.419   1.521   2.936  0.8903 -2.3837 -1.8356
  758THF     H611787   5.028   1.603   2.896 -0.1535  1.3467 -0.2053
  758THF     H711788   5.113   1.724   2.992 -3.4958 -0.2749  0.4136
  758THF     C811789   5.185   1.705   2.785  0.6234  0.1568 -0.0908
  758THF     C911790   5.337   1.671   2.800  0.3242  0.1196 -0.0015
  758THF    H1011791   5.182   1.813   2.771 -0.1362 -0.0964 -2.3171
  758THF    H1111792   5.129   1.659   2.703 -0.6718  2.0125 -0.3333
  758THF    H1211793   5.391   1.652   2.707  1.3702 -0.6099  0.7398
  758THF    H1311794   5.399   1.731   2.866 -0.3623 -1.4533  2.1674
  759THF     O111795   2.907   1.688   4.289  0.0528  0.6692  0.7614
  759THF     C211796   2.810   1.614   4.225  0.2191  0.0254 -0.5474
  759THF     C311797   2.860   1.724   4.419 -0.2355  0.3044 -0.1699
  759THF     H411798   2.811   1.517   4.275  0.1130  0.0130 -0.5679
  759THF     H511799   2.850   1.604   4.125  1.3761 -0.6618 -0.0287
  759THF     H611800   2.881   1.641   4.486 -0.7154 -1.0050 -1.5648
  759THF     H711801   2.902   1.817   4.458  1.4616  0.0113 -1.1692
  759THF     C811802   2.705   1.734   4.399  0.5020  0.7304 -0.1274
  759THF     C911803   2.683   1.683   4.257  0.0938 -0.4793  0.4494
  759THF    H1011804   2.659   1.831   4.415 -2.1446 -0.3808 -0.2648
  759THF    H1111805   2.663   1.670   4.477 -1.3310 -0.3183 -1.8445
  759THF    H1211806   2.599   1.614   4.251 -1.3323  1.3217 -3.6767
  759THF    H1311807   2.658   1.769   4.195 -0.3870  0.4433  1.8747
  760THF     O111808   2.936   1.446   3.561 -0.4374 -0.1409 -0.1819
  760THF     C211809   2.869   1.391   3.448  0.5744 -0.1154 -0.3409
  760THF     C311810   3.025   1.552   3.517 -0.3510 -0.2849 -0.6578
  760THF     H411811   2.763   1.375   3.464  1.1067 -4.1077  0.1692
  760THF     H511812   2.901   1.287   3.436 -1.6941 -0.8683 -0.2156
  760THF     H611813   2.973   1.648   3.516  1.2263  0.7109  2.5622
  760THF     H711814   3.116   1.566   3.575 -0.3404 -1.0491 -0.4838
  760THF     C811815   3.059   1.505   3.378  0.6815 -0.5993  0.5254
  760THF     C911816   2.921   1.465   3.324  0.2869 -0.0499  0.5063
  760THF    H1011817   3.115   1.411   3.386  3.1901  0.8739  1.2738
  760THF    H1111818   3.114   1.574   3.314 -1.6341 -0.1994 -1.1428
  760THF    H1211819   2.858   1.551   3.301 -1.5923 -1.6855 -0.7090
  760THF    H1311820   2.927   1.398   3.238  0.5226  0.8050 -0.1562
  761THF     O111821   2.129   2.892   4.683  0.0078  0.3394 -0.0791
  761THF     C211822   2.089   2.860   4.817  0.1809 -0.4119  0.0106
  761THF     C311823   2.272   2.925   4.694  0.3092 -0.4963  0.0164
  761THF     H411824   2.108   2.755   4.840 -0.5157 -0.4014  0.6698
  761THF     H511825   1.983   2.884   4.806  0.4946  0.7254 -0.7174
  761THF     H611826   2.318   2.827   4.702 -0.8009 -1.0469 -0.2273
  761THF     H711827   2.296   2.978   4.602 -3.2051  1.2192 -0.0869
  761THF     C811828   2.276   3.016   4.820  0.2097  1.2570 -0.2013
  761THF     C911829   2.171   2.951   4.910  0.2706  0.5544  0.0354
  761THF    H1011830   2.250   3.115   4.784  0.7641  0.6467 -2.4347
  761THF    H1111831   2.375   3.013   4.865  0.5104  0.6878 -0.8644
  761THF    H1211832   2.221   2.882   4.977 -1.1521  1.3562  2.0188
  761THF    H1311833   2.120   3.024   4.973 -2.0311  1.0665 -2.2440
  762THF     O111834   3.586   3.604   5.463 -0.2729 -0.1408 -0.4272
  762THF     C211835   3.507   3.689   5.375  0.3665 -0.0666 -0.2754
  762THF     C311836   3.599   3.692   5.577 -0.3585  0.6614 -0.1601
  762THF     H411837   3.453   3.631   5.300  0.4306  1.1686 -1.3062
  762THF     H511838   3.574   3.764   5.333 -0.8249  0.8077 -0.6667
  762THF     H611839   3.629   3.640   5.668 -3.6602  0.9564  1.2218
  762THF     H711840   3.666   3.775   5.556 -1.2785  1.0418 -1.8446
  762THF     C811841   3.461   3.745   5.597  0.5251 -0.4225 -0.0910
  762THF     C911842   3.399   3.751   5.462  0.3027  0.0470 -0.4158
  762THF    H1011843   3.462   3.837   5.655  1.1867 -0.8132  0.5204
  762THF    H1111844   3.412   3.669   5.658  0.6643  0.0991  0.6777
  762THF    H1211845   3.305   3.696   5.463  0.6420 -0.6447 -2.4356
  762THF    H1311846   3.386   3.856   5.437  0.0762  0.1657  0.1716
  763THF     O111847   3.492   0.277   4.468  0.0004 -0.3959 -0.1860
  763THF     C211848   3.521   0.338   4.341  0.1565 -0.4253  0.6017
  763THF     C311849   3.578   0.318   4.567 -0.0494 -1.1265 -0.0222
  763THF     H411850   3.466   0.432   4.343 -0.7723 -0.9152 -0.8899
  763THF     H511851   3.477   0.289   4.254 -0.5247  0.4537  0.4366
  763THF     H611852   3.525   0.404   4.608 -1.5295 -2.6677  1.4321
  763THF     H711853   3.589   0.251   4.652  1.8461  0.1518  0.7790
  763THF     C811854   3.712   0.356   4.500 -0.6236 -0.3245 -0.6703
  763THF     C911855   3.678   0.346   4.352  0.1174 -0.7203  0.4892
  763THF    H1011856   3.796   0.292   4.528  1.1348  2.3966  0.6750
  763THF    H1111857   3.746   0.458   4.517  2.6145 -1.4460  0.3186
  763THF    H1211858   3.713   0.437   4.304 -0.3893 -1.0667 -0.5638
  763THF    H1311859   3.731   0.261   4.310  1.1279  0.1794 -0.1092
  764THF     O111860   3.436   2.961   3.753  0.0660  0.2519  0.0678
  764THF     C211861   3.511   2.922   3.637  0.0352  0.6747  0.0370
  764THF     C311862   3.396   2.842   3.822  0.5243 -0.1321  0.2025
  764THF     H411863   3.568   3.009   3.606 -0.0377  0.8064  0.2634
  764THF     H511864   3.455   2.888   3.550  0.9274 -1.9748  0.3923
  764THF     H611865   3.428   2.852   3.926 -0.1002 -2.9885  0.7660
  764THF     H711866   3.289   2.822   3.817  0.7629 -1.9784  1.3687
  764THF     C811867   3.480   2.726   3.752  0.0462  0.6113  0.2365
  764THF     C911868   3.591   2.804   3.687  0.0046  0.0316  0.0817
  764THF    H1011869   3.421   2.689   3.669  0.1342  1.8975 -0.4172
  764THF    H1111870   3.519   2.642   3.811  0.0214  0.8337  0.5712
  764THF    H1211871   3.664   2.840   3.760  0.1269 -1.5779  0.7954
  764THF    H1311872   3.647   2.756   3.607 -0.8835  3.1734 -2.6316
  765THF     O111873   5.074   1.575   3.395 -0.3715 -0.4361 -0.5323
  765THF     C211874   5.074   1.510   3.523 -0.0587 -0.2414  0.0334
  765THF     C311875   5.145   1.497   3.298  0.0491  0.6244  1.2546
  765THF     H411876   5.011   1.559   3.596 -0.2067  0.8131 -0.7872
  765THF     H511877   5.173   1.504   3.568 -0.3495  0.5794  0.8172
  765THF     H611878   5.114   1.524   3.197  2.5512 -0.8645 -0.0293
  765THF     H711879   5.253   1.502   3.312  0.1717  1.3666  0.1912
  765THF     C811880   5.087   1.360   3.341 -0.2156  0.1470 -0.0805
  765THF     C911881   5.023   1.371   3.476  0.1230  0.7108  0.1887
  765THF    H1011882   5.166   1.287   3.323  1.2249  1.6097  0.0639
  765THF    H1111883   5.010   1.328   3.270 -0.3841  1.3377 -0.4522
  765THF    H1211884   4.916   1.355   3.462  0.4901  0.8590 -3.9911
  765THF    H1311885   5.064   1.298   3.546  1.1289 -0.1775 -1.2707
  766THF     O111886   5.465   2.208   3.671  0.4289  0.9016 -0.0428
  766THF     C211887   5.443   2.230   3.817 -0.2000 -0.0253  0.7717
  766THF     C311888   5.463   2.067   3.649 -0.1577  0.6289  0.2922
  766THF     H411889   5.401   2.328   3.838  2.9081  1.8180 -0.8244
  766THF     H511890   5.537   2.227   3.872  0.2641  2.4242  0.2370
  766THF     H611891   5.421   2.049   3.550  0.1095 -1.0220  0.4505
  766THF     H711892   5.567   2.039   3.632  0.9776  2.9539  2.8019
  766THF     C811893   5.381   1.993   3.755 -0.2255 -0.0291  0.7368
  766THF     C911894   5.354   2.108   3.860  0.7293  0.3353 -0.2799
  766THF    H1011895   5.445   1.912   3.792  0.1488 -1.1094 -1.9884
  766THF    H1111896   5.290   1.952   3.712 -1.2724  3.0113 -0.1846
  766THF    H1211897   5.246   2.124   3.850  0.3511 -1.9123 -0.4800
  766THF    H1311898   5.362   2.078   3.965 -1.6039 -1.3670 -0.4975
  767THF     O111899   2.472   0.859   5.300 -0.0154 -0.2857  0.4695
  767THF     C211900   2.419   0.775   5.401  0.5179  0.0046 -0.2592
  767THF     C311901   2.580   0.782   5.242  0.3539  0.2485  0.0983
  767THF     H411902   2.358   0.689   5.375  0.8821 -1.6972  3.8368
  767THF     H511903   2.360   0.826   5.477  3.6810  0.0085  2.4004
  767THF     H611904   2.531   0.701   5.187  0.4871 -0.0148  0.3666
  767THF     H711905   2.646   0.840   5.178  0.5912 -0.1544 -0.0249
  767THF     C811906   2.655   0.715   5.347  0.0776 -0.4904  0.6058
  767THF     C911907   2.557   0.735   5.465  0.8245  0.0990 -0.7028
  767THF    H1011908   2.747   0.771   5.364  0.0070  0.1570 -0.9916
  767THF    H1111909   2.686   0.614   5.318  2.6701  0.4016 -0.0587
  767THF    H1211910   2.542   0.648   5.530  0.3411  1.1300  0.6015
  767THF    H1311911   2.593   0.818   5.525 -0.7684 -0.5300  1.2525
  768THF     O111912   2.873   3.035   1.970  0.5065 -0.0009 -0.4762
  768THF     C211913   2.758   2.975   2.029 -0.2501 -0.7864  0.1339
  768THF     C311914   2.832   3.123   1.866  0.5603  0.1038 -0.1209
  768THF     H411915   2.698   3.044   2.089  0.1034  1.3186 -1.7777
  768THF     H511916   2.787   2.887   2.087  1.2910 -1.4929 -1.6083
  768THF     H611917   2.789   3.212   1.912 -0.4568 -1.3904  2.0086
  768THF     H711918   2.916   3.145   1.800 -1.2616 -0.3205 -2.7041
  768THF     C811919   2.721   3.045   1.799 -0.5132 -0.9363 -0.4348
  768THF     C911920   2.670   2.945   1.909 -0.0821  0.3617 -0.7013
  768THF    H1011921   2.762   2.979   1.722 -0.0426 -2.1097  0.7797
  768THF    H1111922   2.643   3.112   1.763 -1.4693 -0.8624  1.6189
  768THF    H1211923   2.563   2.946   1.932 -0.0537  1.4441 -0.5691
  768THF    H1311924   2.682   2.845   1.867 -2.1210  0.0698 -0.7011
  769THF     O111925   0.161   4.726   1.687  0.2685  0.1668 -0.3500
  769THF     C211926   0.200   4.598   1.740 -0.2592  0.7145 -0.2213
  769THF     C311927   0.060   4.696   1.596  0.2419 -0.3823 -0.0464
  769THF     H411928   0.261   4.615   1.829 -0.0346  2.3842 -0.6620
  769THF     H511929   0.250   4.541   1.662  0.3684  1.2255 -0.2028
  769THF     H611930  -0.001   4.783   1.572  1.5097  1.9027  4.0966
  769THF     H711931   0.098   4.665   1.498 -1.1494  0.3927 -0.8686
  769THF     C811932  -0.025   4.594   1.661 -0.4322  0.6236  0.1728
  769THF     C911933   0.063   4.539   1.777 -0.1101  0.5826 -0.7886
  769THF    H1011934  -0.051   4.517   1.588  1.5904 -0.3732  0.4340
  769THF    H1111935  -0.115   4.641   1.702 -1.2640 -1.1373  0.4631
  769THF    H1211936   0.049   4.585   1.874 -0.0557 -1.3613  0.1819
  769THF    H1311937   0.079   4.433   1.791  0.5437  1.0030  2.3091
  770THF     O111938   1.847   1.619   2.710  0.6278 -0.5121  0.1610
  770THF     C211939   1.900   1.681   2.596 -0.0610 -0.1681  0.2980
  770THF     C311940   1.723   1.684   2.732 -0.4443 -0.1917  0.1041
  770THF     H411941   1.850   1.657   2.502  1.8608 -1.7799 -0.3614
  770THF     H511942   2.005   1.654   2.591  0.6800  2.1679  1.5416
  770THF     H611943   1.645   1.646   2.667 -0.9656  1.0896 -0.0491
  770THF     H711944   1.685   1.681   2.834 -0.5098 -1.2792  0.0581
  770THF     C811945   1.759   1.831   2.706 -0.4167 -0.3476  0.0097
  770THF     C911946   1.894   1.825   2.632 -0.1449 -0.2662 -0.0120
  770THF    H1011947   1.766   1.885   2.800  3.5321  1.7212 -1.2427
  770THF    H1111948   1.686   1.885   2.645 -0.4055  0.4115  0.6453
  770THF    H1211949   1.897   1.891   2.545  0.8013  1.4465  1.2733
  770THF    H1311950   1.982   1.843   2.692  1.3973 -4.1260 -0.8159
  771THF     O111951   0.702   4.740   0.219 -0.0738  0.0574 -0.0182
  771THF     C211952   0.692   4.878   0.193 -0.2058 -0.0680  0.8471
  771THF     C311953   0.656   4.661   0.112  0.5501  0.4469  0.4218
  771THF     H411954   0.750   4.938   0.263  2.9247 -0.1950 -1.4286
  771THF     H511955   0.586   4.903   0.205  0.0019  1.2157  0.1981
  771THF     H611956   0.713   4.568   0.104 -2.5384 -1.5895  0.4348
  771THF     H711957   0.550   4.637   0.124  0.8106  0.0958  2.2406
  771THF     C811958   0.689   4.745  -0.012  0.0242  0.0245 -0.6030
  771THF     C911959   0.732   4.875   0.053  0.0746 -0.2556  0.3694
  771THF    H1011960   0.604   4.754  -0.079  0.1626  1.4248 -0.6175
  771THF    H1111961   0.767   4.694  -0.069 -0.4543 -1.4698  0.0463
  771THF    H1211962   0.840   4.889   0.046 -0.0064 -0.4443 -1.8362
  771THF    H1311963   0.704   4.966  -0.001 -1.1118 -0.5693  0.4425
  772THF     O111964   5.321   4.580   4.109 -0.0788 -0.5460 -0.4665
  772THF     C211965   5.217   4.502   4.057  0.4948 -0.4137 -0.1340
  772THF     C311966   5.350   4.683   4.021  0.0340  0.1397  0.2047
  772THF     H411967   5.120   4.551   4.056  0.0763 -1.1866  0.8192
  772THF     H511968   5.192   4.405   4.101 -0.5623  0.3598  1.0081
  772THF     H611969   5.294   4.771   4.055 -0.5263 -0.4921  0.9353
  772THF     H711970   5.457   4.707   4.016 -0.3853  2.9266  2.2863
  772THF     C811971   5.295   4.644   3.883  0.0016 -0.2446 -0.3914
  772THF     C911972   5.253   4.497   3.907  0.0940  0.1611  0.3506
  772THF    H1011973   5.362   4.667   3.800 -0.5115  1.5745 -0.3427
  772THF    H1111974   5.201   4.696   3.866 -0.5144 -1.2438 -0.7043
  772THF    H1211975   5.163   4.473   3.850 -0.4914  3.4316 -0.2925
  772THF    H1311976   5.340   4.440   3.877  1.4901  3.1096 -1.6527
  773THF     O111977   0.603   4.717   2.242  0.2067 -0.0205  0.4095
  773THF     C211978   0.727   4.750   2.198 -0.4923  0.1490 -0.4051
  773THF     C311979   0.612   4.719   2.382  0.2428 -0.3702 -0.0078
  773THF     H411980   0.722   4.780   2.093  0.9259  0.9553 -0.2702
  773THF     H511981   0.782   4.656   2.199 -1.3174 -0.3642  1.5381
  773THF     H611982   0.516   4.739   2.430 -0.2838 -0.3555 -1.0489
  773THF     H711983   0.650   4.622   2.416  3.3823  0.9576  0.5632
  773THF     C811984   0.717   4.832   2.414 -0.5560  0.0834 -0.1751
  773THF     C911985   0.795   4.851   2.285  0.2957  0.4237  0.0291
  773THF    H1011986   0.773   4.804   2.503 -0.5994  2.2715  0.5883
  773THF    H1111987   0.661   4.924   2.429 -1.5871 -0.1253 -2.3886
  773THF    H1211988   0.780   4.950   2.241 -2.4321 -0.8304 -2.1710
  773THF    H1311989   0.902   4.832   2.290  0.4858  1.6215  1.1632
  774THF     O111990   5.004   5.321   4.790  0.0529 -0.5404 -0.3751
  774THF     C211991   5.003   5.425   4.692 -0.4443  0.6298  0.0548
  774THF     C311992   5.136   5.323   4.849  0.1851 -0.7002 -0.3596
  774THF     H411993   4.904   5.446   4.651 -0.9748 -0.3706  0.7805
  774THF     H511994   5.070   5.407   4.608 -0.4617  1.8419 -0.2280
  774THF     H611995   5.134   5.267   4.942  0.0685 -3.1315 -1.7461
  774THF     H711996   5.208   5.272   4.785  1.5248 -1.8330  1.9307
  774THF     C811997   5.160   5.480   4.869  0.0924  0.2002  0.3641
  774THF     C911998   5.049   5.542   4.777 -0.3684  0.1561 -0.3779
  774THF    H1011999   5.255   5.508   4.823 -0.4051 -0.0788 -0.8692
  774THF    H1112000   5.137   5.515   4.970  3.6700  2.2081  0.6696
  774THF    H1212001   4.968   5.580   4.840  0.0042  1.2798 -0.5593
  774THF    H1312002   5.085   5.624   4.714  0.3265  0.2683  0.1504
  775THF     O112003   2.878   0.218   1.169  0.0578  0.0612 -0.3577
  775THF     C212004   2.916   0.313   1.275  0.2837 -0.0605 -0.0537
  775THF     C312005   2.854   0.088   1.220  0.1513  0.3120  0.6726
  775THF     H412006   2.834   0.360   1.329 -0.0359 -0.9574  0.2721
  775THF     H512007   2.979   0.387   1.226 -2.5478  1.0647 -2.3245
  775THF     H612008   2.755   0.046   1.201 -0.3631  0.7599  2.3009
  775THF     H712009   2.931   0.017   1.188  0.4504 -0.0939  2.2107
  775THF     C812010   2.877   0.098   1.365 -0.8263  0.6014 -0.4186
  775THF     C912011   2.974   0.212   1.371  0.2024 -0.0980 -0.6742
  775THF    H1012012   2.902   0.008   1.422 -2.5495 -0.0026 -0.5584
  775THF    H1112013   2.784   0.134   1.410 -1.8478 -0.3973 -1.6682
  775THF    H1212014   2.976   0.254   1.472 -1.9328  0.3676 -0.7873
  775THF    H1312015   3.072   0.169   1.347 -0.6128 -1.7724 -1.1031
  776THF     O112016   1.140   4.362   1.365 -0.0969  0.8001  0.2155
  776THF     C212017   1.159   4.271   1.472  0.1927 -0.2367 -0.1174
  776THF     C312018   1.269   4.381   1.306 -0.4883 -0.6282  1.2389
  776THF     H412019   1.168   4.171   1.429 -0.5343 -1.0761  1.5873
  776THF     H512020   1.076   4.266   1.541  0.5631 -1.0998  0.2808
  776THF     H612021   1.276   4.318   1.217 -1.7939  0.3921  0.3707
  776THF     H712022   1.273   4.484   1.271 -0.7951 -0.9967  0.0646
  776THF     C812023   1.378   4.350   1.411 -0.1511  0.4990  0.7434
  776THF     C912024   1.288   4.316   1.530 -0.2728  0.2109  0.4480
  776THF    H1012025   1.442   4.434   1.438 -0.2054  0.2843  1.5707
  776THF    H1112026   1.443   4.270   1.377 -1.0449  0.8256 -1.9540
  776THF    H1212027   1.326   4.233   1.589 -0.1862  0.6574  1.0314
  776THF    H1312028   1.266   4.398   1.598 -2.4498  0.6480 -0.6947
  777THF     O112029   1.346   2.677   5.416 -0.7758 -0.4390  0.1812
  777THF     C212030   1.365   2.564   5.499  0.7277 -0.5227 -0.6099
  777THF     C312031   1.240   2.644   5.325  0.4460 -0.2588  0.4922
  777THF     H412032   1.279   2.554   5.566  0.9282 -0.3071 -0.3186
  777THF     H512033   1.460   2.576   5.551  0.3021 -1.2604  0.3753
  777THF     H612034   1.140   2.644   5.368 -0.8925  0.6641 -2.3873
  777THF     H712035   1.233   2.720   5.247  0.7325 -0.6172  0.1081
  777THF     C812036   1.277   2.504   5.287  0.3948  0.2888  0.7039
  777THF     C912037   1.373   2.450   5.395  0.2352 -0.5168 -0.0327
  777THF    H1012038   1.323   2.503   5.188  1.4448 -0.4020  1.1854
  777THF    H1112039   1.185   2.446   5.289 -0.4427  1.5840  1.8934
  777THF    H1212040   1.339   2.359   5.445  0.1831 -0.8680 -0.7018
  777THF    H1312041   1.477   2.440   5.364  0.2753 -1.9987  0.4979
  778THF     O112042   3.447   3.440   0.602  0.9057 -0.0650  0.0565
  778THF     C212043   3.323   3.508   0.603 -0.0422  0.3421 -0.0819
  778THF     C312044   3.418   3.308   0.583 -0.2057  0.3381 -0.5103
  778THF     H412045   3.277   3.517   0.505  0.9915  0.1641 -0.5994
  778THF     H512046   3.321   3.608   0.647 -0.8945  1.1719 -1.8886
  778THF     H612047   3.417   3.278   0.478 -0.3099  1.2405 -0.7792
  778THF     H712048   3.501   3.253   0.628 -1.1001 -0.5664  0.0812
  778THF     C812049   3.281   3.267   0.641 -0.6037 -0.1315  0.0381
  778THF     C912050   3.226   3.411   0.677 -0.1828 -0.0228 -0.6694
  778THF    H1012051   3.286   3.199   0.726  0.0611  0.6331  0.6281
  778THF    H1112052   3.219   3.226   0.562 -2.7119  0.2945  1.3828
  778THF    H1212053   3.120   3.423   0.651 -0.6164 -1.4630  0.2772
  778THF    H1312054   3.242   3.404   0.785  0.3587 -0.5919 -0.7836
  779THF     O112055   1.253   3.831   1.243 -0.0963 -0.2292 -0.3533
  779THF     C212056   1.132   3.786   1.176  0.2600  0.1526  0.6643
  779THF     C312057   1.304   3.944   1.173 -0.1599  0.4726  0.1316
  779THF     H412058   1.055   3.762   1.250  1.3950 -1.3885  1.4132
  779THF     H512059   1.151   3.694   1.121  1.6445  0.1917  1.0645
  779THF     H612060   1.362   4.016   1.231 -2.0091  2.4581 -0.3743
  779THF     H712061   1.366   3.900   1.094 -0.3573 -0.3260  0.4111
  779THF     C812062   1.179   4.022   1.128 -0.4521  0.3677 -0.3652
  779THF     C912063   1.101   3.905   1.077  0.1812 -0.1735 -0.3883
  779THF    H1012064   1.207   4.088   1.047  1.3686  2.3309  1.7225
  779THF    H1112065   1.130   4.085   1.202  1.1688  0.2864  0.8156
  779THF    H1212066   0.994   3.919   1.062 -0.1003 -0.2313  1.3666
  779THF    H1312067   1.136   3.891   0.975  1.3717 -2.1519  0.2366
  780THF     O112068   1.396   3.431   0.758 -0.1016  0.1259 -0.2950
  780THF     C212069   1.346   3.310   0.820 -0.4582 -0.2240  0.0769
  780THF     C312070   1.290   3.527   0.741 -0.3512  0.3443 -0.1904
  780THF     H412071   1.345   3.326   0.928 -2.8362  0.6565 -0.0137
  780THF     H512072   1.396   3.215   0.803  1.4377  0.1133  3.0706
  780THF     H612073   1.254   3.558   0.839 -0.2724  0.4574 -0.1975
  780THF     H712074   1.321   3.614   0.684 -1.4610  1.3079  0.6499
  780THF     C812075   1.189   3.428   0.680  0.1740 -0.1821  0.0858
  780THF     C912076   1.198   3.308   0.774  0.1850 -0.5371  0.4395
  780THF    H1012077   1.220   3.405   0.578 -0.5428 -0.5716 -0.0482
  780THF    H1112078   1.088   3.467   0.674  0.3899  0.1656 -1.8108
  780THF    H1212079   1.150   3.338   0.868  0.6698 -0.2728  0.6084
  780THF    H1312080   1.157   3.217   0.731 -0.3936  0.0999 -0.3604
  781THF     O112081   2.335   3.553   4.925 -0.2156  0.0574  0.3667
  781THF     C212082   2.391   3.424   4.906 -0.1448  0.2265 -0.0905
  781THF     C312083   2.300   3.614   4.802  0.0716  0.3343  0.0850
  781THF     H412084   2.331   3.346   4.952  1.0151 -0.3429  0.4856
  781THF     H512085   2.492   3.403   4.939 -0.6370 -1.4969  0.4159
  781THF     H612086   2.192   3.602   4.792 -0.0029 -0.4869  1.6700
  781THF     H712087   2.318   3.722   4.800  1.4458  0.1292 -1.8869
  781THF     C812088   2.379   3.532   4.697  0.4602 -0.3081 -0.3401
  781THF     C912089   2.387   3.396   4.753  0.3465  0.5679  0.8586
  781THF    H1012090   2.479   3.575   4.690  1.4113 -2.3663  0.0630
  781THF    H1112091   2.334   3.542   4.598  0.8902 -1.6935 -0.6945
  781THF    H1212092   2.301   3.339   4.718  0.9188  1.2652 -1.9459
  781THF    H1312093   2.476   3.342   4.719  0.0619 -0.7427  2.0814
  782THF     O112094   5.068   4.502   4.957  0.0567  0.5021  0.3463
  782THF     C212095   5.104   4.382   4.894 -1.0990  0.8615 -0.5551
  782THF     C312096   5.172   4.599   4.936 -0.7579 -0.0080  0.3744
  782THF     H412097   5.107   4.381   4.785  2.0935 -4.0942 -0.7637
  782THF     H512098   5.055   4.293   4.933  0.3845 -0.4438 -1.5185
  782THF     H612099   5.166   4.627   4.831 -0.1538  2.4407  0.9159
  782THF     H712100   5.163   4.680   5.009  0.4399 -0.3433  0.9347
  782THF     C812101   5.294   4.518   4.969  0.3944 -0.5941 -0.5216
  782THF     C912102   5.249   4.376   4.934  0.0718 -0.5806  0.0276
  782THF    H1012103   5.299   4.518   5.078 -0.9327 -1.3933 -0.4426
  782THF    H1112104   5.388   4.544   4.920  0.0146  0.2986 -0.7858
  782THF    H1212105   5.324   4.341   4.863  0.3197 -1.1595  0.5767
  782THF    H1312106   5.265   4.315   5.022 -0.0310 -2.0608 -0.9396
  783THF     O112107   2.222   3.823   0.913  0.1157  0.3765 -0.1951
  783THF     C212108   2.101   3.776   0.848  0.0408  0.2165  0.2406
  783THF     C312109   2.226   3.961   0.890  0.3911 -0.2841  0.1900
  783THF     H412110   2.005   3.776   0.901 -1.0412 -2.1012 -1.5578
  783THF     H512111   2.108   3.675   0.807 -0.5820  1.1846 -2.3995
  783THF     H612112   2.170   4.020   0.962 -0.8270  0.3294 -1.2298
  783THF     H712113   2.328   3.999   0.897 -0.3091  1.5012  4.9632
  783THF     C812114   2.158   3.992   0.751 -0.1910  0.3868  0.2748
  783THF     C912115   2.091   3.859   0.721  0.7003 -0.1685  0.0712
  783THF    H1012116   2.237   4.015   0.678 -0.2843 -0.5323 -0.1294
  783THF    H1112117   2.084   4.071   0.747 -2.0767 -1.2743  0.9938
  783THF    H1212118   1.990   3.872   0.682  0.2572 -0.3194  1.1293
  783THF    H1312119   2.139   3.804   0.640 -0.4793  1.6315 -1.9495
  784THF     O112120   1.607   2.460   2.990  0.3208  0.4366 -0.3653
  784THF     C212121   1.677   2.548   3.071  0.7780  0.6190 -0.1788
  784THF     C312122   1.683   2.341   2.970  0.0530 -0.1609  0.2283
  784THF     H412123   1.682   2.516   3.175 -0.1450  0.8250 -0.0587
  784THF     H512124   1.632   2.648   3.078 -2.7248 -0.9260  2.6250
  784THF     H612125   1.667   2.268   3.050 -0.3443  0.9561  1.1944
  784THF     H712126   1.660   2.297   2.873 -0.2626 -0.0412  0.2477
  784THF     C812127   1.829   2.406   2.972 -0.2858  0.0728  0.8417
  784THF     C912128   1.819   2.547   3.024 -0.3035  0.3619  0.1363
  784THF    H1012129   1.867   2.405   2.870  1.1423 -0.0553  1.3572
  784THF    H1112130   1.893   2.346   3.037  1.2978  2.8450  2.0105
  784THF    H1212131   1.891   2.570   3.103 -0.2204  1.3128 -0.1979
  784THF    H1312132   1.829   2.622   2.946 -0.4491 -1.7171 -1.9973
  785THF     O112133   3.294   3.745   3.852  0.2952  0.0841  0.3243
  785THF     C212134   3.327   3.633   3.926 -0.0906 -0.2892  0.2579
  785THF     C312135   3.415   3.801   3.790 -0.6038 -0.3857 -0.1640
  785THF     H412136   3.248   3.558   3.934  1.3754 -2.3075 -2.5810
  785THF     H512137   3.357   3.671   4.024 -0.4457  0.8970 -0.0760
  785THF     H612138   3.395   3.813   3.684 -3.8308 -0.4389  0.3513
  785THF     H712139   3.450   3.897   3.828 -2.5794  0.4604 -0.3656
  785THF     C812140   3.526   3.694   3.816 -0.4205 -1.0543 -0.2210
  785THF     C912141   3.441   3.570   3.841 -1.1692  0.5359 -0.2242
  785THF    H1012142   3.587   3.731   3.898  2.0858 -0.0275 -2.3940
  785THF    H1112143   3.606   3.686   3.742  1.8628  2.0806  1.6899
  785THF    H1212144   3.405   3.528   3.747 -1.9270 -1.1770  0.7675
  785THF    H1312145   3.474   3.490   3.907 -0.4157 -0.4549 -1.7502
  786THF     O112146   3.201   2.312   2.165  0.2150  0.1025 -0.1143
  786THF     C212147   3.130   2.221   2.077  0.4641  0.2573 -0.2674
  786THF     C312148   3.250   2.240   2.277  0.5703 -0.0951 -0.5119
  786THF     H412149   3.202   2.182   2.006  1.2926 -1.4083  1.4055
  786THF     H512150   3.045   2.270   2.029  0.3703 -0.2706 -0.6406
  786THF     H612151   3.357   2.257   2.272  0.1977  2.7303 -0.3468
  786THF     H712152   3.203   2.294   2.359 -2.1710 -1.8225 -0.8233
  786THF     C812153   3.194   2.098   2.257  0.1006  0.4276 -0.2130
  786THF     C912154   3.082   2.097   2.160  0.2776 -1.2788  0.2728
  786THF    H1012155   3.178   2.043   2.349  0.7633  1.1919  0.3695
  786THF    H1112156   3.274   2.039   2.212  1.5784  0.6796  1.9233
  786THF    H1212157   3.078   2.004   2.104 -0.2096 -0.6998 -0.6834
  786THF    H1312158   2.993   2.115   2.219 -0.7959 -1.2193 -1.3112
  787THF     O112159   3.653   3.696   1.061 -0.7766  0.1911  0.6027
  787THF     C212160   3.746   3.628   0.978  0.0413  0.1775  0.2037
  787THF     C312161   3.537   3.617   1.051 -0.3820  0.1183  0.4877
  787THF     H412162   3.804   3.553   1.032  2.2133  0.5425 -1.4835
  787THF     H512163   3.821   3.702   0.952  1.5979 -2.0652 -2.3005
  787THF     H612164   3.547   3.521   1.101  1.4047 -0.5243 -0.9951
  787THF     H712165   3.455   3.680   1.086  0.5987  2.4044 -1.0329
  787THF     C812166   3.521   3.584   0.902 -0.2472 -0.0713 -0.2761
  787THF     C912167   3.665   3.565   0.857 -0.0170  0.2563 -0.6706
  787THF    H1012168   3.482   3.673   0.853 -1.3977 -0.4668 -0.1005
  787THF    H1112169   3.455   3.498   0.889 -1.3204  0.6700  0.1239
  787THF    H1212170   3.693   3.460   0.842 -2.5243 -0.4012 -1.1450
  787THF    H1312171   3.691   3.617   0.765 -0.2937 -2.2142 -2.2526
  788THF     O112172   0.893   3.244   4.274 -0.2978  0.7326 -0.1431
  788THF     C212173   0.787   3.235   4.372 -0.3684  0.1464  0.4058
  788THF     C312174   0.997   3.319   4.330 -0.6481  0.7319 -0.2498
  788THF     H412175   0.714   3.159   4.341  0.4441  0.3809 -2.3647
  788THF     H512176   0.728   3.326   4.363  0.1084  0.2908 -2.1624
  788THF     H612177   1.088   3.299   4.273 -0.8628  1.5901 -0.9002
  788THF     H712178   0.983   3.426   4.323  0.1250  0.8820  0.3486
  788THF     C812179   1.000   3.262   4.476 -0.3286  0.0665  0.7257
  788THF     C912180   0.857   3.214   4.498  0.6956 -0.1502  0.2018
  788THF    H1012181   1.031   3.334   4.551 -0.2957 -1.6248  2.4141
  788THF    H1112182   1.075   3.183   4.483 -0.4890 -0.0170  1.5193
  788THF    H1212183   0.854   3.106   4.513 -0.2641 -0.2122 -0.3542
  788THF    H1312184   0.808   3.256   4.586  0.5377  1.3706 -0.5884
  789THF     O112185   2.657   3.222   0.477  0.2121 -0.9132 -0.4515
  789THF     C212186   2.750   3.309   0.408  0.3250 -0.5003  0.8079
  789THF     C312187   2.628   3.281   0.602 -0.5794 -0.1142  0.0998
  789THF     H412188   2.686   3.379   0.353  0.3819 -0.9389  0.1758
  789THF     H512189   2.814   3.249   0.344 -0.7223 -0.5800 -0.1993
  789THF     H612190   2.562   3.362   0.571 -0.3770 -0.4150 -1.1679
  789THF     H712191   2.583   3.213   0.675  0.9167  0.7165  1.8881
  789THF     C812192   2.774   3.321   0.644 -0.7113  0.1135 -0.6217
  789THF     C912193   2.833   3.381   0.516  0.6128  0.6112 -0.9039
  789THF    H1012194   2.839   3.245   0.685  0.3163  1.5447  0.5043
  789THF    H1112195   2.784   3.392   0.726 -2.2306 -0.5334  0.1724
  789THF    H1212196   2.825   3.490   0.511  0.1627  0.6303 -0.0030
  789THF    H1312197   2.937   3.349   0.513  0.3811 -0.1875 -0.5576
  790THF     O112198   4.984   3.099   2.577  0.2129  0.4759  0.0882
  790THF     C212199   4.984   3.084   2.717  0.6496 -0.1965 -0.3919
  790THF     C312200   4.963   2.972   2.517 -0.4069 -0.2462  0.2627
  790THF     H412201   4.877   3.085   2.736  0.7452 -1.8470  0.4122
  790THF     H512202   5.042   3.156   2.774  3.5161 -2.1364 -0.6293
  790THF     H612203   4.855   2.975   2.498 -0.5188  1.1708  0.9680
  790THF     H712204   5.005   2.982   2.417 -1.0721 -0.7897 -0.0887
  790THF     C812205   5.008   2.863   2.616 -0.0913  0.0381 -0.2074
  790THF     C912206   5.019   2.936   2.751  0.2301 -0.2754  0.1422
  790THF    H1012207   5.099   2.811   2.583 -0.6978 -0.3359 -1.3233
  790THF    H1112208   4.933   2.784   2.624 -0.5460  0.6309  1.9421
  790THF    H1212209   4.942   2.900   2.819  0.2300  1.0580  0.8951
  790THF    H1312210   5.115   2.926   2.802  0.1254  1.4188  0.7415
  791THF     O112211   3.600   1.868   4.887 -0.2189 -0.2334  0.0566
  791THF     C212212   3.537   1.751   4.942 -0.0100 -0.1080 -0.2528
  791THF     C312213   3.736   1.862   4.910 -0.5323 -0.0605 -0.8097
  791THF     H412214   3.555   1.675   4.865 -0.1944  0.6819 -1.0979
  791THF     H512215   3.429   1.759   4.952 -0.7895 -0.5052 -5.3468
  791THF     H612216   3.801   1.841   4.825  1.0987  0.3335  0.2773
  791THF     H712217   3.764   1.965   4.932 -2.0221  0.1476  0.2673
  791THF     C812218   3.754   1.775   5.033 -0.5945  0.8255 -0.1888
  791THF     C912219   3.616   1.725   5.069  0.2611 -0.4095  0.5054
  791THF    H1012220   3.817   1.821   5.109  0.8583 -0.0398 -0.8153
  791THF    H1112221   3.817   1.696   4.993 -2.8306  0.1482 -2.6596
  791THF    H1212222   3.627   1.623   5.105  0.8330 -0.4013  0.3597
  791THF    H1312223   3.564   1.793   5.137 -1.4625  1.5472 -2.5479
  792THF     O112224   3.674   3.854   0.687  0.5325 -0.0975  0.5674
  792THF     C212225   3.764   3.916   0.604  0.7412 -0.0463 -0.0195
  792THF     C312226   3.585   3.773   0.602  1.1270  0.4698 -0.5859
  792THF     H412227   3.850   3.849   0.606 -0.2192 -1.3056  0.2816
  792THF     H512228   3.783   4.013   0.649 -0.7945  0.5770 -0.6582
  792THF     H612229   3.639   3.683   0.573 -2.7049 -1.9822 -0.8215
  792THF     H712230   3.493   3.760   0.659  1.6394 -0.0667  0.1388
  792THF     C812231   3.558   3.865   0.484 -0.0981  0.3856 -0.2614
  792THF     C912232   3.698   3.924   0.469 -0.0421  0.5658 -0.2091
  792THF    H1012233   3.490   3.948   0.503  0.2076  0.3930  0.8795
  792THF    H1112234   3.521   3.797   0.407  0.0561 -1.2075  1.0115
  792THF    H1212235   3.764   3.882   0.393 -1.3059 -0.4607 -0.7878
  792THF    H1312236   3.680   4.027   0.436  0.4360 -0.0971 -2.7885
  793THF     O112237   0.804   0.709   4.652 -0.1581  0.0871  0.0430
  793THF     C212238   0.718   0.591   4.642  0.0879 -0.6950  0.8468
  793THF     C312239   0.794   0.751   4.785 -0.0120  0.2522  0.2626
  793THF     H412240   0.747   0.538   4.551  0.1610 -1.1010  1.1054
  793THF     H512241   0.611   0.611   4.633  0.0980 -1.2417 -0.6480
  793THF     H612242   0.880   0.813   4.810 -0.0633 -0.0176  1.1489
  793THF     H712243   0.698   0.802   4.791 -0.1833  0.0161 -0.4650
  793THF     C812244   0.793   0.622   4.868  0.1636  0.5606  0.5576
  793THF     C912245   0.757   0.513   4.759 -0.2664 -0.0271 -0.9147
  793THF    H1012246   0.709   0.617   4.936  1.6001 -1.2039  2.3001
  793THF    H1112247   0.883   0.595   4.923  0.2144 -0.7461 -0.1462
  793THF    H1212248   0.844   0.448   4.747 -0.6050 -0.6698 -0.0183
  793THF    H1312249   0.675   0.453   4.798  0.9461 -0.8133  0.5668
  794THF     O112250   5.146   5.245   4.074 -0.4470 -0.3780  0.2479
  794THF     C212251   5.213   5.119   4.069 -0.4836 -0.8393 -0.2170
  794THF     C312252   5.036   5.263   3.986 -0.1612 -0.4343  0.1888
  794THF     H412253   5.201   5.067   4.164  1.7555 -1.7764 -0.3904
  794THF     H512254   5.320   5.129   4.051 -0.4125 -1.2469 -0.0264
  794THF     H612255   4.945   5.249   4.045 -0.7707  2.2981  0.0072
  794THF     H712256   5.036   5.364   3.944 -3.0523  0.6590  2.5076
  794THF     C812257   5.066   5.150   3.889  0.2096  0.1590  0.2566
  794THF     C912258   5.143   5.042   3.963  1.0389  0.2252 -0.0953
  794THF    H1012259   5.125   5.189   3.806  0.4525  0.9970  0.8115
  794THF    H1112260   4.972   5.112   3.851 -0.6202  1.3034  1.0889
  794THF    H1212261   5.072   4.978   4.015  2.6656 -0.8598  0.9071
  794THF    H1312262   5.219   4.982   3.913  0.4194  0.7720 -1.7343
  795THF     O112263   1.723   0.252   5.298  0.2484 -0.1920  0.0926
  795THF     C212264   1.697   0.375   5.239 -0.6329 -0.7481 -0.3829
  795THF     C312265   1.635   0.226   5.398  0.4291 -0.3692  0.4260
  795THF     H412266   1.753   0.397   5.148  0.6398  3.6987  1.2280
  795THF     H512267   1.737   0.455   5.300 -0.6345 -0.1443 -1.1553
  795THF     H612268   1.641   0.126   5.441  1.5493 -0.7851 -0.6331
  795THF     H712269   1.658   0.301   5.473 -0.5662  0.2820  0.1003
  795THF     C812270   1.503   0.275   5.339  0.4203  0.1350  0.2673
  795THF     C912271   1.545   0.367   5.225  0.1330  0.1436  0.1384
  795THF    H1012272   1.445   0.330   5.413 -1.4245 -0.8725 -0.3607
  795THF    H1112273   1.444   0.189   5.307  0.1607  0.7358 -0.9081
  795THF    H1212274   1.521   0.317   5.131  0.4783  1.1726 -0.5176
  795THF    H1312275   1.491   0.462   5.233 -0.0264  0.1245 -0.6052
  796THF     O112276   2.224   0.955   4.985  0.5970 -0.9891 -0.3490
  796THF     C212277   2.354   0.997   4.939  0.5262 -1.0170 -0.7158
  796THF     C312278   2.183   1.030   5.102 -0.2905 -0.7070  0.2691
  796THF     H412279   2.396   0.979   4.840  2.6594 -0.3025 -0.0007
  796THF     H512280   2.423   0.963   5.016  0.2615  1.1423  0.5562
  796THF     H612281   2.075   1.039   5.119 -0.0576  0.0534  1.4471
  796THF     H712282   2.218   0.981   5.192  0.3063 -0.4288  0.1900
  796THF     C812283   2.244   1.167   5.075 -0.4161 -0.3850  0.0035
  796THF     C912284   2.337   1.147   4.955  0.1279 -0.1769 -0.6885
  796THF    H1012285   2.292   1.187   5.171 -1.0953 -1.1557  0.5243
  796THF    H1112286   2.171   1.244   5.053  2.4733  2.3724 -0.5826
  796THF    H1212287   2.278   1.184   4.871 -0.4470  0.3828 -0.0573
  796THF    H1312288   2.425   1.209   4.970 -0.5168  1.2886 -2.5333
  797THF     O112289   5.299   1.815   2.230 -0.2094 -0.6129  0.1361
  797THF     C212290   5.246   1.891   2.336  0.7588 -0.9087  0.1586
  797THF     C312291   5.231   1.688   2.231 -0.0349  0.1323 -0.4790
  797THF     H412292   5.195   1.979   2.296  0.7207 -0.6582  0.7501
  797THF     H512293   5.312   1.931   2.412 -0.0028 -0.9754  0.8728
  797THF     H612294   5.219   1.654   2.129 -1.0035  0.2990 -0.4217
  797THF     H712295   5.284   1.607   2.283  2.8260  1.4126 -1.1742
  797THF     C812296   5.097   1.713   2.300  0.2783 -0.2395 -0.3304
  797THF     C912297   5.146   1.803   2.406  0.0491  0.2479  0.1957
  797THF    H1012298   5.044   1.629   2.345  0.3491  0.1698  0.5170
  797THF    H1112299   5.034   1.759   2.224 -0.2023  0.2211  0.3367
  797THF    H1212300   5.069   1.853   2.466 -1.3177 -3.0028  1.4141
  797THF    H1312301   5.194   1.746   2.486 -0.6445  1.6224  1.6602
  798THF     O112302   4.117   0.217   3.465  0.0236 -0.7618 -0.1190
  798THF     C212303   4.052   0.344   3.477  0.7360 -0.1468 -0.0562
  798THF     C312304   4.259   0.244   3.470 -0.2685 -0.5506  0.0239
  798THF     H412305   3.949   0.332   3.512  0.1305  0.3044 -1.6008
  798THF     H512306   4.054   0.400   3.383  0.1562  1.4574  0.8481
  798THF     H612307   4.300   0.166   3.534 -2.1746  1.9499  4.8232
  798THF     H712308   4.309   0.255   3.374  0.0720  4.5645  0.4721
  798THF     C812309   4.270   0.379   3.552 -0.4646 -0.7694 -0.1051
  798THF     C912310   4.129   0.425   3.578 -0.0675 -0.2331  0.2204
  798THF    H1012311   4.320   0.461   3.501 -0.3535 -0.8172 -0.0736
  798THF    H1112312   4.327   0.364   3.644  0.5320 -0.9500 -0.7341
  798THF    H1212313   4.102   0.398   3.680  0.5383 -0.2945  0.3675
  798THF    H1312314   4.107   0.530   3.558 -1.7408 -0.6522 -0.3137
  799THF     O112315   5.016   5.377   2.854 -0.0821 -0.6967  0.4421
  799THF     C212316   5.089   5.491   2.795  0.0338 -0.8832  0.6965
  799THF     C312317   4.880   5.375   2.801  0.2568  0.3072 -0.2950
  799THF     H412318   5.161   5.454   2.722 -1.9249 -1.0214 -1.2525
  799THF     H512319   5.140   5.537   2.880 -1.0142  0.3746  0.6775
  799THF     H612320   4.857   5.333   2.703 -1.6610 -0.3018  0.3729
  799THF     H712321   4.810   5.318   2.861 -1.4079  3.7720  1.3471
  799THF     C812322   4.850   5.526   2.783 -0.1133  1.0373 -0.2717
  799THF     C912323   4.986   5.580   2.730  0.7504  0.8052 -0.3922
  799THF    H1012324   4.822   5.566   2.880 -2.0649  1.8799 -1.1322
  799THF    H1112325   4.768   5.543   2.713  0.9118  2.8476 -1.1204
  799THF    H1212326   4.993   5.588   2.621 -0.0705  4.9644 -0.2989
  799THF    H1312327   5.000   5.680   2.770 -0.9721  0.7754  0.3832
  800THF     O112328   2.920   4.580   0.616 -0.0180  0.4195 -0.3811
  800THF     C212329   2.945   4.634   0.489 -0.4088  0.3991  0.6293
  800THF     C312330   3.046   4.539   0.675  0.3778  1.0300  0.2751
  800THF     H412331   2.967   4.740   0.478 -1.1368  0.4639 -0.3082
  800THF     H512332   2.863   4.608   0.422  0.4393  0.3517 -0.4201
  800THF     H612333   3.061   4.575   0.777  0.6005  2.1379 -0.1410
  800THF     H712334   3.028   4.432   0.687  0.5723  1.0027  0.3135
  800THF     C812335   3.149   4.574   0.572 -0.4061 -0.5354 -0.7096
  800THF     C912336   3.067   4.563   0.446 -0.1041 -0.0487  0.0500
  800THF    H1012337   3.231   4.503   0.561 -0.7029 -0.6143 -2.7949
  800THF    H1112338   3.190   4.674   0.587  0.5844 -0.7527 -1.7897
  800THF    H1212339   3.124   4.602   0.361 -1.8942 -1.5137 -1.9335
  800THF    H1312340   3.053   4.460   0.413  1.5074  0.8846 -4.1839
  801THF     O112341   3.427   1.746   3.156 -0.3152 -0.4810 -0.5957
  801THF     C212342   3.458   1.643   3.247 -0.5115  0.1573  0.0382
  801THF     C312343   3.475   1.868   3.216 -0.3368  0.1345 -0.7635
  801THF     H412344   3.565   1.625   3.243  0.0770  1.6805  4.1299
  801THF     H512345   3.398   1.557   3.217 -0.7292  1.1167 -2.5801
  801THF     H612346   3.584   1.871   3.211 -0.1673 -1.3096  1.0379
  801THF     H712347   3.445   1.951   3.152  0.0380 -0.2101 -1.4043
  801THF     C812348   3.426   1.854   3.365 -0.7834 -0.5420  0.4071
  801THF     C912349   3.425   1.705   3.381  0.1632 -0.1822 -0.1570
  801THF    H1012350   3.324   1.892   3.373 -0.9202 -0.8222  0.0660
  801THF    H1112351   3.503   1.920   3.404  0.5617 -2.3185  0.8806
  801THF    H1212352   3.501   1.677   3.453  1.1304 -0.9025 -1.4129
  801THF    H1312353   3.327   1.673   3.416  0.8100 -2.0385  0.0824
  802THF     O112354   1.755   3.104   3.134  0.0604 -0.7761 -0.0492
  802THF     C212355   1.693   2.974   3.134  0.2588 -0.3588 -0.2608
  802THF     C312356   1.665   3.186   3.054 -0.2682 -0.3438 -0.4890
  802THF     H412357   1.736   2.926   3.222 -0.9528  0.3842  0.7782
  802THF     H512358   1.718   2.915   3.047  1.2477 -1.4774  0.7487
  802THF     H612359   1.695   3.291   3.057 -1.0892 -0.1160  0.2258
  802THF     H712360   1.677   3.151   2.952 -0.0947 -2.4774  0.2152
  802THF     C812361   1.528   3.158   3.116 -0.4916 -0.0184  0.1850
  802THF     C912362   1.542   3.005   3.136  0.8286 -0.3975 -0.3578
  802THF    H1012363   1.442   3.186   3.056 -0.0165  0.5840 -0.2399
  802THF    H1112364   1.517   3.206   3.214  2.0395  0.5862  0.2637
  802THF    H1212365   1.481   2.973   3.221 -0.3118  0.8894 -0.6560
  802THF    H1312366   1.491   2.952   3.056  0.1345  1.5137 -1.2415
  803THF     O112367   0.830   2.496   1.236 -0.6851  0.0633  0.2839
  803THF     C212368   0.870   2.416   1.343 -0.1343 -0.4071 -0.5065
  803THF     C312369   0.797   2.418   1.127 -0.0657 -0.2672  0.3442
  803THF     H412370   0.840   2.459   1.438  2.5153  0.7143 -0.0884
  803THF     H512371   0.975   2.384   1.336 -0.1292 -1.1109  1.9511
  803THF     H612372   0.731   2.477   1.064  0.7247  1.5670  1.1551
  803THF     H712373   0.876   2.395   1.056  0.5093  2.6728 -0.0929
  803THF     C812374   0.733   2.291   1.188  0.2403 -0.1149  0.1585
  803THF     C912375   0.790   2.290   1.329  0.7147 -0.2186 -0.0430
  803THF    H1012376   0.768   2.207   1.129  0.9550  0.2493  0.0487
  803THF    H1112377   0.625   2.280   1.196 -0.0181  1.8463 -0.0478
  803THF    H1212378   0.709   2.305   1.401 -0.3022 -0.2291 -1.1505
  803THF    H1312379   0.838   2.195   1.355 -1.2419 -1.3811 -0.4934
  804THF     O112380   0.348   0.731   1.325 -0.4752 -0.6616 -0.3113
  804THF     C212381   0.349   0.800   1.451 -0.4824  0.4791  0.0613
  804THF     C312382   0.212   0.694   1.279 -1.0014  0.2434 -0.2900
  804THF     H412383   0.390   0.901   1.441  1.1179 -0.1706 -0.1658
  804THF     H512384   0.407   0.750   1.528 -1.2638 -0.3112  0.1487
  804THF     H612385   0.202   0.701   1.171  1.3518  0.6139 -0.5264
  804THF     H712386   0.187   0.589   1.298  2.1778 -1.0325 -2.4054
  804THF     C812387   0.133   0.800   1.350 -0.0408  0.1510  0.2346
  804THF     C912388   0.199   0.812   1.484 -0.3130  0.1786  0.8636
  804THF    H1012389   0.025   0.789   1.361 -0.5083  1.9697 -1.7899
  804THF    H1112390   0.142   0.902   1.313 -0.7412  0.9401  2.0790
  804THF    H1212391   0.169   0.903   1.536 -0.5535 -0.3749  1.7033
  804THF    H1312392   0.171   0.735   1.555 -1.1445 -0.8589 -0.5311
  805THF     O112393   2.801   4.019   1.927 -0.0982  0.1398  0.0578
  805THF     C212394   2.811   4.044   2.064 -0.0851 -0.6387  0.3609
  805THF     C312395   2.934   3.980   1.884  0.1910  0.0567 -0.8198
  805THF     H412396   2.788   3.949   2.113  0.6303 -2.1980 -2.1062
  805THF     H512397   2.740   4.120   2.095  2.3485  0.1075  4.9236
  805THF     H612398   2.941   3.872   1.894 -2.7580 -0.2325 -1.1748
  805THF     H712399   2.940   4.008   1.779  0.5227 -0.1214 -0.8499
  805THF     C812400   3.034   4.050   1.970 -0.0784 -0.1343  0.4935
  805THF     C912401   2.951   4.098   2.088 -0.0659  0.0937  0.7210
  805THF    H1012402   3.076   4.138   1.921  1.9407 -1.9555 -1.2792
  805THF    H1112403   3.120   3.987   1.994 -0.4451 -0.9512 -0.2839
  805THF    H1212404   2.985   4.040   2.174  1.8437 -0.9654 -0.6608
  805THF    H1312405   2.946   4.204   2.112 -1.7292 -0.2383  1.9927
  806THF     O112406   3.958   4.734   5.413 -0.2718 -0.0810 -0.4417
  806THF     C212407   3.910   4.625   5.494 -0.1043  0.5541  0.1715
  806THF     C312408   4.097   4.720   5.405 -0.6007 -0.3204 -0.5800
  806THF     H412409   3.806   4.610   5.467 -0.6384  2.6401  0.8624
  806THF     H512410   3.910   4.654   5.599  1.1285  1.6261 -0.0890
  806THF     H612411   4.145   4.765   5.318 -0.0478 -0.9379 -0.6067
  806THF     H712412   4.146   4.762   5.494 -0.8946  0.1391 -0.6345
  806THF     C812413   4.128   4.563   5.414 -0.2266  0.2055 -0.0483
  806THF     C912414   3.999   4.505   5.464  0.5105 -0.2689  0.7202
  806THF    H1012415   4.199   4.543   5.493 -0.0087 -0.6193 -0.4444
  806THF    H1112416   4.151   4.528   5.313 -0.7256  4.2635 -1.7874
  806THF    H1212417   3.954   4.451   5.380 -0.4149  0.2919  0.8421
  806THF    H1312418   4.009   4.430   5.543 -0.4325  0.0197  1.1292
  807THF     O112419   3.725   4.568   4.641  0.1601  0.3315  0.3706
  807THF     C212420   3.837   4.492   4.664  0.1303  0.1583  0.0197
  807THF     C312421   3.648   4.498   4.535 -0.0453  0.5829  0.2383
  807THF     H412422   3.814   4.411   4.734  1.3644  0.3911  0.7155
  807THF     H512423   3.921   4.550   4.702  0.3930 -1.1922  1.5986
  807THF     H612424   3.572   4.434   4.581 -0.8920  1.2809 -0.1670
  807THF     H712425   3.594   4.563   4.466 -0.0939 -0.0870 -0.3633
  807THF     C812426   3.744   4.417   4.453  0.1005 -0.5144 -0.9002
  807THF     C912427   3.875   4.427   4.532 -0.2079 -0.1530  0.4318
  807THF    H1012428   3.766   4.458   4.354  0.2814  0.3662 -0.5073
  807THF    H1112429   3.699   4.319   4.440 -0.6889 -0.0149 -2.1468
  807THF    H1212430   3.932   4.337   4.552 -1.6915 -1.1828  0.2009
  807THF    H1312431   3.933   4.491   4.466  1.5405  0.1496  2.1596
  808THF     O112432   4.525   0.585   2.308 -0.6776  0.3736  0.2648
  808THF     C212433   4.618   0.486   2.250  0.2335 -0.5768 -0.7936
  808THF     C312434   4.427   0.612   2.216 -0.3295  0.0558 -0.0881
  808THF     H412435   4.587   0.388   2.287 -2.3431 -0.0045 -1.2463
  808THF     H512436   4.718   0.514   2.281  0.5524 -2.1618 -0.2949
  808THF     H612437   4.360   0.527   2.213  2.5303 -2.3469 -2.0755
  808THF     H712438   4.367   0.703   2.224 -1.0993 -0.5269  0.9757
  808THF     C812439   4.504   0.609   2.091 -0.1679 -0.1414  0.0336
  808THF     C912440   4.590   0.488   2.104 -0.4305  0.2390 -0.2871
  808THF    H1012441   4.564   0.700   2.082 -0.5685  0.2968  1.5945
  808THF    H1112442   4.446   0.609   1.999 -0.0965  0.6540 -0.0130
  808THF    H1212443   4.544   0.393   2.078 -0.0294 -0.3427  1.0421
  808THF    H1312444   4.687   0.484   2.054  1.7040 -1.3715  3.5580
  809THF     O112445   0.445   3.910   1.739 -0.1303  0.3043 -0.1974
  809THF     C212446   0.383   3.995   1.839 -0.0882  0.0827 -0.3270
  809THF     C312447   0.345   3.823   1.694 -0.1488  0.2627 -0.6025
  809THF     H412448   0.374   4.096   1.800  0.0785 -0.5979 -2.2361
  809THF     H512449   0.441   3.977   1.930  1.5729 -0.6883 -1.4787
  809THF     H612450   0.293   3.863   1.607  3.2964 -1.5415 -3.8195
  809THF     H712451   0.381   3.723   1.668  0.3434  0.7820 -1.9873
  809THF     C812452   0.256   3.802   1.817  0.7673  0.3724 -0.0704
  809THF     C912453   0.242   3.941   1.866 -0.0740 -0.3324  0.5929
  809THF    H1012454   0.289   3.735   1.896 -1.7187  0.5029  1.1568
  809THF    H1112455   0.165   3.746   1.795 -1.3423  2.9813  1.4304
  809THF    H1212456   0.170   3.999   1.809 -0.4748 -2.2180 -0.9079
  809THF    H1312457   0.210   3.957   1.969 -3.5679 -0.4094 -0.3594
  810THF     O112458   3.080   1.918   3.268  0.2686 -0.0968 -0.2449
  810THF     C212459   3.109   1.837   3.152 -0.0386 -0.5236  0.1004
  810THF     C312460   2.941   1.920   3.292  0.2217 -0.6637 -0.4427
  810THF     H412461   3.117   1.730   3.174 -2.5589 -0.6142  0.9753
  810THF     H512462   3.197   1.877   3.102 -0.0153  0.1345  0.6551
  810THF     H612463   2.918   1.848   3.369 -0.4866  0.2456  0.2147
  810THF     H712464   2.909   2.019   3.325  0.1449 -1.0985  0.8289
  810THF     C812465   2.873   1.882   3.166  0.2498  0.7908  0.1703
  810THF     C912466   2.985   1.853   3.062 -0.2062  0.6458  0.1074
  810THF    H1012467   2.813   1.964   3.126  0.1365  0.8576  0.4755
  810THF    H1112468   2.814   1.792   3.175  1.3356  0.0936  0.5141
  810THF    H1212469   2.949   1.768   3.004 -1.1877  2.0181 -1.3838
  810THF    H1312470   3.006   1.935   2.994  0.7276  0.0478 -0.3513
  811THF     O112471   2.220   3.686   2.150 -0.3371 -0.0434 -0.3809
  811THF     C212472   2.297   3.779   2.077  0.1185  0.0260 -0.3557
  811THF     C312473   2.281   3.651   2.272 -1.1165  0.0965  0.2202
  811THF     H412474   2.244   3.869   2.044  0.5629  0.1628 -0.7084
  811THF     H512475   2.323   3.733   1.982 -1.0187 -1.5198  0.0470
  811THF     H612476   2.242   3.715   2.352 -1.4837 -0.0764  0.1798
  811THF     H712477   2.256   3.551   2.309  0.1546  0.5234  2.4293
  811THF     C812478   2.427   3.679   2.244  0.1063  0.5412  0.1846
  811THF     C912479   2.431   3.798   2.148 -0.1665 -0.0583  0.2065
  811THF    H1012480   2.467   3.589   2.197  2.0473 -0.5736  3.5957
  811THF    H1112481   2.485   3.684   2.336  1.7966 -2.0426 -0.6322
  811THF    H1212482   2.421   3.882   2.216  0.3269  0.1865 -0.0223
  811THF    H1312483   2.511   3.817   2.077 -0.2677 -0.2915  0.0284
  812THF     O112484   1.295   3.167   4.619 -0.7619  0.1040 -0.0426
  812THF     C212485   1.341   3.251   4.730 -0.6235  0.5481 -0.4849
  812THF     C312486   1.348   3.231   4.495 -0.0528 -0.0812 -0.4890
  812THF     H412487   1.431   3.209   4.774 -0.8777 -1.5336 -1.8208
  812THF     H512488   1.266   3.247   4.808 -0.3491  0.4276 -0.2247
  812THF     H612489   1.454   3.203   4.493  0.4183  1.3788  1.3369
  812THF     H712490   1.301   3.196   4.403  0.6987 -2.4929 -0.0372
  812THF     C812491   1.341   3.383   4.525 -0.1859 -0.3565  0.1159
  812THF     C912492   1.347   3.395   4.675  0.0615  0.1008  0.1523
  812THF    H1012493   1.256   3.429   4.475  0.9390  1.4028 -0.2815
  812THF    H1112494   1.423   3.444   4.487 -1.2441  0.2855 -1.2364
  812THF    H1212495   1.441   3.440   4.708 -1.1074  1.6950  1.4161
  812THF    H1312496   1.264   3.459   4.704 -1.2757 -1.5444  0.1106
  813THF     O112497   4.180   2.172   2.212  0.4652 -0.2900 -0.3161
  813THF     C212498   4.046   2.203   2.177 -0.7416 -0.6869 -0.2622
  813THF     C312499   4.219   2.268   2.317  0.3978  0.0174 -0.0230
  813THF     H412500   3.981   2.117   2.192 -2.3371  0.2058 -1.6852
  813THF     H512501   4.046   2.224   2.070 -1.2299 -0.3140 -0.1906
  813THF     H612502   4.280   2.213   2.389  1.0192 -0.5201 -0.9270
  813THF     H712503   4.281   2.344   2.270  0.5279 -0.3814 -0.5163
  813THF     C812504   4.093   2.329   2.376  0.1236 -0.2285 -0.2504
  813THF     C912505   4.010   2.335   2.248  0.5109 -0.3533  0.0194
  813THF    H1012506   4.124   2.421   2.425  0.3284  0.1519 -1.0865
  813THF    H1112507   4.052   2.256   2.446  0.4284 -0.0581  0.1085
  813THF    H1212508   3.902   2.351   2.251  0.3646 -1.3481  0.3218
  813THF    H1312509   4.050   2.424   2.199  2.1609  0.3286  2.4191
  814THF     O112510   5.402   0.986   3.181  0.1408 -0.3793  0.1591
  814THF     C212511   5.396   1.122   3.223  0.0493  0.2885 -0.6428
  814THF     C312512   5.504   0.964   3.089  0.5672  0.0130  0.0284
  814THF     H412513   5.485   1.129   3.286  0.8983 -2.4664 -1.3910
  814THF     H512514   5.311   1.134   3.290  0.0881 -1.7025 -0.1723
  814THF     H612515   5.599   0.964   3.144  1.4040 -0.4970 -1.3657
  814THF     H712516   5.486   0.870   3.038 -0.7714  0.3366 -0.1339
  814THF     C812517   5.495   1.094   3.004 -0.3067 -0.1014 -0.3903
  814THF     C912518   5.412   1.191   3.093 -0.3952  0.6405 -0.1171
  814THF    H1012519   5.436   1.076   2.915 -1.7461  1.7797  0.1248
  814THF    H1112520   5.595   1.128   2.975 -0.0359 -0.7969 -0.2824
  814THF    H1212521   5.442   1.296   3.094 -0.7209  0.7307  1.1571
  814THF    H1312522   5.315   1.193   3.042 -0.5548  0.8042  0.1915
  815THF     O112523   5.155   4.276   3.091  0.1348 -0.3994 -0.1099
  815THF     C212524   5.172   4.145   3.154 -1.0978  0.1749 -0.1229
  815THF     C312525   5.088   4.264   2.966  0.2949  0.1241 -0.6044
  815THF     H412526   5.113   4.136   3.245 -1.3274 -1.3042 -0.3962
  815THF     H512527   5.278   4.123   3.169 -0.7674 -0.0860 -2.4404
  815THF     H612528   4.980   4.268   2.975  0.4202  1.1206  1.0036
  815THF     H712529   5.119   4.339   2.894  0.0487  0.3711 -0.4543
  815THF     C812530   5.128   4.124   2.922  0.3782  0.3792  0.0226
  815THF     C912531   5.135   4.039   3.049 -0.4963  0.3912 -0.5423
  815THF    H1012532   5.227   4.136   2.876 -0.5394 -0.1524 -2.2266
  815THF    H1112533   5.068   4.082   2.842  1.3561  1.2447 -1.2195
  815THF    H1212534   5.036   4.004   3.077  0.2616 -1.1277  0.3425
  815THF    H1312535   5.208   3.958   3.051 -1.5585 -0.6323  2.4251
  816THF     O112536   3.044   3.588   1.071  0.1099  0.1096 -0.2007
  816THF     C212537   3.138   3.492   1.116 -0.4659  0.3612 -0.3806
  816THF     C312538   2.909   3.530   1.058  0.0601 -0.0046  0.8194
  816THF     H412539   3.221   3.533   1.173  0.3036 -0.4816 -0.8790
  816THF     H512540   3.176   3.440   1.028 -2.3672 -2.8230  0.5176
  816THF     H612541   2.844   3.569   1.137  0.9861  1.8145  0.7266
  816THF     H712542   2.873   3.540   0.955 -0.4445  0.9856  1.0784
  816THF     C812543   2.934   3.381   1.086 -0.1403  0.1416  0.8567
  816THF     C912544   3.056   3.377   1.176 -0.0942 -0.9185  0.2869
  816THF    H1012545   2.952   3.316   1.000 -1.6708  1.4636 -0.5270
  816THF    H1112546   2.849   3.336   1.137 -0.2989 -0.3994  0.1258
  816THF    H1212547   3.032   3.417   1.275  0.4110  0.4756 -0.1231
  816THF    H1312548   3.098   3.277   1.178 -1.1247 -1.4482 -1.5742
  817THF     O112549   4.769   3.226   1.455  0.3093  0.0951  0.1591
  817THF     C212550   4.753   3.287   1.327 -0.4501  0.4152  0.3739
  817THF     C312551   4.670   3.122   1.459  0.4574  0.0241 -0.0896
  817THF     H412552   4.848   3.277   1.274  0.6238 -0.1181  2.2862
  817THF     H512553   4.740   3.395   1.338  3.7312  1.2136 -0.6044
  817THF     H612554   4.730   3.042   1.418  0.2781  1.1836 -2.7949
  817THF     H712555   4.638   3.106   1.562  1.5286  0.0003  0.2520
  817THF     C812556   4.553   3.168   1.366  0.1105  0.3320 -0.3313
  817THF     C912557   4.636   3.227   1.251  0.4522  0.2766 -0.4167
  817THF    H1012558   4.504   3.238   1.434 -1.3060 -1.5274  0.6479
  817THF    H1112559   4.487   3.087   1.338  0.6770 -0.2057 -0.1419
  817THF    H1212560   4.673   3.156   1.177  2.2216 -0.0960  0.7765
  817THF    H1312561   4.589   3.313   1.202 -0.1644  0.5906  0.6902
  818THF     O112562   4.308   4.856   0.932 -0.4090 -0.1526 -0.4741
  818THF     C212563   4.271   4.934   0.819 -0.3834 -0.4711  0.7925
  818THF     C312564   4.445   4.882   0.960 -0.7484  0.3493 -0.0585
  818THF     H412565   4.165   4.959   0.811  0.0219  0.7581 -1.5364
  818THF     H512566   4.292   4.883   0.725 -2.4199 -1.3256  0.7342
  818THF     H612567   4.468   4.853   1.062 -1.7148 -0.7156 -0.1211
  818THF     H712568   4.516   4.833   0.894 -0.0578  0.7096  0.4145
  818THF     C812569   4.456   5.031   0.949  0.2571 -0.6158 -0.1591
  818THF     C912570   4.353   5.065   0.834  0.0407 -0.3763  0.2425
  818THF    H1012571   4.556   5.066   0.920  1.1550 -1.0079  2.1988
  818THF    H1112572   4.428   5.069   1.047  1.5723 -1.2854  0.4999
  818THF    H1212573   4.295   5.149   0.873 -0.6485 -1.3256  1.3430
  818THF    H1312574   4.398   5.091   0.738  0.2914 -3.5143 -0.6012
  819THF     O112575   2.036   5.401   4.322 -0.1955  0.7904 -0.7039
  819THF     C212576   1.917   5.474   4.301 -0.0801  0.4542 -0.5130
  819THF     C312577   2.081   5.361   4.193 -0.0592 -0.3427  0.3537
  819THF     H412578   1.917   5.549   4.381 -0.7976  1.0444 -1.0500
  819THF     H512579   1.837   5.400   4.299  1.2959 -1.0793 -1.2965
  819THF     H612580   2.179   5.314   4.197  1.4720  2.5320 -0.8672
  819THF     H712581   2.012   5.291   4.146  0.5489 -1.5957  1.2747
  819THF     C812582   2.088   5.494   4.118  0.5267 -0.0969 -0.0535
  819THF     C912583   1.943   5.538   4.164 -0.3990 -0.3222  0.5903
  819THF    H1012584   2.098   5.468   4.012 -2.9239 -1.1978 -0.2455
  819THF    H1112585   2.167   5.565   4.144  0.2198  0.4870 -0.6610
  819THF    H1212586   1.939   5.647   4.162  0.5517 -0.2422  1.6941
  819THF    H1312587   1.861   5.498   4.105 -0.7620  0.4722  0.5479
  820THF     O112588   4.088   4.205   5.451 -0.5199 -0.0395 -0.4489
  820THF     C212589   4.202   4.120   5.455  0.0659  0.1568 -0.0190
  820THF     C312590   3.976   4.118   5.462  0.1703 -0.7485  0.2882
  820THF     H412591   4.284   4.165   5.512 -0.4835 -2.0062  2.7166
  820THF     H512592   4.234   4.076   5.361 -0.7983  1.1515 -0.8042
  820THF     H612593   3.881   4.170   5.468 -0.4369 -1.5761 -1.3044
  820THF     H712594   3.976   4.063   5.367  1.0944  1.3819 -1.0144
  820THF     C812595   4.015   4.027   5.581 -0.2203 -0.0030 -0.0541
  820THF     C912596   4.166   4.003   5.551  0.2287  0.2742  0.3786
  820THF    H1012597   3.963   3.931   5.588  1.8699 -1.1845  0.0082
  820THF    H1112598   4.011   4.091   5.669  0.0515  1.2794 -0.9382
  820THF    H1212599   4.239   4.014   5.631  0.6772 -1.0635  0.1774
  820THF    H1312600   4.179   3.906   5.504  0.1453  0.8203 -0.8191
  821THF     O112601   4.492   4.731   3.227 -0.3837 -0.0609 -0.0498
  821THF     C212602   4.401   4.638   3.279  0.3854  0.1594 -0.2567
  821THF     C312603   4.524   4.829   3.329  0.0501  0.3268  0.4788
  821THF     H412604   4.451   4.543   3.262 -0.9642 -0.6388  0.0600
  821THF     H512605   4.306   4.635   3.225 -1.2653  0.2649  2.4751
  821THF     H612606   4.620   4.797   3.370 -0.1157 -1.1388 -0.1884
  821THF     H712607   4.523   4.934   3.303 -0.8028  0.2510  0.1461
  821THF     C812608   4.419   4.809   3.438 -0.5240  0.2146  1.2178
  821THF     C912609   4.389   4.665   3.429 -0.4888 -0.1278  0.0405
  821THF    H1012610   4.333   4.874   3.424 -0.3623  0.0874 -0.5768
  821THF    H1112611   4.465   4.840   3.532  1.3290  1.8504 -0.1523
  821THF    H1212612   4.453   4.602   3.489  0.1805  0.1921 -0.3246
  821THF    H1312613   4.290   4.640   3.467  0.2159 -0.4961  1.6882
  822THF     O112614   5.416   2.337   2.342  0.3337 -0.6212 -0.4201
  822THF     C212615   5.422   2.462   2.280 -0.2636  0.0965  0.4231
  822THF     C312616   5.410   2.242   2.237  0.5193  0.3256 -0.3385
  822THF     H412617   5.521   2.466   2.234 -1.0534 -1.3220 -1.5471
  822THF     H512618   5.402   2.545   2.347  0.7688 -1.3904  2.6836
  822THF     H612619   5.511   2.216   2.203  0.1607 -5.6868  1.8996
  822THF     H712620   5.369   2.153   2.285 -0.2634  0.7354 -0.2389
  822THF     C812621   5.325   2.308   2.127 -0.0007 -0.0282  0.3931
  822THF     C912622   5.312   2.454   2.176  0.5880 -0.5866 -0.0495
  822THF    H1012623   5.230   2.256   2.118 -0.0090 -0.4728  2.6307
  822THF    H1112624   5.379   2.305   2.032 -3.4066 -1.2112 -1.6940
  822THF    H1212625   5.319   2.514   2.085 -0.1737 -0.0335  0.2471
  822THF    H1312626   5.213   2.469   2.218  0.4603  0.7822 -0.7863
  823THF     O112627   3.890   4.981   3.654 -0.1412 -0.2706 -0.0331
  823THF     C212628   3.879   4.853   3.709 -0.3626  0.2277  0.5012
  823THF     C312629   3.986   5.003   3.554  0.5119  0.2997  0.1310
  823THF     H412630   3.780   4.809   3.726  0.3249 -1.1992  1.0168
  823THF     H512631   3.926   4.838   3.807  0.4769 -0.6263 -0.0202
  823THF     H612632   3.962   5.086   3.488 -1.1603  0.0883  0.4322
  823THF     H712633   4.090   5.021   3.584  1.1806 -1.5151 -0.9353
  823THF     C812634   3.984   4.860   3.488 -0.3246  0.8152 -0.2269
  823THF     C912635   3.965   4.773   3.606  0.1776  0.2263 -0.0469
  823THF    H1012636   4.072   4.833   3.429 -0.4395 -1.9648  0.7156
  823THF    H1112637   3.899   4.850   3.421  0.1659 -0.8295 -0.6453
  823THF    H1212638   3.903   4.688   3.577  0.1449 -0.0053  0.6831
  823THF    H1312639   4.056   4.725   3.642 -0.6303 -0.7395  0.7607
  824THF     O112640   2.856   3.959   4.160  0.3329 -0.4196 -0.3166
  824THF     C212641   2.834   3.983   4.296  0.4385 -0.2768 -0.0225
  824THF     C312642   3.000   3.959   4.149 -0.3609  0.0227  0.5434
  824THF     H412643   2.852   3.896   4.359 -0.5133 -0.4898 -0.0319
  824THF     H512644   2.735   4.022   4.320  0.5451  0.8511 -1.3073
  824THF     H612645   3.048   3.880   4.208  3.7405  1.0236 -1.1380
  824THF     H712646   3.045   3.946   4.050 -0.7804 -2.7686  0.6171
  824THF     C812647   3.045   4.090   4.224  0.5420  0.1355  0.1376
  824THF     C912648   2.938   4.095   4.332 -0.6177 -0.0842 -0.0765
  824THF    H1012649   3.041   4.177   4.159 -0.0341 -1.3444 -1.8932
  824THF    H1112650   3.148   4.085   4.259  1.5520  1.6365 -2.3656
  824THF    H1212651   2.979   4.080   4.431 -1.5222  2.6528  0.7924
  824THF    H1312652   2.908   4.199   4.328  1.4646  0.6013 -4.4484
  825THF     O112653   4.202   2.111   4.264 -0.3166  0.0404 -0.0456
  825THF     C212654   4.240   2.104   4.125  0.5967  0.6873 -0.8856
  825THF     C312655   4.323   2.093   4.333 -0.2898 -0.2272  1.2875
  825THF     H412656   4.160   2.135   4.058  0.6168 -0.1387 -1.2977
  825THF     H512657   4.265   2.006   4.086  1.2991 -0.2633  1.6984
  825THF     H612658   4.319   2.112   4.440 -0.4298  3.8702  0.7403
  825THF     H712659   4.352   1.988   4.329 -0.2349 -0.1854  0.0026
  825THF     C812660   4.415   2.197   4.260  0.1196  0.3102 -0.0948
  825THF     C912661   4.365   2.202   4.116 -0.3104 -0.1200 -0.4021
  825THF    H1012662   4.522   2.177   4.269  0.3292  0.8368 -1.2066
  825THF    H1112663   4.391   2.295   4.300 -0.0806 -0.1614  0.9713
  825THF    H1212664   4.334   2.302   4.089 -1.9981 -0.4457  0.2498
  825THF    H1312665   4.430   2.166   4.036 -0.8016  1.2825 -1.4723
  826THF     O112666   1.720   3.619   3.910  0.3073 -0.2292  0.2635
  826THF     C212667   1.812   3.715   3.855 -0.7205  0.4736  0.0842
  826THF     C312668   1.654   3.558   3.800 -0.2143 -0.0267 -0.3950
  826THF     H412669   1.909   3.668   3.870 -2.6713 -3.2149  2.7187
  826THF     H512670   1.814   3.803   3.919  0.4527  0.7587 -0.3137
  826THF     H612671   1.719   3.484   3.754  0.5194  0.7120 -0.5857
  826THF     H712672   1.559   3.509   3.823  0.4492 -1.8654 -1.4145
  826THF     C812673   1.635   3.672   3.703  0.8295  0.3917 -1.2358
  826THF     C912674   1.769   3.737   3.714 -0.1653 -0.8653  0.5304
  826THF    H1012675   1.551   3.738   3.722 -0.0493 -0.7279 -1.0966
  826THF    H1112676   1.620   3.622   3.607  0.0123 -1.5735 -0.1418
  826THF    H1212677   1.842   3.704   3.640  0.1283  2.8474 -1.0385
  826THF    H1312678   1.758   3.842   3.690 -1.1984 -1.3423 -1.3579
  827THF     O112679   0.852   1.593   2.696 -0.2180 -0.2495  0.3745
  827THF     C212680   0.921   1.583   2.815  0.4271 -0.2706 -0.3769
  827THF     C312681   0.729   1.522   2.701  0.0886  0.6185 -0.1103
  827THF     H412682   0.865   1.646   2.883  3.0242  2.2602 -0.3909
  827THF     H512683   1.027   1.606   2.819 -0.1690  2.8753  0.0671
  827THF     H612684   0.645   1.586   2.729  1.6266  3.2084 -1.1193
  827THF     H712685   0.709   1.477   2.604  1.5991 -1.3883  0.4515
  827THF     C812686   0.758   1.404   2.796  0.3650  0.0846  0.1757
  827THF     C912687   0.900   1.433   2.835 -0.5884  0.3108 -0.5464
  827THF    H1012688   0.761   1.305   2.751  0.9919 -0.6101  1.7005
  827THF    H1112689   0.682   1.413   2.873 -0.2597 -0.1252 -0.4073
  827THF    H1212690   0.909   1.405   2.940  0.8842  1.3607 -0.3567
  827THF    H1312691   0.984   1.386   2.783 -0.9703  0.0333 -0.9202
  828THF     O112692   4.703   3.839   4.587 -0.2756 -0.0564 -0.0188
  828THF     C212693   4.767   3.951   4.535 -0.1733 -0.4011  0.1332
  828THF     C312694   4.649   3.769   4.480 -0.5062 -0.0665  0.1758
  828THF     H412695   4.832   3.998   4.608 -0.4508  0.0646  0.0815
  828THF     H512696   4.694   4.028   4.509 -0.9094  0.2983  3.7977
  828THF     H612697   4.611   3.668   4.498 -0.7880  0.0533  0.2472
  828THF     H712698   4.567   3.832   4.445  0.8889  1.0100 -1.3471
  828THF     C812699   4.762   3.770   4.371  0.6754 -1.1659 -0.2645
  828THF     C912700   4.851   3.887   4.411  0.8554  0.2942 -0.1734
  828THF    H1012701   4.720   3.789   4.272 -2.2292 -0.0575  1.0490
  828THF    H1112702   4.808   3.673   4.353 -0.0294 -1.1900 -2.1714
  828THF    H1212703   4.950   3.852   4.439  1.8402  2.6522 -0.4678
  828THF    H1312704   4.872   3.947   4.323 -0.1173  0.9985  0.0541
  829THF     O112705   5.351   2.677   2.728  0.6758  0.3669  0.4076
  829THF     C212706   5.349   2.542   2.690  0.4812  0.6503  0.5039
  829THF     C312707   5.456   2.732   2.652  0.0909 -0.5207  0.4287
  829THF     H412708   5.325   2.537   2.584 -0.7123  1.0907  0.7353
  829THF     H512709   5.281   2.479   2.746 -2.5472  1.2290 -2.2285
  829THF     H612710   5.414   2.726   2.552 -1.8299 -1.3177  1.2213
  829THF     H712711   5.484   2.833   2.680  0.5917 -1.1356  2.3093
  829THF     C812712   5.573   2.630   2.654  0.5481 -0.3773 -0.4355
  829THF     C912713   5.500   2.498   2.690  0.5052  0.3743  0.2911
  829THF    H1012714   5.636   2.668   2.735  2.0358  1.3320 -2.3226
  829THF    H1112715   5.640   2.614   2.570 -0.0265  0.1318 -0.9982
  829THF    H1212716   5.527   2.417   2.624 -0.4309  0.5679 -0.3575
  829THF    H1312717   5.526   2.470   2.792  0.4526 -0.0057  0.1990
  830THF     O112718   1.725   0.297   1.493 -0.4453  0.4791 -0.7285
  830THF     C212719   1.702   0.260   1.358 -0.0466 -0.2696 -0.0267
  830THF     C312720   1.862   0.302   1.504  0.2680  0.3235 -0.7044
  830THF     H412721   1.709   0.350   1.296  0.2096 -0.5067 -0.3537
  830THF     H512722   1.603   0.221   1.335 -0.3838  1.2346 -1.3937
  830THF     H612723   1.901   0.382   1.441  0.1322 -0.0439 -1.2560
  830THF     H712724   1.903   0.314   1.604  0.4447 -0.0793 -0.7265
  830THF     C812725   1.908   0.170   1.441 -0.2471  0.3723 -0.8170
  830THF     C912726   1.815   0.167   1.316  0.0219  0.7898 -0.8131
  830THF    H1012727   1.895   0.082   1.503 -0.2736 -1.1213 -2.8303
  830THF    H1112728   2.010   0.166   1.405 -0.5632 -0.4881 -1.6601
  830THF    H1212729   1.875   0.199   1.231  2.4594 -2.2229 -0.4341
  830THF    H1312730   1.789   0.062   1.298  0.3771 -0.0423  2.7654
  831THF     O112731   2.401   0.625   1.293 -0.1175  0.2266 -0.2873
  831THF     C212732   2.364   0.508   1.374 -0.0853 -0.0408  0.5600
  831THF     C312733   2.338   0.612   1.168 -0.5834 -1.0540 -0.3344
  831THF     H412734   2.376   0.532   1.479 -0.0909  0.2699  0.4915
  831THF     H512735   2.429   0.424   1.348  0.8496  1.0842 -0.9462
  831THF     H612736   2.332   0.704   1.110  0.6232 -1.5969 -1.3685
  831THF     H712737   2.380   0.536   1.103 -0.4176  0.1676 -1.7114
  831THF     C812738   2.197   0.568   1.209 -0.4223  0.2431  0.5072
  831THF     C912739   2.213   0.496   1.345 -0.2469  1.6694 -0.2886
  831THF    H1012740   2.156   0.508   1.128  1.0759  0.5998 -0.5669
  831THF    H1112741   2.129   0.650   1.233  0.0427  0.3065  1.7127
  831THF    H1212742   2.163   0.540   1.431  0.2337  0.0939  0.8498
  831THF    H1312743   2.191   0.389   1.345 -1.9645  1.9908 -0.8321
  832THF     O112744   5.016   5.170   1.952 -0.1387  0.0738 -0.1600
  832THF     C212745   4.906   5.147   1.852 -0.9259 -0.1422  0.4969
  832THF     C312746   4.966   5.255   2.052  0.3545  0.1662 -0.0882
  832THF     H412747   4.906   5.048   1.806 -1.0163  0.0436  0.0928
  832THF     H512748   4.900   5.229   1.780 -0.8083  0.9490  1.7050
  832THF     H612749   5.027   5.257   2.142  1.1881 -0.5869 -0.6083
  832THF     H712750   4.960   5.349   1.998 -0.4791 -0.3211 -0.8819
  832THF     C812751   4.830   5.189   2.082 -0.1643 -0.3109  0.0103
  832THF     C912752   4.780   5.160   1.939 -0.8399 -1.0008  0.2153
  832THF    H1012753   4.770   5.258   2.142 -0.7097 -0.9290  0.1840
  832THF    H1112754   4.837   5.092   2.132 -0.9235  0.1490  1.0513
  832THF    H1212755   4.735   5.061   1.941 -3.1879 -0.1367 -2.5809
  832THF    H1312756   4.704   5.233   1.910 -1.5917 -1.6603  0.4953
  833THF     O112757   1.287   3.147   2.366 -0.4064 -0.6788  0.0861
  833THF     C212758   1.362   3.046   2.304  0.1679  0.3203 -0.2608
  833THF     C312759   1.190   3.195   2.273 -0.1687 -0.4003 -0.0560
  833THF     H412760   1.335   2.944   2.332  3.5622 -0.4724  0.5443
  833THF     H512761   1.468   3.052   2.329 -0.3577  1.8159  1.8592
  833THF     H612762   1.089   3.214   2.310 -0.2401  0.9092 -0.8402
  833THF     H712763   1.225   3.289   2.231  0.8993 -1.2242 -1.0738
  833THF     C812764   1.187   3.092   2.157  0.0899 -0.6275  0.1753
  833THF     C912765   1.332   3.048   2.155  0.0784  0.0351  0.3523
  833THF    H1012766   1.140   3.129   2.066 -0.2136 -0.3765  0.4324
  833THF    H1112767   1.126   3.005   2.182 -0.0084 -0.6389 -0.0979
  833THF    H1212768   1.341   2.950   2.108 -2.8904  1.2891 -3.3893
  833THF    H1312769   1.405   3.120   2.119  0.4765 -0.3615  0.3524
  834THF     O112770   1.498   3.367   2.474  0.7279 -0.1695 -0.3826
  834THF     C212771   1.573   3.356   2.356 -0.0859  0.2950 -0.6092
  834THF     C312772   1.554   3.300   2.581 -0.3771 -0.6345  0.7112
  834THF     H412773   1.595   3.457   2.321 -0.3329  1.2373  1.7378
  834THF     H512774   1.507   3.301   2.290  0.1715 -1.7455  0.7517
  834THF     H612775   1.591   3.384   2.641 -1.2883  0.8432 -0.6873
  834THF     H712776   1.473   3.242   2.625 -1.5961  0.8577  0.5504
  834THF     C812777   1.662   3.213   2.520  0.6310  0.7430  0.2706
  834THF     C912778   1.688   3.266   2.381  0.4525 -0.5902  0.5771
  834THF    H1012779   1.600   3.126   2.496  1.4551 -0.7485  3.1997
  834THF    H1112780   1.742   3.189   2.590  1.5192  1.0398 -0.6142
  834THF    H1212781   1.782   3.320   2.389  0.7028 -0.7161 -1.1817
  834THF    H1312782   1.696   3.178   2.317  0.0776  0.5063 -1.0271
  835THF     O112783   0.257   2.246   4.406 -0.0831  0.0981  0.4023
  835THF     C212784   0.210   2.356   4.476 -0.1110 -0.1429  0.0279
  835THF     C312785   0.392   2.272   4.362 -0.6497 -0.1311 -0.1357
  835THF     H412786   0.224   2.328   4.581  0.9955 -1.8165 -0.5186
  835THF     H512787   0.104   2.367   4.453 -0.1312  0.1852  0.2829
  835THF     H612788   0.471   2.275   4.437 -1.0656 -0.9608  0.3513
  835THF     H712789   0.407   2.201   4.281  0.1240 -0.7408  0.5257
  835THF     C812790   0.382   2.421   4.322  0.9144  0.9366 -0.2877
  835THF     C912791   0.299   2.475   4.438  0.1645 -0.0676 -0.8797
  835THF    H1012792   0.323   2.414   4.231  1.2184 -1.6353 -0.3756
  835THF    H1112793   0.486   2.454   4.322  2.0590 -2.2401  0.4361
  835THF    H1212794   0.370   2.503   4.516  1.0357 -0.7872 -1.4004
  835THF    H1312795   0.242   2.568   4.431  1.7006  1.4829  3.6090
  836THF     O112796   5.358   4.347   2.136 -0.7473  0.3941 -0.3350
  836THF     C212797   5.370   4.470   2.201 -0.0317 -0.1412 -0.5368
  836THF     C312798   5.487   4.296   2.104 -0.4634  0.5102  0.0403
  836THF     H412799   5.297   4.494   2.278  0.8861  1.7600 -0.2019
  836THF     H512800   5.372   4.555   2.133  0.1775 -0.4798 -0.9619
  836THF     H612801   5.486   4.194   2.067  0.2660  1.0311 -1.5125
  836THF     H712802   5.535   4.347   2.020 -1.3442 -0.4448 -1.0606
  836THF     C812803   5.570   4.328   2.231  0.5158 -0.4570 -0.3209
  836THF     C912804   5.499   4.454   2.282  0.2074 -0.2489 -0.3648
  836THF    H1012805   5.677   4.347   2.218  0.7291 -0.9556  0.5816
  836THF    H1112806   5.564   4.247   2.303  1.4006 -0.3019 -0.0552
  836THF    H1212807   5.480   4.449   2.390 -1.0454  0.1594 -0.5521
  836THF    H1312808   5.574   4.532   2.267 -0.7339  0.9552  0.8806
  837THF     O112809   2.625   3.430   1.533  0.0810 -0.7354  0.0718
  837THF     C212810   2.597   3.529   1.439 -0.1045  0.0752  0.2095
  837THF     C312811   2.559   3.461   1.656 -0.4409  0.5114 -0.0459
  837THF     H412812   2.510   3.500   1.381 -0.8403  0.1901  1.2212
  837THF     H512813   2.685   3.542   1.376  1.2689  1.4911  2.2862
  837THF     H612814   2.510   3.366   1.678  1.1361 -0.0497  1.2087
  837THF     H712815   2.629   3.494   1.733  0.2093 -0.7884 -0.0556
  837THF     C812816   2.476   3.582   1.622  0.3043 -0.2568  0.1365
  837THF     C912817   2.558   3.653   1.519  0.3030  0.6674 -0.1181
  837THF    H1012818   2.464   3.638   1.715 -1.2491  0.3020 -0.3764
  837THF    H1112819   2.378   3.550   1.588  0.3608  0.6501 -0.9275
  837THF    H1212820   2.505   3.725   1.457  2.6659  2.3108 -0.3310
  837THF    H1312821   2.636   3.703   1.576  0.9488 -1.7350  1.2557
  838THF     O112822   4.126   3.976   0.671 -0.4031 -0.1920  0.2036
  838THF     C212823   4.099   3.961   0.809  0.0853  0.0578  0.9795
  838THF     C312824   4.194   4.107   0.668  0.2535  0.6857  0.3969
  838THF     H412825   4.090   3.853   0.822 -0.5746 -0.1863 -1.0696
  838THF     H512826   4.006   4.009   0.840  0.2423  0.9605  0.1096
  838THF     H612827   4.227   4.129   0.566 -0.1151  0.7382  0.2879
  838THF     H712828   4.116   4.179   0.693 -0.7609 -0.2177 -0.0672
  838THF     C812829   4.301   4.082   0.776  0.4625 -0.7543  0.4181
  838THF     C912830   4.220   4.019   0.889  0.5790 -0.1864  0.2791
  838THF    H1012831   4.346   4.177   0.806 -0.2836 -0.3967  0.4374
  838THF    H1112832   4.374   4.014   0.732  2.0682  0.7825  0.6007
  838THF    H1212833   4.250   3.935   0.952 -1.4793 -0.4674  0.9760
  838THF    H1312834   4.192   4.101   0.956  0.5431 -0.1613  0.2322
  839THF     O112835   0.625   3.063   1.772 -0.1642 -0.2848 -0.4197
  839THF     C212836   0.689   3.177   1.716 -0.3016  0.1404 -0.1472
  839THF     C312837   0.488   3.064   1.731 -0.2824 -0.1588 -0.1177
  839THF     H412838   0.787   3.153   1.674 -0.4505 -2.3996  0.7777
  839THF     H512839   0.709   3.251   1.793 -0.5484 -0.5054  0.5440
  839THF     H612840   0.449   2.968   1.698 -1.1242  0.3293 -0.5690
  839THF     H712841   0.428   3.092   1.817  0.3828 -2.3293  1.1448
  839THF     C812842   0.472   3.162   1.610 -1.2018  0.4667 -0.2539
  839THF     C912843   0.593   3.249   1.620  0.1149  0.4507 -0.2065
  839THF    H1012844   0.374   3.208   1.617 -2.1058 -1.5165  0.7551
  839THF    H1112845   0.474   3.105   1.517 -1.2558  0.5708 -0.3194
  839THF    H1212846   0.635   3.270   1.522 -0.2775  0.9315 -0.2741
  839THF    H1312847   0.562   3.346   1.659 -1.5179  0.3759 -1.2486
  840THF     O112848   0.255   1.039   0.299  0.8235 -0.4937 -0.0124
  840THF     C212849   0.233   1.164   0.240  0.5492  0.3605  0.4185
  840THF     C312850   0.276   0.955   0.183  0.6905  0.5131 -0.3903
  840THF     H412851   0.246   1.243   0.315  2.2063  0.5172  0.0030
  840THF     H512852   0.129   1.160   0.206  0.6160 -0.7562  0.3345
  840THF     H612853   0.324   0.860   0.208 -1.5827 -0.1749  1.9066
  840THF     H712854   0.175   0.923   0.154  1.3571 -1.0137 -1.1441
  840THF     C812855   0.351   1.024   0.076  0.0533  0.0273 -0.0574
  840THF     C912856   0.324   1.176   0.117 -0.8438  0.1007 -0.0339
  840THF    H1012857   0.298   0.983  -0.010  0.3679  0.5239 -0.4935
  840THF    H1112858   0.457   0.999   0.083 -0.3600 -1.6350  0.7097
  840THF    H1212859   0.417   1.228   0.138  0.9673 -1.9725 -2.2362
  840THF    H1312860   0.286   1.239   0.036 -0.4684 -0.5842 -0.7675
  841THF     O112861   5.075   1.019   1.204  0.2105  0.5012 -0.4437
  841THF     C212862   5.010   0.894   1.222 -0.3672  0.4585 -0.2175
  841THF     C312863   4.974   1.117   1.230  0.1560  0.3963  0.6041
  841THF     H412864   4.999   0.878   1.329 -0.8757  0.0074 -0.3352
  841THF     H512865   5.054   0.805   1.176 -0.2064  0.4286 -0.0044
  841THF     H612866   4.989   1.177   1.320  1.4703  2.4718 -0.8942
  841THF     H712867   4.980   1.191   1.150  0.2724  0.9189  1.0927
  841THF     C812868   4.840   1.047   1.219 -0.1001  0.7759  0.0257
  841THF     C912869   4.874   0.911   1.165 -0.6424 -0.2338 -0.0993
  841THF    H1012870   4.769   1.107   1.162 -0.4240  2.0654  1.7225
  841THF    H1112871   4.798   1.043   1.320 -0.6988  1.2295 -0.1970
  841THF    H1212872   4.807   0.830   1.194 -0.6168 -0.3661 -0.4047
  841THF    H1312873   4.877   0.926   1.057 -1.9067  1.0444  0.0054
  842THF     O112874   2.085   3.069   2.823 -0.2939  0.2674  0.4729
  842THF     C212875   2.210   3.012   2.843 -0.7246  0.7202 -0.5509
  842THF     C312876   2.059   3.142   2.943 -0.3403 -0.0267 -0.0375
  842THF     H412877   2.260   2.993   2.748  1.1060  0.2232  0.4742
  842THF     H512878   2.202   2.916   2.894  1.2435 -0.0326 -1.5639
  842THF     H612879   1.975   3.211   2.936 -1.3806 -1.3561 -1.7424
  842THF     H712880   2.044   3.069   3.022  0.5638  0.1886  0.3399
  842THF     C812881   2.188   3.216   2.950  0.7532  0.3648  0.3702
  842THF     C912882   2.292   3.107   2.926  0.4287 -0.4951 -0.3385
  842THF    H1012883   2.187   3.270   3.045 -0.9412  0.5875  0.2690
  842THF    H1112884   2.192   3.293   2.873  0.8180 -0.1828 -0.1822
  842THF    H1212885   2.367   3.160   2.866 -1.4204  0.9034 -1.5470
  842THF    H1312886   2.331   3.053   3.012 -0.2854 -2.6252 -1.2818
  843THF     O112887   2.584   1.406   1.451  0.4381  0.4782  0.1438
  843THF     C212888   2.491   1.499   1.507  0.3572 -0.2406 -0.4799
  843THF     C312889   2.630   1.458   1.327 -0.0385  0.5475 -0.2861
  843THF     H412890   2.474   1.495   1.615 -0.7965 -2.4453 -0.6786
  843THF     H512891   2.392   1.484   1.463  0.0184  0.4094  0.0428
  843THF     H612892   2.724   1.409   1.301 -0.5887 -2.3210  2.5591
  843THF     H712893   2.572   1.448   1.235  3.1065 -1.2694 -2.2514
  843THF     C812894   2.659   1.603   1.366  0.9919 -0.1095 -0.2088
  843THF     C912895   2.551   1.631   1.466 -0.4190 -0.3253 -0.3570
  843THF    H1012896   2.645   1.652   1.270 -1.5811 -0.0049  0.1398
  843THF    H1112897   2.763   1.604   1.397  0.6400 -0.3617  1.0285
  843THF    H1212898   2.594   1.673   1.557 -0.9722  0.5143 -0.4831
  843THF    H1312899   2.477   1.697   1.422 -0.8517 -0.4367  0.2008
  844THF     O112900   3.369   3.293   1.501  0.0568  0.3436  0.2798
  844THF     C212901   3.257   3.266   1.581 -0.8019 -0.2048 -0.0786
  844THF     C312902   3.481   3.268   1.583 -0.0827  0.0232  0.3646
  844THF     H412903   3.166   3.261   1.521 -0.7900  2.6472 -0.4500
  844THF     H512904   3.242   3.340   1.660 -1.0832  2.2865 -2.3182
  844THF     H612905   3.565   3.252   1.514 -1.0684  0.6585 -1.0236
  844THF     H712906   3.495   3.352   1.650 -1.7979  1.2139 -0.7112
  844THF     C812907   3.450   3.135   1.659  0.5574 -0.6623  0.3709
  844THF     C912908   3.300   3.135   1.648  0.5844 -0.2144  0.6838
  844THF    H1012909   3.479   3.141   1.764 -1.1950 -2.2174  0.9936
  844THF    H1112910   3.499   3.052   1.608  1.7782  0.5390 -0.4827
  844THF    H1212911   3.262   3.050   1.592 -0.0025  0.0661  0.6449
  844THF    H1312912   3.246   3.122   1.742 -0.9994 -0.4644 -0.2271
  845THF     O112913   0.059   3.463   2.320 -0.0722 -0.1226 -0.0301
  845THF     C212914   0.119   3.407   2.202 -0.3192  0.4528 -0.0218
  845THF     C312915  -0.073   3.506   2.291 -0.0305  0.3862 -0.7814
  845THF     H412916   0.134   3.300   2.210  2.8362  0.8807  1.3566
  845THF     H512917   0.220   3.445   2.183  1.6167 -3.3889  1.5953
  845THF     H612918  -0.141   3.423   2.309  0.4840 -0.0452 -0.7801
  845THF     H712919  -0.100   3.585   2.361 -0.6052  0.1635 -0.7496
  845THF     C812920  -0.060   3.551   2.146 -0.5309 -0.3707 -0.2062
  845THF     C912921   0.031   3.447   2.091  0.5968  0.2185  0.2960
  845THF    H1012922  -0.011   3.648   2.136  0.9869 -1.1980 -1.0143
  845THF    H1112923  -0.155   3.553   2.092 -0.6880 -1.2852  0.0346
  845THF    H1212924  -0.035   3.366   2.060 -0.2726  1.2990 -0.8175
  845THF    H1312925   0.083   3.486   2.003  1.6820 -0.6086  0.5530
  846THF     O112926   1.485   0.968   1.968 -0.2729  0.2450 -0.6463
  846THF     C212927   1.590   1.007   1.888  0.6961 -0.0036  0.2011
  846THF     C312928   1.380   1.061   1.941  0.0159  0.0741  0.6313
  846THF     H412929   1.643   0.923   1.843  0.0330 -0.5941  0.5126
  846THF     H512930   1.667   1.056   1.948  0.6291  2.0795 -1.2892
  846THF     H612931   1.304   0.998   1.895 -1.9216  1.2058  2.1167
  846THF     H712932   1.343   1.103   2.035 -0.4647 -1.5372  1.1918
  846THF     C812933   1.438   1.168   1.848 -0.3924 -0.3030  0.1692
  846THF     C912934   1.539   1.091   1.776  0.5014  0.2504  0.0257
  846THF    H1012935   1.481   1.249   1.907 -0.9229  0.7811 -0.8818
  846THF    H1112936   1.373   1.212   1.772  0.0202  1.4924  0.8054
  846THF    H1212937   1.496   1.037   1.691 -0.1726  3.2741 -1.6977
  846THF    H1312938   1.614   1.156   1.731 -0.5808  1.5768  0.0816
  847THF     O112939   0.196   4.932   2.677 -0.1249  0.2326 -0.3073
  847THF     C212940   0.130   4.807   2.684 -0.2659  0.3686 -0.0772
  847THF     C312941   0.275   4.952   2.793  0.3884  0.1115 -0.6397
  847THF     H412942   0.170   4.731   2.618  0.3788 -0.8156  1.6058
  847THF     H512943   0.028   4.823   2.648 -0.4644 -1.1401 -0.2446
  847THF     H612944   0.375   4.980   2.762  1.0910 -0.8281  0.6796
  847THF     H712945   0.234   5.031   2.857 -0.7010  0.4195 -1.6697
  847THF     C812946   0.269   4.817   2.871  0.2376 -0.0853 -0.1769
  847THF     C912947   0.131   4.770   2.834 -0.0959 -0.1646  0.3242
  847THF    H1012948   0.274   4.835   2.978 -3.8121  0.8273  0.0124
  847THF    H1112949   0.352   4.752   2.842  0.3798  0.8986 -2.1125
  847THF    H1212950   0.112   4.666   2.863  0.9509 -0.3598  0.3420
  847THF    H1312951   0.058   4.837   2.879 -0.3758  0.2283 -0.7047
  848THF     O112952   1.476   4.169   2.444 -0.2744 -0.2948 -0.5336
  848THF     C212953   1.459   4.265   2.349  1.0019 -0.2740  0.3572
  848THF     C312954   1.360   4.171   2.523  0.0563 -0.9184  0.8590
  848THF     H412955   1.520   4.238   2.262  1.4577 -2.0526  1.1828
  848THF     H512956   1.495   4.364   2.378 -3.4474  2.3283 -1.9103
  848THF     H612957   1.350   4.079   2.582  0.0953 -0.2162  2.0052
  848THF     H712958   1.361   4.248   2.601  1.6687  1.2908 -1.2209
  848THF     C812959   1.249   4.193   2.420  0.0411 -0.5629 -0.1692
  848THF     C912960   1.311   4.276   2.312 -0.0550  0.0885 -0.5134
  848THF    H1012961   1.165   4.237   2.474  2.1858  1.0886  2.0445
  848THF    H1112962   1.222   4.097   2.376 -1.7844  0.2118 -0.8321
  848THF    H1212963   1.290   4.230   2.216  1.4656  0.9280 -1.2964
  848THF    H1312964   1.279   4.380   2.311  1.5791  0.6222 -1.4538
  849THF     O112965   2.974   2.350   0.608  0.0582  0.2602 -0.4082
  849THF     C212966   3.087   2.380   0.693  0.0108  0.1272  0.2596
  849THF     C312967   2.913   2.476   0.581 -0.2372  0.2969 -0.3647
  849THF     H412968   3.155   2.295   0.682  1.3083  1.3020 -1.4818
  849THF     H512969   3.057   2.398   0.796  1.7102 -1.3727  1.0663
  849THF     H612970   2.835   2.468   0.505 -0.5299 -2.1802  0.1321
  849THF     H712971   2.863   2.515   0.669  1.1542  1.8001 -0.1895
  849THF     C812972   3.032   2.556   0.529  0.0059  0.4786 -0.2316
  849THF     C912973   3.148   2.504   0.611  0.5864  0.4103 -0.2344
  849THF    H1012974   3.023   2.664   0.545  2.6797  0.5101  1.8111
  849THF    H1112975   3.044   2.533   0.424 -0.5644 -0.0531 -0.1858
  849THF    H1212976   3.228   2.476   0.542 -0.3563 -0.2827 -1.0928
  849THF    H1312977   3.175   2.585   0.678  0.9374 -0.1844  0.3511
  850THF     O112978   1.415   4.990   4.644  0.2998  0.2429  0.0797
  850THF     C212979   1.499   5.042   4.537 -0.2187  0.0827 -0.0247
  850THF     C312980   1.485   5.020   4.765  0.2089 -0.6270 -0.1685
  850THF     H412981   1.462   5.051   4.435 -0.8734  1.6592  0.3157
  850THF     H512982   1.580   4.970   4.550 -0.3753  0.0181  0.6770
  850THF     H612983   1.418   5.010   4.850 -2.9805  1.0394 -2.2726
  850THF     H712984   1.569   4.951   4.773  1.6988  0.6900 -2.8710
  850THF     C812985   1.544   5.165   4.741 -0.3381  0.3365 -0.6975
  850THF     C912986   1.548   5.171   4.594 -0.6221 -0.4423  0.3682
  850THF    H1012987   1.638   5.176   4.795 -0.7781 -1.8000  0.6077
  850THF    H1112988   1.474   5.244   4.770  0.5560  1.9266 -2.6379
  850THF    H1212989   1.494   5.261   4.565  1.7182  1.5997  1.9370
  850THF    H1312990   1.649   5.190   4.558 -1.4031 -0.1385 -1.7807
  851THF     O112991   1.426   3.257   3.636  0.1930  0.0571  0.0749
  851THF     C212992   1.459   3.121   3.661 -0.5288 -0.4762 -0.0419
  851THF     C312993   1.356   3.255   3.514 -0.4838 -0.2206 -0.1589
  851THF     H412994   1.484   3.114   3.767  0.1417  1.8950  0.0025
  851THF     H512995   1.538   3.080   3.597 -0.0973 -0.3507  0.4049
  851THF     H612996   1.290   3.339   3.497  2.7359  2.6070  0.1505
  851THF     H712997   1.421   3.262   3.427  1.8265  2.4712  1.5852
  851THF     C812998   1.285   3.120   3.510  0.0413  0.6017 -0.2506
  851THF     C912999   1.330   3.055   3.638 -0.2359 -0.3228 -0.2819
  851THF    H1013000   1.323   3.064   3.425 -0.7206  1.5723 -1.2593
  851THF    H1113001   1.177   3.126   3.514 -0.1014 -1.6669  1.7173
  851THF    H1213002   1.258   3.068   3.719 -1.4796 -0.5195 -1.3158
  851THF    H1313003   1.334   2.948   3.616  1.0220  0.0725 -2.1533
  852THF     O113004   1.221   2.772   4.283 -0.5459  0.2729  0.0615
  852THF     C213005   1.114   2.689   4.288  0.2397  0.4848  0.3343
  852THF     C313006   1.196   2.884   4.375 -0.6278 -0.6910  0.4011
  852THF     H413007   1.145   2.586   4.308 -2.6490 -0.5124  0.0987
  852THF     H513008   1.064   2.678   4.192  2.1590  0.9082 -0.7731
  852THF     H613009   1.251   2.865   4.468 -1.8939 -1.4380  1.0233
  852THF     H713010   1.226   2.979   4.330  1.3563 -0.4858  1.9775
  852THF     C813011   1.051   2.882   4.406 -0.0410  0.0543 -0.2121
  852THF     C913012   1.023   2.737   4.401  0.5694 -0.3000 -0.3528
  852THF    H1013013   1.003   2.938   4.326  1.7921  0.8814 -0.7913
  852THF    H1113014   1.009   2.928   4.496 -3.2571  1.0240 -2.0288
  852THF    H1213015   1.049   2.684   4.492 -0.3720  0.6989  0.5267
  852THF    H1313016   0.919   2.713   4.378 -0.0696  1.5135  0.5152
  853THF     O113017   4.485   3.961   2.154 -0.0545 -0.4977  0.0242
  853THF     C213018   4.347   3.913   2.146  0.0751  0.2941  0.4650
  853THF     C313019   4.469   4.104   2.140  0.6401 -0.4634 -0.4390
  853THF     H413020   4.336   3.821   2.203  1.2466 -0.3324 -0.2801
  853THF     H513021   4.337   3.877   2.043  2.9157  0.0936  0.1975
  853THF     H613022   4.556   4.161   2.173 -0.1852 -0.2940  1.6191
  853THF     H713023   4.454   4.131   2.035 -1.8368  2.9011  0.6028
  853THF     C813024   4.355   4.135   2.231  0.2757  0.1553  0.0866
  853THF     C913025   4.255   4.029   2.192  0.1333 -0.2670  0.0615
  853THF    H1013026   4.310   4.233   2.213 -1.0775 -0.6969 -1.3212
  853THF    H1113027   4.393   4.125   2.333  0.7868  2.0957  0.1264
  853THF    H1213028   4.192   4.001   2.276 -0.1962  0.7803  0.1881
  853THF    H1313029   4.196   4.054   2.104  1.4795 -2.3389 -1.5090
  854THF     O113030   0.905   4.486   1.068  0.4049  0.1737  0.1696
  854THF     C213031   0.791   4.547   1.005 -0.4135 -0.0210  0.2285
  854THF     C313032   0.954   4.583   1.162  0.2124  0.1305 -0.5025
  854THF     H413033   0.740   4.463   0.958 -0.9560  1.3235 -1.7195
  854THF     H513034   0.819   4.626   0.936 -2.4602  1.7624  1.3071
  854THF     H613035   1.019   4.534   1.234 -0.5666  0.7286  0.6512
  854THF     H713036   1.007   4.662   1.110 -0.5876  0.4506 -0.8536
  854THF     C813037   0.829   4.642   1.225  0.2539  0.0800  0.2524
  854THF     C913038   0.720   4.602   1.130 -0.0531  0.0764  0.3890
  854THF    H1013039   0.833   4.751   1.227  0.4766  0.1322 -1.4503
  854THF    H1113040   0.818   4.595   1.323  0.4326  0.2341  0.3460
  854THF    H1213041   0.662   4.521   1.175  2.1567 -1.5058  0.5789
  854THF    H1313042   0.645   4.677   1.108 -0.7059 -0.3184  1.2120
  855THF     O113043   1.878   0.412   4.657 -0.0798 -0.0539 -0.3381
  855THF     C213044   1.922   0.516   4.741  0.0697  0.3641 -0.3908
  855THF     C313045   1.941   0.421   4.535  0.1000 -0.3430 -0.0492
  855THF     H413046   2.014   0.481   4.786 -0.9830 -0.8251  0.9062
  855THF     H513047   1.845   0.523   4.818  1.6702  0.0197  1.2995
  855THF     H613048   2.045   0.393   4.550 -0.1953 -0.6577  1.5766
  855THF     H713049   1.886   0.372   4.454 -1.3077 -0.9768  1.2339
  855THF     C813050   1.922   0.571   4.507 -0.4026  0.4702  0.0364
  855THF     C913051   1.939   0.629   4.646 -0.0215 -0.4276  0.3256
  855THF    H1013052   1.818   0.584   4.477 -0.7073  0.1208  0.9316
  855THF    H1113053   1.987   0.614   4.430  2.6265 -1.9349  1.0338
  855THF    H1213054   2.042   0.662   4.652  0.2236 -0.0767 -3.4060
  855THF    H1313055   1.860   0.702   4.666 -1.1385 -0.2003 -3.8044
  856THF     O113056   3.757   2.386   0.061  0.0072  0.1060  0.2223
  856THF     C213057   3.867   2.308   0.112  0.1594 -0.4447  0.1962
  856THF     C313058   3.636   2.325   0.103 -0.2678 -0.2169 -0.3897
  856THF     H413059   3.894   2.342   0.212  0.7423 -0.4649  0.0459
  856THF     H513060   3.956   2.330   0.054 -0.5933  1.5339 -0.3014
  856THF     H613061   3.611   2.356   0.204  1.2186 -4.3413  1.4696
  856THF     H713062   3.552   2.356   0.042 -2.0520  0.1507  2.1059
  856THF     C813063   3.667   2.179   0.081  1.0081 -0.0189  0.8569
  856THF     C913064   3.817   2.171   0.108 -0.5589  0.8284  0.4515
  856THF    H1013065   3.659   2.163  -0.026  1.6208  1.4222  0.5661
  856THF    H1113066   3.612   2.106   0.140  0.5842 -0.2564  0.1746
  856THF    H1213067   3.841   2.117   0.200 -0.0612 -2.2425 -1.3452
  856THF    H1313068   3.851   2.117   0.020 -2.0641  1.0095 -0.2818
  857THF     O113069   1.612   0.979   2.996  0.0575 -0.3576 -0.0531
  857THF     C213070   1.571   0.849   2.978  0.1864  0.2363 -0.1404
  857THF     C313071   1.626   1.003   3.136 -0.8931 -0.2012  0.5564
  857THF     H413072   1.645   0.785   2.931  1.1016 -0.1249  1.6855
  857THF     H513073   1.490   0.857   2.905 -0.0785 -0.9068 -0.0057
  857THF     H613074   1.716   0.968   3.188  0.1499 -1.6449 -2.0713
  857THF     H713075   1.633   1.111   3.145 -0.1170 -0.1611 -0.4186
  857THF     C813076   1.519   0.923   3.199 -0.0378  0.2130 -0.0834
  857THF     C913077   1.520   0.796   3.113 -0.0215 -0.3368  0.1734
  857THF    H1013078   1.421   0.970   3.190  0.8644  1.9646 -1.4712
  857THF    H1113079   1.531   0.891   3.302 -0.1454  1.3686  0.2997
  857THF    H1213080   1.591   0.729   3.162  1.9086  1.9126  0.6417
  857THF    H1313081   1.425   0.744   3.107  0.6394 -1.5539 -0.1362
  858THF     O113082   4.512   3.107   3.774  0.3158  0.0026 -0.0730
  858THF     C213083   4.419   3.077   3.675  0.5562  0.5270  0.0199
  858THF     C313084   4.444   3.129   3.903  0.5986 -0.6895  0.0561
  858THF     H413085   4.482   3.026   3.601  0.5405  1.3953 -0.5953
  858THF     H513086   4.361   3.155   3.627 -1.2056 -1.8678 -2.0805
  858THF     H613087   4.493   3.128   4.000 -2.4196 -0.9859  1.7046
  858THF     H713088   4.416   3.234   3.892  2.1355 -0.3201 -0.5426
  858THF     C813089   4.311   3.041   3.895 -0.2464  0.2461 -0.1942
  858THF     C913090   4.326   2.981   3.755 -0.1987  0.1136 -0.0762
  858THF    H1013091   4.221   3.102   3.908 -0.8190 -0.8315  1.0809
  858THF    H1113092   4.320   2.955   3.961  3.0604  0.0389 -0.7236
  858THF    H1213093   4.384   2.889   3.764  0.8942  0.7642 -0.2454
  858THF    H1313094   4.238   2.957   3.696 -0.5188  1.5493 -0.2269
  859THF     O113095   3.529   2.418   4.696  0.1165 -0.2219 -0.0325
  859THF     C213096   3.487   2.476   4.809  0.7179 -0.5628 -0.8038
  859THF     C313097   3.589   2.290   4.725  0.3966  0.6992 -0.3118
  859THF     H413098   3.420   2.562   4.803  2.9455  1.7632  3.2195
  859THF     H513099   3.575   2.521   4.855 -0.0130 -0.1712  0.2777
  859THF     H613100   3.592   2.215   4.647 -0.6803  0.1186  0.1790
  859THF     H713101   3.693   2.307   4.753 -0.4663  3.6477  1.6385
  859THF     C813102   3.492   2.238   4.838 -0.1026 -0.7818  0.3816
  859THF     C913103   3.427   2.366   4.899  1.1783  1.0550 -0.0816
  859THF    H1013104   3.538   2.180   4.918  2.7384 -1.4415 -1.5528
  859THF    H1113105   3.422   2.165   4.796  0.4725 -3.0574  3.0957
  859THF    H1213106   3.320   2.356   4.883  1.2130 -1.8175  1.0160
  859THF    H1313107   3.449   2.398   5.001 -1.0100  0.5756  0.5870
  860THF     O113108   2.572   0.125   5.291 -0.3348  0.2401  0.3305
  860THF     C213109   2.522   0.215   5.187 -0.0459  0.5721 -0.8752
  860THF     C313110   2.557   0.196   5.420 -0.2487 -0.8053  0.6307
  860THF     H413111   2.419   0.196   5.156 -0.2244 -1.1348  0.6405
  860THF     H513112   2.587   0.192   5.102 -0.5071  0.2486 -1.1459
  860THF     H613113   2.467   0.151   5.462 -0.0848 -1.4208  0.3380
  860THF     H713114   2.641   0.171   5.485 -0.2501  0.1029  1.0023
  860THF     C813115   2.555   0.343   5.382  0.3716  0.1874 -0.5099
  860THF     C913116   2.530   0.358   5.237  0.2122  0.2791  0.7826
  860THF    H1013117   2.656   0.383   5.385 -0.4920  2.6063 -0.8816
  860THF    H1113118   2.482   0.400   5.440 -2.1922 -1.7856 -1.5780
  860THF    H1213119   2.434   0.407   5.222  0.2779  0.4113  0.7941
  860THF    H1313120   2.603   0.422   5.188 -0.1178 -0.9228 -1.3692
  861THF     O113121   1.317   2.715   2.222 -0.2783  0.8232 -0.0156
  861THF     C213122   1.307   2.662   2.096  0.1232 -0.3594 -0.2010
  861THF     C313123   1.354   2.602   2.309  0.1051 -0.0185  0.0435
  861THF     H413124   1.290   2.741   2.024 -0.7740  2.1042  2.5415
  861THF     H513125   1.223   2.592   2.099 -0.5515  0.4754  1.1029
  861THF     H613126   1.387   2.615   2.412 -2.4437 -1.4247  1.1193
  861THF     H713127   1.264   2.540   2.314  1.3681 -1.9383 -0.0755
  861THF     C813128   1.472   2.539   2.226  0.2648  0.0266 -0.0159
  861THF     C913129   1.434   2.578   2.083 -0.4815  0.2531  0.2368
  861THF    H1013130   1.489   2.432   2.238 -2.5079 -0.5481 -0.4895
  861THF    H1113131   1.561   2.595   2.255 -0.9998  1.4055  1.3913
  861THF    H1213132   1.511   2.633   2.029  0.1737  0.0911  0.9810
  861THF    H1313133   1.425   2.492   2.016 -1.0553  0.2772  0.2861
  862THF     O113134   2.482   4.732   4.914 -0.3366  0.2280 -0.0320
  862THF     C213135   2.412   4.603   4.884  0.3390 -0.0284 -0.0206
  862THF     C313136   2.616   4.680   4.917 -0.2155  0.2273 -0.0572
  862THF     H413137   2.425   4.584   4.777 -0.4156  1.5917 -0.4366
  862THF     H513138   2.305   4.613   4.903  0.2081  2.1122 -1.4410
  862THF     H613139   2.645   4.667   4.812 -0.5125 -0.7455 -0.0279
  862THF     H713140   2.685   4.753   4.959 -2.2057  1.0086  1.9824
  862THF     C813141   2.612   4.563   5.005 -0.1413  0.7313  0.1845
  862THF     C913142   2.477   4.496   4.971  0.7237  0.8825 -0.2044
  862THF    H1013143   2.609   4.603   5.106 -1.2474  1.9766 -0.3045
  862THF    H1113144   2.703   4.505   4.994  0.6314  2.0694 -0.7965
  862THF    H1213145   2.497   4.397   4.930  1.8253  1.1915 -0.4630
  862THF    H1313146   2.409   4.494   5.056  1.4906  0.7173  0.4183
  863THF     O113147   4.440   2.472   0.063  0.3457  0.6823 -0.0164
  863THF     C213148   4.408   2.376   0.165  0.5749  0.6076 -0.2786
  863THF     C313149   4.345   2.464  -0.043  0.3743  0.0027 -0.1182
  863THF     H413150   4.414   2.428   0.260 -1.4752 -0.9056  0.7697
  863THF     H513151   4.477   2.292   0.168 -1.5702 -1.3371 -1.6347
  863THF     H613152   4.359   2.554  -0.103  4.2992  0.5082  1.3001
  863THF     H713153   4.375   2.394  -0.121 -1.3840  0.7027 -1.4989
  863THF     C813154   4.214   2.424   0.023  0.4262  0.0780 -0.6285
  863THF     C913155   4.257   2.334   0.141  0.5397  0.3361  0.4382
  863THF    H1013156   4.145   2.376  -0.047  0.1305 -0.6821  0.1726
  863THF    H1113157   4.172   2.515   0.067 -0.3062 -0.1851 -0.7756
  863THF    H1213158   4.193   2.361   0.225 -0.3197  0.2426 -0.1787
  863THF    H1313159   4.245   2.227   0.124  2.2141  0.2385 -0.3156
  864THF     O113160   4.138   0.625   4.346  0.1077  0.0216 -0.1516
  864THF     C213161   4.002   0.622   4.315  0.6163 -0.0588 -0.3805
  864THF     C313162   4.215   0.662   4.239 -0.1588  0.3703  0.2779
  864THF     H413163   3.949   0.660   4.403 -1.8884 -2.3972 -0.7379
  864THF     H513164   3.990   0.514   4.312  1.5185 -0.2011  0.5633
  864THF     H613165   4.258   0.762   4.249  0.9179  0.2096 -2.1674
  864THF     H713166   4.303   0.599   4.226 -0.1253  0.6522 -0.8940
  864THF     C813167   4.118   0.647   4.120 -0.7548  0.3497  0.4277
  864THF     C913168   3.980   0.678   4.180  0.4794 -0.1577 -0.3464
  864THF    H1013169   4.117   0.544   4.085 -1.0836  0.9848 -1.5818
  864THF    H1113170   4.147   0.716   4.040  0.1403 -1.2152 -0.6359
  864THF    H1213171   3.975   0.785   4.203 -0.1138  0.2722 -2.2245
  864THF    H1313172   3.898   0.640   4.119 -0.1807  0.2404  0.2823
  865THF     O113173   1.283   5.242   4.984 -0.2281 -0.4293 -1.2550
  865THF     C213174   1.184   5.160   5.055 -0.3013  0.5978  0.8312
  865THF     C313175   1.307   5.357   5.059 -0.0321  0.0276 -1.3121
  865THF     H413176   1.231   5.065   5.078 -1.0809 -1.0518 -3.3590
  865THF     H513177   1.104   5.157   4.980  1.1817  0.5416 -0.8213
  865THF     H613178   1.409   5.393   5.055 -0.4357  1.3825 -0.1281
  865THF     H713179   1.243   5.439   5.025  0.4126  1.7242  1.6150
  865THF     C813180   1.272   5.322   5.208 -0.2359 -0.6433  0.2911
  865THF     C913181   1.149   5.234   5.180 -0.6536 -0.3048 -0.0135
  865THF    H1013182   1.236   5.410   5.261  0.5271  0.0412 -0.2904
  865THF    H1113183   1.341   5.271   5.275 -0.9400 -0.3873  1.2231
  865THF    H1213184   1.133   5.170   5.267  0.8461 -0.9152 -0.1448
  865THF    H1313185   1.064   5.300   5.163 -0.6850 -0.2479  0.3651
  866THF     O113186   0.184   2.382   5.008  0.0051  0.3232 -0.6138
  866THF     C213187   0.187   2.335   4.875  0.4510 -0.3423 -0.5076
  866THF     C313188   0.275   2.311   5.086 -0.3614 -0.5179 -0.1417
  866THF     H413189   0.142   2.407   4.807  1.0511  0.1493 -0.3905
  866THF     H513190   0.142   2.235   4.869 -0.1921 -0.1188  0.3092
  866THF     H613191   0.307   2.359   5.179 -0.4856 -1.0606  0.1866
  866THF     H713192   0.226   2.221   5.123  0.7738 -0.1928  2.4169
  866THF     C813193   0.392   2.282   4.987 -0.7286 -0.6595 -0.1838
  866THF     C913194   0.335   2.324   4.848  0.6471  0.3696  0.1622
  866THF    H1013195   0.419   2.178   4.971 -0.6693 -0.6443 -0.1858
  866THF    H1113196   0.490   2.330   4.996  0.2848 -2.6239 -0.2574
  866THF    H1213197   0.384   2.420   4.830  0.7876  0.2961  0.1477
  866THF    H1313198   0.363   2.259   4.765  0.5388  0.6153 -0.0713
  867THF     O113199   3.596   4.599   0.763 -0.4793 -0.8170 -0.1176
  867THF     C213200   3.474   4.525   0.765 -0.5422 -0.4666  0.5820
  867THF     C313201   3.573   4.724   0.818  0.6416  0.6147 -0.2073
  867THF     H413202   3.490   4.418   0.771  1.0006 -0.4649 -1.9824
  867THF     H513203   3.427   4.537   0.668  1.3208 -0.3836 -0.3604
  867THF     H613204   3.625   4.726   0.914 -2.1194 -0.1817  1.4084
  867THF     H713205   3.608   4.807   0.756 -0.4025  0.5354 -0.9230
  867THF     C813206   3.425   4.727   0.853  0.7611  0.1156 -0.0875
  867THF     C913207   3.396   4.582   0.876 -0.6160 -1.1041 -0.4510
  867THF    H1013208   3.367   4.768   0.771 -1.2064 -0.1420  1.1335
  867THF    H1113209   3.413   4.799   0.933 -1.4555  0.6066 -0.8214
  867THF    H1213210   3.451   4.551   0.965 -1.0188  0.6863  0.4806
  867THF    H1313211   3.289   4.562   0.885 -0.9513  0.2572 -1.0742
  868THF     O113212   2.600   2.849   0.875  0.2507 -0.3779  0.4203
  868THF     C213213   2.703   2.858   0.968  0.2636  0.2949 -0.5902
  868THF     C313214   2.638   2.873   0.738 -0.4445 -0.0077  0.0468
  868THF     H413215   2.738   2.756   0.985 -0.2533  0.1014 -0.6791
  868THF     H513216   2.667   2.894   1.064 -1.9220 -0.2119 -1.1663
  868THF     H613217   2.611   2.786   0.678 -1.1877  0.0736  0.2554
  868THF     H713218   2.594   2.964   0.698 -4.6454 -1.7761  0.0486
  868THF     C813219   2.787   2.875   0.754 -0.0888 -0.1511 -0.7961
  868THF     C913220   2.812   2.925   0.894  0.5352  0.0869  0.1044
  868THF    H1013221   2.837   2.939   0.681 -1.3877  0.3291 -1.2783
  868THF    H1113222   2.823   2.772   0.749 -1.2942 -0.8193  2.3491
  868THF    H1213223   2.908   2.882   0.923  0.2329 -0.3525  0.4793
  868THF    H1313224   2.808   3.032   0.913  1.5386 -0.3151  3.3316
  869THF     O113225   3.067   4.458   0.109 -0.4245 -0.5970 -0.4278
  869THF     C213226   3.195   4.528   0.088  0.5966  0.0578  0.2591
  869THF     C313227   3.064   4.339   0.032 -0.1658 -0.4893 -0.4989
  869THF     H413228   3.255   4.531   0.179 -1.8042  1.6590  1.9146
  869THF     H513229   3.180   4.629   0.052 -0.0327 -0.2914 -0.4810
  869THF     H613230   3.006   4.264   0.086  0.1679  0.7083  1.6466
  869THF     H713231   3.004   4.358  -0.057 -3.4782  0.5903  1.8148
  869THF     C813232   3.206   4.314  -0.011  0.3210 -0.1990 -0.2608
  869THF     C913233   3.267   4.452  -0.024 -0.3708  0.4954  0.7977
  869THF    H1013234   3.211   4.254  -0.102 -1.8386  1.1180 -1.3362
  869THF    H1113235   3.258   4.264   0.070 -0.5709 -0.0833  0.3896
  869THF    H1213236   3.373   4.448  -0.001  0.4035  0.5237 -2.3710
  869THF    H1313237   3.247   4.506  -0.117 -0.4611 -1.0067 -0.0813
  870THF     O113238   2.391   2.694   5.341 -0.5428 -0.4601 -0.1070
  870THF     C213239   2.517   2.700   5.267 -0.3647 -0.5075 -1.8686
  870THF     C313240   2.366   2.561   5.386  0.6221 -0.0340 -0.3065
  870THF     H413241   2.592   2.742   5.334 -1.4806 -1.3233 -0.0183
  870THF     H513242   2.516   2.739   5.165  0.8657 -1.3350 -2.2234
  870THF     H613243   2.331   2.548   5.488  4.4197 -2.8552  0.8663
  870THF     H713244   2.294   2.516   5.318  1.0427 -1.8844  0.4083
  870THF     C813245   2.499   2.493   5.383 -0.2643  0.5169  0.2288
  870THF     C913246   2.551   2.553   5.258 -0.4995  0.6358  0.1139
  870THF    H1013247   2.505   2.385   5.379  0.3585  0.4879  1.5017
  870THF    H1113248   2.555   2.534   5.467  0.8893 -0.2397 -0.1423
  870THF    H1213249   2.658   2.534   5.250 -0.4047  0.4009  1.5590
  870THF    H1313250   2.509   2.507   5.169 -1.1309 -0.5496  1.0071
  871THF     O113251   3.211   4.588   2.615  0.3755 -0.4064  0.9908
  871THF     C213252   3.239   4.701   2.701  0.0173  0.5574 -0.0204
  871THF     C313253   3.264   4.476   2.686 -0.0448 -0.4632  0.0055
  871THF     H413254   3.181   4.791   2.683  0.9789  0.6101 -3.5299
  871THF     H513255   3.344   4.726   2.686  0.1594 -0.8554 -1.7721
  871THF     H613256   3.199   4.395   2.653 -2.3121  0.8835  0.9252
  871THF     H713257   3.358   4.449   2.638  0.3149  1.4742 -0.4646
  871THF     C813258   3.266   4.511   2.832 -0.7966 -0.7158  0.0133
  871THF     C913259   3.207   4.654   2.846 -0.1367  0.5750  0.1693
  871THF    H1013260   3.370   4.516   2.865 -0.9964  1.2768  0.4707
  871THF    H1113261   3.219   4.427   2.883  2.4419 -2.4039  0.4721
  871THF    H1213262   3.099   4.656   2.862 -0.4419  1.8553 -1.7273
  871THF    H1313263   3.262   4.716   2.917  2.1997 -2.4512  1.1819
  872THF     O113264   4.607   2.994   5.342 -0.4722 -0.9071  0.1613
  872THF     C213265   4.734   2.943   5.376 -0.0052 -0.2942  0.1661
  872THF     C313266   4.517   2.886   5.340  0.0008  0.5488 -0.6726
  872THF     H413267   4.797   3.024   5.413 -0.3661 -0.1086  0.3738
  872THF     H513268   4.781   2.898   5.288 -1.3776 -1.9791  0.2286
  872THF     H613269   4.412   2.915   5.337 -0.0362  0.4012 -3.3756
  872THF     H713270   4.538   2.826   5.251 -2.4829 -2.2189  0.4390
  872THF     C813271   4.558   2.792   5.459 -0.2601  0.0978  0.1094
  872THF     C913272   4.706   2.830   5.480  0.2652  0.2085  0.5204
  872THF    H1013273   4.546   2.687   5.431  0.2167  0.3133 -0.9477
  872THF    H1113274   4.504   2.818   5.550 -1.4565 -2.1948  0.1103
  872THF    H1213275   4.731   2.853   5.583 -0.2764  3.9537 -0.0335
  872THF    H1313276   4.765   2.748   5.439  1.5563  1.4711 -0.2572
  873THF     O113277   5.328   4.619   2.705 -0.1960  0.5134  0.4579
  873THF     C213278   5.321   4.480   2.666  0.0174  0.3018  0.0835
  873THF     C313279   5.247   4.688   2.614 -0.0794  1.6591 -0.2635
  873THF     H413280   5.352   4.428   2.756 -0.4301 -1.8429 -0.9379
  873THF     H513281   5.399   4.456   2.593 -0.7660 -3.3322  0.2523
  873THF     H613282   5.219   4.790   2.639 -1.8405  0.8452  1.3728
  873THF     H713283   5.300   4.700   2.519 -0.1180  1.7716 -0.2712
  873THF     C813284   5.121   4.596   2.593  0.3729 -0.4029 -0.4475
  873THF     C913285   5.179   4.454   2.608 -0.1186 -0.2315 -0.3358
  873THF    H1013286   5.079   4.617   2.495 -2.4719  0.0297  0.7779
  873THF    H1113287   5.038   4.607   2.662  0.7380 -1.7861  0.2391
  873THF    H1213288   5.120   4.395   2.678  1.5142 -0.9592  0.4667
  873THF    H1313289   5.196   4.402   2.514  2.3070 -2.5638  1.2526
  874THF     O113290   2.764   4.880   2.373  0.2372 -0.8731  0.1028
  874THF     C213291   2.692   4.786   2.453 -0.8754 -0.1158  0.3591
  874THF     C313292   2.885   4.904   2.444 -0.1972  0.1847  0.6432
  874THF     H413293   2.654   4.715   2.380  0.1001  1.2720 -1.6045
  874THF     H513294   2.607   4.841   2.494 -1.9743  1.5138 -3.6602
  874THF     H613295   2.953   4.929   2.362  1.3018 -0.6212  1.5985
  874THF     H713296   2.875   4.974   2.527 -0.5661  0.6297  0.2303
  874THF     C813297   2.921   4.767   2.491 -0.6940 -0.4067 -0.0274
  874THF     C913298   2.785   4.713   2.547 -0.1654 -1.0044  0.3505
  874THF    H1013299   2.998   4.763   2.568 -0.1388  2.6331 -0.3044
  874THF    H1113300   2.962   4.705   2.411  1.0379  0.5758  0.0548
  874THF    H1213301   2.785   4.606   2.527 -0.1425 -0.9638  0.1313
  874THF    H1313302   2.770   4.734   2.653  0.5665  2.7287 -0.1688
  875THF     O113303   0.625   3.821   5.266 -0.3049 -0.2514  0.1874
  875THF     C213304   0.685   3.786   5.390 -0.4331 -0.1877  0.1564
  875THF     C313305   0.699   3.755   5.166 -0.5217  0.3570  0.1837
  875THF     H413306   0.610   3.813   5.464 -0.0749 -0.6571  0.7013
  875THF     H513307   0.779   3.839   5.406  0.5590 -1.8738  0.1601
  875THF     H613308   0.649   3.769   5.070  0.1838  1.8372  0.0014
  875THF     H713309   0.792   3.812   5.160  0.0907 -0.7756 -2.1225
  875THF     C813310   0.712   3.616   5.225 -0.2626  0.0006  0.3427
  875THF     C913311   0.692   3.636   5.376 -0.0663 -0.1131  0.2780
  875THF    H1013312   0.807   3.567   5.202  1.4734  2.6570  1.3011
  875THF    H1113313   0.628   3.552   5.198 -0.7326  0.3893  0.8600
  875THF    H1213314   0.601   3.590   5.416  0.0402  0.5582  1.3561
  875THF    H1313315   0.769   3.587   5.437 -0.7226 -0.5832  0.7418
  876THF     O113316   0.494   5.151   5.135 -0.1836 -0.0885 -0.7634
  876THF     C213317   0.377   5.126   5.064 -0.1362  0.0432  0.1295
  876THF     C313318   0.591   5.050   5.101 -0.3475  0.0553 -0.0437
  876THF     H413319   0.316   5.215   5.078  0.7303  0.5327  0.9118
  876THF     H513320   0.335   5.037   5.113  0.5062 -0.5962 -0.4569
  876THF     H613321   0.692   5.077   5.133  1.0055 -2.9060 -1.4239
  876THF     H713322   0.571   4.953   5.147  1.3971  0.5689  1.9702
  876THF     C813323   0.564   5.051   4.946 -0.4778  0.5984 -0.6178
  876THF     C913324   0.421   5.096   4.923 -0.1480  0.7420 -0.7570
  876THF    H1013325   0.576   4.949   4.911 -1.7970 -0.2695  1.2930
  876THF    H1113326   0.646   5.109   4.902  1.1833 -1.1241  0.0566
  876THF    H1213327   0.409   5.186   4.862 -0.6562  1.5043  0.4295
  876THF    H1313328   0.358   5.030   4.864 -0.0688  1.0353 -1.1714
  877THF     O113329   0.405   0.404   5.280  0.4219 -0.2371  0.3687
  877THF     C213330   0.361   0.455   5.154 -0.1109  0.2053 -0.7582
  877THF     C313331   0.543   0.439   5.290  0.1132 -0.0112  0.7064
  877THF     H413332   0.360   0.563   5.162 -0.1375  0.0915  1.1386
  877THF     H513333   0.263   0.423   5.119 -0.7880  1.1053  0.2504
  877THF     H613334   0.556   0.544   5.315 -1.6104  0.5186 -0.4460
  877THF     H713335   0.593   0.382   5.369  2.1575  0.8698  0.1281
  877THF     C813336   0.599   0.421   5.143 -0.5280 -0.0260 -0.3365
  877THF     C913337   0.469   0.408   5.065  0.0701  0.3393  0.5230
  877THF    H1013338   0.659   0.330   5.133  1.1254  1.1549 -1.5058
  877THF    H1113339   0.652   0.514   5.126  0.7794 -0.8759 -1.0722
  877THF    H1213340   0.476   0.470   4.976  0.4537 -0.5244 -0.0637
  877THF    H1313341   0.452   0.302   5.042  1.1151 -0.0603  1.4843
  878THF     O113342   3.935   1.249   1.263  0.2191 -0.5131 -0.1270
  878THF     C213343   3.944   1.292   1.131 -0.2901 -0.5216  0.4749
  878THF     C313344   3.822   1.310   1.320  0.8169  0.0225 -0.4150
  878THF     H413345   4.018   1.235   1.073 -1.9547 -2.0685 -0.2251
  878THF     H513346   3.971   1.396   1.116 -0.4478 -0.5417  0.0350
  878THF     H613347   3.784   1.245   1.399 -0.3591  1.0886 -0.0806
  878THF     H713348   3.846   1.409   1.360  0.2826 -0.6241  1.6135
  878THF     C813349   3.727   1.328   1.200 -0.1383  0.2086 -0.5537
  878THF     C913350   3.806   1.275   1.080  0.3698  0.1776 -0.1532
  878THF    H1013351   3.707   1.435   1.198 -2.2980 -0.1200  0.6919
  878THF    H1113352   3.629   1.281   1.209  0.6627 -1.2870  0.9111
  878THF    H1213353   3.785   1.175   1.042  1.0470 -0.2503  0.5682
  878THF    H1313354   3.800   1.340   0.992  3.1534 -0.0172 -0.5712
  879THF     O113355   4.397   3.423   3.256 -0.1511 -0.4287  0.7409
  879THF     C213356   4.499   3.509   3.313  0.2591  0.3371  0.2871
  879THF     C313357   4.451   3.371   3.132  0.4497  0.1946 -0.1115
  879THF     H413358   4.471   3.546   3.411 -0.1317  0.6554  0.0612
  879THF     H513359   4.533   3.592   3.251  0.5864  1.0178  1.3529
  879THF     H613360   4.397   3.286   3.090  2.6732 -1.8952  0.9795
  879THF     H713361   4.459   3.445   3.052 -0.7897 -0.6790 -1.0911
  879THF     C813362   4.590   3.321   3.178 -0.2967  0.6350 -0.5560
  879THF     C913363   4.623   3.416   3.297  0.7545  0.0298 -0.8904
  879THF    H1013364   4.664   3.335   3.099  2.0265  0.1464  1.4397
  879THF    H1113365   4.591   3.216   3.208  0.3998  0.7579 -0.1424
  879THF    H1213366   4.635   3.359   3.389 -1.8245  0.9569  0.1001
  879THF    H1313367   4.715   3.472   3.280  0.0697  0.3319 -4.4076
  880THF     O113368   1.132   5.222   2.468  0.0272 -0.9549 -0.1531
  880THF     C213369   1.148   5.129   2.364  0.3539  0.3669 -0.1427
  880THF     C313370   1.144   5.162   2.592 -0.2565 -0.3077 -0.9791
  880THF     H413371   1.187   5.170   2.271  2.3207  1.4333  1.0958
  880THF     H513372   1.061   5.065   2.347 -0.4985  1.2034  0.8286
  880THF     H613373   1.182   5.225   2.672 -1.7509 -0.4682 -0.1040
  880THF     H713374   1.043   5.138   2.626  0.5135 -1.6794  0.4685
  880THF     C813375   1.226   5.035   2.575 -0.0278  0.1084  0.5019
  880THF     C913376   1.254   5.040   2.425  1.1246 -0.2632 -0.1106
  880THF    H1013377   1.157   4.950   2.584 -1.4753  1.2285  0.4103
  880THF    H1113378   1.317   5.014   2.631  0.3503 -0.6732 -0.3592
  880THF    H1213379   1.353   5.085   2.428  1.2482 -0.5910  1.5016
  880THF    H1313380   1.256   4.937   2.390 -1.2792 -0.5789  0.4506
  881THF     O113381   4.466   2.085   1.062 -0.2933  0.5266  0.0004
  881THF     C213382   4.499   2.001   1.176 -0.5484 -0.2691 -0.4707
  881THF     C313383   4.329   2.058   1.038  0.6561  0.4519 -0.3333
  881THF     H413384   4.570   2.049   1.243 -4.1736  3.1866  1.3358
  881THF     H513385   4.522   1.898   1.148  1.6214  0.5799 -2.1358
  881THF     H613386   4.272   2.112   0.962  2.7190 -0.4963 -2.7084
  881THF     H713387   4.335   1.956   1.001  0.6288  0.1228  0.5495
  881THF     C813388   4.265   2.059   1.176 -0.0196  0.3168 -0.6859
  881THF     C913389   4.374   2.007   1.270  0.3462  0.3186  0.3623
  881THF    H1013390   4.179   1.992   1.180  0.9694 -0.8986  1.7760
  881THF    H1113391   4.233   2.155   1.217 -1.4230 -0.5391  0.3158
  881THF    H1213392   4.389   2.065   1.361 -0.1877 -0.4441  0.9573
  881THF    H1313393   4.346   1.906   1.301  1.4766  0.0911  0.7015
  882THF     O113394   4.966   0.941   3.116 -0.0724  0.4575 -0.3183
  882THF     C213395   5.074   0.922   3.210  0.4755 -0.6125 -0.1146
  882THF     C313396   4.862   1.024   3.177 -0.1229  0.1835 -0.3998
  882THF     H413397   5.143   1.005   3.195  0.0024  0.3258  2.4893
  882THF     H513398   5.120   0.827   3.184  1.2564 -0.2461 -0.1010
  882THF     H613399   4.898   1.127   3.173  0.3051  0.2514  2.8104
  882THF     H713400   4.762   1.001   3.141 -0.1163  0.5708 -0.6780
  882THF     C813401   4.874   0.977   3.326 -0.9862  0.6008  0.4238
  882THF     C913402   5.012   0.908   3.344 -0.1985  0.0483 -0.8105
  882THF    H1013403   4.797   0.901   3.333 -0.1303 -0.2824  0.4867
  882THF    H1113404   4.847   1.048   3.404  0.5261  1.0009  0.6278
  882THF    H1213405   5.074   0.950   3.423  0.5318 -1.1703 -0.7189
  882THF    H1313406   4.999   0.801   3.361 -1.4709  0.3204  0.0983
  883THF     O113407   0.069   4.210   1.483 -0.2520  0.0563 -0.2906
  883THF     C213408   0.186   4.139   1.439  0.0103 -0.5268 -0.4391
  883THF     C313409   0.003   4.244   1.366 -0.0777  0.7288  1.1694
  883THF     H413410   0.166   4.042   1.393  1.2658 -1.1150  0.2156
  883THF     H513411   0.259   4.130   1.519 -0.8110 -0.9811  0.2835
  883THF     H613412  -0.032   4.152   1.319  0.1741  0.7200  0.9974
  883THF     H713413  -0.081   4.308   1.393 -1.9529 -0.7059 -0.9324
  883THF     C813414   0.106   4.322   1.290 -0.0406  0.0700 -0.0604
  883THF     C913415   0.237   4.246   1.333 -0.0888  0.0428  0.2760
  883THF    H1013416   0.101   4.424   1.327 -0.3018 -0.2695  0.8779
  883THF    H1113417   0.089   4.335   1.183  0.4361 -0.5705 -0.2219
  883THF    H1213418   0.272   4.190   1.246 -0.3832  0.0939  0.1230
  883THF    H1313419   0.305   4.314   1.384  2.4393 -0.7722 -1.8138
  884THF     O113420   3.697   2.388   2.713 -0.6630 -0.4851 -0.4074
  884THF     C213421   3.754   2.341   2.587 -0.1063 -0.3162 -0.6895
  884THF     C313422   3.557   2.379   2.710  0.3833  0.0689 -0.4381
  884THF     H413423   3.794   2.241   2.604  1.5822  0.8592  3.4545
  884THF     H513424   3.835   2.408   2.557 -0.9657  1.4220  0.6830
  884THF     H613425   3.530   2.274   2.724 -1.1451  0.3841 -0.7482
  884THF     H713426   3.501   2.435   2.784 -1.9806  1.2128 -2.8956
  884THF     C813427   3.528   2.421   2.567  0.0409 -0.1205  0.6205
  884THF     C913428   3.634   2.347   2.494  0.2762  0.2495  0.1094
  884THF    H1013429   3.523   2.530   2.560  0.5560 -0.2126 -1.8660
  884THF    H1113430   3.427   2.395   2.535 -0.2495  1.4066  0.1765
  884THF    H1213431   3.599   2.245   2.478 -0.6396  0.6057 -0.2769
  884THF    H1313432   3.652   2.395   2.398  0.5705 -0.0717  0.0061
  885THF     O113433   4.612   0.287   3.187  0.1203 -0.4941 -0.5701
  885THF     C213434   4.594   0.255   3.052 -0.4324  0.2425  0.2611
  885THF     C313435   4.534   0.405   3.213  0.6056 -0.2516  0.3628
  885THF     H413436   4.555   0.155   3.036 -0.0694 -0.5169  3.3673
  885THF     H513437   4.685   0.249   2.993  0.2907 -0.9421  1.4347
  885THF     H613438   4.513   0.410   3.320 -0.1659 -0.0070  0.2027
  885THF     H713439   4.599   0.492   3.200 -0.5535  0.9074  1.9886
  885THF     C813440   4.422   0.408   3.109 -0.9405  0.6134 -0.6535
  885THF     C913441   4.512   0.371   2.989  0.1968  0.3401  0.0610
  885THF    H1013442   4.368   0.502   3.110  0.0227  1.1808  0.2090
  885THF    H1113443   4.350   0.328   3.129 -2.5294  2.1611  0.1156
  885THF    H1213444   4.448   0.333   2.910  2.9261 -1.4268 -1.4316
  885THF    H1313445   4.572   0.454   2.950  0.3642 -0.9111 -2.5166
  886THF     O113446   1.391   1.230   0.956  0.4426  0.6415 -0.0556
  886THF     C213447   1.350   1.324   1.051  0.3049 -0.3062  0.0995
  886THF     C313448   1.408   1.279   0.829 -0.1653 -0.6607  0.8289
  886THF     H413449   1.408   1.330   1.143  1.1166  1.4168 -0.4840
  886THF     H513450   1.251   1.305   1.093  1.3076  0.4919  3.1398
  886THF     H613451   1.472   1.222   0.763 -0.1158  0.3464 -0.0141
  886THF     H713452   1.316   1.303   0.776  0.5415  1.2555  0.3903
  886THF     C813453   1.468   1.417   0.867  0.2267  0.6483 -0.6220
  886THF     C913454   1.368   1.455   0.974 -0.7324  0.2071 -0.3334
  886THF    H1013455   1.471   1.482   0.779  0.8004  1.7677  0.1921
  886THF    H1113456   1.573   1.419   0.895  0.6387  5.0995 -1.6545
  886THF    H1213457   1.399   1.534   1.042 -1.2093  1.3819 -1.4435
  886THF    H1313458   1.271   1.482   0.933 -1.1779  1.9745  1.7215
  887THF     O113459   4.780   2.038   4.762 -0.9122  0.0152 -0.5126
  887THF     C213460   4.733   2.112   4.654 -0.5909  0.1439 -0.7965
  887THF     C313461   4.692   2.070   4.868 -0.8417 -0.4585  0.7839
  887THF     H413462   4.777   2.093   4.556  1.3049 -1.5672  0.3050
  887THF     H513463   4.776   2.209   4.678 -2.2234  0.7336 -0.0845
  887THF     H613464   4.700   1.985   4.936 -0.0086 -1.8866 -1.0069
  887THF     H713465   4.729   2.162   4.913  2.2015 -0.2983 -1.7487
  887THF     C813466   4.552   2.084   4.803  0.0912  0.5922 -0.8015
  887THF     C913467   4.577   2.101   4.655 -0.0140  0.2153 -0.5384
  887THF    H1013468   4.508   2.172   4.850 -1.0937 -0.3986  0.0043
  887THF    H1113469   4.495   1.997   4.836  1.4750  0.5114  1.6306
  887THF    H1213470   4.542   2.015   4.597  2.1617 -0.4881 -0.9017
  887THF    H1313471   4.536   2.190   4.609 -1.5638 -0.3308 -0.2880
  888THF     O113472   5.433   3.446   1.114 -0.5063  0.3011  0.4320
  888THF     C213473   5.464   3.333   1.197  0.2052 -1.2633  0.0462
  888THF     C313474   5.297   3.469   1.122  0.1276 -0.0095  0.1625
  888THF     H413475   5.484   3.374   1.296  0.5311 -1.4708  0.0674
  888THF     H513476   5.549   3.279   1.157  0.5012 -0.2405 -0.7629
  888THF     H613477   5.282   3.505   1.224  0.5412 -1.2463  0.6833
  888THF     H713478   5.258   3.536   1.045  0.3046 -0.0148  0.0690
  888THF     C813479   5.251   3.329   1.097 -0.6088  0.5453 -0.2032
  888THF     C913480   5.338   3.240   1.184  0.0246 -0.0993  0.2162
  888THF    H1013481   5.250   3.304   0.991 -0.4761 -1.4176  0.2127
  888THF    H1113482   5.147   3.322   1.130 -1.4045  2.5842 -2.0819
  888THF    H1213483   5.280   3.237   1.276  0.8644 -1.4750  0.7227
  888THF    H1313484   5.349   3.136   1.154 -0.4341  0.6018 -2.7114
  889THF     O113485   5.016   1.466   4.086 -0.1432 -0.0433 -0.0330
  889THF     C213486   4.873   1.489   4.070 -0.2116  0.0841 -0.4197
  889THF     C313487   5.062   1.353   4.011  0.2166 -0.9560 -0.2754
  889THF     H413488   4.861   1.574   4.003  3.2186  1.2517  0.2096
  889THF     H513489   4.817   1.498   4.163 -0.0228 -0.3805 -0.2587
  889THF     H613490   5.165   1.362   3.975  0.8418 -2.5485  1.0163
  889THF     H713491   5.055   1.269   4.080  0.8303 -0.8671 -0.0973
  889THF     C813492   4.949   1.335   3.903  0.6156  0.3510 -0.3467
  889THF     C913493   4.826   1.368   3.986 -0.1491  0.2218 -0.1579
  889THF    H1013494   4.947   1.238   3.853  0.6507 -0.8194  1.7952
  889THF    H1113495   4.969   1.412   3.829 -0.0227  0.8947  0.0263
  889THF    H1213496   4.736   1.392   3.930 -0.3396 -3.0127 -1.5013
  889THF    H1313497   4.805   1.279   4.046 -1.0303 -0.5501 -1.5387
  890THF     O113498   1.721   2.681   4.466  0.4306 -0.3236  0.4652
  890THF     C213499   1.641   2.688   4.348 -0.1268  0.0298 -0.4872
  890THF     C313500   1.738   2.806   4.518 -0.2883  0.0740 -0.4330
  890THF     H413501   1.564   2.612   4.355  0.9344 -0.9044  3.9029
  890THF     H513502   1.702   2.670   4.259  1.2265  0.3474  0.3426
  890THF     H613503   1.740   2.796   4.627 -1.2736 -2.9569 -0.6028
  890THF     H713504   1.830   2.852   4.482  0.1114 -0.3699 -0.0189
  890THF     C813505   1.615   2.887   4.483 -0.5299 -0.1674  0.1056
  890THF     C913506   1.581   2.828   4.348 -0.6390  0.7070 -0.0002
  890THF    H1013507   1.641   2.993   4.483 -0.4661 -0.1391 -1.8559
  890THF    H1113508   1.544   2.882   4.565  1.1142 -0.0222  1.5950
  890THF    H1213509   1.473   2.819   4.331 -1.2206  0.4581  3.2007
  890THF    H1313510   1.623   2.890   4.270  1.8660 -0.0061  0.7063
  891THF     O113511   5.237   0.501   4.406  0.3600  0.3406  0.0122
  891THF     C213512   5.168   0.631   4.445  0.1213  0.3634  0.6357
  891THF     C313513   5.153   0.427   4.321 -0.4223 -0.6084  0.4637
  891THF     H413514   5.197   0.708   4.373  1.7254  0.3386  1.2258
  891THF     H513515   5.191   0.644   4.551 -0.4268  0.9032  0.6915
  891THF     H613516   5.158   0.468   4.220 -2.5030  1.5444  1.1660
  891THF     H713517   5.180   0.321   4.322  1.2046 -0.2432 -0.3410
  891THF     C813518   5.018   0.450   4.387  0.5497 -0.0565  0.1534
  891THF     C913519   5.017   0.596   4.436 -0.2952  0.7490 -0.4774
  891THF    H1013520   5.010   0.382   4.472  0.6850 -0.5820 -0.2460
  891THF    H1113521   4.939   0.414   4.321 -1.8000  0.0943  2.6831
  891THF    H1213522   4.969   0.673   4.375 -2.2806  0.6267  0.8412
  891THF    H1313523   4.969   0.620   4.531  1.4775 -2.2979  1.3351
  892THF     O113524   3.160   4.734   1.641 -0.1929  0.5098 -0.1169
  892THF     C213525   3.035   4.726   1.575 -0.1864  0.1213 -1.4831
  892THF     C313526   3.181   4.612   1.709  0.4011  0.1682  0.1076
  892THF     H413527   3.027   4.804   1.500 -0.3912  1.2934 -0.2856
  892THF     H513528   2.952   4.733   1.645  2.0640  1.7856  1.2547
  892THF     H613529   3.287   4.593   1.727  0.5362 -0.8201 -1.5947
  892THF     H713530   3.129   4.614   1.805 -0.5951  2.8079 -0.3953
  892THF     C813531   3.115   4.507   1.618 -0.1803  0.6020  0.3449
  892THF     C913532   3.043   4.586   1.514  0.5084 -0.3012  0.1977
  892THF    H1013533   3.038   4.450   1.671  1.1642  0.0527  1.7706
  892THF    H1113534   3.181   4.435   1.570  0.2989 -0.0861  1.9512
  892THF    H1213535   3.094   4.593   1.418 -0.1886 -0.9754 -0.2354
  892THF    H1313536   2.952   4.529   1.495  1.1087 -1.1899 -0.0738
  893THF     O113537   1.336   0.938   1.489  0.4278 -0.4277 -0.4262
  893THF     C213538   1.263   1.058   1.496 -0.0887 -0.1498  0.0001
  893THF     C313539   1.422   0.942   1.381 -0.1776 -0.1476 -0.3387
  893THF     H413540   1.228   1.079   1.597 -3.3088 -2.6613 -0.4064
  893THF     H513541   1.167   1.044   1.445 -0.2198 -1.3700  0.5443
  893THF     H613542   1.525   0.936   1.415 -0.1062 -0.3566 -0.5833
  893THF     H713543   1.420   0.859   1.310  0.5154 -0.4277 -0.0360
  893THF     C813544   1.401   1.081   1.313 -0.6245  0.3603  0.2806
  893THF     C913545   1.349   1.156   1.427 -0.0930 -0.1785  0.5064
  893THF    H1013546   1.316   1.080   1.245 -1.3480  1.4871  1.1358
  893THF    H1113547   1.492   1.120   1.267  0.4452 -0.3286  1.7142
  893THF    H1213548   1.432   1.197   1.484 -0.7747  1.7306  0.1783
  893THF    H1313549   1.280   1.225   1.379  0.1055 -0.0194  0.4502
  894THF     O113550   5.164   0.450   5.006 -0.2794  0.0470  0.5240
  894THF     C213551   5.153   0.332   4.936  0.0560 -0.0623  0.6536
  894THF     C313552   5.205   0.550   4.916  0.2767  0.6792 -0.2458
  894THF     H413553   5.057   0.282   4.946 -0.0900 -0.8204 -2.9723
  894THF     H513554   5.231   0.265   4.972  1.3741  1.1945  0.2199
  894THF     H613555   5.121   0.603   4.873  0.1816  0.0425 -0.8646
  894THF     H713556   5.267   0.623   4.969  2.3232 -0.5331 -0.8537
  894THF     C813557   5.280   0.487   4.800 -0.2265 -0.2779 -0.3701
  894THF     C913558   5.192   0.363   4.784  0.3611 -0.0307 -0.0393
  894THF    H1013559   5.382   0.469   4.833  0.0278  0.8437 -0.4933
  894THF    H1113560   5.288   0.552   4.713 -3.0393  1.2554  0.3908
  894THF    H1213561   5.096   0.376   4.734  1.0259 -0.9672 -1.6231
  894THF    H1313562   5.246   0.281   4.738  1.4180  0.8747 -0.4535
  895THF     O113563   4.440   0.148   1.645  0.3417  0.0150 -0.2798
  895THF     C213564   4.504   0.269   1.698  0.3296 -0.0645 -0.2309
  895THF     C313565   4.301   0.169   1.644  0.6674  0.2964  0.0420
  895THF     H413566   4.602   0.273   1.651  0.4023 -2.2702 -0.3538
  895THF     H513567   4.536   0.259   1.801 -2.4077  1.6600  0.9024
  895THF     H613568   4.263   0.183   1.542  2.0272  0.9041 -0.4069
  895THF     H713569   4.250   0.097   1.707 -1.5842  1.9901  0.3077
  895THF     C813570   4.274   0.309   1.697  0.4409  1.0423 -0.0879
  895THF     C913571   4.409   0.382   1.677 -0.2176 -0.3384  0.7639
  895THF    H1013572   4.242   0.303   1.801  1.3007  0.3628  0.1451
  895THF    H1113573   4.198   0.365   1.642  0.2075  1.5766  0.7587
  895THF    H1213574   4.433   0.417   1.577 -2.4581  0.3826  0.4151
  895THF    H1313575   4.407   0.465   1.747  2.5875 -0.6437  1.3297
  896THF     O113576   4.343   2.569   2.205 -0.3356 -0.2330 -0.8598
  896THF     C213577   4.451   2.664   2.201  0.4266 -0.7027  0.2112
  896THF     C313578   4.265   2.582   2.090  0.3992 -0.0039  0.2327
  896THF     H413579   4.524   2.612   2.139  0.5075  0.0410 -0.3364
  896THF     H513580   4.492   2.703   2.295  0.4729  0.1199 -0.1364
  896THF     H613581   4.298   2.505   2.021 -0.1225  0.2922 -0.3517
  896THF     H713582   4.159   2.575   2.114  0.0362  0.6959 -1.0637
  896THF     C813583   4.284   2.724   2.036 -1.1775 -0.0917 -0.1720
  896THF     C913584   4.397   2.786   2.118  0.5186  0.3721 -0.5595
  896THF    H1013585   4.185   2.770   2.041 -2.6764 -3.1456  1.5516
  896THF    H1113586   4.322   2.721   1.934  2.5333  0.1004  1.0483
  896THF    H1213587   4.477   2.818   2.052  0.3875  0.7614 -0.5300
  896THF    H1313588   4.369   2.869   2.183  1.9487 -0.2307  0.8729
  897THF     O113589   0.656   3.736   4.033  1.1098  0.1778 -0.5189
  897THF     C213590   0.575   3.616   4.009  0.1935 -0.6620  0.1329
  897THF     C313591   0.694   3.725   4.173  0.0577  0.1889 -0.1894
  897THF     H413592   0.569   3.594   3.903 -1.9610  0.8213 -0.1339
  897THF     H513593   0.479   3.638   4.056  0.2834 -0.9257  0.4476
  897THF     H613594   0.774   3.793   4.203 -1.6058  3.0536 -1.7172
  897THF     H713595   0.608   3.760   4.231  1.0814  0.8002  1.0039
  897THF     C813596   0.716   3.581   4.207  0.3678 -0.4605  0.2930
  897THF     C913597   0.643   3.509   4.092  0.0299  0.0214 -0.5267
  897THF    H1013598   0.662   3.565   4.300 -1.7378  1.9230 -0.4211
  897THF    H1113599   0.825   3.573   4.208  0.4476  0.1429 -1.1131
  897THF    H1213600   0.719   3.447   4.043  0.3349  0.0407 -0.0814
  897THF    H1313601   0.567   3.439   4.128 -0.1811  0.1847 -0.6542
  898THF     O113602   0.645   0.987   4.567  0.2065 -0.4039 -0.2697
  898THF     C213603   0.532   0.931   4.632  0.4558  0.2738  0.7963
  898THF     C313604   0.610   1.111   4.500 -0.1222  0.1043 -0.5084
  898THF     H413605   0.542   0.954   4.739 -1.5116 -1.3122  1.3996
  898THF     H513606   0.543   0.823   4.622 -0.3834  0.1030  1.5233
  898THF     H613607   0.685   1.180   4.540  0.0733 -0.8757  0.9006
  898THF     H713608   0.608   1.096   4.393 -0.0993 -2.0798 -0.2425
  898THF     C813609   0.461   1.132   4.540  0.1014 -0.0421 -0.9809
  898THF     C913610   0.405   0.998   4.573 -0.0341  0.4133  0.4135
  898THF    H1013611   0.409   1.177   4.455 -1.4772 -0.1530 -0.1030
  898THF    H1113612   0.443   1.197   4.625  0.7861  2.1510 -2.4281
  898THF    H1213613   0.327   1.008   4.649 -0.0043  1.1064  0.3609
  898THF    H1313614   0.380   0.947   4.480 -1.5557 -0.6645  1.3577
  899THF     O113615   2.047   4.442   3.139  0.0974  0.1337 -0.4687
  899THF     C213616   2.110   4.542   3.209  0.9486  0.3003 -0.2992
  899THF     C313617   2.150   4.377   3.059 -0.5125  0.1364  0.3057
  899THF     H413618   2.044   4.582   3.286 -0.4106  0.5815 -1.5698
  899THF     H513619   2.136   4.626   3.145  2.9471  0.7768  1.0277
  899THF     H613620   2.124   4.271   3.067  0.8236 -0.2029  0.4281
  899THF     H713621   2.150   4.404   2.953  0.4219  1.1826  0.5581
  899THF     C813622   2.284   4.404   3.131 -0.3146 -0.1541 -0.0962
  899THF     C913623   2.244   4.479   3.257  0.2158 -0.0508  0.3004
  899THF    H1013624   2.342   4.472   3.069  0.3591 -1.0157 -0.4328
  899THF    H1113625   2.352   4.322   3.156  0.8500  0.4570 -1.1728
  899THF    H1213626   2.228   4.400   3.331  0.5768 -2.2776 -1.8635
  899THF    H1313627   2.320   4.542   3.302  1.8471 -0.6420 -1.4601
  900THF     O113628   1.623   1.507   3.472 -0.0625  0.4288 -0.0958
  900THF     C213629   1.594   1.438   3.593 -0.3754 -0.1926  0.1923
  900THF     C313630   1.573   1.451   3.347  0.4560 -0.0229 -0.1931
  900THF     H413631   1.503   1.473   3.643 -0.5707 -2.0485  1.2611
  900THF     H513632   1.687   1.442   3.649  0.9244 -2.5605 -1.6237
  900THF     H613633   1.511   1.524   3.296  0.0929 -0.1736  0.0291
  900THF     H713634   1.663   1.430   3.288 -0.8364  0.4699 -2.4687
  900THF     C813635   1.504   1.332   3.401  0.3449  0.1727 -0.0062
  900THF     C913636   1.573   1.302   3.529  0.2417 -0.4329  0.2451
  900THF    H1013637   1.495   1.255   3.325 -0.1599  1.1211 -0.9445
  900THF    H1113638   1.397   1.349   3.414  0.0527 -0.2737 -1.5803
  900THF    H1213639   1.509   1.247   3.598 -0.1992  0.6365  0.7262
  900THF    H1313640   1.666   1.248   3.515  0.3029  0.4379 -3.5829
  901THF     O113641   5.117   3.688   1.575 -0.2361  0.1555 -0.3991
  901THF     C213642   5.110   3.686   1.432  0.3334 -0.3617  0.4310
  901THF     C313643   5.148   3.559   1.615  0.5913  0.0488 -0.0652
  901THF     H413644   5.218   3.688   1.419  1.0127 -2.7424  4.1355
  901THF     H513645   5.062   3.772   1.386 -0.3330 -0.3615  1.0976
  901THF     H613646   5.256   3.544   1.624  0.7224  0.3447 -1.0605
  901THF     H713647   5.110   3.541   1.716  0.9932  0.1381  0.1064
  901THF     C813648   5.089   3.465   1.507  0.9201 -0.8317 -0.0810
  901THF     C913649   5.042   3.554   1.392 -0.2808 -0.3150  0.5050
  901THF    H1013650   5.014   3.397   1.548  0.5298  0.2240  1.0060
  901THF    H1113651   5.156   3.388   1.468 -0.6592 -1.8138 -0.9898
  901THF    H1213652   5.069   3.514   1.294 -1.4946  1.2208 -0.4965
  901THF    H1313653   4.934   3.561   1.393 -0.2111  0.9665 -0.0626
  902THF     O113654   4.821   1.130   5.198 -0.6490 -0.8824  0.2329
  902THF     C213655   4.768   1.249   5.127  0.6938 -0.1192  0.0402
  902THF     C313656   4.709   1.041   5.223  0.5424  0.4660  0.5387
  902THF     H413657   4.757   1.224   5.021  0.5349  2.8980 -0.7412
  902THF     H513658   4.820   1.344   5.122 -0.4703  0.4883 -3.2072
  902THF     H613659   4.697   0.971   5.140 -2.7126 -0.1185  1.3737
  902THF     H713660   4.725   0.986   5.315  1.0475  0.0770  0.2234
  902THF     C813661   4.584   1.136   5.233  0.6851  0.5999 -0.7165
  902THF     C913662   4.629   1.277   5.192 -0.0669 -0.0443 -0.0664
  902THF    H1013663   4.546   1.140   5.335 -1.3593 -0.3087 -1.3872
  902THF    H1113664   4.503   1.104   5.169  1.1701 -0.3149 -0.8971
  902THF    H1213665   4.551   1.323   5.132 -0.1017  2.2161  1.5620
  902THF    H1313666   4.642   1.336   5.283 -1.2938  2.5879 -1.4815
  903THF     O113667   4.523   3.272   4.207 -0.5911 -0.2812  0.2658
  903THF     C213668   4.568   3.203   4.325  0.2306  0.1513 -0.3964
  903THF     C313669   4.605   3.391   4.211 -0.1268  0.0522  0.2322
  903THF     H413670   4.540   3.100   4.348  4.3965 -1.0666 -0.0005
  903THF     H513671   4.528   3.251   4.414  0.5562 -2.0452  1.0168
  903THF     H613672   4.620   3.420   4.106 -1.2459  0.5858  0.2108
  903THF     H713673   4.564   3.463   4.281 -1.9846  0.2379 -0.9768
  903THF     C813674   4.734   3.340   4.263  0.2194 -0.2031  0.2490
  903THF     C913675   4.720   3.210   4.329  0.0656  0.0764 -0.3081
  903THF    H1013676   4.791   3.403   4.332  0.3285 -0.4903  0.4207
  903THF    H1113677   4.798   3.319   4.177  0.1744 -0.3491  0.2511
  903THF    H1213678   4.759   3.129   4.267 -0.4288 -1.2748  1.0736
  903THF    H1313679   4.762   3.197   4.428 -0.1103 -2.0462 -0.4611
  904THF     O113680   3.745   3.947   3.923 -0.0973 -0.2209  0.5775
  904THF     C213681   3.777   4.015   3.806 -0.0107  0.0334  0.6689
  904THF     C313682   3.833   3.994   4.018 -0.0642 -0.2214 -0.9679
  904THF     H413683   3.731   4.114   3.807 -0.5668 -0.1639 -1.5472
  904THF     H513684   3.761   3.965   3.711 -0.1488  0.8002  0.2841
  904THF     H613685   3.802   4.090   4.058 -0.9501  0.2739 -2.7492
  904THF     H713686   3.844   3.922   4.099 -0.7325  0.7045 -0.0319
  904THF     C813687   3.969   4.015   3.947  0.7300  0.2019 -0.1452
  904THF     C913688   3.929   4.002   3.805 -0.1905  0.0888  0.1618
  904THF    H1013689   4.047   3.957   3.996 -1.5775 -1.7910  1.4002
  904THF    H1113690   3.989   4.120   3.965 -2.3922  0.9124 -0.3483
  904THF    H1213691   3.977   4.074   3.739 -1.9803 -0.5430 -1.9325
  904THF    H1313692   3.954   3.901   3.771 -0.0536  0.6493 -1.5000
  905THF     O113693   0.568   1.099   0.575  0.7899  0.3452  0.0092
  905THF     C213694   0.539   0.962   0.533  0.1941 -0.3379 -0.2026
  905THF     C313695   0.568   1.177   0.461  0.3926  0.6794  0.6806
  905THF     H413696   0.432   0.966   0.516  0.4687  0.8661 -2.0041
  905THF     H513697   0.576   0.888   0.603  1.4365  0.0456 -0.4270
  905THF     H613698   0.463   1.196   0.436  0.4735  3.4277  2.0540
  905THF     H713699   0.625   1.268   0.476  1.6484  0.1840 -0.8281
  905THF     C813700   0.627   1.091   0.349 -0.3427  0.0643 -0.0761
  905THF     C913701   0.624   0.947   0.406  0.1235 -0.1711  0.6260
  905THF    H1013702   0.731   1.119   0.330  0.1113 -1.2326  0.4278
  905THF    H1113703   0.576   1.099   0.253  0.7420 -0.7866 -0.7531
  905THF    H1213704   0.583   0.876   0.334 -0.5771 -0.5478  1.3866
  905THF    H1313705   0.727   0.919   0.425  0.0761 -0.6186  0.2591
  906THF     O113706   1.599   3.054   1.405 -0.3306  0.3838  0.6343
  906THF     C213707   1.626   3.094   1.269 -0.0697 -0.6403  0.3460
  906THF     C313708   1.469   3.004   1.400  0.4127 -0.5994  0.3125
  906THF     H413709   1.632   3.007   1.205  1.9043  1.0610 -1.9537
  906THF     H513710   1.717   3.151   1.247 -0.7011 -0.5605 -2.3949
  906THF     H613711   1.472   2.910   1.345  1.2929 -0.8322  0.7325
  906THF     H713712   1.425   2.985   1.497  0.4081  0.3288  0.5050
  906THF     C813713   1.393   3.101   1.315 -0.7806 -0.7777  0.7706
  906THF     C913714   1.503   3.170   1.234  0.2027 -0.2923 -0.6689
  906THF    H1013715   1.339   3.174   1.375 -0.1964 -0.7712  1.2999
  906THF    H1113716   1.318   3.055   1.250 -0.3151  0.1544 -0.4564
  906THF    H1213717   1.487   3.153   1.127  0.3565  0.0307 -0.7448
  906THF    H1313718   1.501   3.275   1.265 -2.2721 -1.1227  2.4364
  907THF     O113719   3.648   4.086   2.346 -0.8428 -0.0467 -0.0748
  907THF     C213720   3.693   4.207   2.281  0.3356  0.3570  0.2873
  907THF     C313721   3.660   4.101   2.485 -0.4024  0.1221  0.4112
  907THF     H413722   3.617   4.278   2.312 -0.1143 -1.3034  3.3377
  907THF     H513723   3.699   4.204   2.172  2.5698 -0.0026  0.3620
  907THF     H613724   3.582   4.169   2.521  0.4149  0.4455  1.6377
  907THF     H713725   3.645   4.007   2.538  1.5537 -1.3905 -1.5547
  907THF     C813726   3.796   4.167   2.497 -0.2458  0.1691  0.3641
  907THF     C913727   3.817   4.228   2.366  0.6440  0.1101  0.6251
  907THF    H1013728   3.875   4.094   2.518  0.2492  0.5789 -0.0482
  907THF    H1113729   3.790   4.247   2.570  2.0671  2.4800 -1.7819
  907THF    H1213730   3.847   4.333   2.357  0.0265  0.2548  0.1567
  907THF    H1313731   3.886   4.165   2.310 -1.8683  0.7332 -3.6111
  908THF     O113732   4.020   2.495   2.773 -0.3717  0.0812 -0.0967
  908THF     C213733   4.097   2.596   2.833  0.1908 -0.7514  0.4436
  908THF     C313734   4.091   2.367   2.789  0.1355 -0.0251 -0.1190
  908THF     H413735   4.084   2.591   2.941 -3.4030  0.6932  0.2175
  908THF     H513736   4.072   2.701   2.816  0.3203 -0.9658 -1.2051
  908THF     H613737   4.077   2.320   2.886  1.0077  0.9536  0.5054
  908THF     H713738   4.077   2.283   2.721  2.6374 -2.4600  2.1444
  908THF     C813739   4.237   2.406   2.783 -1.2709  0.1583 -0.3423
  908THF     C913740   4.234   2.560   2.784  0.8791  0.6998 -0.3147
  908THF    H1013741   4.281   2.369   2.690 -1.2362 -0.6949 -0.0033
  908THF    H1113742   4.294   2.360   2.864 -1.1305 -0.0096 -0.5344
  908THF    H1213743   4.315   2.612   2.834  0.2060  0.3035  1.2533
  908THF    H1313744   4.238   2.596   2.681 -0.0338  0.6916 -0.3663
  909THF     O113745   0.542   4.353   5.434 -0.3199 -0.2454  0.1730
  909THF     C213746   0.465   4.275   5.340 -0.4272 -0.1011 -0.0157
  909THF     C313747   0.520   4.294   5.567  0.7704  0.5299  0.1506
  909THF     H413748   0.513   4.178   5.330  2.4633  1.0093  1.6219
  909THF     H513749   0.464   4.328   5.245  2.3666  0.9630  0.4342
  909THF     H613750   0.576   4.201   5.571  2.3037  1.4721  1.7180
  909THF     H713751   0.550   4.358   5.649  0.8906  2.1739 -1.1189
  909THF     C813752   0.367   4.267   5.568  0.7289 -0.3883  0.7456
  909THF     C913753   0.331   4.267   5.420 -0.6091 -0.2679  0.0770
  909THF    H1013754   0.311   4.342   5.624  0.3852 -1.8535  2.4618
  909THF    H1113755   0.331   4.174   5.612  3.0895 -2.4058 -1.2929
  909THF    H1213756   0.267   4.187   5.383 -0.5651  0.8353 -2.6576
  909THF    H1313757   0.260   4.350   5.416 -2.4431 -1.7993 -0.1210
  910THF     O113758   3.572   4.741   2.571 -0.2748  0.4569 -0.2503
  910THF     C213759   3.600   4.613   2.521 -0.2305 -0.6641 -0.1423
  910THF     C313760   3.573   4.821   2.451  0.2396 -0.7704 -0.0496
  910THF     H413761   3.577   4.542   2.601  0.5974  0.5679  1.2491
  910THF     H513762   3.706   4.615   2.498  0.2070 -0.7210  1.7337
  910THF     H613763   3.512   4.905   2.483 -0.3987 -2.3147  3.2094
  910THF     H713764   3.675   4.858   2.436  0.1146  0.9493  2.6686
  910THF     C813765   3.528   4.739   2.334 -0.3930 -0.2412  1.0000
  910THF     C913766   3.517   4.601   2.397  0.0268 -0.7399  0.1831
  910THF    H1013767   3.613   4.740   2.267  0.1921 -0.2528  1.7290
  910THF    H1113768   3.439   4.789   2.295 -1.1077 -0.2627  2.5175
  910THF    H1213769   3.415   4.585   2.431 -0.1360 -0.2408 -0.0549
  910THF    H1313770   3.544   4.517   2.334  1.4719 -2.3664  2.7861
  911THF     O113771   0.724   2.206   2.584  0.3523 -0.1323 -0.4034
  911THF     C213772   0.861   2.213   2.627 -0.1901 -0.1941  0.3374
  911THF     C313773   0.702   2.078   2.532  0.0628 -0.4430  0.7247
  911THF     H413774   0.862   2.283   2.711 -3.1387 -0.3219  0.6087
  911THF     H513775   0.923   2.258   2.550  2.0715 -4.8562 -0.9093
  911THF     H613776   0.597   2.050   2.531  0.8790 -4.2448 -1.4041
  911THF     H713777   0.736   2.068   2.429 -0.8700 -0.7049  0.4319
  911THF     C813778   0.786   1.982   2.624  0.4275 -0.1206 -0.1848
  911THF     C913779   0.905   2.073   2.666  1.6980 -0.8876  0.3352
  911THF    H1013780   0.826   1.896   2.570  1.8288  1.3166 -1.5546
  911THF    H1113781   0.726   1.955   2.710 -2.2859  1.2276 -1.5318
  911THF    H1213782   0.903   2.075   2.775 -0.6343  2.2426  0.3670
  911THF    H1313783   1.006   2.054   2.629  2.8349  1.4150  1.9794
  912THF     O113784   0.605   1.794   3.162 -0.2133  0.2055  0.3325
  912THF     C213785   0.588   1.720   3.282 -0.1173 -0.6177 -0.2210
  912THF     C313786   0.637   1.694   3.051  0.2911  0.3922  0.0346
  912THF     H413787   0.480   1.720   3.295 -0.0811 -0.4045  0.0713
  912THF     H513788   0.625   1.774   3.369 -0.2509 -1.1647  0.1774
  912THF     H613789   0.548   1.643   3.016  1.4724 -2.1662  0.4778
  912THF     H713790   0.686   1.738   2.964  0.2510  0.3373 -0.0159
  912THF     C813791   0.714   1.582   3.123 -0.0605  0.2344  0.1974
  912THF     C913792   0.653   1.580   3.263  0.2135 -0.1127 -0.5145
  912THF    H1013793   0.819   1.609   3.127 -0.0436  0.6557 -1.8501
  912THF    H1113794   0.711   1.482   3.080  1.6931  0.6182 -0.8996
  912THF    H1213795   0.586   1.496   3.281  0.4465 -0.4642 -1.2753
  912THF    H1313796   0.727   1.569   3.342 -0.7577  0.7567  0.5563
  913THF     O113797   3.835   3.162   3.773  1.0395 -0.0987 -0.1001
  913THF     C213798   3.926   3.226   3.677  0.4036  1.2897 -0.2800
  913THF     C313799   3.729   3.256   3.808 -0.6826 -0.1382  0.8813
  913THF     H413800   3.959   3.147   3.610  0.5393  1.4230 -0.3708
  913THF     H513801   4.020   3.256   3.723  0.0251 -0.6964  2.0164
  913THF     H613802   3.633   3.212   3.833 -0.9724  0.6570  1.1804
  913THF     H713803   3.762   3.319   3.891 -2.5352  0.3274  1.3144
  913THF     C813804   3.712   3.332   3.675 -0.5175 -0.2266 -0.6023
  913THF     C913805   3.850   3.336   3.611  0.5179 -0.5256  0.2992
  913THF    H1013806   3.684   3.436   3.693  1.5852  0.4017 -0.6713
  913THF    H1113807   3.638   3.275   3.619  0.4127 -0.2279 -1.8757
  913THF    H1213808   3.839   3.325   3.503  1.0868  1.0882  0.0504
  913THF    H1313809   3.895   3.432   3.639 -0.1111 -0.9870  3.2058
  914THF     O113810   4.830   2.525   1.302  0.6459  0.1131 -0.2502
  914THF     C213811   4.924   2.434   1.349 -0.3197  0.3436  0.8431
  914THF     C313812   4.888   2.629   1.224 -0.3145  0.1429 -0.1149
  914THF     H413813   4.884   2.337   1.378 -1.0035 -0.3085 -2.0728
  914THF     H513814   4.978   2.475   1.435 -0.1851  1.0325  0.4366
  914THF     H613815   4.823   2.674   1.148  1.9831  2.5939 -0.7983
  914THF     H713816   4.929   2.712   1.281 -0.4508  0.5839 -0.6504
  914THF     C813817   5.003   2.557   1.153 -0.8209 -0.7394  0.0517
  914THF     C913818   5.018   2.426   1.228 -0.1594  0.7688 -0.4539
  914THF    H1013819   5.085   2.629   1.153  1.1424 -2.8379 -1.7590
  914THF    H1113820   4.972   2.532   1.051 -2.0629 -2.5630  0.8258
  914THF    H1213821   4.974   2.355   1.158 -2.1125 -1.7657  3.0092
  914THF    H1313822   5.122   2.399   1.246 -0.6951 -1.8375 -0.8371
  915THF     O113823   0.126   5.233   3.202  0.3622 -0.1984 -0.1552
  915THF     C213824   0.255   5.285   3.178  0.9293  0.0403  0.9700
  915THF     C313825   0.080   5.257   3.331 -0.7774  0.3956 -0.3374
  915THF     H413826   0.269   5.296   3.070 -0.0926 -0.8361  0.7353
  915THF     H513827   0.337   5.232   3.225  0.0961 -2.3389 -0.1084
  915THF     H613828  -0.026   5.283   3.331 -0.8406  0.1860 -1.6969
  915THF     H713829   0.101   5.172   3.397  0.8431  1.0831  0.0638
  915THF     C813830   0.173   5.373   3.370 -0.6827  0.5767 -0.1748
  915THF     C913831   0.247   5.424   3.251 -0.1416  0.0431 -0.5258
  915THF    H1013832   0.241   5.336   3.447 -1.2625 -0.4000 -0.1134
  915THF    H1113833   0.120   5.453   3.422  1.4648  0.8149  1.8201
  915THF    H1213834   0.189   5.502   3.200 -0.1248  1.8960  2.0907
  915THF    H1313835   0.341   5.470   3.278  0.9480 -0.7259 -2.7255
  916THF     O113836   3.035   4.869   0.912 -0.1020 -0.3309  0.7809
  916THF     C213837   3.034   4.937   0.780  0.9159 -0.0737 -0.3344
  916THF     C313838   3.133   4.939   0.987  0.0513  0.0723 -0.5584
  916THF     H413839   2.940   4.992   0.775  0.4672 -0.6657  1.0342
  916THF     H513840   3.032   4.878   0.689 -0.3909 -0.5030 -0.0498
  916THF     H613841   3.079   4.976   1.075 -0.2779  0.5843 -0.9634
  916THF     H713842   3.210   4.868   1.014 -0.9806 -1.3533 -1.2488
  916THF     C813843   3.186   5.060   0.905  0.1517  0.5960 -1.2849
  916THF     C913844   3.153   5.029   0.765  0.1319  0.0677  0.3357
  916THF    H1013845   3.292   5.076   0.925 -0.0466  0.6960 -0.2429
  916THF    H1113846   3.140   5.156   0.930  1.5781  1.0721 -0.3934
  916THF    H1213847   3.124   5.116   0.706 -1.6400 -1.9161 -1.9220
  916THF    H1313848   3.241   4.980   0.723  1.0238  0.8253  1.2556
  917THF     O113849   3.357   5.299   1.853  0.0951 -0.6999 -0.4174
  917THF     C213850   3.487   5.326   1.799 -0.3583  0.2193 -0.0992
  917THF     C313851   3.262   5.354   1.766  1.0796 -0.3932  0.2193
  917THF     H413852   3.551   5.243   1.828 -2.4412 -1.1641  0.8083
  917THF     H513853   3.522   5.424   1.833 -1.4719  0.2355  1.0827
  917THF     H613854   3.161   5.320   1.791  1.6878 -2.0835  0.5450
  917THF     H713855   3.257   5.462   1.772 -0.1814 -0.4291  0.1825
  917THF     C813856   3.314   5.304   1.629  0.3733  0.0630 -0.4569
  917THF     C913857   3.461   5.332   1.642  0.1212  0.0325  0.6893
  917THF    H1013858   3.273   5.354   1.541  1.4341 -0.6982 -1.4254
  917THF    H1113859   3.311   5.195   1.622 -2.1797  0.0076  0.5146
  917THF    H1213860   3.517   5.260   1.583 -1.8164 -2.2072  1.4059
  917THF    H1313861   3.468   5.431   1.596 -0.2122 -1.5149 -3.0359
  918THF     O113862   2.843   1.910   1.691 -0.0650  0.0987 -1.0358
  918THF     C213863   2.892   2.006   1.784 -0.1621 -0.1133  0.5557
  918THF     C313864   2.874   1.940   1.559  0.4380  0.0821 -0.2953
  918THF     H413865   2.927   1.958   1.875  0.8419 -0.4923 -0.0098
  918THF     H513866   2.807   2.070   1.805 -0.2168  0.8970 -2.2402
  918THF     H613867   2.895   1.850   1.501  0.2260 -0.7293  0.8361
  918THF     H713868   2.806   2.012   1.513 -2.4644 -0.9917  1.9604
  918THF     C813869   3.011   1.999   1.579  0.6999  0.4746  0.2227
  918THF     C913870   2.991   2.092   1.696 -0.4033  0.4516  0.9284
  918THF    H1013871   3.068   2.039   1.495  1.8003 -0.5245  0.4669
  918THF    H1113872   3.079   1.918   1.602 -0.3070 -0.8064 -1.1306
  918THF    H1213873   3.090   2.123   1.730 -0.7584  1.4049  1.0950
  918THF    H1313874   2.945   2.186   1.668  1.1677  0.7602 -0.8631
  919THF     O113875   2.392   1.170   3.236 -0.5310 -0.0275 -0.0072
  919THF     C213876   2.520   1.121   3.262 -0.4162  0.2731  0.1857
  919THF     C313877   2.365   1.255   3.348 -0.0299  0.2235  0.6060
  919THF     H413878   2.599   1.191   3.232 -0.4050 -0.1485 -0.8228
  919THF     H513879   2.547   1.028   3.213  0.7055  0.0957  1.0977
  919THF     H613880   2.413   1.351   3.333 -1.7997  1.5709  2.8003
  919THF     H713881   2.264   1.294   3.361  0.7904  1.9277  2.3626
  919THF     C813882   2.411   1.172   3.469  0.1314  0.2639 -0.2278
  919THF     C913883   2.529   1.100   3.414  0.8221 -0.2618 -0.9389
  919THF    H1013884   2.330   1.104   3.493  2.4322 -1.7942  2.4512
  919THF    H1113885   2.431   1.218   3.566 -0.6800 -1.7437  0.9371
  919THF    H1213886   2.627   1.130   3.452  0.8109 -0.1840 -0.9737
  919THF    H1313887   2.529   0.992   3.431  1.0867  0.0304  1.1589
  920THF     O113888   4.505   0.854   3.265  0.1024  0.2476 -0.2207
  920THF     C213889   4.510   0.998   3.285 -0.0651  0.4956  0.4603
  920THF     C313890   4.369   0.814   3.238 -0.2604  0.2119  0.5169
  920THF     H413891   4.526   1.051   3.191  3.1499  1.6178  1.5126
  920THF     H513892   4.597   1.010   3.350  0.8808 -0.5882 -0.5549
  920THF     H613893   4.347   0.827   3.132  1.1352 -0.4641  0.1238
  920THF     H713894   4.367   0.706   3.255 -0.7628 -0.1602 -1.6307
  920THF     C813895   4.280   0.907   3.308 -0.0940  0.7611  0.5810
  920THF     C913896   4.373   1.016   3.354 -0.4485  0.1638  0.8088
  920THF    H1013897   4.230   0.861   3.393 -0.7098  0.0185 -0.1646
  920THF    H1113898   4.203   0.930   3.234 -0.6372 -2.9106 -0.1635
  920THF    H1213899   4.339   1.119   3.356  1.0082  0.6995  3.1628
  920THF    H1313900   4.382   0.987   3.459  0.8531 -0.9781  0.4260
  921THF     O113901   4.249   4.320   3.082 -0.4339 -0.1056  0.0715
  921THF     C213902   4.121   4.385   3.090  0.7154  0.6311  0.5902
  921THF     C313903   4.258   4.239   2.962  0.1776  0.2201 -0.3427
  921THF     H413904   4.108   4.466   3.017  1.1196  0.6473  0.5338
  921THF     H513905   4.084   4.406   3.190 -3.6622 -0.0897 -0.6782
  921THF     H613906   4.291   4.301   2.879 -2.7150  1.5029 -0.6334
  921THF     H713907   4.327   4.154   2.973 -1.3597 -1.0507 -0.1915
  921THF     C813908   4.121   4.189   2.936  0.7022 -0.6299 -0.0760
  921THF     C913909   4.044   4.249   3.051  0.0839 -0.4491 -0.4986
  921THF    H1013910   4.120   4.080   2.946 -1.3628 -0.9718 -2.7966
  921THF    H1113911   4.081   4.221   2.840  1.5138  0.6915  0.0087
  921THF    H1213912   3.936   4.251   3.037  0.0728 -0.6306 -0.4442
  921THF    H1313913   4.045   4.191   3.143 -0.4344  3.4805  2.2145
  922THF     O113914   1.379   0.397   1.422 -0.2513  0.7209  0.6328
  922THF     C213915   1.354   0.533   1.440 -0.1529  0.0961 -0.2704
  922THF     C313916   1.364   0.357   1.283 -0.6834  0.8342  0.3623
  922THF     H413917   1.442   0.567   1.495 -0.0235 -2.1763  1.0379
  922THF     H513918   1.262   0.556   1.495  0.3670  3.2268 -0.5029
  922THF     H613919   1.455   0.338   1.226 -1.1620 -0.4998  0.0056
  922THF     H713920   1.297   0.271   1.281 -0.1372  0.3864  1.1177
  922THF     C813921   1.298   0.470   1.217  0.2511  0.2922  0.1807
  922THF     C913922   1.345   0.593   1.297  0.0294  0.7061 -0.3283
  922THF    H1013923   1.189   0.458   1.216  0.2275  0.5215 -1.0166
  922THF    H1113924   1.334   0.476   1.114  1.1666  0.5408  0.5056
  922THF    H1213925   1.445   0.617   1.260 -0.4693  2.0109 -0.8964
  922THF    H1313926   1.279   0.679   1.295  0.1304  0.7712 -1.2359
  923THF     O113927   0.198   5.159   1.554  0.2375  0.0454  1.2116
  923THF     C213928   0.117   5.280   1.565 -0.4116 -0.6660 -0.4807
  923THF     C313929   0.196   5.120   1.419 -0.8572  0.3640  0.4647
  923THF     H413930   0.180   5.368   1.555  0.0856 -1.0279 -0.5482
  923THF     H513931   0.066   5.292   1.661  0.5180 -0.1508 -0.0455
  923THF     H613932   0.258   5.192   1.366 -0.4605  0.6319  1.2733
  923THF     H713933   0.242   5.025   1.390 -0.1432  0.8550 -0.0552
  923THF     C813934   0.052   5.132   1.381  0.0352 -0.3474  0.7267
  923THF     C913935   0.019   5.261   1.450 -0.0747  0.0754  0.1055
  923THF    H1013936  -0.021   5.060   1.417 -2.1007  2.0527  1.4658
  923THF    H1113937   0.033   5.146   1.274  1.1312 -0.4448  0.5050
  923THF    H1213938   0.025   5.336   1.371 -0.1989 -0.6504 -0.6077
  923THF    H1313939  -0.082   5.258   1.490  0.0456 -2.4401  0.3959
  924THF     O113940   3.693   4.965   0.966 -0.2718 -0.0153 -0.5771
  924THF     C213941   3.812   5.017   0.898  0.5483 -0.5887  0.1144
  924THF     C313942   3.612   5.079   0.997 -0.0850  0.6907 -0.3734
  924THF     H413943   3.798   5.001   0.791  2.3085 -0.0382 -0.2313
  924THF     H513944   3.905   4.965   0.921 -0.3945 -1.4932  2.0831
  924THF     H613945   3.548   5.113   0.915 -1.9015 -0.1091  0.6542
  924THF     H713946   3.535   5.057   1.071  0.2594  1.1946  0.1398
  924THF     C813947   3.715   5.185   1.035  0.4689 -0.3521 -0.6531
  924THF     C913948   3.826   5.166   0.934 -0.0452  0.8904 -0.0074
  924THF    H1013949   3.755   5.163   1.134  0.7230 -1.0004 -0.8929
  924THF    H1113950   3.677   5.287   1.033  0.4935 -0.3588 -1.6765
  924THF    H1213951   3.818   5.222   0.841 -1.3551 -2.8220 -2.3317
  924THF    H1313952   3.924   5.180   0.980 -0.2281  1.0486  0.3388
  925THF     O113953   1.562   3.121   3.999  0.6589 -0.3416  0.0541
  925THF     C213954   1.640   3.191   4.093 -0.7795 -0.0250  0.6533
  925THF     C313955   1.430   3.130   4.050 -0.4268 -0.0872 -0.3481
  925THF     H413956   1.741   3.205   4.055 -1.3350  1.1470 -0.4637
  925THF     H513957   1.667   3.123   4.174  1.5315 -1.1097 -0.9246
  925THF     H613958   1.355   3.116   3.973 -0.4493 -0.3283 -0.2823
  925THF     H713959   1.409   3.065   4.135  0.5083 -0.6282 -0.5155
  925THF     C813960   1.416   3.279   4.104  0.7466  0.1099  0.6912
  925THF     C913961   1.563   3.319   4.124 -0.8437  0.2222  0.5312
  925THF    H1013962   1.348   3.292   4.188  0.1942  0.2066  0.2338
  925THF    H1113963   1.379   3.342   4.024 -1.8587 -1.2673  0.6923
  925THF    H1213964   1.587   3.408   4.067 -1.0635  0.1236  0.2844
  925THF    H1313965   1.577   3.341   4.230  0.0935 -0.6392  0.6071
  926THF     O113966   4.506   2.868   0.868  0.0751  0.5201  0.8809
  926THF     C213967   4.474   2.853   1.008  0.1437  0.2112  0.6143
  926THF     C313968   4.546   2.995   0.836 -0.3394  0.0008 -0.4488
  926THF     H413969   4.562   2.817   1.060  1.2503 -0.4524 -1.5990
  926THF     H513970   4.401   2.771   1.012  0.8206 -0.7191 -2.7021
  926THF     H613971   4.655   2.994   0.836 -0.3291  0.7001 -1.4299
  926THF     H713972   4.512   3.022   0.736 -0.6358  0.9109 -0.1082
  926THF     C813973   4.487   3.089   0.942 -0.3951 -0.1493  0.3596
  926THF     C913974   4.428   2.992   1.045 -0.5486  0.7941  0.1901
  926THF    H1013975   4.421   3.165   0.900 -0.3857 -0.4666 -0.2419
  926THF    H1113976   4.560   3.159   0.985 -0.7228 -0.3264  1.2233
  926THF    H1213977   4.466   3.022   1.143  1.0723  0.1657 -0.2146
  926THF    H1313978   4.320   3.009   1.054 -0.8538  0.1842 -1.8835
  927THF     O113979   3.010   2.460   1.106  0.0407  0.3581  0.0121
  927THF     C213980   3.044   2.422   1.241 -0.2831 -0.2959  0.4643
  927THF     C313981   2.923   2.356   1.071  0.0716 -0.0113  0.2987
  927THF     H413982   2.953   2.433   1.300  0.4184 -0.5083  1.6303
  927THF     H513983   3.125   2.468   1.299 -0.9856 -2.1493  3.0848
  927THF     H613984   2.833   2.383   1.126  0.1736  0.4657  0.2358
  927THF     H713985   2.895   2.360   0.965 -1.7965 -0.8750  0.7172
  927THF     C813986   2.995   2.231   1.100 -0.4691  0.1602 -0.5855
  927THF     C913987   3.078   2.278   1.217  0.4407 -0.2898 -0.3338
  927THF    H1013988   3.061   2.214   1.015 -0.4508  0.1716 -0.5736
  927THF    H1113989   2.936   2.141   1.116  1.6454 -1.0105  1.2604
  927THF    H1213990   3.063   2.213   1.303  1.3016  0.6836  0.5684
  927THF    H1313991   3.184   2.275   1.191  0.2925 -0.1885 -0.9714
  928THF     O113992   0.966   4.929   3.040 -0.7435  0.8867 -0.0577
  928THF     C213993   0.923   4.906   3.175 -0.1483 -0.5411 -0.1629
  928THF     C313994   1.019   4.805   3.004  0.8723  0.6288  0.1506
  928THF     H413995   0.859   4.991   3.198 -1.8146 -2.0827  1.2192
  928THF     H513996   1.003   4.901   3.249 -2.6506 -2.5691  2.6102
  928THF     H613997   1.034   4.791   2.896  0.0661  0.8777  0.0008
  928THF     H713998   1.118   4.792   3.048  2.6924 -1.6369 -3.9472
  928THF     C813999   0.919   4.694   3.062 -0.2428  0.2400  0.1394
  928THF     C914000   0.857   4.761   3.176 -0.0348  0.3981 -0.1530
  928THF    H1014001   0.978   4.609   3.095  3.0000  2.4272  0.4711
  928THF    H1114002   0.850   4.665   2.983  1.3195 -0.3641 -1.0353
  928THF    H1214003   0.750   4.777   3.168 -0.1138 -0.3430 -0.7107
  928THF    H1314004   0.864   4.702   3.268  0.2426  4.4677  2.7103
  929THF     O114005   3.452   1.720   1.886 -0.0066  0.5133  0.4161
  929THF     C214006   3.317   1.706   1.835 -0.6137 -0.3080  0.2616
  929THF     C314007   3.496   1.844   1.838 -0.0660  0.4765 -0.3383
  929THF     H414008   3.255   1.625   1.873 -1.7195  0.4662  0.1536
  929THF     H514009   3.329   1.683   1.729  1.6100 -1.9710  0.7931
  929THF     H614010   3.577   1.875   1.905  0.1992  1.1574 -0.9620
  929THF     H714011   3.539   1.834   1.739  1.7135 -2.2496  0.5838
  929THF     C814012   3.376   1.936   1.830  0.4135 -0.3439  0.0415
  929THF     C914013   3.260   1.848   1.870  0.5872 -0.1623  0.0556
  929THF    H1014014   3.363   1.955   1.723  1.4683 -0.4915 -0.1201
  929THF    H1114015   3.376   2.028   1.887 -0.9648  0.4454 -1.1798
  929THF    H1214016   3.216   1.858   1.969 -0.4297  3.0836 -0.6060
  929THF    H1314017   3.175   1.874   1.807  0.8707 -0.4722 -0.4616
  930THF     O114018   3.293   3.248   0.183  0.2771 -0.5803  0.3059
  930THF     C214019   3.158   3.239   0.221  0.1667 -0.3496 -0.4394
  930THF     C314020   3.338   3.387   0.185 -0.3180  0.0900  0.2312
  930THF     H414021   3.136   3.248   0.328 -1.3945  0.0679 -0.7641
  930THF     H514022   3.096   3.159   0.181 -2.4487  1.7717 -0.9689
  930THF     H614023   3.377   3.412   0.283 -0.9328  0.5216  0.3714
  930THF     H714024   3.420   3.409   0.117  0.3179 -1.9977  0.2430
  930THF     C814025   3.214   3.471   0.157 -0.2118  0.4450  0.9441
  930THF     C914026   3.098   3.365   0.160 -0.5778 -0.1187 -0.0718
  930THF    H1014027   3.219   3.509   0.055 -0.0535 -1.7461  0.0693
  930THF    H1114028   3.199   3.558   0.221 -1.8367  1.4501 -0.6807
  930THF    H1214029   3.012   3.406   0.213 -0.1939 -0.4148  0.8040
  930THF    H1314030   3.063   3.352   0.058 -1.0336  0.8274 -0.0429
  931THF     O114031   5.330   2.073   4.290  0.4720  0.0062 -0.0259
  931THF     C214032   5.416   1.960   4.281  0.7108  0.5106 -0.5974
  931THF     C314033   5.282   2.098   4.425  0.2234 -0.0790 -0.2423
  931THF     H414034   5.485   1.965   4.197  1.3195 -0.2674 -0.1554
  931THF     H514035   5.347   1.876   4.269  2.0932 -0.8246  0.3872
  931THF     H614036   5.246   2.200   4.436 -1.5081 -0.7392  0.5710
  931THF     H714037   5.201   2.030   4.451  1.3736 -2.2828 -2.0116
  931THF     C814038   5.419   2.064   4.495  0.2376 -0.2961 -0.7126
  931THF     C914039   5.485   1.950   4.417 -0.2790 -0.2151 -0.5082
  931THF    H1014040   5.396   2.040   4.599  0.7906  1.6479 -0.0938
  931THF    H1114041   5.489   2.147   4.508  0.5071 -0.9427  3.0111
  931THF    H1214042   5.592   1.970   4.410 -0.8810  3.8345 -0.6447
  931THF    H1314043   5.475   1.856   4.472 -2.9715 -0.6054 -1.5056
  932THF     O114044   2.935   0.749   2.684 -0.4320 -0.0040  0.3330
  932THF     C214045   2.846   0.776   2.570 -0.3776  0.0074 -0.3287
  932THF     C314046   2.976   0.609   2.671  0.6883 -0.3421 -0.1834
  932THF     H414047   2.874   0.862   2.509  0.6474  0.2638  0.4799
  932THF     H514048   2.748   0.789   2.615 -0.5506  0.3621 -0.7967
  932THF     H614049   3.075   0.602   2.714 -0.0962 -1.1094  1.6198
  932THF     H714050   2.903   0.560   2.735  0.1407 -0.5577 -0.9576
  932THF     C814051   2.956   0.563   2.530  0.5402 -0.0760 -0.2221
  932THF     C914052   2.832   0.641   2.493 -0.0609  0.0950  0.1088
  932THF    H1014053   2.953   0.455   2.515 -0.8152  0.3356 -3.9473
  932THF    H1114054   3.041   0.604   2.477  0.8201  3.3841  2.5362
  932THF    H1214055   2.822   0.655   2.386 -1.4450 -3.1299 -0.3127
  932THF    H1314056   2.740   0.590   2.521  0.7127 -1.3936  0.0466
  933THF     O114057   3.952   4.893   2.909 -0.1407  0.0907 -0.6150
  933THF     C214058   3.993   5.021   2.945  0.2960 -0.4787 -1.3041
  933THF     C314059   4.019   4.810   3.007  0.3553  0.3334 -0.2280
  933THF     H414060   3.939   5.094   2.884 -1.7428 -1.2902 -0.5830
  933THF     H514061   4.099   5.037   2.927  0.3136  0.2023 -0.6119
  933THF     H614062   3.959   4.720   3.017 -0.7746  1.0785 -0.1222
  933THF     H714063   4.123   4.795   2.978  0.6848 -1.6874  1.7258
  933THF     C814064   3.993   4.884   3.139 -0.4708  0.5924 -0.6179
  933THF     C914065   3.965   5.026   3.100 -0.0762 -0.1828  0.1383
  933THF    H1014066   4.079   4.875   3.206 -0.4846 -1.5043 -0.8337
  933THF    H1114067   3.904   4.851   3.192 -0.3105  1.5837  0.3043
  933THF    H1214068   3.863   5.053   3.128 -0.4009 -0.4551 -0.7679
  933THF    H1314069   4.026   5.103   3.147 -1.0063  1.4056 -1.1335
  934THF     O114070   1.420   5.358   1.962 -0.0863  0.0852 -0.4430
  934THF     C214071   1.449   5.271   2.072  0.1953  0.4096 -0.3607
  934THF     C314072   1.306   5.436   1.994  0.5148  0.4519  0.2615
  934THF     H414073   1.553   5.245   2.088  0.0096  0.0129  0.2495
  934THF     H514074   1.387   5.182   2.077  0.4649  0.0957 -2.0968
  934THF     H614075   1.326   5.542   1.982  0.7890  0.2607 -1.1538
  934THF     H714076   1.217   5.408   1.938  0.6950 -0.5431  0.4532
  934THF     C814077   1.280   5.418   2.141 -0.1212  0.2532 -0.0034
  934THF     C914078   1.414   5.363   2.190  0.4435 -0.2515 -0.0479
  934THF    H1014079   1.199   5.348   2.156 -2.4289  2.3652 -1.8238
  934THF    H1114080   1.262   5.516   2.187  0.2975  0.4714 -0.2905
  934THF    H1214081   1.486   5.444   2.204 -1.7791  2.2619 -2.0998
  934THF    H1314082   1.396   5.313   2.286 -1.1696  0.7658  0.2316
  935THF     O114083   3.141   3.158   5.139 -0.5642 -0.1904  0.2702
  935THF     C214084   3.036   3.126   5.222 -0.0522 -0.2175  0.5672
  935THF     C314085   3.217   3.254   5.218 -0.7660 -0.1099  0.4706
  935THF     H414086   2.967   3.048   5.188 -0.2420  0.1448  0.1247
  935THF     H514087   2.978   3.218   5.230 -1.1835 -0.7922 -0.6429
  935THF     H614088   3.318   3.274   5.182 -0.6197  1.1451  1.5026
  935THF     H714089   3.167   3.349   5.239 -2.5121 -1.1424  1.1952
  935THF     C814090   3.244   3.169   5.343 -0.3088 -0.4700 -0.4296
  935THF     C914091   3.119   3.079   5.349 -0.3908 -0.2749 -0.1165
  935THF    H1014092   3.268   3.236   5.426  0.2985 -0.5549 -0.5274
  935THF    H1114093   3.330   3.104   5.324 -0.6430 -1.4235  1.1070
  935THF    H1214094   3.149   2.976   5.332 -1.8807 -0.3533 -2.9481
  935THF    H1314095   3.073   3.095   5.446  0.5280  1.6514  0.0505
  936THF     O114096   2.788   0.748   1.547 -0.1987  0.3288  0.1872
  936THF     C214097   2.693   0.656   1.491  0.1134 -0.6183 -0.1511
  936THF     C314098   2.910   0.728   1.477 -0.2057 -0.6190  0.6276
  936THF     H414099   2.592   0.683   1.525 -0.6508 -4.0276  0.6795
  936THF     H514100   2.710   0.556   1.531  1.9358  0.7279  2.8205
  936THF     H614101   2.973   0.815   1.497 -1.0885  0.6018 -1.4744
  936THF     H714102   2.958   0.632   1.497 -0.2714 -0.3902  1.9459
  936THF     C814103   2.864   0.717   1.330  0.1121 -0.3679  0.5615
  936THF     C914104   2.716   0.680   1.342  0.3555 -0.1739  0.4335
  936THF    H1014105   2.923   0.646   1.273 -0.6128 -0.2271 -0.3932
  936THF    H1114106   2.883   0.813   1.282 -1.8381 -0.4483 -0.4713
  936THF    H1214107   2.647   0.750   1.296  1.1063 -0.8984 -1.9792
  936THF    H1314108   2.713   0.581   1.297  0.5165  0.4924 -1.0872
  937THF     O114109   4.057   5.121   1.344  0.0827  0.3582  0.3771
  937THF     C214110   4.070   5.080   1.209  0.1620  0.0355  0.6964
  937THF     C314111   4.172   5.084   1.416  0.3046  0.2151 -0.3508
  937THF     H414112   4.116   5.149   1.138 -1.3620 -0.2235 -0.5993
  937THF     H514113   3.972   5.064   1.165  0.9476 -0.8135 -0.8274
  937THF     H614114   4.219   5.180   1.437  1.9138 -0.0055 -2.6203
  937THF     H714115   4.128   5.042   1.507 -0.2998  0.7056 -0.4078
  937THF     C814116   4.246   4.991   1.329 -0.5842 -0.9664 -0.2280
  937THF     C914117   4.142   4.949   1.224 -0.4164 -0.3105 -0.0962
  937THF    H1014118   4.281   4.899   1.377 -0.3434  0.1479  1.8756
  937THF    H1114119   4.335   5.028   1.279  0.6822  0.7283  2.9674
  937THF    H1214120   4.197   4.917   1.136 -0.2727 -1.0305  0.2436
  937THF    H1314121   4.076   4.870   1.260 -1.2160  0.3898 -0.0174
  938THF     O114122   3.866   3.169   0.562  0.4252 -0.5212 -0.2197
  938THF     C214123   3.891   3.176   0.421 -0.1399 -0.0668  0.5968
  938THF     C314124   3.760   3.078   0.578  0.6870  0.3030 -0.1645
  938THF     H414125   3.955   3.094   0.389 -1.5884 -0.6460 -0.9605
  938THF     H514126   3.933   3.269   0.384 -0.8643 -0.4042 -1.1363
  938THF     H614127   3.806   2.980   0.594  2.1614  0.8296 -0.9922
  938THF     H714128   3.695   3.114   0.658 -3.6702  1.3407 -3.7595
  938THF     C814129   3.683   3.080   0.447  0.4690  0.0844 -0.0290
  938THF     C914130   3.753   3.178   0.357  0.3346  0.5357  0.1753
  938THF    H1014131   3.581   3.117   0.457 -0.3698 -1.3437 -2.4244
  938THF    H1114132   3.676   2.981   0.403 -0.5793  1.4746 -3.2974
  938THF    H1214133   3.748   3.146   0.253 -0.8374  1.4005 -0.0584
  938THF    H1314134   3.697   3.270   0.373  1.4632  0.9690  1.8081
  939THF     O114135   1.288   2.466   4.542 -0.1337 -0.2512  0.2344
  939THF     C214136   1.264   2.562   4.644 -0.0601  0.5474 -0.5081
  939THF     C314137   1.411   2.405   4.563 -0.1170  0.1372 -0.8239
  939THF     H414138   1.160   2.590   4.662  0.9123  2.1342  3.8351
  939THF     H514139   1.329   2.648   4.633  0.3292  0.1735 -1.2348
  939THF     H614140   1.423   2.310   4.512  2.2907  0.6456 -1.3235
  939THF     H714141   1.483   2.479   4.528  1.0234 -0.2264  0.6219
  939THF     C814142   1.405   2.387   4.723 -0.5105  0.3408  0.2326
  939THF     C914143   1.323   2.501   4.774 -0.0725  0.2510  0.3208
  939THF    H1014144   1.500   2.396   4.776 -0.3648  4.7409 -0.3974
  939THF    H1114145   1.344   2.301   4.748 -0.1047  0.2311  0.8649
  939THF    H1214146   1.245   2.468   4.843  0.6732  0.3241  1.2105
  939THF    H1314147   1.380   2.578   4.826  0.1104  0.5409 -0.3045
  940THF     O114148   4.032   4.650   1.006 -0.0672 -0.3025 -0.8285
  940THF     C214149   3.936   4.602   0.919 -0.1044  0.0671 -0.1034
  940THF     C314150   4.158   4.587   0.998  0.3428 -0.0676  0.1636
  940THF     H414151   3.963   4.636   0.819  2.7805  1.7505  1.1303
  940THF     H514152   3.842   4.649   0.945  0.2642  0.2216  1.0024
  940THF     H614153   4.214   4.635   0.917 -1.3990  1.7445 -0.0505
  940THF     H714154   4.215   4.599   1.090 -1.4735  3.3530  1.0182
  940THF     C814155   4.108   4.446   0.964  0.4575  0.0997  0.4953
  940THF     C914156   3.956   4.451   0.930  0.0501 -0.2861 -0.1090
  940THF    H1014157   4.124   4.364   1.034 -2.1913  0.8825  2.1533
  940THF    H1114158   4.173   4.420   0.880 -0.0623 -1.3551  0.5261
  940THF    H1214159   3.939   4.400   0.836  0.0726  1.2530 -0.9811
  940THF    H1314160   3.904   4.402   1.012 -1.0313  1.3587  0.2201
  941THF     O114161   3.498   1.226   3.652  0.4504 -0.0817 -0.2281
  941THF     C214162   3.545   1.358   3.612 -0.3632  1.2026  0.1370
  941THF     C314163   3.483   1.149   3.538 -0.2531  0.1590  0.2140
  941THF     H414164   3.647   1.356   3.574  0.3825  0.9465  2.0871
  941THF     H514165   3.540   1.432   3.691 -1.8335  1.6566 -0.3295
  941THF     H614166   3.581   1.111   3.510 -1.0193 -1.6193 -0.1953
  941THF     H714167   3.422   1.059   3.550 -0.7639  0.5488  0.5473
  941THF     C814168   3.425   1.250   3.436  0.0046 -0.3823  0.1186
  941THF     C914169   3.471   1.385   3.483  1.4517  0.2061 -0.1488
  941THF    H1014170   3.318   1.229   3.430  0.1995 -1.3989 -0.0491
  941THF    H1114171   3.470   1.246   3.337 -0.3610  0.1652 -0.0765
  941THF    H1214172   3.531   1.428   3.404  1.2454 -2.7158 -2.0658
  941THF    H1314173   3.379   1.442   3.498  1.2129 -0.0546 -0.5831
  942THF     O114174   4.972   3.566   2.629 -1.2516 -0.1558 -0.3330
  942THF     C214175   5.012   3.428   2.616 -0.2283  0.2911 -0.1038
  942THF     C314176   5.084   3.650   2.623  0.0906  0.2670 -0.4097
  942THF     H414177   4.937   3.374   2.558  0.4939 -0.3320 -0.4708
  942THF     H514178   5.024   3.400   2.720  2.0217 -2.0041 -0.8919
  942THF     H614179   5.074   3.751   2.584  2.2249  1.0398  0.8425
  942THF     H714180   5.129   3.652   2.723  0.5721  1.6651 -0.6361
  942THF     C814181   5.194   3.581   2.536  0.2517 -0.0452  0.0915
  942THF     C914182   5.156   3.431   2.550  0.2452  0.1535  0.5277
  942THF    H1014183   5.290   3.620   2.571  0.0306 -0.5969  1.3578
  942THF    H1114184   5.186   3.615   2.433 -3.1738 -0.6134  0.0585
  942THF    H1214185   5.157   3.381   2.453  0.7865 -0.5917  0.9120
  942THF    H1314186   5.216   3.366   2.614 -2.6529 -2.7311  0.5455
  943THF     O114187   2.710   2.368   0.068  0.4310 -0.4304 -0.1634
  943THF     C214188   2.738   2.230   0.083  0.0500  0.2888  0.6059
  943THF     C314189   2.703   2.437   0.197  0.5467  0.3399  0.8383
  943THF     H414190   2.836   2.201   0.046  1.0576  0.1860  3.2169
  943THF     H514191   2.659   2.176   0.030  0.3799  1.3526 -1.0723
  943THF     H614192   2.803   2.478   0.207  1.6113 -1.1241 -2.5525
  943THF     H714193   2.620   2.508   0.204  1.6979  1.6355  2.0437
  943THF     C814194   2.668   2.324   0.291 -0.2973  0.1120  0.1643
  943THF     C914195   2.738   2.203   0.226 -0.1604  0.0217 -0.3385
  943THF    H1014196   2.560   2.311   0.286 -0.1404 -0.9386 -0.7430
  943THF    H1114197   2.702   2.328   0.394 -1.5117 -4.2186  0.9170
  943THF    H1214198   2.840   2.199   0.263  0.1290 -1.5964 -1.2205
  943THF    H1314199   2.681   2.112   0.246  0.7338 -0.5138 -0.1891
  944THF     O114200   1.540   4.790   3.200 -0.7276  0.1416 -0.5433
  944THF     C214201   1.402   4.786   3.178 -0.5354  0.1283  0.2500
  944THF     C314202   1.577   4.660   3.254 -0.0832  0.1603  0.1078
  944THF     H414203   1.387   4.748   3.077 -2.0441  0.6179  0.2661
  944THF     H514204   1.367   4.889   3.187 -1.2218 -0.1901  1.6936
  944THF     H614205   1.590   4.589   3.173  0.1894 -1.7401  1.7222
  944THF     H714206   1.667   4.666   3.315  2.0941 -0.0832 -2.8639
  944THF     C814207   1.455   4.602   3.327  0.3898  0.1644 -0.1174
  944THF     C914208   1.343   4.694   3.283 -0.5541 -0.3866  0.2908
  944THF    H1014209   1.461   4.614   3.435  2.6135  3.0118 -0.4495
  944THF    H1114210   1.427   4.499   3.307  0.4186  0.2261 -0.4785
  944THF    H1214211   1.257   4.643   3.240 -0.7362  0.4740 -0.4105
  944THF    H1314212   1.305   4.749   3.369  0.2865  0.9018 -0.1284
  945THF     O114213   5.025   2.392   4.740  0.3006 -0.0156  0.2694
  945THF     C214214   5.044   2.533   4.741  0.1248  0.3283 -0.9872
  945THF     C314215   5.097   2.337   4.625 -0.0858  0.7597 -0.3653
  945THF     H414216   5.123   2.559   4.812  0.0653 -1.4598 -0.2081
  945THF     H514217   4.950   2.580   4.768  0.1090  1.0841 -2.2817
  945THF     H614218   5.159   2.259   4.670 -0.7507 -0.0373 -0.7925
  945THF     H714219   5.025   2.292   4.556  0.6897  0.9544 -1.3145
  945THF     C814220   5.177   2.450   4.563  0.6433  0.0336  0.3715
  945THF     C914221   5.093   2.572   4.601  0.3828  0.7457 -0.0481
  945THF    H1014222   5.178   2.442   4.455  0.3147  1.1720  0.2694
  945THF    H1114223   5.277   2.443   4.608  1.0334  2.6102  0.0677
  945THF    H1214224   5.138   2.672   4.599 -0.2097  1.0071 -0.5697
  945THF    H1314225   5.005   2.579   4.537  2.2063  0.8337 -2.7278
  946THF     O114226   4.154   0.704   0.838  0.0261 -0.0454 -0.2523
  946THF     C214227   4.088   0.614   0.922  0.3765  0.1591  0.4714
  946THF     C314228   4.059   0.749   0.741  0.1867  0.2698 -0.4950
  946THF     H414229   4.146   0.575   1.005 -1.0782  0.7881  1.8595
  946THF     H514230   4.050   0.526   0.871  0.4973 -0.1111  0.8401
  946THF     H614231   4.105   0.833   0.689  1.7623  0.5499  1.2465
  946THF     H714232   4.024   0.670   0.675 -1.7571  1.7463 -1.3443
  946THF     C814233   3.947   0.790   0.839 -0.6014 -0.8778  0.2283
  946THF     C914234   3.964   0.705   0.966 -0.5772  0.7332 -0.2168
  946THF    H1014235   3.853   0.767   0.788 -0.1078  0.5503 -1.3873
  946THF    H1114236   3.952   0.895   0.866 -0.2504 -0.8596  0.0862
  946THF    H1214237   3.989   0.781   1.039  0.5418  0.5714 -0.4122
  946THF    H1314238   3.874   0.648   0.986 -1.4946  1.7278 -1.3070
  947THF     O114239   1.989   4.230   1.628 -0.4880  0.8481 -0.1044
  947THF     C214240   1.867   4.186   1.576 -0.5700  0.0684 -0.0752
  947THF     C314241   1.962   4.349   1.696 -0.4786 -0.3190  0.5613
  947THF     H414242   1.808   4.138   1.654  0.4768  0.1887  0.8144
  947THF     H514243   1.889   4.115   1.496  2.0641  0.8753 -0.1701
  947THF     H614244   1.916   4.336   1.795  0.1349  1.3971  1.0977
  947THF     H714245   2.043   4.417   1.724 -1.5108  0.2595  2.2988
  947THF     C814246   1.866   4.420   1.606  0.8757 -0.1904 -0.2803
  947THF     C914247   1.788   4.311   1.539 -0.4709 -0.0732  1.0340
  947THF    H1014248   1.902   4.506   1.549 -0.8129  1.5744  1.1629
  947THF    H1114249   1.792   4.470   1.669  1.0907  0.6872 -0.7084
  947THF    H1214250   1.681   4.308   1.562 -1.3865 -0.4731 -2.7022
  947THF    H1314251   1.798   4.312   1.431 -0.1000  0.5127  1.0708
  948THF     O114252   0.102   4.865   4.888  0.3015  0.5122  0.3394
  948THF     C214253   0.073   4.930   5.011  0.3121 -0.2480 -0.1889
  948THF     C314254  -0.009   4.895   4.798  0.3294  0.4288  0.3268
  948THF     H414255   0.095   5.037   5.004 -0.8430  0.3644  3.5016
  948THF     H514256   0.134   4.892   5.093  2.2660  0.0013 -1.4531
  948THF     H614257   0.008   4.990   4.746 -2.3187  1.8777  1.8469
  948THF     H714258  -0.026   4.810   4.733 -0.7729 -0.8804  2.2479
  948THF     C814259  -0.131   4.919   4.893 -0.6750  0.3128 -0.1909
  948THF     C914260  -0.083   4.903   5.027  0.7183 -0.1174 -0.1023
  948THF    H1014261  -0.216   4.855   4.871  0.1190 -0.4728 -1.1133
  948THF    H1114262  -0.165   5.023   4.892  0.2352  0.6226 -0.0798
  948THF    H1214263  -0.142   4.959   5.100 -0.7940 -2.4930  0.6104
  948THF    H1314264  -0.087   4.802   5.067 -0.3449 -0.8286 -1.9190
  949THF     O114265   3.544   3.681   1.516  0.7147 -0.0808 -0.0624
  949THF     C214266   3.595   3.792   1.451 -0.3274 -0.4217  0.0521
  949THF     C314267   3.604   3.685   1.640 -0.3985  0.1742 -0.2741
  949THF     H414268   3.541   3.878   1.490 -1.2789 -0.8014 -0.4031
  949THF     H514269   3.576   3.789   1.344  1.2115  1.7134 -0.3324
  949THF     H614270   3.574   3.771   1.699  0.6628  0.7613 -0.5488
  949THF     H714271   3.588   3.594   1.697  0.1754 -0.0439 -0.4517
  949THF     C814272   3.753   3.701   1.601  0.0062 -0.3737 -0.1899
  949THF     C914273   3.739   3.794   1.487 -0.3037 -0.3449  0.1280
  949THF    H1014274   3.804   3.609   1.572 -0.8025 -1.2944  1.2191
  949THF    H1114275   3.811   3.756   1.674  1.8503 -2.6187  0.1381
  949THF    H1214276   3.781   3.892   1.506  0.2415 -0.7455  1.0663
  949THF    H1314277   3.804   3.745   1.413  0.1567 -4.1426  2.7479
  950THF     O114278   3.455   4.315   0.526  0.1650  0.3870  0.1775
  950THF     C214279   3.597   4.362   0.503 -0.1009  0.5512 -0.2298
  950THF     C314280   3.386   4.318   0.395 -0.9281 -0.0270  0.0988
  950THF     H414281   3.659   4.315   0.580  0.4173 -1.6481 -1.9105
  950THF     H514282   3.609   4.471   0.509 -0.1420  0.6256 -1.3067
  950THF     H614283   3.297   4.256   0.391 -0.6255 -0.6308  1.8590
  950THF     H714284   3.358   4.421   0.372 -1.9391 -0.5352 -1.0175
  950THF     C814285   3.490   4.265   0.301  0.6506  0.2617 -0.3282
  950THF     C914286   3.621   4.310   0.361  0.5276 -0.0284  0.0423
  950THF    H1014287   3.467   4.296   0.200 -1.6534  0.2171  0.1253
  950THF    H1114288   3.495   4.156   0.309  1.4739  0.3710  0.9976
  950THF    H1214289   3.692   4.228   0.349  1.1382  0.8514 -3.3656
  950THF    H1314290   3.665   4.387   0.298  0.4681  1.1483  1.3792
  951THF     O114291   4.751   1.926   4.324 -0.1540 -0.2809 -0.4543
  951THF     C214292   4.650   1.826   4.320  0.0787  0.3998 -0.2027
  951THF     C314293   4.870   1.867   4.380 -0.6924 -0.5076  0.0421
  951THF     H414294   4.625   1.783   4.223 -0.3580 -2.6079  1.1174
  951THF     H514295   4.553   1.864   4.353 -0.3143 -0.5863 -0.1873
  951THF     H614296   4.962   1.901   4.333 -0.3588  1.6813  2.0841
  951THF     H714297   4.879   1.909   4.480  2.4543  1.4668 -0.9184
  951THF     C814298   4.858   1.716   4.377  0.7882  0.8696 -0.4908
  951THF     C914299   4.708   1.709   4.410  0.6535 -0.1041  0.1506
  951THF    H1014300   4.926   1.662   4.443  1.7311  1.1639 -1.1881
  951THF    H1114301   4.873   1.682   4.275 -1.9589  0.6225 -0.8838
  951THF    H1214302   4.666   1.613   4.380 -0.4689  0.6709 -0.8926
  951THF    H1314303   4.696   1.719   4.518 -1.2839  1.0888 -0.1167
  952THF     O114304   4.477   1.387   1.105  0.3904 -0.3140  0.4967
  952THF     C214305   4.498   1.526   1.084 -0.1259  0.2070  0.1908
  952THF     C314306   4.387   1.370   1.209  0.0603  0.1716  0.2090
  952THF     H414307   4.533   1.545   0.983  1.7366 -1.2775  0.4981
  952THF     H514308   4.563   1.564   1.162 -0.1133 -0.3568  0.4643
  952THF     H614309   4.349   1.268   1.209 -1.6969  0.7567 -1.6651
  952THF     H714310   4.436   1.382   1.305 -0.9232 -0.3811  0.7870
  952THF     C814311   4.277   1.477   1.180  0.6690  0.4831  0.4327
  952THF     C914312   4.354   1.578   1.095 -0.0345  0.0772 -0.4891
  952THF    H1014313   4.236   1.515   1.274 -1.1635 -0.1830 -0.0470
  952THF    H1114314   4.188   1.443   1.127  0.4575  2.5129 -0.6178
  952THF    H1214315   4.311   1.593   0.997  1.5291 -0.0291 -1.2259
  952THF    H1314316   4.351   1.677   1.139  1.2708 -0.2207  0.3301
  953THF     O114317   4.461   1.713   3.428 -0.0624 -0.2115 -0.2911
  953THF     C214318   4.582   1.777   3.399 -0.1769 -0.1799 -0.3274
  953THF     C314319   4.357   1.775   3.356  0.0722  0.1886  0.8315
  953THF     H414320   4.663   1.713   3.434 -0.0195 -0.9497 -1.9883
  953THF     H514321   4.596   1.873   3.447  0.5082  0.1331 -1.1217
  953THF     H614322   4.270   1.709   3.356  0.0162  0.2483 -0.0622
  953THF     H714323   4.331   1.876   3.385  0.0758  1.2142 -2.3651
  953THF     C814324   4.423   1.788   3.220 -0.3709  0.2116  0.3726
  953THF     C914325   4.573   1.791   3.246  0.4773 -0.2133 -0.0980
  953THF    H1014326   4.390   1.875   3.165 -0.7686 -0.5803 -0.6739
  953THF    H1114327   4.398   1.699   3.162 -0.3816 -0.3192  1.1672
  953THF    H1214328   4.622   1.721   3.179  1.6363 -0.3229  0.8383
  953THF    H1314329   4.618   1.890   3.235 -0.2362  0.2857  1.2290
  954THF     O114330   4.526   1.807   0.631  0.3878 -0.2053 -0.3782
  954THF     C214331   4.526   1.794   0.773  0.5534  0.4805  0.0289
  954THF     C314332   4.638   1.888   0.599 -0.6027  0.2553  0.0974
  954THF     H414333   4.460   1.712   0.804  1.6208 -0.9825 -1.3925
  954THF     H514334   4.506   1.891   0.818  1.8638 -0.2656  2.4003
  954THF     H614335   4.670   1.868   0.497 -0.1161  1.4990 -0.0099
  954THF     H714336   4.616   1.995   0.608  0.0616  0.3733  0.3745
  954THF     C814337   4.748   1.841   0.700 -0.8820 -0.0866  0.6089
  954THF     C914338   4.672   1.772   0.808 -0.2728  0.2131 -0.4564
  954THF    H1014339   4.815   1.923   0.726  1.2202 -1.0428 -1.3698
  954THF    H1114340   4.807   1.768   0.645 -0.0849  0.4483  0.7234
  954THF    H1214341   4.693   1.666   0.824  2.6063  0.6030 -1.0818
  954THF    H1314342   4.694   1.829   0.897 -0.6911 -2.0729  1.2023
  955THF     O114343   0.229   4.437   2.614 -0.1036  0.0200  0.4322
  955THF     C214344   0.230   4.300   2.651 -0.3438  0.2698  0.3653
  955THF     C314345   0.361   4.459   2.569  0.2084 -0.4592 -0.2650
  955THF     H414346   0.233   4.222   2.575 -0.2071 -3.0173  3.5033
  955THF     H514347   0.140   4.280   2.709  0.4708 -3.0243  0.6782
  955THF     H614348   0.365   4.430   2.464 -1.0829 -1.9764  0.0728
  955THF     H714349   0.373   4.567   2.570 -2.2426 -0.1448 -0.4919
  955THF     C814350   0.453   4.384   2.655  0.1900 -0.4361  0.0868
  955THF     C914351   0.365   4.291   2.734  0.4395  0.6207  0.0409
  955THF    H1014352   0.510   4.449   2.722 -0.7356 -0.3869  0.8496
  955THF    H1114353   0.532   4.327   2.605  0.9914 -0.7900  1.6709
  955THF    H1214354   0.402   4.189   2.730 -0.8527  0.0603  1.4040
  955THF    H1314355   0.362   4.319   2.840  2.3301 -0.3858  0.3968
  956THF     O114356   4.382   3.591   4.626  0.0712 -0.1097  0.0686
  956THF     C214357   4.274   3.676   4.650 -0.0738 -0.9409  0.9106
  956THF     C314358   4.334   3.488   4.545 -0.6742 -0.5891 -0.7285
  956THF     H414359   4.284   3.761   4.582  2.0421 -1.1618  0.8808
  956THF     H514360   4.298   3.721   4.746  1.8975 -0.4997  0.2503
  956THF     H614361   4.341   3.524   4.442  2.4404  0.3689 -0.2881
  956THF     H714362   4.403   3.403   4.550 -0.5355 -0.4452 -0.1263
  956THF     C814363   4.192   3.458   4.594 -0.4898 -0.0517  0.0794
  956THF     C914364   4.153   3.593   4.645 -0.0223  0.1146  0.2482
  956THF    H1014365   4.198   3.384   4.673 -1.0170 -0.9208 -0.6765
  956THF    H1114366   4.124   3.428   4.514 -0.0715  2.5062 -1.3779
  956THF    H1214367   4.081   3.625   4.570  0.7237 -0.6484 -0.8186
  956THF    H1314368   4.108   3.574   4.743  0.7313 -2.3105  0.1685
  957THF     O114369   2.131   1.375   1.875 -0.0926  0.7845  0.6352
  957THF     C214370   2.076   1.244   1.901  0.0660 -0.2057  0.0443
  957THF     C314371   2.017   1.459   1.886 -0.4274  0.1763 -0.2779
  957THF     H414372   2.059   1.230   2.007 -0.8219 -0.3103 -0.1033
  957THF     H514373   2.151   1.168   1.880  1.4810  0.6911  1.7256
  957THF     H614374   1.989   1.467   1.991  0.1964  0.4905 -0.1295
  957THF     H714375   2.031   1.562   1.851  1.7947  0.3529  0.9183
  957THF     C814376   1.909   1.382   1.808  1.3539  0.5587  0.2173
  957THF     C914377   1.943   1.236   1.822  0.0635 -0.1228  0.8038
  957THF    H1014378   1.902   1.422   1.707  2.5146  2.0110  0.6792
  957THF    H1114379   1.813   1.381   1.860  1.4571 -1.0723  0.4290
  957THF    H1214380   1.870   1.179   1.879  1.4025  0.4989  3.3120
  957THF    H1314381   1.960   1.189   1.725 -3.9467  0.5569 -0.4245
  958THF     O114382   3.362   3.122   4.232  0.4987  0.2721  0.3103
  958THF     C214383   3.286   3.240   4.235  0.0869  0.3650  0.5070
  958THF     C314384   3.333   3.057   4.109 -0.0461 -0.0253 -0.1813
  958THF     H414385   3.325   3.305   4.313  0.3957  0.6686  0.1041
  958THF     H514386   3.182   3.226   4.262 -0.1090  2.3154  0.8947
  958THF     H614387   3.412   2.986   4.085 -0.5253 -0.3785 -0.7453
  958THF     H714388   3.242   2.997   4.115 -0.1776  0.2418  0.6075
  958THF     C814389   3.322   3.171   4.008 -0.0335 -0.1920 -0.2302
  958THF     C914390   3.297   3.295   4.096 -0.4488 -0.7167 -0.1317
  958THF    H1014391   3.246   3.145   3.933 -1.7509 -0.2053  1.4392
  958THF    H1114392   3.419   3.180   3.958 -1.0827 -0.4588 -2.4773
  958THF    H1214393   3.384   3.362   4.089 -0.6709 -0.4864 -0.7343
  958THF    H1314394   3.220   3.361   4.055  1.6651  2.5977  0.7822
  959THF     O114395   3.761   1.630   3.606  0.2132 -0.0812 -0.2004
  959THF     C214396   3.783   1.704   3.486  0.9283  0.0072  0.0387
  959THF     C314397   3.870   1.653   3.700 -0.2120  0.2144 -0.4349
  959THF     H414398   3.758   1.809   3.505 -0.8230 -0.1729 -1.0347
  959THF     H514399   3.720   1.667   3.405  0.4950 -3.9354  1.9220
  959THF     H614400   3.850   1.747   3.752  0.5971 -0.0231  0.3231
  959THF     H714401   3.877   1.566   3.766 -0.6383  0.8406  0.4559
  959THF     C814402   3.988   1.666   3.604 -0.2173 -0.3241  0.4892
  959THF     C914403   3.930   1.679   3.462 -0.2382 -0.5170  0.5030
  959THF    H1014404   4.061   1.586   3.614  1.3040  0.8874 -0.3599
  959THF    H1114405   4.039   1.761   3.621 -1.8548  0.3043  2.3397
  959THF    H1214406   3.977   1.759   3.405  1.6050 -0.9472  1.3027
  959THF    H1314407   3.949   1.589   3.404 -1.9515 -1.3773  1.2218
  960THF     O114408   4.385   0.855   5.226  0.1429 -0.1449  0.2970
  960THF     C214409   4.338   0.873   5.092  0.2591 -0.1457 -0.4157
  960THF     C314410   4.276   0.866   5.322 -0.2747 -0.0269 -1.0783
  960THF     H414411   4.403   0.825   5.020  1.5000  0.2131  0.4352
  960THF     H514412   4.325   0.979   5.070  1.5376  0.2662  0.6489
  960THF     H614413   4.313   0.836   5.420 -1.9232 -0.9874 -0.7309
  960THF     H714414   4.229   0.964   5.332  0.2717  0.2095 -0.7775
  960THF     C814415   4.185   0.770   5.260 -0.1211 -0.2212 -0.1461
  960THF     C914416   4.203   0.799   5.108 -0.9769  0.0031  0.5913
  960THF    H1014417   4.081   0.791   5.283 -0.5879  0.2853 -2.4042
  960THF    H1114418   4.213   0.667   5.285  2.0071  0.3407 -0.0494
  960THF    H1214419   4.217   0.703   5.059 -1.1802  0.1325  0.2761
  960THF    H1314420   4.119   0.850   5.060 -0.9452 -0.2068  0.3073
  961THF     O114421   1.190   4.797   5.391  0.4025 -0.7069 -0.2408
  961THF     C214422   1.334   4.788   5.374  0.1491 -0.2106 -0.9386
  961THF     C314423   1.162   4.865   5.512 -0.0137  0.1808 -0.7950
  961THF     H414424   1.352   4.769   5.268 -1.9630  0.1079 -1.4037
  961THF     H514425   1.380   4.704   5.426 -0.4335  0.4714  0.7681
  961THF     H614426   1.062   4.908   5.506 -0.4838 -0.8565 -0.4973
  961THF     H714427   1.174   4.793   5.593  0.4068 -0.7784 -1.6908
  961THF     C814428   1.278   4.966   5.537 -0.1164 -0.0249 -0.3792
  961THF     C914429   1.383   4.924   5.432 -0.1323  0.3035  0.0621
  961THF    H1014430   1.302   4.959   5.643 -2.0015 -0.2614  0.0696
  961THF    H1114431   1.254   5.070   5.513 -0.2533 -0.4690 -2.4050
  961THF    H1214432   1.385   4.998   5.352 -2.0863  1.6749  1.1960
  961THF    H1314433   1.481   4.918   5.478  0.3068  2.2070 -0.5197
  962THF     O114434   3.509   3.317   1.965  0.6983  0.3520  0.2947
  962THF     C214435   3.602   3.420   1.973  0.2726 -0.7929 -0.4110
  962THF     C314436   3.523   3.230   2.067 -0.1114 -0.7508  0.6244
  962THF     H414437   3.553   3.513   1.945  1.3116  0.0813  0.5917
  962THF     H514438   3.683   3.421   1.900 -1.0074  2.4442 -2.0027
  962THF     H614439   3.431   3.177   2.091  0.5070 -0.9966  2.6501
  962THF     H714440   3.606   3.163   2.046  0.5783  0.2083  0.2179
  962THF     C814441   3.564   3.322   2.184  0.8197  0.9063  0.3755
  962THF     C914442   3.636   3.433   2.116 -0.4021  0.4734 -0.2553
  962THF    H1014443   3.612   3.283   2.274  1.8827  2.1134  0.3477
  962THF    H1114444   3.471   3.364   2.223  1.3706  1.9888  0.5303
  962THF    H1214445   3.599   3.522   2.167  1.0940  0.4731  0.9089
  962THF    H1314446   3.744   3.419   2.124 -0.2714  0.4596 -1.7877
  963THF     O114447   2.295   2.606   4.506 -0.3245  0.1928  0.2179
  963THF     C214448   2.176   2.534   4.539  0.2175 -0.2801 -0.8120
  963THF     C314449   2.309   2.641   4.367 -0.0790 -0.5011  0.3094
  963THF     H414450   2.145   2.553   4.641 -0.8830  1.4494 -1.4301
  963THF     H514451   2.202   2.428   4.534  0.6973 -0.6329  4.1806
  963THF     H614452   2.345   2.744   4.363  0.5934 -0.7747 -1.3308
  963THF     H714453   2.386   2.576   4.324  1.0553  0.8668  0.1728
  963THF     C814454   2.165   2.625   4.313  0.9511  0.0262  0.5359
  963THF     C914455   2.078   2.581   4.431 -0.5685 -0.1431  0.1544
  963THF    H1014456   2.160   2.569   4.219  0.1379  0.8615  0.0622
  963THF    H1114457   2.137   2.724   4.278 -0.2229  0.7480  3.2848
  963THF    H1214458   1.998   2.643   4.472 -1.2013 -1.6041  1.2419
  963THF    H1314459   2.036   2.487   4.394  3.0730 -0.5299 -3.6793
  964THF     O114460   3.502   5.208   4.182 -0.0975  0.2559  0.7397
  964THF     C214461   3.374   5.143   4.171  0.3792  0.2963  0.1711
  964THF     C314462   3.485   5.301   4.283 -0.3415  0.2691  0.0855
  964THF     H414463   3.392   5.049   4.120  2.0780 -0.7860  2.5799
  964THF     H514464   3.313   5.208   4.108  1.2647 -2.1679 -3.5306
  964THF     H614465   3.576   5.314   4.342  1.0636 -1.1988 -1.6278
  964THF     H714466   3.462   5.401   4.247 -0.6961  0.3833  0.6108
  964THF     C814467   3.368   5.261   4.372 -0.2147 -0.3749 -0.2499
  964THF     C914468   3.307   5.141   4.307  0.3616  0.1093 -0.9491
  964THF    H1014469   3.298   5.344   4.362 -0.8035 -0.7708  0.4971
  964THF    H1114470   3.385   5.255   4.480  1.8203 -2.2864 -0.6117
  964THF    H1214471   3.341   5.054   4.362  1.3774  0.0484 -1.6434
  964THF    H1314472   3.198   5.145   4.308  0.2199 -1.7359  2.2306
  965THF     O114473   3.895   1.124   2.403  0.1822  0.2531 -0.3298
  965THF     C214474   3.869   1.068   2.270 -0.2790 -0.2414 -0.0222
  965THF     C314475   3.927   1.020   2.495  0.3625  0.0982  0.1673
  965THF     H414476   3.948   1.097   2.200 -1.6019 -0.8096 -1.8140
  965THF     H514477   3.774   1.104   2.230  0.6222  0.8765 -1.2533
  965THF     H614478   4.032   0.990   2.490  1.2171  2.8807 -0.5000
  965THF     H714479   3.905   1.044   2.599 -2.7017 -1.8685  0.0897
  965THF     C814480   3.851   0.906   2.440  0.5756 -0.6116  0.7545
  965THF     C914481   3.873   0.923   2.288 -0.2060  0.7737 -0.5300
  965THF    H1014482   3.749   0.926   2.471  0.1163 -0.6525 -0.6414
  965THF    H1114483   3.884   0.812   2.484  0.7361 -0.9801 -0.1353
  965THF    H1214484   3.974   0.886   2.269 -0.0794 -0.7085  2.4145
  965THF    H1314485   3.793   0.885   2.225  0.4742 -0.4675 -0.6686
  966THF     O114486   0.951   4.914   0.913 -0.6877 -0.0480 -0.1672
  966THF     C214487   0.896   5.051   0.911  0.5071 -0.7175 -0.6055
  966THF     C314488   0.930   4.864   0.775  0.5644 -0.4833 -0.1275
  966THF     H414489   0.971   5.130   0.904 -2.4550  2.3637 -0.3060
  966THF     H514490   0.850   5.061   1.009 -0.7445 -0.0917 -1.2287
  966THF     H614491   0.987   4.924   0.704  1.1588 -0.3726  0.4263
  966THF     H714492   0.942   4.758   0.752 -0.5026 -0.6446  0.0350
  966THF     C814493   0.783   4.910   0.740  0.7208 -0.0223 -0.1532
  966THF     C914494   0.778   5.052   0.807  0.0133  0.1252  0.2335
  966THF    H1014495   0.725   4.834   0.792  2.3517  0.7012  2.9717
  966THF    H1114496   0.769   4.903   0.632 -0.9100 -0.6305  0.0653
  966THF    H1214497   0.800   5.125   0.729 -0.7901 -1.8540 -1.9945
  966THF    H1314498   0.677   5.077   0.839 -0.3749 -1.4872  0.3796
  967THF     O114499   4.753   1.658   1.956 -0.0718  0.2686  0.1319
  967THF     C214500   4.858   1.563   1.969  0.1570 -0.3954 -0.3645
  967THF     C314501   4.809   1.791   1.971  0.9428  0.2836  0.4258
  967THF     H414502   4.834   1.460   1.940  2.4465 -1.0884 -0.0102
  967THF     H514503   4.877   1.543   2.074 -1.7850 -1.4167 -0.1639
  967THF     H614504   4.747   1.868   1.925  0.7449  0.0144  0.2403
  967THF     H714505   4.815   1.827   2.074 -1.1819  0.4696  0.5417
  967THF     C814506   4.951   1.781   1.896  0.3482 -0.3207  0.0149
  967THF     C914507   4.975   1.629   1.898  0.2282  0.2554  0.1206
  967THF    H1014508   5.035   1.838   1.936  0.4599 -0.9924  0.7581
  967THF    H1114509   4.946   1.799   1.789 -0.1277 -1.6776 -0.2123
  967THF    H1214510   4.975   1.597   1.794 -2.0324 -1.4857  0.5939
  967THF    H1314511   5.067   1.597   1.947  0.1126 -2.9479 -1.4877
  968THF     O114512   4.058   3.093   0.969  0.2070  0.0947  0.7370
  968THF     C214513   3.917   3.078   0.943  0.3586  1.0544 -0.6550
  968THF     C314514   4.095   3.223   0.922  0.2301  0.0737  0.0575
  968THF     H414515   3.884   3.008   1.020  0.3549 -0.0157 -1.6041
  968THF     H514516   3.897   3.029   0.848 -0.9999 -0.1880  0.2133
  968THF     H614517   4.180   3.260   0.979 -0.9158 -0.0000  1.9387
  968THF     H714518   4.134   3.206   0.822 -1.7785 -1.1065 -0.5829
  968THF     C814519   3.971   3.319   0.917  0.2912 -0.0767  0.5997
  968THF     C914520   3.861   3.219   0.948  0.1792 -0.1643  0.5709
  968THF    H1014521   3.951   3.359   0.818 -0.6829 -0.6403  0.5604
  968THF    H1114522   3.971   3.403   0.987  2.3951  0.3746  0.1202
  968THF    H1214523   3.824   3.247   1.047 -2.0254 -1.0992  0.0645
  968THF    H1314524   3.766   3.230   0.897 -1.4461 -0.5014  3.3131
  969THF     O114525   3.874   1.745   0.796  0.4435  0.0624 -0.4027
  969THF     C214526   3.921   1.862   0.861 -0.3008 -0.2122 -0.2327
  969THF     C314527   3.973   1.708   0.709 -0.2096 -0.0227 -0.1569
  969THF     H414528   3.857   1.889   0.945  0.6428  1.8571 -0.1226
  969THF     H514529   3.907   1.950   0.798 -0.1187 -0.4555 -0.6180
  969THF     H614530   3.960   1.603   0.681 -1.4030  0.1622 -0.3277
  969THF     H714531   3.956   1.764   0.618 -0.8130  1.0076  0.5628
  969THF     C814532   4.107   1.733   0.781  0.0791  0.1129  0.2987
  969THF     C914533   4.073   1.838   0.888 -0.1335  0.1740 -0.3495
  969THF    H1014534   4.182   1.770   0.712  1.1327  0.7952  1.7429
  969THF    H1114535   4.133   1.640   0.832 -0.0990 -0.0231  0.1416
  969THF    H1214536   4.104   1.804   0.987 -0.5342 -0.6485 -0.4953
  969THF    H1314537   4.118   1.936   0.872  0.4518  0.3801  2.1228
  970THF     O114538   4.238   1.659   5.134  0.1669 -0.0408  0.2213
  970THF     C214539   4.247   1.603   5.267  0.1204 -0.3796 -0.6032
  970THF     C314540   4.109   1.617   5.084  0.7176 -0.0295 -0.3935
  970THF     H414541   4.305   1.667   5.335 -0.3472  0.9782 -1.4349
  970THF     H514542   4.295   1.506   5.254  0.0052 -0.4563 -0.4592
  970THF     H614543   4.061   1.679   5.008  1.2810 -0.4881 -1.1379
  970THF     H714544   4.103   1.525   5.026  0.9537  0.1017 -0.6301
  970THF     C814545   4.022   1.629   5.209  0.4953 -0.1364 -0.4454
  970THF     C914546   4.104   1.579   5.320 -0.2100  0.2537 -0.1821
  970THF    H1014547   3.931   1.570   5.217  0.8356 -0.6006  0.0922
  970THF    H1114548   3.991   1.731   5.232 -3.1281 -1.3026  0.4805
  970THF    H1214549   4.086   1.634   5.412  0.7708  4.5165 -2.2912
  970THF    H1314550   4.097   1.474   5.348 -0.3921  0.7843  1.8587
  971PF6-    P114551   3.814   3.856   2.041 -0.4701 -0.0972  0.3701
  971PF6-    F214552   3.796   4.005   1.996  0.0444  0.1776  0.0838
  971PF6-    F314553   3.835   3.702   2.088 -0.2384  0.2668  0.2462
  971PF6-    F414554   3.897   3.910   2.165 -0.4783  0.2859  0.4420
  971PF6-    F514555   3.718   3.807   1.914  0.0189 -0.6987  0.3266
  971PF6-    F614556   3.944   3.844   1.955 -0.0683  0.4550 -0.2373
  971PF6-    F714557   3.685   3.863   2.131  0.0429  0.1394 -0.2680
  972PF6-    P114558   5.087   0.313   2.340 -0.1152  0.3344 -0.1805
  972PF6-    F214559   5.134   0.445   2.413 -0.1247 -0.0609 -0.7216
  972PF6-    F314560   5.041   0.184   2.257 -0.4085 -0.0900  0.3184
  972PF6-    F414561   4.948   0.303   2.429 -0.3748 -0.2929  0.1253
  972PF6-    F514562   5.221   0.314   2.248  0.1605  0.4569 -0.0040
  972PF6-    F614563   5.158   0.227   2.449 -0.0220 -0.3361 -0.3585
  972PF6-    F714564   5.016   0.410   2.233  0.6783 -0.0041 -0.1093
  973PF6-    P114565   1.914   1.733   4.565 -0.4763 -0.0689  0.1609
  973PF6-    F214566   1.959   1.857   4.656  0.2636 -0.4549 -0.5791
  973PF6-    F314567   1.875   1.607   4.476 -0.1250  0.7843 -0.1830
  973PF6-    F414568   2.012   1.641   4.648 -0.2980  0.2237 -0.0053
  973PF6-    F514569   1.818   1.828   4.480  0.1011 -0.3929  0.0279
  973PF6-    F614570   2.035   1.764   4.469 -0.3158 -0.6727  0.6130
  973PF6-    F714571   1.798   1.703   4.676  0.4298  0.2253  0.1910
  974PF6-    P114572   3.815   5.071   2.055  0.1792  0.3357  0.2893
  974PF6-    F214573   3.828   4.909   2.063 -0.5639  0.3709 -0.2118
  974PF6-    F314574   3.794   5.232   2.053  0.4912 -0.1368 -0.6693
  974PF6-    F414575   3.840   5.067   1.898  0.1336  0.1308 -0.5194
  974PF6-    F514576   3.787   5.070   2.213  0.1974 -0.3798  0.0135
  974PF6-    F614577   3.975   5.086   2.079  0.1197 -0.2515  0.4176
  974PF6-    F714578   3.658   5.060   2.036  0.0187  0.0059 -0.4165
  975PF6-    P114579   5.388   4.204   0.001 -0.0669  0.0129 -0.3067
  975PF6-    F214580   5.247   4.277  -0.008 -0.8648 -0.0094 -0.3828
  975PF6-    F314581   5.535   4.140   0.003  0.0820  0.2004  0.3889
  975PF6-    F414582   5.325   4.067  -0.056  0.0586  0.4579 -0.2765
  975PF6-    F514583   5.456   4.338   0.047  0.1231 -0.8307  0.7711
  975PF6-    F614584   5.358   4.163   0.151 -0.3334 -0.1504  0.4188
  975PF6-    F714585   5.415   4.251  -0.156  0.0839 -0.4377  0.1584
  976PF6-    P114586   5.303   5.120   0.476  0.2470  0.3503  0.2620
  976PF6-    F214587   5.153   5.148   0.412 -0.7284  0.4396 -0.0369
  976PF6-    F314588   5.450   5.097   0.530  0.0071  0.1811 -0.2987
  976PF6-    F414589   5.257   5.173   0.621 -0.1476 -1.0581 -0.8245
  976PF6-    F514590   5.341   5.070   0.332 -0.0287 -0.2714  0.2495
  976PF6-    F614591   5.351   5.266   0.437  0.4985 -0.1009 -0.2402
  976PF6-    F714592   5.263   4.971   0.524  0.5575  0.2073 -0.6212
  977PF6-    P114593   4.412   4.951   5.175  0.3648 -0.3023  0.2830
  977PF6-    F214594   4.475   4.910   5.318 -0.1054 -0.2834  0.0052
  977PF6-    F314595   4.335   4.995   5.039 -0.8135  0.0660  0.4716
  977PF6-    F414596   4.337   4.811   5.179 -0.3918  0.5794  0.2999
  977PF6-    F514597   4.484   5.096   5.180 -0.1775 -0.1134  0.3768
  977PF6-    F614598   4.536   4.887   5.098 -0.0588 -0.6333 -0.2424
  977PF6-    F714599   4.281   5.016   5.253  0.1023  0.0430  0.3949
  978PF6-    P114600   0.981   2.367   0.558  0.0638  0.1278 -0.1612
  978PF6-    F214601   1.006   2.207   0.569 -0.3648  0.2337 -0.1912
  978PF6-    F314602   0.962   2.524   0.561  0.2997 -0.2264  0.8402
  978PF6-    F414603   0.903   2.362   0.702  0.1825 -0.4898  0.5234
  978PF6-    F514604   1.064   2.371   0.422 -0.2428 -0.2004  0.0937
  978PF6-    F614605   0.844   2.348   0.473  0.3101  0.2552  0.1835
  978PF6-    F714606   1.122   2.382   0.639  0.4528  0.4563  0.5612
  979PF6-    P114607   0.878   0.829   5.285  0.4470  0.1210  0.0470
  979PF6-    F214608   0.806   0.977   5.304 -0.1615  0.2935  0.7201
  979PF6-    F314609   0.955   0.692   5.252 -0.0278  0.3086 -0.0919
  979PF6-    F414610   0.913   0.820   5.438  0.2367 -0.5586 -0.1769
  979PF6-    F514611   0.845   0.842   5.126  0.0327  0.0479  0.1941
  979PF6-    F614612   1.015   0.907   5.257 -0.0809  0.2066  0.3515
  979PF6-    F714613   0.738   0.749   5.303  0.3006  0.3141  0.1657
  980PF6-    P114614   1.390   1.767   4.766 -0.2015  0.0777 -0.1696
  980PF6-    F214615   1.287   1.754   4.657  0.7073  0.7868 -0.2431
  980PF6-    F314616   1.503   1.782   4.884  0.1221  0.0703 -0.5401
  980PF6-    F414617   1.425   1.616   4.742  0.4232  0.2464  0.3807
  980PF6-    F514618   1.352   1.922   4.778 -0.1318 -0.4473 -0.7261
  980PF6-    F614619   1.277   1.714   4.872  0.7062  0.3981 -0.6676
  980PF6-    F714620   1.501   1.803   4.649  0.3893 -0.3317 -0.1521
  981PF6-    P114621   4.354   4.409   2.548  0.4688 -0.0413 -0.3968
  981PF6-    F214622   4.471   4.478   2.463 -0.4916 -0.1407 -0.0548
  981PF6-    F314623   4.233   4.344   2.635  0.4768  0.5021  0.1998
  981PF6-    F414624   4.414   4.264   2.514  0.1603  0.6481  0.0397
  981PF6-    F514625   4.306   4.554   2.583 -0.1199 -0.4032 -0.2158
  981PF6-    F614626   4.269   4.402   2.416 -0.0909 -0.5086  0.0700
  981PF6-    F714627   4.443   4.407   2.687  0.2833  0.1297 -0.6780
  982PF6-    P114628   2.510   2.443   3.970  0.4944  0.1196  0.1358
  982PF6-    F214629   2.410   2.370   3.874  0.1118  0.0307  0.3266
  982PF6-    F314630   2.612   2.523   4.056  0.5248  0.0254 -0.2401
  982PF6-    F414631   2.532   2.316   4.067  0.3569 -0.1862 -0.3409
  982PF6-    F514632   2.499   2.573   3.875  0.2399 -0.0527 -0.2926
  982PF6-    F614633   2.387   2.496   4.055 -0.0777 -0.2041 -0.0158
  982PF6-    F714634   2.626   2.385   3.875 -0.0596 -0.6969  0.2835
  983PF6-    P114635   1.196   1.784   3.963 -0.2995  0.1585  0.2912
  983PF6-    F214636   1.066   1.857   3.903  0.1413 -0.0979  0.2539
  983PF6-    F314637   1.326   1.708   4.027  0.3683 -0.0745  0.3092
  983PF6-    F414638   1.200   1.900   4.066  0.1973 -0.7842 -0.0231
  983PF6-    F514639   1.188   1.661   3.859  0.0992  0.4653  0.1562
  983PF6-    F614640   1.296   1.854   3.860  0.1289  0.4205 -0.2631
  983PF6-    F714641   1.098   1.700   4.066 -0.1456 -0.5655 -0.0275
  984PF6-    P114642   1.155   3.920   0.520 -0.0582 -0.1192  0.2490
  984PF6-    F214643   1.064   4.040   0.581 -0.3039  0.5365  0.2957
  984PF6-    F314644   1.241   3.807   0.449 -0.1866  0.3573 -0.6092
  984PF6-    F414645   1.292   3.996   0.549 -0.3257 -0.3944 -0.5509
  984PF6-    F514646   1.019   3.841   0.497 -0.3243 -0.1201  0.2769
  984PF6-    F614647   1.138   3.997   0.381 -0.2689 -0.0243  0.2295
  984PF6-    F714648   1.166   3.847   0.662  0.4143 -0.0198 -0.3435
  985PF6-    P114649   3.844   4.147   3.386  0.3356 -0.0082  0.2617
  985PF6-    F214650   3.913   4.015   3.443 -0.0068 -0.2663 -0.0896
  985PF6-    F314651   3.770   4.275   3.338 -0.0719  0.4616  0.3561
  985PF6-    F414652   3.698   4.069   3.403  0.1271  0.5316 -0.4338
  985PF6-    F514653   3.981   4.218   3.368 -0.2021  0.0792  0.1934
  985PF6-    F614654   3.846   4.093   3.237  0.2499  0.6289  0.6434
  985PF6-    F714655   3.827   4.199   3.535 -0.2950  0.0395 -0.3686
  986PF6-    P114656   0.643   2.749   4.538  0.0782  0.3356 -0.2865
  986PF6-    F214657   0.679   2.593   4.508  0.8217 -0.1190  0.3716
  986PF6-    F314658   0.617   2.905   4.579 -0.2223 -0.1948 -0.2316
  986PF6-    F414659   0.489   2.721   4.512 -0.2513  0.2285 -0.2789
  986PF6-    F514660   0.798   2.774   4.572 -0.2557 -0.0636 -0.2210
  986PF6-    F614661   0.663   2.798   4.385 -0.0984  0.2755  0.6592
  986PF6-    F714662   0.623   2.713   4.692 -0.2052 -0.1047  0.5702
  987PF6-    P114663   1.142   0.086   1.643 -0.0352 -0.5273  0.2214
  987PF6-    F214664   1.049   0.217   1.620 -0.0306 -0.5242  0.0115
  987PF6-    F314665   1.235  -0.036   1.666  0.1828 -0.3037 -0.2388
  987PF6-    F414666   1.037  -0.006   1.573 -0.3635 -0.1828 -0.1382
  987PF6-    F514667   1.258   0.179   1.703  0.0598  0.3374  0.6887
  987PF6-    F614668   1.075   0.068   1.786  0.2781 -0.2350 -0.1646
  987PF6-    F714669   1.213   0.109   1.503  0.2484  0.3845  0.2726
  988PF6-    P114670   0.151   3.493   3.993 -0.3487 -0.4093 -0.5453
  988PF6-    F214671   0.284   3.406   4.026 -0.6162 -0.1383  0.2353
  988PF6-    F314672   0.018   3.578   3.958  0.5322  0.1157  0.1807
  988PF6-    F414673   0.162   3.565   4.136 -1.0680 -0.5175 -0.6372
  988PF6-    F514674   0.146   3.426   3.841 -0.2572 -0.2740 -0.4697
  988PF6-    F614675   0.061   3.373   4.048 -0.1357  0.0449 -0.2172
  988PF6-    F714676   0.243   3.604   3.933  0.4197  0.0701 -0.0588
  989PF6-    P114677   0.684   5.489   0.453  0.1113  0.4187  0.3905
  989PF6-    F214678   0.759   5.569   0.574  0.0277  0.0006  0.2926
  989PF6-    F314679   0.607   5.412   0.333  0.3314 -0.2373 -0.3338
  989PF6-    F414680   0.563   5.588   0.463  0.1671 -0.0508 -0.0316
  989PF6-    F514681   0.804   5.386   0.440  0.0572  0.1025  0.4441
  989PF6-    F614682   0.610   5.390   0.562 -0.1337 -0.1210 -0.3279
  989PF6-    F714683   0.760   5.582   0.350  0.3144  0.1993  0.2135
  990PF6-    P114684   2.199   2.470   1.428  0.2270  0.3698  0.5612
  990PF6-    F214685   2.309   2.547   1.341  0.2412 -0.4541  0.4575
  990PF6-    F314686   2.096   2.392   1.523 -0.6300  0.3811 -0.3423
  990PF6-    F414687   2.312   2.419   1.522  0.0030  0.4844 -0.2212
  990PF6-    F514688   2.084   2.512   1.325  0.1815 -0.8627 -0.8295
  990PF6-    F614689   2.211   2.336   1.346  0.5749 -0.5767  0.2557
  990PF6-    F714690   2.186   2.597   1.521 -0.4888 -0.3058  0.2232
  991PF6-    P114691   0.324   5.152   1.053 -0.4322 -0.2565  0.2972
  991PF6-    F214692   0.296   5.031   1.147  0.3629 -0.5290  0.2740
  991PF6-    F314693   0.367   5.271   0.953 -0.3444 -0.0844 -0.0701
  991PF6-    F414694   0.445   5.068   0.985 -0.3425 -0.1030  0.1108
  991PF6-    F514695   0.206   5.235   1.120 -0.0433 -0.4317 -0.1130
  991PF6-    F614696   0.432   5.217   1.154 -0.2799  0.2537  0.2852
  991PF6-    F714697   0.219   5.096   0.942 -0.0951  0.3738  0.0267
  992PF6-    P114698   3.912   1.050   0.098  0.4655 -0.6969 -0.3029
  992PF6-    F214699   3.872   0.904   0.139  0.0380  0.2904 -0.0026
  992PF6-    F314700   3.960   1.192   0.049  0.3090 -0.1619  0.2321
  992PF6-    F414701   3.768   1.112   0.140  0.4831 -0.2095 -0.1376
  992PF6-    F514702   4.057   1.002   0.057 -0.3815  0.1138  0.6414
  992PF6-    F614703   3.852   1.028  -0.045  0.3138 -0.2368  0.0221
  992PF6-    F714704   3.973   1.085   0.244  0.0377  0.1657 -0.2746
  993PF6-    P114705   2.693   0.189   2.795  0.2312  0.5290 -0.4846
  993PF6-    F214706   2.657   0.307   2.890  0.1102 -0.2131  0.2015
  993PF6-    F314707   2.735   0.062   2.713 -0.7079  0.1538  0.0993
  993PF6-    F414708   2.547   0.126   2.822 -0.3165 -0.3040  0.2341
  993PF6-    F514709   2.841   0.251   2.779  0.3468 -0.2237  0.5526
  993PF6-    F614710   2.743   0.102   2.918 -0.3644  0.2195  0.1414
  993PF6-    F714711   2.630   0.269   2.667 -0.3600  0.7132  0.2721
  994PF6-    P114712   1.518   4.503   3.791  0.3356  0.2767 -0.3593
  994PF6-    F214713   1.374   4.565   3.768 -0.0863  0.4044  0.3652
  994PF6-    F314714   1.667   4.453   3.809  0.5583  0.4434  0.1653
  994PF6-    F414715   1.513   4.421   3.648  0.4673 -0.2657 -0.1552
  994PF6-    F514716   1.535   4.580   3.927  0.0865 -0.0944 -0.5299
  994PF6-    F614717   1.462   4.365   3.868  0.0089 -0.5414 -0.2281
  994PF6-    F714718   1.576   4.630   3.714  0.2756 -0.0350  0.3445
  995PF6-    P114719   0.627   1.477   0.952 -0.0442 -0.0652 -0.1376
  995PF6-    F214720   0.659   1.639   0.932  0.0837  0.1339 -0.4661
  995PF6-    F314721   0.599   1.316   0.970 -0.3384 -0.4576 -0.0964
  995PF6-    F414722   0.593   1.497   1.111  0.2777 -0.6793  0.8431
  995PF6-    F514723   0.660   1.451   0.795  0.1742  0.0360 -0.0426
  995PF6-    F614724   0.780   1.449   0.985  0.0815 -0.2300 -0.3053
  995PF6-    F714725   0.473   1.501   0.927 -0.2931 -0.2583 -0.4445
  996PF6-    P114726   2.371   5.231   3.914 -0.0765  0.4822 -0.3047
  996PF6-    F214727   2.260   5.149   3.992 -0.2424 -0.0966 -0.3524
  996PF6-    F314728   2.480   5.322   3.837 -0.3629  0.4319 -0.2191
  996PF6-    F414729   2.365   5.344   4.023  0.0756  0.0846 -0.5898
  996PF6-    F514730   2.387   5.117   3.805 -0.7881  0.4176 -0.1428
  996PF6-    F614731   2.250   5.295   3.823 -0.0093 -0.1697  0.1649
  996PF6-    F714732   2.487   5.154   4.000  0.6795 -0.3223 -0.4734
  997PF6-    P114733   4.497   4.883   0.228 -0.0975 -0.3807 -0.1067
  997PF6-    F214734   4.442   4.735   0.271  0.4211 -0.1831 -0.1669
  997PF6-    F314735   4.553   5.028   0.183 -0.0798  0.2774  0.3286
  997PF6-    F414736   4.370   4.899   0.132  0.2184 -0.7570 -0.0802
  997PF6-    F514737   4.629   4.867   0.326 -0.0218  0.2159 -0.0217
  997PF6-    F614738   4.584   4.822   0.104  0.4746 -0.2677 -0.7762
  997PF6-    F714739   4.414   4.952   0.344 -0.1614  0.4738  0.2638
  998PF6-    P114740   1.745   4.743   5.133  0.4078  0.0558  0.2882
  998PF6-    F214741   1.665   4.786   5.270  0.0716 -0.1198 -0.1281
  998PF6-    F314742   1.816   4.703   4.995 -0.3833 -0.2956  0.1867
  998PF6-    F414743   1.883   4.796   5.188  0.0177  0.5057  0.9388
  998PF6-    F514744   1.605   4.693   5.072 -0.6581  0.4885  0.1130
  998PF6-    F614745   1.713   4.892   5.072 -0.3009 -0.1620 -0.2649
  998PF6-    F714746   1.771   4.602   5.198  0.1756  0.1101 -0.2806
  999PF6-    P114747   2.859   2.571   2.582 -0.3222  0.3173  0.4299
  999PF6-    F214748   2.725   2.486   2.592 -0.0722 -0.0298 -0.3579
  999PF6-    F314749   2.988   2.661   2.571 -0.0084 -0.3993  0.4553
  999PF6-    F414750   2.893   2.539   2.736 -0.2414 -0.0851  0.0311
  999PF6-    F514751   2.824   2.605   2.425  0.4033 -0.2283 -0.4738
  999PF6-    F614752   2.774   2.701   2.633  0.4005 -0.2649  0.0146
  999PF6-    F714753   2.942   2.441   2.539  0.4650 -0.1689  0.1282
 1000PF6-    P114754   1.327   2.529   1.610 -0.3397 -0.1156 -0.4784
 1000PF6-    F214755   1.333   2.607   1.469 -0.3993 -0.0616  0.1368
 1000PF6-    F314756   1.319   2.461   1.753  0.3027 -0.1017  0.0607
 1000PF6-    F414757   1.469   2.589   1.658  0.5769 -0.5120 -0.1149
 1000PF6-    F514758   1.183   2.473   1.566  0.3039  0.3782 -0.2675
 1000PF6-    F614759   1.394   2.403   1.541 -0.1378 -0.0262  0.0415
 1000PF6-    F714760   1.245   2.644   1.674 -0.3024 -0.8307 -0.8277
 1001PF6-    P114761   4.310   0.338   5.179 -0.1146 -0.1632 -0.0579
 1001PF6-    F214762   4.299   0.389   5.331 -0.4169 -0.3067  0.6648
 1001PF6-    F314763   4.323   0.285   5.025  0.0932 -0.1697  0.3365
 1001PF6-    F414764   4.187   0.431   5.134  0.6676  0.1971 -0.1061
 1001PF6-    F514765   4.432   0.247   5.223 -0.4907 -0.3188 -0.2308
 1001PF6-    F614766   4.212   0.217   5.217 -0.6101 -0.0895  0.0800
 1001PF6-    F714767   4.408   0.458   5.149  0.1321  0.0413 -0.3954
 1002PF6-    P114768   5.049   4.653   1.605  0.2034 -0.1726  0.0996
 1002PF6-    F214769   5.181   4.584   1.542  0.4545 -0.0963 -0.4304
 1002PF6-    F314770   4.919   4.728   1.667 -0.1707  0.5084 -0.2162
 1002PF6-    F414771   4.960   4.517   1.574 -0.3584  0.4085 -0.0729
 1002PF6-    F514772   5.132   4.789   1.630  0.1387 -0.0430 -0.2317
 1002PF6-    F614773   5.004   4.715   1.460 -0.1196  0.1570  0.0773
 1002PF6-    F714774   5.095   4.602   1.752 -0.0563  0.2455  0.2459
 1003PF6-    P114775   1.415   0.894   4.509  0.0520 -0.5701  0.0625
 1003PF6-    F214776   1.477   0.791   4.403 -0.0892  0.6402  0.5752
 1003PF6-    F314777   1.355   0.998   4.619 -0.6002  0.1888  0.2107
 1003PF6-    F414778   1.550   0.879   4.606 -0.1846  0.1601 -0.2313
 1003PF6-    F514779   1.287   0.923   4.419  0.1302 -0.1075  0.0188
 1003PF6-    F614780   1.330   0.777   4.583  0.1670  0.2635  0.3300
 1003PF6-    F714781   1.491   1.019   4.438  0.1436 -0.2474 -0.2453
 1004PF6-    P114782   2.259   3.650   3.649 -0.1533  0.0495 -0.2106
 1004PF6-    F214783   2.209   3.517   3.722  0.1707 -0.4634 -0.1421
 1004PF6-    F314784   2.311   3.784   3.582  0.6378 -0.0252 -0.1799
 1004PF6-    F414785   2.142   3.724   3.715 -0.4186 -0.3120 -0.3409
 1004PF6-    F514786   2.373   3.557   3.573  0.3462 -0.0361 -0.2394
 1004PF6-    F614787   2.156   3.618   3.531  0.6660  0.1006 -0.1381
 1004PF6-    F714788   2.361   3.682   3.769  0.1115  0.3635 -0.2160
 1005PF6-    P114789   2.519   1.396   4.667 -0.1000 -0.1526 -0.4518
 1005PF6-    F214790   2.521   1.400   4.511 -0.0761 -0.2261  0.0472
 1005PF6-    F314791   2.497   1.389   4.828 -0.1724  0.6860 -0.1208
 1005PF6-    F414792   2.418   1.275   4.660 -0.1533 -0.1947 -0.0175
 1005PF6-    F514793   2.616   1.524   4.666  0.4407 -0.4182 -0.0015
 1005PF6-    F614794   2.390   1.491   4.666 -0.3931  0.1930  0.1010
 1005PF6-    F714795   2.646   1.301   4.670 -0.0717  0.4272  0.4037
 1006PF6-    P114796   0.098   5.358   4.694  0.2367  0.1685 -0.4306
 1006PF6-    F214797   0.190   5.231   4.647  0.6206  0.1709  0.6517
 1006PF6-    F314798   0.007   5.476   4.752  0.2879  0.2133  0.2265
 1006PF6-    F414799   0.221   5.465   4.676  0.4673  0.9985 -0.0972
 1006PF6-    F514800  -0.032   5.254   4.710 -0.4185  0.0780 -0.1854
 1006PF6-    F614801   0.149   5.326   4.846 -0.1022 -0.3582 -0.4595
 1006PF6-    F714802   0.057   5.392   4.541  0.1378  0.7052 -0.7550
 1007PF6-    P114803   3.445   5.449   0.766  0.2105 -0.0660 -0.1045
 1007PF6-    F214804   3.549   5.483   0.648 -0.4117  0.2227 -0.3145
 1007PF6-    F314805   3.343   5.415   0.884  0.1071  0.7867  0.4137
 1007PF6-    F414806   3.536   5.316   0.791 -0.5655 -0.0255 -0.0578
 1007PF6-    F514807   3.362   5.586   0.724  0.0690  0.1573  0.4480
 1007PF6-    F614808   3.359   5.367   0.659 -0.1466  0.2750 -0.1298
 1007PF6-    F714809   3.535   5.534   0.861 -0.4393 -0.2247 -0.0788
 1008PF6-    P114810   2.780   4.511   2.993 -0.2617 -0.0528  0.2665
 1008PF6-    F214811   2.887   4.392   2.973  0.1417  0.2381 -0.0407
 1008PF6-    F314812   2.673   4.625   3.022  0.4320 -0.0054  0.2453
 1008PF6-    F414813   2.813   4.563   2.842 -0.4171 -0.2002 -0.0595
 1008PF6-    F514814   2.751   4.451   3.142  0.3796  0.1325  0.2687
 1008PF6-    F614815   2.896   4.603   3.055 -0.9987 -0.2672 -0.0843
 1008PF6-    F714816   2.661   4.417   2.936  0.3193  0.2721 -0.1490
 1009PF6-    P114817   3.184   1.161   1.204 -0.3172 -0.5099  0.1925
 1009PF6-    F214818   3.181   1.095   1.345 -0.2250 -0.3030  0.0647
 1009PF6-    F314819   3.178   1.232   1.056 -0.6070 -0.4643 -0.0269
 1009PF6-    F414820   3.038   1.103   1.178 -0.2584  0.1472 -0.1701
 1009PF6-    F514821   3.333   1.217   1.230  0.2068 -0.2344 -0.0902
 1009PF6-    F614822   3.241   1.025   1.145  0.3729  0.0768 -0.1311
 1009PF6-    F714823   3.133   1.294   1.262 -0.1286  0.1755  0.0012
 1010PF6-    P114824   5.138   2.752   5.179  0.2295  0.3436  0.2092
 1010PF6-    F214825   5.155   2.903   5.212  0.3068 -0.1035 -0.8059
 1010PF6-    F314826   5.110   2.598   5.160  0.0451 -0.1682  0.0110
 1010PF6-    F414827   5.260   2.727   5.279 -0.2634  0.1976  0.0080
 1010PF6-    F514828   5.016   2.797   5.097  0.4834  0.5231  0.3315
 1010PF6-    F614829   5.231   2.758   5.051 -0.1207 -0.0482  0.3035
 1010PF6-    F714830   5.046   2.744   5.313 -0.2952  0.5310 -0.0286
 1011PF6-    P114831   0.981   1.186   1.993  0.1308 -0.2866 -0.2014
 1011PF6-    F214832   1.084   1.242   1.878  0.2351  0.1146 -0.4480
 1011PF6-    F314833   0.870   1.135   2.105 -0.3426 -0.8767 -0.4927
 1011PF6-    F414834   1.037   1.032   1.969 -0.2048 -0.3732 -0.7467
 1011PF6-    F514835   0.922   1.336   2.008 -0.5655 -0.1154 -0.7847
 1011PF6-    F614836   0.870   1.162   1.880  0.8042 -0.1931  0.1007
 1011PF6-    F714837   1.083   1.211   2.114  0.2896 -0.6188  0.7933
 1012PF6-    P114838   1.779   3.188   0.849  0.1009  0.0285  0.2790
 1012PF6-    F214839   1.699   3.290   0.951 -0.2127 -0.5893 -0.1029
 1012PF6-    F314840   1.855   3.090   0.748  0.2537 -0.1514  0.3240
 1012PF6-    F414841   1.910   3.197   0.936 -0.6923  0.7221  0.0211
 1012PF6-    F514842   1.654   3.172   0.756 -0.4851  0.0761  0.2128
 1012PF6-    F614843   1.824   3.311   0.757 -0.1171 -0.0067  0.4050
 1012PF6-    F714844   1.733   3.063   0.932  0.6102  0.2728 -0.6329
 1013PF6-    P114845   3.596   3.179   2.580 -0.0375 -0.3511  0.1082
 1013PF6-    F214846   3.500   3.286   2.504  0.0703 -0.5847  0.6299
 1013PF6-    F314847   3.686   3.080   2.666  0.0551 -0.3897  0.4364
 1013PF6-    F414848   3.709   3.189   2.465  0.3895 -0.4946 -0.1082
 1013PF6-    F514849   3.484   3.173   2.698  0.6611  0.2835  0.5429
 1013PF6-    F614850   3.524   3.061   2.500 -0.3788 -0.3573 -0.5236
 1013PF6-    F714851   3.659   3.305   2.650  0.8093 -0.3537 -0.5153
 1014PF6-    P114852   3.956   2.247   1.007 -0.1250 -0.4669  0.0911
 1014PF6-    F214853   3.858   2.188   0.901  0.3967  0.3093  0.2027
 1014PF6-    F314854   4.062   2.309   1.107 -0.2930  0.2649 -0.3356
 1014PF6-    F414855   3.829   2.264   1.114 -0.9463  0.0634  0.3081
 1014PF6-    F514856   4.071   2.236   0.893 -0.3556  0.6121 -0.0229
 1014PF6-    F614857   3.926   2.398   0.945 -0.0472  0.0577  0.1973
 1014PF6-    F714858   3.985   2.099   1.057  0.0481  0.5144 -0.2375
 1015PF6-    P114859   3.945   0.727   2.940  0.2509  0.2099  0.0828
 1015PF6-    F214860   4.045   0.844   2.988 -0.3249 -0.2827  0.2161
 1015PF6-    F314861   3.843   0.609   2.892  0.0002  0.0114 -0.0144
 1015PF6-    F414862   3.824   0.839   2.940 -0.5275 -0.0083  0.4754
 1015PF6-    F514863   4.072   0.625   2.943  0.2948 -0.0570  0.3405
 1015PF6-    F614864   3.915   0.687   3.093  0.0541 -0.5364  0.6975
 1015PF6-    F714865   3.973   0.760   2.782 -0.1583 -0.6119  0.4839
 1016PF6-    P114866   0.364   0.109   2.411 -0.0151 -0.3500 -0.1505
 1016PF6-    F214867   0.391  -0.023   2.505  0.4643 -0.1009  0.4291
 1016PF6-    F314868   0.346   0.236   2.312 -0.1600 -0.1857  0.0956
 1016PF6-    F414869   0.206   0.097   2.427 -0.6819 -0.2035  0.1533
 1016PF6-    F514870   0.522   0.125   2.403 -0.5300 -0.4918  0.6882
 1016PF6-    F614871   0.367   0.015   2.277 -0.1056 -0.4489 -0.2061
 1016PF6-    F714872   0.356   0.210   2.542 -0.8000  0.0510  0.4460
 1017PF6-    P114873   2.292   0.464   0.241  0.1143  0.3679  0.1351
 1017PF6-    F214874   2.437   0.406   0.199 -0.1167 -0.6500  0.3665
 1017PF6-    F314875   2.150   0.516   0.282 -0.1807  0.2282 -0.3487
 1017PF6-    F414876   2.213   0.368   0.135  0.1812  0.0905 -0.1883
 1017PF6-    F514877   2.357   0.562   0.350  0.2762 -0.2428  0.2219
 1017PF6-    F614878   2.295   0.577   0.130 -0.0340 -0.1220  0.4945
 1017PF6-    F714879   2.273   0.351   0.354 -0.3798 -0.4565 -0.5152
 1018PF6-    P114880   3.679   4.789   4.102  0.3937  0.0831 -0.0104
 1018PF6-    F214881   3.607   4.646   4.070 -0.2428 -0.6783  0.4829
 1018PF6-    F314882   3.749   4.934   4.133  0.8673  0.4565 -0.1831
 1018PF6-    F414883   3.779   4.760   3.983 -0.1343  0.7359 -0.0279
 1018PF6-    F514884   3.580   4.809   4.224 -0.2186 -0.4408 -0.2021
 1018PF6-    F614885   3.780   4.717   4.198 -0.1472 -0.1331  0.1501
 1018PF6-    F714886   3.576   4.868   4.004  0.1431  0.4072 -0.4886
 1019PF6-    P114887   1.143   1.084   3.363  0.4119 -0.1238  0.1140
 1019PF6-    F214888   1.074   1.000   3.483 -0.7554 -0.3030  0.4495
 1019PF6-    F314889   1.209   1.168   3.246  0.1037 -0.0346 -0.2412
 1019PF6-    F414890   1.179   1.203   3.464 -0.2274  0.3788 -0.2114
 1019PF6-    F514891   1.118   0.963   3.265  0.0430 -0.6479  0.2491
 1019PF6-    F614892   1.006   1.157   3.328  0.0014 -0.0321 -0.1143
 1019PF6-    F714893   1.288   1.023   3.393  0.4743 -0.1719  0.1557
 1020PF6-    P114894   1.872   2.611   3.466  0.3501  0.1326  0.5666
 1020PF6-    F214895   2.023   2.599   3.522 -0.0751  0.1074 -0.3335
 1020PF6-    F314896   1.728   2.623   3.407  0.3373 -0.2392 -0.3026
 1020PF6-    F414897   1.900   2.485   3.369  0.1582  0.1744  0.0617
 1020PF6-    F514898   1.838   2.741   3.557  0.3373 -0.0065  0.2853
 1020PF6-    F614899   1.922   2.705   3.354 -0.1967 -0.3937 -0.2683
 1020PF6-    F714900   1.822   2.516   3.581  0.0068  0.0531 -0.0331
 1021PF6-    P114901   0.995   3.429   1.913 -0.1395 -0.2840 -0.1979
 1021PF6-    F214902   0.884   3.473   1.804 -0.9045  0.5005  0.1484
 1021PF6-    F314903   1.103   3.375   2.033 -0.4935 -0.5286 -0.2296
 1021PF6-    F414904   0.976   3.573   1.981 -0.4857 -0.1118 -0.6975
 1021PF6-    F514905   1.012   3.285   1.852 -0.0356  0.4557  0.0880
 1021PF6-    F614906   1.123   3.482   1.831 -0.3556 -0.2756 -0.2775
 1021PF6-    F714907   0.873   3.372   2.004 -0.2203  0.6110  0.0429
 1022PF6-    P114908   1.117   3.794   4.436 -0.0650  0.3748  0.2576
 1022PF6-    F214909   1.020   3.673   4.481 -0.0921 -0.3540 -0.1786
 1022PF6-    F314910   1.213   3.911   4.379 -0.0438 -0.8396 -0.4752
 1022PF6-    F414911   1.209   3.689   4.353 -0.1582 -0.2166  0.1712
 1022PF6-    F514912   1.025   3.896   4.519  0.0590  0.1504  0.5329
 1022PF6-    F614913   1.209   3.766   4.563  0.4893 -0.0325 -0.2807
 1022PF6-    F714914   1.027   3.820   4.310  0.1989  0.3416  0.4977
 1023PF6-    P114915   2.022   2.311   5.484 -0.4123 -0.1340 -0.5208
 1023PF6-    F214916   1.863   2.336   5.465  0.1370 -0.5477  0.0609
 1023PF6-    F314917   2.183   2.287   5.497  0.1309 -0.0351  0.2226
 1023PF6-    F414918   2.047   2.408   5.356 -0.2598 -0.4141 -0.6069
 1023PF6-    F514919   2.006   2.223   5.617  0.6010 -0.6522  0.0260
 1023PF6-    F614920   2.015   2.180   5.387  0.6047 -0.5870 -0.2568
 1023PF6-    F714921   2.043   2.441   5.584  0.2306 -0.1325 -0.1501
 1024PF6-    P114922   1.790   4.204   0.581  0.7465 -0.0399 -0.1003
 1024PF6-    F214923   1.716   4.084   0.504 -0.0055 -0.0226  0.4962
 1024PF6-    F314924   1.856   4.329   0.661 -0.2727 -0.2998 -0.2881
 1024PF6-    F414925   1.837   4.099   0.698 -0.1651 -0.1391 -0.1374
 1024PF6-    F514926   1.739   4.300   0.460  0.2764  0.7602 -0.1499
 1024PF6-    F614927   1.651   4.233   0.663  0.1453  0.1008 -0.6220
 1024PF6-    F714928   1.923   4.171   0.503 -0.1334  0.2300  0.1171
 1025PF6-    P114929   4.225   0.957   2.018  0.2944  0.2449 -0.6703
 1025PF6-    F214930   4.066   0.975   2.012 -0.2744 -0.3906  0.2148
 1025PF6-    F314931   4.385   0.929   2.035  0.0008  0.2062 -0.3309
 1025PF6-    F414932   4.198   0.806   2.089 -0.5017 -0.0237  0.0250
 1025PF6-    F514933   4.256   1.097   1.939  0.3971 -0.1856 -0.7305
 1025PF6-    F614934   4.230   1.030   2.158 -0.4023 -0.3117  0.3093
 1025PF6-    F714935   4.227   0.885   1.877  0.9084 -0.2371  0.0011
 1026PF6-    P114936   0.069   3.321   1.683  0.0007 -0.0144  0.3059
 1026PF6-    F214937   0.100   3.168   1.647 -0.5261 -0.1158  0.0992
 1026PF6-    F314938   0.034   3.473   1.717 -0.2048 -0.0618 -0.6113
 1026PF6-    F414939  -0.046   3.313   1.574 -0.0394 -0.2564 -0.3218
 1026PF6-    F514940   0.195   3.323   1.789  0.5112  0.5793  0.0701
 1026PF6-    F614941   0.173   3.379   1.571 -0.1072  0.3050 -0.1260
 1026PF6-    F714942  -0.031   3.274   1.798  0.2117  0.0222 -0.4413
 1027PF6-    P114943   0.292   2.233   1.557 -0.3352 -0.0288  0.0578
 1027PF6-    F214944   0.179   2.204   1.658 -0.3419 -0.6735  0.0283
 1027PF6-    F314945   0.417   2.264   1.456  0.1169  0.6944  0.3914
 1027PF6-    F414946   0.362   2.328   1.656  0.1127 -0.2461 -0.5987
 1027PF6-    F514947   0.222   2.127   1.447  0.2076 -0.4621  0.1200
 1027PF6-    F614948   0.203   2.357   1.500  0.2477 -0.0995  0.2404
 1027PF6-    F714949   0.381   2.111   1.615 -0.0259 -0.2442  0.5905
 1028PF6-    P114950   0.995   3.479   3.307  0.0568  0.5061 -0.0431
 1028PF6-    F214951   1.029   3.404   3.170 -0.6272 -0.5911 -0.1084
 1028PF6-    F314952   0.968   3.552   3.449  0.0188 -0.4684  0.1649
 1028PF6-    F414953   1.117   3.405   3.376  0.6050  0.4635 -0.0970
 1028PF6-    F514954   0.872   3.558   3.236  0.3847  0.6458 -0.3369
 1028PF6-    F614955   0.892   3.359   3.353  0.3727  0.0335 -0.1206
 1028PF6-    F714956   1.100   3.598   3.260  0.0335  0.5769 -0.2690
 1029PF6-    P114957   5.359   0.689   0.309  0.3555  0.6052  0.2420
 1029PF6-    F214958   5.221   0.698   0.387 -0.1834  0.3560 -0.3042
 1029PF6-    F314959   5.495   0.682   0.225  0.3642  0.0599  0.2785
 1029PF6-    F414960   5.408   0.813   0.394  0.2032 -0.3362 -0.0083
 1029PF6-    F514961   5.302   0.564   0.223  0.1537 -0.2643  0.1898
 1029PF6-    F614962   5.298   0.788   0.197  0.4811  0.0969  0.4601
 1029PF6-    F714963   5.424   0.587   0.419 -0.0479  0.0921 -0.1764
 1030PF6-    P114964   4.340   2.547   4.943 -0.5770  0.6150 -0.1388
 1030PF6-    F214965   4.319   2.412   4.864  0.1734  0.2572  0.2257
 1030PF6-    F314966   4.365   2.684   5.024  0.4295 -0.4173 -0.0188
 1030PF6-    F414967   4.489   2.552   4.883 -0.0692 -0.3105 -0.0927
 1030PF6-    F514968   4.190   2.531   5.006 -0.2180 -0.2434 -0.2014
 1030PF6-    F614969   4.400   2.463   5.069 -0.2692  0.1061 -0.1651
 1030PF6-    F714970   4.282   2.632   4.818  0.4535  0.0444  0.1047
 1031PF6-    P114971   0.447   1.522   4.358  0.4317 -0.2942  0.0802
 1031PF6-    F214972   0.369   1.389   4.324 -0.2974 -0.3735 -0.3607
 1031PF6-    F314973   0.511   1.660   4.395  0.1794  0.0682  0.1240
 1031PF6-    F414974   0.332   1.548   4.465  0.0678  0.2790  0.8385
 1031PF6-    F514975   0.562   1.498   4.249  0.3038 -0.2767  0.0871
 1031PF6-    F614976   0.356   1.603   4.253 -0.1354  0.4397  0.3959
 1031PF6-    F714977   0.541   1.451   4.468  0.0978  0.3165 -0.0479
 1032PF6-    P114978   0.505   0.449   4.200 -0.3668 -0.2190  0.2007
 1032PF6-    F214979   0.491   0.573   4.108  0.1757 -0.4538 -0.3037
 1032PF6-    F314980   0.522   0.323   4.295  0.3279  0.0245  0.2620
 1032PF6-    F414981   0.349   0.446   4.227 -0.3675  0.2802 -0.0724
 1032PF6-    F514982   0.662   0.445   4.176 -0.0465 -0.0191  0.6045
 1032PF6-    F614983   0.522   0.540   4.328 -0.4182  0.1325 -0.1775
 1032PF6-    F714984   0.475   0.354   4.072  0.3287 -0.6378  0.2518
 1033PF6-    P114985   5.430   1.176   3.707  0.1105 -0.2410  0.2823
 1033PF6-    F214986   5.524   1.210   3.829 -0.3047 -0.2784  0.2283
 1033PF6-    F314987   5.336   1.126   3.588 -0.2271  0.0766  0.0129
 1033PF6-    F414988   5.344   1.093   3.809  0.6078  0.0636 -0.0885
 1033PF6-    F514989   5.526   1.250   3.610 -0.3035  0.2337  0.5386
 1033PF6-    F614990   5.523   1.043   3.696 -0.5661 -0.7919  0.1405
 1033PF6-    F714991   5.338   1.307   3.715  0.1088 -0.2831 -0.1929
 1034PF6-    P114992   1.899   1.675   0.956  0.3413  0.1095  0.2456
 1034PF6-    F214993   2.001   1.786   1.009  0.0720 -0.0824 -0.0264
 1034PF6-    F314994   1.789   1.566   0.909  0.0186  0.2474 -0.0699
 1034PF6-    F414995   1.975   1.665   0.816  0.2648 -0.4534  0.1281
 1034PF6-    F514996   1.825   1.684   1.097 -0.1807  0.3491  0.3020
 1034PF6-    F614997   1.807   1.790   0.898  0.0244 -0.1132  0.6644
 1034PF6-    F714998   1.996   1.552   1.006 -0.0154  0.1491  0.4667
 1035PF6-    P114999   1.757   0.698   1.067 -0.3313  0.2746 -0.1180
 1035PF6-    F215000   1.614   0.662   0.996 -0.2041  0.1489 -0.0252
 1035PF6-    F315001   1.895   0.729   1.138 -0.1859 -0.1690 -0.8588
 1035PF6-    F415002   1.676   0.705   1.208 -0.5976 -0.4134 -0.4722
 1035PF6-    F515003   1.833   0.693   0.922  0.4039 -0.4742 -0.3822
 1035PF6-    F615004   1.724   0.851   1.052  0.5921 -0.4301  0.5013
 1035PF6-    F715005   1.790   0.543   1.082 -0.0790 -0.3508 -0.2983
 1036PF6-    P115006   0.964   5.352   3.882 -0.2000 -0.2070 -0.5238
 1036PF6-    F215007   1.044   5.319   3.743 -0.1806  0.0320  0.3972
 1036PF6-    F315008   0.879   5.383   4.016 -0.1618  0.1723  0.1650
 1036PF6-    F415009   1.012   5.211   3.940  0.5251  0.0855 -0.0461
 1036PF6-    F515010   0.917   5.491   3.814  0.0601  0.4687  0.3523
 1036PF6-    F615011   0.832   5.283   3.815 -0.4090 -0.3604 -0.1026
 1036PF6-    F715012   1.093   5.420   3.946  0.2063 -0.5384 -0.0117
 1037PF6-    P115013   3.532   5.066   2.878  0.1845 -0.5689 -0.1325
 1037PF6-    F215014   3.522   5.153   3.011 -0.6243  0.2441 -0.3599
 1037PF6-    F315015   3.548   4.978   2.734  0.1051  0.2376 -0.5157
 1037PF6-    F415016   3.384   5.006   2.900 -0.0019 -0.0324  0.3685
 1037PF6-    F515017   3.680   5.120   2.850 -0.1917  1.0228 -0.6967
 1037PF6-    F615018   3.598   4.945   2.960 -0.3732  0.3309  0.5616
 1037PF6-    F715019   3.475   5.186   2.798  0.5899  0.2607  1.0263
 1038PF6-    P115020   4.836   4.325   3.855  0.1760  0.4333 -0.2567
 1038PF6-    F215021   4.948   4.278   3.750  0.2066  0.1817  0.3287
 1038PF6-    F315022   4.714   4.364   3.951 -0.2691  0.4837  0.2485
 1038PF6-    F415023   4.923   4.453   3.902  0.1826  0.2724  0.6738
 1038PF6-    F515024   4.758   4.192   3.809  0.2364 -0.2795 -0.3398
 1038PF6-    F615025   4.908   4.244   3.974 -0.2399  0.2763 -0.1254
 1038PF6-    F715026   4.763   4.411   3.741 -0.3446  0.5932 -0.2999
 1039PF6-    P115027   2.884   3.705   2.405  0.4068  0.2069  0.0289
 1039PF6-    F215028   2.890   3.545   2.405 -0.0564 -0.0747 -0.4678
 1039PF6-    F315029   2.876   3.865   2.412  0.4214  0.1666 -0.4252
 1039PF6-    F415030   2.747   3.695   2.324 -0.1932  0.2082 -0.1979
 1039PF6-    F515031   3.010   3.713   2.496  0.4430  0.4155 -0.2226
 1039PF6-    F615032   2.967   3.725   2.271  0.4857  0.4586 -0.1279
 1039PF6-    F715033   2.798   3.699   2.534  0.0602 -0.3928 -0.6271
 1040PF6-    P115034   2.648   1.050   2.360 -0.0137 -0.3791 -0.3059
 1040PF6-    F215035   2.709   1.064   2.508 -0.3232  0.4531  0.2569
 1040PF6-    F315036   2.590   1.048   2.213 -0.2788  0.1218 -0.1799
 1040PF6-    F415037   2.801   1.041   2.312 -0.7811  0.0716 -0.0083
 1040PF6-    F515038   2.492   1.059   2.412  0.0824 -0.0740  0.5433
 1040PF6-    F615039   2.645   1.211   2.342 -0.4382  0.3512 -0.2533
 1040PF6-    F715040   2.645   0.891   2.374 -0.5808 -0.1855  0.1123
 1041PF6-    P115041   1.896   1.331   5.351 -0.3781 -0.0096  0.0777
 1041PF6-    F215042   2.015   1.296   5.454 -0.2874  0.1878  0.0071
 1041PF6-    F315043   1.775   1.365   5.247  0.6021  0.4704  0.1981
 1041PF6-    F415044   1.974   1.236   5.248  0.3690 -0.1322 -0.3614
 1041PF6-    F515045   1.833   1.431   5.460  0.1025  0.2203  0.3509
 1041PF6-    F615046   1.979   1.457   5.295  0.0900  0.0731 -0.0892
 1041PF6-    F715047   1.817   1.203   5.412  0.4725 -0.1450 -0.2073
 1042PF6-    P115048   5.252   4.008   1.042 -0.4987  0.0372  0.1113
 1042PF6-    F215049   5.197   3.895   1.148 -0.1352  0.0598 -0.2529
 1042PF6-    F315050   5.305   4.120   0.943 -0.0601 -0.5771  0.7458
 1042PF6-    F415051   5.103   4.023   0.985  0.6908 -0.2021 -0.2114
 1042PF6-    F515052   5.405   3.997   1.093  0.0932 -0.2175 -0.1313
 1042PF6-    F615053   5.280   3.896   0.926 -0.2290  0.1131 -0.2344
 1042PF6-    F715054   5.221   4.120   1.151  0.2381 -0.0167 -0.4245
 1043PF6-    P115055   2.973   0.580   5.037 -0.2544 -0.3402 -0.5350
 1043PF6-    F215056   2.939   0.428   4.998 -0.3457 -0.1911  0.3386
 1043PF6-    F315057   3.005   0.730   5.085  0.5790  0.2697 -1.3025
 1043PF6-    F415058   2.923   0.637   4.895  0.0822 -0.4834  0.2540
 1043PF6-    F515059   3.024   0.530   5.182 -0.3446  0.0649 -0.4726
 1043PF6-    F615060   3.128   0.573   4.981 -0.5372 -0.1180  0.2604
 1043PF6-    F715061   2.825   0.591   5.096  0.0460  0.1188 -0.4463
 1044PF6-    P115062   1.717   5.298   1.019  0.2554 -0.1919 -0.2381
 1044PF6-    F215063   1.610   5.405   0.971 -0.2053 -0.2588 -0.2135
 1044PF6-    F315064   1.824   5.187   1.060 -0.6298 -0.1101 -0.6131
 1044PF6-    F415065   1.839   5.399   0.975 -0.2711  0.2754 -0.0954
 1044PF6-    F515066   1.589   5.206   1.050  0.2543  0.1931  0.0625
 1044PF6-    F615067   1.711   5.239   0.869 -0.1913  0.2082 -0.1789
 1044PF6-    F715068   1.718   5.357   1.166 -0.5764 -0.4774 -0.4204
 1045PF6-    P115069   2.329   0.522   3.443 -0.1710 -0.1741 -0.1361
 1045PF6-    F215070   2.217   0.407   3.431  0.0428 -0.0206  0.0787
 1045PF6-    F315071   2.437   0.637   3.456 -0.0641  0.4206 -0.7695
 1045PF6-    F415072   2.282   0.552   3.596  0.5517  0.3393 -0.1391
 1045PF6-    F515073   2.367   0.490   3.294 -0.9485 -0.7049  0.6429
 1045PF6-    F615074   2.224   0.634   3.390 -0.3989  0.0776  0.2997
 1045PF6-    F715075   2.432   0.412   3.492 -0.2923 -0.1589 -0.4364
 1046PF6-    P115076   1.889   0.029   2.252  0.4528 -0.2930  0.0718
 1046PF6-    F215077   2.027  -0.051   2.253 -0.2604  0.2932 -0.5790
 1046PF6-    F315078   1.742   0.107   2.253  0.3113 -0.5935 -0.5550
 1046PF6-    F415079   1.916   0.079   2.102 -0.0651  0.7195 -0.1901
 1046PF6-    F515080   1.852  -0.019   2.398 -0.7333 -0.0781 -0.4085
 1046PF6-    F615081   1.966   0.159   2.308  0.2392 -0.3687 -0.1416
 1046PF6-    F715082   1.808  -0.102   2.192 -0.4221 -0.0073  0.2203
 1047PF6-    P115083   5.025   1.201   2.094 -0.1880 -0.2537  0.0582
 1047PF6-    F215084   5.159   1.184   2.179 -0.2560 -0.2417 -0.0058
 1047PF6-    F315085   4.891   1.220   2.010  0.2377  0.6104 -0.1779
 1047PF6-    F415086   4.962   1.082   2.182  0.0415 -0.0350  0.8854
 1047PF6-    F515087   5.091   1.316   2.005 -0.6801 -0.1587  0.4447
 1047PF6-    F615088   5.068   1.085   1.986  0.3248 -0.1826 -0.0622
 1047PF6-    F715089   4.974   1.314   2.198 -0.4656  0.3334 -0.4718
 1048PF6-    P115090   5.087   3.673   3.296 -0.2908  0.3498  0.3240
 1048PF6-    F215091   4.981   3.550   3.303  0.1461 -0.4845  0.5450
 1048PF6-    F315092   5.185   3.794   3.287 -0.2723  0.1515  0.4229
 1048PF6-    F415093   4.965   3.774   3.290  0.1441 -0.3517  0.5013
 1048PF6-    F515094   5.209   3.569   3.297  0.5552 -0.0438  0.0606
 1048PF6-    F615095   5.085   3.666   3.132 -0.2909 -0.0958  0.0367
 1048PF6-    F715096   5.089   3.674   3.462 -0.7153 -0.2437  0.3094
 1049PF6-    P115097   1.157   4.276   2.947  0.1000 -0.3898 -0.0473
 1049PF6-    F215098   1.157   4.261   2.789  0.1132 -0.6265  0.4050
 1049PF6-    F315099   1.159   4.293   3.109  0.0504  0.3689 -0.0790
 1049PF6-    F415100   1.009   4.343   2.934 -0.0692  0.6931  0.4053
 1049PF6-    F515101   1.301   4.209   2.950 -0.4586  0.3837 -0.0351
 1049PF6-    F615102   1.222   4.428   2.930  0.1597 -0.1775  0.0579
 1049PF6-    F715103   1.088   4.130   2.959 -0.2420 -0.5257 -0.4198
 1050PF6-    P115104   3.144   1.574   5.246  0.0394  0.4763  0.2898
 1050PF6-    F215105   3.303   1.603   5.235 -0.1524 -0.1540  0.7714
 1050PF6-    F315106   2.987   1.541   5.263 -0.0481  0.4552  0.4540
 1050PF6-    F415107   3.120   1.731   5.277 -0.4797  0.1924 -0.1086
 1050PF6-    F515108   3.174   1.425   5.210  0.0387 -0.1700 -0.1041
 1050PF6-    F615109   3.164   1.540   5.406  0.2867  0.1830  0.1465
 1050PF6-    F715110   3.122   1.611   5.088  0.2863 -0.2028 -0.6494
 1051PF6-    P115111   4.530   5.173   3.718  0.3524  0.0380 -0.3081
 1051PF6-    F215112   4.596   5.092   3.593  0.9463 -0.2761 -0.4462
 1051PF6-    F315113   4.469   5.249   3.840  0.6565 -0.1302  0.2624
 1051PF6-    F415114   4.396   5.085   3.707 -0.3684 -0.0263  0.3230
 1051PF6-    F515115   4.668   5.260   3.729  0.2328  0.0896 -0.4190
 1051PF6-    F615116   4.469   5.280   3.620  0.4606 -0.3327 -0.1299
 1051PF6-    F715117   4.594   5.067   3.819 -0.6193  0.1223  0.0489
 1052PF6-    P115118   3.790   2.443   3.653  0.1319  0.2130 -0.7770
 1052PF6-    F215119   3.751   2.288   3.656  0.0770  0.3479  0.8892
 1052PF6-    F315120   3.833   2.600   3.655 -0.4542  0.3285  0.2618
 1052PF6-    F415121   3.931   2.396   3.708 -0.3022  0.1594 -0.0189
 1052PF6-    F515122   3.638   2.482   3.612 -0.8108 -0.2760  0.1755
 1052PF6-    F615123   3.752   2.453   3.810  0.7477 -0.4691  0.0391
 1052PF6-    F715124   3.836   2.433   3.500 -0.3745  0.0312 -0.2811
 1053PF6-    P115125   3.673   2.282   1.987 -0.4069 -0.2301 -0.0880
 1053PF6-    F215126   3.807   2.206   2.025 -0.0506  0.8105  0.2051
 1053PF6-    F315127   3.538   2.360   1.948  0.5973 -0.2928 -0.1679
 1053PF6-    F415128   3.654   2.342   2.133 -0.2181  0.4746 -0.0272
 1053PF6-    F515129   3.681   2.225   1.836 -0.1963  0.0840 -0.0004
 1053PF6-    F615130   3.586   2.152   2.030 -0.2165 -0.1533  0.5380
 1053PF6-    F715131   3.762   2.409   1.946  0.2550 -0.2746  0.1242
 1054PF6-    P115132   0.010   1.595   0.138 -0.6165  0.5055 -0.0963
 1054PF6-    F215133   0.115   1.709   0.105 -0.2005 -0.1135 -0.1252
 1054PF6-    F315134  -0.093   1.478   0.166  0.1928 -0.2539  0.2549
 1054PF6-    F415135  -0.001   1.571  -0.023 -0.1188 -0.1509  0.0736
 1054PF6-    F515136   0.018   1.631   0.293  0.1184  0.2663 -0.1369
 1054PF6-    F615137  -0.116   1.695   0.118  0.3525  0.3942  0.0711
 1054PF6-    F715138   0.135   1.488   0.147  0.2005  0.1692  0.2952
 1055PF6-    P115139   4.326   5.437   2.668  0.3994  0.2090 -0.1356
 1055PF6-    F215140   4.352   5.592   2.695  0.0049 -0.3274 -0.0191
 1055PF6-    F315141   4.303   5.282   2.636 -0.9972  0.1924 -0.4972
 1055PF6-    F415142   4.458   5.425   2.584  0.9352  0.0976  0.7346
 1055PF6-    F515143   4.198   5.450   2.753 -0.2965 -0.1274  0.3483
 1055PF6-    F615144   4.256   5.486   2.538 -0.1128 -0.2793  0.0451
 1055PF6-    F715145   4.404   5.397   2.796  0.2640 -0.2597  0.1802
 1056PF6-    P115146   0.206   2.453   0.054  0.2960  0.4201 -0.1297
 1056PF6-    F215147   0.073   2.530  -0.005  0.0318 -0.3388 -0.3995
 1056PF6-    F315148   0.334   2.382   0.115 -0.1615 -0.0262  0.2690
 1056PF6-    F415149   0.298   2.522  -0.059  0.1106  0.1222  0.6453
 1056PF6-    F515150   0.119   2.387   0.166 -0.5286  0.2502 -0.4696
 1056PF6-    F615151   0.186   2.324  -0.040 -0.1010 -0.1368  0.4356
 1056PF6-    F715152   0.232   2.579   0.157 -0.1815  0.2074  0.3881
 1057PF6-    P115153   3.301   5.309   5.201 -0.0060 -0.3923  0.5449
 1057PF6-    F215154   3.376   5.356   5.067 -0.1342  0.4072  0.2018
 1057PF6-    F315155   3.225   5.259   5.336  0.3554  0.2366 -0.0506
 1057PF6-    F415156   3.161   5.363   5.150  0.2125 -0.0552 -0.1748
 1057PF6-    F515157   3.446   5.256   5.246  0.8690  0.4638 -0.2005
 1057PF6-    F615158   3.343   5.450   5.276  0.4243  0.2074 -0.2162
 1057PF6-    F715159   3.273   5.165   5.135 -0.4285 -0.3375  0.0451
 1058PF6-    P115160   1.173   4.606   2.097 -0.1563  0.5224 -0.2223
 1058PF6-    F215161   1.023   4.549   2.123  0.0714  0.0261 -0.3854
 1058PF6-    F315162   1.318   4.672   2.059 -0.4915 -0.3247 -0.2815
 1058PF6-    F415163   1.104   4.752   2.104  0.2203  0.0274  0.2456
 1058PF6-    F515164   1.236   4.460   2.085  0.0172  0.1438  0.3247
 1058PF6-    F615165   1.147   4.603   1.937 -0.3691  0.3658 -0.3292
 1058PF6-    F715166   1.199   4.600   2.253 -0.0428  0.4141 -0.8955
 1059PF6-    P115167   0.174   4.854   3.842  0.4004 -0.2492  0.1950
 1059PF6-    F215168   0.317   4.800   3.790  0.1420  0.1642  0.1573
 1059PF6-    F315169   0.029   4.910   3.893 -0.2135  0.3238  0.1679
 1059PF6-    F415170   0.140   4.925   3.702 -0.6425 -0.3129 -0.1534
 1059PF6-    F515171   0.203   4.790   3.985 -0.3206  0.1048 -0.0884
 1059PF6-    F615172   0.238   4.994   3.885 -0.2604  0.3487 -0.1767
 1059PF6-    F715173   0.101   4.719   3.796  0.4515 -0.1839 -0.4786
 1060PF6-    P115174   2.598   3.065   5.097 -0.1965  0.3217  0.0286
 1060PF6-    F215175   2.589   3.183   5.204 -0.6315 -0.2115 -0.4654
 1060PF6-    F315176   2.612   2.947   4.988  0.2701  0.0235  0.1521
 1060PF6-    F415177   2.440   3.022   5.123 -0.0162  1.3705  0.9324
 1060PF6-    F515178   2.751   3.111   5.073  0.1551  0.1670  0.1630
 1060PF6-    F615179   2.647   2.969   5.218  0.3975  0.6648 -0.0739
 1060PF6-    F715180   2.559   3.161   4.985 -0.1882 -0.0494 -0.2652
 1061PF6-    P115181   2.714   0.140   1.763  0.1379 -0.6916 -0.0565
 1061PF6-    F215182   2.802   0.166   1.891  0.4269 -0.0219 -0.1158
 1061PF6-    F315183   2.625   0.109   1.636 -0.1739  0.0183 -0.1444
 1061PF6-    F415184   2.839   0.044   1.707 -0.0029 -0.0311 -0.1353
 1061PF6-    F515185   2.594   0.226   1.823  0.2645  0.3788  0.0238
 1061PF6-    F615186   2.777   0.265   1.681  0.4382 -0.2578  0.0088
 1061PF6-    F715187   2.654   0.008   1.834  0.3208 -0.2967  0.0407
 1062PF6-    P115188   3.694   0.394   3.904  0.0306  0.6960 -0.2065
 1062PF6-    F215189   3.586   0.509   3.869  0.4506  0.7181 -0.2714
 1062PF6-    F315190   3.795   0.280   3.931 -0.1235 -0.2792 -0.6314
 1062PF6-    F415191   3.646   0.321   3.767  0.2348 -0.5574 -0.0563
 1062PF6-    F515192   3.738   0.470   4.036  0.3144 -0.2540 -0.1467
 1062PF6-    F615193   3.582   0.309   3.985 -0.0345  0.0845  0.1000
 1062PF6-    F715194   3.806   0.472   3.822 -0.4247  0.3588  0.1596
 1063PF6-    P115195   1.493   0.229   3.067  0.7309  0.2149 -0.0660
 1063PF6-    F215196   1.651   0.226   3.052 -0.0267  0.2430 -0.1047
 1063PF6-    F315197   1.332   0.229   3.089 -0.0179 -0.2178  0.2588
 1063PF6-    F415198   1.506   0.195   3.224 -0.2788 -0.3976 -0.0688
 1063PF6-    F515199   1.478   0.270   2.909  0.1408 -0.5929  0.1426
 1063PF6-    F615200   1.491   0.072   3.032  0.3447  0.0320 -0.2678
 1063PF6-    F715201   1.496   0.384   3.113  0.9095  0.3872  0.2283
 1064PF6-    P115202   2.870   4.530   4.609  0.2296 -0.7065  0.0577
 1064PF6-    F215203   2.881   4.610   4.742  0.3086 -0.2772 -0.2209
 1064PF6-    F315204   2.857   4.444   4.475 -0.1178 -0.3175  0.0878
 1064PF6-    F415205   2.744   4.450   4.667 -0.1677 -0.0118  0.2751
 1064PF6-    F515206   3.002   4.600   4.555 -0.1479 -0.9750  0.0431
 1064PF6-    F615207   2.959   4.415   4.671  0.3172  0.4487 -0.2575
 1064PF6-    F715208   2.774   4.643   4.550  0.2444 -0.0618  0.3376
 1065PF6-    P115209   2.091   4.811   1.827  0.2623  0.0236  0.0330
 1065PF6-    F215210   2.125   4.653   1.834 -0.4560  0.4013  0.0119
 1065PF6-    F315211   2.051   4.961   1.812  0.5923  0.3106  0.1802
 1065PF6-    F415212   2.247   4.845   1.822  0.0652 -0.4666  0.4622
 1065PF6-    F515213   1.933   4.771   1.838  0.2051 -0.0169  0.0675
 1065PF6-    F615214   2.091   4.821   1.987 -0.8784 -0.9014  0.1307
 1065PF6-    F715215   2.088   4.788   1.667 -0.0206 -0.5303 -0.3750
 1066PF6-    P115216   4.889   1.649   0.100 -0.4358  0.2465 -0.6721
 1066PF6-    F215217   5.043   1.658   0.139 -0.7711  0.5385 -0.4244
 1066PF6-    F315218   4.731   1.636   0.060  0.3148  0.0404 -0.1093
 1066PF6-    F415219   4.896   1.483   0.113  0.1176 -0.2964  0.4630
 1066PF6-    F515220   4.889   1.803   0.093  0.3188 -0.4429  0.7269
 1066PF6-    F615221   4.932   1.633  -0.052 -0.1422 -0.2625 -0.6183
 1066PF6-    F715222   4.853   1.655   0.258  0.2011 -0.5481  0.2510
 1067PF6-    P115223   0.242   1.418   2.806 -0.1946 -0.0496  0.1924
 1067PF6-    F215224   0.176   1.564   2.799  0.2498 -0.0590 -0.0876
 1067PF6-    F315225   0.302   1.270   2.809 -0.2105 -0.3420 -0.5993
 1067PF6-    F415226   0.385   1.486   2.843  0.5006  0.2804 -0.2510
 1067PF6-    F515227   0.099   1.358   2.763  0.0515  0.2855  1.0438
 1067PF6-    F615228   0.282   1.429   2.649  0.3002  0.0922 -0.6205
 1067PF6-    F715229   0.207   1.408   2.960  0.7590 -0.0186 -0.2130
 1068PF6-    P115230   2.141   4.980   3.210 -0.2187  0.1927 -0.0733
 1068PF6-    F215231   2.184   5.055   3.073  0.0973  0.2928  0.2610
 1068PF6-    F315232   2.108   4.922   3.353 -0.0267  0.2596 -0.3152
 1068PF6-    F415233   2.250   5.075   3.277  0.7152  0.2655 -0.0723
 1068PF6-    F515234   2.033   4.885   3.138 -0.2196  0.3066 -0.3483
 1068PF6-    F615235   2.254   4.873   3.184 -0.4451 -0.0070  0.4396
 1068PF6-    F715236   2.031   5.096   3.231 -0.4791 -0.0563 -0.3342
 1069PF6-    P115237   4.988   3.029   1.010  0.1032  0.0438  0.2340
 1069PF6-    F215238   4.926   3.014   0.861 -0.0443  0.3547 -0.5255
 1069PF6-    F315239   5.057   3.050   1.151 -0.3426 -0.0717 -0.1083
 1069PF6-    F415240   5.135   3.037   0.953  0.3742 -0.2504  0.5092
 1069PF6-    F515241   4.838   3.023   1.073  0.0177 -0.3314 -0.1484
 1069PF6-    F615242   4.994   2.868   1.021 -0.0302  0.1278 -0.0876
 1069PF6-    F715243   4.978   3.186   0.994  0.5286 -0.3157  0.1956
 1070PF6-    P115244   5.333   3.943   4.927 -0.1825  0.0847  0.0427
 1070PF6-    F215245   5.454   3.875   5.002 -0.3933  0.3237 -0.0414
 1070PF6-    F315246   5.213   4.017   4.848  0.0578 -0.0795  0.5214
 1070PF6-    F415247   5.364   3.848   4.803  0.4493  0.0336 -0.2423
 1070PF6-    F515248   5.311   4.045   5.049  0.2405 -0.0021 -0.1089
 1070PF6-    F615249   5.440   4.046   4.864  0.0879  0.2058  0.2164
 1070PF6-    F715250   5.232   3.837   4.990  0.0729 -0.2085  0.1977
 1071Na+     N115251   4.607   4.508   4.119  0.4134  0.0477 -0.7325
 1072Na+     N115252   3.697   4.781   4.773 -0.2416 -0.0250  0.0914
 1073Na+     N115253   3.796   5.177   4.185 -0.0529  0.2177  0.0697
 1074Na+     N115254   5.009   4.707   1.070  0.0825 -0.2828 -0.1725
 1075Na+     N115255   4.467   4.243   3.203 -0.2308  0.1134  0.1208
 1076Na+     N115256   5.227   1.582   5.452  0.2390  0.3608 -0.6417
 1077Na+     N115257   3.517   3.864   2.293 -0.5562 -0.2141 -0.4269
 1078Na+     N115258   1.538   1.269   4.196  0.5254 -0.1515 -0.6077
 1079Na+     N115259   2.073   4.343   2.253 -0.3449 -0.1145 -0.2498
 1080Na+     N115260   2.084   1.291   1.004 -0.1220  0.2012  0.0218
 1081Na+     N115261   3.252   4.397   3.476  0.0408  0.3582  0.1945
 1082Na+     N115262   1.078   4.466   4.858  0.0535 -0.1428  0.1563
 1083Na+     N115263   3.983   2.951   1.532 -0.1487  0.1815 -0.1853
 1084Na+     N115264   0.276   1.636   2.015 -0.2188  0.3041 -0.4130
 1085Na+     N115265   2.677   1.329   1.686  0.0999 -0.1824  0.1880
 1086Na+     N115266   4.625   0.677   2.514  0.4423 -0.0478  0.0533
 1087Na+     N115267   1.648   3.499   0.776 -0.1682  0.3852  0.3609
 1088Na+     N115268   2.204   5.329   3.227  0.5004 -0.4099  0.4227
 1089Na+     N115269   1.097   3.655   2.641 -0.4892  0.2522 -0.0568
 1090Na+     N115270   0.018   5.039   2.064 -0.0863 -0.0115  0.2072
 1091Na+     N115271   3.485   1.999   4.233 -0.1694  0.0188 -0.3101
 1092Na+     N115272   2.534   4.305   3.747  0.1026  0.0151 -0.3945
 1093Na+     N115273   0.802   4.930   1.687 -0.0382 -0.0173  0.3041
 1094Na+     N115274   1.662   3.059   1.661  0.0278  0.1213  0.2164
 1095Na+     N115275   0.023   4.050   5.232 -0.3892  0.1376  0.3361
 1096Na+     N115276   2.179   5.144   1.725  0.1418 -0.2156  0.0805
 1097Na+     N115277   1.733   2.510   0.588  0.4250 -0.0275  0.6028
 1098Na+     N115278   2.502   4.663   1.220 -0.0847 -0.0115 -0.3260
 1099Na+     N115279   2.655   5.397   5.273  0.4673 -0.2191  0.1994
 1100Na+     N115280   0.368   2.995   5.143 -0.2722  0.0968  0.0873
 1101Na+     N115281   5.020   4.002   1.778 -0.1463 -0.4257  0.4532
 1102Na+     N115282   2.478   1.857   5.304 -0.3038 -0.2631 -0.3664
 1103Na+     N115283   4.603   0.195   5.047 -0.2177 -0.0949  0.1777
 1104Na+     N115284   0.082   5.114   0.707  0.5491 -0.2352 -0.2780
 1105Na+     N115285   1.111   0.477   3.690 -0.0364  0.2481  0.1720
 1106Na+     N115286   3.932   0.082   3.349 -0.1095 -0.1762 -0.3146
 1107Na+     N115287   0.281   2.708   1.165 -0.0622  0.7685 -0.5249
 1108Na+     N115288   0.915   3.783   3.562  0.1961 -0.0501 -0.4043
 1109Na+     N115289   1.046   0.523   2.183  0.2178 -0.0289  0.1760
 1110Na+     N115290   1.568   4.134   5.435  0.3681  0.2563 -0.3718
 1111Na+     N115291   4.267   5.100   5.483  0.0549  0.3537 -0.1624
 1112Na+     N115292   3.723   4.651   1.546 -0.6248 -0.3118 -0.0280
 1113Na+     N115293   0.165   0.278   5.391 -0.6065  0.3687  0.0258
 1114Na+     N115294   3.263   2.496   2.019 -0.0463  0.0944 -0.2265
 1115Na+     N115295   0.803   5.368   4.649 -0.2617 -0.2191 -0.3864
 1116Na+     N115296   0.143   3.452   0.970  0.1617 -0.3154 -0.0790
 1117Na+     N115297   3.487   0.592   0.021 -0.3732 -0.1767 -0.3353
 1118Na+     N115298   0.802   5.449   2.951  0.5369  0.3801 -0.4155
 1119Na+     N115299   4.400   1.564   2.297 -0.0237  0.1316  0.1860
 1120Na+     N115300   0.277   2.983   3.962 -0.5035  0.0546  0.0248
 1121Na+     N115301   5.111   4.865   3.230 -0.3060  0.2340  0.0955
 1122Na+     N115302   5.071   2.361   5.290  0.7641 -0.3777 -0.1564
 1123Na+     N115303   2.140   1.341   4.642  0.0191  0.1346  0.0299
 1124Na+     N115304   4.945   3.623   3.668  0.1420  0.5148 -0.5728
 1125Na+     N115305   2.171   2.072   1.537 -0.2063  0.2715  0.1887
 1126Na+     N115306   0.565   2.019   3.106  0.2156  0.0207  0.1658
 1127Na+     N115307   0.061   0.697   2.571 -0.1145  0.0992  0.1309
 1128Na+     N115308   3.402   5.404   2.664 -0.4074 -0.0173 -0.4244
 1129Na+     N115309   0.333   5.202   3.974  0.3186  0.4187 -0.1714
 1130Na+     N115310   1.760   4.819   0.393 -0.1414  0.0353 -0.3196
 1131Na+     N115311   0.173   4.165   3.674  0.2344 -0.6993 -0.0136
 1132Na+     N115312   2.538   2.516   3.245  0.3319  0.1798 -0.7467
 1133Na+     N115313   0.752   1.960   5.421 -0.1303  0.2801 -0.2242
 1134Na+     N115314   2.190   3.130   3.991  0.3253 -0.2926  0.0976
 1135Na+     N115315   1.803   5.307   2.595  0.2510  0.2823 -0.4420
 1136Na+     N115316   3.173   1.278   4.929  0.1517 -0.5057 -0.1409
 1137Na+     N115317   1.991   2.127   3.960 -0.0102  0.0135 -0.6826
 1138Na+     N115318   4.411   5.398   2.329 -0.1371  0.0588  0.5731
 1139Na+     N115319   1.720   0.258   0.560  0.2921 -0.5144 -0.3163
 1140Na+     N115320   1.047   2.089   4.131  0.0658  0.8924  0.3207
 1141Na+     N115321   3.599   2.830   3.072 -0.5075  0.0904 -0.1652
 1142Na+     N115322   0.836   1.299   4.764  0.3157 -0.0204  0.0502
 1143Na+     N115323   3.775   4.873   2.753  0.5603  0.1884 -0.2256
 1144Na+     N115324   3.380   0.831   1.933  0.3641 -0.2543 -0.0974
 1145Na+     N115325   2.802   3.366   2.522 -0.1652  0.2674 -0.3826
 1146Na+     N115326   0.640   1.241   3.816  0.0233  0.5463  0.3261
 1147Na+     N115327   2.133   0.715   2.822 -0.0903 -0.7565 -0.3449
 1148Na+     N115328   2.235   2.899   5.345  0.4351 -0.7108  0.1524
 1149Na+     N115329   1.459   0.247   1.575 -0.0644  0.2264 -0.3347
 1150Na+     N115330   0.631   1.121   0.808  0.2588  0.3694  0.0589
 1151Na+     N115331   3.933   2.741   4.327  0.2177 -0.1213 -0.5556
 1152Na+     N115332   1.709   1.910   4.834  0.2462  0.3927  0.0787
 1153Na+     N115333   1.641   4.854   3.797 -0.1192  0.0603 -0.4316
 1154Na+     N115334   1.218   1.915   1.229  0.6362 -0.2970 -0.0205
 1155Na+     N115335   0.512   0.067   1.152 -0.4070 -0.3015  0.1062
 1156Na+     N115336   4.788   4.693   0.102 -0.2219 -0.0228  0.3124
 1157Na+     N115337   2.526   0.348   2.045 -1.2024  0.6936 -0.1109
 1158Na+     N115338   0.727   2.820   2.296  0.2304 -0.0992  0.2204
 1159Na+     N115339   5.492   0.962   3.963  0.3189  0.3570 -0.0391
 1160Na+     N115340   3.705   1.568   0.246  0.0212 -0.4008  0.4783
 1161Na+     N115341   1.583   0.834   5.241  0.0029  0.5739 -0.5469
 1162Na+     N115342   4.994   1.254   0.559 -0.1869 -0.1990 -0.0021
 1163Na+     N115343   4.487   2.721   0.670 -0.4787  0.4107 -0.2184
 1164Na+     N115344   3.021   0.515   0.904 -0.3417 -0.3098  0.2026
 1165Na+     N115345   4.461   0.634   0.347 -0.0962 -0.1338  0.2642
 1166Na+     N115346   2.486   0.459   4.012 -0.0408 -0.0547  0.3418
 1167Na+     N115347   1.840   4.184   3.255  0.2447  0.1545 -0.1781
 1168Na+     N115348   0.155   2.227   0.369 -0.2319 -0.0148  0.5638
 1169Na+     N115349   2.797   5.074   3.178  0.0921  0.5194  0.5399
 1170Na+     N115350   4.974   3.404   5.021  0.2024 -0.0683  0.0134
   5.49792   5.49792   5.49792
