DG-THF-PF6-Na    Amber RESP
15350
    1DG      C1    1   0.008   2.950   0.386  0.3164 -0.2241 -0.0040
    1DG      C2    2   0.257   3.215   0.955  0.2849  0.3013  0.1941
    1DG      H3    3  -0.066   2.897   0.326  2.6525 -2.6507 -0.9400
    1DG      H4    4   0.099   2.891   0.392 -0.7481 -1.9339  0.1517
    1DG      H5    5   0.030   3.045   0.338 -0.0788 -0.3642 -0.4729
    1DG      H6    6   0.188   3.293   0.989  0.1260  0.4785 -0.5200
    1DG      H7    7   0.314   3.175   1.038  1.0895 -0.9930 -0.9495
    1DG      H8    8   0.333   3.263   0.893  1.0367  1.6717  2.0711
    1DG      O9    9  -0.040   2.950   0.522 -0.6057  0.0562  0.1826
    1DG     O10   10   0.185   3.115   0.894 -0.0084 -0.2337  0.1150
    1DG     C11   11  -0.050   2.828   0.589  0.4053 -0.7482  0.4065
    1DG     C12   12   0.129   3.021   0.988  0.7753 -0.8342 -0.8136
    1DG     H13   13   0.047   2.780   0.587  1.4944  1.1750  2.4488
    1DG     H14   14  -0.114   2.757   0.537  0.1469 -0.9982  1.0577
    1DG     H15   15   0.112   3.073   1.082  1.9713  0.2523 -1.1680
    1DG     H16   16   0.208   2.948   1.005  0.7919 -0.5194  0.5353
    1DG     C17   17  -0.083   2.846   0.742 -0.3398 -0.6619 -0.0262
    1DG     C18   18   0.000   2.969   0.932  0.3939 -0.4482  0.1851
    1DG     O19   19   0.018   2.926   0.807 -0.4043  0.1209  0.2656
    1DG     H20   20  -0.097   2.749   0.789 -1.0989  0.1734  1.5632
    1DG     H21   21  -0.181   2.893   0.756 -0.5170 -0.6110 -1.3513
    1DG     H22   22  -0.038   2.877   0.976 -2.5384 -1.0007 -3.0565
    1DG     H23   23  -0.079   3.044   0.939  0.7635  0.3930 -3.0340
    2DG      C1   24   4.700   2.980   3.516  0.1518  0.2289 -0.6208
    2DG      C2   25   4.249   3.113   2.958  0.9665 -0.4143  1.0677
    2DG      H3   26   4.762   3.064   3.484 -2.6682  2.4165 -0.7963
    2DG      H4   27   4.754   2.887   3.532  0.6404  0.7087  0.6587
    2DG      H5   28   4.661   3.010   3.613  2.5960  2.1946 -0.1534
    2DG      H6   29   4.254   3.044   2.874 -1.7830  0.1787  0.3318
    2DG      H7   30   4.152   3.162   2.965  1.8807  1.2516  3.2428
    2DG      H8   31   4.323   3.194   2.961  0.1015  0.4119  0.5210
    2DG      O9   32   4.599   2.961   3.415 -0.5399  0.5238 -0.5387
    2DG     O10   33   4.271   3.049   3.086  0.3875  0.1022 -0.2615
    2DG     C11   34   4.543   2.832   3.415 -0.4347 -0.3138 -0.0754
    2DG     C12   35   4.230   2.914   3.090  0.1474  0.2077  0.3031
    2DG     H13   36   4.511   2.809   3.517  2.0725 -2.0461  0.4405
    2DG     H14   37   4.624   2.763   3.393  0.2286  0.2556  0.5248
    2DG     H15   38   4.299   2.848   3.037 -0.7727 -0.2370 -0.3608
    2DG     H16   39   4.131   2.894   3.051  0.3620  0.1321 -0.2149
    2DG     C17   40   4.441   2.802   3.296  0.1503 -0.5034 -0.4186
    2DG     C18   41   4.219   2.875   3.235  0.0945 -0.4227 -0.6790
    2DG     O19   42   4.342   2.908   3.304 -0.0195  0.6453  0.6015
    2DG     H20   43   4.393   2.708   3.320 -1.0040  0.1956  0.0861
    2DG     H21   44   4.477   2.792   3.194 -0.8280  2.1217 -1.0955
    2DG     H22   45   4.136   2.927   3.283 -2.1817 -3.1898 -1.3875
    2DG     H23   46   4.201   2.769   3.246 -0.0034 -0.1438  3.4506
    3DG      C1   47   3.212   0.279   1.229 -0.2585 -0.2810 -0.1479
    3DG      C2   48   2.697   0.242   1.684  0.1214  0.0836  0.3009
    3DG      H3   49   3.112   0.318   1.208  0.5714  1.9453 -0.1639
    3DG      H4   50   3.273   0.249   1.145  0.6581  1.3377 -0.0814
    3DG      H5   51   3.261   0.365   1.274 -0.5136 -0.5784  0.7348
    3DG      H6   52   2.743   0.337   1.713  0.2807 -0.1792  0.9208
    3DG      H7   53   2.591   0.251   1.659  0.4882  0.8585 -1.1391
    3DG      H8   54   2.715   0.161   1.754 -1.1372 -0.0111  0.5326
    3DG      O9   55   3.198   0.179   1.329 -0.0850 -0.2614  0.9087
    3DG     O10   56   2.758   0.211   1.558 -0.7288 -0.2410 -0.2430
    3DG     C11   57   3.165   0.059   1.274 -0.8062  0.0475  0.2566
    3DG     C12   58   2.732   0.082   1.509  0.1273  0.2516  0.1142
    3DG     H13   59   3.201  -0.018   1.342  2.0879  0.8377 -0.2333
    3DG     H14   60   3.209   0.034   1.177  2.8186  2.3919  1.1070
    3DG     H15   61   2.623   0.075   1.508  0.0853  0.8092  0.2386
    3DG     H16   62   2.781   0.007   1.570  0.9206  1.2231  0.7111
    3DG     C17   63   3.009   0.044   1.265 -0.3718 -0.2579 -0.3639
    3DG     C18   64   2.799   0.062   1.375  0.1512  0.8370 -0.0605
    3DG     O19   65   2.945   0.065   1.391 -0.2461 -0.7366 -0.3909
    3DG     H20   66   2.994  -0.061   1.242 -0.8556 -0.5808  1.2731
    3DG     H21   67   2.971   0.097   1.178  0.2907 -2.0147 -1.7830
    3DG     H22   68   2.758  -0.035   1.346 -0.6448  1.7252 -2.1140
    3DG     H23   69   2.774   0.148   1.312  0.8296  0.9001 -0.2567
    4DG      C1   70   4.966   4.773   2.125 -0.7622 -0.1880  0.0658
    4DG      C2   71   5.238   5.425   2.339  0.8230  0.1680 -0.3710
    4DG      H3   72   4.943   4.709   2.210  0.9687  0.1211  0.8115
    4DG      H4   73   5.067   4.757   2.088 -0.6221  1.4402 -0.3432
    4DG      H5   74   4.901   4.752   2.040  0.2563  0.5102 -0.9173
    4DG      H6   75   5.316   5.363   2.294 -0.2752 -1.3746 -0.2373
    4DG      H7   76   5.245   5.533   2.325  1.8477  0.6709  3.0634
    4DG      H8   77   5.253   5.404   2.445  1.3668  1.9866 -0.0529
    4DG      O9   78   4.965   4.911   2.167  0.6311 -0.1223 -0.7665
    4DG     O10   79   5.121   5.364   2.288 -0.1548  0.7442  0.4948
    4DG     C11   80   4.834   4.953   2.203  0.2768  0.1060  0.5289
    4DG     C12   81   5.005   5.370   2.374 -0.2462 -0.2949 -0.3182
    4DG     H13   82   4.802   4.925   2.303 -2.0032  3.0232  0.7437
    4DG     H14   83   4.759   4.914   2.134 -0.9710 -0.0644  1.9365
    4DG     H15   84   4.975   5.474   2.389  0.0386  0.1275 -2.2897
    4DG     H16   85   5.028   5.316   2.465  1.2484  0.2253 -0.3592
    4DG     C17   86   4.808   5.108   2.196  0.4235 -0.5028  0.4466
    4DG     C18   87   4.879   5.305   2.309  0.4809  0.6947 -0.0673
    4DG     O19   88   4.891   5.166   2.294 -0.2394 -0.2719 -0.0185
    4DG     H20   89   4.703   5.137   2.204  1.1497  2.2178  1.3922
    4DG     H21   90   4.838   5.152   2.101 -0.0967  1.4802  1.1513
    4DG     H22   91   4.786   5.328   2.359 -0.0711  0.5591 -0.9951
    4DG     H23   92   4.869   5.353   2.212 -1.0945 -0.2670 -0.4218
    5DG      C1   93   4.581   0.942   2.886 -0.2034  0.7364  0.1251
    5DG      C2   94   4.886   0.855   3.094 -0.1543  0.2999  0.3655
    5DG      H3   95   4.484   0.968   2.927 -0.2463  0.3394  0.2789
    5DG      H4   96   4.610   0.840   2.913 -0.1566  0.5713 -0.5328
    5DG      H5   97   4.561   0.936   2.779 -0.5723  1.8319  0.1280
    5DG      H6   98   4.829   0.905   3.172  0.0662 -1.0047  1.3845
    5DG      H7   99   4.816   0.809   3.024 -2.4094  1.6904  1.5866
    5DG      H8  100   4.961   0.786   3.132 -0.9186  0.2253  1.8071
    5DG      O9  101   4.687   1.037   2.908  0.0164  0.2108  0.5783
    5DG     O10  102   4.933   0.954   3.009  0.1022  0.7649  0.0723
    5DG     C11  103   4.667   1.169   2.888  0.2862 -0.3389 -0.3922
    5DG     C12  104   4.998   1.057   3.078  0.1905  0.5945  0.2704
    5DG     H13  105   4.577   1.200   2.941  2.0265 -0.3696  2.8321
    5DG     H14  106   4.664   1.187   2.781  2.7096 -0.7390 -0.5916
    5DG     H15  107   5.090   1.012   3.116 -0.4942 -2.1844 -1.0732
    5DG     H16  108   4.947   1.087   3.169  0.4255 -2.0539  1.3547
    5DG     C17  109   4.793   1.245   2.941 -0.4003  0.2805 -0.3571
    5DG     C18  110   5.020   1.171   2.978 -0.1160 -0.2947 -0.2017
    5DG     O19  111   4.910   1.182   2.891  0.0389 -0.0352  0.0903
    5DG     H20  112   4.781   1.271   3.046 -0.7941  1.9279 -0.7863
    5DG     H21  113   4.806   1.345   2.900  0.9994  0.7726  1.1856
    5DG     H22  114   5.038   1.264   3.033 -0.4895 -0.5237  0.3167
    5DG     H23  115   5.107   1.149   2.916 -0.9131  1.2135 -1.9562
    6DG      C1  116   4.860   4.164   1.181  0.0295 -0.1018 -0.2191
    6DG      C2  117   4.204   4.287   1.286  0.0156  0.0727  0.4318
    6DG      H3  118   4.897   4.241   1.249  1.9748 -1.8342  0.8084
    6DG      H4  119   4.937   4.132   1.112 -0.2940  1.3399 -1.2868
    6DG      H5  120   4.847   4.090   1.261 -0.4395  1.6556  1.4119
    6DG      H6  121   4.216   4.378   1.344  2.2507 -0.6636  1.2315
    6DG      H7  122   4.101   4.285   1.250 -0.1379  2.0778  0.6362
    6DG      H8  123   4.200   4.202   1.354 -0.9248  0.7313  1.2225
    6DG      O9  124   4.748   4.207   1.113 -0.0927  0.7226  0.3883
    6DG     O10  125   4.299   4.269   1.180  0.1728 -0.1699 -0.0987
    6DG     C11  126   4.770   4.335   1.045  0.2126 -0.0797 -0.0677
    6DG     C12  127   4.302   4.385   1.092 -0.4282 -0.9908 -0.2057
    6DG     H13  128   4.861   4.325   0.986  0.2873  0.5293 -0.0610
    6DG     H14  129   4.780   4.414   1.119  0.6066  1.9295 -2.1432
    6DG     H15  130   4.322   4.475   1.150 -2.1278 -0.6417 -0.0876
    6DG     H16  131   4.200   4.392   1.052  0.2608 -0.8236 -2.0197
    6DG     C17  132   4.649   4.367   0.954 -1.0149 -0.1806 -0.1344
    6DG     C18  133   4.408   4.366   0.980  0.0136 -0.3261 -0.3349
    6DG     O19  134   4.535   4.365   1.040 -0.0379 -0.0833 -0.7839
    6DG     H20  135   4.641   4.293   0.875  3.4970 -1.4289  0.2849
    6DG     H21  136   4.675   4.455   0.896 -2.6547 -0.1800 -0.9199
    6DG     H22  137   4.383   4.284   0.914  2.8130 -0.8601 -0.8720
    6DG     H23  138   4.408   4.457   0.920  1.0690 -0.5819 -0.7404
    7DG      C1  139   0.277   0.925   1.327  0.5016 -0.0725 -0.0932
    7DG      C2  140   0.035   1.553   1.558 -0.1377  0.6168  0.3333
    7DG      H3  141   0.330   0.921   1.422  0.3943  0.9751  0.0218
    7DG      H4  142   0.322   0.991   1.254 -1.2163 -0.1618 -1.2778
    7DG      H5  143   0.249   0.828   1.285  0.6821 -0.7147  1.2073
    7DG      H6  144  -0.071   1.577   1.570  0.1429  1.7536  0.6506
    7DG      H7  145   0.102   1.598   1.631  1.8393  0.2910 -1.2108
    7DG      H8  146   0.060   1.602   1.464  2.9283  1.0816  1.2897
    7DG      O9  147   0.156   0.994   1.350  0.3908 -0.3228 -0.3974
    7DG     O10  148   0.070   1.415   1.557  0.2032  0.3080 -0.4272
    7DG     C11  149   0.077   0.936   1.453  0.0474 -0.1023 -0.0137
    7DG     C12  150   0.020   1.351   1.671 -0.3586  0.3397  0.1900
    7DG     H13  151   0.086   0.828   1.445  2.0094  0.0483 -0.3393
    7DG     H14  152  -0.029   0.946   1.431  0.2985  0.8348 -0.9132
    7DG     H15  153  -0.086   1.325   1.666 -0.1136 -0.8729  0.7836
    7DG     H16  154   0.040   1.412   1.759  1.0115 -0.8840  0.7843
    7DG     C17  155   0.108   0.998   1.592 -0.9527 -0.1634  0.0711
    7DG     C18  156   0.085   1.216   1.687 -0.4840 -0.1337 -0.6553
    7DG     O19  157   0.057   1.132   1.576 -0.4100 -0.4516  0.1589
    7DG     H20  158   0.213   1.010   1.618 -1.1285  1.3805  0.2101
    7DG     H21  159   0.067   0.952   1.682  0.4478  1.2543  1.4939
    7DG     H22  160   0.190   1.246   1.688 -1.4566  3.6960 -0.7091
    7DG     H23  161   0.064   1.173   1.785 -0.2201 -2.0249 -1.3680
    8DG      C1  162   2.253   4.149   0.683  0.7464 -0.1974  0.5324
    8DG      C2  163   1.970   4.084   0.076  0.0215  0.9857  0.6295
    8DG      H3  164   2.338   4.084   0.704  1.1215  0.9973  3.0397
    8DG      H4  165   2.204   4.164   0.780  0.4887 -1.7922  0.6887
    8DG      H5  166   2.273   4.246   0.638 -2.2244 -0.0488 -0.7224
    8DG      H6  167   1.895   4.049   0.005  0.3581  0.1626  0.6759
    8DG      H7  168   1.983   4.192   0.072  1.8260  0.7593 -0.4325
    8DG      H8  169   2.066   4.045   0.043  0.6896  1.9689  1.3463
    8DG      O9  170   2.159   4.079   0.593 -0.2457  0.0893  0.3986
    8DG     O10  171   1.946   4.036   0.205  0.2747 -0.1166 -0.1655
    8DG     C11  172   2.148   3.945   0.640 -0.6048  0.3359 -0.7505
    8DG     C12  173   1.906   3.899   0.214  0.4929  0.4336 -0.2152
    8DG     H13  174   2.162   3.922   0.746 -0.9688 -0.2680 -0.8287
    8DG     H14  175   2.239   3.897   0.605 -0.7833  0.9872 -2.1711
    8DG     H15  176   1.965   3.841   0.144 -1.3911 -0.6015 -1.0110
    8DG     H16  177   1.806   3.898   0.171  0.3133  0.5398  0.1899
    8DG     C17  178   2.031   3.875   0.567 -0.1451  0.3463  0.2481
    8DG     C18  179   1.912   3.853   0.364 -0.1505  0.0121  0.5932
    8DG     O19  180   2.026   3.913   0.428 -0.0337 -0.8782 -0.9186
    8DG     H20  181   1.937   3.913   0.606 -0.7422 -0.2519 -0.5814
    8DG     H21  182   2.037   3.766   0.576 -0.0105  0.2650 -0.7569
    8DG     H22  183   1.821   3.885   0.415  0.1627 -0.9206  1.7639
    8DG     H23  184   1.916   3.744   0.361 -0.8408 -0.0051 -0.3226
    9DG      C1  185   1.446   3.452   4.059  0.2246 -0.1604  0.1168
    9DG      C2  186   1.788   3.830   4.418 -0.4301  1.0349 -0.4133
    9DG      H3  187   1.392   3.500   4.141  4.9693  0.3504  3.2890
    9DG      H4  188   1.477   3.352   4.091 -3.6043 -1.4622  0.3032
    9DG      H5  189   1.380   3.425   3.976 -0.6505  0.3738  0.6278
    9DG      H6  190   1.766   3.766   4.504  1.3734  1.1242  0.1367
    9DG      H7  191   1.897   3.826   4.416 -0.4312 -0.6320  0.4422
    9DG      H8  192   1.752   3.927   4.452  0.0370  1.4697 -1.1409
    9DG      O9  193   1.557   3.521   4.022 -0.3130  0.3257  0.7902
    9DG     O10  194   1.735   3.793   4.290 -0.3922  0.0037 -0.5413
    9DG     C11  195   1.524   3.629   3.939  0.3259 -0.2747  0.1838
    9DG     C12  196   1.764   3.892   4.188  0.2156 -0.1934  0.4153
    9DG     H13  197   1.459   3.705   3.985 -1.6899 -0.9461 -1.3921
    9DG     H14  198   1.467   3.587   3.856 -0.3743 -0.5019  0.7689
    9DG     H15  199   1.871   3.885   4.168  0.1687  2.5769 -1.4143
    9DG     H16  200   1.733   3.988   4.229 -2.9054 -1.2744  0.8397
    9DG     C17  201   1.660   3.688   3.887  0.1919 -0.1449 -0.1722
    9DG     C18  202   1.708   3.864   4.040 -0.1583 -0.2661  0.1717
    9DG     O19  203   1.730   3.728   4.006 -0.6602  0.0734  0.5901
    9DG     H20  204   1.648   3.763   3.809 -1.7983 -2.3438 -2.1045
    9DG     H21  205   1.726   3.616   3.840  0.1597 -0.6482  0.5408
    9DG     H22  206   1.602   3.887   4.041 -0.0487  0.2507  1.4747
    9DG     H23  207   1.773   3.923   3.975 -0.5007 -0.3374 -0.2375
   10DG      C1  208   0.781   4.214   1.997  0.4142  0.4853  0.1530
   10DG      C2  209   0.973   4.211   2.688  0.8857  0.5346 -0.5894
   10DG      H3  210   0.695   4.225   1.930  1.9744 -2.3538 -2.6077
   10DG      H4  211   0.842   4.131   1.961 -0.0196  0.2755 -0.1178
   10DG      H5  212   0.852   4.296   1.997  0.3830  0.5183  1.0089
   10DG      H6  213   0.955   4.149   2.775  0.7122  1.2231 -0.1308
   10DG      H7  214   1.064   4.179   2.637  1.7896  2.8784 -0.6022
   10DG      H8  215   0.986   4.311   2.729  0.1721  0.4376 -0.1135
   10DG      O9  216   0.742   4.180   2.130  0.4843  0.0151  0.0642
   10DG     O10  217   0.862   4.187   2.605 -0.0368  0.8712  0.2159
   10DG     C11  218   0.641   4.261   2.187 -0.6037  0.2715  0.1800
   10DG     C12  219   0.735   4.213   2.658  0.5343 -0.1520  0.1973
   10DG     H13  220   0.553   4.264   2.122 -0.3560  0.7361 -0.1325
   10DG     H14  221   0.670   4.365   2.192  0.2466  0.0236  0.4731
   10DG     H15  222   0.722   4.313   2.700 -2.0311 -0.2021 -0.2726
   10DG     H16  223   0.727   4.151   2.747 -0.4822  2.8844  2.4201
   10DG     C17  224   0.588   4.210   2.321  0.6332 -0.7938  0.8052
   10DG     C18  225   0.635   4.168   2.552  0.2904  0.4242  1.0123
   10DG     O19  226   0.682   4.215   2.428 -0.2967  0.4779 -0.4519
   10DG     H20  227   0.546   4.110   2.317  0.7775 -0.8571 -4.0072
   10DG     H21  228   0.505   4.275   2.349  1.8434  0.8575  0.7783
   10DG     H22  229   0.646   4.060   2.550  2.6510  0.6144  0.6789
   10DG     H23  230   0.535   4.195   2.585  1.3036  0.5204  4.4983
   11DG      C1  231   0.344   3.134   3.897  1.0410  0.3094  0.0148
   11DG      C2  232   0.687   2.616   3.965 -0.5872 -0.4531  0.3624
   11DG      H3  233   0.308   3.080   3.810 -1.2320 -1.6522  2.0408
   11DG      H4  234   0.329   3.242   3.883  1.3112  0.3756  0.2369
   11DG      H5  235   0.278   3.108   3.979  0.6838  0.3392 -0.2591
   11DG      H6  236   0.589   2.587   3.927  0.2231 -3.2788  0.2489
   11DG      H7  237   0.766   2.574   3.904 -1.1912  0.3261 -1.0023
   11DG      H8  238   0.699   2.577   4.066 -2.2219 -2.0787 -0.0248
   11DG      O9  239   0.477   3.104   3.915  0.4843  0.0692 -0.2058
   11DG     O10  240   0.695   2.761   3.966 -0.1759  0.2514 -0.5248
   11DG     C11  241   0.550   3.206   3.984 -0.4001  0.1302  0.1919
   11DG     C12  242   0.818   2.818   4.013 -0.1268 -0.1058 -0.3219
   11DG     H13  243   0.506   3.206   4.083 -1.7501 -2.9940 -0.3016
   11DG     H14  244   0.536   3.305   3.940 -3.4863 -1.0798 -1.8939
   11DG     H15  245   0.908   2.769   3.975  1.8366  3.6228 -0.9235
   11DG     H16  246   0.832   2.821   4.121 -0.5210  1.7986 -0.2957
   11DG     C17  247   0.696   3.166   3.993  0.2485 -0.2218 -0.3165
   11DG     C18  248   0.820   2.963   3.968 -0.4807 -0.5935 -0.8221
   11DG     O19  249   0.704   3.027   4.014 -0.1970  0.1776  0.4536
   11DG     H20  250   0.745   3.224   4.071  1.7851  0.5441 -1.8064
   11DG     H21  251   0.743   3.194   3.899  1.0609  0.0392  0.1620
   11DG     H22  252   0.904   3.019   4.011 -0.9246  0.8191 -1.7567
   11DG     H23  253   0.823   2.965   3.859 -2.6436  1.0913 -0.8981
   12DG      C1  254   4.230   0.349   1.127 -0.5100 -0.5627 -0.2573
   12DG      C2  255   3.911   0.390   1.707  0.1313  0.3972  0.4908
   12DG      H3  256   4.218   0.246   1.159  1.6563 -0.3331  1.5179
   12DG      H4  257   4.311   0.400   1.179 -2.5948  2.6381  0.1429
   12DG      H5  258   4.263   0.343   1.024  1.3728 -0.5705  0.3171
   12DG      H6  259   4.000   0.432   1.754  0.2405  2.2444 -1.2198
   12DG      H7  260   3.825   0.397   1.774 -1.4932 -0.3622 -1.3883
   12DG      H8  261   3.935   0.284   1.702 -0.3728  0.3254 -0.5454
   12DG      O9  262   4.112   0.415   1.171 -0.3806  0.1557 -1.0879
   12DG     O10  263   3.892   0.433   1.569  0.0585  0.5982  0.0299
   12DG     C11  264   4.109   0.554   1.144  0.7312 -0.2420  0.1067
   12DG     C12  265   3.842   0.559   1.546  0.8460  0.1411  0.1461
   12DG     H13  266   4.123   0.562   1.036  0.4074 -0.6984  0.0279
   12DG     H14  267   4.187   0.602   1.202  0.8568  0.9844 -1.0280
   12DG     H15  268   3.912   0.634   1.585 -0.6464  2.1662 -0.8608
   12DG     H16  269   3.749   0.579   1.598  1.8796  1.8969  1.4555
   12DG     C17  270   3.977   0.614   1.199  0.2400  0.0291  0.9417
   12DG     C18  271   3.840   0.601   1.398 -0.2819  0.9117 -0.0865
   12DG     O19  272   3.970   0.580   1.339  0.2198 -0.3045  0.3175
   12DG     H20  273   3.888   0.579   1.146  0.8848  1.0801 -0.9247
   12DG     H21  274   3.966   0.722   1.200 -2.4481 -0.1766  0.5938
   12DG     H22  275   3.773   0.540   1.337  2.1821  0.4459 -2.5104
   12DG     H23  276   3.823   0.708   1.395  1.3184  1.1630 -0.8115
   13DG      C1  277   4.103   3.484   2.184  0.0758 -0.6739  0.0837
   13DG      C2  278   4.161   2.840   2.065 -0.7475 -0.3038 -0.1821
   13DG      H3  279   4.060   3.482   2.084 -0.6168  1.2810  0.2957
   13DG      H4  280   4.211   3.485   2.173 -0.0949  1.9023 -2.4745
   13DG      H5  281   4.061   3.571   2.235  0.2117  0.1207 -1.1356
   13DG      H6  282   4.147   2.918   1.990  0.9731  1.5473  1.3071
   13DG      H7  283   4.233   2.768   2.024 -1.2011 -0.2519 -1.1054
   13DG      H8  284   4.073   2.781   2.090 -0.6707 -0.5917 -0.5724
   13DG      O9  285   4.048   3.370   2.250 -0.8360  0.5350 -0.9182
   13DG     O10  286   4.207   2.910   2.182 -0.1326  0.1867 -0.4219
   13DG     C11  287   4.098   3.343   2.386  0.4857  0.5869  0.1556
   13DG     C12  288   4.322   2.994   2.163 -0.1855  0.1649 -0.1084
   13DG     H13  289   4.026   3.274   2.431 -1.7408  2.0496 -0.9495
   13DG     H14  290   4.096   3.432   2.449 -0.9494  1.5272 -1.1184
   13DG     H15  291   4.319   3.034   2.061  0.4160  0.1981 -0.1166
   13DG     H16  292   4.402   2.920   2.162 -1.4654 -1.3602 -3.5011
   13DG     C17  293   4.241   3.281   2.388  0.2329 -0.2007 -0.1077
   13DG     C18  294   4.348   3.110   2.259 -0.5782 -0.6435 -0.0419
   13DG     O19  295   4.230   3.177   2.285 -0.3924 -0.0185  0.1067
   13DG     H20  296   4.269   3.250   2.488  0.2007 -1.5560 -0.5075
   13DG     H21  297   4.311   3.354   2.347  0.7852 -0.4434  0.4048
   13DG     H22  298   4.404   3.081   2.348  1.7843  2.9737 -0.1520
   13DG     H23  299   4.415   3.178   2.206 -2.4586 -0.8984 -2.9996
   14DG      C1  300   4.495   1.892   2.646  0.4262  0.6429  0.2965
   14DG      C2  301   4.346   1.986   1.983  0.7897  0.9107 -0.4025
   14DG      H3  302   4.550   1.822   2.709  0.6284  0.5872  0.0618
   14DG      H4  303   4.483   1.985   2.701  1.3288  1.2840 -0.5617
   14DG      H5  304   4.548   1.926   2.557 -0.0644  0.9792  0.1292
   14DG      H6  305   4.411   1.933   1.913  2.2580  1.1396  0.7422
   14DG      H7  306   4.273   2.048   1.932 -0.2097 -0.7429 -1.0704
   14DG      H8  307   4.412   2.045   2.046  0.6232  4.5623 -3.2963
   14DG      O9  308   4.361   1.852   2.610  0.7305  0.4745  0.1426
   14DG     O10  309   4.268   1.892   2.059  0.0219 -0.2976  0.1463
   14DG     C11  310   4.357   1.737   2.524  0.4068 -0.5502 -0.5690
   14DG     C12  311   4.156   1.952   2.132 -0.2180  0.1008  0.1941
   14DG     H13  312   4.350   1.639   2.572 -0.8489 -0.2197 -0.0232
   14DG     H14  313   4.437   1.752   2.451  0.8965 -0.2565  0.0197
   14DG     H15  314   4.070   1.970   2.067 -0.2830 -2.1819 -0.4182
   14DG     H16  315   4.186   2.052   2.166 -0.9117 -0.2797  2.0075
   14DG     C17  316   4.236   1.752   2.430  0.3884 -1.0299 -0.2966
   14DG     C18  317   4.134   1.864   2.254  1.0433 -0.3480 -0.2649
   14DG     O19  318   4.258   1.849   2.326  0.2355 -0.3579  0.7470
   14DG     H20  319   4.151   1.768   2.497  2.0447 -0.7362  1.8633
   14DG     H21  320   4.211   1.656   2.383  1.4043 -2.3005  1.6149
   14DG     H22  321   4.067   1.918   2.322  1.0672  0.2705 -0.7282
   14DG     H23  322   4.077   1.775   2.228  1.1571 -0.6736  0.5525
   15DG      C1  323   2.956   5.020   1.939  0.2328 -1.1832  0.6667
   15DG      C2  324   2.639   4.441   2.220 -0.3359 -0.0649  0.2676
   15DG      H3  325   3.027   5.099   1.963 -0.4233 -0.9035  1.7866
   15DG      H4  326   2.862   5.072   1.960  0.6123  0.6321 -1.7505
   15DG      H5  327   2.949   4.996   1.833 -1.4586 -3.5035  1.2248
   15DG      H6  328   2.654   4.333   2.228 -0.1135 -0.1780 -1.3627
   15DG      H7  329   2.658   4.485   2.318  3.3281 -1.9407  0.5738
   15DG      H8  330   2.539   4.470   2.188 -0.7249 -0.0862  1.3894
   15DG      O9  331   2.966   4.910   2.022 -0.3964  0.2852  0.7825
   15DG     O10  332   2.738   4.492   2.126  0.4537 -0.1096  0.4453
   15DG     C11  333   3.075   4.825   1.995  0.2093  0.3182  0.7268
   15DG     C12  334   2.868   4.453   2.159  0.3479  0.1659 -0.2399
   15DG     H13  335   3.158   4.895   1.992 -0.6011  1.2705  0.0179
   15DG     H14  336   3.068   4.759   1.908  0.5670 -1.5502  2.0515
   15DG     H15  337   2.880   4.353   2.118 -0.5057  0.7322 -1.9648
   15DG     H16  338   2.887   4.450   2.266  0.7598  1.6156 -0.2484
   15DG     C17  339   3.090   4.740   2.126 -0.9225  0.0053 -0.0926
   15DG     C18  340   2.974   4.536   2.088  0.2996 -0.5149  0.3183
   15DG     O19  341   2.976   4.665   2.147  0.5612 -0.3318  0.5084
   15DG     H20  342   3.093   4.804   2.214  1.7979 -1.5053  1.0279
   15DG     H21  343   3.182   4.682   2.119 -1.6344 -1.3998  1.6236
   15DG     H22  344   3.069   4.484   2.103 -0.2690 -1.9236 -0.7711
   15DG     H23  345   2.963   4.544   1.980  0.6350 -0.7071  0.2676
   16DG      C1  346   5.094   2.373   5.139  0.2748  0.2867  0.5004
   16DG      C2  347   5.141   2.859   4.664  0.4154 -0.1316  0.2035
   16DG      H3  348   5.040   2.455   5.186 -1.8997  0.0247 -1.3860
   16DG      H4  349   5.162   2.332   5.214  1.2513  0.3228 -0.3401
   16DG      H5  350   5.009   2.312   5.108 -1.5445  1.7980  2.2737
   16DG      H6  351   5.052   2.896   4.716 -1.2189 -1.4697 -1.5564
   16DG      H7  352   5.208   2.942   4.641 -0.5475  0.3327 -1.0684
   16DG      H8  353   5.106   2.824   4.567  1.6596  0.6806 -0.5702
   16DG      O9  354   5.174   2.425   5.032  0.1749  0.3430 -0.0472
   16DG     O10  355   5.195   2.753   4.728  0.0168 -0.5977 -0.4770
   16DG     C11  356   5.224   2.324   4.949 -0.1740  0.6472  0.7188
   16DG     C12  357   5.319   2.703   4.679  0.6949  0.3154  1.0428
   16DG     H13  358   5.142   2.286   4.889  0.4329  0.2858  0.0940
   16DG     H14  359   5.264   2.236   4.999  1.3773  1.3852  0.8518
   16DG     H15  360   5.386   2.789   4.676 -0.3952  1.1672 -0.8562
   16DG     H16  361   5.325   2.665   4.577 -0.2312  1.0298  0.7000
   16DG     C17  362   5.320   2.391   4.851 -0.1905 -0.7920 -0.5556
   16DG     C18  363   5.369   2.594   4.764  0.0769  0.7165 -0.3284
   16DG     O19  364   5.262   2.505   4.801 -0.3724  0.1884 -0.3121
   16DG     H20  365   5.329   2.320   4.768 -2.2762 -1.7810  0.0040
   16DG     H21  366   5.416   2.404   4.902 -0.1886  1.1171 -0.9854
   16DG     H22  367   5.450   2.542   4.714 -1.4010 -1.8660 -0.2286
   16DG     H23  368   5.404   2.641   4.855  0.0423  0.8602 -0.3885
   17DG      C1  369   3.534   4.481   0.526  0.4018 -0.2252 -0.9657
   17DG      C2  370   3.736   5.122   0.610  0.2070  0.0263  0.3295
   17DG      H3  371   3.450   4.418   0.556  0.4713  1.5053  3.5414
   17DG      H4  372   3.630   4.430   0.512  0.1656 -0.5608 -1.3765
   17DG      H5  373   3.503   4.504   0.424 -3.0033 -1.0326 -0.2327
   17DG      H6  374   3.711   5.220   0.650 -0.9846  0.0034 -0.3216
   17DG      H7  375   3.841   5.097   0.627  0.9189 -0.5344 -3.8578
   17DG      H8  376   3.733   5.129   0.501 -0.5350 -1.7520  0.2057
   17DG      O9  377   3.539   4.602   0.596  0.6268  0.0855 -0.2926
   17DG     O10  378   3.632   5.033   0.640  0.8280  0.0435 -0.9120
   17DG     C11  379   3.540   4.577   0.735  0.2522  1.0091 -0.2200
   17DG     C12  380   3.592   5.041   0.774  0.7078  0.1876 -0.2873
   17DG     H13  381   3.638   4.547   0.772 -0.1733 -2.6677 -1.6036
   17DG     H14  382   3.477   4.493   0.767 -1.4528  2.4957  0.4766
   17DG     H15  383   3.553   5.142   0.789  1.8338  0.6731 -0.5161
   17DG     H16  384   3.681   5.026   0.835 -1.9633 -2.8109  3.3820
   17DG     C17  385   3.487   4.693   0.811 -0.4355  0.4725 -0.4891
   17DG     C18  386   3.487   4.931   0.806 -0.4554 -0.5787 -0.6945
   17DG     O19  387   3.540   4.810   0.755  0.3406  0.0178 -0.4754
   17DG     H20  388   3.521   4.680   0.914  1.8365 -0.4233 -1.3096
   17DG     H21  389   3.378   4.694   0.803 -0.4107  1.8593 -0.9863
   17DG     H22  390   3.467   4.933   0.913 -2.7270  3.8117 -0.9680
   17DG     H23  391   3.400   4.963   0.749 -0.4263 -0.9676 -0.9626
   18DG      C1  392   1.022   1.891   0.670 -0.2714 -0.6939  0.4155
   18DG      C2  393   1.594   2.216   0.896  0.1692 -0.4850 -0.4480
   18DG      H3  394   1.056   1.812   0.737  1.9799 -0.0533  0.0903
   18DG      H4  395   0.996   1.848   0.573 -0.2924 -1.0615  0.5822
   18DG      H5  396   0.930   1.934   0.712  0.8787  1.0118  1.3192
   18DG      H6  397   1.690   2.259   0.868  0.4957 -0.2536  0.9699
   18DG      H7  398   1.548   2.270   0.979  0.1930 -0.5284 -0.4070
   18DG      H8  399   1.618   2.124   0.949  0.3230 -0.2383 -0.0854
   18DG      O9  400   1.125   1.985   0.645  0.3371  0.0104 -0.5727
   18DG     O10  401   1.508   2.195   0.780 -0.4465 -0.5859  0.2050
   18DG     C11  402   1.079   2.104   0.574  0.1302  0.2091 -0.1403
   18DG     C12  403   1.487   2.315   0.707  0.4552  0.3354 -0.3113
   18DG     H13  404   1.010   2.165   0.633  0.6431 -0.0966  0.7944
   18DG     H14  405   1.021   2.081   0.485 -0.7230  0.2029  0.4058
   18DG     H15  406   1.580   2.369   0.692 -1.2221  3.5570 -0.0199
   18DG     H16  407   1.447   2.381   0.785  0.7204  0.6697 -0.4543
   18DG     C17  408   1.195   2.190   0.525 -0.3261 -0.0089 -0.0375
   18DG     C18  409   1.409   2.290   0.591  1.5376  0.0702  0.4751
   18DG     O19  410   1.276   2.246   0.628 -0.3706 -0.2176  0.0361
   18DG     H20  411   1.152   2.281   0.482 -0.3504  1.0314  2.0620
   18DG     H21  412   1.250   2.130   0.453  1.7150  0.9036  0.6856
   18DG     H22  413   1.411   2.377   0.525 -0.3234  0.6233  1.0834
   18DG     H23  414   1.455   2.202   0.545  1.7713 -0.6179  1.9773
   19DG      C1  415   3.967   2.535   3.898 -0.0926  0.4958  0.0976
   19DG      C2  416   4.529   2.421   4.295  0.6512  0.4714  0.2647
   19DG      H3  417   3.860   2.542   3.880  0.0553 -0.0431 -1.1114
   19DG      H4  418   4.002   2.482   3.809 -0.8372 -0.2864  0.2642
   19DG      H5  419   4.013   2.634   3.896  0.1339  0.3860 -1.1071
   19DG      H6  420   4.571   2.504   4.237  0.0857  2.3963  2.4388
   19DG      H7  421   4.569   2.434   4.395 -0.5173  0.2875  0.7740
   19DG      H8  422   4.574   2.333   4.249  0.6882  0.9210 -0.5942
   19DG      O9  423   4.002   2.455   4.011  0.0097 -0.0686 -0.4838
   19DG     O10  424   4.392   2.411   4.290  0.1088  0.2953  0.4723
   19DG     C11  425   3.974   2.520   4.136 -0.6097 -0.2527 -1.1289
   19DG     C12  426   4.343   2.285   4.302  0.4314 -0.6925 -0.2850
   19DG     H13  427   3.870   2.553   4.143 -0.0974  1.1232  0.6718
   19DG     H14  428   4.036   2.607   4.154 -0.3861 -0.6519  0.1373
   19DG     H15  429   4.393   2.222   4.375 -0.1264 -1.1693 -0.3026
   19DG     H16  430   4.343   2.229   4.208 -0.9302  0.9661 -1.3373
   19DG     C17  431   4.008   2.437   4.261 -0.0256  0.5570 -0.5722
   19DG     C18  432   4.199   2.315   4.345 -0.6829  0.3715 -0.1187
   19DG     O19  433   4.150   2.400   4.241 -0.3575 -0.1056  0.0351
   19DG     H20  434   3.949   2.345   4.259  1.3612 -0.4442  1.1746
   19DG     H21  435   3.979   2.482   4.356 -3.3928  0.9791 -1.6819
   19DG     H22  436   4.153   2.216   4.346 -0.6950  0.3790  0.1433
   19DG     H23  437   4.192   2.364   4.442  0.2257  1.2505 -0.4841
   20DG      C1  438   1.060   0.648   0.517  1.1072  0.1686 -0.3724
   20DG      C2  439   1.784   0.538   0.489 -0.0394 -0.1328 -0.3718
   20DG      H3  440   0.967   0.668   0.465  0.1772 -0.1683  1.1012
   20DG      H4  441   1.052   0.679   0.622 -0.4212  0.6016 -0.5952
   20DG      H5  442   1.064   0.540   0.508 -2.0979 -0.1259  0.5673
   20DG      H6  443   1.875   0.561   0.433  1.7387 -0.8379  2.0690
   20DG      H7  444   1.807   0.526   0.594  1.0536  1.3159 -0.4159
   20DG      H8  445   1.745   0.444   0.449 -1.4574  0.4607 -0.4556
   20DG      O9  446   1.174   0.706   0.457  0.0292 -0.2630 -0.2407
   20DG     O10  447   1.689   0.648   0.469  0.0436 -0.1153  0.4908
   20DG     C11  448   1.190   0.675   0.323  0.4922 -0.1563  0.1492
   20DG     C12  449   1.677   0.698   0.335  0.0325 -0.5171 -0.2519
   20DG     H13  450   1.102   0.709   0.269 -0.1327  0.6108  1.5967
   20DG     H14  451   1.194   0.567   0.306 -2.6771 -0.1965 -0.9963
   20DG     H15  452   1.678   0.618   0.260 -1.0647 -0.2258 -0.5995
   20DG     H16  453   1.763   0.763   0.316  0.4165 -1.0864 -0.4821
   20DG     C17  454   1.320   0.739   0.277  0.0691 -0.7023  0.0663
   20DG     C18  455   1.553   0.782   0.306 -0.1695 -0.3308 -0.6186
   20DG     O19  456   1.441   0.700   0.345  0.1946 -0.6158 -0.6787
   20DG     H20  457   1.308   0.847   0.271 -0.9056 -0.7623  0.6340
   20DG     H21  458   1.337   0.717   0.172 -1.5125  3.7540 -1.3701
   20DG     H22  459   1.555   0.875   0.363  1.1556 -1.3897  1.2030
   20DG     H23  460   1.562   0.804   0.200  1.5261  2.6662  0.0426
   21DG      C1  461   2.564   0.069   0.376 -0.4529 -0.8140  0.0548
   21DG      C2  462   2.556  -0.403   0.835  0.8734  0.6447  0.2822
   21DG      H3  463   2.509   0.151   0.329  0.0327  1.3861  3.0508
   21DG      H4  464   2.613   0.013   0.296 -2.1401 -1.7655 -0.3671
   21DG      H5  465   2.638   0.110   0.444 -1.1848  0.9901 -0.1828
   21DG      H6  466   2.616  -0.433   0.749 -0.0395  0.1215 -0.1913
   21DG      H7  467   2.619  -0.324   0.875  2.8283  0.1971 -1.7265
   21DG      H8  468   2.538  -0.463   0.924 -0.4159  1.3183  0.4937
   21DG      O9  469   2.472  -0.017   0.445 -0.4910  0.8791 -0.0937
   21DG     O10  470   2.439  -0.333   0.776 -0.3056  0.3837  0.1489
   21DG     C11  471   2.366  -0.079   0.367  0.1737  0.1106 -0.2745
   21DG     C12  472   2.347  -0.415   0.706 -0.3816  0.2473  0.8615
   21DG     H13  473   2.414  -0.136   0.288  0.9283 -1.7711  1.4704
   21DG     H14  474   2.311   0.008   0.331 -0.4081  1.5819  3.6806
   21DG     H15  475   2.289  -0.481   0.771 -1.6550 -0.5095 -0.9721
   21DG     H16  476   2.394  -0.482   0.635 -2.9389  1.2140 -1.9523
   21DG     C17  477   2.271  -0.162   0.457 -0.3076 -0.3513  0.3498
   21DG     C18  478   2.247  -0.328   0.625  0.4641  0.8063  0.2221
   21DG     O19  479   2.336  -0.244   0.555  0.2415  0.3531  0.4024
   21DG     H20  480   2.199  -0.221   0.400 -1.9283  1.3599  0.5430
   21DG     H21  481   2.210  -0.089   0.510  0.9604 -0.4563  2.0003
   21DG     H22  482   2.192  -0.387   0.551  1.9919  0.5336 -0.7417
   21DG     H23  483   2.176  -0.278   0.691 -1.3267 -0.0139 -0.9946
   22DG      C1  484   0.101   1.695   2.469  0.2321  0.0797  0.2297
   22DG      C2  485   0.780   2.112   2.811 -0.0491 -0.1375  0.1674
   22DG      H3  486   0.025   1.756   2.517 -1.5446  1.1403 -3.5394
   22DG      H4  487   0.056   1.603   2.432 -1.4004  1.0944 -0.4174
   22DG      H5  488   0.127   1.763   2.388 -2.3460  1.2895  0.3080
   22DG      H6  489   0.886   2.093   2.828 -0.5933 -0.3998  4.2228
   22DG      H7  490   0.759   2.194   2.743 -2.6783 -0.0178  0.9923
   22DG      H8  491   0.722   2.130   2.901  0.5330  0.5282  0.4177
   22DG      O9  492   0.203   1.649   2.555 -0.1419  0.0854  0.1600
   22DG     O10  493   0.715   2.004   2.745  0.5013 -0.4157 -0.2380
   22DG     C11  494   0.269   1.755   2.624 -0.4493  1.2254 -0.2170
   22DG     C12  495   0.684   1.894   2.830 -0.0430  0.0673  0.0469
   22DG     H13  496   0.201   1.782   2.704 -0.8587  2.5943 -0.9881
   22DG     H14  497   0.284   1.846   2.566 -0.1429  2.8484  2.2544
   22DG     H15  498   0.628   1.927   2.917  0.5036 -0.2287  0.5172
   22DG     H16  499   0.781   1.855   2.860  1.1942  2.3586 -0.7170
   22DG     C17  500   0.417   1.711   2.663 -0.0861 -0.2505 -0.2644
   22DG     C18  501   0.609   1.779   2.760 -0.0227  0.3715 -0.0743
   22DG     O19  502   0.483   1.820   2.720  0.2607  0.0651  0.2453
   22DG     H20  503   0.465   1.678   2.571 -1.6857 -2.1673 -0.4886
   22DG     H21  504   0.404   1.629   2.734  1.4616 -0.9424 -0.7366
   22DG     H22  505   0.665   1.732   2.679 -2.8045 -1.9469 -0.8242
   22DG     H23  506   0.605   1.706   2.841 -0.2451  2.8136  2.2507
   23DG      C1  507   1.297   4.627   2.101 -0.0331  0.4817  0.0006
   23DG      C2  508   1.910   4.849   2.310  0.1643 -0.7406 -0.1553
   23DG      H3  509   1.333   4.605   2.000 -2.3724 -1.5089 -0.5046
   23DG      H4  510   1.193   4.644   2.071  0.3348  1.6030 -0.6990
   23DG      H5  511   1.304   4.531   2.152  0.7346  0.6142  0.1453
   23DG      H6  512   1.905   4.806   2.410  0.8737 -1.2604 -0.3426
   23DG      H7  513   1.986   4.797   2.252 -0.6494 -0.8280 -1.1784
   23DG      H8  514   1.958   4.946   2.324 -0.7518 -0.6300  2.9055
   23DG      O9  515   1.361   4.736   2.154 -0.4687  0.0456  0.1774
   23DG     O10  516   1.782   4.867   2.246  0.4211 -0.5641 -0.1697
   23DG     C11  517   1.326   4.849   2.072 -0.4206 -0.6185 -1.1381
   23DG     C12  518   1.790   4.917   2.115  0.5275  0.3230 -0.5282
   23DG     H13  519   1.221   4.876   2.084 -0.2581 -0.1547 -0.6724
   23DG     H14  520   1.335   4.816   1.969 -0.2391 -2.9714 -0.4140
   23DG     H15  521   1.808   4.821   2.068 -2.0985 -0.4692 -0.1206
   23DG     H16  522   1.863   4.990   2.081  0.4564  0.4396 -0.4332
   23DG     C17  523   1.425   4.963   2.087  0.2167  0.2007 -0.1510
   23DG     C18  524   1.661   4.992   2.085  0.2111  0.8383 -0.0344
   23DG     O19  525   1.552   4.905   2.079  0.2456  0.5322 -0.2174
   23DG     H20  526   1.416   4.999   2.190  4.2752  0.8428  0.1546
   23DG     H21  527   1.403   5.041   2.015 -0.6768  0.6618  0.6083
   23DG     H22  528   1.640   5.061   2.167  0.5673 -0.1683  0.9420
   23DG     H23  529   1.676   5.035   1.986  0.4456  0.5068 -0.1448
   24DG      C1  530   5.145   5.395   0.377 -0.5700  0.1749  0.5109
   24DG      C2  531   4.939   5.932   0.734  0.0034  0.9773  0.0086
   24DG      H3  532   5.121   5.467   0.299 -1.5916  0.5482  1.1460
   24DG      H4  533   5.125   5.299   0.329 -1.4799 -0.1008  1.4145
   24DG      H5  534   5.246   5.412   0.415 -0.3362 -0.7178  0.2959
   24DG      H6  535   4.938   5.918   0.626  1.0701 -0.2573  0.1276
   24DG      H7  536   4.854   5.989   0.770  0.4718  1.7003 -0.0055
   24DG      H8  537   5.026   5.995   0.756 -0.7152  1.5216  1.3916
   24DG      O9  538   5.059   5.414   0.484  0.0359 -0.1239 -0.4153
   24DG     O10  539   4.965   5.812   0.810 -0.0047 -0.1847 -0.0554
   24DG     C11  540   5.095   5.349   0.611  0.4970  0.1529  0.2626
   24DG     C12  541   5.090   5.748   0.780 -0.0717 -0.5611 -0.4315
   24DG     H13  542   5.196   5.374   0.643  0.9926  0.5449 -1.4909
   24DG     H14  543   5.093   5.240   0.602  1.6021  0.2457 -1.3650
   24DG     H15  544   5.163   5.796   0.845 -3.1186  0.5749  2.4434
   24DG     H16  545   5.106   5.748   0.672 -0.6438  2.5481 -0.6257
   24DG     C17  546   4.984   5.405   0.697  0.3575 -0.3630 -0.6445
   24DG     C18  547   5.068   5.602   0.808  0.3311  0.6413  0.1125
   24DG     O19  548   4.985   5.553   0.702  0.2566  0.0187 -0.4868
   24DG     H20  549   4.995   5.360   0.796  0.5769  0.5968 -0.2231
   24DG     H21  550   4.889   5.375   0.652 -0.3546 -1.6846  1.5644
   24DG     H22  551   5.164   5.551   0.800 -0.3110 -0.4428 -1.0666
   24DG     H23  552   5.024   5.595   0.908 -1.4957  1.5495 -0.5945
   25DG      C1  553   4.879   1.951   0.582  0.3264 -0.1646  0.2376
   25DG      C2  554   4.766   2.496   1.022  0.2784  0.3692 -0.1965
   25DG      H3  555   4.986   1.951   0.604  0.6056  0.1866 -1.0567
   25DG      H4  556   4.877   2.000   0.485 -1.9018 -1.5064 -0.4590
   25DG      H5  557   4.846   1.847   0.573 -0.5236 -0.0203  1.4992
   25DG      H6  558   4.775   2.593   0.974 -1.1200  0.6842  0.1428
   25DG      H7  559   4.694   2.503   1.103 -0.7675  0.0634 -1.0701
   25DG      H8  560   4.867   2.483   1.061  0.0923  0.9803  0.5053
   25DG      O9  561   4.805   2.028   0.678 -0.1593  0.1243  0.3448
   25DG     O10  562   4.710   2.390   0.934 -0.1901 -0.3356 -0.4602
   25DG     C11  563   4.666   2.023   0.644 -0.2615  0.4089 -0.1040
   25DG     C12  564   4.589   2.439   0.870 -0.4155 -0.4022 -0.0120
   25DG     H13  565   4.639   1.917   0.647  0.0337  0.3364 -0.0439
   25DG     H14  566   4.660   2.062   0.542  0.8746  3.3267  0.8463
   25DG     H15  567   4.609   2.508   0.788  0.6372  0.1729  0.7149
   25DG     H16  568   4.517   2.487   0.936 -0.3096 -0.3252  0.0479
   25DG     C17  569   4.576   2.093   0.752 -0.0004  0.5295 -0.5017
   25DG     C18  570   4.523   2.312   0.810 -0.0697 -0.2513  0.5657
   25DG     O19  571   4.624   2.222   0.780 -0.6696  0.3368  0.9462
   25DG     H20  572   4.554   2.049   0.849  0.7355  1.8355  0.2860
   25DG     H21  573   4.481   2.088   0.699 -0.2964 -1.8476  0.1487
   25DG     H22  574   4.463   2.265   0.888  1.3822 -3.0395  0.1426
   25DG     H23  575   4.464   2.336   0.721  0.8819  1.2110  0.2871
   26DG      C1  576   0.958   0.662   4.051  0.2255 -0.5562  0.5379
   26DG      C2  577   0.274   0.812   4.062  1.0482 -0.2263 -0.7055
   26DG      H3  578   1.042   0.680   3.984 -0.7408  0.5565 -0.4241
   26DG      H4  579   0.923   0.560   4.035 -0.3703 -0.1221 -1.0764
   26DG      H5  580   1.001   0.675   4.150  1.4859 -4.3757  0.6420
   26DG      H6  581   0.245   0.709   4.040 -0.3266 -0.0228  0.0705
   26DG      H7  582   0.294   0.831   4.167  0.3235  1.6870 -0.8793
   26DG      H8  583   0.189   0.870   4.026 -0.0927 -0.4260  1.5103
   26DG      O9  584   0.854   0.758   4.032 -0.2196  0.6521 -0.4129
   26DG     O10  585   0.392   0.835   3.996  0.2363 -0.5402 -0.1892
   26DG     C11  586   0.884   0.891   4.034  0.0151  0.0173  0.1713
   26DG     C12  587   0.424   0.973   3.991  0.1523 -0.0625 -0.4698
   26DG     H13  588   0.984   0.915   3.996  0.1886  0.6835  1.0156
   26DG     H14  589   0.886   0.937   4.132 -0.3836 -2.5270  1.4613
   26DG     H15  590   0.427   1.032   4.082  2.2633  0.6240 -0.9506
   26DG     H16  591   0.354   1.025   3.925  0.1582 -0.9121 -1.1647
   26DG     C17  592   0.789   0.978   3.950 -0.5152  0.1418  0.1474
   26DG     C18  593   0.556   0.994   3.921 -0.3891  0.0324  1.1718
   26DG     O19  594   0.662   0.945   4.000 -0.0331 -0.0875 -0.0018
   26DG     H20  595   0.788   0.957   3.843  0.1920  2.2996 -0.3316
   26DG     H21  596   0.796   1.086   3.956 -1.0773  0.3162 -1.7346
   26DG     H22  597   0.552   0.942   3.825 -3.3712 -0.1995  1.3128
   26DG     H23  598   0.564   1.099   3.896 -0.1927 -0.3818 -0.6310
   27DG      C1  599   4.551   1.148   2.070 -0.5340  0.5854  1.0218
   27DG      C2  600   3.980   1.354   1.703  0.1279 -0.1885  0.1618
   27DG      H3  601   4.600   1.245   2.062 -0.0915  0.2419 -0.7764
   27DG      H4  602   4.593   1.106   1.979 -1.0983  2.3907 -0.1302
   27DG      H5  603   4.593   1.105   2.161  3.1896  1.0226 -0.3250
   27DG      H6  604   3.875   1.325   1.692 -0.5710  1.2468  2.4125
   27DG      H7  605   3.981   1.460   1.726 -0.9950 -0.2099  0.3716
   27DG      H8  606   4.014   1.339   1.601 -2.9032  0.5986 -1.0871
   27DG      O9  607   4.410   1.165   2.065  0.3521 -0.4531  0.0011
   27DG     O10  608   4.034   1.267   1.799 -0.2982 -0.1044  0.3666
   27DG     C11  609   4.353   1.040   2.071  0.4861  0.2093 -0.6361
   27DG     C12  610   4.001   1.134   1.793  0.0767 -0.8102  0.1358
   27DG     H13  611   4.377   0.993   2.167 -2.2259 -1.0486 -0.4620
   27DG     H14  612   4.390   0.972   1.994 -1.2771  0.2304 -1.5657
   27DG     H15  613   4.069   1.085   1.723  2.4069 -0.2707  1.8947
   27DG     H16  614   3.895   1.126   1.769 -0.2738  1.2267  0.8077
   27DG     C17  615   4.204   1.046   2.064 -0.2239  0.1497 -0.9510
   27DG     C18  616   4.028   1.080   1.931 -1.4773  0.0062  0.5654
   27DG     O19  617   4.169   1.091   1.941 -0.2386 -0.4962 -0.0238
   27DG     H20  618   4.170   1.112   2.144 -0.6624 -0.3366 -0.7283
   27DG     H21  619   4.158   0.948   2.082 -0.8689  0.9728  2.5485
   27DG     H22  620   3.972   1.145   1.998  1.4615  1.9459  1.3064
   27DG     H23  621   4.009   0.973   1.936  0.9684 -0.5369 -0.3142
   28DG      C1  622   4.659   3.285   2.114 -0.3235 -0.0020 -0.2364
   28DG      C2  623   4.973   2.688   2.140  0.0070 -0.0787 -0.1319
   28DG      H3  624   4.591   3.232   2.047  0.0708  0.9868 -1.4498
   28DG      H4  625   4.648   3.392   2.100  3.6246  1.0692  2.8600
   28DG      H5  626   4.639   3.257   2.218 -1.7758  0.0141 -0.4869
   28DG      H6  627   5.057   2.620   2.147  0.2348  0.1006 -1.0339
   28DG      H7  628   4.921   2.710   2.234  0.1563  1.2809 -0.3461
   28DG      H8  629   4.903   2.627   2.083  0.3640 -0.3682 -0.2629
   28DG      O9  630   4.794   3.231   2.080  0.7708  0.2230 -0.4604
   28DG     O10  631   4.998   2.811   2.066  0.0458  0.2852  0.5547
   28DG     C11  632   4.901   3.314   2.112 -0.2096  0.6515 -0.3426
   28DG     C12  633   5.108   2.878   2.123  1.0996  0.1654  0.5634
   28DG     H13  634   4.890   3.335   2.218 -2.0496 -2.3344  0.1511
   28DG     H14  635   4.901   3.405   2.052 -2.3994  0.2683 -1.0125
   28DG     H15  636   5.197   2.817   2.104  0.3267 -0.9232  0.3580
   28DG     H16  637   5.101   2.886   2.232  0.1076  0.9823  0.4512
   28DG     C17  638   5.025   3.233   2.076  0.1058  0.6447  0.2122
   28DG     C18  639   5.118   3.021   2.062  0.0779 -0.3128  0.2608
   28DG     O19  640   5.002   3.096   2.098 -0.4069  0.3616  0.0286
   28DG     H20  641   5.126   3.264   2.102  0.7007 -0.2174 -1.0147
   28DG     H21  642   5.037   3.240   1.968 -1.9365 -1.1267 -0.1954
   28DG     H22  643   5.203   3.073   2.105 -1.6137  1.8994  1.1717
   28DG     H23  644   5.135   3.013   1.954 -1.2736  0.4831 -0.0445
   29DG      C1  645   4.180   1.634   3.892  0.3295  0.3756  0.6181
   29DG      C2  646   4.467   1.870   3.398  0.1195  0.5701 -0.1708
   29DG      H3  647   4.177   1.540   3.948 -0.5841 -0.2173 -0.3949
   29DG      H4  648   4.127   1.616   3.799  1.5131 -1.4865  0.2331
   29DG      H5  649   4.123   1.715   3.937 -0.6326 -0.5662  1.1495
   29DG      H6  650   4.541   1.791   3.388  0.1380  0.2398  2.0826
   29DG      H7  651   4.367   1.834   3.375  0.2745  0.2858 -0.4017
   29DG      H8  652   4.477   1.948   3.323 -1.6125  0.7251 -0.2783
   29DG      O9  653   4.308   1.691   3.856  0.8071  0.4010  0.0261
   29DG     O10  654   4.481   1.928   3.527 -0.3265  0.4140  0.1444
   29DG     C11  655   4.390   1.591   3.808  0.4824  0.8875  0.0177
   29DG     C12  656   4.606   1.938   3.573  0.3524 -0.1111 -0.6412
   29DG     H13  657   4.344   1.551   3.718 -0.5288  0.8374  0.5459
   29DG     H14  658   4.386   1.513   3.883 -0.3476  1.8972  1.0596
   29DG     H15  659   4.592   2.016   3.647 -1.1178 -1.5755  0.7036
   29DG     H16  660   4.684   1.969   3.503  0.7244 -1.9224 -1.0801
   29DG     C17  661   4.533   1.637   3.777  0.3275 -0.3542 -0.1613
   29DG     C18  662   4.641   1.817   3.656  0.2613  0.5994 -0.0488
   29DG     O19  663   4.520   1.766   3.721  0.2095  0.1410  0.0356
   29DG     H20  664   4.577   1.564   3.711 -0.9257  1.0198 -2.6519
   29DG     H21  665   4.601   1.648   3.861  0.9192  1.1424 -0.7935
   29DG     H22  666   4.692   1.738   3.600  1.2387  1.7975 -0.9029
   29DG     H23  667   4.716   1.843   3.731  1.6166 -0.7145 -0.8803
   30DG      C1  668   4.973   3.283   3.717  0.0205  0.0084 -0.6510
   30DG      C2  669   4.610   2.921   4.316  0.0837 -0.7174 -0.6027
   30DG      H3  670   4.906   3.317   3.638  0.5018 -1.3596 -1.6890
   30DG      H4  671   5.059   3.256   3.656  0.6309 -0.1487  0.2676
   30DG      H5  672   5.004   3.361   3.786  0.2716 -1.5214  1.0443
   30DG      H6  673   4.512   2.929   4.363  0.4751 -0.8070  0.2416
   30DG      H7  674   4.638   2.818   4.294 -2.6795 -1.0553 -3.2863
   30DG      H8  675   4.679   2.957   4.392 -0.5235 -1.1292  0.1567
   30DG      O9  676   4.920   3.186   3.798  0.4720 -0.2284  0.1733
   30DG     O10  677   4.619   3.004   4.202 -0.2829 -0.3584 -0.7648
   30DG     C11  678   4.817   3.231   3.887  0.1918 -0.0716  0.4457
   30DG     C12  679   4.551   2.956   4.089  0.2456  0.2096  0.0559
   30DG     H13  680   4.752   3.291   3.823  1.0691  0.5149  0.0702
   30DG     H14  681   4.855   3.300   3.963  1.7876 -1.3996  0.9117
   30DG     H15  682   4.459   2.908   4.121  0.5668  0.8560  2.0483
   30DG     H16  683   4.609   2.880   4.037  1.1492  1.9033 -1.5518
   30DG     C17  684   4.750   3.113   3.951  0.8499  0.7873  0.6607
   30DG     C18  685   4.524   3.057   3.982  0.1312 -0.2258  0.5753
   30DG     O19  686   4.617   3.158   3.960 -0.2674  0.4768 -0.7205
   30DG     H20  687   4.791   3.082   4.047 -0.6673  0.3203  1.1950
   30DG     H21  688   4.758   3.032   3.879 -1.5550 -0.0184  1.1743
   30DG     H22  689   4.503   3.005   3.889  0.2199 -1.3032  1.1411
   30DG     H23  690   4.430   3.112   3.996  0.4526  0.2991  0.6941
   31DG      C1  691   5.224   0.143   1.582 -0.4070 -0.9283  0.0090
   31DG      C2  692   5.034   0.658   1.369  0.6977 -0.2894 -0.2953
   31DG      H3  693   5.285   0.053   1.571  2.6279  1.1680 -1.8766
   31DG      H4  694   5.141   0.120   1.649 -0.4886  0.2968  0.3506
   31DG      H5  695   5.281   0.216   1.640  1.0430 -0.2192 -2.2125
   31DG      H6  696   4.960   0.615   1.437  0.5372 -0.3576 -0.5146
   31DG      H7  697   5.104   0.713   1.432 -0.8184  2.0705 -0.5542
   31DG      H8  698   4.977   0.728   1.308  1.1556  0.5335  0.2044
   31DG      O9  699   5.200   0.193   1.450  0.1317  0.2939 -0.1043
   31DG     O10  700   5.091   0.557   1.283 -0.1581 -0.4044 -0.1727
   31DG     C11  701   5.140   0.097   1.363  0.4807  0.5670 -0.7643
   31DG     C12  702   5.016   0.510   1.175 -0.4664 -0.2312  0.1563
   31DG     H13  703   5.044   0.066   1.405  1.4035 -1.9065 -0.3074
   31DG     H14  704   5.210   0.017   1.337 -1.3728 -0.4591 -2.9365
   31DG     H15  705   5.033   0.586   1.099  2.8057  0.2398  1.1892
   31DG     H16  706   4.909   0.506   1.196 -0.2768  0.3396  1.3027
   31DG     C17  707   5.108   0.161   1.227  0.0577 -0.8625 -0.5679
   31DG     C18  708   5.083   0.379   1.136  0.2077  0.2033 -0.0401
   31DG     O19  709   5.097   0.308   1.255  0.4652 -0.1498  0.4319
   31DG     H20  710   5.022   0.115   1.180  0.2988 -0.7365 -1.1340
   31DG     H21  711   5.193   0.154   1.160  0.8616 -1.4515  0.4802
   31DG     H22  712   5.025   0.323   1.062 -1.0005  0.7683  0.4520
   31DG     H23  713   5.182   0.397   1.096  0.4614  0.5509  0.7284
   32DG      C1  714   4.254   2.111   0.534 -0.2735 -0.4788  0.1718
   32DG      C2  715   4.522   2.912   0.575  0.1765  0.5992  0.3504
   32DG      H3  716   4.299   2.013   0.517 -0.1899 -0.6452  1.2889
   32DG      H4  717   4.176   2.130   0.461 -1.4913 -0.2119  1.5173
   32DG      H5  718   4.207   2.123   0.631 -2.2440  0.4681 -0.8319
   32DG      H6  719   4.596   2.984   0.610  0.5748  0.7585 -0.7799
   32DG      H7  720   4.463   2.952   0.492 -2.5664  0.6727  2.2105
   32DG      H8  721   4.454   2.891   0.657  2.2116 -0.8412  1.7560
   32DG      O9  722   4.356   2.205   0.529 -0.1470 -0.1570  0.9334
   32DG     O10  723   4.582   2.781   0.544 -0.5696 -0.4736 -0.0902
   32DG     C11  724   4.430   2.217   0.404  0.2919  0.0056 -0.1213
   32DG     C12  725   4.491   2.677   0.521 -0.0365  0.7904 -0.1343
   32DG     H13  726   4.350   2.236   0.333 -0.3954  2.3074  1.1713
   32DG     H14  727   4.483   2.124   0.382 -0.6379 -0.3344 -1.0066
   32DG     H15  728   4.414   2.714   0.453  0.9618  0.6542 -1.3656
   32DG     H16  729   4.451   2.645   0.617 -2.6453  0.7827 -1.1409
   32DG     C17  730   4.522   2.336   0.406 -0.3048  0.3241  0.5406
   32DG     C18  731   4.556   2.558   0.446 -0.1478 -0.3837 -0.6412
   32DG     O19  732   4.457   2.455   0.446 -0.1370  0.2001 -0.0118
   32DG     H20  733   4.551   2.358   0.303  0.0479  0.0693  0.5832
   32DG     H21  734   4.614   2.322   0.462 -0.4887  2.1516  1.3813
   32DG     H22  735   4.583   2.578   0.342  0.4757  0.2559 -0.3579
   32DG     H23  736   4.654   2.528   0.483  0.2612  0.8816 -0.6675
   33DG      C1  737   2.241   3.111   4.469  0.8524 -0.1639 -0.1703
   33DG      C2  738   2.059   2.612   4.965 -0.1517 -0.4523 -0.0449
   33DG      H3  739   2.245   3.029   4.398  0.7454 -2.0686  1.9115
   33DG      H4  740   2.335   3.167   4.473  0.3138  0.7303  0.1154
   33DG      H5  741   2.156   3.165   4.426 -0.1112 -1.9384 -0.5734
   33DG      H6  742   2.157   2.593   4.920  0.3560 -1.1622  1.3044
   33DG      H7  743   2.060   2.564   5.063  1.4283  0.1419  0.2537
   33DG      H8  744   1.986   2.562   4.901 -1.4581  0.7550  0.4582
   33DG      O9  745   2.197   3.074   4.599  0.4071  0.0673  0.3141
   33DG     O10  746   2.040   2.748   4.956  0.1723 -0.0421 -0.1252
   33DG     C11  747   2.187   3.187   4.687  0.1425 -0.2847 -0.2880
   33DG     C12  748   2.136   2.830   5.019 -0.0455 -0.6104 -0.2291
   33DG     H13  749   2.134   3.275   4.649 -0.4613 -0.5170  0.0046
   33DG     H14  750   2.288   3.217   4.713  1.2444 -0.5699 -3.7242
   33DG     H15  751   2.242   2.804   5.009  0.0910 -1.3805  2.4804
   33DG     H16  752   2.123   2.822   5.127  2.2535  3.0200  0.4939
   33DG     C17  753   2.100   3.139   4.811 -0.2649  1.0148  0.3179
   33DG     C18  754   2.105   2.977   4.990 -0.0694 -0.5362 -0.3323
   33DG     O19  755   2.151   3.012   4.858 -0.0732  0.3798 -0.4905
   33DG     H20  756   1.996   3.131   4.779 -0.8605 -0.3512  2.3487
   33DG     H21  757   2.124   3.219   4.881 -2.1649  2.1990 -0.3262
   33DG     H22  758   2.002   3.010   5.002 -0.2954 -1.5110  0.4972
   33DG     H23  759   2.167   3.044   5.050 -0.3039  0.1015 -0.7872
   34DG      C1  760   1.392   2.171   2.589  0.4816 -0.0545  0.6009
   34DG      C2  761   0.834   2.653   3.065  0.5641 -0.1046 -0.0165
   34DG      H3  762   1.326   2.102   2.536 -0.5089  0.3104  1.3217
   34DG      H4  763   1.481   2.125   2.633  0.0255 -0.2781  1.3119
   34DG      H5  764   1.427   2.244   2.517  0.7654 -1.0079 -0.2423
   34DG      H6  765   0.790   2.676   3.162 -1.3174  3.0124 -1.4741
   34DG      H7  766   0.886   2.740   3.025 -0.4424  0.3512 -0.3503
   34DG      H8  767   0.755   2.625   2.995  1.6528 -1.3799 -0.7978
   34DG      O9  768   1.322   2.229   2.695  0.1177 -0.2669  0.2400
   34DG     O10  769   0.926   2.545   3.072 -0.0716 -1.0118  0.2174
   34DG     C11  770   1.252   2.138   2.778  0.3440 -0.2711 -0.2633
   34DG     C12  771   0.957   2.496   2.947 -0.5695 -0.1352 -0.1626
   34DG     H13  772   1.326   2.073   2.825  1.1024 -1.2636 -2.6590
   34DG     H14  773   1.192   2.075   2.712  0.7100  0.0849 -0.9329
   34DG     H15  774   1.002   2.566   2.877 -2.4479  2.2454  0.8597
   34DG     H16  775   0.865   2.450   2.911 -0.2201 -1.1961  0.2392
   34DG     C17  776   1.189   2.214   2.894  0.0408 -1.4103  0.0445
   34DG     C18  777   1.052   2.379   2.975 -0.1200 -0.3062 -1.0116
   34DG     O19  778   1.097   2.314   2.851  0.2329  0.8550 -0.2534
   34DG     H20  779   1.267   2.263   2.951 -0.0024 -0.5579 -0.5963
   34DG     H21  780   1.137   2.146   2.962 -0.8331 -1.3500 -0.5317
   34DG     H22  781   1.126   2.424   3.041 -0.8645  1.0319 -1.0593
   34DG     H23  782   1.003   2.299   3.031 -0.5567 -0.1566 -1.1753
   35DG      C1  783   0.250   3.518   1.799 -0.0472 -0.3577  0.5316
   35DG      C2  784   0.043   2.928   1.521  0.2381  0.6759  0.9833
   35DG      H3  785   0.205   3.488   1.894 -0.7207  1.2292  0.7481
   35DG      H4  786   0.176   3.568   1.736 -1.7326 -3.0427  0.2074
   35DG      H5  787   0.328   3.590   1.825 -0.8378  0.1736  1.5193
   35DG      H6  788  -0.017   2.991   1.455  0.2577  0.3706  0.6728
   35DG      H7  789   0.047   2.825   1.484  1.3611  0.9322  0.3398
   35DG      H8  790  -0.008   2.921   1.617 -0.4806  3.1947  0.8540
   35DG      O9  791   0.309   3.402   1.737  0.0594  0.3083  0.0655
   35DG     O10  792   0.167   2.988   1.547  0.4355 -0.0826  0.4513
   35DG     C11  793   0.393   3.326   1.830  0.5786  0.0839 -0.8365
   35DG     C12  794   0.259   2.914   1.625  0.5005  0.1314 -0.0900
   35DG     H13  795   0.336   3.289   1.915 -0.2343  3.5682  0.3188
   35DG     H14  796   0.468   3.398   1.866 -1.7704  1.9202  0.7068
   35DG     H15  797   0.287   2.819   1.580 -0.6542 -0.2921  0.0612
   35DG     H16  798   0.212   2.900   1.723 -0.7530 -0.1371 -0.7126
   35DG     C17  799   0.450   3.205   1.759 -0.0443  0.5102  0.8871
   35DG     C18  800   0.381   2.997   1.658 -0.4464 -0.0644 -0.2358
   35DG     O19  801   0.338   3.123   1.721  0.0013  0.0801 -0.0071
   35DG     H20  802   0.510   3.139   1.821 -1.5622 -0.5468  1.2749
   35DG     H21  803   0.511   3.231   1.672 -2.0504 -0.1780 -0.8054
   35DG     H22  804   0.447   2.945   1.728 -0.2400  1.0497  0.4047
   35DG     H23  805   0.439   3.010   1.567  1.0916  0.0925  0.7163
   36DG      C1  806   3.745   3.602   2.994 -0.0293 -0.7660  0.2894
   36DG      C2  807   3.689   2.977   3.200  0.1653  0.7251  0.4953
   36DG      H3  808   3.709   3.641   3.089  0.8602 -0.3611  0.4672
   36DG      H4  809   3.751   3.686   2.925 -0.1887 -1.0980 -0.1326
   36DG      H5  810   3.844   3.567   3.024 -0.5809 -1.3807  1.4617
   36DG      H6  811   3.726   2.879   3.171 -0.1774  0.9179 -0.6438
   36DG      H7  812   3.730   3.002   3.298  0.5802 -0.9596  0.7856
   36DG      H8  813   3.583   2.974   3.225  0.3448  1.8120  1.4892
   36DG      O9  814   3.678   3.486   2.948  0.3029 -0.7483  0.5897
   36DG     O10  815   3.714   3.073   3.093  0.3003  0.2057  0.4370
   36DG     C11  816   3.717   3.447   2.813  0.1800  0.0373 -0.9869
   36DG     C12  817   3.695   3.021   2.957  0.0706 -0.4281  0.0265
   36DG     H13  818   3.811   3.391   2.818  0.2014  0.1576  1.2400
   36DG     H14  819   3.730   3.538   2.756  0.9588  0.7209  0.2152
   36DG     H15  820   3.602   2.966   2.953 -0.1086 -0.1678  0.4806
   36DG     H16  821   3.769   2.944   2.935 -0.1856 -0.5306 -0.4857
   36DG     C17  822   3.618   3.340   2.767  0.0330 -0.2661 -0.3555
   36DG     C18  823   3.700   3.132   2.854 -0.4411  0.0087  0.0898
   36DG     O19  824   3.611   3.240   2.871  0.4654 -0.0329 -1.3321
   36DG     H20  825   3.631   3.290   2.671 -0.3669 -2.0523  0.4706
   36DG     H21  826   3.517   3.381   2.765  0.5638  1.0631 -0.2707
   36DG     H22  827   3.801   3.172   2.860 -0.5303  0.7349 -2.1127
   36DG     H23  828   3.685   3.089   2.755 -1.9132 -1.8937  1.0577
   37DG      C1  829   4.921   1.526   4.976  0.5721  0.5541  0.1121
   37DG      C2  830   5.131   0.729   5.079 -0.2867  0.3608 -0.6282
   37DG      H3  831   4.891   1.557   5.076  0.4434  1.4948 -0.2123
   37DG      H4  832   4.843   1.557   4.907 -0.2159  2.0507  1.6152
   37DG      H5  833   5.011   1.581   4.946 -0.0491  0.8336 -1.3163
   37DG      H6  834   5.215   0.737   5.011  1.0098 -1.8523  0.5973
   37DG      H7  835   5.141   0.777   5.176 -2.2475  0.0449 -0.2253
   37DG      H8  836   5.113   0.621   5.085  1.7674 -0.2073 -2.8574
   37DG      O9  837   4.939   1.393   4.975 -0.3321  0.4831  0.3136
   37DG     O10  838   5.014   0.777   5.020 -0.4280  0.1683  0.6636
   37DG     C11  839   4.985   1.339   4.848 -0.1032  0.0206  0.2006
   37DG     C12  840   5.023   0.913   4.986  0.6197  0.0753  0.2185
   37DG     H13  841   5.076   1.396   4.826  0.7293 -0.2820  2.6070
   37DG     H14  842   4.907   1.366   4.776 -0.6658 -0.7896  0.4994
   37DG     H15  843   5.107   0.925   4.917  0.6646 -0.2620  0.2123
   37DG     H16  844   5.057   0.970   5.072  3.8048  0.9856 -1.4742
   37DG     C17  845   4.997   1.188   4.834 -0.2474 -0.0045 -0.3365
   37DG     C18  846   4.898   0.977   4.914 -0.2032 -0.4391 -0.6719
   37DG     O19  847   4.898   1.122   4.918  0.3731 -0.4078 -0.1869
   37DG     H20  848   5.099   1.162   4.862  0.3437  3.0020  0.7398
   37DG     H21  849   4.993   1.166   4.727 -3.7979 -0.2349 -0.2617
   37DG     H22  850   4.891   0.933   4.815  0.9140 -1.3116 -0.3840
   37DG     H23  851   4.814   0.939   4.971 -0.3068 -0.3814 -0.7876
   38DG      C1  852   3.342   0.661   0.120  0.4004 -0.0891 -0.0665
   38DG      C2  853   3.219   1.275   0.400  0.0231 -0.3875 -0.6522
   38DG      H3  854   3.264   0.652   0.196 -1.2297  1.3507 -1.4906
   38DG      H4  855   3.429   0.612   0.164 -1.0624 -1.5973  1.2857
   38DG      H5  856   3.312   0.607   0.031 -0.3967 -0.6668  0.5340
   38DG      H6  857   3.131   1.219   0.431 -1.1929  2.6894  2.1091
   38DG      H7  858   3.276   1.307   0.487 -0.1337 -1.5072 -0.1244
   38DG      H8  859   3.163   1.357   0.356 -1.0217 -1.3003 -1.0666
   38DG      O9  860   3.350   0.804   0.106 -0.4754 -0.5891 -0.0419
   38DG     O10  861   3.288   1.209   0.304 -0.3330 -0.3247 -0.0298
   38DG     C11  862   3.486   0.845   0.066  0.0645 -0.4829 -0.1264
   38DG     C12  863   3.390   1.283   0.235  0.2876  0.3431  0.7204
   38DG     H13  864   3.543   0.793  -0.011  2.3537  0.2871  0.9647
   38DG     H14  865   3.543   0.829   0.157  1.9699  1.4406 -0.8911
   38DG     H15  866   3.470   1.295   0.308 -1.3200 -0.4223  2.6955
   38DG     H16  867   3.347   1.377   0.202 -0.5621 -0.1634  0.3614
   38DG     C17  868   3.477   0.989   0.024 -0.6818  0.4613 -0.3376
   38DG     C18  869   3.434   1.199   0.118 -0.0266 -0.1648 -0.2252
   38DG     O19  870   3.451   1.057   0.147  0.2776 -0.5279 -0.0122
   38DG     H20  871   3.397   0.993  -0.049 -1.0007 -1.1955 -0.1353
   38DG     H21  872   3.569   1.026  -0.021 -1.3338  0.2299 -1.8975
   38DG     H22  873   3.358   1.214   0.042 -0.5388 -0.8191  0.1496
   38DG     H23  874   3.521   1.252   0.079 -0.4319  1.7949  1.3517
   39DG      C1  875   2.859   1.394   2.115 -0.0932 -0.0291  0.3284
   39DG      C2  876   3.307   1.812   1.671 -0.2994 -0.2631  0.4082
   39DG      H3  877   2.887   1.290   2.098 -0.4582 -0.5152  2.4272
   39DG      H4  878   2.778   1.406   2.043  0.0585  2.2666  0.4587
   39DG      H5  879   2.808   1.402   2.211 -2.6333 -2.3377 -0.6991
   39DG      H6  880   3.289   1.836   1.566  0.3645 -0.4775  0.2383
   39DG      H7  881   3.387   1.877   1.705  0.5066 -0.2284 -1.4005
   39DG      H8  882   3.335   1.706   1.673 -0.9291 -0.4920 -1.0483
   39DG      O9  883   2.966   1.486   2.076 -0.2355 -0.0006 -0.2152
   39DG     O10  884   3.197   1.841   1.755 -0.0294 -0.3625 -0.4834
   39DG     C11  885   2.931   1.610   2.123 -0.1412 -0.1600  0.5525
   39DG     C12  886   3.090   1.747   1.734  0.3202  0.4777  0.1247
   39DG     H13  887   2.905   1.611   2.229 -2.5919  2.2713  0.0371
   39DG     H14  888   2.843   1.637   2.065  1.3232 -0.1513 -1.7534
   39DG     H15  889   3.115   1.645   1.705 -1.4980  0.3529 -1.2238
   39DG     H16  890   3.037   1.778   1.643  2.3412 -0.7535 -1.5646
   39DG     C17  891   3.045   1.709   2.103 -0.0372  0.2244 -0.1890
   39DG     C18  892   3.004   1.743   1.864  0.2636 -0.4535  0.0018
   39DG     O19  893   3.088   1.707   1.971  0.0297 -0.3667 -0.5188
   39DG     H20  894   3.136   1.691   2.160 -0.7097 -2.1710  0.2168
   39DG     H21  895   3.017   1.811   2.131 -0.2941  1.2026 -3.5801
   39DG     H22  896   2.953   1.837   1.883  0.2140 -0.0082 -2.0533
   39DG     H23  897   2.928   1.671   1.833 -0.6703  1.3732 -2.2485
   40DG      C1  898   4.802   4.038   2.694 -0.4807 -0.3132  0.6573
   40DG      C2  899   4.591   3.814   3.300 -0.5250  0.1826 -0.4983
   40DG      H3  900   4.839   4.109   2.620  0.7249  1.0060  2.4556
   40DG      H4  901   4.709   3.996   2.655  2.1909 -4.3022 -2.1931
   40DG      H5  902   4.867   3.951   2.689  0.0442 -0.0033  1.8456
   40DG      H6  903   4.529   3.856   3.379  1.6112  2.1406  0.2624
   40DG      H7  904   4.553   3.728   3.245 -0.5242  1.1043 -1.9691
   40DG      H8  905   4.692   3.782   3.327 -0.3266  0.3333 -1.0446
   40DG      O9  906   4.794   4.092   2.820 -0.0854  0.4929  0.1054
   40DG     O10  907   4.592   3.914   3.203  0.4105 -0.3902 -0.2055
   40DG     C11  908   4.726   4.219   2.823 -0.1532  0.1648  0.3330
   40DG     C12  909   4.624   4.039   3.260 -0.4362  0.2423 -0.2009
   40DG     H13  910   4.624   4.215   2.784 -0.3557 -0.5701  0.9131
   40DG     H14  911   4.781   4.297   2.770 -2.6749 -0.0657 -2.9734
   40DG     H15  912   4.729   4.044   3.287 -0.5553  2.4002  0.0032
   40DG     H16  913   4.583   4.064   3.357 -0.1164  1.4415 -0.3610
   40DG     C17  914   4.701   4.248   2.971  0.3145  0.1412  0.3703
   40DG     C18  915   4.588   4.148   3.162 -0.1152  0.0093 -0.2874
   40DG     O19  916   4.654   4.127   3.038  0.0464 -0.1573  0.0262
   40DG     H20  917   4.626   4.326   2.982 -1.0436 -1.3079  1.8677
   40DG     H21  918   4.793   4.290   3.012  0.0571 -0.3050  1.4399
   40DG     H22  919   4.480   4.160   3.156 -0.0984 -0.4394 -2.1753
   40DG     H23  920   4.624   4.239   3.210  1.0037 -0.7458  0.3536
   41DG      C1  921   2.326   2.748   0.375  0.8580 -0.5068 -0.0737
   41DG      C2  922   2.176   3.370   0.307 -0.8142 -0.4015  0.3149
   41DG      H3  923   2.359   2.751   0.478  0.3324  0.6373  0.0821
   41DG      H4  924   2.396   2.811   0.319  0.6725 -0.9017 -0.7628
   41DG      H5  925   2.320   2.641   0.355 -2.1463 -0.4615  0.1376
   41DG      H6  926   2.258   3.374   0.379 -0.8705 -0.9305  0.4103
   41DG      H7  927   2.228   3.352   0.213  1.6420  0.9160  1.3261
   41DG      H8  928   2.112   3.458   0.317 -1.0046 -0.5077  0.0501
   41DG      O9  929   2.202   2.818   0.375 -0.2070  0.0869  0.2178
   41DG     O10  930   2.101   3.260   0.336  0.0492 -0.3742 -0.1338
   41DG     C11  931   2.139   2.795   0.253 -0.0440 -0.2537  0.2502
   41DG     C12  932   2.005   3.227   0.234  0.6800 -0.0015 -0.5615
   41DG     H13  933   2.121   2.688   0.244  0.3652 -0.1772 -2.0313
   41DG     H14  934   2.205   2.823   0.172  0.1184 -2.8239 -0.5953
   41DG     H15  935   2.057   3.212   0.139  3.0298 -2.1648  0.9260
   41DG     H16  936   1.924   3.299   0.231  0.1905 -0.5743 -1.7876
   41DG     C17  937   2.002   2.868   0.253 -0.4284 -0.0918 -0.0326
   41DG     C18  938   1.940   3.097   0.264  0.7013 -0.2214 -0.1986
   41DG     O19  939   2.047   3.002   0.258  0.0655 -0.2152 -0.1737
   41DG     H20  940   1.951   2.838   0.345  0.2402  1.8945  1.0334
   41DG     H21  941   1.945   2.842   0.164 -1.4073 -0.9622  0.8150
   41DG     H22  942   1.899   3.095   0.365 -0.2407 -1.7660 -0.5740
   41DG     H23  943   1.855   3.078   0.198  0.3912  1.3610 -0.2766
   42DG      C1  944   4.476   3.488   0.967  0.0659  0.1639  0.7127
   42DG      C2  945   3.720   3.612   1.135 -0.4811  0.1026 -0.3621
   42DG      H3  946   4.503   3.469   0.863 -0.4053  1.4387  0.3400
   42DG      H4  947   4.555   3.442   1.027  0.2991 -0.7426 -0.2507
   42DG      H5  948   4.493   3.593   0.988  1.5078  0.4298 -1.4397
   42DG      H6  949   3.626   3.574   1.093 -1.8771  3.0780 -0.1927
   42DG      H7  950   3.704   3.645   1.238  0.1584  2.1914 -0.8784
   42DG      H8  951   3.752   3.697   1.075  2.2836 -1.6504 -1.5809
   42DG      O9  952   4.342   3.464   1.003 -0.5971  0.2179 -0.4007
   42DG     O10  953   3.826   3.516   1.124  0.0316  0.3346  0.4925
   42DG     C11  954   4.309   3.326   0.985 -0.3754  0.2192 -0.1318
   42DG     C12  955   3.836   3.447   1.000 -0.4906  0.1580  0.0015
   42DG     H13  956   4.382   3.270   1.044 -0.2600  0.1623 -0.3290
   42DG     H14  957   4.312   3.295   0.881  1.7407  0.3736 -0.1527
   42DG     H15  958   3.854   3.529   0.931  1.8119  0.3264  0.7203
   42DG     H16  959   3.744   3.391   0.981 -0.0763 -0.2965 -0.6786
   42DG     C17  960   4.173   3.295   1.061 -0.2408  0.6549  0.0038
   42DG     C18  961   3.944   3.346   1.001 -0.2478 -0.0824 -0.1528
   42DG     O19  962   4.082   3.396   1.021  0.8936 -0.0888 -0.2254
   42DG     H20  963   4.192   3.295   1.169  1.8198 -3.3983 -0.1419
   42DG     H21  964   4.133   3.194   1.048 -0.8594  1.0028 -0.8137
   42DG     H22  965   3.924   3.280   1.085  2.3095  0.0907  0.6961
   42DG     H23  966   3.947   3.296   0.905  0.1905  0.6934 -0.5528
   43DG      C1  967   5.120   3.517   5.213 -0.4538  1.3356  0.5523
   43DG      C2  968   4.755   3.652   5.736  0.2060  0.6309  0.3360
   43DG      H3  969   5.052   3.568   5.146 -1.3483  1.6264  1.6504
   43DG      H4  970   5.187   3.456   5.153 -2.3760 -1.5600  1.0971
   43DG      H5  971   5.183   3.597   5.252  1.3487 -0.1311  0.7867
   43DG      H6  972   4.699   3.628   5.827 -0.1124 -0.4462 -0.1183
   43DG      H7  973   4.835   3.722   5.758 -0.3070  1.9288 -1.6949
   43DG      H8  974   4.686   3.698   5.665 -0.1697 -1.5193 -0.7670
   43DG      O9  975   5.056   3.443   5.316 -0.1600 -0.3868  0.0044
   43DG     O10  976   4.811   3.537   5.682  0.3794  0.1752  0.0939
   43DG     C11  977   4.971   3.338   5.273 -0.0138  0.2882  0.0341
   43DG     C12  978   4.718   3.432   5.672 -0.3718 -0.4228 -0.0063
   43DG     H13  979   5.028   3.260   5.222  1.5443  1.5781 -0.2831
   43DG     H14  980   4.898   3.381   5.205  0.0631  0.0194 -0.2225
   43DG     H15  981   4.641   3.457   5.599  0.1311 -1.3512 -0.8909
   43DG     H16  982   4.667   3.396   5.761 -0.7454 -0.0547 -0.0687
   43DG     C17  983   4.891   3.273   5.390  0.1474 -0.3448  1.0552
   43DG     C18  984   4.793   3.320   5.594  0.2274 -0.7550  0.4763
   43DG     O19  985   4.838   3.377   5.473 -0.2488  0.1660 -0.5343
   43DG     H20  986   4.957   3.207   5.445  1.1181 -0.1893  0.1132
   43DG     H21  987   4.815   3.205   5.351 -0.8697  0.3447  1.7774
   43DG     H22  988   4.877   3.276   5.646  0.4777 -0.9623 -0.0904
   43DG     H23  989   4.724   3.242   5.562  0.7681 -1.6642  1.4781
   44DG      C1  990   4.565   0.830   3.232 -0.3470  1.1525  0.0848
   44DG      C2  991   3.932   0.335   3.066 -0.0997  0.7020  0.6716
   44DG      H3  992   4.523   0.899   3.159 -0.2396  0.2731 -0.8238
   44DG      H4  993   4.658   0.874   3.269  0.2538 -1.5552  2.0918
   44DG      H5  994   4.504   0.829   3.322  0.4722  2.6231  0.7050
   44DG      H6  995   3.894   0.430   3.028  1.7352  1.4590  0.6204
   44DG      H7  996   3.886   0.248   3.021  0.4295 -0.1681  1.7749
   44DG      H8  997   3.913   0.336   3.173 -1.3365 -1.8710  0.5506
   44DG      O9  998   4.559   0.696   3.182  0.3977 -0.4044 -0.0686
   44DG     O10  999   4.069   0.351   3.047  0.5065  0.4605  0.4844
   44DG     C11 1000   4.425   0.649   3.184 -0.0634 -0.2052  0.2434
   44DG     C12 1001   4.163   0.270   3.123  0.5524  0.5976  0.1200
   44DG     H13 1002   4.348   0.709   3.135  1.0211  1.2796  0.2873
   44DG     H14 1003   4.398   0.655   3.289  0.7285 -1.4265  0.5394
   44DG     H15 1004   4.138   0.166   3.104 -0.1478  0.3971  1.9722
   44DG     H16 1005   4.159   0.280   3.231  2.2814  0.0493  0.2744
   44DG     C17 1006   4.437   0.511   3.138  0.8574 -0.3479 -0.3199
   44DG     C18 1007   4.307   0.323   3.095 -1.1153 -0.2478 -0.4091
   44DG     O19 1008   4.309   0.454   3.154 -0.2487  0.8464 -0.2486
   44DG     H20 1009   4.498   0.456   3.209  0.9127 -1.6388 -1.3285
   44DG     H21 1010   4.488   0.498   3.043 -0.6357  1.2228 -1.3967
   44DG     H22 1011   4.382   0.258   3.140 -0.8710  0.9880  1.0369
   44DG     H23 1012   4.329   0.329   2.988 -1.6590 -3.7513 -0.8577
   45DG      C1 1013   3.854   0.540   4.958  0.0079  0.2645  0.4129
   45DG      C2 1014   3.497   0.680   5.209 -0.3027  0.4234  0.0879
   45DG      H3 1015   3.871   0.479   5.047 -1.2475  1.0219  1.2136
   45DG      H4 1016   3.947   0.519   4.907 -1.4238 -1.6516 -1.6004
   45DG      H5 1017   3.770   0.502   4.900  1.3371 -0.4181 -1.1332
   45DG      H6 1018   3.596   0.672   5.164 -0.9381  0.4721 -1.3780
   45DG      H7 1019   3.513   0.645   5.311  1.0564  0.9850  0.0963
   45DG      H8 1020   3.420   0.623   5.157 -0.2046  0.2134  0.1695
   45DG      O9 1021   3.833   0.673   5.005  0.1629  0.5600  0.3323
   45DG     O10 1022   3.454   0.813   5.220  0.1146  0.1621  0.0177
   45DG     C11 1023   3.845   0.774   4.900  0.3500 -0.9206 -0.0847
   45DG     C12 1024   3.432   0.884   5.096 -0.0739 -0.2880  0.4193
   45DG     H13 1025   3.799   0.742   4.807 -1.5134 -0.3493  0.5920
   45DG     H14 1026   3.948   0.803   4.880  0.2262 -0.8990 -0.6994
   45DG     H15 1027   3.371   0.970   5.124  1.2457  1.6231 -2.1418
   45DG     H16 1028   3.377   0.838   5.015 -1.2446  0.4445  0.7723
   45DG     C17 1029   3.774   0.899   4.952 -0.1900 -0.3740 -0.1362
   45DG     C18 1030   3.557   0.947   5.042  0.3547  0.2425  0.2605
   45DG     O19 1031   3.644   0.857   4.976  0.1822 -0.3014 -0.7453
   45DG     H20 1032   3.773   0.979   4.878  1.1107 -1.2327 -1.1240
   45DG     H21 1033   3.833   0.938   5.035 -2.2926  0.7347  0.9108
   45DG     H22 1034   3.526   1.024   4.971 -2.0884 -1.0343 -0.1652
   45DG     H23 1035   3.613   1.000   5.119  0.8672  1.7316 -1.0882
   46DG      C1 1036   1.658   3.038   1.334 -0.2713  0.3366  1.0394
   46DG      C2 1037   1.120   2.707   1.792 -0.3449  0.1487 -0.0377
   46DG      H3 1038   1.632   3.131   1.283 -0.7625 -0.2348  0.2414
   46DG      H4 1039   1.660   2.966   1.253 -1.0824 -0.1407  1.4374
   46DG      H5 1040   1.766   3.049   1.350  0.1407  1.2371 -1.7878
   46DG      H6 1041   1.078   2.614   1.755  2.1445 -1.0724 -0.0337
   46DG      H7 1042   1.193   2.690   1.871 -1.3065 -1.0502  0.6104
   46DG      H8 1043   1.043   2.767   1.840 -0.8645  1.1725 -2.0550
   46DG      O9 1044   1.568   2.998   1.441  0.3753 -0.3812  0.6706
   46DG     O10 1045   1.179   2.793   1.686 -0.3468 -0.1470 -0.0699
   46DG     C11 1046   1.576   3.102   1.543  0.7284 -0.0277 -0.9004
   46DG     C12 1047   1.233   2.919   1.734 -0.1629  0.8498  1.0809
   46DG     H13 1048   1.546   3.200   1.506 -2.2442 -1.2724 -2.0965
   46DG     H14 1049   1.683   3.104   1.565  0.6034 -0.5302 -0.2081
   46DG     H15 1050   1.317   2.904   1.802  1.2630  4.6179  0.4052
   46DG     H16 1051   1.165   2.981   1.792 -1.2302 -0.6304  1.4895
   46DG     C17 1052   1.485   3.072   1.664  0.0899  0.1433  0.1054
   46DG     C18 1053   1.270   2.999   1.607 -0.0369  0.3274  0.4574
   46DG     O19 1054   1.352   3.108   1.640 -0.2294  0.3724 -0.1010
   46DG     H20 1055   1.528   3.124   1.750  0.3651 -0.8389  0.5712
   46DG     H21 1056   1.495   2.968   1.695  2.3153 -0.6754 -2.9184
   46DG     H22 1057   1.327   2.935   1.539 -0.6920 -1.1700  1.2542
   46DG     H23 1058   1.179   3.030   1.555  0.8341  0.5664 -0.9885
   47DG      C1 1059   2.696   2.003   4.740 -0.1979  0.2781 -0.8889
   47DG      C2 1060   2.223   2.434   4.239 -0.5725  0.8827 -0.3903
   47DG      H3 1061   2.657   1.937   4.817 -0.9214  0.4501 -1.1041
   47DG      H4 1062   2.669   2.107   4.760 -2.1955 -0.6409  1.6690
   47DG      H5 1063   2.803   1.984   4.730 -0.2242 -0.9143  0.7346
   47DG      H6 1064   2.121   2.411   4.269 -0.3235  3.2465  2.8387
   47DG      H7 1065   2.238   2.536   4.276 -1.6495  0.6247  0.8253
   47DG      H8 1066   2.222   2.406   4.133 -2.1203 -3.6912  0.6199
   47DG      O9 1067   2.631   1.973   4.610 -0.5263  0.3670  0.0219
   47DG     O10 1068   2.294   2.344   4.326  0.3193 -0.5323  0.7560
   47DG     C11 1069   2.488   1.967   4.621  0.4727 -0.5256  0.1006
   47DG     C12 1070   2.419   2.302   4.272  0.1976 -0.1378  0.0216
   47DG     H13 1071   2.457   2.049   4.685  0.6467 -1.1119  0.9445
   47DG     H14 1072   2.446   1.873   4.656  0.1271 -0.8303 -1.0671
   47DG     H15 1073   2.501   2.369   4.301 -1.0541  0.8520  1.4636
   47DG     H16 1074   2.415   2.317   4.164  0.9639  0.9870  0.1217
   47DG     C17 1075   2.427   2.005   4.488 -0.4251 -0.6170  0.2133
   47DG     C18 1076   2.452   2.156   4.313  0.4223  0.3646 -0.2766
   47DG     O19 1077   2.452   2.136   4.453 -0.0643  0.1755 -0.6319
   47DG     H20 1078   2.320   2.007   4.511 -0.2806  0.7171  0.9042
   47DG     H21 1079   2.446   1.938   4.405  3.4394 -1.6259  1.6894
   47DG     H22 1080   2.377   2.099   4.258  2.4097 -3.5221  0.7278
   47DG     H23 1081   2.552   2.142   4.272  0.5539 -0.0087  0.1695
   48DG      C1 1082   2.128   3.685   4.225 -0.1328  0.5950  0.1674
   48DG      C2 1083   1.465   3.633   4.353 -0.4195 -0.4097 -0.3770
   48DG      H3 1084   2.077   3.752   4.156 -1.0775  2.2910  2.3995
   48DG      H4 1085   2.221   3.648   4.182 -0.6619  1.7002 -2.1311
   48DG      H5 1086   2.145   3.764   4.297  1.3359 -0.0564  0.5734
   48DG      H6 1087   1.482   3.703   4.434 -0.8030 -2.6464  1.7586
   48DG      H7 1088   1.451   3.690   4.261 -0.8696 -1.3480 -0.9149
   48DG      H8 1089   1.371   3.578   4.361 -0.3719 -0.5770 -0.9020
   48DG      O9 1090   2.031   3.587   4.264 -0.5757  0.1722 -0.0870
   48DG     O10 1091   1.583   3.547   4.353  0.5992  0.2268 -0.2620
   48DG     C11 1092   2.052   3.540   4.400 -0.2122  0.3813 -0.7352
   48DG     C12 1093   1.604   3.470   4.463  0.7663  0.0564 -0.2065
   48DG     H13 1094   2.040   3.630   4.461 -1.4187  1.0345 -1.8695
   48DG     H14 1095   2.155   3.507   4.416 -0.4902 -0.2361 -0.1788
   48DG     H15 1096   1.518   3.413   4.499  1.9940 -0.6281  1.8244
   48DG     H16 1097   1.625   3.535   4.548 -0.8016  1.1394 -0.6077
   48DG     C17 1098   1.962   3.421   4.443  0.1194  0.5146  0.6578
   48DG     C18 1099   1.725   3.383   4.448 -0.9691 -0.7492  1.1277
   48DG     O19 1100   1.831   3.475   4.436  0.2848  0.4930 -0.2380
   48DG     H20 1101   1.976   3.382   4.544 -2.2875  0.9379  1.2180
   48DG     H21 1102   1.975   3.352   4.360  0.4797  1.6449 -0.2496
   48DG     H22 1103   1.745   3.306   4.522 -0.6229 -0.8001  0.9791
   48DG     H23 1104   1.736   3.341   4.348  0.3750 -3.0303  2.1568
   49DG      C1 1105   3.037   4.080   2.015  0.0033  0.2183  0.3344
   49DG      C2 1106   2.747   3.569   2.302  0.3368 -0.1943  0.4035
   49DG      H3 1107   3.092   4.171   1.991 -1.3056  1.2191  1.0296
   49DG      H4 1108   2.933   4.108   2.032 -0.6245 -0.2696 -2.2591
   49DG      H5 1109   3.045   4.024   1.922 -0.3252  1.9922 -0.8182
   49DG      H6 1110   2.744   3.502   2.389 -1.5788 -0.3813  0.2310
   49DG      H7 1111   2.656   3.628   2.299  0.3005 -0.2622  0.1092
   49DG      H8 1112   2.746   3.504   2.214  1.2977 -2.4527  1.9491
   49DG      O9 1113   3.093   4.022   2.129 -0.9875 -0.0053  0.2016
   49DG     O10 1114   2.866   3.653   2.306  0.9854 -0.0330 -0.2619
   49DG     C11 1115   3.070   4.089   2.255 -0.4830  0.4521  0.1933
   49DG     C12 1116   2.876   3.707   2.439 -0.2439 -0.1943 -0.1298
   49DG     H13 1117   2.969   4.130   2.251  0.0537  1.7659 -0.4573
   49DG     H14 1118   3.145   4.166   2.270 -0.2385  0.3307 -0.3810
   49DG     H15 1119   2.897   3.622   2.503  0.7513 -0.5349 -0.8722
   49DG     H16 1120   2.779   3.752   2.459 -0.1572  0.1041 -0.3604
   49DG     C17 1121   3.079   3.989   2.370 -1.0542 -0.3934 -0.4832
   49DG     C18 1122   2.984   3.803   2.458 -0.1457 -0.4300 -0.9967
   49DG     O19 1123   2.989   3.886   2.349  0.2778  0.3540  0.2258
   49DG     H20 1124   3.069   4.038   2.467  2.4489 -0.7347  0.1898
   49DG     H21 1125   3.175   3.937   2.373 -0.5057  0.5693 -0.6298
   49DG     H22 1126   2.977   3.852   2.556  0.3703 -0.1115 -1.1163
   49DG     H23 1127   3.075   3.744   2.459 -0.5381 -1.0901  0.9110
   50DG      C1 1128   5.239   3.618   0.170  0.0680 -1.1723  0.7057
   50DG      C2 1129   4.656   3.607  -0.181 -0.1714 -0.0310  0.8985
   50DG      H3 1130   5.308   3.679   0.228  0.6790 -0.4993 -0.6613
   50DG      H4 1131   5.291   3.558   0.095 -0.2077  2.5169 -2.8076
   50DG      H5 1132   5.182   3.543   0.225  0.8219 -0.1040  3.0556
   50DG      H6 1133   4.697   3.570  -0.275  0.2790  0.8927  0.7181
   50DG      H7 1134   4.617   3.533  -0.111  0.2296 -1.9243 -0.7866
   50DG      H8 1135   4.562   3.658  -0.204  0.7861  1.6742  0.6272
   50DG      O9 1136   5.154   3.707   0.094  0.1381  0.3100 -0.1221
   50DG     O10 1137   4.750   3.687  -0.112 -0.4148  1.0008 -0.6975
   50DG     C11 1138   5.225   3.794   0.006 -0.3942  0.5381 -0.1707
   50DG     C12 1139   4.792   3.799  -0.188 -0.6683 -0.2971 -0.4933
   50DG     H13 1140   5.299   3.741  -0.055 -0.7230  1.0236 -1.0214
   50DG     H14 1141   5.293   3.858   0.061  0.5218  0.3208 -0.9978
   50DG     H15 1142   4.700   3.855  -0.206  0.4958  2.0738  0.5092
   50DG     H16 1143   4.833   3.766  -0.284  2.3432 -2.1325  1.2740
   50DG     C17 1144   5.124   3.880  -0.074 -0.4579  0.3111 -0.5799
   50DG     C18 1145   4.902   3.885  -0.132  0.3385 -0.5616  0.2170
   50DG     O19 1146   5.015   3.804  -0.118  0.5642 -0.1665  0.2231
   50DG     H20 1147   5.165   3.930  -0.161 -0.6176  1.6393  0.0739
   50DG     H21 1148   5.099   3.963  -0.008 -1.0575 -1.2020  1.2093
   50DG     H22 1149   4.905   3.975  -0.194 -1.4390 -0.3164  0.4382
   50DG     H23 1150   4.868   3.908  -0.031  1.1722 -0.5777  0.5065
   51DG      C1 1151   3.331   4.037   5.183  0.3605 -0.1810  0.5847
   51DG      C2 1152   3.593   4.622   5.461 -0.0055  0.5908  0.6578
   51DG      H3 1153   3.308   3.989   5.089  2.3201 -0.2638  0.0989
   51DG      H4 1154   3.256   4.116   5.188 -0.6978 -1.1795  0.8141
   51DG      H5 1155   3.310   3.965   5.262  1.9545  0.2617  1.4771
   51DG      H6 1156   3.525   4.676   5.396  2.1496  2.0508 -0.4965
   51DG      H7 1157   3.548   4.573   5.547 -0.6533 -0.5631 -0.2983
   51DG      H8 1158   3.675   4.685   5.495  0.2398  0.0385  1.1004
   51DG      O9 1159   3.458   4.093   5.179  0.3574  0.0835 -0.2192
   51DG     O10 1160   3.635   4.507   5.390  0.1893 -0.3987  0.1009
   51DG     C11 1161   3.481   4.170   5.063 -0.0707 -0.1760  0.1826
   51DG     C12 1162   3.717   4.539   5.279 -0.1009  0.1848 -0.3770
   51DG     H13 1163   3.409   4.251   5.052  0.1871  0.0158 -0.0677
   51DG     H14 1164   3.472   4.099   4.981 -0.7923 -0.0364  0.1320
   51DG     H15 1165   3.812   4.586   5.306 -0.4895  1.3848 -1.0437
   51DG     H16 1166   3.661   4.620   5.231  0.1983  0.9458  0.5292
   51DG     C17 1167   3.618   4.233   5.073  0.2289 -0.2555 -0.2741
   51DG     C18 1168   3.733   4.419   5.188  0.1545  0.7332  0.6557
   51DG     O19 1169   3.620   4.332   5.177 -0.5078  0.1081 -0.2067
   51DG     H20 1170   3.639   4.287   4.981  1.4246 -0.4013 -0.0927
   51DG     H21 1171   3.691   4.155   5.091  0.3765 -0.0112  0.2187
   51DG     H22 1172   3.753   4.470   5.094  1.7488  0.4732  0.8170
   51DG     H23 1173   3.825   4.366   5.213 -1.0879 -2.1557 -0.5147
   52DG      C1 1174   0.333   0.108   3.440 -0.1434  0.7231  0.0216
   52DG      C2 1175   0.576  -0.574   3.357 -0.4289 -0.9907  0.0272
   52DG      H3 1176   0.387   0.135   3.531 -0.0083 -0.6645  0.3822
   52DG      H4 1177   0.253   0.180   3.425  1.4994  2.6225 -0.0055
   52DG      H5 1178   0.391   0.111   3.348 -0.0915 -2.9166 -0.2107
   52DG      H6 1179   0.516  -0.662   3.336 -0.6636 -0.3735 -2.1031
   52DG      H7 1180   0.675  -0.587   3.312 -0.0829  0.9591  0.1169
   52DG      H8 1181   0.590  -0.572   3.465 -1.4771 -0.4483  0.1709
   52DG      O9 1182   0.277  -0.019   3.478 -0.3537 -0.8362 -0.2543
   52DG     O10 1183   0.511  -0.453   3.326  0.2844  0.1468  0.5512
   52DG     C11 1184   0.210  -0.090   3.376 -0.3210  0.2809  0.2443
   52DG     C12 1185   0.600  -0.359   3.302  0.1123 -1.1278  0.4899
   52DG     H13 1186   0.120  -0.033   3.356 -1.3903 -1.5184 -0.3009
   52DG     H14 1187   0.177  -0.179   3.431 -1.4213  0.2811 -0.3955
   52DG     H15 1188   0.683  -0.386   3.235  2.1712  2.5879  1.2375
   52DG     H16 1189   0.655  -0.308   3.381  1.2139  2.0235 -2.0743
   52DG     C17 1190   0.304  -0.146   3.274 -0.3098 -0.2827 -0.3580
   52DG     C18 1191   0.503  -0.251   3.244 -1.0602  0.2045 -0.3723
   52DG     O19 1192   0.410  -0.209   3.343 -0.0741  0.6470  0.0005
   52DG     H20 1193   0.343  -0.070   3.206  1.3131  0.0930  0.9402
   52DG     H21 1194   0.248  -0.222   3.220 -0.6818 -1.4396  1.5458
   52DG     H22 1195   0.557  -0.163   3.209  2.3731 -2.5402 -2.6986
   52DG     H23 1196   0.447  -0.292   3.160  0.5683 -0.9654 -0.9317
   53DG      C1 1197   3.786   0.231   1.273  0.6914  0.3272 -0.2949
   53DG      C2 1198   4.400   0.438   1.433  0.2888 -0.4185 -1.2675
   53DG      H3 1199   3.759   0.172   1.185  1.0699  1.3635 -1.1288
   53DG      H4 1200   3.766   0.336   1.250 -0.4190  0.3607  0.7229
   53DG      H5 1201   3.709   0.199   1.343  0.3839 -2.6288 -1.8310
   53DG      H6 1202   4.348   0.530   1.406  0.3068 -1.1515 -4.1487
   53DG      H7 1203   4.438   0.463   1.532  0.0192  1.4956 -1.6059
   53DG      H8 1204   4.489   0.438   1.370  1.1393 -1.6979 -0.1285
   53DG      O9 1205   3.912   0.205   1.333 -0.1503 -0.1498 -0.0406
   53DG     O10 1206   4.316   0.330   1.437  0.0210  0.4861 -0.1363
   53DG     C11 1207   3.931   0.067   1.367 -0.9360 -0.8391  0.2263
   53DG     C12 1208   4.366   0.219   1.502  0.6434  0.0861  0.0520
   53DG     H13 1209   3.886   0.016   1.282 -1.6885  1.1425 -0.6251
   53DG     H14 1210   3.887   0.031   1.460 -0.6833 -2.2670 -0.1872
   53DG     H15 1211   4.348   0.235   1.609 -1.6547 -0.8662 -0.1416
   53DG     H16 1212   4.471   0.197   1.484  1.1702  1.4400  1.2551
   53DG     C17 1213   4.078   0.032   1.366 -0.1570 -0.0324  0.1904
   53DG     C18 1214   4.286   0.099   1.459 -0.1443  0.6986 -0.4918
   53DG     O19 1215   4.147   0.118   1.444 -0.0857  0.0842 -0.1026
   53DG     H20 1216   4.121   0.028   1.266 -0.5624 -0.8868  0.0443
   53DG     H21 1217   4.093  -0.067   1.409 -2.5091 -0.2949  0.5351
   53DG     H22 1218   4.330   0.072   1.363 -1.5901  0.0003 -0.9918
   53DG     H23 1219   4.327   0.025   1.528  0.4716 -0.9487 -2.5058
   54DG      C1 1220   1.838   5.106   3.948 -1.4493  0.1077 -0.2590
   54DG      C2 1221   1.562   5.263   3.354  0.5090  0.4938  0.1836
   54DG      H3 1222   1.871   5.040   4.029 -0.4630 -1.1648 -1.6380
   54DG      H4 1223   1.850   5.201   4.000 -0.3906 -0.2498  0.1969
   54DG      H5 1224   1.911   5.096   3.867  2.2993  0.0760  2.8016
   54DG      H6 1225   1.605   5.174   3.308  0.0175 -0.2752  1.1821
   54DG      H7 1226   1.483   5.297   3.287 -0.1327 -0.2355  0.5543
   54DG      H8 1227   1.641   5.338   3.349  3.1973 -2.2025 -0.0865
   54DG      O9 1228   1.707   5.101   3.911  0.3773  0.2315 -0.1261
   54DG     O10 1229   1.509   5.225   3.482 -0.0890 -0.2750  0.7328
   54DG     C11 1230   1.661   4.973   3.872 -0.6204  0.1839 -0.1070
   54DG     C12 1231   1.430   5.114   3.479  0.2263  0.5390  0.0737
   54DG     H13 1232   1.665   4.904   3.956 -0.1060 -0.3913 -0.5979
   54DG     H14 1233   1.723   4.938   3.790  0.7569  1.9746  0.1207
   54DG     H15 1234   1.479   5.036   3.420 -1.2980 -0.5306  0.1577
   54DG     H16 1235   1.341   5.130   3.419 -0.4448 -1.2089  0.5315
   54DG     C17 1236   1.523   4.985   3.814 -0.1243  0.2171 -0.0868
   54DG     C18 1237   1.397   5.071   3.628 -0.6337  0.1732  0.1311
   54DG     O19 1238   1.525   5.053   3.692 -0.5815 -0.5903  0.0231
   54DG     H20 1239   1.463   5.050   3.879 -0.9600 -0.9182  0.3239
   54DG     H21 1240   1.479   4.885   3.807 -0.1766  0.2158  0.2250
   54DG     H22 1241   1.345   5.153   3.679 -0.8891  0.4796 -0.6034
   54DG     H23 1242   1.346   4.974   3.630  1.8625 -1.2142  0.3247
   55DG      C1 1243   4.835   2.078   1.081 -0.2823 -0.5414 -0.1977
   55DG      C2 1244   4.948   2.334   0.476  0.0613 -0.5367 -0.1797
   55DG      H3 1245   4.741   2.076   1.027 -1.7001  0.4303  2.0944
   55DG      H4 1246   4.823   2.131   1.176 -1.2694 -1.9550  0.4977
   55DG      H5 1247   4.856   1.973   1.098 -0.6975 -1.0380 -2.4305
   55DG      H6 1248   5.027   2.363   0.407  1.1492  1.9204  1.9378
   55DG      H7 1249   4.885   2.254   0.438 -0.1686 -1.1514  1.4294
   55DG      H8 1250   4.883   2.420   0.495  0.3515 -0.5748  1.0932
   55DG      O9 1251   4.940   2.126   0.998  0.3420  0.2437  0.0261
   55DG     O10 1252   5.016   2.295   0.591 -0.0487  0.2343  0.0522
   55DG     C11 1253   5.062   2.154   1.067  0.3621  0.8474 -0.3285
   55DG     C12 1254   5.086   2.401   0.659 -0.3076  0.3339  0.5951
   55DG     H13 1255   5.099   2.057   1.100  1.1042  1.2094 -0.0754
   55DG     H14 1256   5.061   2.215   1.157  1.1671 -1.7953  1.5787
   55DG     H15 1257   5.016   2.477   0.692 -1.0274 -0.0765  0.0198
   55DG     H16 1258   5.163   2.445   0.596 -0.8721  0.6019  0.0862
   55DG     C17 1259   5.162   2.220   0.963  0.2636 -0.0023  0.2308
   55DG     C18 1260   5.168   2.346   0.769  0.1008 -0.3639  0.1683
   55DG     O19 1261   5.086   2.288   0.862  0.6380 -0.3162  0.0797
   55DG     H20 1262   5.228   2.148   0.915 -0.1352 -0.7022  0.7172
   55DG     H21 1263   5.220   2.291   1.022  2.1448 -1.2429 -0.0373
   55DG     H22 1264   5.251   2.279   0.743  0.7421  0.5471 -0.1712
   55DG     H23 1265   5.213   2.423   0.832 -0.6610 -0.1704  0.4898
   56DG      C1 1266   1.390   3.567   1.602 -0.1818  0.5269 -0.1079
   56DG      C2 1267   0.682   3.690   1.685  0.4217  0.3152  0.0796
   56DG      H3 1268   1.423   3.610   1.507 -0.4452 -2.7359 -1.8456
   56DG      H4 1269   1.451   3.477   1.606 -2.0363 -0.8494 -1.3072
   56DG      H5 1270   1.418   3.631   1.686 -1.8978  1.0890  0.0697
   56DG      H6 1271   0.685   3.746   1.778 -0.4949 -0.1944  0.4266
   56DG      H7 1272   0.713   3.755   1.603 -0.1166  0.3525 -0.0998
   56DG      H8 1273   0.584   3.644   1.672  0.2044  0.8646 -0.2431
   56DG      O9 1274   1.255   3.534   1.609 -0.0018 -0.2378 -0.2635
   56DG     O10 1275   0.772   3.577   1.708  0.4100 -0.0033  0.1771
   56DG     C11 1276   1.227   3.450   1.502  0.0532  0.3979 -0.3570
   56DG     C12 1277   0.757   3.478   1.615  0.3950  0.0430  0.3639
   56DG     H13 1278   1.297   3.372   1.473  0.1670  0.7693 -1.1085
   56DG     H14 1279   1.219   3.510   1.411 -3.3825 -0.1426 -0.5374
   56DG     H15 1280   0.752   3.531   1.519  2.0110  0.3278  0.4047
   56DG     H16 1281   0.668   3.421   1.636 -0.9936  2.4622  1.4835
   56DG     C17 1282   1.095   3.380   1.527 -0.1210 -0.1158 -0.6356
   56DG     C18 1283   0.869   3.377   1.596  0.6205 -0.2737  0.0442
   56DG     O19 1284   0.988   3.455   1.575  0.2923 -0.3306 -0.3251
   56DG     H20 1285   1.116   3.303   1.601  2.4166 -0.2325 -1.3868
   56DG     H21 1286   1.066   3.323   1.439 -2.8816  0.1846 -0.0138
   56DG     H22 1287   0.877   3.309   1.681 -1.4657 -1.5665 -0.7001
   56DG     H23 1288   0.852   3.313   1.510  0.7893  1.9455 -1.7240
   57DG      C1 1289   3.752   1.195   3.405  0.0678  0.2310 -0.3910
   57DG      C2 1290   3.865   0.733   3.679  0.5100  0.1777 -0.3190
   57DG      H3 1291   3.719   1.140   3.492  0.2241  1.5031  0.4926
   57DG      H4 1292   3.813   1.135   3.337 -0.2057 -0.4257 -0.0550
   57DG      H5 1293   3.664   1.210   3.342 -1.5792 -0.5659  1.6361
   57DG      H6 1294   3.756   0.729   3.683  0.5454  0.1786  0.8488
   57DG      H7 1295   3.900   0.710   3.578  3.1020 -0.1034  0.5752
   57DG      H8 1296   3.902   0.645   3.732 -1.0439  0.8077  1.9632
   57DG      O9 1297   3.807   1.324   3.444  0.0807 -0.9057 -0.4292
   57DG     O10 1298   3.908   0.867   3.696 -0.7665 -0.1828 -0.2023
   57DG     C11 1299   3.940   1.317   3.485 -1.0437  0.4094 -0.0417
   57DG     C12 1300   3.817   0.948   3.770 -0.3115  0.1082 -0.4271
   57DG     H13 1301   3.972   1.421   3.472  1.9794 -0.5533 -1.1503
   57DG     H14 1302   4.008   1.264   3.419 -1.7742 -0.8654  0.1998
   57DG     H15 1303   3.813   0.910   3.873  1.1326 -2.0707 -1.0903
   57DG     H16 1304   3.719   0.961   3.725  0.0645  0.8434 -1.0525
   57DG     C17 1305   3.943   1.269   3.623  0.9667 -0.1754 -0.6168
   57DG     C18 1306   3.874   1.087   3.769  0.3381 -0.4292  0.7518
   57DG     O19 1307   3.911   1.133   3.641 -0.4211  0.3420 -0.2585
   57DG     H20 1308   3.867   1.324   3.678  1.4422 -1.9386  1.9826
   57DG     H21 1309   4.025   1.300   3.687  1.6487 -2.1864 -0.4413
   57DG     H22 1310   3.799   1.157   3.806  0.9066 -0.3080  1.7203
   57DG     H23 1311   3.960   1.090   3.836  0.4252  0.8841  0.5981
   58DG      C1 1312   3.038   4.248   4.097 -0.2178 -0.4171  0.2318
   58DG      C2 1313   3.258   3.625   3.945 -0.0780  0.5407  0.2333
   58DG      H3 1314   2.948   4.204   4.054  0.9295 -0.9414 -1.7874
   58DG      H4 1315   3.090   4.313   4.027  1.1934 -1.3673  0.3605
   58DG      H5 1316   3.000   4.310   4.178  0.6633  0.6036 -0.1029
   58DG      H6 1317   3.315   3.534   3.963  0.9509  0.9042 -1.0401
   58DG      H7 1318   3.151   3.603   3.941  0.0396 -0.4757  1.8033
   58DG      H8 1319   3.298   3.667   3.852 -0.3693 -0.7975 -0.5266
   58DG      O9 1320   3.115   4.141   4.140 -0.3576  0.3512 -0.4739
   58DG     O10 1321   3.277   3.719   4.056 -0.6560  0.3751 -0.3244
   58DG     C11 1322   3.233   4.180   4.196 -0.6646  0.6804 -0.1806
   58DG     C12 1323   3.416   3.752   4.086  0.6488 -0.4309 -0.1374
   58DG     H13 1324   3.223   4.260   4.270  1.6786  0.8246  0.0574
   58DG     H14 1325   3.294   4.215   4.113  0.9297  0.2548  0.7671
   58DG     H15 1326   3.469   3.800   4.004  0.1261  0.0477 -0.2002
   58DG     H16 1327   3.450   3.653   4.116 -4.9400 -2.8080 -0.4146
   58DG     C17 1328   3.310   4.057   4.258  0.3068 -0.6413  0.4599
   58DG     C18 1329   3.405   3.848   4.203  0.1990 -0.0366 -0.0892
   58DG     O19 1330   3.317   3.950   4.166 -0.2215  0.3396 -0.0794
   58DG     H20 1331   3.249   4.031   4.345 -0.2124 -1.2799 -0.0811
   58DG     H21 1332   3.410   4.093   4.283  0.8822 -0.4826 -1.8387
   58DG     H22 1333   3.376   3.798   4.296  1.0287 -0.5254 -0.0808
   58DG     H23 1334   3.507   3.882   4.220  0.2086  0.1973 -0.6001
   59DG      C1 1335   2.249   3.750   0.190 -0.2969 -0.5845  0.4473
   59DG      C2 1336   2.103   4.473   0.216 -0.4370 -1.1045 -0.4005
   59DG      H3 1337   2.226   3.758   0.084 -0.3091  0.1622  0.4962
   59DG      H4 1338   2.158   3.721   0.242 -1.5499  2.7623  0.3390
   59DG      H5 1339   2.327   3.674   0.189 -1.1722 -1.5704 -2.4961
   59DG      H6 1340   2.161   4.549   0.269  0.6537 -2.6152  0.6726
   59DG      H7 1341   2.079   4.500   0.113  0.5399  0.1242 -0.3277
   59DG      H8 1342   2.011   4.472   0.274  0.5752  0.5036  1.3505
   59DG      O9 1343   2.297   3.870   0.254  0.6537  0.5424  0.2058
   59DG     O10 1344   2.170   4.346   0.232 -0.6400  0.3958 -0.0796
   59DG     C11 1345   2.434   3.898   0.225 -0.5087  0.0682 -0.7132
   59DG     C12 1346   2.283   4.328   0.153 -0.3047 -0.2075 -0.3463
   59DG     H13 1347   2.448   3.904   0.117 -0.3412  1.1209 -0.6382
   59DG     H14 1348   2.501   3.828   0.275 -1.1881  0.2069  0.4288
   59DG     H15 1349   2.363   4.391   0.192  1.3198 -2.7436  0.6855
   59DG     H16 1350   2.264   4.357   0.050  0.1860  0.2715 -0.3056
   59DG     C17 1351   2.478   4.035   0.280  0.7316  0.6888  0.1561
   59DG     C18 1352   2.344   4.185   0.155  0.1316 -0.3890 -0.3514
   59DG     O19 1353   2.373   4.136   0.280  0.4856  0.1595 -0.1076
   59DG     H20 1354   2.565   4.070   0.225  1.8583  0.5630  1.7899
   59DG     H21 1355   2.503   4.021   0.385 -3.7764 -1.8155  1.1264
   59DG     H22 1356   2.281   4.118   0.095 -0.9299 -0.5651  0.9272
   59DG     H23 1357   2.443   4.188   0.110  0.6724 -0.8333  0.7674
   60DG      C1 1358   1.545   5.379   3.852  0.2097 -0.9252 -0.1303
   60DG      C2 1359   1.873   5.001   3.506  0.2560 -0.5233 -0.7435
   60DG      H3 1360   1.550   5.289   3.913 -2.6294  0.5029  2.4729
   60DG      H4 1361   1.467   5.377   3.775  1.0869 -0.0260 -1.0695
   60DG      H5 1362   1.519   5.451   3.929 -1.0889 -0.7919 -0.6584
   60DG      H6 1363   1.963   4.944   3.485 -0.9216 -2.1715 -1.5368
   60DG      H7 1364   1.817   4.958   3.589  1.1994  2.6053  1.7246
   60DG      H8 1365   1.800   5.002   3.426 -1.2308  0.0594  0.5628
   60DG      O9 1366   1.674   5.400   3.804  0.3045 -0.2023 -0.4380
   60DG     O10 1367   1.896   5.132   3.559  0.4920  0.0359 -0.0060
   60DG     C11 1368   1.697   5.516   3.735 -0.5059 -0.3843 -0.0926
   60DG     C12 1369   1.967   5.219   3.459 -0.4936  0.0320 -0.3598
   60DG     H13 1370   1.712   5.608   3.791  3.5776  0.1082 -1.6506
   60DG     H14 1371   1.622   5.530   3.657  1.1416  0.0236 -1.6792
   60DG     H15 1372   1.905   5.224   3.370 -0.8252  0.7738 -0.1035
   60DG     H16 1373   2.061   5.174   3.427 -1.0188 -1.3303 -0.0463
   60DG     C17 1374   1.831   5.509   3.661  0.1317  0.0670  0.5043
   60DG     C18 1375   1.978   5.362   3.525  0.2337  0.4363 -0.4094
   60DG     O19 1376   1.846   5.405   3.572 -0.2478  0.4797  0.2019
   60DG     H20 1377   1.917   5.506   3.728  0.4627  1.8379  0.2231
   60DG     H21 1378   1.842   5.608   3.615 -0.4615  0.0523  0.3282
   60DG     H22 1379   2.046   5.360   3.610  0.3963 -0.6359 -0.5537
   60DG     H23 1380   2.025   5.433   3.457  3.4064 -0.3260  0.8435
   61DG      C1 1381   4.001   1.606   4.650 -0.1218  0.5835 -0.1476
   61DG      C2 1382   3.310   1.775   4.573  0.6653  0.1005  0.3237
   61DG      H3 1383   3.956   1.704   4.638  2.1814  1.6841 -0.4647
   61DG      H4 1384   4.091   1.597   4.588 -2.0865 -1.0801 -2.9857
   61DG      H5 1385   4.032   1.595   4.754  2.6039  1.0407 -0.8157
   61DG      H6 1386   3.256   1.864   4.541 -2.0195 -0.9773  1.5684
   61DG      H7 1387   3.255   1.682   4.558  0.3373  0.2965  0.3108
   61DG      H8 1388   3.333   1.775   4.680  0.7335 -1.3857  0.3241
   61DG      O9 1389   3.902   1.518   4.605  0.0261 -0.1114 -0.3203
   61DG     O10 1390   3.423   1.753   4.492 -0.3358 -0.3922 -0.0731
   61DG     C11 1391   3.880   1.524   4.461 -0.5825 -0.0155 -0.8373
   61DG     C12 1392   3.518   1.851   4.500  0.7493  0.3919  0.1841
   61DG     H13 1393   3.804   1.450   4.435  0.1303 -1.2291  0.3996
   61DG     H14 1394   3.971   1.479   4.420  0.3572  0.5611  0.5283
   61DG     H15 1395   3.535   1.857   4.607  0.7032  0.0787  0.2110
   61DG     H16 1396   3.481   1.943   4.456  0.1340 -1.4226 -3.5719
   61DG     C17 1397   3.840   1.657   4.406 -0.2244  0.2951 -0.3618
   61DG     C18 1398   3.644   1.814   4.418  0.4108 -0.2799 -0.6029
   61DG     O19 1399   3.712   1.700   4.462 -0.1572 -0.1118 -0.2846
   61DG     H20 1400   3.829   1.637   4.299  1.1645 -0.5383 -0.3736
   61DG     H21 1401   3.908   1.740   4.425  1.0266 -0.9967  1.0406
   61DG     H22 1402   3.618   1.806   4.312 -2.2080 -1.0563  0.0199
   61DG     H23 1403   3.718   1.894   4.419  0.5474 -0.4079  0.1875
   62DG      C1 1404   2.161   0.189   2.579 -0.0223  0.9926  0.0613
   62DG      C2 1405   1.678   0.679   2.476 -0.5390 -0.3664 -0.2447
   62DG      H3 1406   2.135   0.153   2.479  0.0599  0.5852  0.1834
   62DG      H4 1407   2.157   0.111   2.655  0.3261  1.7797  0.9087
   62DG      H5 1408   2.268   0.203   2.567 -0.0867  1.5806  0.1505
   62DG      H6 1409   1.634   0.611   2.403  0.9034 -1.1158 -0.4679
   62DG      H7 1410   1.610   0.706   2.556  2.0665  1.0897  1.6249
   62DG      H8 1411   1.698   0.769   2.418 -0.9060  0.3051  0.6549
   62DG      O9 1412   2.090   0.303   2.619 -0.1823 -0.5253 -0.0191
   62DG     O10 1413   1.797   0.625   2.533  0.0051 -0.3110 -0.3977
   62DG     C11 1414   2.100   0.347   2.751  0.0073 -0.5811 -0.8619
   62DG     C12 1415   1.846   0.700   2.637  0.4885  0.8244 -0.2217
   62DG     H13 1416   2.204   0.362   2.782 -0.4978  0.9982  0.1776
   62DG     H14 1417   2.076   0.266   2.819  2.0344 -0.5161  0.0070
   62DG     H15 1418   1.796   0.657   2.724  0.6072  1.1228 -0.0025
   62DG     H16 1419   1.821   0.806   2.626  0.5367  0.7059 -1.5984
   62DG     C17 1420   2.024   0.473   2.760  0.6716 -0.3098 -0.3843
   62DG     C18 1421   2.003   0.693   2.644 -0.6070  0.6246  0.0356
   62DG     O19 1422   2.051   0.555   2.641  0.4116  0.2781  0.9815
   62DG     H20 1423   2.039   0.526   2.854 -0.7806  1.9268 -1.3298
   62DG     H21 1424   1.918   0.450   2.749  0.4887  1.2050 -2.4007
   62DG     H22 1425   2.040   0.749   2.558  0.3684 -0.8734 -0.5822
   62DG     H23 1426   2.035   0.757   2.725  0.4917  0.4535 -0.2460
   63DG      C1 1427   4.030   2.891   0.118  0.4689  0.5928  0.4480
   63DG      C2 1428   4.617   2.608  -0.370  0.3844  0.3419  0.4167
   63DG      H3 1429   3.958   2.963   0.158 -1.1468 -1.6348  1.7557
   63DG      H4 1430   4.128   2.925   0.153  0.1838  2.0405 -0.1072
   63DG      H5 1431   4.020   2.792   0.162  0.2734  0.3526 -0.1284
   63DG      H6 1432   4.648   2.511  -0.331  1.0767  0.2158 -0.4123
   63DG      H7 1433   4.651   2.607  -0.474 -0.0366 -0.6020  0.2724
   63DG      H8 1434   4.672   2.680  -0.310  1.3475 -0.5874  0.6971
   63DG      O9 1435   4.026   2.888  -0.026 -0.3388  0.1257 -0.4974
   63DG     O10 1436   4.480   2.634  -0.353 -0.7111  0.4358  0.0692
   63DG     C11 1437   4.145   2.837  -0.083 -0.6028 -0.0552  0.0192
   63DG     C12 1438   4.434   2.743  -0.431  0.2590 -0.0514 -0.1153
   63DG     H13 1439   4.161   2.737  -0.042 -0.8031  0.3948  1.2220
   63DG     H14 1440   4.235   2.896  -0.068 -0.3846 -0.3749 -0.0267
   63DG     H15 1441   4.460   2.712  -0.532  5.6760 -2.5152  1.6551
   63DG     H16 1442   4.499   2.826  -0.404  1.4120 -1.1321  0.5599
   63DG     C17 1443   4.133   2.823  -0.232 -0.1500  0.5619  0.1675
   63DG     C18 1444   4.286   2.768  -0.408 -0.0820  0.0957 -0.1928
   63DG     O19 1445   4.264   2.808  -0.278 -0.0667 -0.1286  0.3445
   63DG     H20 1446   4.070   2.891  -0.290 -0.1113 -0.7219 -1.4393
   63DG     H21 1447   4.079   2.731  -0.253 -1.3755  1.1502  0.6223
   63DG     H22 1448   4.251   2.850  -0.472  0.4912  0.3453 -0.1973
   63DG     H23 1449   4.233   2.676  -0.430  0.1924  0.1026 -0.9386
   64DG      C1 1450   3.100   4.706   4.234 -0.2781  0.5294  0.5052
   64DG      C2 1451   2.963   5.280   4.517 -0.5048  0.3118  0.1506
   64DG      H3 1452   3.149   4.640   4.305  3.0359  0.8067 -1.3027
   64DG      H4 1453   3.179   4.771   4.196 -0.9900  1.2437  0.2308
   64DG      H5 1454   3.059   4.651   4.149 -1.9042 -0.1198  1.6607
   64DG      H6 1455   3.065   5.293   4.479 -0.3110  0.5935  0.7464
   64DG      H7 1456   2.902   5.363   4.482  0.2504  0.5772 -0.5774
   64DG      H8 1457   2.981   5.304   4.622  0.9968  1.1289 -0.2583
   64DG      O9 1458   2.995   4.781   4.282 -0.5701  0.5193  0.0824
   64DG     O10 1459   2.913   5.152   4.498 -0.0931 -0.1651 -0.1582
   64DG     C11 1460   2.888   4.710   4.338 -0.3997  0.0941 -0.0672
   64DG     C12 1461   2.801   5.118   4.583 -0.1945 -0.6592  0.9871
   64DG     H13 1462   2.923   4.639   4.414 -1.9944 -1.2665 -0.5644
   64DG     H14 1463   2.840   4.647   4.264 -2.6608  1.6079  0.0055
   64DG     H15 1464   2.743   5.203   4.619  0.9220  1.6935 -2.2963
   64DG     H16 1465   2.839   5.075   4.676 -0.6892 -1.5848  0.7739
   64DG     C17 1466   2.784   4.792   4.415 -0.1897  0.5685 -0.1475
   64DG     C18 1467   2.738   5.006   4.505  0.4585  0.2421  0.0718
   64DG     O19 1468   2.840   4.913   4.469 -0.7087 -0.3471 -0.2549
   64DG     H20 1469   2.745   4.730   4.496 -0.1560 -0.1471 -0.6635
   64DG     H21 1470   2.702   4.811   4.345 -2.0576 -1.6585  1.2930
   64DG     H22 1471   2.666   4.958   4.573 -0.9582  0.3893 -1.2624
   64DG     H23 1472   2.680   5.045   4.422 -0.2956 -0.7715  0.0932
   65DG      C1 1473   1.127   5.461   0.538 -0.0628 -0.1172 -0.1966
   65DG      C2 1474   1.732   5.386   0.605 -0.0769  0.5283  0.1062
   65DG      H3 1475   1.057   5.479   0.619 -0.8988  1.9573 -1.3107
   65DG      H4 1476   1.069   5.403   0.466  0.9823  0.2316 -1.3736
   65DG      H5 1477   1.154   5.558   0.496  1.5289 -0.1034  0.7817
   65DG      H6 1478   1.655   5.309   0.591  0.0424  0.5786 -0.9110
   65DG      H7 1479   1.755   5.433   0.510 -2.4330  0.2518 -0.6727
   65DG      H8 1480   1.830   5.354   0.639 -0.2449  0.8590  0.9254
   65DG      O9 1481   1.252   5.402   0.586  0.1738 -0.0599  0.7791
   65DG     O10 1482   1.672   5.493   0.687 -0.1807 -0.2216 -0.3323
   65DG     C11 1483   1.230   5.296   0.672  0.4887 -0.0396 -0.4073
   65DG     C12 1484   1.652   5.472   0.827  0.4268 -0.4690  0.7738
   65DG     H13 1485   1.185   5.216   0.613 -0.2612 -0.1248  0.2546
   65DG     H14 1486   1.160   5.321   0.752  0.4497 -1.5997  0.0889
   65DG     H15 1487   1.616   5.566   0.868  1.7008 -1.1197  3.6695
   65DG     H16 1488   1.750   5.454   0.872  0.3734 -2.1772  0.2791
   65DG     C17 1489   1.369   5.253   0.740 -0.0727  0.1516  0.2320
   65DG     C18 1490   1.560   5.353   0.845  0.0937  0.3191  0.3700
   65DG     O19 1491   1.437   5.371   0.778 -0.3007  0.2647 -0.0590
   65DG     H20 1492   1.439   5.214   0.667 -0.3388  0.9315 -0.4603
   65DG     H21 1493   1.360   5.173   0.813 -0.7783  1.2461  1.4005
   65DG     H22 1494   1.606   5.264   0.802 -3.3684 -0.9703 -1.0981
   65DG     H23 1495   1.539   5.337   0.951 -2.1174 -0.4187 -0.1242
   66DG      C1 1496   3.635   0.336   0.800 -0.4060 -0.2354  0.2541
   66DG      C2 1497   4.048   0.498   0.339  0.0616  0.0842 -0.1518
   66DG      H3 1498   3.601   0.280   0.887  1.1840 -1.7099 -0.0037
   66DG      H4 1499   3.569   0.317   0.716  0.2536 -0.5655 -0.2018
   66DG      H5 1500   3.626   0.442   0.822  2.1302  0.4101 -1.4183
   66DG      H6 1501   3.965   0.496   0.269  1.3142 -0.6398 -1.6974
   66DG      H7 1502   4.059   0.604   0.361  0.4920 -0.1754  0.9829
   66DG      H8 1503   4.129   0.461   0.276  0.2724  1.0439 -0.4639
   66DG      O9 1504   3.775   0.308   0.774  0.7199 -0.1195 -0.5138
   66DG     O10 1505   4.038   0.428   0.459 -0.1696  0.5675  0.1848
   66DG     C11 1506   3.854   0.313   0.893 -0.3467 -0.0314  0.8996
   66DG     C12 1507   4.144   0.462   0.550 -0.7011 -0.6609  0.8734
   66DG     H13 1508   3.828   0.232   0.962 -1.1505 -1.1757 -0.6951
   66DG     H14 1509   3.851   0.409   0.945 -1.0737  1.0764 -1.0745
   66DG     H15 1510   4.136   0.563   0.589  3.5530 -0.0400  0.6048
   66DG     H16 1511   4.243   0.466   0.503 -1.4065 -0.2313 -0.6368
   66DG     C17 1512   3.997   0.288   0.844 -0.5233  0.2477  0.0345
   66DG     C18 1513   4.138   0.354   0.663 -0.2934 -0.0438  0.2615
   66DG     O19 1514   4.012   0.376   0.725 -0.1126  0.0892  0.0118
   66DG     H20 1515   4.008   0.183   0.819  0.5538  0.6807 -1.4204
   66DG     H21 1516   4.067   0.314   0.923  0.7638 -0.9969 -0.6571
   66DG     H22 1517   4.145   0.250   0.631 -1.1913  0.0069 -0.1224
   66DG     H23 1518   4.223   0.388   0.723  1.1021 -0.7310 -1.2301
   67DG      C1 1519   3.359   4.536   5.101  0.7641  0.0951 -0.5050
   67DG      C2 1520   3.355   4.011   5.540 -1.5135  0.1811 -0.3729
   67DG      H3 1521   3.335   4.504   4.999  0.6195 -0.5116 -0.2893
   67DG      H4 1522   3.462   4.571   5.109 -0.0452  2.4290  0.4489
   67DG      H5 1523   3.301   4.628   5.105  1.5150  0.5404  0.6460
   67DG      H6 1524   3.441   3.960   5.495 -0.9384 -1.1662  2.0957
   67DG      H7 1525   3.336   3.979   5.642 -2.3759  3.5838  0.6594
   67DG      H8 1526   3.263   3.983   5.488 -1.2557  1.2848 -1.4756
   67DG      O9 1527   3.324   4.456   5.214  0.3114 -0.2961  0.3111
   67DG     O10 1528   3.386   4.146   5.542  0.6918 -0.2919 -0.1421
   67DG     C11 1529   3.184   4.428   5.226  0.0076  0.3369  0.3147
   67DG     C12 1530   3.317   4.221   5.633 -0.4032 -0.4719  0.0508
   67DG     H13 1531   3.161   4.348   5.157  2.2424  0.7171 -0.9704
   67DG     H14 1532   3.116   4.509   5.201  0.5507  0.4700 -0.7660
   67DG     H15 1533   3.390   4.301   5.650 -1.1953  0.1591  0.6043
   67DG     H16 1534   3.300   4.180   5.733 -0.2529  1.0213  0.7285
   67DG     C17 1535   3.146   4.394   5.367 -0.4090 -0.4466  0.0188
   67DG     C18 1536   3.186   4.271   5.564  0.2715  0.4135 -0.7840
   67DG     O19 1537   3.221   4.300   5.427 -0.3907  0.5036  0.1991
   67DG     H20 1538   3.037   4.383   5.368 -0.5289  0.4225  2.4631
   67DG     H21 1539   3.161   4.488   5.421  3.4399 -0.0754 -1.4358
   67DG     H22 1540   3.108   4.195   5.572  0.5172 -0.0224 -2.2465
   67DG     H23 1541   3.149   4.345   5.635  0.2700 -1.0122  0.7785
   68DG      C1 1542   3.007   2.505   0.659  0.1361 -0.0142  0.1376
   68DG      C2 1543   2.370   2.572   0.833  0.4571 -0.4905 -0.6709
   68DG      H3 1544   3.104   2.455   0.662  1.2014  2.0027  1.4870
   68DG      H4 1545   3.017   2.608   0.691  2.8450  1.2956 -4.0616
   68DG      H5 1546   2.984   2.507   0.552  0.8836  1.2022 -0.0225
   68DG      H6 1547   2.275   2.559   0.884  0.1308 -0.5107 -1.2766
   68DG      H7 1548   2.415   2.670   0.849 -0.5579 -0.4157  2.0881
   68DG      H8 1549   2.349   2.580   0.726 -0.1239 -0.2109 -0.5345
   68DG      O9 1550   2.912   2.432   0.732 -0.1497  0.4062  0.4652
   68DG     O10 1551   2.474   2.483   0.862 -0.0950 -0.1901 -0.2693
   68DG     C11 1552   2.946   2.417   0.865  0.1874  0.0926  0.1417
   68DG     C12 1553   2.489   2.440   0.998  0.3027 -0.0695  0.4606
   68DG     H13 1554   2.952   2.518   0.906 -0.3723  0.5833 -0.9650
   68DG     H14 1555   3.043   2.367   0.877 -0.0703 -0.8613 -1.4741
   68DG     H15 1556   2.397   2.394   1.033  0.6543  0.4477  2.1494
   68DG     H16 1557   2.528   2.522   1.058  1.6145  0.7225 -1.3657
   68DG     C17 1558   2.841   2.335   0.947  0.1059 -0.5967  0.4371
   68DG     C18 1559   2.608   2.349   1.011 -0.2037  0.8494 -0.4608
   68DG     O19 1560   2.724   2.414   0.956  0.1388  0.1194  0.0843
   68DG     H20 1561   2.876   2.324   1.050  1.6291 -1.4512 -0.1411
   68DG     H21 1562   2.822   2.234   0.911 -0.5187 -0.6217  0.8232
   68DG     H22 1563   2.630   2.322   1.113  1.0546  0.0292 -0.9382
   68DG     H23 1564   2.587   2.255   0.961 -1.7106  1.5941 -1.3319
   69DG      C1 1565   4.280   1.203   1.550 -0.3628 -0.0019 -0.3394
   69DG      C2 1566   4.329   1.428   2.178 -0.4515  0.2910 -0.0883
   69DG      H3 1567   4.183   1.242   1.521 -0.5890 -0.8910 -0.8180
   69DG      H4 1568   4.276   1.111   1.608 -0.1071 -0.0185 -0.3481
   69DG      H5 1569   4.321   1.196   1.449 -0.3292  0.2945 -0.3484
   69DG      H6 1570   4.262   1.508   2.209 -1.7295 -0.8294  0.1648
   69DG      H7 1571   4.278   1.333   2.195  1.2997 -0.5048  1.0009
   69DG      H8 1572   4.419   1.414   2.238 -1.3540 -1.0394  1.0228
   69DG      O9 1573   4.343   1.294   1.629 -0.0174  0.7645 -0.3664
   69DG     O10 1574   4.357   1.457   2.043  0.0342 -0.3600  0.1758
   69DG     C11 1575   4.347   1.420   1.561 -0.2807  0.6055 -0.1451
   69DG     C12 1576   4.313   1.586   2.001 -0.5268 -0.8766  0.8193
   69DG     H13 1577   4.247   1.458   1.537 -0.2596  1.6116  1.1950
   69DG     H14 1578   4.413   1.429   1.475  2.4388  1.1588  1.8599
   69DG     H15 1579   4.366   1.660   2.061  2.2301  1.0398 -3.5076
   69DG     H16 1580   4.205   1.597   2.011 -0.4045  0.7383  0.6217
   69DG     C17 1581   4.400   1.524   1.660  0.0509  0.1824  0.1885
   69DG     C18 1582   4.369   1.619   1.869  0.1603  0.0430  0.1855
   69DG     O19 1583   4.324   1.517   1.785  0.3030 -0.4911  0.0037
   69DG     H20 1584   4.396   1.626   1.620  0.1092  0.7840  1.6470
   69DG     H21 1585   4.507   1.508   1.674  0.3326 -0.7458 -2.4786
   69DG     H22 1586   4.343   1.720   1.838  1.1201 -0.1387 -1.2696
   69DG     H23 1587   4.477   1.612   1.872  0.2072 -0.0877 -1.1688
   70DG      C1 1588   1.459   2.548   2.260 -0.0648 -0.2097  0.5656
   70DG      C2 1589   0.800   2.713   2.184  0.6901 -0.3334  0.0699
   70DG      H3 1590   1.524   2.532   2.174  0.2842  0.0967  0.7699
   70DG      H4 1591   1.411   2.451   2.276  0.2246 -0.2579  1.1889
   70DG      H5 1592   1.501   2.587   2.353  0.2361 -1.2134  0.8643
   70DG      H6 1593   0.804   2.604   2.182 -2.5396 -0.5748 -3.0223
   70DG      H7 1594   0.754   2.729   2.282 -0.6776  1.4920 -0.8111
   70DG      H8 1595   0.729   2.747   2.108  0.4205  2.2431  1.3596
   70DG      O9 1596   1.357   2.645   2.216  0.8914  0.1252  0.6074
   70DG     O10 1597   0.935   2.771   2.165  0.5549 -0.4613 -0.2184
   70DG     C11 1598   1.408   2.782   2.210  0.1494 -0.2270  0.1676
   70DG     C12 1599   0.941   2.908   2.196  0.2803 -0.9564  0.0680
   70DG     H13 1600   1.504   2.779   2.158  0.3048  1.8477  0.2736
   70DG     H14 1601   1.437   2.823   2.306 -0.3780  1.6559 -0.4290
   70DG     H15 1602   0.931   2.911   2.304 -0.8490 -1.4229 -0.0082
   70DG     H16 1603   0.861   2.969   2.154  0.8223  0.9023  1.5955
   70DG     C17 1604   1.306   2.868   2.130  0.4789  0.4520 -0.4081
   70DG     C18 1605   1.089   2.952   2.152  0.2174  0.1410 -0.5482
   70DG     O19 1606   1.182   2.851   2.192  0.3113  0.3964 -1.1516
   70DG     H20 1607   1.301   2.825   2.030 -0.5238 -0.4767  0.0221
   70DG     H21 1608   1.339   2.972   2.131 -1.3722  1.1662 -3.0064
   70DG     H22 1609   1.084   2.963   2.043  0.7146 -1.6618 -0.7859
   70DG     H23 1610   1.112   3.048   2.196 -0.3349  0.0532 -0.0618
   71DG      C1 1611   4.784   1.321   0.420 -0.7494  0.0208  0.1722
   71DG      C2 1612   5.161   0.769   0.363 -0.4633  0.0646 -0.4654
   71DG      H3 1613   4.769   1.426   0.446 -1.5049  0.0419 -0.3074
   71DG      H4 1614   4.689   1.270   0.439 -1.8629  2.0694  0.3993
   71DG      H5 1615   4.824   1.319   0.319  1.9656  3.0244  1.0246
   71DG      H6 1616   5.224   0.683   0.388 -0.0120  0.7154  0.7480
   71DG      H7 1617   5.060   0.731   0.373 -0.1571 -0.2798  2.1109
   71DG      H8 1618   5.184   0.803   0.262 -1.0019 -1.8398 -1.2763
   71DG      O9 1619   4.895   1.251   0.480 -1.0624  0.5543 -0.2113
   71DG     O10 1620   5.181   0.867   0.458 -0.4767 -0.0759 -0.0329
   71DG     C11 1621   4.907   1.255   0.626  0.3307  0.2814  0.2981
   71DG     C12 1622   5.138   0.850   0.592 -0.1514  0.1491 -0.1041
   71DG     H13 1623   4.820   1.197   0.657 -0.4275  1.0656 -0.3031
   71DG     H14 1624   4.885   1.352   0.670  0.0194  2.0022 -3.2304
   71DG     H15 1625   5.201   0.781   0.647 -0.8353 -0.4891 -0.1186
   71DG     H16 1626   5.037   0.809   0.596 -0.2173  0.4488  2.4922
   71DG     C17 1627   5.034   1.173   0.676  0.1546 -0.2496 -0.4094
   71DG     C18 1628   5.150   0.980   0.667  0.4232 -0.0069 -0.3893
   71DG     O19 1629   5.042   1.050   0.613  0.2264  0.4065  0.0122
   71DG     H20 1630   5.036   1.145   0.781 -1.3467 -1.6422 -0.7152
   71DG     H21 1631   5.128   1.220   0.647  0.8656 -2.0536 -1.1646
   71DG     H22 1632   5.124   0.960   0.771 -0.4326  1.2367 -0.3337
   71DG     H23 1633   5.246   1.032   0.668  1.0079 -1.0082 -1.8321
   72DG      C1 1634   3.031   5.439   1.731  0.2089 -0.4170  0.4936
   72DG      C2 1635   2.874   6.051   1.418  0.2631  0.5720  0.4876
   72DG      H3 1636   3.089   5.400   1.647  0.5010 -1.5457  1.1857
   72DG      H4 1637   2.927   5.407   1.724  0.4730 -1.3269  0.5248
   72DG      H5 1638   3.081   5.397   1.819  0.0245 -2.0320 -0.1421
   72DG      H6 1639   2.893   6.157   1.400  0.3639  0.5637  0.5402
   72DG      H7 1640   2.896   5.978   1.341  0.2978 -1.1308  2.0378
   72DG      H8 1641   2.766   6.042   1.431 -0.0441  1.5560 -1.0931
   72DG      O9 1642   3.033   5.578   1.724  0.1337  0.1712 -0.1177
   72DG     O10 1643   2.956   6.018   1.533 -0.1271  0.6039  0.8184
   72DG     C11 1644   3.007   5.640   1.854  0.8720 -0.0575 -0.3755
   72DG     C12 1645   2.910   6.082   1.654  0.0910 -0.0351 -0.0235
   72DG     H13 1646   3.067   5.613   1.941 -1.2409 -1.0412  0.8516
   72DG     H14 1647   2.904   5.617   1.881  2.0143 -2.5649  2.2785
   72DG     H15 1648   2.805   6.067   1.678  0.1772  1.5359  1.5137
   72DG     H16 1649   2.936   6.188   1.649 -1.1827  0.2821 -0.1016
   72DG     C17 1650   3.038   5.794   1.855 -0.1044 -0.6176  0.3569
   72DG     C18 1651   2.974   6.019   1.780 -0.2404  0.5592 -0.0058
   72DG     O19 1652   2.957   5.878   1.767  0.0561 -0.3048 -0.3925
   72DG     H20 1653   3.143   5.813   1.835  0.0680  1.6603  2.7818
   72DG     H21 1654   3.021   5.830   1.957  0.9226  1.4268 -0.1480
   72DG     H22 1655   3.080   6.041   1.796 -0.4826  1.7091  0.1096
   72DG     H23 1656   2.925   6.051   1.872 -1.8714 -2.0043  0.0928
   73DG      C1 1657   1.367   3.049   4.879 -0.1213  0.8121  0.8104
   73DG      C2 1658   1.701   2.598   4.506  0.0631  0.0695  0.0535
   73DG      H3 1659   1.393   3.050   4.985  1.6566 -0.1748  0.4302
   73DG      H4 1660   1.264   3.083   4.868 -0.1635  0.0848 -1.6894
   73DG      H5 1661   1.422   3.126   4.825 -0.2521  2.3717  2.7443
   73DG      H6 1662   1.677   2.552   4.410 -2.2012  2.2229 -0.5155
   73DG      H7 1663   1.744   2.694   4.479  0.8273  0.1189  1.3332
   73DG      H8 1664   1.776   2.530   4.548  0.7883  0.5174 -0.4931
   73DG      O9 1665   1.378   2.914   4.825  0.6476  0.0826  0.4520
   73DG     O10 1666   1.584   2.601   4.587 -0.9994 -0.0231  0.4982
   73DG     C11 1667   1.302   2.820   4.902  0.1336  0.1678 -0.2799
   73DG     C12 1668   1.588   2.509   4.691  0.3635  0.0870  0.0916
   73DG     H13 1669   1.200   2.857   4.902  0.5612  1.3957  0.9716
   73DG     H14 1670   1.340   2.817   5.004 -0.0015  0.0674 -0.2321
   73DG     H15 1671   1.657   2.534   4.772  3.0770  0.4365 -2.1724
   73DG     H16 1672   1.610   2.408   4.656  1.1660 -0.6690  2.5541
   73DG     C17 1673   1.302   2.683   4.839  0.3690  0.0683 -0.1499
   73DG     C18 1674   1.456   2.506   4.771 -0.2124 -0.2787  0.8968
   73DG     O19 1675   1.439   2.639   4.834 -0.3004 -0.4600  0.2712
   73DG     H20 1676   1.256   2.683   4.740  0.6610 -1.3666 -0.3048
   73DG     H21 1677   1.239   2.619   4.900 -0.9888 -0.3720 -1.9552
   73DG     H22 1678   1.373   2.483   4.705 -0.6290  1.9911  0.5526
   73DG     H23 1679   1.459   2.435   4.854  2.1109 -1.0559  0.2458
   74DG      C1 1680   2.381   0.972   5.416 -0.1453 -0.3202  0.5461
   74DG      C2 1681   1.929   1.198   5.051  0.2031  0.1102 -0.2071
   74DG      H3 1682   2.430   1.068   5.398  0.0299 -0.2737  1.2282
   74DG      H4 1683   2.460   0.897   5.410 -1.1976 -1.3453 -1.9126
   74DG      H5 1684   2.337   0.980   5.516 -2.5639 -1.5372 -0.3264
   74DG      H6 1685   1.979   1.295   5.061 -0.2343  0.3063  0.0768
   74DG      H7 1686   1.988   1.155   4.970  0.7294 -0.4970  0.4835
   74DG      H8 1687   1.829   1.214   5.011 -0.5592 -0.4965  1.3599
   74DG      O9 1688   2.285   0.952   5.308 -0.4170  0.0761  0.0449
   74DG     O10 1689   1.930   1.117   5.178 -0.0011  0.3703  0.1792
   74DG     C11 1690   2.233   0.823   5.309 -0.1386  0.5093  0.2668
   74DG     C12 1691   1.858   0.994   5.159  0.4066 -0.2005  0.7361
   74DG     H13 1692   2.226   0.785   5.411  2.1221  0.9447  0.6601
   74DG     H14 1693   2.307   0.758   5.262  0.4215  1.2681  0.0663
   74DG     H15 1694   1.897   0.940   5.073 -0.1162 -0.3490  0.5887
   74DG     H16 1695   1.755   1.016   5.131  0.2173 -2.7548 -0.8620
   74DG     C17 1696   2.093   0.814   5.245 -0.5122  0.0868  0.4709
   74DG     C18 1697   1.867   0.901   5.286  0.6948 -0.3978 -0.1641
   74DG     O19 1698   2.006   0.893   5.323 -0.2905 -0.1386  0.2149
   74DG     H20 1699   2.066   0.709   5.249  1.8487 -0.5546  4.0377
   74DG     H21 1700   2.098   0.846   5.141 -0.2839 -1.7782 -0.1183
   74DG     H22 1701   1.802   0.922   5.371  1.0004 -1.9410  0.4692
   74DG     H23 1702   1.843   0.800   5.254  1.2048  0.2605 -2.8571
   75DG      C1 1703   0.316   3.979   3.260  0.2095  0.4617  0.0278
   75DG      C2 1704   0.005   3.423   3.057 -0.1663 -0.3906 -0.1895
   75DG      H3 1705   0.401   4.043   3.280  0.8575 -0.3568 -0.0568
   75DG      H4 1706   0.273   3.977   3.360 -1.8340 -1.1616 -0.8056
   75DG      H5 1707   0.245   4.018   3.186 -1.3525 -0.1462  1.1522
   75DG      H6 1708  -0.030   3.456   2.960  2.1701 -1.1176 -1.3589
   75DG      H7 1709  -0.032   3.321   3.073  2.1190 -1.2451 -0.0136
   75DG      H8 1710  -0.048   3.477   3.136  0.1496 -2.5829  1.6405
   75DG      O9 1711   0.357   3.846   3.229 -0.4401  0.2351 -0.3100
   75DG     O10 1712   0.138   3.458   3.070 -0.4448  0.5166 -0.8444
   75DG     C11 1713   0.434   3.785   3.328 -0.4590 -0.8253  0.2705
   75DG     C12 1714   0.208   3.387   3.168 -0.2406 -0.4311  0.1109
   75DG     H13 1715   0.390   3.800   3.427 -0.7699 -1.0043  0.1632
   75DG     H14 1716   0.533   3.830   3.325 -1.3036  1.2399  1.3277
   75DG     H15 1717   0.226   3.281   3.148  0.3257 -0.3262  0.0460
   75DG     H16 1718   0.159   3.396   3.265 -1.1700  1.0027 -0.4549
   75DG     C17 1719   0.456   3.637   3.294  0.2279  0.5054  0.2978
   75DG     C18 1720   0.347   3.457   3.183 -0.1579  0.3326 -0.0177
   75DG     O19 1721   0.328   3.581   3.258 -0.4944  0.4127  0.0443
   75DG     H20 1722   0.511   3.580   3.369  0.5889 -0.7203 -0.8645
   75DG     H21 1723   0.525   3.635   3.210 -0.0762 -0.7345  0.0675
   75DG     H22 1724   0.423   3.391   3.225  0.5485  0.8926 -0.3952
   75DG     H23 1725   0.380   3.483   3.083 -1.5307  0.9980 -0.3232
   76DG      C1 1726   1.555   0.290   1.876 -0.1261  0.0676  0.4803
   76DG      C2 1727   1.076   0.467   1.419  0.3239  0.1248 -0.3937
   76DG      H3 1728   1.556   0.193   1.828 -0.5118  0.5200 -0.4608
   76DG      H4 1729   1.543   0.271   1.983  0.1390  1.9659  0.8905
   76DG      H5 1730   1.651   0.341   1.863 -0.6469  0.9356 -0.0730
   76DG      H6 1731   1.108   0.370   1.382 -0.2367 -0.5146  0.7457
   76DG      H7 1732   0.985   0.446   1.475  2.7348 -1.6498  3.2109
   76DG      H8 1733   1.045   0.526   1.332 -1.0547 -0.1183 -0.1004
   76DG      O9 1734   1.441   0.369   1.836  0.0122 -0.1490 -0.2949
   76DG     O10 1735   1.178   0.523   1.494  0.1935  0.0334 -0.4900
   76DG     C11 1736   1.464   0.502   1.873  0.2756 -0.5268 -0.2108
   76DG     C12 1737   1.136   0.629   1.580 -0.0507 -0.0227  0.5037
   76DG     H13 1738   1.561   0.532   1.832  0.9984 -0.4401  1.4692
   76DG     H14 1739   1.485   0.504   1.980 -0.5491 -1.6764 -0.0096
   76DG     H15 1740   1.086   0.579   1.663  1.6126  0.6110  1.9480
   76DG     H16 1741   1.059   0.695   1.540  0.6708 -0.5369 -1.9174
   76DG     C17 1742   1.356   0.597   1.822 -0.2218 -0.0391  0.2867
   76DG     C18 1743   1.257   0.698   1.631  0.6500  0.2411  0.2781
   76DG     O19 1744   1.349   0.596   1.678 -0.7697  0.1705  0.5449
   76DG     H20 1745   1.389   0.696   1.856 -0.8846  0.1708  0.3277
   76DG     H21 1746   1.264   0.586   1.879 -1.3617  0.1365 -1.4710
   76DG     H22 1747   1.298   0.768   1.559  0.3327 -0.2690 -0.4073
   76DG     H23 1748   1.226   0.761   1.715 -1.1946  0.0207 -0.1910
   77DG      C1 1749   0.670   2.310   2.305  0.5100 -0.0824  0.0886
   77DG      C2 1750   0.874   1.703   2.249  0.1799  0.1328  0.4718
   77DG      H3 1751   0.632   2.271   2.210 -0.3359  2.5026 -0.7266
   77DG      H4 1752   0.683   2.417   2.293 -1.3407  0.0357 -1.3598
   77DG      H5 1753   0.599   2.302   2.388  0.4238 -0.5783 -0.0269
   77DG      H6 1754   0.799   1.673   2.322  0.5654  2.5854  2.0103
   77DG      H7 1755   0.819   1.711   2.155  1.3964  0.8310 -0.1949
   77DG      H8 1756   0.939   1.618   2.230 -2.7299 -1.4267 -4.1921
   77DG      O9 1757   0.791   2.235   2.337 -0.5273  0.2497 -0.6271
   77DG     O10 1758   0.945   1.816   2.275  0.3733 -0.2594  0.3603
   77DG     C11 1759   0.847   2.253   2.475 -0.1813 -0.5178  0.2648
   77DG     C12 1760   1.018   1.803   2.399  0.2240 -0.5106  0.0592
   77DG     H13 1761   0.765   2.227   2.542  1.2339 -2.2126  1.4242
   77DG     H14 1762   0.854   2.360   2.492 -3.4928 -0.2148  0.4219
   77DG     H15 1763   1.109   1.744   2.386 -0.3546 -1.0310 -1.9992
   77DG     H16 1764   0.953   1.754   2.471  1.3199 -2.1972 -0.0586
   77DG     C17 1765   0.969   2.163   2.489 -0.1440  0.3321  0.5099
   77DG     C18 1766   1.058   1.944   2.443  0.2363 -0.2397 -0.7201
   77DG     O19 1767   0.939   2.027   2.454  0.0621  0.4599  0.0765
   77DG     H20 1768   1.006   2.169   2.591 -0.0272  0.1541  0.4799
   77DG     H21 1769   1.049   2.211   2.432  0.0526 -0.0715  0.4349
   77DG     H22 1770   1.112   1.932   2.537 -1.2748 -1.5962  0.0237
   77DG     H23 1771   1.116   1.998   2.368  1.0960 -0.1464 -0.0083
   78DG      C1 1772   1.579   1.802   0.940  0.3287 -0.5445 -0.4002
   78DG      C2 1773   1.389   1.440   0.587 -0.3763  0.0931  0.7146
   78DG      H3 1774   1.541   1.875   0.868 -0.4740  1.3021  1.7835
   78DG      H4 1775   1.630   1.865   1.012 -0.5347  0.4932 -0.6580
   78DG      H5 1776   1.494   1.749   0.984 -0.4451  1.3427  0.4688
   78DG      H6 1777   1.368   1.538   0.546  0.0939  0.1345  0.5688
   78DG      H7 1778   1.419   1.365   0.514  1.0528  1.3360 -0.0185
   78DG      H8 1779   1.309   1.415   0.657  0.8234 -2.0025  1.4419
   78DG      O9 1780   1.669   1.721   0.874 -0.2308  0.0664  0.1130
   78DG     O10 1781   1.514   1.465   0.651  0.7006 -0.0442  0.2966
   78DG     C11 1782   1.741   1.633   0.967 -0.6123  0.4009 -0.5413
   78DG     C12 1783   1.567   1.349   0.713  0.0157 -0.0992  0.4530
   78DG     H13 1784   1.674   1.582   1.036 -0.9153  1.6150  0.0748
   78DG     H14 1785   1.805   1.697   1.027  0.3240 -0.6054 -0.4284
   78DG     H15 1786   1.611   1.290   0.633 -1.5951 -1.8823  0.8133
   78DG     H16 1787   1.493   1.282   0.757  1.9494 -1.6156  1.5910
   78DG     C17 1788   1.829   1.538   0.891 -0.1216  0.0510 -0.5895
   78DG     C18 1789   1.673   1.369   0.822  0.1074 -0.2084  0.2802
   78DG     O19 1790   1.758   1.476   0.781  0.2773 -0.5173  0.0980
   78DG     H20 1791   1.875   1.466   0.958 -0.5009  0.3002 -0.0594
   78DG     H21 1792   1.907   1.598   0.843 -1.2994  1.3492 -0.9710
   78DG     H22 1793   1.626   1.373   0.920 -2.9762 -2.3412 -0.9501
   78DG     H23 1794   1.743   1.286   0.828  1.4875  0.7347 -1.6060
   79DG      C1 1795   2.514   3.209   0.260 -0.5893  0.4288 -0.0578
   79DG      C2 1796   1.993   2.909   0.611  0.2750 -0.0353  0.1196
   79DG      H3 1797   2.589   3.141   0.221 -1.7696 -0.5860 -0.6079
   79DG      H4 1798   2.560   3.307   0.275  4.0649 -1.4418 -0.4196
   79DG      H5 1799   2.432   3.214   0.188 -0.3539  0.9483 -0.2965
   79DG      H6 1800   1.919   2.944   0.539 -0.1908 -0.2556  0.4866
   79DG      H7 1801   2.032   2.818   0.565  0.4396 -1.3668  2.6901
   79DG      H8 1802   1.934   2.894   0.701 -0.2089  1.0308 -0.0021
   79DG      O9 1803   2.454   3.165   0.382  0.0075  0.7177 -0.0876
   79DG     O10 1804   2.098   2.993   0.624  0.1891  0.0296 -0.0956
   79DG     C11 1805   2.559   3.118   0.467 -0.1533 -0.2852 -0.4620
   79DG     C12 1806   2.192   2.935   0.709  0.4435  0.4252 -0.4989
   79DG     H13 1807   2.642   3.185   0.489 -0.0904 -0.1002 -1.2409
   79DG     H14 1808   2.584   3.017   0.435  1.6454 -0.1000  0.2249
   79DG     H15 1809   2.235   2.848   0.659  0.5336  0.9205 -1.2991
   79DG     H16 1810   2.163   2.908   0.811 -1.9769  0.8574 -1.0103
   79DG     C17 1811   2.506   3.099   0.610  0.2850  0.3174 -0.5122
   79DG     C18 1812   2.315   3.023   0.722 -0.5616  0.4534  0.1016
   79DG     O19 1813   2.377   3.041   0.593  0.1824 -0.8316  0.2900
   79DG     H20 1814   2.501   3.196   0.661  1.2531 -0.3824  0.9907
   79DG     H21 1815   2.577   3.046   0.673  0.5599  0.5940 -0.5835
   79DG     H22 1816   2.289   3.127   0.742 -1.9203  0.5703 -2.0025
   79DG     H23 1817   2.386   2.983   0.795  1.6116  0.5789 -1.8543
   80DG      C1 1818   1.972   0.772   0.795  0.4551 -0.2831 -0.1849
   80DG      C2 1819   1.971   0.588   0.130 -0.4277  0.2321  0.1356
   80DG      H3 1820   1.903   0.689   0.805 -0.7978  0.7974  0.5896
   80DG      H4 1821   1.912   0.844   0.852  1.2268  0.3854 -0.2037
   80DG      H5 1822   2.061   0.740   0.848 -0.1167 -1.2824  0.2073
   80DG      H6 1823   2.034   0.543   0.054 -0.3633  0.5777 -0.0157
   80DG      H7 1824   1.917   0.509   0.182 -1.2158  0.5762 -0.1414
   80DG      H8 1825   1.910   0.655   0.069 -0.7351  1.6639  1.9406
   80DG      O9 1826   1.991   0.810   0.665 -0.1719 -0.1631  0.1897
   80DG     O10 1827   2.038   0.680   0.211  0.4559 -0.4004 -0.1695
   80DG     C11 1828   2.069   0.929   0.643 -0.3333 -0.3484  0.5398
   80DG     C12 1829   2.148   0.630   0.285  0.5546  0.3571  0.1900
   80DG     H13 1830   2.123   0.966   0.730 -0.4264  2.4596 -0.5014
   80DG     H14 1831   1.998   1.001   0.602 -0.4885 -1.1385 -0.6327
   80DG     H15 1832   2.209   0.574   0.215 -1.9031 -0.5490 -1.3622
   80DG     H16 1833   2.116   0.554   0.356 -2.3292  1.3026  0.0329
   80DG     C17 1834   2.177   0.896   0.544 -0.1910  0.0779  0.2053
   80DG     C18 1835   2.211   0.751   0.364 -1.0571 -0.5850  1.0085
   80DG     O19 1836   2.119   0.811   0.444 -0.1402 -0.9678  0.2641
   80DG     H20 1837   2.262   0.844   0.589  1.6140  2.4864 -0.2269
   80DG     H21 1838   2.215   0.989   0.501 -1.7823  0.0120 -1.4867
   80DG     H22 1839   2.292   0.705   0.420 -2.5126 -4.1309  0.4634
   80DG     H23 1840   2.249   0.825   0.293 -3.6708  0.7625  0.8893
   81DG      C1 1841   1.504   5.299   4.207 -0.5980  0.0990 -0.1934
   81DG      C2 1842   0.804   5.317   4.289  0.6231  0.4046  0.3067
   81DG      H3 1843   1.475   5.404   4.200  0.4207  0.3026 -1.7747
   81DG      H4 1844   1.585   5.275   4.139  0.3716 -0.8752  1.2605
   81DG      H5 1845   1.532   5.269   4.308  1.3149  3.2486  0.3418
   81DG      H6 1846   0.818   5.422   4.267  0.2871  0.2559 -0.6360
   81DG      H7 1847   0.716   5.274   4.240 -0.8678  1.0169  2.3014
   81DG      H8 1848   0.790   5.297   4.396 -2.0084 -3.8313 -0.5727
   81DG      O9 1849   1.383   5.227   4.172 -0.2395  0.4918  0.5260
   81DG     O10 1850   0.921   5.248   4.237  0.4604  0.1356 -0.3170
   81DG     C11 1851   1.383   5.086   4.197 -0.4186 -0.1548  0.4267
   81DG     C12 1852   0.913   5.109   4.264  0.4207  1.0314  0.0381
   81DG     H13 1853   1.372   5.062   4.303 -2.0432 -1.0294  0.0864
   81DG     H14 1854   1.471   5.040   4.151 -0.1208 -1.6897  2.4233
   81DG     H15 1855   0.816   5.063   4.248  0.7667  0.5706 -0.8063
   81DG     H16 1856   0.950   5.081   4.362 -1.8819 -2.0185  0.1874
   81DG     C17 1857   1.252   5.024   4.145  0.0703 -0.0488 -0.1116
   81DG     C18 1858   1.012   5.047   4.156  0.0784 -0.3408  0.1346
   81DG     O19 1859   1.139   5.093   4.206 -0.0775 -0.0533  0.6368
   81DG     H20 1860   1.245   4.916   4.154 -3.2280 -0.0941 -1.7001
   81DG     H21 1861   1.251   5.051   4.039  1.2119 -0.0219 -0.1329
   81DG     H22 1862   1.005   4.939   4.158 -0.8758 -0.2828  1.6606
   81DG     H23 1863   0.987   5.078   4.055  0.0919  1.7190  0.7058
   82DG      C1 1864   1.752   5.033   4.931  0.3492  0.3010  0.3658
   82DG      C2 1865   2.256   5.528   4.796  0.0450 -0.4143 -0.0602
   82DG      H3 1866   1.705   4.973   5.009  2.7627 -0.6440  1.1936
   82DG      H4 1867   1.791   4.976   4.847 -0.1261 -0.0440  0.3719
   82DG      H5 1868   1.683   5.109   4.893 -0.7390 -1.1864 -0.7254
   82DG      H6 1869   2.310   5.472   4.720 -1.8108  0.3300 -2.0587
   82DG      H7 1870   2.178   5.575   4.736 -0.3428 -1.9412 -0.7867
   82DG      H8 1871   2.317   5.607   4.840  0.8388 -0.3368 -1.2527
   82DG      O9 1872   1.860   5.096   4.985 -0.2775 -0.1437  0.5417
   82DG     O10 1873   2.189   5.441   4.893 -0.2224 -0.2192 -0.3451
   82DG     C11 1874   1.845   5.184   5.094  0.3932  0.6843 -0.5834
   82DG     C12 1875   2.277   5.374   4.979 -0.1645 -0.2507  0.3582
   82DG     H13 1876   1.797   5.140   5.182  2.5402  0.0309  0.3317
   82DG     H14 1877   1.801   5.277   5.060 -1.2963 -0.0024 -0.3574
   82DG     H15 1878   2.350   5.450   5.009 -0.7081  0.6154 -0.4467
   82DG     H16 1879   2.328   5.297   4.921  0.5899  0.5721 -0.1029
   82DG     C17 1880   1.986   5.210   5.140  0.2088  0.1756  0.1891
   82DG     C18 1881   2.197   5.319   5.097  0.3413  0.2777 -0.0774
   82DG     O19 1882   2.066   5.280   5.044 -0.3261  0.2317  0.3325
   82DG     H20 1883   2.046   5.122   5.164  1.2745  1.0642  0.9163
   82DG     H21 1884   1.996   5.266   5.233  1.7908  0.1044  0.1018
   82DG     H22 1885   2.242   5.235   5.149 -0.7349 -0.3044 -0.0657
   82DG     H23 1886   2.179   5.398   5.171  2.0338  3.0316 -2.4025
   83DG      C1 1887   0.848   2.308   4.162 -0.4575 -0.3135  1.5537
   83DG      C2 1888   0.740   1.792   4.579  0.3466  0.4224 -0.4821
   83DG      H3 1889   0.868   2.414   4.175  1.8838 -0.7252  1.6434
   83DG      H4 1890   0.743   2.294   4.134  0.4726  0.6307 -3.4082
   83DG      H5 1891   0.899   2.288   4.068  0.9630  1.6500  1.8454
   83DG      H6 1892   0.759   1.848   4.670 -1.0304  0.1478 -0.0044
   83DG      H7 1893   0.638   1.810   4.545  0.2157  1.0370  0.2131
   83DG      H8 1894   0.751   1.686   4.603 -1.7076  0.0457 -0.9894
   83DG      O9 1895   0.903   2.235   4.272  0.4266 -0.0313  0.4774
   83DG     O10 1896   0.827   1.846   4.488  0.1410  0.2461 -0.1741
   83DG     C11 1897   1.046   2.223   4.282  0.3231  0.8769  0.0546
   83DG     C12 1898   0.960   1.797   4.492 -0.4057 -0.6423  0.1723
   83DG     H13 1899   1.091   2.274   4.367  0.8790  1.9504 -0.8610
   83DG     H14 1900   1.079   2.272   4.190  3.7358  0.2880  0.8461
   83DG     H15 1901   0.956   1.688   4.499 -1.4467 -0.5802  0.8595
   83DG     H16 1902   1.006   1.842   4.580 -0.6837  1.6088 -0.7885
   83DG     C17 1903   1.077   2.072   4.270 -0.6707  0.6309  0.0075
   83DG     C18 1904   1.019   1.856   4.365  0.0624 -0.6591  0.2766
   83DG     O19 1905   1.004   2.002   4.374 -0.3702 -0.0237 -0.0415
   83DG     H20 1906   1.183   2.049   4.274 -0.6945  0.7576  2.0762
   83DG     H21 1907   1.046   2.037   4.171  1.4859 -0.9342 -0.1778
   83DG     H22 1908   1.122   1.824   4.353  0.0170 -1.0297  0.8358
   83DG     H23 1909   0.961   1.817   4.282 -1.1066  1.5695 -0.0362
   84DG      C1 1910   2.433   2.151   0.697 -1.1450  0.2359  0.4865
   84DG      C2 1911   2.730   2.761   0.445 -0.3225  0.7014  0.0101
   84DG      H3 1912   2.338   2.164   0.645 -1.9766 -2.1483  1.2626
   84DG      H4 1913   2.419   2.188   0.799  0.1676 -0.4384  0.9390
   84DG      H5 1914   2.459   2.045   0.703  1.2495  0.6695 -0.9847
   84DG      H6 1915   2.775   2.784   0.542  1.6614 -3.5888  0.3269
   84DG      H7 1916   2.790   2.791   0.358  0.8653  1.0860  0.9402
   84DG      H8 1917   2.635   2.813   0.434  0.5006  2.3256  0.1977
   84DG      O9 1918   2.544   2.223   0.637  0.2504 -0.8734  0.7559
   84DG     O10 1919   2.697   2.622   0.455  0.0755  0.1757  0.3330
   84DG     C11 1920   2.578   2.159   0.520 -0.0598  0.5087  0.1501
   84DG     C12 1921   2.645   2.562   0.339 -0.0361 -0.2391 -0.0411
   84DG     H13 1922   2.501   2.165   0.444 -0.1666  4.8251  0.3760
   84DG     H14 1923   2.606   2.054   0.535 -0.4114  0.4294  0.2594
   84DG     H15 1924   2.724   2.543   0.266 -0.0563 -0.0606 -0.1108
   84DG     H16 1925   2.561   2.613   0.291 -0.0981 -0.6380 -0.3639
   84DG     C17 1926   2.703   2.225   0.457 -0.6698 -0.0990 -0.5258
   84DG     C18 1927   2.588   2.425   0.385  0.1222 -0.4548  0.5973
   84DG     O19 1928   2.687   2.373   0.471 -0.4148 -0.1646 -0.1463
   84DG     H20 1929   2.716   2.186   0.357  1.0937  1.0205 -0.7850
   84DG     H21 1930   2.792   2.211   0.520 -1.5372 -0.5749  0.6221
   84DG     H22 1931   2.495   2.438   0.441 -1.4989 -1.6067 -1.6672
   84DG     H23 1932   2.569   2.359   0.301 -1.5757  0.2052  0.4249
   85DG      C1 1933   2.743   5.240   3.769  0.2639 -0.0066  0.6107
   85DG      C2 1934   2.591   5.806   3.436  0.3511  0.5085  0.0978
   85DG      H3 1935   2.772   5.279   3.866  1.4856  2.3827 -0.6327
   85DG      H4 1936   2.749   5.131   3.772 -0.1659 -0.1769 -2.0951
   85DG      H5 1937   2.636   5.264   3.766  0.7842  2.4359 -1.3459
   85DG      H6 1938   2.656   5.867   3.373  0.7711  0.7010  0.7135
   85DG      H7 1939   2.533   5.760   3.356  2.5192  0.3282 -1.4758
   85DG      H8 1940   2.526   5.864   3.501  1.0902  0.6364  0.7372
   85DG      O9 1941   2.813   5.305   3.661  0.8685  0.0474  0.3898
   85DG     O10 1942   2.670   5.715   3.509 -0.2221  0.2935  0.2600
   85DG     C11 1943   2.932   5.368   3.695 -0.3707 -0.0936  0.1287
   85DG     C12 1944   2.758   5.800   3.591  0.1551 -0.1706  0.0726
   85DG     H13 1945   2.994   5.377   3.606 -1.0413  1.6664 -0.2091
   85DG     H14 1946   2.998   5.307   3.756 -1.8623 -0.9177  0.9863
   85DG     H15 1947   2.697   5.877   3.637 -0.6541  1.0588 -2.8314
   85DG     H16 1948   2.835   5.854   3.535  0.6063  0.2916  1.0998
   85DG     C17 1949   2.905   5.504   3.753  0.8727  0.5261 -0.5256
   85DG     C18 1950   2.803   5.706   3.707  0.3934 -0.5392 -0.3079
   85DG     O19 1951   2.854   5.588   3.654 -0.0067 -0.1620  0.5172
   85DG     H20 1952   3.001   5.535   3.795  0.3534 -0.2348  1.2998
   85DG     H21 1953   2.840   5.504   3.841  0.9966  2.7413 -0.3908
   85DG     H22 1954   2.871   5.754   3.776  1.3261 -1.7157 -0.3697
   85DG     H23 1955   2.710   5.696   3.762  0.0100  0.4470 -0.7529
   86DG      C1 1956   0.989   5.342   3.919  0.3326  0.2695  0.1603
   86DG      C2 1957   1.093   5.565   4.543 -0.0975  0.3360  0.4685
   86DG      H3 1958   1.012   5.236   3.906  0.9396  0.5524 -1.3267
   86DG      H4 1959   0.997   5.392   3.822  1.0066  0.5571  0.3576
   86DG      H5 1960   0.885   5.348   3.951  0.2171  2.3449 -0.4082
   86DG      H6 1961   0.996   5.518   4.529  0.5048 -1.9434  3.0275
   86DG      H7 1962   1.113   5.570   4.650 -0.7942 -3.5857  0.9226
   86DG      H8 1963   1.090   5.666   4.502 -0.1669  0.2506  0.2672
   86DG      O9 1964   1.074   5.395   4.018 -0.8081  0.2829  0.0050
   86DG     O10 1965   1.195   5.489   4.487  0.6134  0.3186 -0.5424
   86DG     C11 1966   1.054   5.531   4.050  0.0765  0.1384  0.7341
   86DG     C12 1967   1.303   5.567   4.451  0.2485 -0.5365  0.9138
   86DG     H13 1968   0.975   5.542   4.123 -1.2531 -1.6339 -0.3423
   86DG     H14 1969   1.008   5.587   3.968  0.0996 -0.6548  0.1650
   86DG     H15 1970   1.379   5.491   4.437  0.8809  0.3921 -0.9366
   86DG     H16 1971   1.333   5.629   4.535 -1.2068  0.7169  0.5599
   86DG     C17 1972   1.182   5.598   4.101  0.1880 -0.2121 -0.4761
   86DG     C18 1973   1.280   5.635   4.311 -0.3179 -0.3111 -0.1578
   86DG     O19 1974   1.214   5.540   4.230 -0.3302 -0.5400 -0.1206
   86DG     H20 1975   1.155   5.703   4.116  0.1480 -0.5103  1.9440
   86DG     H21 1976   1.268   5.587   4.035  0.6138  0.5480 -0.0631
   86DG     H22 1977   1.225   5.729   4.321  0.5804  0.1377  0.8825
   86DG     H23 1978   1.377   5.651   4.263 -0.1940 -0.2763  0.1021
   87DG      C1 1979   3.284   4.713   3.259  0.3300 -0.4986 -1.2395
   87DG      C2 1980   3.430   5.011   2.961  0.3011 -0.3699  0.5374
   87DG      H3 1981   3.367   4.662   3.309 -0.2483 -2.5896 -2.3093
   87DG      H4 1982   3.201   4.687   3.324  0.3151 -3.2219 -2.2282
   87DG      H5 1983   3.313   4.816   3.278  2.3550 -1.3609  0.8513
   87DG      H6 1984   3.374   5.084   2.904 -0.5107 -0.7150  0.8809
   87DG      H7 1985   3.361   4.968   3.033  0.5266 -1.7131 -0.0294
   87DG      H8 1986   3.512   5.048   3.023  1.2737  0.8413 -1.3693
   87DG      O9 1987   3.263   4.679   3.123  0.5016 -0.1910 -0.1398
   87DG     O10 1988   3.484   4.910   2.877  0.7363  0.3768  0.7341
   87DG     C11 1989   3.326   4.555   3.085  0.0163 -0.4078  0.1663
   87DG     C12 1990   3.564   4.803   2.931  0.0724 -0.0657 -0.5270
   87DG     H13 1991   3.287   4.472   3.143 -0.6248  0.6487  1.2785
   87DG     H14 1992   3.429   4.555   3.120 -0.7453 -0.3389  2.5182
   87DG     H15 1993   3.544   4.804   3.038  1.3048  1.4398 -0.2790
   87DG     H16 1994   3.669   4.829   2.915 -0.0347  2.6795  2.3063
   87DG     C17 1995   3.318   4.539   2.934 -0.8000  0.0300  0.1714
   87DG     C18 1996   3.514   4.664   2.877 -1.0719  0.6559  0.0920
   87DG     O19 1997   3.374   4.658   2.874  0.3846 -0.0161  0.0171
   87DG     H20 1998   3.217   4.516   2.899 -0.6081  1.5287 -1.5126
   87DG     H21 1999   3.374   4.450   2.905  1.2327  1.4152 -0.3841
   87DG     H22 2000   3.536   4.644   2.772 -1.1586  1.8003 -0.1602
   87DG     H23 2001   3.570   4.585   2.927 -0.4058  1.9454  1.4498
   88DG      C1 2002   4.601   4.747   1.202  0.4391  0.3508 -0.1937
   88DG      C2 2003   4.643   5.395   1.472 -0.5953  0.5555  0.6754
   88DG      H3 2004   4.508   4.745   1.145 -0.9823  1.0899  2.0200
   88DG      H4 2005   4.627   4.646   1.234  0.1695  0.0825 -0.7921
   88DG      H5 2006   4.685   4.778   1.140  1.2265  0.2917  0.8251
   88DG      H6 2007   4.739   5.433   1.438 -1.1569 -0.6343 -2.6332
   88DG      H7 2008   4.562   5.400   1.400 -0.8747  0.0061  0.9469
   88DG      H8 2009   4.612   5.457   1.555  0.4314  0.5213  1.0922
   88DG      O9 2010   4.588   4.835   1.311 -0.0808  0.4984  0.2311
   88DG     O10 2011   4.661   5.251   1.500  0.2078 -0.3851 -0.1746
   88DG     C11 2012   4.496   4.789   1.409  0.0473  0.6450  0.1622
   88DG     C12 2013   4.567   5.219   1.603  0.9035 -0.4577  0.4600
   88DG     H13 2014   4.508   4.682   1.426 -1.6146 -0.1723 -2.9775
   88DG     H14 2015   4.394   4.803   1.371  0.5508 -1.7831 -2.3781
   88DG     H15 2016   4.463   5.247   1.585  0.9721 -0.3390  0.2442
   88DG     H16 2017   4.588   5.275   1.694 -1.3657 -2.7505  2.5734
   88DG     C17 2018   4.520   4.863   1.543 -0.0942  0.2484  0.0031
   88DG     C18 2019   4.559   5.072   1.641 -0.5401  0.2659  0.4759
   88DG     O19 2020   4.533   5.005   1.517 -0.3437  0.1092  0.1102
   88DG     H20 2021   4.615   4.830   1.587  0.5624  2.7672  0.6031
   88DG     H21 2022   4.443   4.842   1.617  0.5074  0.0835  0.6013
   88DG     H22 2023   4.657   5.044   1.682 -1.0673 -2.1354  0.2775
   88DG     H23 2024   4.480   5.043   1.711  1.1885 -2.2854  1.5382
   89DG      C1 2025   4.628   0.146   0.714  0.6905 -0.3112  0.1492
   89DG      C2 2026   5.192   0.249   0.420 -0.7212 -0.5824 -0.4446
   89DG      H3 2027   4.679   0.052   0.736  1.6603  0.6141  2.0506
   89DG      H4 2028   4.520   0.141   0.728  0.7621  0.9952  1.2904
   89DG      H5 2029   4.667   0.222   0.781 -0.7612  0.2890  0.3518
   89DG      H6 2030   5.229   0.320   0.494 -0.8437 -1.0964  0.1131
   89DG      H7 2031   5.208   0.151   0.465 -0.2167  0.5860  2.1010
   89DG      H8 2032   5.269   0.264   0.344  1.6005  1.6526  2.1237
   89DG      O9 2033   4.663   0.166   0.576 -0.1093 -0.6400  0.1026
   89DG     O10 2034   5.066   0.254   0.370  0.9943 -0.1693  0.3780
   89DG     C11 2035   4.600   0.283   0.539  0.1359  0.3974 -0.0908
   89DG     C12 2036   5.027   0.387   0.335 -0.2559 -0.0326 -0.0995
   89DG     H13 2037   4.583   0.347   0.626 -0.1202 -0.6804  0.6794
   89DG     H14 2038   4.497   0.268   0.506  0.3334 -0.9907 -0.1205
   89DG     H15 2039   5.079   0.416   0.244  0.9994 -0.3822  0.4833
   89DG     H16 2040   5.049   0.459   0.415 -0.1457 -0.1075 -0.0628
   89DG     C17 2041   4.674   0.354   0.428  0.0004  0.1490 -0.1558
   89DG     C18 2042   4.874   0.380   0.309  0.0026 -0.3212 -0.4760
   89DG     O19 2043   4.814   0.326   0.421  0.7006  0.5772  0.4640
   89DG     H20 2044   4.655   0.460   0.443 -2.1819 -0.1244 -0.6706
   89DG     H21 2045   4.624   0.313   0.341 -2.6786  0.2525  1.2444
   89DG     H22 2046   4.840   0.479   0.279 -1.7217 -0.9465 -0.7319
   89DG     H23 2047   4.873   0.318   0.219  0.2087  0.5575 -1.0885
   90DG      C1 2048   5.109   2.924   2.666 -0.2905  0.2615 -0.4402
   90DG      C2 2049   5.474   2.393   2.955  0.0019 -0.6845 -0.5482
   90DG      H3 2050   5.131   2.884   2.567  1.2937  1.8258 -0.7570
   90DG      H4 2051   5.104   3.033   2.660 -1.0721  0.2792  0.3564
   90DG      H5 2052   5.004   2.897   2.677 -0.8173  1.7347 -1.5305
   90DG      H6 2053   5.494   2.316   3.030  1.0690 -0.7365 -0.8655
   90DG      H7 2054   5.383   2.376   2.898 -0.2526  1.6831 -0.9557
   90DG      H8 2055   5.554   2.366   2.886  1.2823  1.0451  0.1681
   90DG      O9 2056   5.193   2.875   2.769 -0.2269  0.3388  0.1568
   90DG     O10 2057   5.470   2.531   2.996  0.5632 -0.3832 -0.1741
   90DG     C11 2058   5.160   2.922   2.896 -0.0542 -0.9228  0.1757
   90DG     C12 2059   5.384   2.555   3.104 -0.1055  0.2097 -0.2448
   90DG     H13 2060   5.061   2.886   2.924 -0.7721  1.9045  1.6492
   90DG     H14 2061   5.143   3.030   2.896  1.4794 -0.6614  0.4607
   90DG     H15 2062   5.416   2.512   3.199  1.0047  0.2542 -0.5887
   90DG     H16 2063   5.285   2.516   3.077 -1.5751  2.4707  1.5131
   90DG     C17 2064   5.268   2.891   3.002 -0.8406  0.3914  0.1011
   90DG     C18 2065   5.370   2.709   3.117  0.3351 -0.2211  0.0299
   90DG     O19 2066   5.286   2.754   3.010 -0.0981 -0.2265 -0.2027
   90DG     H20 2067   5.231   2.921   3.100 -1.0741 -1.4989  0.6371
   90DG     H21 2068   5.363   2.942   2.985 -0.2908 -0.5461  0.2936
   90DG     H22 2069   5.333   2.736   3.216 -1.3771  1.2390 -0.9478
   90DG     H23 2070   5.464   2.758   3.091  0.5119 -1.5388 -2.0112
   91DG      C1 2071   2.742   0.833   2.649 -0.1741  0.0651 -0.7370
   91DG      C2 2072   2.512   0.590   3.216 -0.7552  0.7039 -0.0398
   91DG      H3 2073   2.725   0.921   2.586  0.6051  1.1625  0.5242
   91DG      H4 2074   2.777   0.752   2.586  1.3569  0.7398 -0.8004
   91DG      H5 2075   2.813   0.852   2.730  1.6409 -4.0806 -1.1295
   91DG      H6 2076   2.436   0.583   3.293  0.3153  0.0875  0.9986
   91DG      H7 2077   2.540   0.485   3.208  0.4780  0.7542  2.6716
   91DG      H8 2078   2.601   0.639   3.256  0.6709 -0.5945 -1.4476
   91DG      O9 2079   2.623   0.802   2.716 -0.5762 -0.6057  0.3699
   91DG     O10 2080   2.474   0.660   3.097 -0.2255 -0.3705 -0.1078
   91DG     C11 2081   2.509   0.784   2.635 -0.4304  0.5954 -0.2179
   91DG     C12 2082   2.339   0.641   3.058  0.8721 -0.1355  0.0396
   91DG     H13 2083   2.512   0.694   2.574  0.3737  0.5649 -0.1524
   91DG     H14 2084   2.507   0.869   2.566  0.7144  2.2843  1.6868
   91DG     H15 2085   2.279   0.677   3.141  0.8634 -2.3030  1.0450
   91DG     H16 2086   2.324   0.535   3.035  1.1230  0.0790 -1.2208
   91DG     C17 2087   2.377   0.778   2.719  0.0991 -0.1986  0.1848
   91DG     C18 2088   2.312   0.726   2.934  0.1678 -0.9217 -0.5156
   91DG     O19 2089   2.413   0.710   2.837 -0.1028 -0.0365  0.5061
   91DG     H20 2090   2.293   0.740   2.662  0.5278  1.6133 -1.7942
   91DG     H21 2091   2.344   0.878   2.744  1.0846  0.1127  0.2846
   91DG     H22 2092   2.209   0.706   2.905  0.3550 -1.2646 -0.9382
   91DG     H23 2093   2.318   0.832   2.959  0.3448 -0.7516 -1.2722
   92DG      C1 2094   0.461   0.301   2.716  0.0740 -0.2000 -0.1819
   92DG      C2 2095  -0.037  -0.009   2.737  0.7272 -0.2980 -0.4321
   92DG      H3 2096   0.420   0.303   2.615  0.9985 -1.0294 -0.5792
   92DG      H4 2097   0.540   0.232   2.689 -0.1628 -0.2549 -0.7505
   92DG      H5 2098   0.505   0.400   2.728  0.4417 -0.1302 -1.8578
   92DG      H6 2099  -0.010  -0.071   2.651 -0.7151 -3.6738  1.3644
   92DG      H7 2100  -0.130  -0.048   2.778  1.5531 -2.6388 -0.6335
   92DG      H8 2101  -0.068   0.085   2.692 -0.3478 -1.1418 -1.5591
   92DG      O9 2102   0.364   0.261   2.813  0.3281 -0.3752 -0.2153
   92DG     O10 2103   0.056   0.005   2.841 -0.1862 -0.0907 -0.4002
   92DG     C11 2104   0.422   0.266   2.943  0.2054  0.1826  0.2285
   92DG     C12 2105   0.032   0.091   2.949  0.0527  0.2782 -0.6040
   92DG     H13 2106   0.451   0.367   2.971  0.2951  0.0120  0.7638
   92DG     H14 2107   0.507   0.199   2.954  1.4791  1.7289  0.2122
   92DG     H15 2108  -0.065   0.079   2.998  0.1827  0.0187 -0.4132
   92DG     H16 2109   0.044   0.189   2.902 -0.8823  0.9028  0.3978
   92DG     C17 2110   0.309   0.221   3.043 -0.3109  0.1868  0.4120
   92DG     C18 2111   0.134   0.069   3.063  0.3170 -0.2965  0.0604
   92DG     O19 2112   0.264   0.089   2.997  0.0886  0.0726  0.7974
   92DG     H20 2113   0.236   0.301   3.036  0.5319  1.0047  0.7171
   92DG     H21 2114   0.354   0.216   3.142  0.6425  1.3310  0.0603
   92DG     H22 2115   0.104   0.121   3.154 -0.7204 -1.2921  0.2950
   92DG     H23 2116   0.105  -0.033   3.084 -0.4636  0.3968  2.7082
   93DG      C1 2117   5.397   2.087   3.699 -0.3105 -0.1263 -0.4189
   93DG      C2 2118   5.998   1.860   3.395 -0.5114  0.8023 -0.2015
   93DG      H3 2119   5.354   2.112   3.796 -2.0310  0.2935 -1.2574
   93DG      H4 2120   5.318   2.019   3.667  1.9136 -2.5756 -1.1406
   93DG      H5 2121   5.387   2.166   3.625  0.0200 -0.2967 -0.6496
   93DG      H6 2122   5.922   1.833   3.320 -0.6824 -2.4476  0.9745
   93DG      H7 2123   6.038   1.956   3.363 -0.9760  0.7989 -0.8185
   93DG      H8 2124   6.077   1.785   3.398 -2.0931 -0.9717  3.0821
   93DG      O9 2125   5.519   2.015   3.699 -0.4641  0.6264 -0.1841
   93DG     O10 2126   5.945   1.859   3.529 -0.3088  0.0577  0.4993
   93DG     C11 2127   5.500   1.873   3.740 -0.5076 -0.3442  0.2835
   93DG     C12 2128   5.918   1.721   3.563  1.2046  0.0537  0.2527
   93DG     H13 2129   5.452   1.826   3.653 -0.9595 -0.3474  0.5332
   93DG     H14 2130   5.422   1.844   3.810 -0.4167 -0.9054  0.1541
   93DG     H15 2131   6.002   1.654   3.575 -0.0677 -1.4059  1.4807
   93DG     H16 2132   5.864   1.683   3.477  1.1696  1.2871 -0.2942
   93DG     C17 2133   5.630   1.804   3.773 -0.5305  0.2478 -0.0739
   93DG     C18 2134   5.832   1.715   3.690 -0.6052  0.7975  0.1918
   93DG     O19 2135   5.717   1.793   3.661  0.5203  0.0506 -0.2049
   93DG     H20 2136   5.616   1.703   3.811  1.8247 -0.0935  0.0721
   93DG     H21 2137   5.673   1.867   3.851 -2.0719 -0.1636  1.1480
   93DG     H22 2138   5.810   1.612   3.715  0.3300 -0.0931 -2.3379
   93DG     H23 2139   5.888   1.756   3.774  0.2167  0.0335  0.0265
   94DG      C1 2140   1.745   4.036   3.219 -0.2538  0.2488 -0.9029
   94DG      C2 2141   2.413   4.260   3.169 -0.0604 -0.1829 -0.7375
   94DG      H3 2142   1.724   3.935   3.256  0.3742 -0.0493 -1.3370
   94DG      H4 2143   1.663   4.055   3.151 -1.4141  1.1363  0.6862
   94DG      H5 2144   1.747   4.106   3.303 -0.1936  0.9251 -1.4632
   94DG      H6 2145   2.349   4.344   3.142 -0.2520  0.9777  2.8612
   94DG      H7 2146   2.426   4.270   3.276 -2.9564  1.2818 -0.4603
   94DG      H8 2147   2.502   4.271   3.106  2.2166 -0.7127  2.1826
   94DG      O9 2148   1.874   4.030   3.171 -0.2612 -0.2120  0.6096
   94DG     O10 2149   2.348   4.143   3.132  0.3261  0.0502  0.3701
   94DG     C11 2150   1.890   3.934   3.062  0.4515  0.1836  0.4881
   94DG     C12 2151   2.319   4.139   2.992 -0.2247  0.0542 -0.0344
   94DG     H13 2152   1.855   3.982   2.970  0.9412 -1.7524 -0.7569
   94DG     H14 2153   1.828   3.845   3.064  1.2499 -0.4053 -0.2239
   94DG     H15 2154   2.411   4.147   2.934 -0.6477  2.7207 -0.4602
   94DG     H16 2155   2.256   4.223   2.964 -0.5324 -0.9875 -2.7522
   94DG     C17 2156   2.036   3.905   3.028  0.4514 -0.0529  0.5980
   94DG     C18 2157   2.233   4.018   2.962 -0.1312  0.7702  0.3851
   94DG     O19 2158   2.109   4.025   3.030  0.2455 -0.0576 -0.8066
   94DG     H20 2159   2.034   3.856   2.930  1.8212 -3.6022  2.1664
   94DG     H21 2160   2.077   3.830   3.094 -1.0802 -1.1268  0.3980
   94DG     H22 2161   2.241   3.999   2.855  1.7903  0.9612  0.4476
   94DG     H23 2162   2.293   3.934   2.998  2.3987  0.2970 -4.1290
   95DG      C1 2163   2.873   3.859   2.895 -0.3809 -0.3479  0.2455
   95DG      C2 2164   2.506   3.350   3.117  0.3058 -0.2315 -0.5779
   95DG      H3 2165   2.948   3.788   2.932 -0.2766  0.3906  1.5055
   95DG      H4 2166   2.859   3.938   2.969  1.0805  1.3114 -1.1719
   95DG      H5 2167   2.920   3.900   2.806 -1.5883 -0.6670 -0.5529
   95DG      H6 2168   2.537   3.404   3.206  1.9217 -0.2727 -1.0815
   95DG      H7 2169   2.406   3.309   3.124  0.8433 -2.6548 -4.1102
   95DG      H8 2170   2.584   3.275   3.099  0.1735 -0.3009 -0.8783
   95DG      O9 2171   2.749   3.797   2.878 -0.1639 -0.5503 -0.6426
   95DG     O10 2172   2.520   3.442   3.015  0.0632  0.1343  0.4044
   95DG     C11 2173   2.640   3.876   2.828 -0.5685 -0.5356  0.6450
   95DG     C12 2174   2.397   3.510   2.990 -0.2351  0.2985 -0.2660
   95DG     H13 2175   2.657   3.948   2.748  0.1611 -1.2132  0.1726
   95DG     H14 2176   2.604   3.939   2.909  0.1896  0.5179  0.1807
   95DG     H15 2177   2.365   3.572   3.073  1.0893  0.7749 -0.0967
   95DG     H16 2178   2.316   3.438   2.976  1.0253 -1.2110 -0.0930
   95DG     C17 2179   2.525   3.782   2.785  0.5420  0.5126  0.0163
   95DG     C18 2180   2.406   3.595   2.865  0.5296 -0.0701  0.5349
   95DG     O19 2181   2.503   3.704   2.897 -0.2714 -0.5008 -0.3622
   95DG     H20 2182   2.554   3.725   2.697  0.1067 -1.2151  0.9547
   95DG     H21 2183   2.432   3.836   2.766 -0.9039 -2.3317 -1.5531
   95DG     H22 2184   2.439   3.542   2.776 -0.4810  0.7732 -0.3679
   95DG     H23 2185   2.312   3.643   2.835  1.1340 -0.4042 -2.1664
   96DG      C1 2186   4.973   4.163   3.788 -0.1141 -0.3461 -0.2699
   96DG      C2 2187   5.516   3.889   4.032 -0.3070 -0.4756  0.6602
   96DG      H3 2188   4.879   4.116   3.760 -0.5825 -0.8540  2.0197
   96DG      H4 2189   4.988   4.246   3.718 -3.0240 -1.0404 -1.8825
   96DG      H5 2190   4.976   4.192   3.893  0.5755  0.2977 -0.4500
   96DG      H6 2191   5.573   3.801   4.061 -0.4492 -1.0458 -0.7321
   96DG      H7 2192   5.590   3.955   3.987 -1.9808  1.3381  0.4223
   96DG      H8 2193   5.480   3.937   4.123  1.2929  0.5096  0.8131
   96DG      O9 2194   5.075   4.071   3.768  0.3809 -0.3393 -0.7942
   96DG     O10 2195   5.407   3.864   3.938  0.4036 -0.0379 -0.2310
   96DG     C11 2196   5.111   4.039   3.633 -0.3402 -0.2882 -0.3138
   96DG     C12 2197   5.449   3.818   3.814 -0.2845  0.1080  0.4430
   96DG     H13 2198   5.149   4.131   3.587  0.3279 -0.7320 -0.6645
   96DG     H14 2199   5.038   3.998   3.564 -0.7569  0.2419 -0.1936
   96DG     H15 2200   5.386   3.734   3.786  0.5831 -0.4110  0.0016
   96DG     H16 2201   5.546   3.770   3.820  0.0529  0.4340 -1.5604
   96DG     C17 2202   5.230   3.945   3.637 -0.1817  0.0383  0.1172
   96DG     C18 2203   5.458   3.933   3.714  0.1826  0.0697  0.5814
   96DG     O19 2204   5.340   4.011   3.703 -0.1453 -0.1409 -0.1816
   96DG     H20 2205   5.271   3.916   3.541  0.2239  1.3836 -0.1354
   96DG     H21 2206   5.211   3.850   3.689 -0.5204 -0.5732 -1.0937
   96DG     H22 2207   5.541   3.994   3.752 -0.8171  1.5309  0.5067
   96DG     H23 2208   5.486   3.899   3.614 -0.9451  0.3060  0.1777
   97DG      C1 2209   0.949   3.049   4.988  0.0261  1.1469  0.3516
   97DG      C2 2210   1.255   3.817   5.186 -0.2879  0.1294 -0.3201
   97DG      H3 2211   1.026   3.006   4.924  0.2751 -0.2706  1.5539
   97DG      H4 2212   0.853   3.011   4.953  0.6022 -0.5679  0.5674
   97DG      H5 2213   0.946   3.017   5.092  2.6656 -1.6907 -0.2912
   97DG      H6 2214   1.233   3.915   5.228  0.0711 -0.0539  0.3062
   97DG      H7 2215   1.312   3.774   5.267  2.2667  2.0614 -0.9722
   97DG      H8 2216   1.314   3.842   5.098 -1.2874  1.3604 -0.6758
   97DG      O9 2217   0.946   3.191   4.981 -0.0846  0.0612 -0.6161
   97DG     O10 2218   1.129   3.752   5.170 -0.4250  0.0173 -0.0949
   97DG     C11 2219   0.845   3.260   5.057 -0.5913 -0.3959  0.0648
   97DG     C12 2220   1.129   3.639   5.085 -0.5531  0.7924  0.3786
   97DG     H13 2221   0.858   3.243   5.164  0.3501 -0.6478 -0.0753
   97DG     H14 2222   0.750   3.216   5.028  0.2338 -1.3318 -1.3625
   97DG     H15 2223   1.197   3.564   5.125  0.1089  1.2426  0.1269
   97DG     H16 2224   1.163   3.678   4.988 -1.2843 -0.1665 -0.2789
   97DG     C17 2225   0.845   3.409   5.039  0.3057  0.2300 -0.0499
   97DG     C18 2226   0.986   3.589   5.088  0.2335 -0.2084 -0.0927
   97DG     O19 2227   0.974   3.449   5.072  0.7509 -0.5236 -0.1492
   97DG     H20 2228   0.774   3.461   5.103  1.3550  1.2192  0.3371
   97DG     H21 2229   0.819   3.444   4.939  0.9838 -0.0385 -0.3278
   97DG     H22 2230   0.949   3.615   5.187  2.1140  1.9975  0.1446
   97DG     H23 2231   0.916   3.643   5.025 -2.0847  0.4237  2.7959
   98DG      C1 2232   1.494   1.858   5.261  0.6202 -0.6789 -0.1770
   98DG      C2 2233   1.176   1.406   4.894  0.8067 -0.5064 -0.3950
   98DG      H3 2234   1.550   1.945   5.226  1.5495 -0.2112  2.2551
   98DG      H4 2235   1.520   1.831   5.363 -2.5353  0.1748  0.9675
   98DG      H5 2236   1.390   1.886   5.275  0.9245 -0.0386  0.9804
   98DG      H6 2237   1.106   1.399   4.978  0.1050  0.7794 -0.8491
   98DG      H7 2238   1.124   1.479   4.832  3.4119  3.5003  1.6694
   98DG      H8 2239   1.175   1.314   4.836 -0.7032 -2.0572  1.8856
   98DG      O9 2240   1.495   1.752   5.172  0.5876 -0.0339  0.1520
   98DG     O10 2241   1.302   1.447   4.938 -0.1738 -0.3750 -0.7950
   98DG     C11 2242   1.627   1.736   5.111  0.3106 -0.3148 -0.8016
   98DG     C12 2243   1.390   1.463   4.825  0.2423 -0.3860 -0.0326
   98DG     H13 2244   1.700   1.742   5.192 -1.9234  0.4759  1.2809
   98DG     H14 2245   1.642   1.813   5.036  0.7804  1.5890  1.1361
   98DG     H15 2246   1.368   1.555   4.771 -1.0814  0.7023  2.2093
   98DG     H16 2247   1.399   1.376   4.760 -0.0173 -0.1490 -0.3905
   98DG     C17 2248   1.637   1.601   5.037  0.0046  0.1887 -0.3230
   98DG     C18 2249   1.527   1.479   4.878  0.6420  0.1162  0.4521
   98DG     O19 2250   1.522   1.594   4.961 -0.0622 -0.0510 -0.0817
   98DG     H20 2251   1.644   1.510   5.097 -0.8297 -0.7789 -1.6370
   98DG     H21 2252   1.726   1.590   4.977 -0.5661  1.0901 -1.3722
   98DG     H22 2253   1.550   1.385   4.927 -2.6631  0.1121  2.2619
   98DG     H23 2254   1.597   1.476   4.794 -0.6470 -0.5332 -0.6291
   99DG      C1 2255   0.989   4.910   1.436 -0.3121  0.1998  0.2390
   99DG      C2 2256   1.504   4.602   1.147  0.0285 -0.2048 -0.8224
   99DG      H3 2257   1.018   4.921   1.540 -1.5439  0.0266  0.6191
   99DG      H4 2258   0.880   4.916   1.427 -0.4251 -0.7895  0.7892
   99DG      H5 2259   1.020   5.004   1.391 -1.4227  0.8387  0.7643
   99DG      H6 2260   1.570   4.604   1.234 -1.6746 -0.6429  0.5223
   99DG      H7 2261   1.533   4.533   1.068 -1.9367 -2.6553  0.4537
   99DG      H8 2262   1.506   4.698   1.095  1.7729  0.3317  0.1580
   99DG      O9 2263   1.043   4.793   1.375 -0.0477  0.4634 -0.1427
   99DG     O10 2264   1.371   4.592   1.188  0.0585 -0.0769  0.0578
   99DG     C11 2265   0.974   4.674   1.409 -0.4557  0.1076 -0.0969
   99DG     C12 2266   1.323   4.459   1.169 -1.0309  0.7976  0.1003
   99DG     H13 2267   0.867   4.696   1.417 -0.0009  2.4206  0.3496
   99DG     H14 2268   1.007   4.650   1.510  1.4468 -0.4430 -0.8059
   99DG     H15 2269   1.391   4.400   1.230 -0.2475 -0.7240 -2.0908
   99DG     H16 2270   1.341   4.429   1.065 -2.5337  0.9948 -0.2399
   99DG     C17 2271   1.007   4.562   1.311 -0.6229  0.4996  0.1480
   99DG     C18 2272   1.177   4.436   1.206 -0.2493  0.8170  0.2260
   99DG     O19 2273   1.143   4.522   1.312 -0.0391  0.1425 -0.4417
   99DG     H20 2274   0.985   4.596   1.210  1.4288 -2.9181 -1.6455
   99DG     H21 2275   0.950   4.470   1.326  0.0470 -0.0748 -0.7173
   99DG     H22 2276   1.119   4.455   1.116 -0.0798  0.8000  0.1136
   99DG     H23 2277   1.153   4.334   1.235 -2.5485  0.6777 -1.8075
  100DG      C1 2278   0.246   2.186   3.967 -0.2742 -0.1437  0.4245
  100DG      C2 2279   0.090   2.168   3.408 -0.6329  0.7412  0.2465
  100DG      H3 2280   0.270   2.259   4.044 -1.4914 -0.0806  0.7599
  100DG      H4 2281   0.287   2.094   4.009 -0.3575  0.3050  1.5077
  100DG      H5 2282   0.138   2.173   3.966 -0.0534 -2.7594  1.3746
  100DG      H6 2283   0.010   2.095   3.415 -0.1552  0.0918 -0.8406
  100DG      H7 2284   0.074   2.215   3.506  1.8559  0.1053  1.0449
  100DG      H8 2285   0.077   2.238   3.325  0.0849  0.0157 -0.4932
  100DG      O9 2286   0.306   2.213   3.838 -0.1259  0.0007  1.1347
  100DG     O10 2287   0.218   2.102   3.413 -0.5636 -0.2225  0.5607
  100DG     C11 2288   0.272   2.347   3.802 -0.4271  0.0740 -0.3801
  100DG     C12 2289   0.324   2.178   3.363  0.3294  0.2293 -0.1836
  100DG     H13 2290   0.306   2.418   3.878  1.3752 -0.2975 -0.7988
  100DG     H14 2291   0.166   2.362   3.780 -1.1456 -3.6194 -0.0364
  100DG     H15 2292   0.317   2.207   3.258 -0.0836 -0.1151 -0.2509
  100DG     H16 2293   0.415   2.119   3.360 -1.1703 -2.1597 -1.5996
  100DG     C17 2294   0.364   2.369   3.684  0.2215 -0.1032 -0.3460
  100DG     C18 2295   0.351   2.301   3.453  0.6458  0.5430 -0.4144
  100DG     O19 2296   0.324   2.268   3.589 -0.2617  0.2805  0.8468
  100DG     H20 2297   0.472   2.363   3.698  0.4808  2.1929 -0.9902
  100DG     H21 2298   0.348   2.472   3.654 -0.3401 -0.0132  0.2323
  100DG     H22 2299   0.449   2.348   3.444  0.6652  0.5246 -0.2995
  100DG     H23 2300   0.284   2.384   3.429  0.9575  1.2893  1.1615
  101DG      C1 2301   1.785   2.438   1.355  0.0711 -0.0347 -0.7102
  101DG      C2 2302   1.494   2.276   1.945  0.1091  0.3450  0.1917
  101DG      H3 2303   1.870   2.383   1.396 -1.8358 -0.8022  2.5954
  101DG      H4 2304   1.813   2.507   1.275  1.2789 -0.4404 -0.6667
  101DG      H5 2305   1.706   2.371   1.319  0.8726 -1.7521  0.5689
  101DG      H6 2306   1.429   2.297   2.030 -0.7814 -0.7099 -0.1942
  101DG      H7 2307   1.432   2.212   1.882  2.0318  0.3010 -1.7722
  101DG      H8 2308   1.577   2.211   1.973  1.1732  1.5508 -0.0838
  101DG      O9 2309   1.744   2.507   1.470  0.7736 -0.3127  0.5367
  101DG     O10 2310   1.547   2.395   1.907  0.0864 -0.8209 -0.2040
  101DG     C11 2311   1.635   2.596   1.460 -0.5286  0.1503  0.3850
  101DG     C12 2312   1.448   2.494   1.873 -0.0894 -0.2659  0.4261
  101DG     H13 2313   1.544   2.544   1.430 -0.6235  1.2177 -1.3627
  101DG     H14 2314   1.648   2.672   1.383 -1.1785 -0.2615 -0.1419
  101DG     H15 2315   1.383   2.537   1.949 -1.4157  2.3954 -2.0039
  101DG     H16 2316   1.387   2.439   1.801  0.3133 -3.4356  2.3564
  101DG     C17 2317   1.608   2.664   1.593 -0.6324  0.5333 -0.3954
  101DG     C18 2318   1.523   2.619   1.805  0.6805 -0.0176 -0.1390
  101DG     O19 2319   1.578   2.566   1.688 -0.2668  0.8284  0.5710
  101DG     H20 2320   1.525   2.724   1.555 -1.7307 -0.2872  0.6501
  101DG     H21 2321   1.678   2.739   1.632 -1.2143  0.7878  0.1696
  101DG     H22 2322   1.460   2.704   1.777 -0.4044 -0.9547 -0.6253
  101DG     H23 2323   1.598   2.661   1.872 -0.1639  0.7650  0.3425
  102DG      C1 2324   5.264   1.546   4.040 -0.0045  0.0388  0.0445
  102DG      C2 2325   5.707   1.114   4.364 -0.2796 -0.6560  0.1203
  102DG      H3 2326   5.239   1.581   4.140  0.6192 -0.9107  0.5481
  102DG      H4 2327   5.164   1.546   3.997 -1.4088 -1.6557  3.0020
  102DG      H5 2328   5.314   1.616   3.974  0.0398  0.2501  0.2998
  102DG      H6 2329   5.656   1.127   4.460 -1.3559 -0.2903 -0.4807
  102DG      H7 2330   5.767   1.024   4.375 -0.1256 -0.5049  0.5417
  102DG      H8 2331   5.775   1.199   4.356 -0.1966 -0.8478 -1.3598
  102DG      O9 2332   5.318   1.414   4.051  0.0048 -0.5923 -0.3745
  102DG     O10 2333   5.609   1.108   4.260  0.4213 -0.2108  0.0762
  102DG     C11 2334   5.228   1.308   4.002 -0.0728  0.5674  0.3148
  102DG     C12 2335   5.502   1.021   4.289  0.6387 -0.8811  0.1524
  102DG     H13 2336   5.196   1.328   3.900  0.5747 -2.3356 -0.5606
  102DG     H14 2337   5.134   1.308   4.058 -0.6397 -1.4251 -0.5390
  102DG     H15 2338   5.437   1.040   4.374  2.7110  1.2458  1.3912
  102DG     H16 2339   5.548   0.923   4.301 -0.1249 -1.4638 -1.3510
  102DG     C17 2340   5.284   1.175   4.016  0.0620  0.5070  0.4460
  102DG     C18 2341   5.416   1.025   4.153 -0.4253 -0.6026 -0.1052
  102DG     O19 2342   5.365   1.158   4.132 -0.1913  0.9475  0.1466
  102DG     H20 2343   5.344   1.158   3.927 -1.0639 -0.6580 -0.1249
  102DG     H21 2344   5.209   1.096   4.016 -0.2205  0.7744  0.6638
  102DG     H22 2345   5.474   1.000   4.065 -0.4921  1.7474 -0.8816
  102DG     H23 2346   5.341   0.947   4.160 -0.2559 -0.6825  0.9495
  103DG      C1 2347   3.499   2.617   1.644  0.2270  0.2023 -0.2372
  103DG      C2 2348   2.971   2.941   1.323 -0.5116 -0.2747  0.4682
  103DG      H3 2349   3.451   2.521   1.625  1.8826 -0.4547 -1.3347
  103DG      H4 2350   3.444   2.641   1.735 -4.4204 -4.1764 -1.4143
  103DG      H5 2351   3.606   2.613   1.660  0.0595  1.6102  1.5237
  103DG      H6 2352   2.941   2.923   1.426 -0.9386  0.1346  0.4190
  103DG      H7 2353   2.938   3.044   1.307 -0.2131  0.1949  2.5903
  103DG      H8 2354   2.921   2.872   1.255 -0.0863 -0.1733  0.0445
  103DG      O9 2355   3.449   2.707   1.542 -0.3868 -0.5014 -0.1240
  103DG     O10 2356   3.109   2.923   1.326 -0.2418 -0.3769 -0.4668
  103DG     C11 2357   3.502   2.669   1.410 -0.3901  0.3248  0.2004
  103DG     C12 2358   3.169   2.935   1.191 -0.5655 -0.3870  0.2098
  103DG     H13 2359   3.448   2.580   1.376  3.1910 -1.9403 -0.2219
  103DG     H14 2360   3.608   2.642   1.410 -0.5714 -0.8877 -2.9432
  103DG     H15 2361   3.149   3.036   1.155  2.1412  0.2894  0.4009
  103DG     H16 2362   3.112   2.879   1.117  0.9674 -0.8301 -0.6900
  103DG     C17 2363   3.480   2.790   1.322 -0.4183 -1.0680 -0.0254
  103DG     C18 2364   3.321   2.916   1.202  0.4289 -0.0131 -0.1452
  103DG     O19 2365   3.342   2.814   1.302 -0.1965  0.6440  0.2439
  103DG     H20 2366   3.520   2.773   1.222 -0.5221  0.7186 -0.4134
  103DG     H21 2367   3.536   2.873   1.365 -2.1703 -1.4265  3.2160
  103DG     H22 2368   3.354   2.860   1.114 -2.0291 -2.2200  0.2031
  103DG     H23 2369   3.383   3.004   1.220  1.1896 -0.5614 -0.0180
  104DG      C1 2370   1.095   0.371   2.204 -0.4535 -0.2960 -0.0218
  104DG      C2 2371   1.448  -0.099   2.545 -0.0047  0.2564 -0.1158
  104DG      H3 2372   1.079   0.389   2.310  0.6735  0.8416 -0.0236
  104DG      H4 2373   0.991   0.354   2.176 -0.4449 -0.6021  0.1354
  104DG      H5 2374   1.133   0.457   2.148  0.8929 -1.2738 -0.6581
  104DG      H6 2375   1.548  -0.057   2.531  0.3568 -0.5124  0.1281
  104DG      H7 2376   1.399  -0.053   2.630  1.4739 -0.1057  0.9755
  104DG      H8 2377   1.455  -0.205   2.571  1.0692  0.5872  0.9942
  104DG      O9 2378   1.167   0.251   2.191 -0.1664  0.2809  0.3549
  104DG     O10 2379   1.370  -0.071   2.429 -0.1147  0.4443 -0.1172
  104DG     C11 2380   1.190   0.191   2.065  0.1954  0.3947 -0.1977
  104DG     C12 2381   1.398  -0.157   2.318  0.1921 -0.6046  0.2370
  104DG     H13 2382   1.286   0.227   2.027  0.6217  0.4691  0.8874
  104DG     H14 2383   1.112   0.211   1.992 -0.1648 -0.9088 -0.1940
  104DG     H15 2384   1.405  -0.263   2.338 -1.4441 -0.6455  0.7113
  104DG     H16 2385   1.502  -0.138   2.292  0.6226  0.4506  2.5319
  104DG     C17 2386   1.203   0.034   2.070  0.3434  0.5125  0.1633
  104DG     C18 2387   1.307  -0.127   2.194 -0.9202  0.4045 -0.3184
  104DG     O19 2388   1.302   0.012   2.161  0.1807  0.0493  0.5443
  104DG     H20 2389   1.234  -0.014   1.978  2.3311 -0.7314  1.4099
  104DG     H21 2390   1.107  -0.010   2.098 -0.5012 -1.1205 -4.5114
  104DG     H22 2391   1.340  -0.184   2.107  1.2046  2.9191 -1.2968
  104DG     H23 2392   1.216  -0.174   2.231 -1.3502  1.4376 -0.0190
  105DG      C1 2393   0.241   1.646   5.286 -0.2884  0.1453  0.7419
  105DG      C2 2394   0.693   2.147   5.612  0.5519 -0.0008  0.1815
  105DG      H3 2395   0.146   1.593   5.282 -0.0732 -0.1751 -1.0016
  105DG      H4 2396   0.313   1.586   5.342  0.3757  2.0289  2.0014
  105DG      H5 2397   0.267   1.636   5.180 -0.9537 -1.4089  0.6877
  105DG      H6 2398   0.713   2.070   5.538 -0.1795 -0.9038  0.8999
  105DG      H7 2399   0.726   2.244   5.573  0.2114 -0.0782 -0.3048
  105DG      H8 2400   0.737   2.137   5.711 -0.7134 -0.7584  0.6869
  105DG      O9 2401   0.235   1.774   5.344 -0.7559  0.3852 -0.2971
  105DG     O10 2402   0.551   2.150   5.634  0.3757 -0.2471 -0.1186
  105DG     C11 2403   0.180   1.774   5.472  0.2492 -0.1019  0.2512
  105DG     C12 2404   0.476   2.166   5.518 -0.6542  0.8050 -0.0104
  105DG     H13 2405   0.233   1.706   5.538 -0.8382 -0.0643  1.1861
  105DG     H14 2406   0.079   1.733   5.476 -0.0322  0.6280  0.9333
  105DG     H15 2407   0.526   2.127   5.429  2.0240 -0.4925  1.9396
  105DG     H16 2408   0.461   2.272   5.498  1.1066  1.3910  1.5679
  105DG     C17 2409   0.179   1.922   5.518 -0.5486  0.8503 -0.1462
  105DG     C18 2410   0.333   2.104   5.542 -0.8543  0.3436 -0.8646
  105DG     O19 2411   0.310   1.968   5.508 -0.6171  0.1893  0.2951
  105DG     H20 2412   0.149   1.921   5.623  0.9476 -0.4059  0.3157
  105DG     H21 2413   0.109   1.976   5.454 -0.5810 -1.9837 -2.7256
  105DG     H22 2414   0.285   2.134   5.635 -0.0885 -0.1120 -0.3132
  105DG     H23 2415   0.276   2.167   5.473 -0.8296  0.9027 -0.3800
  106DG      C1 2416   4.916   4.123   0.731  0.8076  0.0117 -0.2498
  106DG      C2 2417   5.198   3.938   1.274  0.1224 -0.3350 -0.3571
  106DG      H3 2418   4.883   4.217   0.687  0.8266 -0.9168 -2.3530
  106DG      H4 2419   4.824   4.070   0.755 -0.0302  1.7656  0.5914
  106DG      H5 2420   4.966   4.065   0.653  1.0443 -1.1531  0.7417
  106DG      H6 2421   5.105   3.884   1.254 -1.1576  2.4982 -2.9400
  106DG      H7 2422   5.266   3.877   1.333  1.3201  0.7605 -0.5684
  106DG      H8 2423   5.179   4.023   1.339  2.5748  0.0055  0.0083
  106DG      O9 2424   5.003   4.145   0.845  0.1782  0.1835  0.3526
  106DG     O10 2425   5.249   4.000   1.160 -0.0046  0.1482  0.3569
  106DG     C11 2426   5.090   4.261   0.825  0.2311 -0.7792  0.0252
  106DG     C12 2427   5.357   4.088   1.184  0.3921 -0.2536  1.1232
  106DG     H13 2428   5.052   4.353   0.779  1.5385  0.5451  1.4704
  106DG     H14 2429   5.167   4.230   0.754  0.1375 -1.0744  0.0536
  106DG     H15 2430   5.437   4.038   1.128  0.4029 -0.4191  1.2825
  106DG     H16 2431   5.388   4.099   1.288  0.3603 -2.7297  1.4712
  106DG     C17 2432   5.164   4.300   0.956  0.4856  0.1131 -0.0249
  106DG     C18 2433   5.313   4.226   1.127 -0.0530 -0.0379 -0.2616
  106DG     O19 2434   5.249   4.200   1.003 -0.3731  0.2729 -0.0330
  106DG     H20 2435   5.102   4.337   1.038  2.2971  0.7167  1.1176
  106DG     H21 2436   5.215   4.392   0.929 -0.5555  0.0592 -2.3796
  106DG     H22 2437   5.239   4.264   1.198  1.0022  0.9385  0.3611
  106DG     H23 2438   5.396   4.297   1.131  0.5656 -0.7968  1.4501
  107DG      C1 2439   0.909   3.119   0.057 -0.2293 -0.5855  0.0138
  107DG      C2 2440   1.231   2.618   0.271  0.4443 -0.2879  0.2013
  107DG      H3 2441   0.967   3.146   0.145 -0.9608  2.0400 -0.2294
  107DG      H4 2442   0.801   3.118   0.077  0.1309 -0.8985  2.2404
  107DG      H5 2443   0.928   3.192  -0.021 -0.9962  0.6113  0.9042
  107DG      H6 2444   1.338   2.630   0.285  0.2194  1.1782  0.8287
  107DG      H7 2445   1.182   2.665   0.357 -0.7070  0.8949 -1.0667
  107DG      H8 2446   1.207   2.512   0.262  0.8626 -0.4378  0.8030
  107DG      O9 2447   0.963   3.000   0.012 -0.2109 -0.0691  0.3454
  107DG     O10 2448   1.171   2.682   0.157  0.1596 -0.6204 -0.5671
  107DG     C11 2449   0.884   2.951  -0.088 -0.4165  0.5242 -0.4567
  107DG     C12 2450   1.195   2.620   0.037 -0.3251  0.3928  1.0835
  107DG     H13 2451   0.837   3.019  -0.160 -1.8506  2.6210  2.2691
  107DG     H14 2452   0.805   2.899  -0.033 -0.0449  0.4606  0.0268
  107DG     H15 2453   1.157   2.518   0.037  0.1138  0.2079 -0.3115
  107DG     H16 2454   1.304   2.617   0.027 -0.5072  1.7855 -2.9626
  107DG     C17 2455   0.965   2.844  -0.164 -0.0778 -0.7381  1.1590
  107DG     C18 2456   1.148   2.712  -0.081 -0.1382  0.1617 -0.4639
  107DG     O19 2457   1.013   2.752  -0.068 -0.0538 -0.7100  0.4961
  107DG     H20 2458   1.050   2.892  -0.214 -1.6284  0.5234 -0.3768
  107DG     H21 2459   0.911   2.794  -0.244 -1.1162  1.6238  0.2684
  107DG     H22 2460   1.193   2.808  -0.057 -0.3041 -0.1299  1.1589
  107DG     H23 2461   1.173   2.682  -0.183  0.9080 -1.7378  0.3083
  108DG      C1 2462   0.328   3.704   4.565 -0.1788 -0.1490  0.0555
  108DG      C2 2463   0.779   3.198   4.678  0.4670 -0.8525  0.1931
  108DG      H3 2464   0.344   3.655   4.469 -0.4925  0.4553 -0.3110
  108DG      H4 2465   0.408   3.778   4.565  0.7589 -1.1155 -1.1663
  108DG      H5 2466   0.234   3.756   4.582  0.2523  0.7559 -0.2546
  108DG      H6 2467   0.855   3.275   4.672 -0.6100  0.2414  0.3391
  108DG      H7 2468   0.814   3.117   4.742 -0.5144  0.5066  2.5403
  108DG      H8 2469   0.773   3.167   4.573 -0.0845  0.5122 -0.1946
  108DG      O9 2470   0.353   3.594   4.649  0.5166 -0.7092 -0.6131
  108DG     O10 2471   0.646   3.232   4.718 -0.4801 -0.2038 -0.2433
  108DG     C11 2472   0.250   3.490   4.633  0.5777  0.0897  0.7194
  108DG     C12 2473   0.546   3.131   4.715 -0.8062 -0.4023  0.1861
  108DG     H13 2474   0.233   3.452   4.533 -3.9554  2.0580  0.4975
  108DG     H14 2475   0.158   3.544   4.657  1.1978  1.3332  0.3600
  108DG     H15 2476   0.564   3.036   4.766 -2.3534 -1.2371 -0.7376
  108DG     H16 2477   0.531   3.107   4.609 -3.6850  1.7575 -0.0202
  108DG     C17 2478   0.275   3.378   4.745  0.0786  0.3300 -0.1313
  108DG     C18 2479   0.421   3.187   4.766  0.0081 -0.1102 -0.5754
  108DG     O19 2480   0.397   3.310   4.703 -0.0499  0.4235 -0.5398
  108DG     H20 2481   0.191   3.308   4.745  1.1721 -1.0187  0.6936
  108DG     H21 2482   0.283   3.415   4.847 -2.0798 -0.5931  0.4488
  108DG     H22 2483   0.330   3.131   4.750 -0.7884  1.9430 -4.2649
  108DG     H23 2484   0.433   3.205   4.873 -4.5127 -0.3921  0.1579
  109DG      C1 2485   5.065   1.094   0.218  0.0145 -0.3358 -0.0383
  109DG      C2 2486   5.769   1.115   0.240 -0.0602  0.6913 -0.3701
  109DG      H3 2487   5.070   1.168   0.299 -1.2740  0.0146 -0.2631
  109DG      H4 2488   5.078   0.994   0.258  2.0375  0.7668  2.4204
  109DG      H5 2489   4.966   1.104   0.173 -0.2660  0.0572  0.6463
  109DG      H6 2490   5.866   1.138   0.196  0.1875 -0.3001 -0.3648
  109DG      H7 2491   5.752   1.164   0.336  0.2396 -1.6317  0.9581
  109DG      H8 2492   5.769   1.007   0.258 -0.9257  0.9508  1.4576
  109DG      O9 2493   5.184   1.135   0.149  0.5669 -0.1217  0.2692
  109DG     O10 2494   5.666   1.149   0.156 -0.1294 -0.2656  0.1496
  109DG     C11 2495   5.175   1.267   0.097  0.2830 -0.0699  0.1208
  109DG     C12 2496   5.654   1.290   0.137  0.3397  0.1731 -0.2519
  109DG     H13 2497   5.148   1.336   0.176  1.0429  0.2969  0.0617
  109DG     H14 2498   5.087   1.263   0.032 -0.5747  0.3177  1.2267
  109DG     H15 2499   5.744   1.342   0.105 -0.1763  3.0584  2.4767
  109DG     H16 2500   5.633   1.331   0.236  1.8380 -1.2521  0.7058
  109DG     C17 2501   5.297   1.309   0.016 -0.6094 -0.0007  0.3228
  109DG     C18 2502   5.535   1.311   0.036 -0.3358 -0.3884  0.8530
  109DG     O19 2503   5.411   1.272   0.094 -0.3916 -0.5109 -0.8525
  109DG     H20 2504   5.289   1.413  -0.017  0.1411  0.3097  1.0812
  109DG     H21 2505   5.309   1.242  -0.069 -1.3752 -0.5677  0.6559
  109DG     H22 2506   5.529   1.417   0.011  0.2434 -0.7460 -0.9418
  109DG     H23 2507   5.547   1.258  -0.058 -0.6769 -1.0511  1.1692
  110DG      C1 2508   4.860   3.005   2.394 -0.2023  0.5882  0.5824
  110DG      C2 2509   4.643   3.021   1.797 -0.3456 -0.1815  0.3771
  110DG      H3 2510   4.797   3.093   2.403 -0.0319  0.5969  1.8524
  110DG      H4 2511   4.961   3.039   2.370  0.0371  0.8153  1.8537
  110DG      H5 2512   4.869   2.959   2.492 -0.7444 -0.0997  0.3151
  110DG      H6 2513   4.577   3.100   1.834  0.8024  1.5883 -1.1548
  110DG      H7 2514   4.742   3.065   1.781  0.0277 -0.8882  0.6997
  110DG      H8 2515   4.602   2.979   1.706  1.5373  0.8463 -1.0147
  110DG      O9 2516   4.805   2.908   2.296 -0.1677 -0.3282  0.1634
  110DG     O10 2517   4.657   2.913   1.887 -0.0173  0.6483 -0.4044
  110DG     C11 2518   4.678   2.869   2.335 -0.2360  0.4021  0.6450
  110DG     C12 2519   4.548   2.824   1.882 -0.7165 -0.8694  0.0869
  110DG     H13 2520   4.616   2.955   2.308  0.7009  0.3035 -2.1264
  110DG     H14 2521   4.664   2.844   2.440  1.2044 -0.0871  0.7385
  110DG     H15 2522   4.550   2.769   1.788  1.0955 -0.3817 -0.1788
  110DG     H16 2523   4.454   2.880   1.891 -0.2125  0.0410 -0.1536
  110DG     C17 2524   4.616   2.762   2.243 -0.0336  0.4615  0.4980
  110DG     C18 2525   4.559   2.744   2.012 -0.4866 -0.3315 -0.1242
  110DG     O19 2526   4.598   2.829   2.114  0.1856 -0.6528  0.1882
  110DG     H20 2527   4.518   2.730   2.278 -0.1957  1.4770  1.0110
  110DG     H21 2528   4.682   2.676   2.241  0.3405  0.7558 -1.2919
  110DG     H22 2529   4.467   2.694   2.042 -1.8344  2.4219  0.7137
  110DG     H23 2530   4.632   2.664   2.000  0.6708  0.5989  0.4863
  111DG      C1 2531   1.701   1.857   3.997 -0.0205 -0.2880  0.7582
  111DG      C2 2532   2.064   1.881   4.568  0.0990 -0.0433  0.3449
  111DG      H3 2533   1.634   1.938   4.027 -0.9508 -1.0286  0.7044
  111DG      H4 2534   1.637   1.796   3.934  0.9127 -3.0306  2.3103
  111DG      H5 2535   1.782   1.899   3.937 -1.4762  1.5864  0.0206
  111DG      H6 2536   2.057   1.983   4.529 -0.2102 -0.8037 -1.7549
  111DG      H7 2537   2.030   1.887   4.671 -0.3811 -2.4051  0.3767
  111DG      H8 2538   2.168   1.861   4.544 -0.0252  1.1396 -1.3724
  111DG      O9 2539   1.740   1.775   4.105  0.2444 -0.4486  0.1166
  111DG     O10 2540   1.978   1.794   4.493  0.1984 -0.1461  0.4905
  111DG     C11 2541   1.846   1.687   4.063 -0.3760  0.0120  0.0540
  111DG     C12 2542   1.990   1.654   4.522  0.4970 -0.5547  0.1027
  111DG     H13 2543   1.936   1.746   4.045 -0.7894  0.2136 -1.4174
  111DG     H14 2544   1.824   1.644   3.966  0.9401 -0.2743 -0.1365
  111DG     H15 2545   1.952   1.639   4.623 -3.4247  0.6406 -1.0114
  111DG     H16 2546   2.095   1.625   4.534  0.0129 -2.4730 -0.1369
  111DG     C17 2547   1.869   1.593   4.186 -0.8236  0.0235  0.5319
  111DG     C18 2548   1.931   1.572   4.413  0.0800 -0.7359 -0.1224
  111DG     O19 2549   1.945   1.645   4.289 -0.8952  0.3068  0.0502
  111DG     H20 2550   1.918   1.504   4.146  1.4101  1.9620 -1.3446
  111DG     H21 2551   1.777   1.556   4.231 -0.4541 -0.0099  1.2734
  111DG     H22 2552   1.963   1.468   4.410 -0.3734 -0.8877 -3.8748
  111DG     H23 2553   1.825   1.579   4.438  0.4822  1.1902  1.3050
  112DG      C1 2554   4.629   2.919   2.974  0.3738  1.2080 -0.1341
  112DG      C2 2555   4.226   3.348   3.256 -0.1673 -0.2945 -0.0693
  112DG      H3 2556   4.604   2.827   3.026  0.1482  1.7029  0.6519
  112DG      H4 2557   4.721   2.892   2.922 -0.3330 -0.2804 -0.6673
  112DG      H5 2558   4.547   2.933   2.904 -2.8557 -0.7782  2.9600
  112DG      H6 2559   4.177   3.434   3.211  1.1467  0.8132  0.5256
  112DG      H7 2560   4.168   3.261   3.225  1.5793 -0.6912 -2.5348
  112DG      H8 2561   4.221   3.364   3.363 -1.8932 -0.2806 -0.1255
  112DG      O9 2562   4.638   3.020   3.077 -1.0217 -0.2610  0.7076
  112DG     O10 2563   4.363   3.325   3.211 -0.2312  0.4351 -0.3713
  112DG     C11 2564   4.703   3.130   3.017  0.3409 -0.7910  0.5940
  112DG     C12 2565   4.433   3.440   3.178  0.0656 -0.6072  0.3076
  112DG     H13 2566   4.634   3.172   2.944  0.5577 -2.0604 -0.3701
  112DG     H14 2567   4.780   3.098   2.948 -1.1679 -1.0267 -1.0583
  112DG     H15 2568   4.454   3.493   3.271 -0.7220 -0.5698  0.4753
  112DG     H16 2569   4.364   3.501   3.119  0.2264  1.3553  2.0121
  112DG     C17 2570   4.735   3.248   3.112  0.0910 -1.1202  0.8326
  112DG     C18 2571   4.560   3.402   3.097  0.0299 -0.0208 -0.8919
  112DG     O19 2572   4.618   3.295   3.172  0.1817 -0.5092 -0.2453
  112DG     H20 2573   4.791   3.324   3.058 -0.3269 -0.7974  0.8448
  112DG     H21 2574   4.808   3.204   3.180  0.3509  1.1634  2.1341
  112DG     H22 2575   4.529   3.371   2.997 -0.3954 -0.6617 -0.5676
  112DG     H23 2576   4.623   3.490   3.088  2.6076 -1.5405  0.9198
  113DG      C1 2577   1.787   1.994   0.643 -0.0633  0.2614  0.2599
  113DG      C2 2578   1.684   1.259   0.342 -0.0031 -0.4522  0.0097
  113DG      H3 2579   1.709   2.043   0.585  0.1171 -1.3119 -1.3750
  113DG      H4 2580   1.866   2.069   0.653  2.4580 -2.3308  1.2093
  113DG      H5 2581   1.741   1.971   0.739 -0.5239 -0.4214 -0.1195
  113DG      H6 2582   1.615   1.278   0.260 -0.4246  1.9828  0.8429
  113DG      H7 2583   1.736   1.165   0.320 -0.8992 -1.1965  0.9371
  113DG      H8 2584   1.615   1.257   0.427  1.0696 -0.1887  0.9061
  113DG      O9 2585   1.847   1.869   0.598 -0.4640  0.0677  0.2537
  113DG     O10 2586   1.769   1.375   0.370  0.1862 -0.3514  0.4614
  113DG     C11 2587   1.912   1.852   0.476 -0.4404 -0.4114  0.6208
  113DG     C12 2588   1.863   1.366   0.478  0.4530  0.1051  0.2868
  113DG     H13 2589   1.988   1.929   0.466 -2.6433  2.1110  1.9762
  113DG     H14 2590   1.840   1.866   0.395 -0.2770 -1.7933  0.2048
  113DG     H15 2591   1.920   1.274   0.468 -1.8737 -1.3437 -0.4284
  113DG     H16 2592   1.811   1.362   0.573 -3.9298 -0.7801 -1.8597
  113DG     C17 2593   1.986   1.720   0.472  0.3729 -0.2228  0.0177
  113DG     C18 2594   1.960   1.485   0.473  0.0208 -0.1695  0.3562
  113DG     O19 2595   1.893   1.612   0.483  0.5566  0.1117 -0.4298
  113DG     H20 2596   2.050   1.715   0.560  1.6513  0.2057 -0.8685
  113DG     H21 2597   2.044   1.705   0.381  0.6628 -0.9469  0.3123
  113DG     H22 2598   2.027   1.467   0.557 -0.9694  0.4113  1.2972
  113DG     H23 2599   2.011   1.481   0.377 -1.1225  2.2316 -0.4216
  114DG      C1 2600   1.488   0.025   0.373 -0.4132 -0.1752 -0.6079
  114DG      C2 2601   1.513   0.384   0.946 -0.1009 -0.8473  0.6040
  114DG      H3 2602   1.507  -0.072   0.421  0.1683  0.4997  0.5737
  114DG      H4 2603   1.582   0.058   0.329  0.8512  0.0234  2.0306
  114DG      H5 2604   1.404   0.003   0.307 -1.1256  1.5246 -0.3243
  114DG      H6 2605   1.467   0.362   1.042 -1.3125 -1.0961 -0.0093
  114DG      H7 2606   1.610   0.335   0.937  0.4238  0.4686 -2.3854
  114DG      H8 2607   1.526   0.492   0.954  0.0191 -0.8217  0.1241
  114DG      O9 2608   1.462   0.121   0.471  0.1467 -0.3327 -0.8249
  114DG     O10 2609   1.430   0.341   0.840 -0.4790  0.7655 -0.0257
  114DG     C11 2610   1.410   0.242   0.416  0.1636  0.2029 -0.6819
  114DG     C12 2611   1.316   0.425   0.822  0.0707 -0.3270  0.1636
  114DG     H13 2612   1.327   0.225   0.347  1.5829 -1.0269 -2.1503
  114DG     H14 2613   1.491   0.290   0.362  2.7272  0.0374  2.6530
  114DG     H15 2614   1.344   0.527   0.794 -0.1132 -0.6493 -1.2946
  114DG     H16 2615   1.253   0.434   0.911 -1.2782  0.2446 -0.8079
  114DG     C17 2616   1.372   0.342   0.526 -0.0072 -0.2635 -0.1999
  114DG     C18 2617   1.226   0.356   0.718  0.3920  0.2611 -0.6296
  114DG     O19 2618   1.284   0.273   0.619 -0.1525  0.3564 -0.0102
  114DG     H20 2619   1.330   0.432   0.482  0.0466 -0.8256 -1.4445
  114DG     H21 2620   1.466   0.361   0.577  0.0754 -0.6417 -0.2046
  114DG     H22 2621   1.166   0.288   0.779 -1.0503  0.0840 -2.1875
  114DG     H23 2622   1.148   0.426   0.687  0.3983  0.9952  0.8784
  115DG      C1 2623   2.779   4.324   0.803  0.0971  0.1648 -0.6557
  115DG      C2 2624   3.185   4.609   0.295  0.3057  0.0575 -0.3425
  115DG      H3 2625   2.725   4.231   0.820  0.4311 -0.1493 -1.2633
  115DG      H4 2626   2.724   4.392   0.868 -0.6776 -0.3184 -0.7881
  115DG      H5 2627   2.880   4.304   0.838 -0.6107 -3.9266 -0.5410
  115DG      H6 2628   3.215   4.627   0.192  2.5557 -1.2175  0.0234
  115DG      H7 2629   3.156   4.705   0.339 -0.1592  0.0806 -0.6959
  115DG      H8 2630   3.269   4.572   0.353  2.1125 -1.1306 -3.4619
  115DG      O9 2631   2.770   4.369   0.679 -0.1318 -0.0563  0.6392
  115DG     O10 2632   3.072   4.523   0.307 -0.0862 -0.2055 -0.1693
  115DG     C11 2633   2.795   4.266   0.580 -0.0637  0.0244 -0.7164
  115DG     C12 2634   2.958   4.581   0.243  0.4301 -0.2809  0.8377
  115DG     H13 2635   2.727   4.184   0.605 -1.5475  1.7935  1.4576
  115DG     H14 2636   2.901   4.244   0.593  0.0719 -0.7894 -2.7802
  115DG     H15 2637   2.969   4.587   0.135 -0.9222 -0.2039  0.6923
  115DG     H16 2638   2.921   4.680   0.270  1.0751 -0.0788  0.9983
  115DG     C17 2639   2.764   4.322   0.441 -0.0275 -0.0932 -0.4655
  115DG     C18 2640   2.848   4.474   0.273 -0.3551  0.0521 -0.5445
  115DG     O19 2641   2.867   4.423   0.414  0.3983 -0.3452  0.2544
  115DG     H20 2642   2.664   4.364   0.439 -0.0526 -0.1657 -0.7180
  115DG     H21 2643   2.772   4.240   0.370  1.4358 -0.9002  0.5843
  115DG     H22 2644   2.743   4.499   0.255  0.2631  1.3596 -2.7108
  115DG     H23 2645   2.857   4.389   0.206  2.2144  0.3635 -0.6961
  116DG      C1 2646   1.047   1.287   0.788 -0.6186 -0.1639  0.1863
  116DG      C2 2647   0.721   1.214   0.203  0.5121  0.3096  0.4736
  116DG      H3 2648   1.100   1.230   0.864  0.4884  1.1278  0.4221
  116DG      H4 2649   0.963   1.332   0.841 -0.6619 -0.7897  0.6564
  116DG      H5 2650   1.114   1.370   0.768 -0.8150 -0.2665 -0.9415
  116DG      H6 2651   0.632   1.239   0.260 -0.8148 -2.2571 -0.2897
  116DG      H7 2652   0.767   1.307   0.169  0.8577  0.5501  1.5643
  116DG      H8 2653   0.688   1.159   0.114  1.7566  0.8573 -0.3516
  116DG      O9 2654   1.015   1.214   0.671  0.5504 -0.5546  0.4312
  116DG     O10 2655   0.796   1.142   0.297 -0.4939 -0.4826  0.0802
  116DG     C11 2656   1.131   1.153   0.626 -0.1741 -0.1607  0.2388
  116DG     C12 2657   0.898   1.072   0.234 -0.5637 -0.5947 -0.1729
  116DG     H13 2658   1.191   1.102   0.701  2.1214  0.2432 -1.2214
  116DG     H14 2659   1.205   1.222   0.585  0.6349 -0.3035  1.3853
  116DG     H15 2660   0.972   1.139   0.191 -2.1438  3.1047  2.3607
  116DG     H16 2661   0.865   1.003   0.156 -1.6813 -1.4239  0.9797
  116DG     C17 2662   1.113   1.034   0.527 -0.4007  0.4820  0.9704
  116DG     C18 2663   0.975   0.993   0.339  0.3868 -0.8108  1.0290
  116DG     O19 2664   1.019   1.088   0.433 -0.1910  0.1850 -0.0150
  116DG     H20 2665   1.070   0.947   0.577 -1.6496  1.2110  1.1983
  116DG     H21 2666   1.202   1.009   0.468 -0.1850  1.6881  0.7731
  116DG     H22 2667   0.920   0.908   0.381 -1.7540 -0.0023  0.0351
  116DG     H23 2668   1.060   0.952   0.285  0.0620  0.2139 -0.3153
  117DG      C1 2669   4.429   4.941   4.502 -0.2780  1.1831  0.4918
  117DG      C2 2670   3.924   4.296   4.418  0.3077  0.3238 -0.2816
  117DG      H3 2671   4.515   4.932   4.436  0.1530  0.8160  1.0815
  117DG      H4 2672   4.438   4.860   4.575 -0.0253  2.3332  1.7748
  117DG      H5 2673   4.443   5.040   4.546  0.8440  1.2240  0.0749
  117DG      H6 2674   4.000   4.250   4.356  0.0930 -1.7950  0.9083
  117DG      H7 2675   3.959   4.280   4.520 -0.6718  2.5766  0.4700
  117DG      H8 2676   3.825   4.256   4.397 -0.4535  1.3482  1.1646
  117DG      O9 2677   4.300   4.912   4.449  0.7195 -0.0125 -0.1051
  117DG     O10 2678   3.927   4.435   4.412 -0.3478 -0.5163  0.8642
  117DG     C11 2679   4.265   4.775   4.413 -1.2483 -0.0749  0.0217
  117DG     C12 2680   3.910   4.486   4.277 -0.0440  0.1343 -0.2951
  117DG     H13 2681   4.273   4.705   4.496  0.7564 -0.0648 -0.1022
  117DG     H14 2682   4.342   4.731   4.349  1.8642  1.7173  2.2959
  117DG     H15 2683   3.809   4.474   4.240 -0.3212 -0.4145  0.6187
  117DG     H16 2684   3.976   4.432   4.209 -0.4764 -0.1835 -0.4635
  117DG     C17 2685   4.124   4.775   4.352 -0.4983 -0.8979  0.1453
  117DG     C18 2686   3.948   4.630   4.264  0.1005 -0.1370  0.1785
  117DG     O19 2687   4.086   4.645   4.305  0.1926 -0.8185 -0.0332
  117DG     H20 2688   4.102   4.845   4.270 -0.5631 -0.8733  0.1830
  117DG     H21 2689   4.050   4.794   4.430 -1.5717 -2.5636 -0.4090
  117DG     H22 2690   3.933   4.676   4.167  0.4403  0.5271  0.4353
  117DG     H23 2691   3.892   4.686   4.338  0.2314 -0.6095  0.6492
  118DG      C1 2692   2.483   0.435   5.422 -0.7429  0.5000  0.4215
  118DG      C2 2693   2.505   1.164   5.697  0.2649  0.5593 -0.5620
  118DG      H3 2694   2.431   0.375   5.496 -0.0101 -1.8724 -0.8809
  118DG      H4 2695   2.542   0.372   5.354  1.3858  1.4477  1.2862
  118DG      H5 2696   2.410   0.503   5.378  1.1805  2.7273  0.4440
  118DG      H6 2697   2.491   1.227   5.609 -1.8350  2.0927  0.7819
  118DG      H7 2698   2.414   1.172   5.755 -1.3324  1.2735 -2.9837
  118DG      H8 2699   2.577   1.212   5.764 -0.6644  4.0553 -1.8175
  118DG      O9 2700   2.574   0.514   5.493 -0.4283 -0.0116 -0.2744
  118DG     O10 2701   2.557   1.034   5.666  0.0437 -0.0485  0.6938
  118DG     C11 2702   2.657   0.599   5.427  0.5328 -0.0731  0.0761
  118DG     C12 2703   2.573   0.945   5.776 -0.7924 -0.0022 -0.6011
  118DG     H13 2704   2.590   0.646   5.355  0.5159 -1.7469 -1.0601
  118DG     H14 2705   2.737   0.546   5.375  2.4373 -0.8826  3.5446
  118DG     H15 2706   2.477   0.906   5.811 -0.1329 -2.4952 -1.3795
  118DG     H16 2707   2.628   0.991   5.858  0.1467 -1.4065 -0.4050
  118DG     C17 2708   2.717   0.698   5.523  0.1306 -0.0927 -1.0082
  118DG     C18 2709   2.652   0.823   5.727  0.1457 -0.2354  0.3640
  118DG     O19 2710   2.625   0.785   5.592 -0.1571  0.3826  0.0475
  118DG     H20 2711   2.783   0.770   5.476 -2.0079  2.8214  0.1568
  118DG     H21 2712   2.781   0.642   5.591  0.3939 -0.0759 -1.2388
  118DG     H22 2713   2.752   0.868   5.724 -0.0258  0.1134 -1.4213
  118DG     H23 2714   2.637   0.746   5.802 -3.3030 -1.1248 -1.0613
  119DG      C1 2715   4.107   3.510   1.472  0.2539 -0.2349  0.1568
  119DG      C2 2716   4.010   3.790   0.821  0.1536  0.0540 -0.0806
  119DG      H3 2717   4.024   3.440   1.463  0.3793 -0.4734  0.7866
  119DG      H4 2718   4.118   3.523   1.580 -1.5815  1.4731  0.1945
  119DG      H5 2719   4.203   3.466   1.445  0.3479 -0.1274  0.3128
  119DG      H6 2720   4.049   3.693   0.790  1.4232  0.2923  0.6686
  119DG      H7 2721   3.903   3.795   0.804  0.3428  1.2528 -1.0444
  119DG      H8 2722   4.051   3.882   0.779 -0.1503  0.0345 -0.4213
  119DG      O9 2723   4.088   3.618   1.387 -0.2525  0.0071 -0.6148
  119DG     O10 2724   4.029   3.804   0.959 -0.0022 -1.2908  0.5029
  119DG     C11 2725   3.992   3.709   1.434  0.1528 -0.4784  0.4473
  119DG     C12 2726   4.006   3.937   1.009 -0.7426 -0.5638 -0.2013
  119DG     H13 2727   3.976   3.720   1.542 -1.2028 -0.0842  0.2298
  119DG     H14 2728   3.907   3.656   1.392  0.3576 -0.5906  0.1725
  119DG     H15 2729   3.899   3.958   0.998 -1.1300 -2.8416 -1.7850
  119DG     H16 2730   4.046   4.020   0.951 -1.4568  1.4011  2.0065
  119DG     C17 2731   3.998   3.846   1.366  0.4308  0.6674 -0.1809
  119DG     C18 2732   4.049   3.948   1.155 -0.3039  0.9812  0.5775
  119DG     O19 2733   4.013   3.827   1.229 -0.3972 -0.0923 -1.1954
  119DG     H20 2734   4.080   3.901   1.412 -1.0843  1.8594  1.2277
  119DG     H21 2735   3.917   3.910   1.403  1.1561  0.6572  1.5296
  119DG     H22 2736   4.155   3.970   1.162 -0.0829 -0.2049  1.3960
  119DG     H23 2737   3.999   4.037   1.194  1.1834  0.8917  2.9072
  120DG      C1 2738   5.033   3.934   3.164  0.3321  0.6641  0.8520
  120DG      C2 2739   4.461   3.905   2.930  0.6866 -0.0235  0.4704
  120DG      H3 2740   5.124   3.901   3.213  2.4985  0.1550 -3.0714
  120DG      H4 2741   4.944   3.890   3.209 -0.7725  0.0484 -1.7288
  120DG      H5 2742   5.025   4.041   3.182 -2.0281  0.8771 -0.8914
  120DG      H6 2743   4.381   3.890   2.857  2.2070  0.4588 -1.3935
  120DG      H7 2744   4.432   3.863   3.025 -1.6424  3.3702  1.4418
  120DG      H8 2745   4.469   4.008   2.965 -1.4678 -0.3291  2.0020
  120DG      O9 2746   5.025   3.890   3.024 -0.0984 -0.5057  0.2170
  120DG     O10 2747   4.584   3.861   2.867 -0.7221 -0.0571 -0.1786
  120DG     C11 2748   5.051   3.756   3.004 -0.2793 -0.1242  0.9318
  120DG     C12 2749   4.604   3.722   2.829 -0.2479 -0.2283  0.3845
  120DG     H13 2750   5.011   3.690   3.081 -0.7400 -1.4461 -0.3929
  120DG     H14 2751   5.158   3.739   2.990 -0.0624  1.3898  0.6475
  120DG     H15 2752   4.546   3.713   2.737 -0.3069  4.1978 -0.1944
  120DG     H16 2753   4.573   3.648   2.904 -0.4810 -0.2393  0.2800
  120DG     C17 2754   4.971   3.713   2.881 -0.0371  0.5026  0.3311
  120DG     C18 2755   4.745   3.686   2.799 -0.1909 -0.6974 -0.1937
  120DG     O19 2756   4.829   3.749   2.895 -1.0012  0.1332 -0.4845
  120DG     H20 2757   4.977   3.605   2.864  2.1295  0.5050  0.7506
  120DG     H21 2758   5.000   3.769   2.792 -1.7512  0.2790 -0.3987
  120DG     H22 2759   4.746   3.578   2.813  1.6458 -0.6760  0.0199
  120DG     H23 2760   4.783   3.713   2.700 -0.9001 -1.3466 -0.6509
  121DG      C1 2761   5.379   2.976   3.861 -0.1903  0.4861  0.7982
  121DG      C2 2762   4.933   2.465   4.082  0.3324  0.2532 -0.7726
  121DG      H3 2763   5.452   2.952   3.938 -0.6796 -0.5768  0.9456
  121DG      H4 2764   5.349   3.081   3.870  3.3149  1.5847  1.1403
  121DG      H5 2765   5.417   2.958   3.760  0.4212  1.8461  0.7590
  121DG      H6 2766   5.007   2.452   4.160 -2.2108  0.8328  1.9022
  121DG      H7 2767   4.851   2.496   4.146  0.4003  0.7736 -0.9302
  121DG      H8 2768   4.907   2.364   4.050  0.2911  0.0714 -0.1796
  121DG      O9 2769   5.261   2.899   3.872  0.0681 -0.1838 -0.3144
  121DG     O10 2770   4.969   2.557   3.977  0.4972  0.1228 -0.5624
  121DG     C11 2771   5.149   2.965   3.801  0.4039  0.3001 -0.1629
  121DG     C12 2772   4.858   2.597   3.902  0.5347  0.2405 -0.2899
  121DG     H13 2773   5.176   3.040   3.726  0.1441  0.8659  0.3049
  121DG     H14 2774   5.099   3.032   3.871 -0.0401  0.2781 -0.4521
  121DG     H15 2775   4.792   2.656   3.965  0.2932  1.0014 -1.2205
  121DG     H16 2776   4.806   2.506   3.872  0.4606  0.4880 -0.9203
  121DG     C17 2777   5.060   2.861   3.742 -0.4045 -0.2999 -0.1609
  121DG     C18 2778   4.897   2.684   3.785  0.8235  0.2522 -0.1596
  121DG     O19 2779   5.001   2.764   3.831 -0.2709 -0.1817 -0.5883
  121DG     H20 2780   5.122   2.802   3.675  0.8448  0.5582  0.2168
  121DG     H21 2781   4.988   2.912   3.678  1.1836  1.0922 -0.9017
  121DG     H22 2782   4.925   2.619   3.702 -1.0011 -0.0829 -0.5419
  121DG     H23 2783   4.815   2.745   3.749  0.5846  0.1841  0.2636
  122DG      C1 2784   3.650   4.045   0.721  0.0791  0.2634 -0.0827
  122DG      C2 2785   3.233   3.531   0.518 -0.1237 -0.1534 -0.9163
  122DG      H3 2786   3.591   4.038   0.812 -0.2665 -1.9509 -0.4279
  122DG      H4 2787   3.634   4.146   0.682  1.5163  0.4177 -0.3540
  122DG      H5 2788   3.752   4.053   0.759 -0.3673  2.1477  0.8639
  122DG      H6 2789   3.174   3.521   0.426 -0.0849  1.5518 -1.1662
  122DG      H7 2790   3.267   3.432   0.547  1.0491  0.3343 -0.5705
  122DG      H8 2791   3.181   3.561   0.609  0.6999  0.8677 -0.7685
  122DG      O9 2792   3.621   3.950   0.622 -0.4385  0.6725  0.5916
  122DG     O10 2793   3.335   3.625   0.489  0.1065 -0.4789  0.0152
  122DG     C11 2794   3.703   3.966   0.502  0.0627  0.6925  0.9976
  122DG     C12 2795   3.412   3.595   0.378  0.0015 -0.1000  0.2459
  122DG     H13 2796   3.807   3.940   0.521 -0.2087 -0.0971  1.4531
  122DG     H14 2797   3.705   4.070   0.471 -1.0985  0.3530 -0.3274
  122DG     H15 2798   3.359   3.548   0.295  0.7384 -0.0959 -0.2344
  122DG     H16 2799   3.499   3.535   0.408 -0.0803 -1.3249 -1.7627
  122DG     C17 2800   3.638   3.897   0.386  0.1942 -0.4865  0.9368
  122DG     C18 2801   3.482   3.722   0.329 -0.9075 -0.2223 -0.8229
  122DG     O19 2802   3.561   3.789   0.427  0.2136  0.2245 -0.0017
  122DG     H20 2803   3.706   3.879   0.303 -0.2759 -2.5559  0.9311
  122DG     H21 2804   3.574   3.977   0.349  1.7244  0.2018 -0.3335
  122DG     H22 2805   3.548   3.677   0.254  1.2412  3.6026 -1.4701
  122DG     H23 2806   3.411   3.795   0.290 -0.9863 -0.4328 -1.0756
  123DG      C1 2807   0.511   3.032   2.742 -0.4863  0.1886 -0.1036
  123DG      C2 2808   0.149   2.556   2.420 -0.2793  0.7347 -0.1542
  123DG      H3 2809   0.570   2.948   2.779 -0.0631 -2.1779 -5.2917
  123DG      H4 2810   0.526   3.121   2.803  1.3430  0.5553 -1.0324
  123DG      H5 2811   0.562   3.053   2.649  0.3488  0.1910  0.3430
  123DG      H6 2812   0.187   2.605   2.330  4.5131 -1.8509  0.1208
  123DG      H7 2813   0.204   2.467   2.451 -0.3095  0.6172 -0.4322
  123DG      H8 2814   0.051   2.516   2.399  0.2544 -1.6577  1.5408
  123DG      O9 2815   0.376   2.997   2.731  0.1696  0.5013 -0.6819
  123DG     O10 2816   0.144   2.654   2.522 -0.0274 -0.1365  0.7045
  123DG     C11 2817   0.326   2.955   2.857  0.0315  0.3803 -0.1937
  123DG     C12 2818   0.091   2.609   2.647 -0.3992 -0.6458  0.9655
  123DG     H13 2819   0.314   3.042   2.921 -2.6934 -0.9079  1.1907
  123DG     H14 2820   0.383   2.875   2.905 -1.0893 -0.4705 -0.2333
  123DG     H15 2821   0.164   2.546   2.698  1.5667  1.8824  1.4933
  123DG     H16 2822   0.004   2.545   2.635 -1.1768  0.5458  0.0053
  123DG     C17 2823   0.184   2.906   2.838  0.1516  0.4178  0.0796
  123DG     C18 2824   0.063   2.732   2.734 -0.5200 -0.3254  0.1228
  123DG     O19 2825   0.187   2.802   2.742 -0.2410  0.6281  0.1931
  123DG     H20 2826   0.104   2.976   2.818 -0.2888 -0.4990 -1.5823
  123DG     H21 2827   0.163   2.867   2.937 -2.2057 -0.3701 -0.6668
  123DG     H22 2828  -0.021   2.782   2.685 -0.2176 -1.6680 -1.9001
  123DG     H23 2829   0.041   2.689   2.831  0.7952  1.6433  1.3596
  124DG      C1 2830   1.838   1.356   1.392 -0.2629 -0.3395  0.0372
  124DG      C2 2831   1.923   0.659   1.431 -0.4911  0.5009  0.2006
  124DG      H3 2832   1.742   1.322   1.353  0.5861 -0.2313 -2.3490
  124DG      H4 2833   1.878   1.421   1.314 -0.3013 -0.7765 -0.3549
  124DG      H5 2834   1.819   1.418   1.480 -1.1384 -0.2617 -0.1902
  124DG      H6 2835   1.982   0.590   1.369 -0.5212 -0.4678  1.2209
  124DG      H7 2836   1.926   0.611   1.529 -0.3777  0.9523  0.4220
  124DG      H8 2837   1.826   0.646   1.385  0.3538 -0.1407 -1.4998
  124DG      O9 2838   1.912   1.243   1.415  0.2638  0.0194  0.1175
  124DG     O10 2839   1.979   0.783   1.441  0.0973 -0.1993  0.1478
  124DG     C11 2840   2.006   1.266   1.520  0.7832 -0.3037  0.9187
  124DG     C12 2841   2.094   0.793   1.528  0.3154 -0.1037  0.0050
  124DG     H13 2842   1.969   1.284   1.621 -0.2138 -3.8198  1.3364
  124DG     H14 2843   2.058   1.357   1.491 -0.8043  0.6876  1.0569
  124DG     H15 2844   2.171   0.721   1.499  2.2532  1.7642  0.2873
  124DG     H16 2845   2.057   0.774   1.629 -1.0182  0.6863 -0.3243
  124DG     C17 2846   2.107   1.153   1.532 -0.3212 -0.9739  0.1089
  124DG     C18 2847   2.155   0.932   1.525 -0.6903 -0.0166  0.2623
  124DG     O19 2848   2.057   1.029   1.534  0.1033 -0.3028  0.7149
  124DG     H20 2849   2.163   1.171   1.624  0.1894  0.6026 -0.4626
  124DG     H21 2850   2.176   1.162   1.448 -0.5081  0.1372  0.0527
  124DG     H22 2851   2.224   0.941   1.609 -0.2549  0.8512 -0.1765
  124DG     H23 2852   2.206   0.948   1.430 -2.7600 -1.0823 -1.1216
  125DG      C1 2853   0.469   1.311   1.533 -0.3592 -0.0514  0.0516
  125DG      C2 2854  -0.148   1.347   1.310  0.2567  0.3621  0.4068
  125DG      H3 2855   0.507   1.404   1.575  2.3864 -0.8895 -0.3855
  125DG      H4 2856   0.554   1.255   1.494  1.9524  2.9676  0.4079
  125DG      H5 2857   0.423   1.251   1.612  1.0872 -1.1773  0.0731
  125DG      H6 2858  -0.152   1.256   1.370  0.1792  0.4967  0.6077
  125DG      H7 2859  -0.148   1.425   1.386  0.7245  1.7191 -0.9287
  125DG      H8 2860  -0.233   1.363   1.244  1.3939  0.3889 -1.1001
  125DG      O9 2861   0.379   1.328   1.426 -0.1734  0.0924  0.2360
  125DG     O10 2862  -0.028   1.345   1.236  0.1983 -0.1417 -0.0267
  125DG     C11 2863   0.426   1.411   1.326 -0.5231 -1.1376  0.9159
  125DG     C12 2864  -0.011   1.456   1.153  0.8741 -0.3623  0.1350
  125DG     H13 2865   0.529   1.379   1.305 -1.5536 -3.0645 -1.7815
  125DG     H14 2866   0.421   1.516   1.353 -0.8210 -0.8521 -0.1924
  125DG     H15 2867  -0.029   1.543   1.217  1.0679 -0.6845  0.6282
  125DG     H16 2868  -0.083   1.454   1.072 -1.0648 -1.2491  1.7964
  125DG     C17 2869   0.349   1.394   1.193  0.2094 -0.1662 -0.4496
  125DG     C18 2870   0.135   1.455   1.102  0.6575 -0.2017  0.4292
  125DG     O19 2871   0.214   1.447   1.222 -0.1165 -0.2383  0.2418
  125DG     H20 2872   0.349   1.290   1.159  0.5622 -0.6721  1.0305
  125DG     H21 2873   0.405   1.454   1.121  1.5539 -0.4705  0.3134
  125DG     H22 2874   0.148   1.365   1.042 -1.5204  0.9118 -1.8985
  125DG     H23 2875   0.155   1.537   1.034 -1.4220 -1.1838 -1.4932
  126DG      C1 2876   4.651   4.440   5.175  0.8520  0.3401 -0.1913
  126DG      C2 2877   4.151   3.935   5.210 -0.5637 -0.0220 -0.3934
  126DG      H3 2878   4.585   4.432   5.261 -0.1990  0.4754 -0.9582
  126DG      H4 2879   4.625   4.538   5.135 -1.2547  0.4980  1.4124
  126DG      H5 2880   4.756   4.441   5.203  1.1319  1.4431 -1.1701
  126DG      H6 2881   4.186   3.877   5.296  1.3687  0.0413 -1.0691
  126DG      H7 2882   4.090   4.015   5.251 -1.1088 -0.4193 -0.4217
  126DG      H8 2883   4.087   3.878   5.142 -1.1644  0.4334 -0.2141
  126DG      O9 2884   4.609   4.332   5.092  0.1907  0.3132  0.2263
  126DG     O10 2885   4.258   3.991   5.141 -0.1983  0.1955  0.0377
  126DG     C11 2886   4.698   4.218   5.097 -0.3465 -0.2581 -0.2794
  126DG     C12 2887   4.347   3.898   5.077 -0.6409  0.6113 -0.1520
  126DG     H13 2888   4.712   4.193   5.202  0.4435 -0.9330 -0.5343
  126DG     H14 2889   4.790   4.254   5.050 -0.5552  1.1030  0.2965
  126DG     H15 2890   4.305   3.824   5.009 -0.4695 -0.8526  1.2664
  126DG     H16 2891   4.405   3.837   5.146  0.6108  1.1192 -0.7157
  126DG     C17 2892   4.638   4.105   5.011 -0.3216 -0.2646 -0.7623
  126DG     C18 2893   4.454   3.961   4.994 -0.4085  0.4087  0.1482
  126DG     O19 2894   4.519   4.057   5.065 -0.1073  0.1355 -0.2010
  126DG     H20 2895   4.714   4.028   4.995  1.1016 -0.0808  3.7200
  126DG     H21 2896   4.611   4.148   4.915 -1.8130  1.3889  0.3464
  126DG     H22 2897   4.522   3.879   4.971 -0.7644  0.3448 -0.7195
  126DG     H23 2898   4.416   4.024   4.914 -0.6432  1.2911  0.9393
  127DG      C1 2899   5.230   5.124   2.565 -0.5650  0.3092 -0.5874
  127DG      C2 2900   5.313   5.350   1.987 -0.1826 -0.4964  0.4132
  127DG      H3 2901   5.241   5.058   2.652  2.2701 -1.3699 -2.0610
  127DG      H4 2902   5.123   5.146   2.561 -1.0802 -1.2076  2.2892
  127DG      H5 2903   5.291   5.214   2.577  3.8923 -2.4002 -0.6093
  127DG      H6 2904   5.308   5.312   1.885 -1.3323 -0.7677  0.5512
  127DG      H7 2905   5.225   5.413   2.001 -0.1028  0.1220 -1.6284
  127DG      H8 2906   5.395   5.422   1.987  0.2915 -1.0146 -1.0033
  127DG      O9 2907   5.293   5.060   2.453  1.2137 -0.3987  0.1635
  127DG     O10 2908   5.317   5.240   2.089 -0.0299 -0.1208  0.5622
  127DG     C11 2909   5.219   4.948   2.399  0.0003  0.1328 -0.0008
  127DG     C12 2910   5.426   5.142   2.055 -0.3530 -0.0312  0.2591
  127DG     H13 2911   5.118   4.980   2.374 -0.0305  0.1592  0.1582
  127DG     H14 2912   5.200   4.874   2.477 -1.2911 -1.2270 -1.5027
  127DG     H15 2913   5.528   5.180   2.052  0.3834 -1.8620  0.3810
  127DG     H16 2914   5.414   5.101   1.955 -0.5741  0.0683  0.2427
  127DG     C17 2915   5.298   4.885   2.286  0.0438  0.5406  0.2027
  127DG     C18 2916   5.419   5.031   2.158  0.4228 -0.7900  0.1131
  127DG     O19 2917   5.291   4.980   2.179 -0.1180 -0.1073 -0.1600
  127DG     H20 2918   5.262   4.787   2.255 -0.9703  0.5932  1.1527
  127DG     H21 2919   5.398   4.869   2.327  0.2435 -1.4684 -0.9288
  127DG     H22 2920   5.490   4.953   2.131  2.3716  1.3797 -1.4567
  127DG     H23 2921   5.464   5.068   2.250  0.4146  0.3951 -0.3450
  128DG      C1 2922   1.077   2.364   0.956  0.0378  0.5643  0.2602
  128DG      C2 2923   0.925   1.941   1.455 -1.0172  0.5339  0.6260
  128DG      H3 2924   1.042   2.423   1.041  0.2567 -0.7125  1.2696
  128DG      H4 2925   0.998   2.344   0.883  1.1780 -0.8317 -0.6470
  128DG      H5 2926   1.162   2.414   0.911  1.7892 -3.4507 -1.3674
  128DG      H6 2927   0.959   1.886   1.543 -0.0661  1.0335  0.5862
  128DG      H7 2928   0.880   2.038   1.476  0.3376  1.2222  0.4648
  128DG      H8 2929   0.865   1.880   1.388  1.0055  2.7590 -3.6192
  128DG      O9 2930   1.135   2.248   1.022  0.5243  0.0251  0.2599
  128DG     O10 2931   1.047   1.971   1.387  0.2910 -0.6919  0.2941
  128DG     C11 2932   1.156   2.133   0.936 -0.1921 -0.4349 -0.2934
  128DG     C12 2933   1.104   1.859   1.328 -0.2457  0.0297  0.2814
  128DG     H13 2934   1.211   2.159   0.847 -0.1763  1.1305  0.1563
  128DG     H14 2935   1.060   2.098   0.897 -0.2250 -1.3616  0.5659
  128DG     H15 2936   1.031   1.806   1.267  0.5530  0.7896 -1.4231
  128DG     H16 2937   1.151   1.787   1.395 -0.1822 -2.7846 -2.5540
  128DG     C17 2938   1.232   2.026   1.021 -0.2319  0.4341  0.0010
  128DG     C18 2939   1.206   1.904   1.219 -0.1306  0.9790 -0.7854
  128DG     O19 2940   1.148   1.995   1.130 -0.3997 -0.0093  0.1593
  128DG     H20 2941   1.330   2.060   1.054 -0.1319  2.1151 -1.8075
  128DG     H21 2942   1.248   1.935   0.964  1.3689  1.5610 -1.4307
  128DG     H22 2943   1.293   1.951   1.265  1.7039 -0.4943 -2.5754
  128DG     H23 2944   1.240   1.818   1.162 -1.1087  0.2203 -0.2612
  129DG      C1 2945   3.909   3.223   3.340 -0.4327  0.5160 -0.1596
  129DG      C2 2946   3.331   3.278   3.027  0.2590 -0.4669  0.3873
  129DG      H3 2947   3.936   3.173   3.247  0.2749 -0.6416  0.6398
  129DG      H4 2948   3.868   3.146   3.405 -1.9612  0.5630 -1.0294
  129DG      H5 2949   3.995   3.260   3.396 -0.2153 -1.3784  0.8590
  129DG      H6 2950   3.378   3.230   2.941 -0.2244 -0.5825  0.1875
  129DG      H7 2951   3.282   3.205   3.091 -1.5772  0.5002  0.1461
  129DG      H8 2952   3.252   3.337   2.980  0.9913 -0.8881 -1.4950
  129DG      O9 2953   3.817   3.318   3.298 -0.6066 -0.0786 -0.6928
  129DG     O10 2954   3.424   3.365   3.087 -0.5383 -0.7852  0.2013
  129DG     C11 2955   3.787   3.395   3.419  0.8069 -0.5131 -0.0809
  129DG     C12 2956   3.373   3.444   3.197  0.1547  0.3000 -0.6166
  129DG     H13 2957   3.878   3.441   3.459 -1.0433  1.8067  1.7605
  129DG     H14 2958   3.736   3.324   3.485 -1.6551 -1.1396 -2.5224
  129DG     H15 2959   3.318   3.390   3.274 -0.9684  3.1051  0.7108
  129DG     H16 2960   3.292   3.508   3.161  0.4385  0.7464 -0.4619
  129DG     C17 2961   3.687   3.501   3.382 -0.0916  0.0477 -0.5918
  129DG     C18 2962   3.486   3.532   3.251  0.8565  0.6586 -0.6383
  129DG     O19 2963   3.591   3.446   3.296 -0.2383 -0.1531  0.7385
  129DG     H20 2964   3.730   3.584   3.325 -0.0249 -0.3085 -1.0698
  129DG     H21 2965   3.653   3.555   3.470  2.0691  0.9605 -0.2439
  129DG     H22 2966   3.512   3.610   3.180 -0.1224  1.0943 -0.5378
  129DG     H23 2967   3.452   3.581   3.342 -0.2865 -0.8356 -0.2110
  130DG      C1 2968   2.684   3.848   2.030 -0.0614  0.2205  0.0463
  130DG      C2 2969   3.383   3.811   2.111  0.0493  0.7597 -0.3226
  130DG      H3 2970   2.586   3.799   2.027 -0.1394 -0.0421  3.3314
  130DG      H4 2971   2.674   3.930   1.959 -2.1169  0.2859  0.3591
  130DG      H5 2972   2.694   3.883   2.132 -1.5954 -0.9969  0.6556
  130DG      H6 2973   3.361   3.812   2.218  1.1312  2.0496 -0.0771
  130DG      H7 2974   3.483   3.774   2.092  0.8385  1.2915  2.3682
  130DG      H8 2975   3.383   3.919   2.095 -2.2918  1.0871  1.2907
  130DG      O9 2976   2.790   3.759   2.000 -0.0225  0.6279 -0.1939
  130DG     O10 2977   3.274   3.745   2.038 -0.6621 -0.0749  0.9669
  130DG     C11 2978   2.800   3.738   1.859  0.6212 -0.1545  0.3382
  130DG     C12 2979   3.291   3.748   1.898  0.8355 -0.0906 -0.2184
  130DG     H13 2980   2.793   3.831   1.802 -1.9662  0.4124  1.4272
  130DG     H14 2981   2.722   3.674   1.819  0.7996  0.4527 -1.0423
  130DG     H15 2982   3.380   3.687   1.885  1.6647  0.9316  0.4621
  130DG     H16 2983   3.310   3.851   1.868  0.2694 -0.2824 -1.2726
  130DG     C17 2984   2.933   3.664   1.833  0.7998 -0.0828 -0.0080
  130DG     C18 2985   3.166   3.688   1.835 -0.4788 -0.0462 -0.2227
  130DG     O19 2986   3.039   3.730   1.888  0.2398 -0.1168 -0.7432
  130DG     H20 2987   2.945   3.649   1.726  1.7966 -0.0586  0.0853
  130DG     H21 2988   2.918   3.566   1.878  0.9485  0.3608  1.0352
  130DG     H22 2989   3.188   3.680   1.729  0.6204  1.2459 -0.1310
  130DG     H23 2990   3.164   3.581   1.853 -1.7434 -0.1548 -0.8924
  131DG      C1 2991   1.502   2.758   3.699 -0.5054 -0.3845  0.0205
  131DG      C2 2992   1.574   3.430   3.613  0.0808 -0.7769 -0.1150
  131DG      H3 2993   1.490   2.695   3.611  0.6425  0.6656 -0.9141
  131DG      H4 2994   1.405   2.800   3.729 -1.0249 -2.1507  1.0103
  131DG      H5 2995   1.540   2.698   3.782  0.3778 -0.1352 -0.1951
  131DG      H6 2996   1.618   3.524   3.647 -4.5372  1.5840  0.1209
  131DG      H7 2997   1.545   3.457   3.511  0.5553 -1.1101 -0.3381
  131DG      H8 2998   1.487   3.413   3.676  0.4533 -1.7948  0.1393
  131DG      O9 2999   1.589   2.871   3.667 -0.4712  0.1684  0.8634
  131DG     O10 3000   1.650   3.316   3.617  0.0367  0.5591 -0.1516
  131DG     C11 3001   1.734   2.847   3.663 -0.5098  1.1995  0.0823
  131DG     C12 3002   1.751   3.314   3.516 -0.0114  0.9880  0.1498
  131DG     H13 3003   1.746   2.782   3.576 -0.9844  2.1391 -0.7056
  131DG     H14 3004   1.756   2.798   3.758 -0.2306  1.2221  0.0311
  131DG     H15 3005   1.812   3.404   3.527 -0.9653  1.4620  2.0665
  131DG     H16 3006   1.720   3.306   3.412  0.8413  0.5712 -0.0816
  131DG     C17 3007   1.828   2.972   3.652  0.3974  0.1724 -0.6307
  131DG     C18 3008   1.836   3.188   3.555 -0.0862  0.3716  0.4011
  131DG     O19 3009   1.759   3.076   3.583  0.4177  0.9959 -0.4356
  131DG     H20 3010   1.923   2.945   3.605  0.8853 -0.4874  0.6754
  131DG     H21 3011   1.850   3.009   3.752 -0.6621  1.2961 -0.7911
  131DG     H22 3012   1.907   3.157   3.478  0.7138  0.6045  1.0368
  131DG     H23 3013   1.907   3.225   3.628  0.5200 -0.2709  0.1437
  132DG      C1 3014   2.294   3.830   3.320 -0.2539  0.0775  0.3233
  132DG      C2 3015   1.891   4.387   3.360 -0.2154  1.1177  0.0304
  132DG      H3 3016   2.202   3.779   3.350  0.1388 -0.3837  0.7667
  132DG      H4 3017   2.373   3.764   3.356 -1.8672 -0.7842  2.5451
  132DG      H5 3018   2.304   3.828   3.212 -0.2378 -0.1873  0.3296
  132DG      H6 3019   1.851   4.356   3.264 -0.6137  0.6578  0.3344
  132DG      H7 3020   1.825   4.352   3.440  2.1675 -0.4985  1.4247
  132DG      H8 3021   1.889   4.496   3.357  1.2865  1.1733  0.5222
  132DG      O9 3022   2.310   3.963   3.360 -0.1768  0.0782 -0.6722
  132DG     O10 3023   2.018   4.328   3.379  0.3021 -0.4465  0.0182
  132DG     C11 3024   2.332   3.982   3.501 -0.2684  0.2946 -0.1876
  132DG     C12 3025   2.078   4.363   3.497 -0.1142  0.1979  0.0337
  132DG     H13 3026   2.420   3.931   3.540 -1.2280 -0.8607  0.5330
  132DG     H14 3027   2.248   3.950   3.562  1.7420 -0.2067  2.5150
  132DG     H15 3028   2.024   4.337   3.588  2.0706  1.0480  1.6578
  132DG     H16 3029   2.066   4.471   3.502  3.2914  0.6710  0.2355
  132DG     C17 3030   2.344   4.128   3.521  0.3410 -0.8569  0.0324
  132DG     C18 3031   2.226   4.329   3.513 -1.0297  0.0030 -0.0761
  132DG     O19 3032   2.225   4.193   3.489  0.0833  0.3521  0.9355
  132DG     H20 3033   2.428   4.173   3.469 -1.0615  2.7965  0.6024
  132DG     H21 3034   2.358   4.145   3.628 -0.1542  1.5677 -0.2227
  132DG     H22 3035   2.301   4.386   3.458 -1.1368  0.2300  0.0153
  132DG     H23 3036   2.259   4.352   3.615  0.0475  0.0940 -0.4309
  133DG      C1 3037   0.484   2.856   3.728  0.0804  0.5095 -0.4776
  133DG      C2 3038   0.406   3.132   4.320 -0.5402  0.2012  0.5774
  133DG      H3 3039   0.466   2.787   3.646 -1.1032  0.6333 -0.3356
  133DG      H4 3040   0.589   2.873   3.752  0.2303  1.3099 -1.6132
  133DG      H5 3041   0.451   2.948   3.680  2.3404  1.7875  0.2284
  133DG      H6 3042   0.373   3.224   4.272 -1.9415 -0.8100 -0.4845
  133DG      H7 3043   0.367   3.122   4.422 -0.7083 -0.7175  0.4339
  133DG      H8 3044   0.515   3.133   4.330 -0.5624 -0.7070  1.0473
  133DG      O9 3045   0.410   2.811   3.836  0.2511 -0.4301  0.3744
  133DG     O10 3046   0.377   3.015   4.248  0.3508  0.8013 -0.2354
  133DG     C11 3047   0.268   2.784   3.815  0.2208 -0.6644 -0.0900
  133DG     C12 3048   0.243   2.988   4.237 -0.1305  1.4672  0.1383
  133DG     H13 3049   0.248   2.713   3.735  0.5532 -0.0319 -0.7515
  133DG     H14 3050   0.212   2.873   3.786  1.1539  0.3216  0.9857
  133DG     H15 3051   0.189   3.059   4.175 -0.2904  1.0978 -0.1472
  133DG     H16 3052   0.192   2.977   4.333 -0.0388  0.2755  0.0663
  133DG     C17 3053   0.214   2.758   3.952  0.5143  0.1176  0.7536
  133DG     C18 3054   0.207   2.854   4.167 -0.2153  0.5244 -0.3411
  133DG     O19 3055   0.257   2.865   4.035  0.2436  0.3228  0.2094
  133DG     H20 3056   0.262   2.667   3.988  3.0751  1.0506 -0.1042
  133DG     H21 3057   0.106   2.743   3.948  0.5146  0.4307 -1.6291
  133DG     H22 3058   0.245   2.771   4.226 -0.2601  1.1257  0.5409
  133DG     H23 3059   0.099   2.836   4.160 -0.0866 -2.0313  2.4264
  134DG      C1 3060   5.108   3.888   4.059 -0.8031  0.1713 -0.5100
  134DG      C2 3061   5.496   4.296   3.839 -0.4809 -0.4644 -0.6206
  134DG      H3 3062   5.189   3.863   4.128 -0.0473  0.3454 -1.3125
  134DG      H4 3063   5.150   3.864   3.962 -1.6422  0.9966 -1.0943
  134DG      H5 3064   5.016   3.831   4.068  0.9166 -2.8480 -0.6903
  134DG      H6 3065   5.573   4.302   3.916  0.3538 -0.8307 -1.3940
  134DG      H7 3066   5.510   4.202   3.785 -1.3129  0.2620 -2.1462
  134DG      H8 3067   5.510   4.370   3.760 -1.1788  1.0830  0.6571
  134DG      O9 3068   5.099   4.031   4.062 -0.0863 -0.3386  0.5092
  134DG     O10 3069   5.360   4.304   3.888 -0.5868 -0.1202 -0.3664
  134DG     C11 3070   5.054   4.090   4.184 -0.4571 -0.5509 -0.2605
  134DG     C12 3071   5.350   4.404   3.987  0.7239  0.7118  0.0933
  134DG     H13 3072   5.129   4.068   4.261 -1.4974 -0.8077  0.7103
  134DG     H14 3073   4.962   4.052   4.229 -1.3551  3.2092  1.5650
  134DG     H15 3074   5.379   4.504   3.955  0.2880  0.9117  0.3053
  134DG     H16 3075   5.412   4.383   4.075 -0.2937  1.4148  1.0173
  134DG     C17 3076   5.059   4.245   4.162 -0.0767 -0.0572 -0.0984
  134DG     C18 3077   5.206   4.396   4.044  0.0947 -0.2069  0.0022
  134DG     O19 3078   5.187   4.273   4.105 -0.0063 -0.5000 -0.0169
  134DG     H20 3079   5.048   4.311   4.248  0.8774 -1.1401  0.8872
  134DG     H21 3080   4.982   4.283   4.095  0.0885  0.7549  0.1616
  134DG     H22 3081   5.173   4.474   4.113 -0.6917  0.0366 -0.6409
  134DG     H23 3082   5.147   4.410   3.954  2.2443  0.4232 -1.3625
  135DG      C1 3083   1.221   1.300   0.255  0.1710 -0.6162  0.3141
  135DG      C2 3084   0.558   1.354   0.518 -0.0541  0.0747  0.0976
  135DG      H3 3085   1.230   1.205   0.308 -3.4564 -2.3843 -1.8265
  135DG      H4 3086   1.311   1.359   0.242 -0.2605  0.4514  1.8713
  135DG      H5 3087   1.179   1.267   0.160  0.2556  1.7399 -0.6060
  135DG      H6 3088   0.550   1.246   0.524  1.4608 -0.0460  0.5523
  135DG      H7 3089   0.497   1.392   0.600  0.1778 -1.0180  0.7998
  135DG      H8 3090   0.513   1.397   0.429  1.9498  0.1200 -0.9545
  135DG      O9 3091   1.128   1.374   0.334  0.5339 -0.2738  0.3540
  135DG     O10 3092   0.695   1.404   0.529  0.0868 -0.3097  0.1337
  135DG     C11 3093   1.119   1.512   0.299  0.1253 -0.6168  0.7207
  135DG     C12 3094   0.703   1.550   0.541  0.0081  0.5787 -0.1705
  135DG     H13 3095   1.048   1.523   0.217 -1.0332 -0.3599  1.7331
  135DG     H14 3096   1.217   1.556   0.284  0.2698 -1.4314 -0.8781
  135DG     H15 3097   0.643   1.593   0.621  0.2341 -0.4139  0.5535
  135DG     H16 3098   0.656   1.579   0.448  0.0841 -0.6089 -0.5988
  135DG     C17 3099   1.058   1.573   0.429 -0.3672 -0.7976 -0.2327
  135DG     C18 3100   0.849   1.598   0.545  0.4800  0.4295 -0.0581
  135DG     O19 3101   0.920   1.534   0.438  0.0140 -0.5659  0.0516
  135DG     H20 3102   1.077   1.678   0.406 -3.7162 -0.5586 -2.6270
  135DG     H21 3103   1.119   1.534   0.510  0.3568 -1.6626 -1.1609
  135DG     H22 3104   0.844   1.706   0.536 -1.6550  0.4911  1.2792
  135DG     H23 3105   0.897   1.577   0.641 -0.0322 -2.3615 -0.3125
  136DG      C1 3106   2.660   2.820   0.069  0.1635 -0.0944 -0.6344
  136DG      C2 3107   2.196   3.460  -0.092 -0.0682 -0.5755 -0.1296
  136DG      H3 3108   2.721   2.808  -0.021  2.7148 -0.4596  1.0375
  136DG      H4 3109   2.619   2.726   0.107  1.7435 -0.4347  0.3361
  136DG      H5 3110   2.730   2.854   0.145  1.6611 -3.4866 -0.2857
  136DG      H6 3111   2.112   3.510  -0.139  0.8546 -0.7452 -2.0810
  136DG      H7 3112   2.168   3.451   0.013  1.3607  0.5939  0.3937
  136DG      H8 3113   2.286   3.522  -0.093 -0.5400  0.1335  0.3751
  136DG      O9 3114   2.558   2.915   0.042 -0.3643  0.3087  0.4338
  136DG     O10 3115   2.208   3.338  -0.160 -0.1093 -0.0760 -0.3585
  136DG     C11 3116   2.469   2.856  -0.052  0.2998 -0.1342 -0.3969
  136DG     C12 3117   2.293   3.251  -0.089 -0.4211  0.2593 -0.5976
  136DG     H13 3118   2.417   2.766  -0.018  1.4955 -0.1392  1.5809
  136DG     H14 3119   2.532   2.819  -0.134  0.5825 -0.5968  0.0243
  136DG     H15 3120   2.220   3.192  -0.035 -0.1834 -0.2056 -0.7760
  136DG     H16 3121   2.366   3.299  -0.022  0.5229  0.8324 -1.9810
  136DG     C17 3122   2.370   2.958  -0.098 -1.4471 -1.1511  0.0130
  136DG     C18 3123   2.373   3.173  -0.203  0.0985 -0.0199 -0.1026
  136DG     O19 3124   2.449   3.064  -0.155 -0.0503  0.1882  0.5577
  136DG     H20 3125   2.306   2.992  -0.017  2.8243  3.1775  2.0549
  136DG     H21 3126   2.306   2.908  -0.170 -1.2421  1.0238 -1.7801
  136DG     H22 3127   2.298   3.138  -0.274 -1.1676 -0.2317  1.2852
  136DG     H23 3128   2.436   3.232  -0.270  0.3933 -0.5226 -0.2697
  137DG      C1 3129   0.425   0.155   0.758 -0.0392 -0.3434 -1.0860
  137DG      C2 3130   0.841   0.502   1.104  0.1778  0.5924 -0.0995
  137DG      H3 3131   0.521   0.121   0.722 -1.1071 -2.7230 -1.8615
  137DG      H4 3132   0.351   0.116   0.689 -0.0388 -1.0150 -0.7142
  137DG      H5 3133   0.415   0.100   0.852  1.8044  0.7701 -0.1857
  137DG      H6 3134   0.908   0.489   1.019  1.9549  1.5889  1.0877
  137DG      H7 3135   0.855   0.605   1.136 -0.7885  0.1480  1.9224
  137DG      H8 3136   0.864   0.420   1.172 -2.2708 -1.2952 -1.3759
  137DG      O9 3137   0.422   0.297   0.778 -0.7979 -0.3117 -0.5314
  137DG     O10 3138   0.704   0.497   1.061  0.3084  0.7098 -0.2329
  137DG     C11 3139   0.316   0.349   0.861  1.1169  0.9878  0.5529
  137DG     C12 3140   0.616   0.531   1.160  0.4725  0.2575 -0.0863
  137DG     H13 3141   0.316   0.288   0.951  0.6409  1.6475  1.0043
  137DG     H14 3142   0.220   0.351   0.810  0.8596 -0.0945  0.9801
  137DG     H15 3143   0.637   0.629   1.203  0.1176  0.8224 -1.1496
  137DG     H16 3144   0.611   0.466   1.247  0.3401  2.6005  1.7948
  137DG     C17 3145   0.351   0.484   0.917 -0.5085  0.1535 -0.7546
  137DG     C18 3146   0.491   0.556   1.086 -0.1460  0.1240 -0.1888
  137DG     O19 3147   0.476   0.464   0.985  0.1078  0.9565  0.4481
  137DG     H20 3148   0.277   0.512   0.992  0.2410  0.4651 -0.1187
  137DG     H21 3149   0.368   0.562   0.842  1.3315  0.0053 -0.5236
  137DG     H22 3150   0.411   0.560   1.160 -0.4811 -1.1848 -0.4503
  137DG     H23 3151   0.494   0.653   1.037  0.1354  0.2397  0.0568
  138DG      C1 3152   1.634   4.658   1.887  0.5611  0.1020 -0.3479
  138DG      C2 3153   1.617   4.705   2.585  0.4926  0.9712 -0.2313
  138DG      H3 3154   1.689   4.607   1.808  0.8074 -0.3987  0.1400
  138DG      H4 3155   1.666   4.762   1.889 -0.5100  0.4520 -0.6211
  138DG      H5 3156   1.526   4.652   1.872  0.5838  0.0279 -0.4772
  138DG      H6 3157   1.673   4.647   2.658  0.1841  0.4397 -0.4097
  138DG      H7 3158   1.664   4.800   2.560 -0.5099  1.7882  0.8468
  138DG      H8 3159   1.518   4.726   2.625 -0.6828 -1.8823 -1.4039
  138DG      O9 3160   1.658   4.593   2.014  0.2532 -0.2539 -0.0518
  138DG     O10 3161   1.603   4.636   2.458 -0.0199 -0.0503  0.1277
  138DG     C11 3162   1.620   4.457   2.005 -0.2783 -0.3931  0.4854
  138DG     C12 3163   1.537   4.509   2.479  0.0232  0.0931  0.3477
  138DG     H13 3164   1.687   4.407   1.935  0.9231  0.7397  0.7821
  138DG     H14 3165   1.517   4.435   1.978 -0.0461  0.2582 -1.0049
  138DG     H15 3166   1.429   4.522   2.471 -0.0013 -0.7291 -1.0106
  138DG     H16 3167   1.561   4.468   2.577 -1.6524 -0.0215  0.7300
  138DG     C17 3168   1.646   4.393   2.141  0.1654 -0.5808 -0.6867
  138DG     C18 3169   1.582   4.413   2.369 -0.6091  0.5669  0.1790
  138DG     O19 3170   1.576   4.465   2.237 -0.2869  0.1727  0.6086
  138DG     H20 3171   1.753   4.386   2.162  0.0302 -3.0317 -0.5798
  138DG     H21 3172   1.603   4.293   2.145  0.4287 -0.6499  1.5776
  138DG     H22 3173   1.683   4.377   2.388 -0.8575 -0.7267 -0.7265
  138DG     H23 3174   1.528   4.319   2.386  0.5244 -0.2299 -0.4781
  139DG      C1 3175   1.977   1.795   1.315 -0.3166  0.3233  0.1780
  139DG      C2 3176   2.424   2.307   1.445 -0.1545  0.2232  0.5542
  139DG      H3 3177   1.957   1.799   1.422  2.7892  1.9514  0.8299
  139DG      H4 3178   2.048   1.717   1.288 -0.6820  0.3935 -1.0701
  139DG      H5 3179   1.888   1.757   1.265 -1.8658  2.7181  0.9370
  139DG      H6 3180   2.398   2.236   1.524 -2.4137  1.1192  0.6857
  139DG      H7 3181   2.521   2.265   1.420 -1.6227 -3.0354 -0.2350
  139DG      H8 3182   2.432   2.409   1.481  1.3428  0.1415  0.4990
  139DG      O9 3183   2.020   1.924   1.261  0.3764  0.4502  0.2287
  139DG     O10 3184   2.339   2.301   1.328  0.3696  0.2661 -0.0016
  139DG     C11 3185   1.921   2.020   1.240 -0.2379 -0.1574  0.1917
  139DG     C12 3186   2.224   2.387   1.333  0.3183 -0.6355 -0.4915
  139DG     H13 3187   1.894   2.047   1.342  0.3121 -2.5425  1.0402
  139DG     H14 3188   1.841   1.967   1.187  0.9845 -1.6424 -0.2491
  139DG     H15 3189   2.245   2.490   1.302  2.6380 -1.1897 -0.9031
  139DG     H16 3190   2.170   2.399   1.427 -2.7411  1.3265 -2.2943
  139DG     C17 3191   1.981   2.146   1.177  0.1046 -0.0249 -0.0170
  139DG     C18 3192   2.126   2.335   1.231 -0.0890  0.0222  0.1316
  139DG     O19 3193   2.082   2.203   1.262  0.4399 -0.4142 -1.2025
  139DG     H20 3194   1.894   2.209   1.159 -1.1077 -1.5151  0.4659
  139DG     H21 3195   2.018   2.120   1.077 -0.8844  0.0955 -0.4268
  139DG     H22 3196   2.037   2.397   1.244 -0.6081 -0.5282 -0.6245
  139DG     H23 3197   2.160   2.348   1.128 -0.2778  1.5538  0.2378
  140DG      C1 3198   5.325   2.387   3.934  0.0171  0.4406 -0.0704
  140DG      C2 3199   4.966   2.856   4.145 -0.8742  0.2598 -0.1657
  140DG      H3 3200   5.409   2.420   3.872  0.4496 -1.8013 -0.7711
  140DG      H4 3201   5.235   2.381   3.873  0.6205 -0.3889 -0.9168
  140DG      H5 3202   5.354   2.291   3.976 -1.6770 -0.9862 -1.9440
  140DG      H6 3203   4.912   2.806   4.065 -0.2442  1.0009 -1.0725
  140DG      H7 3204   4.919   2.815   4.235 -0.5157  0.8307  0.2915
  140DG      H8 3205   4.957   2.964   4.134 -0.5845  0.2251 -0.7454
  140DG      O9 3206   5.306   2.478   4.034 -0.1631  0.1971 -0.1356
  140DG     O10 3207   5.102   2.809   4.147  0.0415 -0.3219 -0.5219
  140DG     C11 3208   5.417   2.500   4.116  1.0610  0.0255 -0.6738
  140DG     C12 3209   5.194   2.899   4.204  0.9655  0.0226  0.1980
  140DG     H13 3210   5.501   2.543   4.063  0.5454 -1.1664 -2.5682
  140DG     H14 3211   5.448   2.409   4.168 -2.1427 -0.6855  0.2295
  140DG     H15 3212   5.158   2.943   4.298 -0.1861 -0.0456 -0.1902
  140DG     H16 3213   5.208   2.977   4.130  2.3219  0.8321  1.2621
  140DG     C17 3214   5.373   2.606   4.218  0.2925  0.5916  0.7679
  140DG     C18 3215   5.328   2.837   4.238  0.1339  0.1599 -0.0602
  140DG     O19 3216   5.354   2.726   4.147  0.1689  0.2682  1.3372
  140DG     H20 3217   5.459   2.625   4.283  1.9022  1.9921 -1.6130
  140DG     H21 3218   5.286   2.585   4.280  0.2788  2.0337  1.2775
  140DG     H22 3219   5.401   2.918   4.240 -0.5198  0.7834  2.5405
  140DG     H23 3220   5.315   2.796   4.338 -0.6556 -0.2019 -0.2976
  141DG      C1 3221   5.276   1.583   2.238 -1.2464 -0.3107  0.1182
  141DG      C2 3222   4.797   1.443   1.814 -0.2290 -0.3425 -0.0755
  141DG      H3 3223   5.189   1.558   2.299 -1.9857  2.7932  0.4614
  141DG      H4 3224   5.341   1.654   2.290 -0.9315 -1.0204  0.7221
  141DG      H5 3225   5.333   1.490   2.230  1.5716  1.3922 -0.9080
  141DG      H6 3226   4.837   1.345   1.838 -1.7013 -0.6237  1.4490
  141DG      H7 3227   4.723   1.461   1.892 -1.7712  0.3028 -1.6371
  141DG      H8 3228   4.743   1.450   1.720 -2.6029 -2.5259  1.0001
  141DG      O9 3229   5.233   1.639   2.115 -0.1892  0.0538  0.1937
  141DG     O10 3230   4.901   1.537   1.831 -0.0620  0.1545  0.3198
  141DG     C11 3231   5.341   1.635   2.025  0.0269  0.3950  0.3696
  141DG     C12 3232   4.986   1.539   1.724  0.1590 -0.5612  0.4346
  141DG     H13 3233   5.371   1.530   2.020  0.4492  0.4634  1.2767
  141DG     H14 3234   5.429   1.686   2.063  0.5436 -0.6468  0.6304
  141DG     H15 3235   4.935   1.568   1.632 -0.3324  2.0967  1.4538
  141DG     H16 3236   5.018   1.435   1.714  1.8222 -0.0078 -0.2598
  141DG     C17 3237   5.285   1.675   1.886 -0.3781 -0.4129  0.4117
  141DG     C18 3238   5.106   1.626   1.744 -0.2968 -0.6186  0.9581
  141DG     O19 3239   5.180   1.591   1.858 -0.1256  0.2234 -0.4211
  141DG     H20 3240   5.370   1.655   1.821  0.0170 -0.0675  0.8168
  141DG     H21 3241   5.263   1.781   1.881  0.4086 -0.2451  0.4829
  141DG     H22 3242   5.168   1.616   1.655 -0.5755 -0.5064  0.7493
  141DG     H23 3243   5.070   1.729   1.753  0.0113 -0.5044  0.8837
  142DG      C1 3244   3.465   0.869   2.308  0.3722  0.4012  0.0205
  142DG      C2 3245   3.929   0.461   2.123  0.2660 -0.0384 -0.0782
  142DG      H3 3246   3.485   0.937   2.391 -0.8510  1.2070 -0.3230
  142DG      H4 3247   3.357   0.865   2.292  0.0343  0.0477  2.0797
  142DG      H5 3248   3.495   0.913   2.213 -2.1478  0.3189 -0.8695
  142DG      H6 3249   3.967   0.546   2.066  0.5697 -1.6056 -2.3548
  142DG      H7 3250   4.018   0.398   2.126  0.5785  0.3599 -0.7386
  142DG      H8 3251   3.856   0.409   2.061  0.4537 -0.3036 -0.0775
  142DG      O9 3252   3.517   0.736   2.328 -0.0269  0.6457 -0.1605
  142DG     O10 3253   3.891   0.512   2.242  0.2338 -0.5647 -0.6178
  142DG     C11 3254   3.474   0.673   2.444 -0.2213 -0.0712  0.0914
  142DG     C12 3255   3.853   0.418   2.338  0.0150  0.1272 -0.4041
  142DG     H13 3256   3.369   0.650   2.422 -0.2400  1.3085 -1.4351
  142DG     H14 3257   3.487   0.738   2.531  0.2850 -1.3164  0.9773
  142DG     H15 3258   3.946   0.370   2.371  0.6355 -0.0834 -2.3550
  142DG     H16 3259   3.782   0.345   2.299  0.1864  1.0489 -2.5555
  142DG     C17 3260   3.558   0.550   2.462  0.4530  0.4380 -0.7905
  142DG     C18 3261   3.794   0.480   2.465 -0.3597  0.2122 -0.8568
  142DG     O19 3262   3.697   0.577   2.439  0.2358 -0.2327  0.1329
  142DG     H20 3263   3.526   0.475   2.388 -2.5892  0.1354  0.6603
  142DG     H21 3264   3.548   0.504   2.560  3.8513 -2.7994 -1.7190
  142DG     H22 3265   3.760   0.391   2.518  1.9019 -0.3966 -0.3546
  142DG     H23 3266   3.875   0.521   2.525 -0.6883  0.0571 -0.2991
  143DG      C1 3267   1.161   2.986   4.579  0.0285  0.0022 -0.4889
  143DG      C2 3268   1.768   2.828   4.756 -0.4046 -0.5329  0.9522
  143DG      H3 3269   1.127   2.926   4.664  1.4178 -1.2146 -0.7677
  143DG      H4 3270   1.122   2.945   4.486 -0.9277 -0.6112  0.1483
  143DG      H5 3271   1.106   3.080   4.589  0.9771  0.6267 -1.0180
  143DG      H6 3272   1.717   2.761   4.825 -0.9903  1.1722  2.2300
  143DG      H7 3273   1.853   2.782   4.705  0.3368  0.3093  1.4056
  143DG      H8 3274   1.827   2.906   4.804  0.1967  0.3571 -1.1163
  143DG      O9 3275   1.305   3.011   4.581 -0.1370  0.6994  0.1823
  143DG     O10 3276   1.685   2.886   4.665 -0.3438  0.2144  1.0869
  143DG     C11 3277   1.343   3.113   4.485 -0.5624 -0.1200  0.0159
  143DG     C12 3278   1.745   3.003   4.601  0.2341 -0.1456  0.4241
  143DG     H13 3279   1.290   3.206   4.504 -1.5229 -0.0398 -2.5917
  143DG     H14 3280   1.333   3.078   4.382  2.4259 -2.3497  0.3492
  143DG     H15 3281   1.853   2.998   4.587  0.1779  1.3995 -0.9558
  143DG     H16 3282   1.732   3.097   4.655  1.5222  0.1926  0.1699
  143DG     C17 3283   1.494   3.131   4.487 -0.1740  0.3328 -0.3211
  143DG     C18 3284   1.695   3.010   4.457  0.2564 -0.5172 -0.0115
  143DG     O19 3285   1.552   3.004   4.465  0.0826 -0.2608 -0.0704
  143DG     H20 3286   1.532   3.171   4.580 -0.7123 -0.6942  0.3562
  143DG     H21 3287   1.532   3.189   4.403 -0.9321  2.1720  0.5680
  143DG     H22 3288   1.731   3.101   4.410  1.9938 -0.1652  1.8615
  143DG     H23 3289   1.742   2.928   4.405 -0.3630 -0.9052  0.0260
  144DG      C1 3290   0.020   4.049   0.842 -0.3698 -0.3466  0.5779
  144DG      C2 3291  -0.575   3.803   1.011 -0.1905  0.2446 -0.2994
  144DG      H3 3292  -0.053   4.121   0.806  0.8700 -0.3209 -2.1379
  144DG      H4 3293   0.100   4.032   0.769  0.5038 -1.3679  1.7411
  144DG      H5 3294   0.077   4.097   0.921 -1.5513 -0.8986  1.7931
  144DG      H6 3295  -0.608   3.746   1.098 -1.6462 -1.6070 -1.9531
  144DG      H7 3296  -0.594   3.909   1.026  0.5712  0.3955 -0.3629
  144DG      H8 3297  -0.638   3.767   0.930 -0.2010  1.0031 -0.6323
  144DG      O9 3298  -0.054   3.938   0.890 -0.0891  0.2238 -0.7671
  144DG     O10 3299  -0.436   3.778   0.982  0.3772  0.3499 -0.2164
  144DG     C11 3300   0.025   3.819   0.922 -0.4623  0.7396 -0.4667
  144DG     C12 3301  -0.411   3.635   0.979  0.3205  0.1059  0.2992
  144DG     H13 3302   0.100   3.847   0.996 -1.5560 -0.0589  0.9913
  144DG     H14 3303   0.070   3.785   0.829 -0.2304 -0.6105  0.1096
  144DG     H15 3304  -0.424   3.587   0.882  2.9195  1.6282 -0.9173
  144DG     H16 3305  -0.467   3.579   1.053 -1.1323 -0.0294 -0.8626
  144DG     C17 3306  -0.054   3.714   0.997  0.2450 -0.0621 -0.1634
  144DG     C18 3307  -0.265   3.609   1.021  0.2237 -0.3978  0.1179
  144DG     O19 3308  -0.189   3.695   0.947  0.0200 -0.2312 -0.3853
  144DG     H20 3309  -0.078   3.751   1.097  0.3318 -0.0267 -0.1557
  144DG     H21 3310  -0.011   3.615   1.014  0.2339  0.0449  0.5228
  144DG     H22 3311  -0.249   3.628   1.127 -0.4541 -2.7721  0.7096
  144DG     H23 3312  -0.238   3.509   0.987 -0.3104 -0.1251 -1.1283
  145DG      C1 3313   0.568   0.524   0.594 -0.3394 -0.3261  0.5557
  145DG      C2 3314   0.641   0.158   1.081 -0.0222  0.2831  0.0565
  145DG      H3 3315   0.466   0.484   0.586 -0.4239  0.0361 -0.4192
  145DG      H4 3316   0.573   0.564   0.493 -0.9312 -2.7395 -0.5153
  145DG      H5 3317   0.574   0.598   0.673 -0.9597  1.0985 -0.6831
  145DG      H6 3318   0.712   0.201   1.151  2.3321 -0.8891 -1.4673
  145DG      H7 3319   0.544   0.207   1.074 -0.2595 -0.3585 -1.9528
  145DG      H8 3320   0.613   0.058   1.112  0.9903  0.5592  2.0117
  145DG      O9 3321   0.649   0.410   0.614 -0.1967 -0.1971  0.1706
  145DG     O10 3322   0.700   0.145   0.949  0.5966 -0.1710 -0.5413
  145DG     C11 3323   0.781   0.407   0.565 -0.1285 -0.8658  0.0678
  145DG     C12 3324   0.841   0.138   0.948 -0.4960  0.5914 -0.5420
  145DG     H13 3325   0.842   0.485   0.611  0.9686 -2.2769  1.1210
  145DG     H14 3326   0.782   0.421   0.457 -0.3983  1.6849  0.3301
  145DG     H15 3327   0.881   0.042   0.978  1.8202  1.0718 -1.8479
  145DG     H16 3328   0.884   0.213   1.015 -1.7245  1.3883 -0.6095
  145DG     C17 3329   0.850   0.284   0.615  0.5817  0.3934 -0.4542
  145DG     C18 3330   0.875   0.148   0.803 -0.5551 -0.3708  0.1934
  145DG     O19 3331   0.846   0.285   0.759 -0.5454  0.0167 -0.1536
  145DG     H20 3332   0.947   0.266   0.570  0.2041  1.7362 -1.8831
  145DG     H21 3333   0.792   0.204   0.570  1.8429  0.6073 -2.5726
  145DG     H22 3334   0.979   0.119   0.788 -1.0188 -1.4571 -1.1414
  145DG     H23 3335   0.811   0.074   0.756  0.8674 -1.2556 -0.4200
  146DG      C1 3336   3.866   0.817   3.181  0.1488  0.2808  0.1793
  146DG      C2 3337   4.262   1.057   3.696 -0.6979  0.2314  0.4379
  146DG      H3 3338   3.800   0.731   3.170  0.1404  0.0218  1.9814
  146DG      H4 3339   3.908   0.834   3.081 -1.5553 -2.1413 -1.0543
  146DG      H5 3340   3.801   0.892   3.226 -0.1386  0.7441 -0.9608
  146DG      H6 3341   4.192   1.139   3.680  1.8205  2.5749  0.6184
  146DG      H7 3342   4.295   1.055   3.800  1.8042 -1.8225 -0.2944
  146DG      H8 3343   4.352   1.091   3.645 -1.4403 -0.5519 -1.4826
  146DG      O9 3344   3.957   0.790   3.288 -0.5857 -0.0000  0.1230
  146DG     O10 3345   4.214   0.928   3.655  0.6734 -0.3112  0.1719
  146DG     C11 3346   4.026   0.672   3.257 -0.6129  0.4798  0.2896
  146DG     C12 3347   4.314   0.841   3.609 -0.0212  0.0762  0.5900
  146DG     H13 3348   4.091   0.682   3.171  0.2137  0.6749  0.9291
  146DG     H14 3349   3.953   0.591   3.250 -0.8181  0.4226  2.4339
  146DG     H15 3350   4.384   0.828   3.692  2.0613  0.5980 -0.9857
  146DG     H16 3351   4.376   0.892   3.535  1.6627  1.5841  2.8744
  146DG     C17 3352   4.106   0.636   3.382 -0.9011  0.2349 -0.5806
  146DG     C18 3353   4.255   0.714   3.552 -0.0973 -0.2696  0.6360
  146DG     O19 3354   4.191   0.747   3.423 -0.0829 -0.1450 -0.3845
  146DG     H20 3355   4.179   0.558   3.360 -1.4879 -1.5098  2.8724
  146DG     H21 3356   4.035   0.595   3.455  0.4543 -2.7353 -0.7607
  146DG     H22 3357   4.340   0.647   3.541  0.9498  0.8806  1.5770
  146DG     H23 3358   4.187   0.672   3.626 -2.0452  0.8087 -0.4537
  147DG      C1 3359   2.301   4.974   1.284  0.2799 -0.2408 -0.8691
  147DG      C2 3360   1.715   5.315   1.445  0.1082 -0.0358  0.1472
  147DG      H3 3361   2.343   5.033   1.203 -0.9312  3.1678  0.8078
  147DG      H4 3362   2.320   4.867   1.275  0.5983 -0.4332  1.4519
  147DG      H5 3363   2.348   5.009   1.376  0.8386 -1.4550 -0.6698
  147DG      H6 3364   1.606   5.304   1.452 -0.0712  0.9624 -0.8236
  147DG      H7 3365   1.753   5.306   1.547  0.2258  2.2446  0.3580
  147DG      H8 3366   1.738   5.414   1.407  0.3473 -0.2117 -0.1764
  147DG      O9 3367   2.159   4.990   1.287  0.0752  0.0696  0.0101
  147DG     O10 3368   1.761   5.211   1.367 -0.4169 -0.1713  0.1531
  147DG     C11 3369   2.102   4.917   1.179  0.1343  0.3044  0.0137
  147DG     C12 3370   1.721   5.219   1.230 -0.2139  0.0122  0.2504
  147DG     H13 3371   2.119   4.810   1.188 -1.4658  0.0088 -0.2869
  147DG     H14 3372   2.156   4.950   1.090  0.9572 -0.5825  0.1648
  147DG     H15 3373   1.736   5.300   1.158 -0.4706  2.1641  2.5035
  147DG     H16 3374   1.613   5.228   1.232 -0.1887  0.1899  2.5184
  147DG     C17 3375   1.951   4.937   1.169 -0.1163  0.3949 -0.0401
  147DG     C18 3376   1.775   5.096   1.165 -0.1212 -0.2485  0.8118
  147DG     O19 3377   1.905   5.067   1.195 -0.0562  0.0770 -0.4707
  147DG     H20 3378   1.898   4.873   1.240 -0.2137  1.6531  1.0496
  147DG     H21 3379   1.929   4.907   1.066  0.6033  1.2112 -0.4383
  147DG     H22 3380   1.723   5.009   1.205  0.5814 -0.9641  0.1984
  147DG     H23 3381   1.764   5.079   1.058 -0.7755 -0.5234  0.9154
  148DG      C1 3382   1.410   2.207   1.329  0.1124  0.1432 -0.1145
  148DG      C2 3383   1.068   2.521   1.330  0.1903 -0.0996  0.2668
  148DG      H3 3384   1.388   2.225   1.224 -0.8540  0.5356  0.1360
  148DG      H4 3385   1.489   2.133   1.330  1.3099  1.3597 -0.7577
  148DG      H5 3386   1.440   2.297   1.382  0.5035 -0.6207  0.9863
  148DG      H6 3387   1.146   2.542   1.404  0.3237 -0.2879  0.1796
  148DG      H7 3388   1.103   2.486   1.233 -4.3333 -0.9797 -1.2861
  148DG      H8 3389   1.016   2.615   1.314  0.8889  0.1255 -0.7430
  148DG      O9 3390   1.289   2.163   1.390 -0.2807  0.4373 -0.0194
  148DG     O10 3391   0.975   2.417   1.366  0.6356 -0.5546 -1.1125
  148DG     C11 3392   1.302   2.134   1.526 -0.2481 -0.0022  0.6791
  148DG     C12 3393   0.929   2.426   1.509  0.3105 -0.3458  0.1592
  148DG     H13 3394   1.408   2.118   1.549  0.8595  0.9258 -3.1145
  148DG     H14 3395   1.253   2.038   1.546  0.1764 -0.2940  0.3620
  148DG     H15 3396   0.837   2.368   1.516  0.9480 -1.6495 -1.5890
  148DG     H16 3397   0.903   2.526   1.544  2.1088  0.9508 -1.9318
  148DG     C17 3398   1.244   2.247   1.611 -0.1477 -0.4479  0.2214
  148DG     C18 3399   1.037   2.373   1.611  0.1171  0.2544  0.1677
  148DG     O19 3400   1.119   2.282   1.544  0.2072  0.4660  0.0162
  148DG     H20 3401   1.315   2.331   1.607  0.5896 -1.0560  0.3152
  148DG     H21 3402   1.227   2.218   1.714 -1.5059 -0.8769 -0.1043
  148DG     H22 3403   1.105   2.451   1.645 -0.6210  0.1919  1.9116
  148DG     H23 3404   0.985   2.335   1.699 -0.6041 -0.5415 -0.5856
  149DG      C1 3405   4.304   5.213   1.293 -0.4309  0.2907 -0.4749
  149DG      C2 3406   4.986   5.214   1.280 -0.4926 -1.6270  0.2647
  149DG      H3 3407   4.310   5.240   1.399  0.5680  0.2312 -0.5020
  149DG      H4 3408   4.226   5.137   1.297  1.1426 -1.3563  0.4443
  149DG      H5 3409   4.265   5.308   1.255 -0.5895  0.5680  0.3485
  149DG      H6 3410   4.973   5.221   1.388  0.7226 -0.0788  0.3382
  149DG      H7 3411   5.079   5.161   1.260 -0.2202 -1.6652  1.5633
  149DG      H8 3412   4.995   5.319   1.254 -2.0102 -1.5866 -0.1896
  149DG      O9 3413   4.421   5.160   1.239 -0.6339 -0.0308 -0.5092
  149DG     O10 3414   4.877   5.156   1.211 -0.3742 -0.4591 -0.3201
  149DG     C11 3415   4.416   5.145   1.097 -0.5074  0.0976  0.1659
  149DG     C12 3416   4.887   5.157   1.069 -0.0846 -0.6323 -1.0963
  149DG     H13 3417   4.418   5.242   1.047  0.0573  1.1983  2.2270
  149DG     H14 3418   4.324   5.102   1.057 -0.7502  2.3551 -1.8786
  149DG     H15 3419   4.978   5.111   1.031 -0.4939 -2.0020 -0.4847
  149DG     H16 3420   4.882   5.262   1.039  0.1538 -0.4569 -0.5241
  149DG     C17 3421   4.536   5.069   1.034 -0.0534  0.8081  0.2039
  149DG     C18 3422   4.767   5.083   1.014  0.4073  0.0513 -0.7884
  149DG     O19 3423   4.654   5.135   1.074 -0.4695  0.2649  0.0056
  149DG     H20 3424   4.525   5.066   0.925  4.0131 -3.3806 -0.3983
  149DG     H21 3425   4.542   4.961   1.050 -0.6255  0.7603  0.1328
  149DG     H22 3426   4.769   5.097   0.906  1.8626  0.3129 -0.7429
  149DG     H23 3427   4.771   4.975   1.030 -0.1829  0.2351  0.8032
  150DG      C1 3428   1.320   3.305   1.931 -0.1605  0.9163 -0.3334
  150DG      C2 3429   1.128   3.806   1.648 -0.0525  0.6865  0.1971
  150DG      H3 3430   1.310   3.280   1.825  5.0702  0.4224 -0.9388
  150DG      H4 3431   1.235   3.252   1.976  0.6747  1.4414  1.9790
  150DG      H5 3432   1.420   3.276   1.963 -0.9583  0.7036  2.2035
  150DG      H6 3433   1.116   3.910   1.617  1.8505  0.9685  0.3170
  150DG      H7 3434   1.219   3.778   1.700 -0.2152  0.1910  0.2234
  150DG      H8 3435   1.128   3.749   1.555 -0.1155 -0.6431  0.9724
  150DG      O9 3436   1.298   3.445   1.933 -0.6480  0.9352  0.4003
  150DG     O10 3437   1.010   3.775   1.731  0.1235 -0.8163  0.5140
  150DG     C11 3438   1.302   3.504   2.062 -0.0878  0.3198  0.5060
  150DG     C12 3439   1.003   3.842   1.853 -0.4098  0.2855  0.2523
  150DG     H13 3440   1.399   3.495   2.110  1.7271 -0.6398 -2.9760
  150DG     H14 3441   1.222   3.459   2.121 -1.6729 -2.5127 -3.3907
  150DG     H15 3442   0.912   3.808   1.904  0.1004  0.6524  1.4329
  150DG     H16 3443   0.999   3.950   1.838 -0.3156  0.5363  1.8514
  150DG     C17 3444   1.269   3.655   2.042 -0.6987 -0.0376 -0.2620
  150DG     C18 3445   1.122   3.812   1.946  0.5871  0.4048  0.2946
  150DG     O19 3446   1.158   3.668   1.957  0.7373  0.0863 -0.2302
  150DG     H20 3447   1.343   3.717   1.991 -0.9338  1.4335  1.0933
  150DG     H21 3448   1.253   3.704   2.139 -0.2006  1.1806 -0.7719
  150DG     H22 3449   1.214   3.864   1.916 -0.0938 -0.0539 -2.9911
  150DG     H23 3450   1.088   3.862   2.036 -1.7770  0.0151 -0.3123
  151DG      C1 3451   3.100   4.557   0.734  0.5389  0.2746  0.1365
  151DG      C2 3452   2.533   4.640   0.378 -0.1821 -0.3998  0.0192
  151DG      H3 3453   3.092   4.600   0.833 -0.4280 -1.0396  0.6406
  151DG      H4 3454   3.206   4.545   0.709  0.4676  1.2862 -0.7537
  151DG      H5 3455   3.050   4.463   0.712 -0.5600  0.6545  0.9208
  151DG      H6 3456   2.457   4.715   0.354 -0.2583 -0.1397  1.0328
  151DG      H7 3457   2.533   4.565   0.299  3.6097  0.1651 -0.6642
  151DG      H8 3458   2.489   4.585   0.462 -2.0713 -1.8398 -1.7950
  151DG      O9 3459   3.042   4.653   0.642 -0.6326 -0.0382  0.4535
  151DG     O10 3460   2.657   4.704   0.409 -0.4952 -0.3040 -0.6764
  151DG     C11 3461   3.041   4.785   0.696  0.0404  0.3530 -0.3228
  151DG     C12 3462   2.623   4.831   0.478 -0.0954 -0.5422 -0.4242
  151DG     H13 3463   3.148   4.807   0.697 -0.1788  1.4535  0.6820
  151DG     H14 3464   3.010   4.800   0.799  0.9353  2.7408 -0.3431
  151DG     H15 3465   2.582   4.806   0.576  2.0002 -1.0636  0.3731
  151DG     H16 3466   2.550   4.891   0.424  0.0357 -0.0160 -0.0196
  151DG     C17 3467   2.973   4.874   0.588 -0.5906  0.1707 -0.6918
  151DG     C18 3468   2.751   4.917   0.498  0.0574  0.9102 -0.4686
  151DG     O19 3469   2.830   4.841   0.590 -0.1310 -0.3533  0.2524
  151DG     H20 3470   3.026   4.857   0.495 -1.8582 -0.6751 -1.2963
  151DG     H21 3471   2.975   4.981   0.611 -0.4877 -0.1552  0.9517
  151DG     H22 3472   2.807   4.946   0.409  1.0307  1.1943  0.2314
  151DG     H23 3473   2.727   5.009   0.550 -0.5586  1.3715 -1.5232
  152DG      C1 3474   2.794   4.698   2.508  0.0766  0.2119  0.1089
  152DG      C2 3475   2.652   4.715   1.830 -0.5365  0.2045 -0.0165
  152DG      H3 3476   2.889   4.661   2.469  0.5541 -0.6001  1.9499
  152DG      H4 3477   2.750   4.624   2.575  1.1547  0.8520  1.5844
  152DG      H5 3478   2.822   4.788   2.563  0.7378  0.1158 -0.0597
  152DG      H6 3479   2.597   4.622   1.838 -0.1702  0.1512  3.0164
  152DG      H7 3480   2.622   4.769   1.740  1.3208 -1.9280 -2.0409
  152DG      H8 3481   2.760   4.697   1.829 -0.5745 -0.0309 -0.9156
  152DG      O9 3482   2.704   4.733   2.400 -0.0181 -0.6154  0.1395
  152DG     O10 3483   2.620   4.783   1.953 -0.1585 -0.1192  0.1641
  152DG     C11 3484   2.568   4.746   2.443  0.7896 -0.6784  0.0684
  152DG     C12 3485   2.478   4.783   1.976  0.3155  0.3758 -0.1424
  152DG     H13 3486   2.555   4.812   2.529 -1.0328 -2.1035  0.9679
  152DG     H14 3487   2.525   4.647   2.458 -1.0822  0.1814  0.8218
  152DG     H15 3488   2.430   4.688   1.955  0.6757  0.1341  0.1228
  152DG     H16 3489   2.432   4.845   1.899 -2.1330 -1.5122 -0.2908
  152DG     C17 3490   2.481   4.820   2.332  0.1469 -0.3568  0.0945
  152DG     C18 3491   2.426   4.833   2.111 -0.6461  0.1564  0.7002
  152DG     O19 3492   2.498   4.760   2.210 -0.0353 -0.2126  0.1940
  152DG     H20 3493   2.521   4.922   2.337  2.2853 -1.0905 -0.9335
  152DG     H21 3494   2.375   4.828   2.355 -0.1293  1.3199 -1.4567
  152DG     H22 3495   2.444   4.940   2.114 -0.3589  0.1711 -0.8587
  152DG     H23 3496   2.318   4.821   2.110 -0.6626 -0.8500 -3.6708
  153DG      C1 3497   1.697   1.859   4.737 -0.7489  0.3204 -0.4113
  153DG      C2 3498   2.137   1.966   4.152 -0.0281 -0.5537 -1.0489
  153DG      H3 3499   1.591   1.857   4.764 -0.2826 -2.6688  1.7157
  153DG      H4 3500   1.751   1.906   4.819 -1.3032  0.4730 -0.1248
  153DG      H5 3501   1.724   1.754   4.732 -2.1279  0.0017 -2.3045
  153DG      H6 3502   2.226   1.915   4.188  1.8198  1.5150 -2.3856
  153DG      H7 3503   2.086   1.897   4.085  1.3717 -2.0466 -0.6225
  153DG      H8 3504   2.171   2.052   4.094 -1.7706 -0.7797 -2.5044
  153DG      O9 3505   1.723   1.920   4.617  0.7185  0.5026  0.4874
  153DG     O10 3506   2.055   2.020   4.259  0.5891 -0.8480 -0.0303
  153DG     C11 3507   1.681   2.056   4.626 -0.0975 -0.0183 -0.2279
  153DG     C12 3508   1.952   2.104   4.207  0.0092 -0.4060 -0.9539
  153DG     H13 3509   1.669   2.088   4.729 -0.3872 -0.9528  0.0321
  153DG     H14 3510   1.585   2.067   4.574 -0.2966  1.4815  0.3959
  153DG     H15 3511   1.872   2.046   4.161 -0.7081  0.1904 -0.4940
  153DG     H16 3512   1.982   2.178   4.132 -1.3776  1.4433  0.2166
  153DG     C17 3513   1.779   2.149   4.548  0.0714  0.3283 -0.6939
  153DG     C18 3514   1.899   2.177   4.338 -0.1295 -0.3990  0.5073
  153DG     O19 3515   1.820   2.092   4.427 -0.7378 -0.8785 -0.4802
  153DG     H20 3516   1.871   2.167   4.604 -1.1488 -2.3039  2.4497
  153DG     H21 3517   1.731   2.245   4.529 -0.3358  0.3143  0.2216
  153DG     H22 3518   1.989   2.209   4.390 -0.1974  1.2210 -0.3329
  153DG     H23 3519   1.843   2.264   4.304  0.9809  0.5659  1.0869
  154DG      C1 3520   4.599   3.423   3.542  0.0471 -0.2618  0.2954
  154DG      C2 3521   4.065   3.718   3.852 -0.2557  0.4621  0.0411
  154DG      H3 3522   4.603   3.416   3.433 -0.5755 -0.0977  0.2581
  154DG      H4 3523   4.660   3.344   3.585 -1.8196 -2.6963 -1.2712
  154DG      H5 3524   4.631   3.523   3.572  1.3778 -0.3816 -0.6360
  154DG      H6 3525   3.957   3.713   3.868 -0.4332  0.1963 -1.1333
  154DG      H7 3526   4.112   3.729   3.950 -0.3034  1.2417 -0.0163
  154DG      H8 3527   4.076   3.810   3.795 -2.0218 -0.5656 -2.1456
  154DG      O9 3528   4.468   3.396   3.594 -0.2427  0.1037 -0.0702
  154DG     O10 3529   4.118   3.615   3.775 -0.6134 -0.2144  0.4585
  154DG     C11 3530   4.421   3.262   3.591  0.0302  0.9423  0.0958
  154DG     C12 3531   4.073   3.488   3.823  0.4584  0.0120  0.0738
  154DG     H13 3532   4.481   3.222   3.673  1.2011  3.2854  0.4839
  154DG     H14 3533   4.445   3.205   3.501  0.2212  1.1804 -0.0046
  154DG     H15 3534   3.968   3.504   3.844  0.7296  0.7382  0.9713
  154DG     H16 3535   4.125   3.480   3.919 -1.8375  1.6312  1.5437
  154DG     C17 3536   4.272   3.235   3.635  0.7665 -0.3047  0.0211
  154DG     C18 3537   4.102   3.367   3.730  0.4922  0.0100 -0.4994
  154DG     O19 3538   4.241   3.349   3.706 -0.3108  0.2857 -0.2776
  154DG     H20 3539   4.257   3.146   3.696  0.2019  0.7831  1.5430
  154DG     H21 3540   4.202   3.207   3.557  1.0172  1.3698 -0.8477
  154DG     H22 3541   4.054   3.282   3.777 -0.2608  0.2537 -0.8062
  154DG     H23 3542   4.057   3.392   3.634 -0.0391  0.5615 -0.1191
  155DG      C1 3543   4.266   4.387   4.932 -0.3529 -0.1303  0.2903
  155DG      C2 3544   4.485   4.065   5.430  0.0998 -0.2038  0.2180
  155DG      H3 3545   4.348   4.458   4.923  0.7268 -1.5920 -2.7436
  155DG      H4 3546   4.187   4.417   4.864 -0.7100  1.1578  1.2352
  155DG      H5 3547   4.303   4.293   4.890  1.7488 -0.0116  1.7360
  155DG      H6 3548   4.580   4.090   5.382 -0.3924 -0.6657 -1.0296
  155DG      H7 3549   4.475   4.004   5.520 -1.1844  0.8273  0.8012
  155DG      H8 3550   4.423   4.014   5.356 -3.5629  4.1584 -0.1312
  155DG      O9 3551   4.213   4.360   5.059 -0.2315  0.3791 -0.5051
  155DG     O10 3552   4.424   4.195   5.446 -0.1401  0.1752  0.6362
  155DG     C11 3553   4.148   4.470   5.126  0.3399 -0.5773 -1.3779
  155DG     C12 3554   4.285   4.181   5.491  0.0178  0.1194  0.0854
  155DG     H13 3555   4.058   4.477   5.065  0.0087 -1.4702 -1.0039
  155DG     H14 3556   4.196   4.568   5.117 -2.4395  0.8203 -2.0586
  155DG     H15 3557   4.302   4.178   5.599  2.1392  1.0134 -0.1658
  155DG     H16 3558   4.237   4.093   5.449 -2.6954  1.0432  0.9996
  155DG     C17 3559   4.128   4.440   5.276 -0.0604  0.8408 -0.5101
  155DG     C18 3560   4.214   4.312   5.458 -0.5090 -0.0230  0.1964
  155DG     O19 3561   4.223   4.338   5.317  0.1678 -0.2107  0.1189
  155DG     H20 3562   4.025   4.414   5.301 -0.0379  1.3250  0.0836
  155DG     H21 3563   4.142   4.535   5.326 -0.8226  0.1536  1.0855
  155DG     H22 3564   4.114   4.301   5.499 -0.1676  0.4245  1.1812
  155DG     H23 3565   4.263   4.390   5.516  1.0339 -2.1029  1.8373
  156DG      C1 3566   3.266   5.153   4.654 -0.1872 -0.6735 -0.5581
  156DG      C2 3567   2.899   5.087   4.177  0.1124  0.5734 -0.1743
  156DG      H3 3568   3.296   5.257   4.662  2.7952 -1.5856  2.1550
  156DG      H4 3569   3.334   5.110   4.727 -0.2337  3.5198  2.2758
  156DG      H5 3570   3.165   5.153   4.693 -0.5119  0.9214 -1.3001
  156DG      H6 3571   2.864   5.106   4.075 -1.5899 -0.9150  0.0760
  156DG      H7 3572   2.873   4.986   4.211 -2.3035  1.7101  1.6331
  156DG      H8 3573   2.852   5.157   4.245 -0.3050 -0.1988  0.3387
  156DG      O9 3574   3.264   5.112   4.517 -0.2450 -0.2755 -0.2407
  156DG     O10 3575   3.037   5.104   4.178 -0.0352 -0.1465 -0.5019
  156DG     C11 3576   3.392   5.072   4.473 -0.1692  0.1000  0.1186
  156DG     C12 3577   3.108   5.030   4.081 -0.1058  0.0973 -0.0056
  156DG     H13 3578   3.421   4.971   4.504  0.1975  0.0781 -0.2832
  156DG     H14 3579   3.456   5.144   4.524  0.2377 -0.2418  0.1004
  156DG     H15 3580   3.104   5.077   3.983 -1.9042  2.8667  1.2499
  156DG     H16 3581   3.068   4.930   4.067  1.5522 -0.4919 -0.8211
  156DG     C17 3582   3.403   5.066   4.320 -0.0367  0.4137 -0.5254
  156DG     C18 3583   3.259   5.022   4.126  0.8867  0.1458  0.1718
  156DG     O19 3584   3.278   5.020   4.265  0.2149 -0.0455 -0.5398
  156DG     H20 3585   3.488   5.003   4.291  1.5812  2.3314 -0.1864
  156DG     H21 3586   3.424   5.166   4.281 -0.5756  0.7803  0.0939
  156DG     H22 3587   3.308   4.944   4.067 -0.9742  1.3891 -3.2327
  156DG     H23 3588   3.297   5.120   4.098  1.4536  0.1317  0.8592
  157DG      C1 3589   1.177   0.136   1.686  0.2431  0.3233 -0.0217
  157DG      C2 3590   1.465   0.551   1.285  0.3005  0.1923  0.1820
  157DG      H3 3591   1.102   0.213   1.671 -0.1737 -0.3196 -1.3637
  157DG      H4 3592   1.209   0.156   1.788 -0.7244 -0.0121  0.3494
  157DG      H5 3593   1.124   0.043   1.670  1.2346 -0.2259 -0.2358
  157DG      H6 3594   1.385   0.605   1.337 -1.1051 -0.4283 -1.2333
  157DG      H7 3595   1.518   0.619   1.219 -4.2041  3.6029 -0.4313
  157DG      H8 3596   1.407   0.481   1.225 -1.4100  0.0655  1.8724
  157DG      O9 3597   1.279   0.166   1.588  0.0236  0.2338 -0.1455
  157DG     O10 3598   1.540   0.475   1.387  0.6593 -0.3563  0.1697
  157DG     C11 3599   1.378   0.069   1.594 -0.2070 -0.1760 -0.1257
  157DG     C12 3600   1.619   0.369   1.341 -0.1789 -0.2641 -0.2506
  157DG     H13 3601   1.350  -0.027   1.552  2.5290 -0.2017 -2.1378
  157DG     H14 3602   1.414   0.058   1.696 -1.0937 -2.7063 -0.0198
  157DG     H15 3603   1.715   0.403   1.303  0.4078  1.4153  2.4638
  157DG     H16 3604   1.574   0.311   1.260  2.6393  1.2744 -3.1237
  157DG     C17 3605   1.499   0.108   1.506 -0.6144  0.8683 -0.6796
  157DG     C18 3606   1.659   0.284   1.464 -0.4661  0.8370 -0.1025
  157DG     O19 3607   1.539   0.240   1.532 -0.4119  0.6303  0.4196
  157DG     H20 3608   1.496   0.086   1.399 -2.8336  1.3466 -0.7633
  157DG     H21 3609   1.581   0.044   1.538 -1.6849 -1.3803 -2.2331
  157DG     H22 3610   1.714   0.195   1.431 -0.4992  0.3658  1.0787
  157DG     H23 3611   1.733   0.332   1.527  1.7861 -0.6982 -1.3977
  158DG      C1 3612   1.014   0.040   2.442 -0.2639 -0.0569 -0.2083
  158DG      C2 3613   1.501   0.359   2.248  0.1832  0.0638 -0.1953
  158DG      H3 3614   0.932  -0.004   2.500 -0.5061  0.9365  0.2184
  158DG      H4 3615   1.052  -0.029   2.366 -0.2631 -0.9590  0.5786
  158DG      H5 3616   0.977   0.123   2.382 -0.0624 -2.0590 -3.3491
  158DG      H6 3617   1.512   0.264   2.195  1.5597  0.4219 -0.5730
  158DG      H7 3618   1.422   0.413   2.195  0.5516 -1.1157 -2.0556
  158DG      H8 3619   1.590   0.422   2.245  0.5538 -0.3203  1.5749
  158DG      O9 3620   1.118   0.060   2.538 -0.0705  0.2875 -0.8511
  158DG     O10 3621   1.447   0.314   2.371 -0.3891 -0.0123  0.1929
  158DG     C11 3622   1.084   0.140   2.647  0.7344 -0.1848 -0.7625
  158DG     C12 3623   1.390   0.413   2.455 -0.4232 -0.1252 -0.8478
  158DG     H13 3624   1.057   0.073   2.729 -0.2800 -2.1024 -2.5713
  158DG     H14 3625   1.006   0.215   2.633  0.8234 -0.3376 -2.1986
  158DG     H15 3626   1.294   0.429   2.406 -1.3882 -2.4246  0.1380
  158DG     H16 3627   1.454   0.502   2.458 -1.0135  0.2909  0.3262
  158DG     C17 3628   1.214   0.201   2.695 -0.3275 -0.5210  0.1213
  158DG     C18 3629   1.369   0.347   2.592  0.2006  0.7194 -0.5297
  158DG     O19 3630   1.266   0.254   2.569 -0.0981  0.3809  0.0210
  158DG     H20 3631   1.288   0.132   2.736 -0.5805  0.4206  2.2653
  158DG     H21 3632   1.202   0.285   2.763  2.3947  0.1923 -0.1520
  158DG     H22 3633   1.458   0.301   2.635 -0.4663 -1.7329 -1.5957
  158DG     H23 3634   1.339   0.423   2.665 -3.2062  0.3652 -1.4326
  159DG      C1 3635   1.068   4.755   0.478 -0.1784 -0.6238  0.1068
  159DG      C2 3636   0.781   4.201   0.778 -0.0422 -0.3827 -0.4327
  159DG      H3 3637   1.161   4.745   0.534  0.1215  0.2335 -0.2317
  159DG      H4 3638   1.046   4.862   0.487 -1.2582 -0.6586 -1.6029
  159DG      H5 3639   1.090   4.743   0.372 -1.1715 -2.4835  0.0677
  159DG      H6 3640   0.875   4.149   0.764  0.1230 -0.3374  0.4759
  159DG      H7 3641   0.756   4.205   0.884  0.5616 -0.3665 -0.2913
  159DG      H8 3642   0.713   4.127   0.736  1.7120 -2.8211  0.8231
  159DG      O9 3643   0.970   4.667   0.515  0.0268  0.3987 -0.1898
  159DG     O10 3644   0.772   4.319   0.701 -0.1740  0.2158  0.1834
  159DG     C11 3645   0.840   4.695   0.457 -0.5372  0.4618  1.0484
  159DG     C12 3646   0.644   4.377   0.695  0.5352 -0.4160  0.2777
  159DG     H13 3647   0.827   4.625   0.374 -0.3242  1.3246  0.2722
  159DG     H14 3648   0.842   4.796   0.417 -0.9911  0.5671  1.2774
  159DG     H15 3649   0.593   4.401   0.788  1.6185  2.6426  0.2108
  159DG     H16 3650   0.582   4.297   0.654  1.4926 -0.1497 -1.8255
  159DG     C17 3651   0.734   4.696   0.573 -0.2184 -0.4470  0.3846
  159DG     C18 3652   0.636   4.492   0.600  0.1761  0.3278 -0.1182
  159DG     O19 3653   0.738   4.577   0.652 -0.1099  0.2050 -0.1597
  159DG     H20 3654   0.640   4.715   0.522 -0.0746 -0.5375  0.0865
  159DG     H21 3655   0.754   4.783   0.637  1.3620 -0.7521  0.3667
  159DG     H22 3656   0.654   4.468   0.496 -0.7660 -0.1139 -0.1886
  159DG     H23 3657   0.536   4.533   0.614 -0.3370 -0.4717 -1.3806
  160DG      C1 3658   5.460   3.843   3.329  0.7493  0.2531 -0.7522
  160DG      C2 3659   5.816   3.457   2.765  0.1957  0.8205  0.2264
  160DG      H3 3660   5.425   3.941   3.362  1.1531 -0.4804  2.1360
  160DG      H4 3661   5.527   3.794   3.399  0.4829  2.6452  1.2907
  160DG      H5 3662   5.366   3.787   3.332  1.5269 -1.0861 -0.3887
  160DG      H6 3663   5.819   3.448   2.656  1.1989  0.3252  0.2862
  160DG      H7 3664   5.920   3.458   2.796  0.8004  0.5408 -1.6554
  160DG      H8 3665   5.760   3.369   2.797  0.1977 -0.1283 -2.1856
  160DG      O9 3666   5.504   3.825   3.194  0.2265 -0.0373  0.1842
  160DG     O10 3667   5.758   3.579   2.808 -0.3786 -0.3291 -0.0363
  160DG     C11 3668   5.406   3.855   3.104  0.7269  1.0007  0.7699
  160DG     C12 3669   5.636   3.611   2.737  0.1595 -0.2508  0.9227
  160DG     H13 3670   5.368   3.955   3.123 -0.8127  0.3655  1.1598
  160DG     H14 3671   5.326   3.782   3.110  1.8659 -0.3879 -0.1474
  160DG     H15 3672   5.560   3.535   2.754 -1.5520  1.1416 -0.1173
  160DG     H16 3673   5.660   3.618   2.631 -0.4742  1.7034  0.8691
  160DG     C17 3674   5.460   3.858   2.954  0.1391 -0.0450 -0.0727
  160DG     C18 3675   5.584   3.744   2.783  0.1981 -0.6871  0.3544
  160DG     O19 3676   5.526   3.737   2.913 -0.5371 -0.0505  0.3830
  160DG     H20 3677   5.539   3.932   2.951  0.6228 -0.3741  2.2220
  160DG     H21 3678   5.375   3.888   2.894 -2.1334 -3.1092  1.3579
  160DG     H22 3679   5.661   3.820   2.770 -0.3192 -0.3751 -1.0237
  160DG     H23 3680   5.508   3.773   2.711  1.2565  2.3435  0.3154
  161DG      C1 3681   2.479   5.315   3.400  0.4683  0.2118  0.0762
  161DG      C2 3682   3.130   5.685   3.520 -0.2910 -0.1114  0.3142
  161DG      H3 3683   2.518   5.265   3.488  1.9245 -0.0964 -0.7177
  161DG      H4 3684   2.439   5.232   3.341 -1.4778 -0.6220  2.4007
  161DG      H5 3685   2.396   5.380   3.428  0.3317 -0.6584  1.8621
  161DG      H6 3686   3.217   5.727   3.470 -1.1773  0.9817 -0.3533
  161DG      H7 3687   3.062   5.768   3.535 -0.5835 -0.2380 -0.2851
  161DG      H8 3688   3.153   5.641   3.618  0.6749 -2.1732 -0.7566
  161DG      O9 3689   2.581   5.373   3.326  0.1708  0.0888 -0.1207
  161DG     O10 3690   3.062   5.578   3.450 -0.2098  0.3084 -0.0087
  161DG     C11 3691   2.667   5.281   3.258  0.1855  0.0804  0.3292
  161DG     C12 3692   3.027   5.618   3.317 -0.1742 -0.4227  0.3344
  161DG     H13 3693   2.608   5.224   3.185 -0.0626 -0.7050  1.1234
  161DG     H14 3694   2.702   5.204   3.326  0.1316 -0.8907 -0.7047
  161DG     H15 3695   3.117   5.659   3.270 -1.2603  0.7544 -0.8165
  161DG     H16 3696   2.966   5.708   3.317  1.7117  1.1226 -3.5741
  161DG     C17 3697   2.780   5.361   3.187 -0.1795  0.2334  0.1941
  161DG     C18 3698   2.961   5.514   3.222  0.1417 -0.0458 -0.4353
  161DG     O19 3699   2.845   5.450   3.275 -0.5190  0.0227 -0.0294
  161DG     H20 3700   2.727   5.415   3.108  0.7767  0.8563 -0.0445
  161DG     H21 3701   2.848   5.294   3.134  1.6442  1.6255  0.6559
  161DG     H22 3702   2.945   5.560   3.124  2.6981  1.3313 -0.2824
  161DG     H23 3703   3.033   5.439   3.189  0.8427  0.6552 -0.5122
  162DG      C1 3704   1.978   1.017   0.169 -0.5022 -1.0860 -0.0347
  162DG      C2 3705   2.249   1.235  -0.362 -0.0169 -0.4070 -0.0942
  162DG      H3 3706   1.919   1.037   0.259  0.2984  1.3881  0.0060
  162DG      H4 3707   2.061   0.957   0.208  0.5931 -0.3666 -1.1925
  162DG      H5 3708   1.920   0.957   0.100 -0.9324  0.5518 -1.1577
  162DG      H6 3709   2.351   1.196  -0.358  0.5770  1.0405 -0.5254
  162DG      H7 3710   2.191   1.148  -0.391 -0.1819  0.3221 -2.0888
  162DG      H8 3711   2.241   1.314  -0.437  0.7330  0.8771  1.1198
  162DG      O9 3712   2.025   1.131   0.107  0.1540 -0.2806 -0.3303
  162DG     O10 3713   2.221   1.302  -0.241  0.1214 -0.0169 -0.2704
  162DG     C11 3714   2.098   1.215   0.195 -0.1852 -0.4344 -0.2355
  162DG     C12 3715   2.330   1.350  -0.175 -0.7246 -0.3697  0.0181
  162DG     H13 3716   2.183   1.154   0.229 -2.2572 -1.2040  4.4084
  162DG     H14 3717   2.052   1.246   0.289  0.1420 -1.2760  0.2135
  162DG     H15 3718   2.391   1.412  -0.240  1.1889 -1.7980  0.3562
  162DG     H16 3719   2.404   1.272  -0.156  0.9281  1.1527  0.1336
  162DG     C17 3720   2.146   1.342   0.128  0.0176  0.9571  0.0609
  162DG     C18 3721   2.284   1.410  -0.050 -0.5225  0.1170  0.4037
  162DG     O19 3722   2.213   1.303   0.015 -0.5737  0.6150 -0.2535
  162DG     H20 3723   2.224   1.387   0.189  0.3823 -1.2116  1.3041
  162DG     H21 3724   2.066   1.415   0.110  0.0124  1.5367  2.1848
  162DG     H22 3725   2.373   1.441   0.004  0.9503 -3.5725  0.3802
  162DG     H23 3726   2.229   1.500  -0.078 -0.2939 -0.2836 -1.4117
  163DG      C1 3727   2.114   2.246   4.732  0.0651  0.7634  0.1300
  163DG      C2 3728   2.726   2.371   4.479 -0.6880  0.0852  0.0564
  163DG      H3 3729   2.052   2.176   4.787  0.7185  1.0372  1.2487
  163DG      H4 3730   2.085   2.264   4.629  2.9957  1.5432 -0.6572
  163DG      H5 3731   2.117   2.344   4.779 -1.3820  0.7053  0.3709
  163DG      H6 3732   2.670   2.309   4.409 -0.0467  1.2246 -1.5310
  163DG      H7 3733   2.770   2.463   4.440  0.6249 -0.3649  0.4167
  163DG      H8 3734   2.805   2.306   4.516  1.4301  1.9767 -0.8741
  163DG      O9 3735   2.247   2.199   4.744 -0.1697  0.2781  0.2960
  163DG     O10 3736   2.629   2.396   4.581  0.1918 -0.3256  0.0329
  163DG     C11 3737   2.297   2.185   4.880  0.2282 -0.4240  0.4449
  163DG     C12 3738   2.686   2.437   4.706 -0.2448  0.3460 -0.7762
  163DG     H13 3739   2.330   2.084   4.906 -0.0506 -0.4600  0.6716
  163DG     H14 3740   2.215   2.199   4.950 -0.4366 -0.1954 -0.3684
  163DG     H15 3741   2.717   2.541   4.706  0.3593  0.1756 -0.2803
  163DG     H16 3742   2.768   2.370   4.732 -0.2965  1.5256  3.0499
  163DG     C17 3743   2.399   2.292   4.910 -0.8031 -0.0793 -0.0218
  163DG     C18 3744   2.579   2.426   4.816  0.0415 -0.2689 -0.1707
  163DG     O19 3745   2.479   2.322   4.791  0.3422 -0.1375  0.0072
  163DG     H20 3746   2.470   2.257   4.985 -0.7322 -0.0003 -0.0528
  163DG     H21 3747   2.345   2.375   4.955  0.9332  0.6457  0.8350
  163DG     H22 3748   2.638   2.411   4.906 -0.5309 -0.9349  0.0963
  163DG     H23 3749   2.521   2.517   4.830  1.5870  0.7623 -0.1963
  164DG      C1 3750   3.031   4.784   2.905 -0.4092  0.4415  0.0617
  164DG      C2 3751   3.419   4.867   2.407 -0.3368  0.1376 -1.2344
  164DG      H3 3752   3.074   4.684   2.911  1.2122  1.1554  0.9251
  164DG      H4 3753   2.925   4.759   2.894 -0.1507 -1.6068  1.5700
  164DG      H5 3754   3.050   4.829   3.002  0.7881 -1.3114  0.6872
  164DG      H6 3755   3.477   4.784   2.448 -0.6217  0.7405  0.4758
  164DG      H7 3756   3.325   4.830   2.366  0.2801 -1.9682 -0.8828
  164DG      H8 3757   3.481   4.915   2.332 -0.1337  1.9235  0.0258
  164DG      O9 3758   3.083   4.860   2.798  0.3859  0.8536  0.0898
  164DG     O10 3759   3.390   4.951   2.520  0.2655 -0.3189 -0.5946
  164DG     C11 3760   3.026   4.992   2.792 -0.3204  0.1925 -0.6273
  164DG     C12 3761   3.318   5.067   2.480  0.0178  0.6712 -0.7235
  164DG     H13 3762   3.036   5.040   2.889 -4.0081 -0.5112  0.2603
  164DG     H14 3763   2.925   4.966   2.760  0.1668 -0.3097 -1.8024
  164DG     H15 3764   3.223   5.059   2.427  0.8340 -0.0804 -2.1383
  164DG     H16 3765   3.386   5.122   2.414  0.6934 -0.8961 -1.3798
  164DG     C17 3766   3.088   5.061   2.678 -0.4695  0.4510 -1.2270
  164DG     C18 3767   3.296   5.145   2.611 -0.1782 -0.4009  0.2325
  164DG     O19 3768   3.223   5.077   2.708 -0.1670 -0.4907 -0.2107
  164DG     H20 3769   3.040   5.158   2.667  0.2148  0.8391 -0.8481
  164DG     H21 3770   3.082   4.992   2.594 -0.7509 -0.2101 -0.6761
  164DG     H22 3771   3.389   5.182   2.653 -0.6490 -0.1005  1.0334
  164DG     H23 3772   3.239   5.233   2.579  0.8004  0.8753  1.8169
  165DG      C1 3773   0.355   0.523   3.870 -0.0056  0.3329  0.3096
  165DG      C2 3774   0.629   0.936   4.324  0.0706 -0.2703  0.5087
  165DG      H3 3775   0.343   0.423   3.828  0.7653  0.9385 -1.4150
  165DG      H4 3776   0.418   0.576   3.799  0.2559  1.5732  1.4374
  165DG      H5 3777   0.255   0.566   3.864  1.0008  2.8020  0.0321
  165DG      H6 3778   0.697   0.957   4.241 -0.3421 -0.6721  0.0554
  165DG      H7 3779   0.548   1.007   4.311 -0.1557 -0.4864  0.7283
  165DG      H8 3780   0.690   0.965   4.409  0.5767  0.3744 -0.0596
  165DG      O9 3781   0.432   0.514   3.986  0.3199  0.1240  0.1525
  165DG     O10 3782   0.586   0.801   4.302  0.5456 -0.1662  0.4286
  165DG     C11 3783   0.363   0.439   4.089  0.5787 -0.6887  0.2746
  165DG     C12 3784   0.519   0.756   4.411 -0.5906  0.4677 -0.6678
  165DG     H13 3785   0.342   0.338   4.056  1.0729 -0.3417 -1.1479
  165DG     H14 3786   0.265   0.484   4.107  1.1239 -0.1463  2.1808
  165DG     H15 3787   0.426   0.809   4.432  0.0308  0.6740  1.8428
  165DG     H16 3788   0.585   0.778   4.495  1.2278 -0.8069 -1.7109
  165DG     C17 3789   0.436   0.451   4.224  0.4817  0.6643  0.5798
  165DG     C18 3790   0.511   0.601   4.400 -0.0450  0.4494  0.4828
  165DG     O19 3791   0.441   0.582   4.276 -0.4595 -0.0092 -0.5669
  165DG     H20 3792   0.538   0.415   4.210 -0.7041 -2.6969 -0.4102
  165DG     H21 3793   0.407   0.371   4.293  0.4658  0.0001 -0.1868
  165DG     H22 3794   0.604   0.546   4.410 -0.2415  0.0948  0.3778
  165DG     H23 3795   0.453   0.567   4.485  0.6828 -2.5518 -0.1056
  166DG      C1 3796   0.207   4.658   3.050  0.7157  0.3280 -0.1043
  166DG      C2 3797  -0.262   4.980   3.431 -0.3293  0.1265 -0.3455
  166DG      H3 3798   0.199   4.578   3.124  0.9055 -1.1726 -1.6734
  166DG      H4 3799   0.269   4.734   3.098  2.6267 -0.9658 -0.4018
  166DG      H5 3800   0.257   4.598   2.975 -0.5122 -0.3501 -0.4056
  166DG      H6 3801  -0.219   5.076   3.401  0.5154  0.6155  2.1559
  166DG      H7 3802  -0.370   4.978   3.444 -0.4906 -2.7813 -1.4763
  166DG      H8 3803  -0.213   4.956   3.525 -0.8741  1.5131  0.3198
  166DG      O9 3804   0.080   4.709   3.014  0.3575 -0.0981 -0.5944
  166DG     O10 3805  -0.232   4.887   3.328 -0.1341 -0.0115  0.4029
  166DG     C11 3806  -0.011   4.606   2.988 -0.0083  0.4386  0.3405
  166DG     C12 3807  -0.286   4.925   3.201 -0.0531  0.1802 -0.9820
  166DG     H13 3808  -0.018   4.529   3.065 -2.6618 -1.3217 -1.4967
  166DG     H14 3809   0.013   4.551   2.897 -2.1299  0.1896 -0.1076
  166DG     H15 3810  -0.214   4.992   3.155 -1.1562  2.5025  0.4745
  166DG     H16 3811  -0.376   4.986   3.210 -0.0340  0.0233  0.4236
  166DG     C17 3812  -0.145   4.670   2.985  0.2140  0.2816 -0.6015
  166DG     C18 3813  -0.300   4.799   3.122  0.4249 -0.0316 -0.1258
  166DG     O19 3814  -0.176   4.728   3.111 -0.0420 -0.4564 -0.1893
  166DG     H20 3815  -0.217   4.591   2.969 -0.9147  1.2595 -0.4677
  166DG     H21 3816  -0.142   4.748   2.909  2.8014 -0.7412 -1.6685
  166DG     H22 3817  -0.363   4.728   3.176  2.8738 -1.9167  0.4940
  166DG     H23 3818  -0.340   4.822   3.024 -0.8550 -0.7154  0.2084
  167DG      C1 3819   0.711   1.712   1.860  0.6632  0.1472  0.3436
  167DG      C2 3820   0.596   1.953   2.441  0.3021 -0.7971 -0.0367
  167DG      H3 3821   0.681   1.705   1.755  1.2063 -0.4280  0.2191
  167DG      H4 3822   0.626   1.728   1.926  1.2746 -0.1781  1.2221
  167DG      H5 3823   0.750   1.612   1.879  0.2530 -0.0292  0.2643
  167DG      H6 3824   0.500   1.914   2.475 -0.1159 -0.1787 -0.4809
  167DG      H7 3825   0.661   1.866   2.432 -1.6262 -2.3514  0.3032
  167DG      H8 3826   0.642   2.023   2.511  2.3122 -0.1834 -1.8640
  167DG      O9 3827   0.818   1.807   1.878  0.6630  0.0554 -0.2747
  167DG     O10 3828   0.589   2.015   2.311  0.0840 -0.3021 -0.1442
  167DG     C11 3829   0.781   1.942   1.826 -0.3706  0.7532  0.4989
  167DG     C12 3830   0.502   1.952   2.221 -0.1289 -0.5688 -0.4300
  167DG     H13 3831   0.789   1.956   1.719 -0.9543 -2.9455 -0.1368
  167DG     H14 3832   0.868   1.994   1.867  0.3547  2.8971 -3.3037
  167DG     H15 3833   0.400   1.973   2.253  0.3761  2.0934 -0.3236
  167DG     H16 3834   0.513   1.843   2.220 -1.3662 -0.8498  2.8132
  167DG     C17 3835   0.656   1.997   1.884  0.2975 -0.1177 -0.1162
  167DG     C18 3836   0.513   2.012   2.073 -0.1098  0.4081 -0.3751
  167DG     O19 3837   0.643   1.974   2.022  0.3291  0.5131  0.0131
  167DG     H20 3838   0.577   1.954   1.824 -0.9213 -0.1741  1.4719
  167DG     H21 3839   0.653   2.102   1.853 -1.5017 -0.1518 -0.1300
  167DG     H22 3840   0.436   1.975   2.004  1.9517  0.0318 -2.6151
  167DG     H23 3841   0.503   2.120   2.059  0.0497  0.4495 -0.1774
  168DG      C1 3842   0.729   0.622   4.743  0.3163  0.1154 -0.4826
  168DG      C2 3843   1.143   0.617   5.312 -0.4273 -0.3503  0.0312
  168DG      H3 3844   0.625   0.589   4.734  0.7261 -1.1724 -0.7792
  168DG      H4 3845   0.785   0.615   4.650  0.1381  1.2533 -0.6895
  168DG      H5 3846   0.729   0.727   4.772 -0.0160  0.0688 -0.3063
  168DG      H6 3847   1.237   0.627   5.258  0.1558 -0.5508  0.9736
  168DG      H7 3848   1.117   0.719   5.339 -0.0683 -0.5503  1.2101
  168DG      H8 3849   1.164   0.567   5.407  0.4486  1.8070  1.0308
  168DG      O9 3850   0.787   0.557   4.853  0.4262 -0.5962 -0.2411
  168DG     O10 3851   1.033   0.553   5.252  0.0870  0.0009 -0.7883
  168DG     C11 3852   0.812   0.422   4.823 -0.1517  0.3586  0.2601
  168DG     C12 3853   1.064   0.415   5.211  0.2714 -0.3351 -0.0303
  168DG     H13 3854   0.875   0.420   4.735  0.9203 -1.0557  1.0205
  168DG     H14 3855   0.714   0.376   4.810 -1.0457  2.2202  0.0711
  168DG     H15 3856   1.108   0.361   5.295 -1.0486 -0.4162  0.6236
  168DG     H16 3857   1.149   0.406   5.142  0.4003 -2.8521  0.3644
  168DG     C17 3858   0.899   0.358   4.934  0.1887 -0.0329 -0.6399
  168DG     C18 3859   0.944   0.330   5.166 -0.1887  0.1648 -0.0831
  168DG     O19 3860   0.861   0.390   5.065 -0.2926 -0.2099 -0.7046
  168DG     H20 3861   1.002   0.393   4.922 -0.3118  1.3768 -1.1005
  168DG     H21 3862   0.903   0.250   4.923 -1.0098 -0.0952 -0.6051
  168DG     H22 3863   0.970   0.228   5.138 -1.1756 -0.8241  2.3147
  168DG     H23 3864   0.878   0.313   5.251 -2.3041  0.8689 -1.4939
  169DG      C1 3865   3.326   4.059   0.561  0.1937  0.5320  0.1650
  169DG      C2 3866   3.524   3.461   0.745  0.3929 -0.0338 -0.3732
  169DG      H3 3867   3.240   4.126   0.555 -0.5043 -0.4461 -1.1744
  169DG      H4 3868   3.323   3.995   0.472 -1.2592  1.0277 -0.1727
  169DG      H5 3869   3.415   4.122   0.554  2.2154 -2.1619  0.0184
  169DG      H6 3870   3.435   3.426   0.692  1.6566  0.2423 -2.7991
  169DG      H7 3871   3.593   3.497   0.669 -1.4687 -2.1571 -3.2835
  169DG      H8 3872   3.574   3.380   0.800  0.7209  0.1706 -0.3666
  169DG      O9 3873   3.328   3.991   0.685 -0.6598 -0.1673  0.7520
  169DG     O10 3874   3.500   3.575   0.829  0.0762  0.2960 -0.3985
  169DG     C11 3875   3.203   3.939   0.732 -0.5764  1.0052 -0.4717
  169DG     C12 3876   3.392   3.553   0.927 -0.0145  0.4186  0.4323
  169DG     H13 3877   3.168   3.865   0.660 -1.8475  3.3887 -2.4748
  169DG     H14 3878   3.131   4.020   0.736  1.7060  3.1027  2.7472
  169DG     H15 3879   3.433   3.503   1.015 -0.3544 -0.2713  0.2071
  169DG     H16 3880   3.315   3.487   0.889  0.7812  0.3774 -1.1552
  169DG     C17 3881   3.241   3.877   0.864 -0.1073  0.3693 -0.3996
  169DG     C18 3882   3.330   3.685   0.959  0.7373 -0.7279 -0.2122
  169DG     O19 3883   3.299   3.753   0.838 -0.4802  0.6650 -0.1894
  169DG     H20 3884   3.142   3.850   0.901 -0.2638  1.0265 -0.3195
  169DG     H21 3885   3.296   3.940   0.934 -2.4699  2.3772 -0.1957
  169DG     H22 3886   3.239   3.683   1.019 -1.9447 -1.3181 -3.9380
  169DG     H23 3887   3.391   3.760   1.010 -2.6807  2.9458 -0.9945
  170DG      C1 3888   2.716   3.432   4.970  0.2393 -0.3867 -0.0581
  170DG      C2 3889   3.134   3.584   4.512 -0.6002  0.3454  0.4463
  170DG      H3 3890   2.656   3.499   4.908 -1.9201 -1.7931  0.4004
  170DG      H4 3891   2.785   3.488   5.033  0.5934 -0.1039 -0.6793
  170DG      H5 3892   2.651   3.373   5.034 -0.6309 -0.6818 -1.1900
  170DG      H6 3893   3.184   3.569   4.417  1.6281 -1.0265  1.7370
  170DG      H7 3894   3.069   3.669   4.496 -3.4575 -1.4438  1.7382
  170DG      H8 3895   3.215   3.606   4.582 -1.5871  1.1751  1.3741
  170DG      O9 3896   2.794   3.355   4.883 -0.0377  0.0363  0.7879
  170DG     O10 3897   3.071   3.471   4.550 -0.2715 -0.7235 -0.2619
  170DG     C11 3898   2.882   3.262   4.952  0.0973  0.2402 -0.5418
  170DG     C12 3899   3.159   3.362   4.574  0.0180  0.0908  0.0755
  170DG     H13 3900   2.840   3.178   5.009  0.8662 -0.6526 -1.2714
  170DG     H14 3901   2.947   3.315   5.021  0.7637 -0.4033 -0.6627
  170DG     H15 3902   3.243   3.384   4.640  0.6826  0.5177 -0.8911
  170DG     H16 3903   3.204   3.337   4.478  0.3913  2.3920 -0.3996
  170DG     C17 3904   2.964   3.203   4.841 -0.8792 -0.9325  0.6351
  170DG     C18 3905   3.076   3.252   4.643  0.5319  0.7210  0.1794
  170DG     O19 3906   3.024   3.308   4.765  0.2752 -0.4136 -0.0653
  170DG     H20 3907   2.904   3.141   4.774 -0.0278 -0.8663 -0.2126
  170DG     H21 3908   3.034   3.137   4.892  1.7207  0.7052 -0.6172
  170DG     H22 3909   2.991   3.220   4.582  0.2695 -0.3790  1.0840
  170DG     H23 3910   3.132   3.158   4.646  1.0441  0.9730 -0.9278
  171DG      C1 3911   1.738   0.273   2.533  0.8072 -0.1093 -0.5448
  171DG      C2 3912   2.313   0.600   2.342  0.1917  0.0396  0.7571
  171DG      H3 3913   1.648   0.212   2.527 -0.2662  1.0557  2.0646
  171DG      H4 3914   1.706   0.373   2.503  1.6387  0.4810  0.4632
  171DG      H5 3915   1.765   0.281   2.638  0.5914  1.6046 -0.5973
  171DG      H6 3916   2.263   0.674   2.279 -0.0563 -0.3885  0.4451
  171DG      H7 3917   2.306   0.626   2.447 -2.2200  0.5218  0.5295
  171DG      H8 3918   2.414   0.596   2.302  0.3605  2.0357  0.9053
  171DG      O9 3919   1.848   0.237   2.459 -0.3354 -0.2337 -0.0581
  171DG     O10 3920   2.245   0.480   2.328 -0.2659  0.2437 -0.0657
  171DG     C11 3921   1.823   0.240   2.319 -0.2114 -0.5398 -0.6436
  171DG     C12 3922   2.274   0.403   2.207 -0.1420  0.2960 -0.0441
  171DG     H13 3923   1.785   0.337   2.289 -0.9155 -0.8026 -0.6297
  171DG     H14 3924   1.752   0.161   2.294  2.1668 -2.9589 -0.1927
  171DG     H15 3925   2.377   0.367   2.201 -0.4765 -0.6263 -0.3075
  171DG     H16 3926   2.269   0.461   2.115 -2.3655 -0.1970 -0.2928
  171DG     C17 3927   1.954   0.215   2.235 -0.0117  0.8901 -0.1831
  171DG     C18 3928   2.184   0.283   2.194  1.1832 -0.1900 -0.7102
  171DG     O19 3929   2.055   0.312   2.257 -0.2283 -0.4320  0.3595
  171DG     H20 3930   1.929   0.210   2.129  0.1634 -1.5975 -0.1549
  171DG     H21 3931   1.986   0.114   2.261  3.3732  1.6835 -0.8507
  171DG     H22 3932   2.178   0.259   2.088  2.7249  2.1206 -1.3842
  171DG     H23 3933   2.240   0.202   2.240  0.6316  0.1982  0.7024
  172DG      C1 3934   1.622   0.787   1.591 -0.1900  0.4466 -0.3253
  172DG      C2 3935   2.038   0.933   1.164 -0.7916  0.1516  0.0882
  172DG      H3 3936   1.721   0.756   1.627 -1.6083 -1.8797  1.9038
  172DG      H4 3937   1.560   0.698   1.581  0.3233 -0.0207  0.4982
  172DG      H5 3938   1.567   0.852   1.659  2.8438  1.8071  1.0373
  172DG      H6 3939   2.058   0.922   1.057 -1.1949  0.8586 -0.0667
  172DG      H7 3940   2.087   1.021   1.204  0.3433 -0.8768  1.0352
  172DG      H8 3941   2.068   0.845   1.220  0.2635  0.8523  0.6574
  172DG      O9 3942   1.629   0.851   1.466  0.2559  0.4002 -0.2592
  172DG     O10 3943   1.896   0.940   1.182 -0.0593 -0.5476  0.5384
  172DG     C11 3944   1.509   0.913   1.424  0.3447 -0.3646 -0.3163
  172DG     C12 3945   1.837   1.044   1.112 -0.3032 -0.4653 -0.2510
  172DG     H13 3946   1.508   1.010   1.474 -0.0225  0.3472 -1.6450
  172DG     H14 3947   1.423   0.848   1.437 -0.0902  0.1856 -0.4041
  172DG     H15 3948   1.864   1.053   1.007 -1.1355 -0.1255 -0.4489
  172DG     H16 3949   1.859   1.144   1.150  2.0196 -0.0984 -2.2661
  172DG     C17 3950   1.523   0.941   1.274  0.0671  0.5175 -0.9679
  172DG     C18 3951   1.686   1.019   1.116  0.3540  0.1784  0.5608
  172DG     O19 3952   1.656   1.013   1.255 -0.1932 -0.0016 -0.2144
  172DG     H20 3953   1.447   1.009   1.236 -1.0948 -0.0952  0.1955
  172DG     H21 3954   1.512   0.848   1.217  1.0756  0.6021 -1.3206
  172DG     H22 3955   1.623   1.091   1.065 -1.9645 -0.7615  1.9483
  172DG     H23 3956   1.659   0.926   1.065 -0.6350 -0.0588  1.4622
  173DG      C1 3957   1.141   2.980   0.372  0.0369  0.1745 -0.4876
  173DG      C2 3958   0.738   2.613   0.018  0.3036  0.3688  0.4678
  173DG      H3 3959   1.217   2.914   0.331  1.6648  2.1372 -0.7972
  173DG      H4 3960   1.190   3.014   0.463  0.2649 -1.6905  0.1230
  173DG      H5 3961   1.135   3.058   0.296  1.9491  1.1124  0.2590
  173DG      H6 3962   0.835   2.577  -0.015  0.0289 -0.8182  0.8891
  173DG      H7 3963   0.665   2.532   0.013 -0.0740  0.6876  0.7219
  173DG      H8 3964   0.700   2.684  -0.055 -1.8255  1.7095  2.7053
  173DG      O9 3965   1.013   2.925   0.389  0.0862 -0.1759  0.4103
  173DG     O10 3966   0.750   2.685   0.138  0.0526  0.3135  0.0970
  173DG     C11 3967   0.923   3.026   0.438 -0.8021  0.8492 -0.3122
  173DG     C12 3968   0.623   2.745   0.179  0.4598  0.4740  0.5296
  173DG     H13 3969   0.927   3.110   0.369  1.6522  0.8467 -0.2480
  173DG     H14 3970   0.968   3.066   0.529  1.0649  0.5882 -1.0801
  173DG     H15 3971   0.532   2.685   0.174  0.3266  0.7054  0.1438
  173DG     H16 3972   0.607   2.827   0.108  1.2782 -0.9009 -1.3525
  173DG     C17 3973   0.794   2.951   0.438  0.0059 -0.7456 -0.2915
  173DG     C18 3974   0.651   2.797   0.318  0.1326  0.0517 -0.0029
  173DG     O19 3975   0.770   2.876   0.315 -0.0958  0.4878  0.4178
  173DG     H20 3976   0.711   3.020   0.456  0.7854  0.8326 -2.2673
  173DG     H21 3977   0.800   2.893   0.530 -0.7859 -0.5342 -0.1009
  173DG     H22 3978   0.569   2.861   0.348  0.4937  1.7579 -2.3290
  173DG     H23 3979   0.670   2.715   0.386  1.1198 -1.6724 -2.2220
  174DG      C1 3980   5.177   4.685   3.653  0.8022  0.1701 -0.0873
  174DG      C2 3981   5.559   5.027   3.205 -0.6090 -0.7488  0.3803
  174DG      H3 3982   5.156   4.780   3.702 -1.3378  0.0301 -0.6387
  174DG      H4 3983   5.149   4.605   3.721 -0.1449  1.1111  0.6865
  174DG      H5 3984   5.113   4.686   3.565  2.6957 -0.2112 -1.5231
  174DG      H6 3985   5.485   5.090   3.254  0.3738  1.0544 -0.3385
  174DG      H7 3986   5.646   5.088   3.178  0.4813 -2.4799 -0.1666
  174DG      H8 3987   5.523   4.996   3.107  1.9058 -1.4841 -0.4006
  174DG      O9 3988   5.311   4.682   3.608  0.4444 -0.0694 -0.0494
  174DG     O10 3989   5.591   4.914   3.279  0.2143  0.1198  0.2805
  174DG     C11 3990   5.412   4.687   3.705 -0.2801  0.0949 -0.2080
  174DG     C12 3991   5.655   4.962   3.392 -0.3591  0.3877 -1.2193
  174DG     H13 3992   5.414   4.590   3.755  0.4340  0.4424  0.4599
  174DG     H14 3993   5.392   4.755   3.788 -0.7492 -0.3221  0.0255
  174DG     H15 3994   5.604   5.035   3.454  1.7538 -0.6607  1.9498
  174DG     H16 3995   5.745   5.014   3.361  0.1872 -0.3524 -0.9035
  174DG     C17 3996   5.541   4.711   3.637 -0.2215 -0.0267 -0.4040
  174DG     C18 3997   5.674   4.844   3.484 -0.2458 -0.5015  0.5716
  174DG     O19 3998   5.548   4.816   3.541 -0.0798 -0.1817 -0.0615
  174DG     H20 3999   5.558   4.615   3.589  1.0608 -0.0548  0.0899
  174DG     H21 4000   5.619   4.733   3.710  0.7450 -2.0117 -0.7765
  174DG     H22 4001   5.706   4.751   3.438 -0.1648 -0.0048 -0.4151
  174DG     H23 4002   5.749   4.859   3.561  0.1909  0.4253 -0.0143
  175DG      C1 4003   3.074   2.544   1.250 -0.4485 -0.0724 -0.0381
  175DG      C2 4004   3.136   2.994   1.714  0.3149  0.0164  1.0565
  175DG      H3 4005   2.999   2.597   1.192  1.1712  0.8472 -1.3722
  175DG      H4 4006   3.088   2.445   1.208  0.4900  0.9945 -2.4457
  175DG      H5 4007   3.167   2.598   1.232 -0.1959 -0.7749 -0.8710
  175DG      H6 4008   3.077   3.050   1.786 -1.2499 -1.5332  1.0400
  175DG      H7 4009   3.243   3.012   1.721  1.0567 -3.9102  1.6363
  175DG      H8 4010   3.103   3.044   1.623  0.5930  0.3653  1.1442
  175DG      O9 4011   3.042   2.549   1.390 -0.3599 -0.0051 -0.2903
  175DG     O10 4012   3.095   2.862   1.705  0.4848  0.6401  0.1370
  175DG     C11 4013   3.119   2.460   1.469 -0.2684  0.0611  0.6210
  175DG     C12 4014   3.126   2.788   1.820 -0.3846 -0.1709  0.2202
  175DG     H13 4015   3.224   2.471   1.442 -0.5553 -1.3150 -1.2020
  175DG     H14 4016   3.084   2.362   1.436  3.1299 -0.7678 -0.9057
  175DG     H15 4017   3.073   2.831   1.905 -2.0723  2.5958 -2.0481
  175DG     H16 4018   3.229   2.817   1.841 -0.3289 -1.5787  2.1448
  175DG     C17 4019   3.106   2.472   1.619  0.1897  0.9568 -0.5222
  175DG     C18 4020   3.113   2.643   1.796 -0.0758  0.2160 -0.7666
  175DG     O19 4021   3.155   2.601   1.662  0.2064  0.3993  0.4350
  175DG     H20 4022   3.157   2.394   1.675 -1.4477  1.2364  1.4772
  175DG     H21 4023   3.001   2.459   1.645  0.8020 -0.6878  1.4048
  175DG     H22 4024   3.171   2.586   1.869  1.1382  1.9624 -0.3021
  175DG     H23 4025   3.007   2.618   1.808  0.1322  0.2831  1.9047
  176DG      C1 4026   2.436   0.148   0.816  0.6977 -0.1972 -0.4599
  176DG      C2 4027   2.673  -0.291   0.293 -1.0022 -0.7132  0.3018
  176DG      H3 4028   2.416   0.232   0.749 -2.1613  1.0794  1.7832
  176DG      H4 4029   2.445   0.197   0.913  1.8607 -1.3236  0.0258
  176DG      H5 4030   2.344   0.089   0.818  1.6320 -1.6979  1.6996
  176DG      H6 4031   2.594  -0.367   0.289 -2.2841  0.5297  1.1386
  176DG      H7 4032   2.632  -0.210   0.233 -0.8683 -0.8057  0.0811
  176DG      H8 4033   2.755  -0.341   0.243 -2.3012 -3.5027  0.7379
  176DG      O9 4034   2.542   0.055   0.796  0.2143  0.1582 -0.3632
  176DG     O10 4035   2.709  -0.256   0.429 -0.5337 -0.4722 -0.1037
  176DG     C11 4036   2.668   0.102   0.801  0.1138  0.1446  0.2413
  176DG     C12 4037   2.819  -0.166   0.425 -0.0307  0.4189 -0.2066
  176DG     H13 4038   2.690   0.123   0.906  0.7010  0.8412 -0.0180
  176DG     H14 4039   2.677   0.194   0.745 -0.1229  0.9468  1.4767
  176DG     H15 4040   2.789  -0.089   0.353 -0.1072 -0.3108 -0.9762
  176DG     H16 4041   2.903  -0.219   0.380  0.9679 -0.4993  2.5356
  176DG     C17 4042   2.775   0.003   0.754 -0.1941  0.5551 -0.5002
  176DG     C18 4043   2.860  -0.118   0.569 -1.0136 -0.2543  0.4625
  176DG     O19 4044   2.746  -0.049   0.626  0.0946  0.4321 -0.0344
  176DG     H20 4045   2.783  -0.080   0.824 -0.1705 -0.4837 -1.7027
  176DG     H21 4046   2.870   0.058   0.751 -0.2245  0.6387  0.0132
  176DG     H22 4047   2.893  -0.212   0.615  0.8836  0.0669 -0.1430
  176DG     H23 4048   2.945  -0.049   0.568 -2.8973  2.1848 -0.9667
  177DG      C1 4049   2.354   3.227   2.759  0.2526  0.5269  0.4140
  177DG      C2 4050   2.036   3.375   2.213  0.0708  0.4216  0.1724
  177DG      H3 4051   2.379   3.328   2.726 -0.0610 -0.0850 -1.8522
  177DG      H4 4052   2.432   3.156   2.730  0.4102  1.1283 -0.6646
  177DG      H5 4053   2.317   3.223   2.861 -2.9548  0.3000 -0.6325
  177DG      H6 4054   2.142   3.350   2.210 -0.3027 -1.3112  0.3280
  177DG      H7 4055   2.000   3.345   2.114  0.8584  1.4347 -0.4372
  177DG      H8 4056   2.030   3.480   2.239 -0.6395  0.6016 -0.6577
  177DG      O9 4057   2.233   3.197   2.685  0.0398  0.7717  0.4029
  177DG     O10 4058   1.975   3.300   2.321  0.0156 -0.1077  0.5056
  177DG     C11 4059   2.191   3.065   2.697  0.1530  0.2486  0.0506
  177DG     C12 4060   1.957   3.161   2.296 -0.1501  0.5462  0.6184
  177DG     H13 4061   2.175   3.055   2.804 -0.8479 -1.7484 -0.2497
  177DG     H14 4062   2.258   2.986   2.665  0.8545  0.9951 -0.3724
  177DG     H15 4063   2.041   3.111   2.248 -2.6038 -0.5626 -2.8946
  177DG     H16 4064   1.868   3.165   2.234 -0.2604  1.5158  0.8139
  177DG     C17 4065   2.055   3.049   2.629 -0.1748  0.7120 -0.2825
  177DG     C18 4066   1.934   3.092   2.432  0.3813 -0.4509 -0.4338
  177DG     O19 4067   2.057   3.103   2.502  0.5529 -0.1640 -0.1164
  177DG     H20 4068   1.984   3.108   2.688 -0.7980  1.6453 -1.8816
  177DG     H21 4069   2.034   2.943   2.616  2.0730  0.4425 -2.4015
  177DG     H22 4070   1.860   3.162   2.469  1.4238  0.2857  0.3299
  177DG     H23 4071   1.894   2.991   2.423 -1.1977 -0.0170  1.1475
  178DG      C1 4072   0.538   0.381   5.296 -0.5095  0.3017  0.4730
  178DG      C2 4073   0.972   0.793   5.022 -0.0623 -0.5724  0.0223
  178DG      H3 4074   0.635   0.331   5.299  0.6999  2.5198  0.8074
  178DG      H4 4075   0.475   0.299   5.261  3.7402 -1.7687 -3.4271
  178DG      H5 4076   0.514   0.406   5.399 -1.8629  1.9248 -0.2008
  178DG      H6 4077   0.909   0.816   4.936 -0.6914 -0.5529  0.4825
  178DG      H7 4078   1.048   0.870   5.030 -0.6209 -0.1856  2.0912
  178DG      H8 4079   1.004   0.689   5.012 -1.7396 -0.9528 -2.2401
  178DG      O9 4080   0.568   0.486   5.209 -0.7823  0.1358 -0.0930
  178DG     O10 4081   0.894   0.807   5.130  0.0013  0.4036 -0.4353
  178DG     C11 4082   0.456   0.568   5.174 -0.1979  0.0660  0.1026
  178DG     C12 4083   0.790   0.911   5.123  0.7073 -0.4379 -0.6327
  178DG     H13 4084   0.416   0.616   5.263 -1.4688  2.6849 -1.7283
  178DG     H14 4085   0.382   0.507   5.122 -0.6605 -0.2163  1.0792
  178DG     H15 4086   0.831   0.995   5.067  1.0069 -0.5218 -0.5412
  178DG     H16 4087   0.782   0.947   5.225  2.4673 -3.2296  0.5968
  178DG     C17 4088   0.499   0.684   5.074  0.4644  0.4075 -0.2681
  178DG     C18 4089   0.661   0.864   5.067  0.5332 -0.7427 -0.9788
  178DG     O19 4090   0.616   0.746   5.140  0.3202 -0.2259 -0.5599
  178DG     H20 4091   0.429   0.766   5.056  0.4667  1.1453  2.6000
  178DG     H21 4092   0.537   0.628   4.988  0.4752 -2.3230  1.4005
  178DG     H22 4093   0.585   0.941   5.057 -0.7056 -1.7535  0.1968
  178DG     H23 4094   0.679   0.831   4.965  1.6053 -1.3070 -0.6141
  179DG      C1 4095   4.710   1.101   2.478 -0.2008  0.0762 -0.1755
  179DG      C2 4096   5.130   0.706   2.919 -0.0599 -0.0229 -0.0640
  179DG      H3 4097   4.614   1.120   2.527 -0.2207 -2.6470  1.0412
  179DG      H4 4098   4.705   1.000   2.437 -1.9950 -0.3598  0.9945
  179DG      H5 4099   4.712   1.168   2.392 -0.5872  1.6559  0.9926
  179DG      H6 4100   5.045   0.660   2.969 -0.5146 -0.2563 -1.0301
  179DG      H7 4101   5.195   0.623   2.890 -1.3688 -0.5751 -1.5818
  179DG      H8 4102   5.187   0.770   2.987  2.6194  0.2399 -2.3806
  179DG      O9 4103   4.826   1.114   2.562 -0.2601 -0.4673 -0.0256
  179DG     O10 4104   5.085   0.793   2.824 -0.3073 -0.6882  0.4229
  179DG     C11 4105   4.953   1.125   2.499  0.4654 -0.2802 -0.1410
  179DG     C12 4106   5.186   0.821   2.730 -0.3052  0.5269  0.0603
  179DG     H13 4107   4.955   1.215   2.437 -0.5832  0.6463  1.0893
  179DG     H14 4108   4.984   1.043   2.435 -1.6185 -1.7107  0.5543
  179DG     H15 4109   5.201   0.728   2.676  1.2363  0.9228 -0.2430
  179DG     H16 4110   5.284   0.857   2.763  0.0735  2.2569 -2.6234
  179DG     C17 4111   5.072   1.140   2.599  0.3405 -0.6101  0.4267
  179DG     C18 4112   5.133   0.914   2.613 -0.6533 -0.5106 -0.4325
  179DG     O19 4113   5.084   1.023   2.683  0.3861 -0.4343 -0.1112
  179DG     H20 4114   5.053   1.224   2.666 -0.2681 -0.6976  0.3698
  179DG     H21 4115   5.162   1.164   2.544  0.0471  2.0912  0.9702
  179DG     H22 4116   5.215   0.948   2.549  1.4074 -0.5718  1.9896
  179DG     H23 4117   5.059   0.863   2.553  0.5731 -1.3592 -1.2810
  180DG      C1 4118   2.162   4.359   5.038  0.5899 -0.2216 -0.4891
  180DG      C2 4119   2.801   4.621   4.961 -0.3802 -0.8763  0.0401
  180DG      H3 4120   2.184   4.259   5.002  1.4922 -0.2021 -0.0277
  180DG      H4 4121   2.056   4.371   5.013  0.9625  2.0834 -1.2177
  180DG      H5 4122   2.168   4.355   5.147  3.0611  0.4048 -0.5439
  180DG      H6 4123   2.861   4.711   4.947 -1.9033  0.3032  0.8511
  180DG      H7 4124   2.810   4.588   5.064 -0.1337  0.7988  0.5809
  180DG      H8 4125   2.834   4.533   4.906  0.3429 -0.3862 -0.3339
  180DG      O9 4126   2.252   4.454   4.972 -0.3303  0.0865 -0.8451
  180DG     O10 4127   2.666   4.651   4.935 -0.3115  0.6930 -0.2480
  180DG     C11 4128   2.237   4.459   4.831  0.4578  0.2152 -0.1143
  180DG     C12 4129   2.636   4.697   4.804 -0.1859  0.0705 -0.3381
  180DG     H13 4130   2.135   4.445   4.798  0.8290  0.0018 -1.1980
  180DG     H14 4131   2.304   4.383   4.791 -0.7963 -2.1806  2.0857
  180DG     H15 4132   2.659   4.607   4.746  2.8161 -0.3120  1.2055
  180DG     H16 4133   2.713   4.766   4.771  0.7511 -0.1630  1.2144
  180DG     C17 4134   2.295   4.595   4.791 -0.3907 -0.0421 -0.1535
  180DG     C18 4135   2.489   4.732   4.782 -0.4806 -0.2136 -0.1935
  180DG     O19 4136   2.434   4.605   4.826 -0.7638  0.5068 -0.1512
  180DG     H20 4137   2.235   4.673   4.837 -1.5289 -1.8039  1.4633
  180DG     H21 4138   2.297   4.606   4.682 -1.6895  1.2407 -0.0737
  180DG     H22 4139   2.450   4.813   4.845 -0.6408 -1.3586  1.2449
  180DG     H23 4140   2.469   4.760   4.679 -0.3791  1.0739  0.1146
  181DG      C1 4141   1.990   0.644   4.323 -0.2858  0.0325  0.5465
  181DG      C2 4142   2.076   0.333   3.761 -0.5122 -0.3056 -0.2011
  181DG      H3 4143   1.947   0.684   4.415  1.6906  1.4095  0.9337
  181DG      H4 4144   2.081   0.698   4.300  0.3730 -1.7757 -1.4809
  181DG      H5 4145   2.034   0.546   4.344 -0.8125  0.1661  2.4710
  181DG      H6 4146   2.067   0.320   3.653  1.7184  2.1989 -0.7946
  181DG      H7 4147   2.172   0.378   3.784 -0.5947  0.5906 -1.4905
  181DG      H8 4148   2.071   0.230   3.798 -0.0138  0.1401  1.1703
  181DG      O9 4149   1.900   0.626   4.209  0.3534 -0.5540 -0.3861
  181DG     O10 4150   1.977   0.414   3.820  0.1225 -0.2412  0.0684
  181DG     C11 4151   1.858   0.744   4.144 -0.8059  0.1271  0.7888
  181DG     C12 4152   1.934   0.529   3.748  0.4725  0.0395 -0.7399
  181DG     H13 4153   1.955   0.786   4.115 -0.3629 -2.3203 -1.5513
  181DG     H14 4154   1.805   0.808   4.215 -2.3068 -0.0043 -0.1909
  181DG     H15 4155   1.900   0.493   3.650  0.5404  0.9312 -1.0948
  181DG     H16 4156   2.017   0.599   3.739  0.6288 -0.0785 -0.2475
  181DG     C17 4157   1.778   0.704   4.021 -0.4764  0.3768 -0.4097
  181DG     C18 4158   1.816   0.588   3.823 -0.3593  0.8623  0.5912
  181DG     O19 4159   1.869   0.622   3.947  0.4785  0.1318  0.0988
  181DG     H20 4160   1.747   0.799   3.978  0.6261  0.2738 -1.5051
  181DG     H21 4161   1.692   0.654   4.065 -0.1358  0.6460  0.5859
  181DG     H22 4162   1.768   0.678   3.784 -0.7299  1.4809  2.3954
  181DG     H23 4163   1.741   0.509   3.831 -1.3306  1.5299 -1.2210
  182DG      C1 4164   2.084   0.409   4.596  0.0386  0.1279  0.3845
  182DG      C2 4165   2.262   0.716   4.023 -0.2714  0.0969  0.2122
  182DG      H3 4166   2.085   0.316   4.653 -0.0601 -0.0286  0.1314
  182DG      H4 4167   1.987   0.426   4.550 -0.3333 -1.6365  0.4374
  182DG      H5 4168   2.107   0.487   4.669  2.1620 -0.6042  0.5672
  182DG      H6 4169   2.284   0.764   4.119  3.1580 -1.4581  0.3509
  182DG      H7 4170   2.355   0.740   3.971 -1.0856  1.0469 -0.8689
  182DG      H8 4171   2.174   0.764   3.980 -0.3380 -0.0230  0.2149
  182DG      O9 4172   2.171   0.397   4.481  0.1716 -0.1272 -0.4860
  182DG     O10 4173   2.243   0.575   4.029  0.1130  0.4519  0.1280
  182DG     C11 4174   2.162   0.270   4.417  0.2055 -0.4080  0.5289
  182DG     C12 4175   2.363   0.497   4.061  0.1469  0.2049  0.1161
  182DG     H13 4176   2.061   0.257   4.380  0.1616  2.2204 -0.5420
  182DG     H14 4177   2.179   0.188   4.487  1.6486 -0.5124  0.0878
  182DG     H15 4178   2.416   0.543   4.145 -2.0101  1.2550  0.9774
  182DG     H16 4179   2.438   0.499   3.982  1.1811  0.6494  1.0859
  182DG     C17 4180   2.265   0.258   4.307 -0.4455  0.4972  0.4582
  182DG     C18 4181   2.336   0.354   4.110  0.2176  0.2882  0.5210
  182DG     O19 4182   2.248   0.359   4.219 -0.0727  0.4882 -0.0404
  182DG     H20 4183   2.250   0.156   4.270 -0.2147  0.6770 -0.1504
  182DG     H21 4184   2.362   0.279   4.352 -1.6268  2.3296  2.2712
  182DG     H22 4185   2.294   0.288   4.034 -2.1178  0.8325  1.2670
  182DG     H23 4186   2.433   0.312   4.135  0.4224  1.1535  1.2468
  183DG      C1 4187   5.425   1.226   0.537 -0.4266 -0.0751  0.4987
  183DG      C2 4188   5.457   0.906  -0.037 -0.3222 -0.0995  0.3775
  183DG      H3 4189   5.517   1.285   0.533 -2.0972  2.7361  0.4591
  183DG      H4 4190   5.381   1.240   0.636 -3.3526 -0.0134 -0.6910
  183DG      H5 4191   5.357   1.278   0.470 -0.5559 -0.0473  0.6494
  183DG      H6 4192   5.484   0.826  -0.106  0.4802 -0.0018  0.5679
  183DG      H7 4193   5.360   0.941  -0.069  0.1825 -0.7800 -2.0590
  183DG      H8 4194   5.537   0.980  -0.045 -1.1991  0.6906 -2.1123
  183DG      O9 4195   5.439   1.093   0.491 -0.2246  0.0378  0.3347
  183DG     O10 4196   5.442   0.863   0.101  0.1540 -0.3310  0.4841
  183DG     C11 4197   5.544   1.017   0.556  0.1660  0.1122  0.4649
  183DG     C12 4198   5.561   0.797   0.135  0.7856  0.2709 -1.0931
  183DG     H13 4199   5.518   1.004   0.662 -1.7314  1.6252  0.2310
  183DG     H14 4200   5.643   1.061   0.548  0.6603 -1.0301  0.0727
  183DG     H15 4201   5.651   0.854   0.115  1.0778  1.4493  2.8698
  183DG     H16 4202   5.554   0.705   0.077 -0.9722  0.0857 -0.6536
  183DG     C17 4203   5.549   0.882   0.490 -0.0495 -0.8272  0.5852
  183DG     C18 4204   5.552   0.769   0.283  0.3968 -0.0056  0.4374
  183DG     O19 4205   5.548   0.899   0.346 -0.2873  0.3227 -0.6347
  183DG     H20 4206   5.464   0.822   0.524 -0.0186  0.2289  2.6976
  183DG     H21 4207   5.623   0.816   0.535 -1.0891 -1.7693  0.9732
  183DG     H22 4208   5.471   0.710   0.325  1.8365 -2.9976 -0.6861
  183DG     H23 4209   5.634   0.708   0.323 -0.3094 -2.4651 -1.6123
  184DG      C1 4210   4.668   3.579   1.872  0.5676 -0.8072 -0.0740
  184DG      C2 4211   5.339   3.693   1.726 -0.3234  0.3111  0.2426
  184DG      H3 4212   4.608   3.616   1.789 -0.0833  1.2687  1.2422
  184DG      H4 4213   4.701   3.665   1.930 -1.1233  0.2802 -0.6497
  184DG      H5 4214   4.610   3.512   1.936 -0.3303  0.4346  0.4481
  184DG      H6 4215   5.433   3.661   1.773 -1.2925  0.5825  2.4751
  184DG      H7 4216   5.368   3.722   1.625 -0.1303 -1.7123 -0.3445
  184DG      H8 4217   5.292   3.780   1.771 -0.7381  0.1786  0.0656
  184DG      O9 4218   4.789   3.523   1.833 -0.2047  0.3045 -0.0792
  184DG     O10 4219   5.236   3.600   1.717  0.2530  0.2846  0.5856
  184DG     C11 4220   4.777   3.439   1.718 -0.2160  0.0338  0.1278
  184DG     C12 4221   5.258   3.485   1.634  0.2721  0.3025  0.4990
  184DG     H13 4222   4.744   3.492   1.629  0.3479 -0.0434 -0.1373
  184DG     H14 4223   4.701   3.366   1.743 -2.9858  1.9767 -2.0150
  184DG     H15 4224   5.348   3.430   1.663 -0.3038 -0.7560  0.3194
  184DG     H16 4225   5.265   3.511   1.529  0.7964  0.9960  0.6927
  184DG     C17 4226   4.914   3.367   1.692 -0.7688  0.3770  0.3776
  184DG     C18 4227   5.141   3.388   1.649 -0.5239 -0.5399  0.2412
  184DG     O19 4228   5.015   3.457   1.658  0.0505  0.1101 -0.3820
  184DG     H20 4229   4.901   3.308   1.602  0.8200 -0.2074  0.4968
  184DG     H21 4230   4.939   3.303   1.777 -0.6100  0.6468  0.5334
  184DG     H22 4231   5.136   3.321   1.564  0.7008 -0.1609 -0.1469
  184DG     H23 4232   5.155   3.336   1.744 -1.9533 -1.5245 -0.0584
  185DG      C1 4233   2.520   1.127   1.862 -0.3713  0.0834 -0.1971
  185DG      C2 4234   2.645   1.848   2.056 -0.1250  0.8175  0.3784
  185DG      H3 4235   2.568   1.080   1.777  2.3818 -0.1191  1.3536
  185DG      H4 4236   2.489   1.047   1.929 -2.5576 -0.6237 -1.9372
  185DG      H5 4237   2.584   1.192   1.922 -0.5725  2.1071 -2.0182
  185DG      H6 4238   2.743   1.861   2.009 -1.0000  1.6593 -1.3241
  185DG      H7 4239   2.625   1.945   2.100  1.5842  2.0870 -1.4308
  185DG      H8 4240   2.651   1.776   2.137  0.5755  0.3972 -0.0382
  185DG      O9 4241   2.399   1.190   1.831 -0.4814  0.3048 -0.2953
  185DG     O10 4242   2.545   1.801   1.966 -0.1120  0.3146  0.1801
  185DG     C11 4243   2.324   1.238   1.946  0.2747 -0.6465 -0.1006
  185DG     C12 4244   2.562   1.662   1.925 -0.2543 -0.1023 -0.1989
  185DG     H13 4245   2.299   1.150   2.005 -0.2892 -1.9343 -2.1539
  185DG     H14 4246   2.224   1.270   1.916 -0.6005 -3.2104 -0.1508
  185DG     H15 4247   2.660   1.619   1.945  0.1512  0.6501 -0.5346
  185DG     H16 4248   2.566   1.646   1.817  0.6235  1.8074 -0.4856
  185DG     C17 4249   2.386   1.357   2.028  0.1584 -0.5615 -0.1385
  185DG     C18 4250   2.442   1.583   1.975  0.4919 -0.0325 -0.5764
  185DG     O19 4251   2.454   1.446   1.942 -0.1775 -0.3287  0.2529
  185DG     H20 4252   2.462   1.321   2.098  0.3466 -1.1633 -0.6413
  185DG     H21 4253   2.311   1.413   2.083  1.0677  1.2572 -0.6914
  185DG     H22 4254   2.438   1.592   2.083 -0.3404 -1.3654 -0.4716
  185DG     H23 4255   2.347   1.629   1.945 -0.4990 -0.0477  2.2765
  186DG      C1 4256   4.993   3.639   1.392  0.4067 -0.7561  0.4736
  186DG      C2 4257   5.000   3.713   2.109  0.3204  0.0177  0.2578
  186DG      H3 4258   4.997   3.675   1.290 -0.7282  0.0784  0.7043
  186DG      H4 4259   4.910   3.570   1.405  0.5361 -0.8188  0.9945
  186DG      H5 4260   5.088   3.584   1.391 -0.3787 -2.1854 -0.7206
  186DG      H6 4261   5.105   3.713   2.138 -0.2473  2.1070  2.5837
  186DG      H7 4262   4.956   3.771   2.190  0.3150  3.2825 -1.9062
  186DG      H8 4263   4.972   3.607   2.109 -0.2494  0.1488 -0.6607
  186DG      O9 4264   5.001   3.737   1.493 -0.3875  0.5375 -0.1865
  186DG     O10 4265   4.957   3.761   1.985  0.1885 -0.0308 -0.7939
  186DG     C11 4266   4.886   3.817   1.487  0.3379 -0.1048 -0.6366
  186DG     C12 4267   4.984   3.906   1.962  0.0885 -0.5862 -0.4527
  186DG     H13 4268   4.798   3.767   1.527 -0.0196  0.2633 -0.9640
  186DG     H14 4269   4.865   3.869   1.394  1.4308  1.0432 -0.2779
  186DG     H15 4270   5.090   3.925   1.979 -0.0635 -0.0453 -0.0840
  186DG     H16 4271   4.946   3.963   2.047  0.9655 -0.3146 -0.2385
  186DG     C17 4272   4.901   3.934   1.591 -0.9215 -0.3992  0.7817
  186DG     C18 4273   4.931   3.953   1.827 -0.1815  1.1157  0.1636
  186DG     O19 4274   4.978   3.886   1.706 -0.2416  0.3479  0.2341
  186DG     H20 4275   4.804   3.983   1.603 -0.4525  0.6664  0.3914
  186DG     H21 4276   4.966   4.000   1.534 -0.5670 -1.5806 -0.2140
  186DG     H22 4277   4.823   3.952   1.842 -0.0624  0.1230  1.1341
  186DG     H23 4278   4.961   4.057   1.812  1.8350  0.5755  0.2723
  187DG      C1 4279   1.404   1.357   5.217  0.3441 -0.1153 -0.3236
  187DG      C2 4280   0.974   1.724   4.894  0.4073 -0.6062  1.2286
  187DG      H3 4281   1.333   1.288   5.172 -1.4803  0.7042  1.1763
  187DG      H4 4282   1.458   1.313   5.300  0.8659  0.0889 -0.5508
  187DG      H5 4283   1.483   1.393   5.150  0.7583 -1.5889 -0.6560
  187DG      H6 4284   1.040   1.714   4.808 -0.3530  1.8849  0.2647
  187DG      H7 4285   0.879   1.672   4.880  0.2497  0.2246 -1.4133
  187DG      H8 4286   0.951   1.830   4.906 -1.1437 -0.9665  1.6599
  187DG      O9 4287   1.350   1.488   5.251 -0.1213 -0.5148 -0.6581
  187DG     O10 4288   1.040   1.683   5.009 -0.0700  0.0994  0.1043
  187DG     C11 4289   1.276   1.475   5.371 -0.4157  0.0729 -0.0980
  187DG     C12 4290   0.955   1.688   5.125 -0.2128  0.7595  0.0954
  187DG     H13 4291   1.334   1.448   5.460 -0.3913 -1.9663 -0.6776
  187DG     H14 4292   1.220   1.382   5.354 -0.2974  0.1374 -0.8698
  187DG     H15 4293   0.895   1.598   5.137  0.4762  0.3183  0.2902
  187DG     H16 4294   0.881   1.767   5.113 -2.0417 -0.7852  0.8317
  187DG     C17 4295   1.186   1.599   5.389 -0.0077  0.2329  0.7338
  187DG     C18 4296   1.034   1.721   5.247  0.8580 -0.1973 -1.1625
  187DG     O19 4297   1.128   1.618   5.264 -0.3950 -0.2964 -0.1109
  187DG     H20 4298   1.243   1.688   5.415  0.1517 -0.2644  2.1847
  187DG     H21 4299   1.109   1.573   5.462 -2.4376  1.2776 -1.3065
  187DG     H22 4300   1.095   1.811   5.233  2.8764 -1.3427 -0.2337
  187DG     H23 4301   0.973   1.729   5.336  1.4108 -2.2996 -0.5386
  188DG      C1 4302   3.269   5.424   3.017  0.3162 -0.1462 -0.1476
  188DG      C2 4303   2.633   5.052   2.962  0.2310 -0.8937 -0.3184
  188DG      H3 4304   3.337   5.351   2.973  0.2014 -0.0672 -0.4584
  188DG      H4 4305   3.276   5.413   3.125  0.1005  1.2028  0.0207
  188DG      H5 4306   3.316   5.521   3.005 -1.8291  0.8730 -0.8519
  188DG      H6 4307   2.650   5.030   3.067  0.0471  1.0917  0.1654
  188DG      H7 4308   2.526   5.068   2.947  0.2208 -1.8645 -1.5124
  188DG      H8 4309   2.660   4.963   2.904  2.6556  0.2032 -0.9892
  188DG      O9 4310   3.139   5.402   2.973  0.1303 -0.5587 -0.2716
  188DG     O10 4311   2.713   5.162   2.922 -0.1959 -1.0240 -0.2485
  188DG     C11 4312   3.127   5.431   2.828  0.0846  1.0471  0.4230
  188DG     C12 4313   2.701   5.204   2.792  0.8932  0.6812  0.4694
  188DG     H13 4314   3.183   5.360   2.768 -1.9789  2.1918 -3.1394
  188DG     H14 4315   3.179   5.525   2.806  2.6168 -0.1842  0.7848
  188DG     H15 4316   2.602   5.240   2.764  0.5587  1.0200  2.0072
  188DG     H16 4317   2.734   5.124   2.725 -0.3649 -0.9550  1.7228
  188DG     C17 4318   2.987   5.437   2.778 -0.3165  0.1343  0.4907
  188DG     C18 4319   2.781   5.332   2.765  0.5596 -0.0916  0.1129
  188DG     O19 4320   2.924   5.316   2.783 -0.0611  0.2382  0.2426
  188DG     H20 4321   2.992   5.473   2.675 -0.4057  2.9346  1.4042
  188DG     H21 4322   2.930   5.515   2.829 -1.4461  0.6244 -1.3856
  188DG     H22 4323   2.766   5.371   2.665 -1.8829  0.8116  0.7697
  188DG     H23 4324   2.751   5.410   2.834  2.7639 -0.1076  1.1926
  189DG      C1 4325   0.980   2.171   4.691 -0.4694  0.4021 -0.0944
  189DG      C2 4326   0.528   1.926   4.212  0.3304 -0.0988 -0.2483
  189DG      H3 4327   0.974   2.172   4.800 -0.5609 -0.0595 -0.0938
  189DG      H4 4328   1.029   2.261   4.656  0.4606 -0.5323 -1.2622
  189DG      H5 4329   1.045   2.084   4.680 -0.5026  0.2975  0.5102
  189DG      H6 4330   0.617   1.872   4.180  0.1052 -0.6054 -0.0227
  189DG      H7 4331   0.433   1.874   4.226 -0.5000  1.3210 -0.3768
  189DG      H8 4332   0.503   2.016   4.154 -0.7925  0.3381  0.8483
  189DG      O9 4333   0.855   2.142   4.636  0.2939 -0.0706 -0.0555
  189DG     O10 4334   0.557   1.965   4.342 -0.7967 -0.2026  0.0230
  189DG     C11 4335   0.779   2.262   4.630 -0.5058  0.4965  0.5031
  189DG     C12 4336   0.449   2.026   4.405  0.5540 -0.4821 -0.3566
  189DG     H13 4337   0.809   2.310   4.537  0.9081 -0.5849  0.3638
  189DG     H14 4338   0.805   2.328   4.713  1.6911  0.4921 -0.1212
  189DG     H15 4339   0.366   1.958   4.419  1.0735 -0.8701  1.0019
  189DG     H16 4340   0.425   2.112   4.342  1.4880 -0.5158 -0.7698
  189DG     C17 4341   0.634   2.240   4.634 -0.0317 -0.7840 -0.5020
  189DG     C18 4342   0.487   2.086   4.541 -0.0017  0.5805  0.0008
  189DG     O19 4343   0.613   2.155   4.528 -0.2003  0.3595  0.1082
  189DG     H20 4344   0.583   2.332   4.605 -1.2434 -0.5610  2.0584
  189DG     H21 4345   0.584   2.199   4.722 -1.4132  0.7453 -0.5364
  189DG     H22 4346   0.408   2.149   4.582 -0.6046 -0.8263  1.0885
  189DG     H23 4347   0.506   2.007   4.614  3.8461  0.1959 -1.1944
  190DG      C1 4348   5.051   1.055   5.325  0.2778 -0.9382  0.1523
  190DG      C2 4349   4.594   1.434   4.985  0.2595 -0.2784 -0.3709
  190DG      H3 4350   5.104   1.148   5.303 -0.6777  0.3522  2.8651
  190DG      H4 4351   5.108   0.968   5.291  0.0568 -1.0411  0.0403
  190DG      H5 4352   5.062   1.045   5.433  1.0944  1.0488  0.2868
  190DG      H6 4353   4.653   1.512   5.033 -2.2124  2.3165 -1.2827
  190DG      H7 4354   4.626   1.430   4.881  3.3157  0.9956  0.3999
  190DG      H8 4355   4.492   1.469   4.994  0.0682 -0.6931 -0.8701
  190DG      O9 4356   4.915   1.066   5.277 -0.2097  0.7156  0.5088
  190DG     O10 4357   4.613   1.312   5.057 -0.7904  0.6288 -0.0542
  190DG     C11 4358   4.818   0.969   5.330 -1.0171 -0.1420  0.6666
  190DG     C12 4359   4.552   1.192   4.996  0.2099 -1.3978 -0.3996
  190DG     H13 4360   4.817   0.968   5.439 -1.9230 -0.6992  0.6582
  190DG     H14 4361   4.846   0.867   5.304  0.0040 -0.7117  3.5904
  190DG     H15 4362   4.607   1.172   4.905  3.6155  2.9628  0.3684
  190DG     H16 4363   4.450   1.221   4.970  1.1960  2.4532 -0.5918
  190DG     C17 4364   4.674   1.009   5.283 -0.3948  0.6744  0.0579
  190DG     C18 4365   4.543   1.081   5.107  0.4179 -0.0063  0.7036
  190DG     O19 4366   4.670   1.057   5.151  0.5640  0.4780  0.0620
  190DG     H20 4367   4.629   1.086   5.345  1.4753  1.3748  0.6137
  190DG     H21 4368   4.613   0.918   5.283 -1.3304  1.2528 -1.9368
  190DG     H22 4369   4.486   1.115   5.193 -0.4751 -2.0829  0.9883
  190DG     H23 4370   4.500   0.990   5.066  0.4674  1.3906 -2.8184
  191DG      C1 4371   3.429   3.833   4.816  0.2775 -0.2277  0.3315
  191DG      C2 4372   2.680   3.777   4.717 -0.1038  0.2245 -0.1525
  191DG      H3 4373   3.414   3.923   4.875  1.6735 -0.2394  0.7339
  191DG      H4 4374   3.459   3.858   4.714 -1.5068  0.5370 -0.0371
  191DG      H5 4375   3.517   3.786   4.862  1.2815  0.3471 -0.9506
  191DG      H6 4376   2.703   3.852   4.642 -2.3281  0.6052 -0.5188
  191DG      H7 4377   2.633   3.690   4.671  0.5642 -0.4284  0.3748
  191DG      H8 4378   2.607   3.826   4.782 -1.6234  1.8807 -2.9356
  191DG      O9 4379   3.315   3.745   4.815  0.0521 -0.7916 -0.5385
  191DG     O10 4380   2.792   3.713   4.779 -0.1989  0.3348 -0.0373
  191DG     C11 4381   3.297   3.676   4.933 -0.0864 -0.0800 -0.2983
  191DG     C12 4382   2.889   3.807   4.818 -0.5788  0.1408  0.1293
  191DG     H13 4383   3.294   3.751   5.012 -0.5875  0.2136 -0.5907
  191DG     H14 4384   3.383   3.610   4.949  0.4391  0.7845  0.5719
  191DG     H15 4385   2.839   3.886   4.873  0.4434  0.8025  0.1301
  191DG     H16 4386   2.929   3.855   4.729 -0.4262  2.3060  1.3120
  191DG     C17 4387   3.171   3.580   4.914 -0.1408  0.1675 -1.0677
  191DG     C18 4388   2.997   3.742   4.908  0.2577  0.1029 -0.4316
  191DG     O19 4389   3.060   3.637   4.840  0.1725 -0.5125 -0.4083
  191DG     H20 4390   3.133   3.552   5.013 -0.3894  0.6806 -1.0154
  191DG     H21 4391   3.204   3.485   4.870 -0.9437  0.0820 -1.5074
  191DG     H22 4392   3.060   3.813   4.962 -2.3350  1.4514  1.0327
  191DG     H23 4393   2.942   3.695   4.989  0.2112  1.4290  0.3410
  192DG      C1 4394   0.577   3.532   4.313  0.6075  0.2719 -0.9289
  192DG      C2 4395   0.503   3.559   5.011  0.1639  0.1013  0.1011
  192DG      H3 4396   0.652   3.543   4.236 -0.6044  2.2423 -1.9002
  192DG      H4 4397   0.501   3.608   4.295 -1.5187 -0.3738  3.6246
  192DG      H5 4398   0.518   3.440   4.321  1.3753 -0.1314  0.4828
  192DG      H6 4399   0.397   3.588   5.006 -0.4307 -2.0989 -1.7414
  192DG      H7 4400   0.498   3.451   5.006 -0.4283  0.1592 -0.9556
  192DG      H8 4401   0.550   3.592   5.103 -0.4597  1.6435 -0.0924
  192DG      O9 4402   0.643   3.560   4.433 -0.3252 -0.4276 -0.4827
  192DG     O10 4403   0.583   3.602   4.901  0.0408 -0.0419 -0.0453
  192DG     C11 4404   0.688   3.692   4.430 -0.2823 -0.2580 -0.0726
  192DG     C12 4405   0.581   3.744   4.878 -0.4783 -0.4178  0.0856
  192DG     H13 4406   0.609   3.765   4.411 -0.6884 -0.5468  0.4625
  192DG     H14 4407   0.761   3.701   4.350  0.6181 -2.9580  0.3338
  192DG     H15 4408   0.598   3.785   4.978  2.7283  0.4733 -0.7204
  192DG     H16 4409   0.489   3.784   4.835 -0.2508  0.2346  0.1955
  192DG     C17 4410   0.754   3.721   4.563 -0.0701  0.0448 -0.2408
  192DG     C18 4411   0.692   3.781   4.775 -0.6160  0.2588 -0.3463
  192DG     O19 4412   0.658   3.711   4.664  0.8238 -0.7672 -0.2955
  192DG     H20 4413   0.781   3.827   4.559  0.3051 -0.0858 -1.6248
  192DG     H21 4414   0.839   3.661   4.593  0.3269  1.0045  0.6205
  192DG     H22 4415   0.693   3.886   4.743 -0.1331  0.1462 -0.7065
  192DG     H23 4416   0.787   3.754   4.821 -1.4271  1.8585  2.4383
  193DG      C1 4417   1.040   4.779   0.843  0.3063 -0.3431 -0.5198
  193DG      C2 4418   0.986   4.305   0.374  0.1107  0.5063  1.2443
  193DG      H3 4419   1.093   4.870   0.814 -0.5994  0.2431 -0.3958
  193DG      H4 4420   1.033   4.783   0.951  2.2375  0.0029 -0.3676
  193DG      H5 4421   0.935   4.792   0.816 -0.1759 -0.7461  1.0492
  193DG      H6 4422   1.008   4.200   0.355 -0.2979  0.8234 -1.3871
  193DG      H7 4423   0.881   4.324   0.392  0.3552  3.6422 -0.0902
  193DG      H8 4424   1.014   4.346   0.277  1.7990 -3.8432 -0.3913
  193DG      O9 4425   1.088   4.659   0.786 -0.0818  0.4903  0.0701
  193DG     O10 4426   1.067   4.360   0.470  0.0655  0.0254  0.1810
  193DG     C11 4427   1.223   4.638   0.820 -0.3246  0.1748 -0.2268
  193DG     C12 4428   1.205   4.322   0.451  0.4020  0.4654  0.0106
  193DG     H13 4429   1.239   4.640   0.928  0.9116  0.7963 -0.4056
  193DG     H14 4430   1.288   4.713   0.775 -2.3934  0.3586 -3.2012
  193DG     H15 4431   1.252   4.381   0.372 -0.4182  3.4476  1.6041
  193DG     H16 4432   1.228   4.219   0.423 -1.5042  0.1896 -0.7365
  193DG     C17 4433   1.271   4.495   0.776  0.5013  0.2098  0.4499
  193DG     C18 4434   1.277   4.365   0.578 -0.7727  0.2624 -0.3835
  193DG     O19 4435   1.214   4.471   0.643  0.2315  0.2514  0.0663
  193DG     H20 4436   1.232   4.417   0.842  1.7993 -1.6288 -0.8555
  193DG     H21 4437   1.379   4.485   0.774  0.5022  0.2166  0.4600
  193DG     H22 4438   1.288   4.280   0.646  2.6717  1.9362  1.4526
  193DG     H23 4439   1.384   4.381   0.568 -0.3281 -0.7020  2.0840
  194DG      C1 4440   5.040   2.271   3.692 -0.2856 -0.2714 -0.0890
  194DG      C2 4441   5.015   1.468   3.679  0.2150 -0.0819 -0.6095
  194DG      H3 4442   5.004   2.345   3.764 -1.1455 -0.8188  0.0569
  194DG      H4 4443   4.951   2.263   3.629  1.0634  1.0354 -2.2979
  194DG      H5 4444   5.120   2.329   3.647 -0.4854 -1.3185 -1.8622
  194DG      H6 4445   4.953   1.409   3.612  0.2433 -0.5637 -0.2121
  194DG      H7 4446   5.085   1.396   3.721 -2.1194 -1.6910  0.7399
  194DG      H8 4447   4.951   1.501   3.761  0.9493 -1.0281  0.3584
  194DG      O9 4448   5.097   2.149   3.743  0.1717 -0.5465 -0.6176
  194DG     O10 4449   5.081   1.562   3.602  0.3839 -0.3646 -0.1238
  194DG     C11 4450   4.994   2.075   3.820  0.2666 -0.1148 -0.5255
  194DG     C12 4451   5.153   1.657   3.683 -0.2121 -1.0694 -0.7924
  194DG     H13 4452   4.915   2.053   3.748 -0.9564  1.3642  0.2847
  194DG     H14 4453   4.950   2.139   3.896  2.1168  0.5752  0.0242
  194DG     H15 4454   5.219   1.713   3.617  0.3507 -0.6226  0.1224
  194DG     H16 4455   5.217   1.605   3.755  0.0299  1.4740  0.9665
  194DG     C17 4456   5.065   1.954   3.890 -0.3781 -0.3652  0.5070
  194DG     C18 4457   5.054   1.758   3.746  0.3704 -0.5006 -0.8095
  194DG     O19 4458   5.130   1.866   3.802  0.4464  0.3486  0.0685
  194DG     H20 4459   4.995   1.903   3.956 -0.2447  0.5169  1.3613
  194DG     H21 4460   5.144   1.981   3.962  1.4182 -0.5656 -1.3012
  194DG     H22 4461   4.987   1.806   3.674  2.1491  1.1368 -1.4533
  194DG     H23 4462   5.002   1.718   3.833 -1.0913  2.2396 -0.3012
  195THF     O1 4463   5.441   4.864   4.772 -0.2597 -0.3368 -0.7278
  195THF     C2 4464   5.515   4.761   4.840  0.3557  0.3064 -0.2460
  195THF     C3 4465   5.488   4.862   4.641 -0.5612 -0.1375 -0.8562
  195THF     H4 4466   5.458   4.668   4.840 -0.6757  0.8776 -2.7947
  195THF     H5 4467   5.526   4.778   4.948 -1.4128 -0.3403  0.0682
  195THF     H6 4468   5.447   4.772   4.595 -1.3040 -1.2295  1.7413
  195THF     H7 4469   5.451   4.952   4.591 -3.1473 -0.5319  0.2076
  195THF     C8 4470   5.639   4.851   4.669 -0.2529  0.0136 -0.4125
  195THF     C9 4471   5.652   4.748   4.783 -0.2135  0.3995 -0.2376
  195THF    H10 4472   5.678   4.949   4.693 -1.8781  0.2341  1.6340
  195THF    H11 4473   5.673   4.814   4.572  1.1119 -2.0918  0.7990
  195THF    H12 4474   5.663   4.645   4.748 -2.2614  0.1936 -0.3926
  195THF    H13 4475   5.734   4.755   4.854 -0.7309  0.8781  0.3331
  196THF     O1 4476   0.470   2.900   2.316 -0.0992 -0.3865  0.1351
  196THF     C2 4477   0.531   3.013   2.275 -0.0401  0.0713  0.8730
  196THF     C3 4478   0.424   2.828   2.196 -0.1298  0.4508 -0.9800
  196THF     H4 4479   0.636   2.996   2.300  0.1004 -0.5775 -0.0871
  196THF     H5 4480   0.507   3.102   2.333 -0.4327  0.6963 -0.2159
  196THF     H6 4481   0.511   2.765   2.178 -1.4625 -1.9582  0.5405
  196THF     H7 4482   0.348   2.754   2.219  0.1842 -0.3345 -2.3096
  196THF     C8 4483   0.397   2.933   2.082  0.4547  0.1321 -0.3809
  196THF     C9 4484   0.507   3.029   2.117  0.8892 -0.7761  0.0510
  196THF    H10 4485   0.296   2.973   2.087 -0.5309 -2.1825 -0.4890
  196THF    H11 4486   0.407   2.896   1.980  0.3114 -2.0010  0.3264
  196THF    H12 4487   0.590   3.025   2.046  0.7203 -2.5796 -0.0765
  196THF    H13 4488   0.461   3.125   2.091  0.2943 -1.1409 -0.2692
  197THF     O1 4489   4.012   0.880   0.251 -0.4333 -0.0217 -0.4123
  197THF     C2 4490   3.943   0.958   0.153  0.3648 -0.2105  0.2142
  197THF     C3 4491   3.978   0.929   0.376 -0.1769 -0.0859  0.2607
  197THF     H4 4492   3.935   0.902   0.060 -1.9236 -2.5070  1.6717
  197THF     H5 4493   3.990   1.055   0.134  2.8836 -1.4634 -0.3457
  197THF     H6 4494   3.981   0.851   0.452 -0.8828  0.9801  1.4208
  197THF     H7 4495   4.061   0.995   0.403 -0.8649  1.0876 -0.3853
  197THF     C8 4496   3.844   1.000   0.365  0.3165 -0.0695  0.6661
  197THF     C9 4497   3.804   0.979   0.221  0.0142  0.6556  0.0531
  197THF    H10 4498   3.869   1.099   0.404  0.5148  1.1120 -2.2261
  197THF    H11 4499   3.767   0.948   0.423 -1.5446 -0.6976 -2.1479
  197THF    H12 4500   3.752   0.883   0.219  1.7425 -0.3998  1.7777
  197THF    H13 4501   3.748   1.067   0.189 -0.9972  0.0792  0.1874
  198THF     O1 4502   3.803   0.014   3.092 -0.0563 -0.1605 -0.1239
  198THF     C2 4503   3.674   0.001   3.151 -0.3646  0.1549 -0.3192
  198THF     C3 4504   3.789  -0.038   2.964  0.0732 -0.4401  0.2800
  198THF     H4 4505   3.604   0.077   3.118  1.6188  3.3088  2.1583
  198THF     H5 4506   3.673   0.004   3.260 -0.0977  1.1960 -0.3374
  198THF     H6 4507   3.752   0.046   2.905 -1.8531  0.2105  2.3101
  198THF     H7 4508   3.886  -0.067   2.922  0.8751  3.4326 -0.9422
  198THF     C8 4509   3.695  -0.156   2.974 -0.1881  0.5881  0.7266
  198THF     C9 4510   3.619  -0.130   3.104 -0.1631 -0.2864  0.6915
  198THF    H10 4511   3.748  -0.251   2.975 -0.0008  0.6875  0.3283
  198THF    H11 4512   3.622  -0.156   2.893  0.0605  2.6839  0.4457
  198THF    H12 4513   3.513  -0.123   3.079 -0.2469  0.8247  1.2891
  198THF    H13 4514   3.642  -0.212   3.172 -0.8314 -0.2286  0.9890
  199THF     O1 4515   1.636   0.831   0.831  0.3916  0.3445 -0.4804
  199THF     C2 4516   1.534   0.749   0.763 -0.3761  0.0259 -1.0155
  199THF     C3 4517   1.662   0.941   0.741 -0.5232 -0.4380  0.4771
  199THF     H4 4518   1.493   0.681   0.838  0.1172 -1.9046 -2.4016
  199THF     H5 4519   1.591   0.684   0.697  0.1501 -1.3715  0.7175
  199THF     H6 4520   1.714   1.029   0.779 -0.2832 -0.2186 -0.3421
  199THF     H7 4521   1.718   0.901   0.657 -1.9816  0.5172 -1.0074
  199THF     C8 4522   1.528   0.980   0.693  0.5119  0.6289 -0.0920
  199THF     C9 4523   1.448   0.847   0.688  0.3019 -0.5530 -0.2111
  199THF    H10 4524   1.521   1.046   0.606  0.0605  0.1808 -0.4022
  199THF    H11 4525   1.488   1.043   0.773  1.1406  0.9792 -0.0505
  199THF    H12 4526   1.350   0.876   0.727  0.9716  0.5023  0.7413
  199THF    H13 4527   1.434   0.828   0.582  0.7526 -0.0111 -0.3728
  200THF     O1 4528   4.890   0.097   4.700 -0.1289  0.5259  0.0585
  200THF     C2 4529   4.992   0.084   4.603 -0.4601  0.2703 -0.2604
  200THF     C3 4530   4.775   0.114   4.626 -0.1968  0.2411 -0.1625
  200THF     H4 4531   5.089   0.073   4.651 -0.0752  2.3822 -0.4577
  200THF     H5 4532   4.987   0.175   4.542 -0.9177 -0.6412 -1.6293
  200THF     H6 4533   4.684   0.102   4.685  0.3692 -1.0581  0.5081
  200THF     H7 4534   4.776   0.209   4.573 -0.6605  2.1421  2.9993
  200THF     C8 4535   4.791  -0.010   4.533  0.1810 -0.3247  0.0896
  200THF     C9 4536   4.939  -0.036   4.521 -0.2396  0.1159  0.5770
  200THF    H10 4537   4.752   0.013   4.434 -0.7934  1.9384  0.9360
  200THF    H11 4538   4.747  -0.102   4.572  0.1652  0.5717  2.3305
  200THF    H12 4539   4.967  -0.134   4.558 -0.9840 -0.4943 -0.4277
  200THF    H13 4540   4.979  -0.037   4.419 -1.7898 -1.9350 -0.0715
  201THF     O1 4541   4.120   4.224   2.915  0.0174 -0.3607 -0.3237
  201THF     C2 4542   4.043   4.133   2.835  0.0408 -0.1457 -0.0515
  201THF     C3 4543   4.151   4.168   3.042 -0.4166  0.2451  0.2626
  201THF     H4 4544   4.089   4.135   2.736  0.6420 -1.0601  0.1912
  201THF     H5 4545   3.939   4.165   2.836 -0.4684 -1.7025  1.1568
  201THF     H6 4546   4.260   4.166   3.052 -0.4236  2.5658  1.7757
  201THF     H7 4547   4.111   4.226   3.125 -0.8208 -3.3116  2.7624
  201THF     C8 4548   4.085   4.029   3.052  0.3055 -0.0160  0.0675
  201THF     C9 4549   4.050   3.993   2.903 -0.0074 -0.4344 -0.2817
  201THF    H10 4550   3.999   4.026   3.120  0.1846 -1.4857 -0.1332
  201THF    H11 4551   4.160   3.967   3.102 -0.5184 -0.5047  0.7176
  201THF    H12 4552   4.135   3.938   2.863 -0.8661  0.0946 -3.0033
  201THF    H13 4553   3.961   3.932   2.891 -0.4178  0.4292 -1.9435
  202THF     O1 4554   3.665   4.080   3.831 -0.6343 -0.0270 -0.0697
  202THF     C2 4555   3.554   4.118   3.905 -0.3970  0.0665  0.1739
  202THF     C3 4556   3.776   4.084   3.919 -0.2288  0.4600 -0.2050
  202THF     H4 4557   3.523   4.047   3.981 -1.9883 -1.5191 -1.8361
  202THF     H5 4558   3.464   4.125   3.844 -1.0355  0.6518  1.1532
  202THF     H6 4559   3.795   3.987   3.966 -0.6097  1.3560  1.8778
  202THF     H7 4560   3.867   4.098   3.861  0.1303 -1.6240 -0.2550
  202THF     C8 4561   3.741   4.194   4.020 -0.3457  0.0468  0.0293
  202THF     C9 4562   3.608   4.237   3.972  0.5490 -0.0382 -0.0098
  202THF    H10 4563   3.815   4.273   4.016  0.6435 -0.8122  0.8967
  202THF    H11 4564   3.756   4.161   4.123 -1.5707  1.2387  0.6184
  202THF    H12 4565   3.551   4.279   4.055  0.3913  0.3674 -0.3261
  202THF    H13 4566   3.618   4.309   3.891  0.6070  1.1184  0.9888
  203THF     O1 4567   1.273   0.700   2.122  0.2387 -0.3401 -0.4510
  203THF     C2 4568   1.393   0.745   2.194 -0.1011 -0.4515  0.3540
  203THF     C3 4569   1.171   0.806   2.117 -0.9419  0.9181 -0.4272
  203THF     H4 4570   1.476   0.766   2.127  1.2037 -0.7684  1.8123
  203THF     H5 4571   1.431   0.667   2.259  0.5370 -0.8193 -0.4502
  203THF     H6 4572   1.135   0.818   2.015  1.1467  0.3717 -1.2951
  203THF     H7 4573   1.092   0.754   2.171 -1.2508  2.0522  0.2587
  203THF     C8 4574   1.223   0.918   2.213 -0.0576  0.8168  0.1541
  203THF     C9 4575   1.342   0.854   2.283 -0.8369  0.5114  0.7421
  203THF    H10 4576   1.149   0.955   2.284  1.4238 -1.3352  3.0673
  203THF    H11 4577   1.266   1.003   2.161  1.0089  0.1196 -0.1358
  203THF    H12 4578   1.416   0.934   2.287  2.1674 -1.9764 -0.5672
  203THF    H13 4579   1.310   0.832   2.385 -0.8635 -0.2386  0.5795
  204THF     O1 4580   0.914   2.565   0.384  0.3607 -0.6071 -0.0156
  204THF     C2 4581   0.906   2.548   0.529 -0.2969 -0.1693 -0.1576
  204THF     C3 4582   0.881   2.440   0.324 -0.8369 -0.1760  0.6101
  204THF     H4 4583   0.889   2.639   0.587 -0.0568 -0.3571  0.2115
  204THF     H5 4584   1.001   2.513   0.569 -1.6113 -2.1811  1.5172
  204THF     H6 4585   0.855   2.459   0.220 -0.4876 -0.0275  0.5497
  204THF     H7 4586   0.972   2.381   0.325 -1.4317 -1.1433 -0.1341
  204THF     C8 4587   0.766   2.392   0.405  0.0734 -0.3531  0.2956
  204THF     C9 4588   0.792   2.451   0.549 -0.0728 -0.2348 -0.2244
  204THF    H10 4589   0.744   2.286   0.399 -0.7928 -0.2478  1.4203
  204THF    H11 4590   0.675   2.435   0.363  0.8561 -0.1850 -1.3344
  204THF    H12 4591   0.700   2.502   0.579  1.1617  1.7687  0.3808
  204THF    H13 4592   0.818   2.377   0.624  2.4503  1.0130  0.2677
  205THF     O1 4593   5.273   0.050   4.861 -0.2445  0.1875  0.5574
  205THF     C2 4594   5.182   0.074   4.962  0.2573  0.2785 -0.8025
  205THF     C3 4595   5.318   0.172   4.804 -0.1344 -0.2840 -0.1123
  205THF     H4 4596   5.161  -0.006   5.032 -0.1474  0.3184 -0.8758
  205THF     H5 4597   5.083   0.084   4.917 -0.7491 -2.8425  0.4779
  205THF     H6 4598   5.415   0.156   4.756  0.1353 -0.2297  0.4124
  205THF     H7 4599   5.260   0.232   4.734  0.3612 -0.8756 -1.0601
  205THF     C8 4600   5.337   0.255   4.931  0.8573 -0.5014 -0.1019
  205THF     C9 4601   5.234   0.198   5.029  0.3615  0.4428  0.5451
  205THF    H10 4602   5.338   0.362   4.912 -0.9685 -0.6349 -1.1448
  205THF    H11 4603   5.438   0.243   4.971  0.5605  1.0302  1.2161
  205THF    H12 4604   5.289   0.187   5.123  0.4841  0.1087  0.4357
  205THF    H13 4605   5.171   0.285   5.051 -1.1703 -0.8638  1.5470
  206THF     O1 4606   4.219   4.320   0.683 -0.0144  0.6501 -0.2946
  206THF     C2 4607   4.128   4.413   0.729 -0.0661 -0.7764 -0.1293
  206THF     C3 4608   4.152   4.229   0.593  0.2605  0.0506 -0.0556
  206THF     H4 4609   4.111   4.495   0.659 -2.0350 -0.1165  1.0351
  206THF     H5 4610   4.153   4.459   0.825 -2.7920  1.8627 -0.5314
  206THF     H6 4611   4.156   4.274   0.494  3.3798  1.1788  0.4691
  206THF     H7 4612   4.192   4.128   0.602 -0.3321 -0.1361  0.5974
  206THF     C8 4613   4.007   4.220   0.643  0.1714 -0.7806 -0.1353
  206THF     C9 4614   3.995   4.335   0.745  0.0653 -0.1353  0.5662
  206THF    H10 4615   3.997   4.122   0.691 -0.8507 -1.5540 -1.8217
  206THF    H11 4616   3.926   4.216   0.570 -1.2756 -0.4081  1.3947
  206THF    H12 4617   3.911   4.395   0.712  1.3556 -0.4598 -4.1631
  206THF    H13 4618   3.985   4.288   0.843  1.7120 -1.0339  0.3533
  207THF     O1 4619   3.430   0.453   3.077 -0.1921 -0.1450 -0.2663
  207THF     C2 4620   3.537   0.427   2.990 -0.3841  0.6775  0.8475
  207THF     C3 4621   3.402   0.595   3.079  0.6039  0.3897 -0.5002
  207THF     H4 4622   3.503   0.420   2.887  0.4366 -0.9617  0.6737
  207THF     H5 4623   3.588   0.333   3.009  0.0913  0.5048 -1.0401
  207THF     H6 4624   3.313   0.593   3.016 -0.7191  0.7505  1.2835
  207THF     H7 4625   3.379   0.635   3.178 -3.4672  0.6715 -1.3704
  207THF     C8 4626   3.512   0.659   2.999  0.0546 -0.3906  0.3525
  207THF     C9 4627   3.611   0.551   3.000 -0.2812  0.3423 -0.3892
  207THF    H10 4628   3.551   0.755   3.032  0.7802 -0.1112 -1.2288
  207THF    H11 4629   3.480   0.675   2.896  0.8688 -0.8023  0.0242
  207THF    H12 4630   3.685   0.568   2.921 -0.3756 -1.5622 -0.9460
  207THF    H13 4631   3.664   0.560   3.095 -1.4627  0.6198  0.2653
  208THF     O1 4632   2.479   0.590   3.582  0.1597 -0.3788 -0.1918
  208THF     C2 4633   2.346   0.624   3.607 -0.3853  0.1280  0.3782
  208THF     C3 4634   2.560   0.705   3.580 -0.0171 -0.5927  0.1071
  208THF     H4 4635   2.330   0.605   3.713  1.0556 -0.3170  0.5400
  208THF     H5 4636   2.280   0.565   3.542  1.4936  0.0378 -1.5622
  208THF     H6 4637   2.641   0.682   3.649  1.1473  0.7057 -0.7669
  208THF     H7 4638   2.588   0.710   3.475 -1.6330 -1.9484 -0.4337
  208THF     C8 4639   2.473   0.812   3.631  0.7597 -0.3194 -0.1854
  208THF     C9 4640   2.338   0.767   3.592 -0.6292 -0.2296 -0.5460
  208THF    H10 4641   2.495   0.913   3.596  0.4012  1.3331  3.8141
  208THF    H11 4642   2.473   0.815   3.739  2.5959 -2.2842 -0.0655
  208THF    H12 4643   2.253   0.817   3.638 -1.7304 -1.3650 -1.2876
  208THF    H13 4644   2.346   0.777   3.484 -1.7777  0.2557 -0.6050
  209THF     O1 4645   2.733   1.526   3.074  0.0819  0.1701 -0.1864
  209THF     C2 4646   2.673   1.541   3.207 -0.0573  0.2592 -0.2632
  209THF     C3 4647   2.874   1.542   3.096 -0.7070 -0.5387  0.3299
  209THF     H4 4648   2.602   1.460   3.219  0.1443 -0.2232 -2.0295
  209THF     H5 4649   2.614   1.632   3.217 -1.4988 -0.5539 -0.9793
  209THF     H6 4650   2.930   1.490   3.018 -0.1064 -1.8592  1.5843
  209THF     H7 4651   2.914   1.643   3.102 -1.8807 -0.1726  4.0664
  209THF     C8 4652   2.911   1.471   3.228  0.6633 -0.5016 -0.0114
  209THF     C9 4653   2.786   1.518   3.313  0.1698  0.2300  0.2333
  209THF    H10 4654   2.998   1.514   3.278  2.0869 -1.8615 -1.2405
  209THF    H11 4655   2.917   1.363   3.227 -0.3365 -0.5689 -1.4392
  209THF    H12 4656   2.756   1.454   3.396  0.8540 -0.3550  0.0323
  209THF    H13 4657   2.804   1.616   3.356 -0.0778  0.7656 -0.8561
  210THF     O1 4658   3.485   2.624   0.544 -0.1193  0.3165 -0.0803
  210THF     C2 4659   3.615   2.668   0.516  0.5463 -0.4602 -0.0168
  210THF     C3 4660   3.395   2.716   0.492  0.1524  0.6685 -0.0130
  210THF     H4 4661   3.683   2.583   0.517 -1.1171 -1.8405  0.3021
  210THF     H5 4662   3.635   2.740   0.595 -2.7519 -0.6866  1.1845
  210THF     H6 4663   3.292   2.683   0.494 -0.3807  2.2658  0.7791
  210THF     H7 4664   3.399   2.811   0.546  3.2084 -0.0709  1.2971
  210THF     C8 4665   3.455   2.733   0.350  0.1504 -0.0445 -0.4010
  210THF     C9 4666   3.603   2.727   0.373  0.0938 -0.3190 -0.1094
  210THF    H10 4667   3.416   2.818   0.293 -0.9363  0.2701  0.7655
  210THF    H11 4668   3.411   2.652   0.291  1.0441 -1.1445  0.4011
  210THF    H12 4669   3.654   2.664   0.299 -2.1459 -1.1561 -1.0237
  210THF    H13 4670   3.642   2.828   0.364  1.8463 -0.9189  0.2990
  211THF     O1 4671   2.313   3.790   1.914 -0.6073 -0.3929  0.1279
  211THF     C2 4672   2.307   3.904   2.001 -0.8817  0.7627  0.5875
  211THF     C3 4673   2.249   3.677   1.962 -0.2469 -0.0055 -0.4620
  211THF     H4 4674   2.315   3.990   1.934 -0.4243 -0.3694 -0.8514
  211THF     H5 4675   2.384   3.899   2.077  0.3206 -2.3375 -0.6766
  211THF     H6 4676   2.216   3.605   1.887 -1.6989 -0.1660  0.2835
  211THF     H7 4677   2.311   3.621   2.032 -3.5544 -0.4427  2.3724
  211THF     C8 4678   2.126   3.739   2.030 -0.3619  0.9248  0.0524
  211THF     C9 4679   2.171   3.884   2.060 -0.5038 -0.6434  0.8428
  211THF    H10 4680   2.095   3.685   2.119 -1.9909 -1.8265 -2.0017
  211THF    H11 4681   2.042   3.750   1.961 -2.0419  0.5999  1.9521
  211THF    H12 4682   2.094   3.952   2.021  0.7701  0.5380  0.3058
  211THF    H13 4683   2.173   3.905   2.167  0.1916  0.1943  0.6757
  212THF     O1 4684   5.056   4.623   0.918 -0.0036  0.5262  0.2688
  212THF     C2 4685   5.129   4.742   0.918 -0.4793  0.0440 -0.0490
  212THF     C3 4686   4.955   4.646   0.815 -0.2757  1.3705  0.2367
  212THF     H4 4687   5.226   4.724   0.965 -1.0637 -0.6174  0.9469
  212THF     H5 4688   5.080   4.821   0.975  2.3859  1.2743  0.9122
  212THF     H6 4689   4.901   4.557   0.782  1.3965  0.7254 -0.8868
  212THF     H7 4690   4.886   4.704   0.876  0.0296 -0.6039  2.6330
  212THF     C8 4691   5.024   4.697   0.697 -0.6641 -0.2925  0.4641
  212THF     C9 4692   5.134   4.780   0.768  0.3908 -0.2182  0.1287
  212THF    H10 4693   4.953   4.760   0.643 -0.5470 -0.3026  0.3011
  212THF    H11 4694   5.065   4.630   0.622 -2.4785 -1.0635  0.1201
  212THF    H12 4695   5.228   4.762   0.716 -0.6969 -2.2581 -1.2565
  212THF    H13 4696   5.121   4.887   0.754 -0.6669 -0.4173 -0.5131
  213THF     O1 4697   4.280   0.503   2.179  0.2166 -0.2039 -0.1759
  213THF     C2 4698   4.310   0.387   2.259 -0.1335  0.0760 -0.7498
  213THF     C3 4699   4.240   0.615   2.256  0.1822 -0.1814 -0.2627
  213THF     H4 4700   4.372   0.316   2.205  0.2558  0.1289 -0.3782
  213THF     H5 4701   4.220   0.333   2.290 -0.0591  0.5376  0.3192
  213THF     H6 4702   4.275   0.700   2.198 -0.5122 -0.9106 -1.8070
  213THF     H7 4703   4.132   0.626   2.269 -0.0200 -1.6526 -0.4899
  213THF     C8 4704   4.300   0.598   2.393 -0.3416 -0.0048 -0.0011
  213THF     C9 4705   4.384   0.470   2.373  0.4916  0.1333 -0.0409
  213THF    H10 4706   4.220   0.589   2.466  0.4534 -0.8138  0.7829
  213THF    H11 4707   4.363   0.682   2.423  1.8675 -0.4273 -2.9731
  213THF    H12 4708   4.483   0.497   2.337  1.0254 -1.7618 -0.0568
  213THF    H13 4709   4.403   0.419   2.467  1.0166  1.1460  0.4227
  214THF     O1 4710   5.488   2.404   0.909 -0.2278  0.3854  0.5604
  214THF     C2 4711   5.578   2.422   0.802 -1.3533  0.2993 -0.4976
  214THF     C3 4712   5.563   2.433   1.022 -0.1782  0.6506 -0.7822
  214THF     H4 4713   5.611   2.523   0.780 -0.4644  0.2670  0.6112
  214THF     H5 4714   5.551   2.367   0.712  1.0429 -0.1181 -1.0289
  214THF     H6 4715   5.587   2.539   1.030  1.7278  0.2360 -0.6493
  214THF     H7 4716   5.516   2.413   1.118  0.1648  0.2358 -0.6972
  214THF     C8 4717   5.688   2.344   1.007  0.6103  0.5903  0.2629
  214THF     C9 4718   5.706   2.348   0.857 -1.0227  0.0720 -0.0034
  214THF    H10 4719   5.656   2.250   1.052 -1.5168  2.0119  1.9001
  214THF    H11 4720   5.774   2.376   1.066 -0.0666 -1.0794  2.2765
  214THF    H12 4721   5.799   2.392   0.822  0.2404 -1.3719  1.3698
  214THF    H13 4722   5.709   2.245   0.823  1.8958  0.2729 -0.5647
  215THF     O1 4723   4.702   0.503   4.821  0.5391 -0.0527 -0.3363
  215THF     C2 4724   4.687   0.375   4.880 -0.2643  0.2154 -0.2641
  215THF     C3 4725   4.825   0.564   4.845  0.4182 -0.5375 -0.7997
  215THF     H4 4726   4.645   0.306   4.807  0.5623  0.6599 -1.1911
  215THF     H5 4727   4.623   0.364   4.968 -0.3747  1.6553 -0.1364
  215THF     H6 4728   4.859   0.628   4.764 -2.4218  1.6843 -0.3871
  215THF     H7 4729   4.824   0.626   4.934 -2.3890 -0.8013 -0.5711
  215THF     C8 4730   4.917   0.439   4.853  0.3463  0.1455  0.5004
  215THF     C9 4731   4.826   0.342   4.937  0.0290  0.0743 -0.4346
  215THF    H10 4732   5.012   0.466   4.897  0.4996  2.2184 -0.9678
  215THF    H11 4733   4.929   0.404   4.751  0.9496 -0.7139  0.8603
  215THF    H12 4734   4.865   0.240   4.935  1.0902  0.3531  2.3948
  215THF    H13 4735   4.838   0.370   5.041 -0.1251 -0.7967 -0.1732
  216THF     O1 4736   0.323   4.343   1.593  0.2345 -0.4849 -0.1525
  216THF     C2 4737   0.347   4.264   1.705 -0.2943  0.4344  0.1929
  216THF     C3 4738   0.451   4.381   1.545  0.6024 -0.1542  0.2095
  216THF     H4 4739   0.352   4.155   1.701 -0.0144  0.4730 -2.0489
  216THF     H5 4740   0.264   4.286   1.772 -1.0050  1.6115 -1.0132
  216THF     H6 4741   0.516   4.297   1.521  0.3333 -0.3156  0.0394
  216THF     H7 4742   0.432   4.456   1.468  0.7976 -1.3393 -1.0146
  216THF     C8 4743   0.506   4.444   1.674 -0.4021  0.2996  0.0563
  216THF     C9 4744   0.474   4.327   1.760  0.6509  0.4994 -0.4779
  216THF    H10 4745   0.444   4.529   1.703 -1.1901 -0.1955 -0.1541
  216THF    H11 4746   0.612   4.472   1.671 -0.6469  1.2258 -0.8031
  216THF    H12 4747   0.550   4.251   1.776  1.1908  1.1532  0.1332
  216THF    H13 4748   0.460   4.364   1.862 -0.1631  0.2381 -0.4903
  217THF     O1 4749   0.962   2.962   2.914 -0.3230  0.3802 -0.2975
  217THF     C2 4750   0.934   3.050   2.807  0.3449  1.1977 -0.0685
  217THF     C3 4751   1.091   2.971   2.957 -0.7818 -0.1125  0.0101
  217THF     H4 4752   0.830   3.080   2.818  0.2029  0.1954  1.6612
  217THF     H5 4753   0.951   3.009   2.707 -1.6198  2.8280 -1.1302
  217THF     H6 4754   1.121   2.924   3.050  2.2128  1.2344 -0.1659
  217THF     H7 4755   1.159   2.923   2.886  0.4331 -0.0699  1.1149
  217THF     C8 4756   1.109   3.126   2.959 -0.0009  0.3541 -0.3862
  217THF     C9 4757   1.026   3.171   2.842  0.5063  0.1809 -0.0617
  217THF    H10 4758   1.211   3.159   2.941  0.2601 -0.8759 -1.3389
  217THF    H11 4759   1.075   3.167   3.054  2.0499 -0.3851  0.7396
  217THF    H12 4760   0.953   3.249   2.864 -0.8463 -1.2451  0.6909
  217THF    H13 4761   1.095   3.206   2.765  1.3507 -2.5004 -0.6336
  218THF     O1 4762   1.210   3.860   4.380  0.3727  0.0138  0.3185
  218THF     C2 4763   1.104   3.947   4.432  0.4361  0.1677 -0.1144
  218THF     C3 4764   1.180   3.833   4.247  0.2524 -0.0592  0.8451
  218THF     H4 4765   1.132   3.988   4.529 -0.4811  0.1048  0.1867
  218THF     H5 4766   1.016   3.887   4.454  0.1140  1.2936  1.8274
  218THF     H6 4767   1.260   3.805   4.178 -2.1610  0.0749 -2.2499
  218THF     H7 4768   1.118   3.744   4.243 -3.1343  2.1717 -1.6261
  218THF     C8 4769   1.097   3.946   4.191  1.1337 -0.1938 -0.2931
  218THF     C9 4770   1.079   4.039   4.315 -0.2355 -0.9323  0.1243
  218THF    H10 4771   1.003   3.910   4.151  1.7979 -1.0849 -1.1046
  218THF    H11 4772   1.141   3.994   4.104  0.7986  1.1831  0.2822
  218THF    H12 4773   1.139   4.130   4.320  0.3729 -1.3061 -0.2107
  218THF    H13 4774   0.977   4.078   4.317 -0.6743 -1.9774 -0.8816
  219THF     O1 4775   2.357   0.364   4.868 -0.3191 -0.4167  0.2773
  219THF     C2 4776   2.246   0.353   4.964  0.3501 -0.0963 -0.2715
  219THF     C3 4777   2.469   0.394   4.949  0.5653  0.3825 -0.7314
  219THF     H4 4778   2.246   0.256   5.015 -0.2987 -0.4063 -0.8473
  219THF     H5 4779   2.153   0.350   4.907  0.7785 -0.0029 -0.9806
  219THF     H6 4780   2.504   0.308   5.006  1.7711  1.6681  0.5567
  219THF     H7 4781   2.553   0.425   4.887  0.1947  0.4768 -1.1946
  219THF     C8 4782   2.416   0.496   5.047  0.2898 -0.8515 -0.6325
  219THF     C9 4783   2.264   0.465   5.062  0.0838 -0.0547  0.3382
  219THF    H10 4784   2.443   0.595   5.009  1.4309 -1.9397 -2.8937
  219THF    H11 4785   2.464   0.495   5.145 -1.2249  3.4883  0.3862
  219THF    H12 4786   2.242   0.434   5.165 -2.0893  0.7289  0.1590
  219THF    H13 4787   2.212   0.557   5.033  0.7105 -0.1337 -1.1036
  220THF     O1 4788   3.613   3.274   0.228 -0.2516 -0.1058  0.3351
  220THF     C2 4789   3.673   3.170   0.310 -0.0187  0.5607  0.6269
  220THF     C3 4790   3.476   3.237   0.228  0.7883 -0.1052  0.4858
  220THF     H4 4791   3.771   3.204   0.343  0.9683  1.0894 -2.5687
  220THF     H5 4792   3.674   3.076   0.255  0.5459  0.2104  1.2112
  220THF     H6 4793   3.409   3.318   0.200 -0.2548 -1.2089 -0.3212
  220THF     H7 4794   3.459   3.157   0.156  1.5736 -0.2840  0.4902
  220THF     C8 4795   3.442   3.175   0.361  0.5035 -0.4350  0.1174
  220THF     C9 4796   3.574   3.172   0.430  0.3710 -0.1558  0.1676
  220THF    H10 4797   3.402   3.074   0.350  0.1919 -0.5228  1.7321
  220THF    H11 4798   3.367   3.229   0.418 -0.3149 -1.3221 -0.1000
  220THF    H12 4799   3.586   3.263   0.490 -0.1561 -0.4459  0.7238
  220THF    H13 4800   3.590   3.085   0.493  0.0034 -0.3270  0.0230
  221THF     O1 4801   4.480   3.816   3.644  0.2349  0.4345  0.0655
  221THF     C2 4802   4.618   3.797   3.670 -0.6611 -0.4803 -0.6462
  221THF     C3 4803   4.431   3.943   3.690 -0.3032  0.0768  0.3726
  221THF     H4 4804   4.670   3.841   3.585  0.5898  0.3641  0.5116
  221THF     H5 4805   4.648   3.695   3.693  0.5639  0.0894  0.3879
  221THF     H6 4806   4.420   4.009   3.604 -4.2350 -1.2334 -0.3113
  221THF     H7 4807   4.337   3.928   3.744 -1.7487 -1.5717 -2.4090
  221THF     C8 4808   4.531   3.987   3.792 -0.0786  0.3849 -0.4662
  221THF     C9 4809   4.639   3.878   3.797 -0.9318 -0.2664  0.1452
  221THF    H10 4810   4.487   3.999   3.891  0.9901  2.9119 -0.2304
  221THF    H11 4811   4.578   4.080   3.762 -0.4943  0.5642 -0.5675
  221THF    H12 4812   4.735   3.927   3.783 -1.6969  0.6374 -2.6507
  221THF    H13 4813   4.637   3.812   3.884  2.1155 -0.9796 -0.2295
  222THF     O1 4814   4.156   2.047   5.243 -0.3925 -1.0016 -0.0700
  222THF     C2 4815   4.258   1.985   5.169 -0.1940 -0.0279 -0.2819
  222THF     C3 4816   4.209   2.178   5.281  0.3950 -0.1073 -0.5019
  222THF     H4 4817   4.286   2.025   5.071  0.6432  2.1645  0.7903
  222THF     H5 4818   4.234   1.879   5.164  1.2069 -0.3491 -0.5145
  222THF     H6 4819   4.191   2.253   5.204  0.6892 -0.0816 -0.5475
  222THF     H7 4820   4.155   2.223   5.364  0.4359  0.2844 -0.6867
  222THF     C8 4821   4.348   2.166   5.314 -0.8843  0.3177  0.5955
  222THF     C9 4822   4.373   2.019   5.262  0.1231 -0.5913  0.3233
  222THF    H10 4823   4.372   2.186   5.418  0.1836  0.9485  0.2500
  222THF    H11 4824   4.400   2.233   5.245 -1.5816 -2.0182 -2.4294
  222THF    H12 4825   4.468   2.008   5.209 -0.1184 -2.4881  0.1812
  222THF    H13 4826   4.383   1.956   5.350 -0.2085 -0.1401  0.6872
  223THF     O1 4827   2.492   0.243   2.713  0.1828  0.3388 -0.3881
  223THF     C2 4828   2.446   0.149   2.813 -0.3395 -0.6481 -0.1846
  223THF     C3 4829   2.600   0.312   2.770 -0.0978  0.1143  0.3265
  223THF     H4 4830   2.415   0.054   2.771 -0.8756  0.0111 -1.3294
  223THF     H5 4831   2.358   0.174   2.873 -0.6102 -1.4672 -0.2231
  223THF     H6 4832   2.662   0.351   2.689 -0.2345  0.0840  0.2075
  223THF     H7 4833   2.554   0.394   2.826 -0.9618 -1.5042  2.1182
  223THF     C8 4834   2.668   0.217   2.868 -0.1128  0.2377 -0.2231
  223THF     C9 4835   2.555   0.131   2.922 -0.0644  0.1157 -0.0655
  223THF    H10 4836   2.710   0.287   2.940  0.4414 -0.0443 -0.2674
  223THF    H11 4837   2.738   0.155   2.812 -1.5828 -0.4101 -1.4345
  223THF    H12 4838   2.571   0.025   2.940 -1.0247 -0.3584 -1.6993
  223THF    H13 4839   2.538   0.171   3.022  3.2692  2.4177 -0.2571
  224THF     O1 4840   2.179   4.939   2.524  0.0273 -0.4469 -0.0826
  224THF     C2 4841   2.209   4.954   2.663  0.7197 -0.0813 -0.4633
  224THF     C3 4842   2.217   5.061   2.456  0.2742  0.6640 -0.0448
  224THF     H4 4843   2.224   4.859   2.714  2.1945  1.2293  1.6937
  224THF     H5 4844   2.146   5.022   2.720  3.1055  1.2381  0.6964
  224THF     H6 4845   2.247   5.023   2.358 -1.2420  0.1144 -0.3346
  224THF     H7 4846   2.135   5.130   2.436 -0.0640 -0.2128 -1.8254
  224THF     C8 4847   2.334   5.119   2.532  0.6487  0.0126 -0.3805
  224THF     C9 4848   2.345   5.010   2.642  0.3217 -0.1036 -0.1989
  224THF    H10 4849   2.301   5.217   2.568 -0.9464 -0.8210  0.5340
  224THF    H11 4850   2.426   5.138   2.476 -0.0780 -1.2428 -2.0830
  224THF    H12 4851   2.421   4.933   2.630 -0.8132 -0.9762 -2.5700
  224THF    H13 4852   2.377   5.061   2.732  0.8369 -0.7838  0.0086
  225THF     O1 4853   1.227   4.584   2.835 -0.2457 -0.1242  0.3081
  225THF     C2 4854   1.310   4.473   2.798  0.1591  0.6830  0.2033
  225THF     C3 4855   1.223   4.586   2.978 -0.7566 -0.3820  0.5269
  225THF     H4 4856   1.346   4.491   2.697  0.2144 -1.2318 -0.1599
  225THF     H5 4857   1.254   4.380   2.810  1.1668 -0.5886 -3.6144
  225THF     H6 4858   1.197   4.687   3.009  1.0030  0.2089  0.1422
  225THF     H7 4859   1.152   4.513   3.019 -0.7308 -1.2896 -0.9739
  225THF     C8 4860   1.368   4.555   3.016  0.0751  0.1949 -0.5206
  225THF     C9 4861   1.422   4.479   2.898 -0.0237 -0.1475  0.1584
  225THF    H10 4862   1.361   4.495   3.107 -1.4803  4.3099  2.3857
  225THF    H11 4863   1.424   4.646   3.036 -0.4970  0.4438 -0.0121
  225THF    H12 4864   1.494   4.548   2.854  1.1393 -2.6366 -2.1293
  225THF    H13 4865   1.476   4.387   2.919  0.6530  0.1158 -0.3979
  226THF     O1 4866   1.873   0.272   4.124  0.5762 -0.6544  0.2388
  226THF     C2 4867   1.750   0.285   4.204 -0.4120  0.6704  0.6174
  226THF     C3 4868   1.914   0.136   4.138  0.1436  0.4717  0.1259
  226THF     H4 4869   1.685   0.370   4.185 -1.8439  0.2926  3.2896
  226THF     H5 4870   1.781   0.288   4.308 -1.3598 -0.8425  0.9898
  226THF     H6 4871   1.989   0.109   4.064 -0.4287  0.0257 -0.3039
  226THF     H7 4872   1.946   0.110   4.239 -0.0438 -0.0671  0.0530
  226THF     C8 4873   1.780   0.063   4.125  0.7595 -0.0304 -0.2864
  226THF     C9 4874   1.668   0.159   4.165 -0.5872 -0.3271  0.6652
  226THF    H10 4875   1.785  -0.023   4.192 -1.7260 -1.5821 -1.8720
  226THF    H11 4876   1.756   0.021   4.027 -0.2535  0.7934 -0.4106
  226THF    H12 4877   1.609   0.179   4.076 -0.8501 -1.4693  0.5669
  226THF    H13 4878   1.600   0.130   4.245 -0.4547  0.8939  1.2390
  227THF     O1 4879   1.134   0.787   2.647 -0.0138  0.2673 -0.0727
  227THF     C2 4880   1.245   0.734   2.711 -0.2748  0.7853 -0.2009
  227THF     C3 4881   1.035   0.821   2.742  0.0874  0.6112 -1.0132
  227THF     H4 4882   1.334   0.736   2.648 -0.2028 -0.7643 -0.1687
  227THF     H5 4883   1.228   0.630   2.737  0.2612  0.3059 -1.6986
  227THF     H6 4884   0.964   0.894   2.703 -0.3182 -0.2015 -1.8472
  227THF     H7 4885   0.989   0.729   2.776 -1.2542  1.4381 -0.4898
  227THF     C8 4886   1.122   0.874   2.852  0.0739 -0.5355 -0.6421
  227THF     C9 4887   1.260   0.806   2.839 -0.2061  0.0174 -0.3406
  227THF    H10 4888   1.079   0.878   2.952 -0.2886  1.3703 -0.8357
  227THF    H11 4889   1.141   0.977   2.824  0.2388 -0.0501  1.1633
  227THF    H12 4890   1.353   0.862   2.836  1.6687 -2.8877  0.3423
  227THF    H13 4891   1.270   0.733   2.919 -0.5063  1.3618  0.9784
  228THF     O1 4892   5.234   5.454   3.818 -0.0048  0.0962  0.1990
  228THF     C2 4893   5.206   5.341   3.903  0.2225  0.6508  0.0694
  228THF     C3 4894   5.253   5.400   3.691 -0.4755 -0.1745 -0.2990
  228THF     H4 4895   5.099   5.321   3.893  0.0332  0.9006  1.3463
  228THF     H5 4896   5.208   5.363   4.010 -2.7960  0.1053  0.3295
  228THF     H6 4897   5.161   5.399   3.633 -0.0458 -0.4681 -0.9878
  228THF     H7 4898   5.326   5.458   3.635 -0.7281 -0.2436 -0.7052
  228THF     C8 4899   5.325   5.267   3.708  0.2525 -0.0062 -0.3126
  228THF     C9 4900   5.292   5.230   3.849  0.0083  0.0277 -0.2231
  228THF    H10 4901   5.431   5.281   3.690  0.6756  0.8534  2.3460
  228THF    H11 4902   5.277   5.192   3.645  1.1592 -0.1116 -0.8833
  228THF    H12 4903   5.243   5.132   3.853  0.5475 -0.3739 -2.2165
  228THF    H13 4904   5.372   5.209   3.919 -1.8216  1.3903  2.4194
  229THF     O1 4905   3.119   0.476   4.733  0.2109 -0.0851  0.2258
  229THF     C2 4906   3.245   0.528   4.770 -0.5937  0.7642 -0.1344
  229THF     C3 4907   3.036   0.490   4.852  0.2896 -0.0713  0.3942
  229THF     H4 4908   3.312   0.558   4.689  1.4025 -1.1842  0.6855
  229THF     H5 4909   3.309   0.454   4.818 -2.2360 -0.8939 -0.4072
  229THF     H6 4910   2.931   0.488   4.826  0.5929  1.1829 -1.0953
  229THF     H7 4911   3.065   0.418   4.928  1.4288 -1.9192 -1.6871
  229THF     C8 4912   3.071   0.633   4.888  0.1345 -0.1680  0.4653
  229THF     C9 4913   3.220   0.639   4.864  0.4726  0.2770  0.0250
  229THF    H10 4914   3.040   0.655   4.990  2.2921  1.8481  0.7826
  229THF    H11 4915   3.017   0.692   4.814 -2.0543 -2.9520 -0.3530
  229THF    H12 4916   3.230   0.737   4.818 -1.0462  0.0011 -0.9956
  229THF    H13 4917   3.289   0.625   4.947 -0.9709 -0.3033  1.1813
  230THF     O1 4918   5.200   0.968   3.323 -0.0768  0.5601 -0.1161
  230THF     C2 4919   5.220   1.096   3.394  0.9649 -0.4573  0.2788
  230THF     C3 4920   5.184   0.875   3.426  0.0005 -0.3242  0.0815
  230THF     H4 4921   5.192   1.179   3.330 -1.5230 -0.5847  1.1098
  230THF     H5 4922   5.323   1.100   3.430  0.5898 -0.7859  1.4186
  230THF     H6 4923   5.161   0.780   3.377 -1.7904  0.6121 -0.9965
  230THF     H7 4924   5.277   0.869   3.482 -0.4372 -0.1769  0.8342
  230THF     C8 4925   5.078   0.934   3.510 -0.0964  0.1911  0.2339
  230THF     C9 4926   5.106   1.077   3.494  0.7945  0.2401 -0.2208
  230THF    H10 4927   5.092   0.915   3.617 -0.2408  0.1416  0.2441
  230THF    H11 4928   4.973   0.923   3.482 -0.3902  0.5970  1.1282
  230THF    H12 4929   5.021   1.136   3.459  1.2715  1.0331 -0.0735
  230THF    H13 4930   5.128   1.133   3.585  0.7245  0.2035 -0.1810
  231THF     O1 4931   4.792   2.405   0.151 -0.7321  0.0571 -0.4354
  231THF     C2 4932   4.704   2.439   0.045 -0.6641  0.2974 -0.3179
  231THF     C3 4933   4.895   2.506   0.148 -0.7916 -0.3481 -0.3356
  231THF     H4 4934   4.634   2.512   0.085 -2.1624 -0.9220 -0.6258
  231THF     H5 4935   4.635   2.359   0.018 -0.8037 -0.7482  2.7645
  231THF     H6 4936   4.855   2.597   0.192 -0.6083 -0.9490  1.1402
  231THF     H7 4937   4.986   2.480   0.203 -1.5163  1.1588  1.7351
  231THF     C8 4938   4.918   2.526  -0.001 -0.3402  0.1915  0.4007
  231THF     C9 4939   4.786   2.493  -0.071 -0.0668 -1.5370  0.3368
  231THF    H10 4940   4.990   2.452  -0.036  0.4517 -0.0913  2.4457
  231THF    H11 4941   4.965   2.618  -0.035 -2.0947  1.0123  0.1188
  231THF    H12 4942   4.748   2.587  -0.110 -0.3143 -1.3615  0.9798
  231THF    H13 4943   4.794   2.419  -0.150  3.6704  0.5081 -1.4577
  232THF     O1 4944   3.596   4.806   3.514 -0.3718  0.4001 -0.0737
  232THF     C2 4945   3.594   4.913   3.605 -0.6581  0.2657 -0.1605
  232THF     C3 4946   3.617   4.863   3.387  0.4649  0.7953  1.1691
  232THF     H4 4947   3.607   4.866   3.703 -1.1148 -2.0809 -1.1638
  232THF     H5 4948   3.494   4.954   3.595 -0.2173  1.6048  0.5271
  232THF     H6 4949   3.641   4.794   3.306  1.2365  1.6266  0.6631
  232THF     H7 4950   3.520   4.896   3.350  0.6735  0.0466 -0.0975
  232THF     C8 4951   3.709   4.987   3.414  0.6213  0.0217 -0.4256
  232THF     C9 4952   3.707   5.008   3.561  0.8079 -0.2634 -0.4865
  232THF    H10 4953   3.665   5.072   3.362  0.8332 -0.6013 -1.6567
  232THF    H11 4954   3.812   4.966   3.385  0.6880 -0.5545  0.1836
  232THF    H12 4955   3.796   4.965   3.608  1.1059 -0.1897 -0.9855
  232THF    H13 4956   3.694   5.113   3.587 -0.8250 -0.2951 -1.0533
  233THF     O1 4957   2.691   0.121   4.316  0.7575  0.3588 -0.0390
  233THF     C2 4958   2.770   0.013   4.276 -0.0877  0.6707 -0.6143
  233THF     C3 4959   2.701   0.217   4.212 -0.0813 -0.3444  0.2956
  233THF     H4 4960   2.741  -0.077   4.330 -1.5195  0.6707 -1.3288
  233THF     H5 4961   2.870   0.047   4.302 -0.2165 -0.2783  1.3338
  233THF     H6 4962   2.629   0.299   4.212  0.8464  0.4889  0.3323
  233THF     H7 4963   2.798   0.264   4.230 -1.0877  2.4270 -0.9616
  233THF     C8 4964   2.717   0.138   4.078  0.0472 -0.1058 -0.0798
  233THF     C9 4965   2.749  -0.004   4.122  0.6258  0.5805  0.2473
  233THF    H10 4966   2.800   0.192   4.031  0.9129 -1.7405 -0.5112
  233THF    H11 4967   2.623   0.146   4.024 -1.1690 -3.2714  1.3536
  233THF    H12 4968   2.659  -0.066   4.113  0.9457 -0.4664  3.1632
  233THF    H13 4969   2.833  -0.050   4.070 -1.1827  0.8502 -3.2060
  234THF     O1 4970   5.037   2.172   4.415 -0.5370  0.0089  0.4169
  234THF     C2 4971   5.081   2.142   4.283  0.3528  0.4145  0.4559
  234THF     C3 4972   4.898   2.215   4.417  0.2669 -0.1943 -0.3352
  234THF     H4 4973   5.151   2.059   4.276  2.9548  2.4957  0.1316
  234THF     H5 4974   5.135   2.224   4.235  0.6444  0.1748  0.3754
  234THF     H6 4975   4.844   2.191   4.508 -0.0811 -0.3363 -0.5733
  234THF     H7 4976   4.899   2.324   4.410  0.0839 -0.1577  0.1753
  234THF     C8 4977   4.835   2.164   4.289 -0.0226 -0.4541 -0.5137
  234THF     C9 4978   4.948   2.099   4.218  0.1248  0.2288 -0.1685
  234THF    H10 4979   4.795   2.250   4.235 -0.7749 -1.9817 -2.4923
  234THF    H11 4980   4.751   2.098   4.308 -1.4834  0.5546 -2.9943
  234THF    H12 4981   4.939   1.991   4.230  1.0048  0.0200 -1.2312
  234THF    H13 4982   4.952   2.134   4.115 -0.5509  0.3708 -0.1491
  235THF     O1 4983   0.630   2.452   1.634  0.4348  0.0601  0.0409
  235THF     C2 4984   0.536   2.355   1.585  0.1458 -0.2820  0.0321
  235THF     C3 4985   0.677   2.408   1.762 -0.2994 -0.5260  0.3264
  235THF     H4 4986   0.584   2.266   1.547 -0.1060 -1.3403  2.0648
  235THF     H5 4987   0.459   2.388   1.515 -0.5558 -0.4334  0.7164
  235THF     H6 4988   0.735   2.318   1.745 -0.8287 -0.5999 -1.3176
  235THF     H7 4989   0.736   2.479   1.820  0.8726  0.8029 -2.3018
  235THF     C8 4990   0.543   2.374   1.836  0.1601  0.0071  0.7614
  235THF     C9 4991   0.461   2.318   1.717  0.1691 -0.0116  0.0677
  235THF    H10 4992   0.489   2.459   1.878  0.6520  1.9106 -2.1489
  235THF    H11 4993   0.555   2.291   1.906 -0.6851  0.1662  1.1052
  235THF    H12 4994   0.445   2.210   1.716  1.6466 -0.3437  3.0070
  235THF    H13 4995   0.367   2.372   1.710  1.4667  2.3392 -0.2177
  236THF     O1 4996   0.373   3.307   1.430  0.1167 -0.0600  0.0456
  236THF     C2 4997   0.460   3.256   1.326 -0.2093 -0.2303 -0.4413
  236THF     C3 4998   0.375   3.452   1.429  0.0007  1.2563 -0.1821
  236THF     H4 4999   0.396   3.192   1.266 -2.3432  0.3330  1.0888
  236THF     H5 5000   0.541   3.201   1.373  0.6880  2.0105  0.7663
  236THF     H6 5001   0.280   3.489   1.468 -1.9726 -2.6157 -0.7917
  236THF     H7 5002   0.453   3.477   1.500 -1.5353  1.7870  1.4123
  236THF     C8 5003   0.418   3.494   1.296 -0.2748 -0.1563 -0.1432
  236THF     C9 5004   0.516   3.380   1.260  0.6998 -0.4976  0.5283
  236THF    H10 5005   0.491   3.574   1.298  0.4295 -0.7675  3.0163
  236THF    H11 5006   0.322   3.499   1.245 -0.8204 -1.4178  0.7008
  236THF    H12 5007   0.525   3.363   1.153 -2.4438  0.8345 -0.0458
  236THF    H13 5008   0.613   3.418   1.295  0.7366 -2.2536  2.5162
  237THF     O1 5009   4.850   4.897   1.343  0.1419  0.6759 -0.2483
  237THF     C2 5010   4.878   4.837   1.469  0.2335 -0.7666 -0.2854
  237THF     C3 5011   4.937   4.823   1.255 -0.7533  0.2343 -0.0903
  237THF     H4 5012   4.810   4.755   1.489  1.8444 -1.6351  2.1216
  237THF     H5 5013   4.856   4.908   1.549  0.4350 -0.0360 -0.8651
  237THF     H6 5014   4.907   4.718   1.257 -1.1303  0.3537  1.1972
  237THF     H7 5015   4.936   4.868   1.156 -2.3369 -0.1520 -0.2752
  237THF     C8 5016   5.064   4.841   1.322 -1.2852  0.6079  0.0127
  237THF     C9 5017   5.032   4.817   1.470  0.2146 -0.4597 -0.6037
  237THF    H10 5018   5.100   4.943   1.305 -2.5975  1.6244  2.6167
  237THF    H11 5019   5.129   4.767   1.276 -0.5120  0.9426  0.5512
  237THF    H12 5020   5.044   4.714   1.504 -2.2600 -0.9631 -1.0689
  237THF    H13 5021   5.090   4.879   1.539 -0.4176 -2.5491  1.9493
  238THF     O1 5022   3.020   0.130   0.284 -0.0437 -0.1472 -0.7247
  238THF     C2 5023   2.985   0.190   0.409  0.1187  0.2274  0.3655
  238THF     C3 5024   2.944   0.200   0.187 -0.1447 -0.5238  1.0471
  238THF     H4 5025   3.054   0.158   0.488 -1.0615  0.6343  1.6001
  238THF     H5 5026   2.885   0.152   0.429  0.9070 -1.5860  1.1106
  238THF     H6 5027   2.978   0.178   0.086  0.3774  0.1698  1.0654
  238THF     H7 5028   2.840   0.168   0.187 -0.7162  0.8278 -2.7821
  238THF     C8 5029   2.972   0.346   0.231  0.7864  0.5166 -1.1276
  238THF     C9 5030   2.998   0.338   0.377  0.2736 -0.2865  0.1047
  238THF    H10 5031   2.893   0.418   0.209  0.3417 -0.0228 -1.3122
  238THF    H11 5032   3.058   0.381   0.173  2.1195 -0.7856 -0.0026
  238THF    H12 5033   3.102   0.366   0.389 -0.0525  0.3432  1.5902
  238THF    H13 5034   2.947   0.404   0.446  2.1341 -1.4627  2.7421
  239THF     O1 5035   2.552   3.970   3.922 -0.3905 -0.4578  0.6835
  239THF     C2 5036   2.521   3.835   3.886  0.0709 -0.8187  0.0578
  239THF     C3 5037   2.429   4.043   3.946 -0.1728 -0.3470  0.3483
  239THF     H4 5038   2.610   3.772   3.892  1.6008  1.3253  2.7646
  239THF     H5 5039   2.491   3.831   3.782  0.9342 -0.9178 -0.1906
  239THF     H6 5040   2.449   4.130   4.010  2.7789 -0.5074 -0.2101
  239THF     H7 5041   2.386   4.073   3.850 -0.2847 -1.3417  0.0782
  239THF     C8 5042   2.333   3.938   4.002 -0.1228 -0.4052  0.2318
  239THF     C9 5043   2.400   3.808   3.979 -1.0083  0.0875  0.1169
  239THF    H10 5044   2.228   3.951   3.976 -0.4827 -0.1274  1.7101
  239THF    H11 5045   2.328   3.953   4.110 -0.8442  1.7263 -0.0673
  239THF    H12 5046   2.436   3.775   4.076 -0.5438  2.1367  0.6881
  239THF    H13 5047   2.338   3.730   3.934 -1.4492  1.4332 -1.7424
  240THF     O1 5048   3.170   2.250   4.469 -0.4305 -0.1361  0.0212
  240THF     C2 5049   3.096   2.306   4.567 -0.0457 -0.3139 -0.6854
  240THF     C3 5050   3.100   2.141   4.403  0.9337 -0.3179  0.0022
  240THF     H4 5051   3.023   2.377   4.527  0.2521  0.6613  0.4465
  240THF     H5 5052   3.160   2.365   4.632 -0.5136  0.0596 -0.5547
  240THF     H6 5053   3.040   2.173   4.318 -0.1448  0.6356  1.0597
  240THF     H7 5054   3.181   2.076   4.371  0.7909 -0.5740  0.1585
  240THF     C8 5055   3.003   2.088   4.510 -0.5151 -0.1811 -0.2950
  240THF     C9 5056   3.031   2.185   4.632 -0.1482  0.1224 -0.2443
  240THF    H10 5057   3.012   1.985   4.546  1.5883 -0.8218 -2.4267
  240THF    H11 5058   2.898   2.085   4.481 -0.5743 -1.7982  0.0030
  240THF    H12 5059   2.942   2.222   4.681  0.5316  1.2270  0.2018
  240THF    H13 5060   3.105   2.138   4.698 -0.5358  0.2370  0.2749
  241THF     O1 5061   3.927   4.788   5.147  0.4050  0.4870 -0.7357
  241THF     C2 5062   3.839   4.895   5.122  0.9958 -0.1265 -0.0884
  241THF     C3 5063   4.012   4.824   5.255  0.2264 -0.5202  0.2262
  241THF     H4 5064   3.754   4.863   5.062  1.4109  1.4759 -1.6134
  241THF     H5 5065   3.880   4.979   5.065 -1.5566 -0.1934 -2.2119
  241THF     H6 5066   4.061   4.739   5.302  0.1681  0.0051  1.2696
  241THF     H7 5067   4.085   4.892   5.212  1.8686 -2.3246  0.0082
  241THF     C8 5068   3.913   4.903   5.341 -0.4233  0.3417 -0.2345
  241THF     C9 5069   3.794   4.944   5.259  0.0541  0.3803 -0.0446
  241THF    H10 5070   3.964   4.995   5.369 -1.8013  1.4258 -1.1243
  241THF    H11 5071   3.887   4.856   5.436 -0.3440  0.3092 -0.2291
  241THF    H12 5072   3.702   4.891   5.286 -1.3171  3.3438  1.5416
  241THF    H13 5073   3.780   5.052   5.249  1.5878  0.6428  0.4226
  242THF     O1 5074   4.939   2.594   4.743 -1.3753  0.3171  0.6282
  242THF     C2 5075   4.832   2.674   4.735  0.0428 -0.2547 -0.0505
  242THF     C3 5076   4.943   2.502   4.633 -0.3250 -0.1266 -0.6868
  242THF     H4 5077   4.846   2.769   4.785 -1.5121 -0.6502  1.2200
  242THF     H5 5078   4.747   2.614   4.768  0.7458 -1.4866 -0.3922
  242THF     H6 5079   5.045   2.465   4.623  0.3534  1.1797  0.8306
  242THF     H7 5080   4.877   2.416   4.638 -0.2928 -0.1043  0.5175
  242THF     C8 5081   4.917   2.596   4.518  0.3904 -0.3966  0.4993
  242THF     C9 5082   4.813   2.695   4.580 -0.0735 -0.7715 -0.4686
  242THF    H10 5083   4.879   2.539   4.434 -0.1194 -1.9462  1.7340
  242THF    H11 5084   5.012   2.647   4.500 -0.5056  2.0870  2.1952
  242THF    H12 5085   4.858   2.791   4.554  1.2709 -0.1240  3.5632
  242THF    H13 5086   4.709   2.684   4.548 -0.3936 -0.0126  0.2716
  243THF     O1 5087   5.463   4.379   2.105 -0.6791  0.5393 -0.8333
  243THF     C2 5088   5.337   4.374   2.039 -0.0739  0.3854  0.6479
  243THF     C3 5089   5.528   4.257   2.092  0.1137 -0.2964  0.1122
  243THF     H4 5090   5.360   4.390   1.933 -1.5150 -0.4697  0.1713
  243THF     H5 5091   5.268   4.455   2.063  0.7148  0.8453  1.3844
  243THF     H6 5092   5.587   4.265   2.001 -4.5745 -0.4084 -3.2784
  243THF     H7 5093   5.605   4.235   2.166  1.0551  1.7803 -0.1847
  243THF     C8 5094   5.422   4.151   2.062 -0.4419  0.3910  0.8545
  243THF     C9 5095   5.295   4.231   2.071  0.2994 -0.2937 -0.4503
  243THF    H10 5096   5.424   4.061   2.124 -1.4386 -0.2370  0.0105
  243THF    H11 5097   5.444   4.116   1.961 -0.7957  0.1002  0.8778
  243THF    H12 5098   5.219   4.191   2.004 -0.7321 -0.2895  0.6799
  243THF    H13 5099   5.261   4.235   2.174  0.5791  1.8253 -0.3825
  244THF     O1 5100   4.993   0.509   3.531  0.1127  0.3540  0.1468
  244THF     C2 5101   5.077   0.426   3.610 -0.1424 -0.0053  0.2394
  244THF     C3 5102   4.880   0.437   3.478  0.0898 -0.7194  0.8119
  244THF     H4 5103   5.071   0.464   3.713 -0.6595  0.4044  0.0661
  244THF     H5 5104   5.184   0.436   3.595  0.2089 -2.6703  0.5659
  244THF     H6 5105   4.797   0.505   3.496  1.0822  0.8289 -0.2032
  244THF     H7 5106   4.903   0.418   3.373  0.8071  0.8545  0.6658
  244THF     C8 5107   4.874   0.315   3.566 -1.1368  0.2019  0.0519
  244THF     C9 5108   5.023   0.288   3.589  0.1451  1.0577  0.1665
  244THF    H10 5109   4.821   0.235   3.513 -1.0831 -0.1944  0.5912
  244THF    H11 5110   4.834   0.324   3.667 -0.5658 -0.8531  0.3896
  244THF    H12 5111   5.047   0.215   3.666 -0.9508  0.1462 -0.3200
  244THF    H13 5112   5.067   0.243   3.500  1.4493 -3.1671  2.6528
  245THF     O1 5113   0.117   0.332   3.795 -0.3781  0.2160  0.0050
  245THF     C2 5114   0.051   0.252   3.893 -0.5563  0.0208  0.4926
  245THF     C3 5115   0.192   0.247   3.703 -0.0332  0.0146  0.1806
  245THF     H4 5116  -0.035   0.306   3.932 -1.2835 -0.1363 -0.8477
  245THF     H5 5117   0.122   0.212   3.966  0.7929 -1.3014 -1.4439
  245THF     H6 5118   0.226   0.303   3.615  0.9784 -0.7091  0.0980
  245THF     H7 5119   0.280   0.205   3.750 -0.4494 -0.3703  0.6305
  245THF     C8 5120   0.066   0.161   3.671  0.1614 -0.2813 -0.6875
  245THF     C9 5121   0.003   0.138   3.804 -0.3626  0.5682  0.2991
  245THF    H10 5122   0.074   0.062   3.626  1.2495 -0.2181 -0.6647
  245THF    H11 5123  -0.001   0.224   3.612 -1.6560 -0.7670  0.7878
  245THF    H12 5124  -0.105   0.143   3.793 -0.3299 -0.8592 -0.9647
  245THF    H13 5125   0.013   0.038   3.847  2.4118 -0.2716 -1.9738
  246THF     O1 5126   4.918   3.128   1.100 -0.2114 -0.0911  0.1242
  246THF     C2 5127   5.042   3.173   1.161 -0.1828  0.7224 -0.4832
  246THF     C3 5128   4.816   3.220   1.126  0.1671 -0.2429  0.1218
  246THF     H4 5129   5.118   3.176   1.083 -1.5796 -1.7195 -2.0659
  246THF     H5 5130   5.080   3.109   1.240  0.8557  1.0334 -0.7102
  246THF     H6 5131   4.755   3.219   1.036  0.9597  0.1023 -0.4279
  246THF     H7 5132   4.760   3.185   1.213 -0.5360 -0.5532 -0.4472
  246THF     C8 5133   4.895   3.352   1.148  0.3457  0.2003 -0.2134
  246THF     C9 5134   5.026   3.319   1.211  0.1354 -0.3808 -0.0512
  246THF    H10 5135   4.848   3.425   1.214  0.2268  0.9668 -1.1118
  246THF    H11 5136   4.915   3.383   1.045 -0.2332 -0.3576 -0.5068
  246THF    H12 5137   5.105   3.391   1.191  0.0135 -0.0649  0.5924
  246THF    H13 5138   5.006   3.326   1.318 -0.7844 -0.6263 -0.1958
  247THF     O1 5139   5.297   0.700   2.135  0.3671 -0.1546  0.7533
  247THF     C2 5140   5.282   0.821   2.073 -0.1278 -0.0958 -0.6402
  247THF     C3 5141   5.421   0.695   2.202  0.0795 -0.0749 -0.0150
  247THF     H4 5142   5.221   0.876   2.144  0.6576 -0.7943  0.5933
  247THF     H5 5143   5.238   0.821   1.973 -1.3255  0.8756 -0.1382
  247THF     H6 5144   5.411   0.751   2.295 -0.2292 -1.4305  0.8101
  247THF     H7 5145   5.447   0.592   2.227  0.5967  0.0705  0.0569
  247THF     C8 5146   5.519   0.765   2.105  0.3039  0.2130 -0.6182
  247THF     C9 5147   5.426   0.883   2.065 -0.3903  0.4029 -0.0911
  247THF    H10 5148   5.529   0.685   2.031  1.2854 -1.6303  1.3997
  247THF    H11 5149   5.608   0.793   2.161 -0.4107  0.5639  0.3788
  247THF    H12 5150   5.448   0.957   2.142  2.8814  1.8946 -2.2498
  247THF    H13 5151   5.454   0.920   1.967  0.8392 -2.1283 -0.7796
  248THF     O1 5152   3.165   1.624   1.149 -0.0843 -0.2204 -1.2399
  248THF     C2 5153   3.097   1.555   1.046  0.0041 -0.2097  0.0817
  248THF     C3 5154   3.095   1.598   1.274 -0.3539 -0.3038  0.0732
  248THF     H4 5155   3.130   1.453   1.026 -1.7469 -0.8642  0.3276
  248THF     H5 5156   3.131   1.603   0.954 -1.5523 -0.2099 -0.5351
  248THF     H6 5157   3.134   1.526   1.345 -3.0862 -0.2746  1.7891
  248THF     H7 5158   3.081   1.687   1.335 -3.6326 -1.4913  1.2866
  248THF     C8 5159   2.953   1.548   1.232  0.7108 -0.1876 -1.0466
  248THF     C9 5160   2.949   1.573   1.087  0.2015 -0.2058  0.4291
  248THF    H10 5161   2.883   1.612   1.286  0.7058 -1.3845  0.4141
  248THF    H11 5162   2.934   1.442   1.249 -1.1797  0.3835  0.8001
  248THF    H12 5163   2.882   1.501   1.039  0.0776 -1.4065  2.3125
  248THF    H13 5164   2.919   1.677   1.073  2.7859  0.8045  1.6047
  249THF     O1 5165   1.924   0.614   5.060  0.9248 -0.0391 -0.0721
  249THF     C2 5166   1.907   0.504   5.149 -1.0765 -0.5922  0.3247
  249THF     C3 5167   1.922   0.563   4.926  0.0706 -0.1248 -0.4458
  249THF     H4 5168   1.864   0.535   5.244 -2.2736 -1.8657  0.2319
  249THF     H5 5169   2.006   0.460   5.161 -1.0075 -0.6218 -0.3408
  249THF     H6 5170   1.898   0.644   4.858  1.8362 -0.5851 -1.6851
  249THF     H7 5171   2.027   0.547   4.903  1.3080  2.6262  2.5810
  249THF     C8 5172   1.835   0.443   4.922 -0.2313  0.6285  0.3913
  249THF     C9 5173   1.810   0.412   5.068 -0.3818 -0.6572 -0.0188
  249THF    H10 5174   1.904   0.367   4.886  0.8489  1.9004 -0.2767
  249THF    H11 5175   1.747   0.450   4.858  1.0087 -2.0361 -1.8314
  249THF    H12 5176   1.711   0.443   5.102  0.6950  1.6059  1.2087
  249THF    H13 5177   1.821   0.306   5.093 -1.7329 -2.2752 -4.9056
  250THF     O1 5178   2.194   3.522   4.838 -0.5380 -0.1727 -0.1968
  250THF     C2 5179   2.324   3.560   4.790  0.1305  0.1099 -0.0336
  250THF     C3 5180   2.213   3.475   4.976  0.0064  0.1287  0.0343
  250THF     H4 5181   2.313   3.635   4.712  1.6487  1.2509  0.8004
  250THF     H5 5182   2.392   3.482   4.758  1.6919  0.4243  2.3013
  250THF     H6 5183   2.124   3.500   5.034  0.5651  0.0690  0.9349
  250THF     H7 5184   2.232   3.368   4.968 -0.3783  0.1673 -1.6128
  250THF     C8 5185   2.338   3.539   5.020  0.4060  0.3016  0.5746
  250THF     C9 5186   2.377   3.632   4.911 -0.0106  0.7166 -0.8669
  250THF    H10 5187   2.407   3.455   5.028 -1.2386 -1.2079 -0.2052
  250THF    H11 5188   2.325   3.584   5.119 -0.9237  2.0641 -0.3375
  250THF    H12 5189   2.327   3.728   4.921  0.3902  0.8455 -0.0410
  250THF    H13 5190   2.482   3.655   4.900 -0.5901  2.6272 -3.1386
  251THF     O1 5191   0.556   5.020   1.367  0.0093  0.4802  0.0521
  251THF     C2 5192   0.416   4.987   1.374 -0.3226 -1.0831 -0.6121
  251THF     C3 5193   0.595   5.050   1.496 -0.1303  0.1103 -0.2502
  251THF     H4 5194   0.377   4.926   1.292 -3.3695  0.7215 -0.6132
  251THF     H5 5195   0.356   5.078   1.369  0.1826 -0.6610  0.6481
  251THF     H6 5196   0.704   5.057   1.495  0.0030 -1.2986  0.6359
  251THF     H7 5197   0.552   5.139   1.540 -1.9612 -1.1644  0.6800
  251THF     C8 5198   0.531   4.923   1.573 -0.2616 -0.4414 -0.5408
  251THF     C9 5199   0.400   4.908   1.499 -0.5696 -0.1928 -0.3668
  251THF    H10 5200   0.525   4.931   1.681 -1.4765  2.1747 -0.7133
  251THF    H11 5201   0.593   4.836   1.550  0.6445 -0.2923  1.1354
  251THF    H12 5202   0.387   4.801   1.481 -1.8393 -0.5188  2.1088
  251THF    H13 5203   0.319   4.950   1.558  0.4371  2.8711 -1.0004
  252THF     O1 5204   1.521   2.511   1.133  0.3722  0.5019  0.6403
  252THF     C2 5205   1.544   2.621   1.042 -0.6847  0.2271 -0.1105
  252THF     C3 5206   1.395   2.510   1.184  0.8092  0.3771  0.1288
  252THF     H4 5207   1.554   2.580   0.941  0.6584  1.6852 -0.6116
  252THF     H5 5208   1.639   2.672   1.058 -0.0636 -1.7100  3.4215
  252THF     H6 5209   1.341   2.447   1.113  0.4373  1.0777 -0.2181
  252THF     H7 5210   1.392   2.460   1.280 -1.3463 -0.8474 -0.5088
  252THF     C8 5211   1.351   2.657   1.180  0.8507 -0.3905 -0.3303
  252THF     C9 5212   1.423   2.713   1.061  0.5867  0.1626  0.3918
  252THF    H10 5213   1.392   2.720   1.259 -0.2378 -0.2137  0.1085
  252THF    H11 5214   1.244   2.676   1.169  0.9138  0.3844  0.2918
  252THF    H12 5215   1.359   2.717   0.973 -0.4011  0.6281  1.1106
  252THF    H13 5216   1.443   2.819   1.073 -0.9453  0.5231  0.0320
  253THF     O1 5217   2.244   5.273   1.283 -0.0018  0.1840 -0.3414
  253THF     C2 5218   2.319   5.363   1.363  0.1122  0.7318  0.5908
  253THF     C3 5219   2.279   5.302   1.149 -0.2964  0.0168 -0.8255
  253THF     H4 5220   2.332   5.307   1.456  1.1205 -1.1827 -0.6540
  253THF     H5 5221   2.276   5.463   1.367 -0.8165  0.4372 -1.1349
  253THF     H6 5222   2.262   5.225   1.075  1.2383 -0.8723 -0.3035
  253THF     H7 5223   2.221   5.389   1.120 -1.7734  0.3069  2.4830
  253THF     C8 5224   2.427   5.330   1.153 -0.0972  0.6028  0.3291
  253THF     C9 5225   2.449   5.368   1.293  0.0216 -0.1581  0.0704
  253THF    H10 5226   2.455   5.407   1.081  0.2663 -0.6538 -0.9093
  253THF    H11 5227   2.492   5.245   1.134 -1.4975 -0.5110  0.3381
  253THF    H12 5228   2.522   5.302   1.341 -1.2270 -0.6617  1.3454
  253THF    H13 5229   2.489   5.469   1.287  1.3671 -0.6052  0.9961
  254THF     O1 5230   0.446   5.190   3.836 -0.4881 -0.1992 -0.4151
  254THF     C2 5231   0.370   5.088   3.910  0.3787  1.0348  0.3942
  254THF     C3 5232   0.357   5.248   3.744  0.5152 -0.2800  0.0281
  254THF     H4 5233   0.312   5.124   3.996 -0.5881  0.5947 -0.0579
  254THF     H5 5234   0.434   5.007   3.944  1.3981  1.7201  0.1441
  254THF     H6 5235   0.287   5.327   3.774  2.1527  0.9048  0.8685
  254THF     H7 5236   0.413   5.297   3.665  2.0616 -0.9462  0.6639
  254THF     C8 5237   0.279   5.124   3.697 -0.2491  0.6899 -0.0015
  254THF     C9 5238   0.262   5.032   3.816 -0.2480  0.8452 -0.1210
  254THF    H10 5239   0.328   5.074   3.613  1.5870  0.2378  1.2692
  254THF    H11 5240   0.188   5.167   3.656 -0.2422  0.6983 -0.0081
  254THF    H12 5241   0.166   5.038   3.866 -0.5887  0.5895 -0.7381
  254THF    H13 5242   0.281   4.926   3.795 -1.3016  0.5755  0.2463
  255THF     O1 5243   3.226   3.134   0.634 -0.0314  0.2046 -0.4047
  255THF     C2 5244   3.338   3.090   0.718 -0.4646 -1.0635 -0.4996
  255THF     C3 5245   3.142   3.018   0.618  0.1758 -0.8505  0.1275
  255THF     H4 5246   3.369   3.168   0.788 -2.1557  0.8126 -1.7347
  255THF     H5 5247   3.425   3.050   0.665  0.8059  1.4292 -0.4640
  255THF     H6 5248   3.043   3.047   0.584  0.1160 -1.4307 -0.2081
  255THF     H7 5249   3.189   2.948   0.549  0.2451 -0.4940 -0.1836
  255THF     C8 5250   3.142   2.967   0.760  0.2022 -0.5742 -0.1285
  255THF     C9 5251   3.284   2.973   0.810 -0.2255  0.2350 -0.0903
  255THF    H10 5252   3.105   2.865   0.760 -0.9319 -0.2202  1.9970
  255THF    H11 5253   3.071   3.027   0.817  2.0162  1.6592 -0.0438
  255THF    H12 5254   3.286   2.984   0.919  1.2097  0.1674 -0.0890
  255THF    H13 5255   3.337   2.880   0.788  0.8733  0.3655  1.7563
  256THF     O1 5256   4.070   4.122   2.344 -0.1784 -0.4958 -0.5737
  256THF     C2 5257   3.975   4.106   2.245 -0.4818 -0.6486  0.0171
  256THF     C3 5258   4.114   3.990   2.379 -0.4456 -0.2196 -0.2061
  256THF     H4 5259   4.025   4.075   2.154  1.1662 -1.2437  1.0982
  256THF     H5 5260   3.926   4.203   2.232  0.5182 -0.0714  0.4454
  256THF     H6 5261   4.198   3.953   2.320  1.0022  0.0016  1.6308
  256THF     H7 5262   4.150   3.988   2.481  0.3433 -2.2652 -0.4713
  256THF     C8 5263   3.991   3.899   2.361  0.2681  0.0242 -0.4690
  256THF     C9 5264   3.891   3.988   2.291 -0.0752  0.0210 -0.6883
  256THF    H10 5265   3.948   3.855   2.451  2.4503  2.2644  1.8249
  256THF    H11 5266   4.022   3.818   2.296  1.7138  0.2469 -0.0801
  256THF    H12 5267   3.844   3.926   2.214  0.3314  0.2468 -1.1207
  256THF    H13 5268   3.808   4.014   2.357 -0.4860 -1.7743 -0.4449
  257THF     O1 5269   4.820   4.894   4.773 -0.2087 -0.1299  0.5325
  257THF     C2 5270   4.729   4.964   4.705 -0.1244 -0.1534 -0.1498
  257THF     C3 5271   4.929   4.973   4.806 -0.5407 -0.5975  0.1762
  257THF     H4 5272   4.658   5.022   4.764 -1.2673 -1.2837 -0.3534
  257THF     H5 5273   4.671   4.892   4.647 -0.7129 -0.4673  0.8009
  257THF     H6 5274   4.905   5.042   4.888 -3.9942 -0.3010 -0.9256
  257THF     H7 5275   5.027   4.931   4.828 -1.0596 -1.7190  0.4151
  257THF     C8 5276   4.947   5.062   4.684 -0.1059 -0.5622 -0.1695
  257THF     C9 5277   4.814   5.056   4.614  0.3369  0.2293  0.1032
  257THF    H10 5278   5.027   5.027   4.618 -0.4122  0.1880 -0.9572
  257THF    H11 5279   4.968   5.166   4.707  1.4115 -1.0720  0.8946
  257THF    H12 5280   4.785   5.160   4.597  0.5598  0.4357  0.9148
  257THF    H13 5281   4.827   5.011   4.516  0.0035 -0.0501  0.1866
  258THF     O1 5282   0.345   3.803   5.200 -0.1875 -0.1235  0.0132
  258THF     C2 5283   0.295   3.915   5.126  0.1500  0.3882 -0.2335
  258THF     C3 5284   0.278   3.794   5.323  0.7618  0.3791 -0.6218
  258THF     H4 5285   0.252   3.877   5.033  3.4193 -1.3248 -1.1867
  258THF     H5 5286   0.373   3.978   5.083 -0.7376  0.1544 -2.3028
  258THF     H6 5287   0.249   3.695   5.358 -0.7753  0.9967 -0.0953
  258THF     H7 5288   0.342   3.820   5.407  1.6695 -0.2245 -1.0968
  258THF     C8 5289   0.152   3.882   5.302 -0.1221  0.2176 -0.2906
  258THF     C9 5290   0.201   3.992   5.213  0.2408 -0.1360  0.6222
  258THF    H10 5291   0.114   3.936   5.388  0.6377  1.7818 -0.9036
  258THF    H11 5292   0.069   3.823   5.264 -0.8758 -0.0371  1.6339
  258THF    H12 5293   0.118   4.036   5.158  0.9902 -1.4378 -1.6646
  258THF    H13 5294   0.247   4.060   5.284 -0.4377 -0.2128  1.1522
  259THF     O1 5295   2.979   0.625   1.100 -0.0482 -0.0818  0.4584
  259THF     C2 5296   2.914   0.529   1.017 -0.7688 -0.4808  0.4133
  259THF     C3 5297   2.914   0.751   1.087 -0.1073 -0.5149 -0.3742
  259THF     H4 5298   2.952   0.428   1.036 -0.6586 -1.2050 -2.9587
  259THF     H5 5299   2.944   0.547   0.914  1.4432 -1.4300  0.8058
  259THF     H6 5300   2.910   0.799   1.185 -0.2619 -0.4079 -0.4312
  259THF     H7 5301   2.944   0.824   1.012 -0.0770 -1.9010 -1.7368
  259THF     C8 5302   2.774   0.711   1.037  0.3021 -0.7704  0.8130
  259THF     C9 5303   2.771   0.558   1.046  0.6923 -0.2504  0.6385
  259THF    H10 5304   2.766   0.740   0.932 -0.4648 -1.6288  0.6191
  259THF    H11 5305   2.691   0.761   1.087  0.3310 -0.3638  0.4601
  259THF    H12 5306   2.747   0.522   1.147  2.3030 -2.2061  0.3925
  259THF    H13 5307   2.708   0.526   0.963 -0.4556  0.9681  1.0048
  260THF     O1 5308   0.717   0.567   3.847  0.1583 -0.0770  0.1758
  260THF     C2 5309   0.679   0.686   3.785 -0.0939  0.0341  0.2539
  260THF     C3 5310   0.820   0.507   3.766 -0.0599 -0.4718  0.1097
  260THF     H4 5311   0.762   0.756   3.783  2.2372 -2.5359 -0.9111
  260THF     H5 5312   0.588   0.724   3.832 -0.2463 -0.1839  0.1393
  260THF     H6 5313   0.921   0.542   3.790 -0.9876  0.5008  3.0210
  260THF     H7 5314   0.820   0.398   3.772 -3.2907 -0.5598  0.1642
  260THF     C8 5315   0.782   0.549   3.622  0.3759  0.0453 -0.8009
  260THF     C9 5316   0.654   0.633   3.641  0.6811 -0.8185  0.0081
  260THF    H10 5317   0.754   0.464   3.559  2.6756  0.0903 -2.0049
  260THF    H11 5318   0.857   0.602   3.563  0.5880 -0.0688 -0.6370
  260THF    H12 5319   0.645   0.708   3.563  1.5021 -0.7829 -0.0619
  260THF    H13 5320   0.568   0.566   3.644 -0.5089  0.6615  0.4150
  261THF     O1 5321   0.356   1.622   4.437  0.1688  0.1356 -0.1035
  261THF     C2 5322   0.412   1.557   4.557  0.2400 -0.3818 -0.3899
  261THF     C3 5323   0.227   1.659   4.477 -0.3345  0.1227 -0.4397
  261THF     H4 5324   0.447   1.633   4.626 -1.8793 -0.4295  0.8286
  261THF     H5 5325   0.496   1.494   4.526  0.2253 -0.6304  0.0661
  261THF     H6 5326   0.241   1.745   4.543  0.3492 -1.0568  1.0253
  261THF     H7 5327   0.172   1.698   4.392  0.4967 -0.1081 -1.0948
  261THF     C8 5328   0.178   1.532   4.536  0.1331 -0.7140  0.1117
  261THF     C9 5329   0.290   1.475   4.610 -0.8649 -0.2510  0.7107
  261THF    H10 5330   0.148   1.457   4.464 -0.0894  0.7438 -1.3699
  261THF    H11 5331   0.092   1.554   4.600 -0.4650 -0.6626 -0.6910
  261THF    H12 5332   0.280   1.477   4.719  1.0868 -0.3452  0.9193
  261THF    H13 5333   0.307   1.371   4.582  0.3231  0.0900  0.0950
  262THF     O1 5334   2.894   1.020   3.572  0.6532  0.5212 -0.0583
  262THF     C2 5335   2.896   0.923   3.465  0.3550  0.3841  0.0251
  262THF     C3 5336   2.893   1.137   3.506 -0.3211 -1.0505  0.4096
  262THF     H4 5337   2.883   0.823   3.506  0.4797  0.2062 -0.3657
  262THF     H5 5338   2.993   0.927   3.416  1.7113 -2.3546  2.1478
  262THF     H6 5339   2.865   1.220   3.570 -0.4710  1.1425 -2.3145
  262THF     H7 5340   2.992   1.157   3.467 -0.3801  0.9318  1.1685
  262THF     C8 5341   2.797   1.117   3.387  0.5138  1.2906  0.2694
  262THF     C9 5342   2.789   0.965   3.366  0.1031  0.1877  0.3918
  262THF    H10 5343   2.829   1.171   3.298  1.2776  0.0374 -0.2358
  262THF    H11 5344   2.697   1.151   3.413 -0.4951 -0.4442 -1.1202
  262THF    H12 5345   2.695   0.934   3.413  0.4374  1.3092  1.8919
  262THF    H13 5346   2.806   0.938   3.262 -0.6525  0.8189  0.0946
  263THF     O1 5347   2.806   2.795   2.987 -0.0479  0.3632  0.2341
  263THF     C2 5348   2.721   2.732   3.079 -0.2871  0.2613  0.1415
  263THF     C3 5349   2.832   2.923   3.033 -0.2639 -0.6070 -0.1730
  263THF     H4 5350   2.768   2.641   3.117 -2.6779 -0.8597  0.5488
  263THF     H5 5351   2.630   2.706   3.025 -0.5379  0.4107  0.4890
  263THF     H6 5352   2.932   2.927   3.076  0.0525 -1.5026 -0.7958
  263THF     H7 5353   2.832   2.984   2.943 -1.5996 -1.1800 -0.5992
  263THF     C8 5354   2.725   2.961   3.134  0.2597  0.2388 -0.4658
  263THF     C9 5355   2.675   2.828   3.185  0.0864 -0.5800  0.1662
  263THF    H10 5356   2.648   3.006   3.072 -0.7450  1.6863  1.7433
  263THF    H11 5357   2.764   3.038   3.200  1.4973 -0.8973  0.1935
  263THF    H12 5358   2.710   2.802   3.285  3.0521 -0.1298 -0.6461
  263THF    H13 5359   2.567   2.839   3.193  0.2134  1.7560 -0.5701
  264THF     O1 5360   4.957   1.754   4.750  0.0531  0.3073 -0.3374
  264THF     C2 5361   5.023   1.696   4.641 -0.4274 -0.1837  0.3906
  264THF     C3 5362   4.973   1.892   4.749 -0.4387 -0.7977  0.0122
  264THF     H4 5363   4.952   1.654   4.570 -0.0202 -2.0482  1.0205
  264THF     H5 5364   5.082   1.619   4.690  0.9846 -0.4196 -1.5722
  264THF     H6 5365   4.877   1.936   4.777  0.9577  1.5019  1.5070
  264THF     H7 5366   5.053   1.919   4.817 -0.6243  0.5971 -0.3068
  264THF     C8 5367   5.018   1.929   4.614 -0.2339 -0.7298  0.2507
  264THF     C9 5368   5.096   1.810   4.578  0.6678 -0.6317 -0.0770
  264THF    H10 5369   5.073   2.023   4.609  0.8252 -1.1400  2.8302
  264THF    H11 5370   4.932   1.934   4.546  1.6689  1.6615 -2.2645
  264THF    H12 5371   5.088   1.798   4.470  0.8821 -0.3517 -0.1258
  264THF    H13 5372   5.200   1.804   4.607  0.2764 -3.2809  1.0373
  265THF     O1 5373   2.131   1.568   3.300  0.0236  0.0908  0.5746
  265THF     C2 5374   2.096   1.533   3.162 -0.3222  0.6717 -0.3808
  265THF     C3 5375   2.217   1.682   3.294 -0.2177 -0.3929 -0.1308
  265THF     H4 5376   2.000   1.586   3.156 -0.7458  0.1048  1.0261
  265THF     H5 5377   2.087   1.425   3.154  1.7620  0.4350  0.0349
  265THF     H6 5378   2.162   1.769   3.259 -1.2861 -1.4619 -1.2086
  265THF     H7 5379   2.272   1.700   3.387 -1.4579 -1.0284  0.7664
  265THF     C8 5380   2.308   1.637   3.184 -0.0510  0.1970 -0.3894
  265THF     C9 5381   2.207   1.597   3.075  0.4521  0.0988  0.0971
  265THF    H10 5382   2.362   1.549   3.219  1.0934  0.9606 -0.1642
  265THF    H11 5383   2.385   1.707   3.151  0.6882 -1.4191 -2.3358
  265THF    H12 5384   2.181   1.693   3.030  2.0978 -0.1690 -1.5519
  265THF    H13 5385   2.252   1.534   2.998 -0.8198 -0.0304 -0.5610
  266THF     O1 5386   3.118   3.069   2.610  0.1123  0.3633 -0.0862
  266THF     C2 5387   3.231   3.138   2.660 -0.4557  0.0057 -0.2652
  266THF     C3 5388   3.135   2.937   2.658  0.1315  0.7302  0.2264
  266THF     H4 5389   3.210   3.165   2.763 -0.5776  0.4906 -0.4113
  266THF     H5 5390   3.260   3.227   2.604  0.1196 -0.1246 -0.1746
  266THF     H6 5391   3.088   2.947   2.756 -0.6895 -1.0129  0.0389
  266THF     H7 5392   3.083   2.862   2.598  1.8169 -1.0542  0.8836
  266THF     C8 5393   3.288   2.912   2.667  0.1411  1.4305  0.1440
  266THF     C9 5394   3.348   3.043   2.646 -0.5920 -0.7147 -0.6953
  266THF    H10 5395   3.316   2.834   2.597 -0.9974  0.4232  0.7611
  266THF    H11 5396   3.306   2.871   2.766 -0.8277 -1.4017 -0.7615
  266THF    H12 5397   3.427   3.061   2.719 -1.8129  2.4426  0.0106
  266THF    H13 5398   3.389   3.049   2.545  2.3186 -0.0267  0.4467
  267THF     O1 5399   1.208   3.101   1.320 -0.2657 -0.2547 -0.0450
  267THF     C2 5400   1.319   3.168   1.262 -0.9453 -0.0741 -0.2052
  267THF     C3 5401   1.179   2.991   1.237 -0.4590  0.0192 -0.2876
  267THF     H4 5402   1.418   3.145   1.301 -0.8504 -0.3982 -0.6424
  267THF     H5 5403   1.303   3.272   1.290  1.4287  0.0163  1.0812
  267THF     H6 5404   1.242   2.908   1.269 -0.5801  0.2615  0.5968
  267THF     H7 5405   1.074   2.962   1.233 -0.6669  0.8218 -1.0388
  267THF     C8 5406   1.215   3.034   1.095 -0.0480  0.1317 -0.1944
  267THF     C9 5407   1.314   3.148   1.113  0.4502 -0.1742  0.3861
  267THF    H10 5408   1.123   3.076   1.053 -1.5858 -2.4657  0.3354
  267THF    H11 5409   1.251   2.958   1.025  2.4010  1.5942 -0.6454
  267THF    H12 5410   1.419   3.137   1.085  0.3578  0.6478 -0.3148
  267THF    H13 5411   1.281   3.234   1.056 -0.8143 -0.5151  0.5832
  268THF     O1 5412   2.254   3.364   4.118 -0.2146 -0.0679  0.5743
  268THF     C2 5413   2.383   3.412   4.086  0.1716 -0.6509 -0.6171
  268THF     C3 5414   2.229   3.236   4.063 -0.4162 -0.7062 -0.1022
  268THF     H4 5415   2.430   3.442   4.179 -0.2502 -3.2166  0.5168
  268THF     H5 5416   2.388   3.489   4.009  0.3873  0.3746  0.4081
  268THF     H6 5417   2.144   3.204   4.124 -0.6006 -0.3375 -0.1625
  268THF     H7 5418   2.209   3.226   3.956 -2.9931  0.8935  0.1420
  268THF     C8 5419   2.364   3.181   4.098 -0.1671  0.1465  0.0567
  268THF     C9 5420   2.457   3.289   4.052 -0.7920 -0.0679  0.4140
  268THF    H10 5421   2.395   3.087   4.054 -1.0683  0.0104 -0.3130
  268THF    H11 5422   2.372   3.178   4.206  1.0376  1.7301  0.0613
  268THF    H12 5423   2.556   3.288   4.099  0.4896  1.9191 -1.9822
  268THF    H13 5424   2.461   3.288   3.943  0.3380  0.4015  0.4332
  269THF     O1 5425   1.672   5.430   1.785 -0.3051  0.5554 -0.2369
  269THF     C2 5426   1.805   5.484   1.799  0.4298  0.3263  0.2557
  269THF     C3 5427   1.653   5.350   1.901 -0.0617 -0.0693  0.8707
  269THF     H4 5428   1.818   5.581   1.750 -1.4998  0.3197 -0.3445
  269THF     H5 5429   1.883   5.411   1.778  0.1772  0.2438 -0.4044
  269THF     H6 5430   1.549   5.322   1.920 -0.2657  1.3462  2.0470
  269THF     H7 5431   1.704   5.257   1.879 -0.7825  0.0057 -1.3500
  269THF     C8 5432   1.712   5.427   2.015 -0.0624 -0.0752 -0.0485
  269THF     C9 5433   1.817   5.516   1.954  0.0296  0.2987  0.2293
  269THF    H10 5434   1.754   5.360   2.090 -0.1394  0.1452  0.1943
  269THF    H11 5435   1.634   5.486   2.063 -0.3850 -0.2915 -0.3049
  269THF    H12 5436   1.786   5.620   1.970 -2.2877 -0.0493 -1.4841
  269THF    H13 5437   1.918   5.510   1.994  0.9738 -0.6783 -2.1330
  270THF     O1 5438   2.233   2.049   3.229  0.2958  0.9082 -0.5036
  270THF     C2 5439   2.158   2.158   3.176  0.1756  0.2085 -0.9824
  270THF     C3 5440   2.178   2.044   3.364 -0.3679 -0.5029  0.1181
  270THF     H4 5441   2.156   2.149   3.067 -0.8131 -0.3280 -0.9295
  270THF     H5 5442   2.196   2.256   3.207  0.2653 -0.5777  1.6172
  270THF     H6 5443   2.214   1.952   3.410  1.7475  0.0416 -0.3165
  270THF     H7 5444   2.203   2.126   3.430 -1.3653  0.2271 -0.3882
  270THF     C8 5445   2.028   2.043   3.340 -0.6654 -0.0587 -0.5867
  270THF     C9 5446   2.013   2.155   3.235 -0.1684  0.1241 -0.2669
  270THF    H10 5447   1.974   2.079   3.428  1.5125  1.0162  0.3691
  270THF    H11 5448   2.000   1.942   3.309  1.7423 -0.7434 -0.7037
  270THF    H12 5449   1.938   2.119   3.164 -0.8953 -0.3917  0.7492
  270THF    H13 5450   1.980   2.250   3.277 -0.6963 -0.2900  0.2681
  271THF     O1 5451   2.745   3.791   3.216  0.0341 -0.5547  0.2308
  271THF     C2 5452   2.832   3.841   3.318 -0.0090  0.2449 -0.2132
  271THF     C3 5453   2.624   3.861   3.222 -0.0650 -1.1388 -0.1135
  271THF     H4 5454   2.937   3.817   3.298 -0.0065  0.1871 -0.1288
  271THF     H5 5455   2.797   3.813   3.417  0.8264 -1.0600 -0.2702
  271THF     H6 5456   2.553   3.854   3.140  1.2952  0.9470 -1.5667
  271THF     H7 5457   2.574   3.836   3.316  0.6645  2.1575  1.3371
  271THF     C8 5458   2.670   4.010   3.239 -0.0579  1.0254 -0.6852
  271THF     C9 5459   2.804   3.994   3.309 -0.3919 -0.3987  0.6772
  271THF    H10 5460   2.596   4.069   3.293 -0.2988 -1.0607  1.4355
  271THF    H11 5461   2.671   4.050   3.138 -0.5553 -0.0073 -1.1093
  271THF    H12 5462   2.887   4.037   3.253 -0.6212 -0.2768  0.4302
  271THF    H13 5463   2.803   4.044   3.406  1.1988 -1.6164  1.3668
  272THF     O1 5464   3.083   4.466   1.758  0.3195 -0.3151  0.3617
  272THF     C2 5465   3.019   4.547   1.665 -0.0037  0.4776 -0.1062
  272THF     C3 5466   3.153   4.364   1.695 -0.7570  0.6989  1.3699
  272THF     H4 5467   3.020   4.651   1.700  0.3009  0.2844  0.4783
  272THF     H5 5468   2.917   4.509   1.656 -0.0040  0.8765 -2.4114
  272THF     H6 5469   3.259   4.388   1.694 -0.6197  0.2219 -0.9009
  272THF     H7 5470   3.149   4.262   1.734  0.7369  0.5904  1.2856
  272THF     C8 5471   3.114   4.371   1.547 -0.1473  0.6077  0.0101
  272THF     C9 5472   3.091   4.514   1.534  0.7339 -1.1121  0.3477
  272THF    H10 5473   3.018   4.319   1.548  0.4593 -0.5355  0.5459
  272THF    H11 5474   3.181   4.331   1.471  0.1329  0.5647  0.2796
  272THF    H12 5475   3.180   4.576   1.528  0.2255 -0.4764 -0.7980
  272THF    H13 5476   3.043   4.542   1.440  0.3905 -0.3371  0.7401
  273THF     O1 5477   2.154   1.925   0.688  0.1646  0.3512  0.0876
  273THF     C2 5478   2.112   1.986   0.810 -0.5866 -0.7567  0.5823
  273THF     C3 5479   2.249   1.824   0.717 -0.0464 -0.1136  0.1294
  273THF     H4 5480   2.045   2.072   0.809  1.9685  1.4808 -3.0837
  273THF     H5 5481   2.197   2.037   0.854  1.2591 -1.5507 -1.8214
  273THF     H6 5482   2.271   1.767   0.626 -1.6467  0.7550 -0.8511
  273THF     H7 5483   2.337   1.885   0.738 -0.8185  1.9345 -2.0626
  273THF     C8 5484   2.190   1.746   0.838  0.3610 -0.7765 -0.4956
  273THF     C9 5485   2.087   1.854   0.884  0.1196 -0.6050 -0.1529
  273THF    H10 5486   2.265   1.741   0.917  1.4827 -0.8289 -1.5437
  273THF    H11 5487   2.142   1.653   0.808 -0.3395  0.1091 -2.2381
  273THF    H12 5488   1.988   1.831   0.845 -0.9807  0.4318  1.8892
  273THF    H13 5489   2.102   1.865   0.991  3.0219 -0.8007 -0.4458
  274THF     O1 5490   2.399   1.089   3.944  0.0023 -0.2758  0.2082
  274THF     C2 5491   2.486   1.186   3.999  0.6621  0.3444 -0.2177
  274THF     C3 5492   2.398   1.119   3.805 -0.7582 -0.4413  0.1732
  274THF     H4 5493   2.530   1.147   4.091  1.4076  0.9744 -0.2968
  274THF     H5 5494   2.433   1.279   4.020  0.9824  0.3842  0.4442
  274THF     H6 5495   2.364   1.036   3.744  0.3869  0.7472 -2.2297
  274THF     H7 5496   2.314   1.189   3.800  0.6725  1.4272  1.0990
  274THF     C8 5497   2.538   1.160   3.768 -0.7622 -0.3360 -0.5212
  274THF     C9 5498   2.598   1.212   3.899  0.2400  0.2284 -0.0691
  274THF    H10 5499   2.554   1.224   3.682  1.8165 -0.0026  0.1308
  274THF    H11 5500   2.582   1.062   3.746 -0.3396 -0.3495  0.3255
  274THF    H12 5501   2.694   1.162   3.912  0.2742  0.3803  0.2740
  274THF    H13 5502   2.621   1.319   3.893 -0.2675  0.4065  0.9405
  275THF     O1 5503   0.078   4.208   0.086 -0.4800  0.1050 -0.0258
  275THF     C2 5504   0.024   4.149   0.208  0.1457 -0.6313 -0.7031
  275THF     C3 5505  -0.016   4.193  -0.021 -0.0140  0.2519  1.1072
  275THF     H4 5506   0.043   4.215   0.292 -0.9154  1.0538 -1.7100
  275THF     H5 5507   0.065   4.051   0.232 -0.8017 -0.6707  0.9312
  275THF     H6 5508  -0.020   4.284  -0.081  0.8184 -0.6162 -0.3184
  275THF     H7 5509   0.003   4.111  -0.090 -1.7708  0.0431  0.8363
  275THF     C8 5510  -0.151   4.186   0.050 -0.0132  0.3441 -0.1575
  275THF     C9 5511  -0.129   4.133   0.191 -0.5106 -0.4414  0.7094
  275THF    H10 5512  -0.231   4.137  -0.005  0.4569 -0.0863 -0.4568
  275THF    H11 5513  -0.193   4.287   0.056 -3.5962 -0.7765 -2.8263
  275THF    H12 5514  -0.188   4.188   0.265 -1.4781 -1.4465  0.7289
  275THF    H13 5515  -0.154   4.026   0.192  1.3120 -0.9335 -0.8324
  276THF     O1 5516   5.405   2.538   5.367 -0.6164 -0.0849 -0.1464
  276THF     C2 5517   5.425   2.540   5.506 -0.2081 -0.2257 -0.2786
  276THF     C3 5518   5.287   2.606   5.337  0.1680 -0.1878  0.6251
  276THF     H4 5519   5.528   2.525   5.538 -0.5722 -1.4814  0.3865
  276THF     H5 5520   5.362   2.468   5.559  1.3965  0.0179  2.0867
  276THF     H6 5521   5.289   2.639   5.233 -1.9245 -0.1146  0.5623
  276THF     H7 5522   5.202   2.537   5.338  0.1551 -0.1968 -0.3461
  276THF     C8 5523   5.274   2.715   5.444 -0.7001 -0.0703 -0.1634
  276THF     C9 5524   5.385   2.681   5.547  0.0407  0.2308 -0.0237
  276THF    H10 5525   5.181   2.704   5.499  0.5631 -1.3769  1.8575
  276THF    H11 5526   5.292   2.804   5.384 -0.2215 -1.2608 -1.8954
  276THF    H12 5527   5.468   2.749   5.528 -0.2850  1.1898  1.7899
  276THF    H13 5528   5.366   2.690   5.654 -0.7233 -0.7160 -0.0672
  277THF     O1 5529   4.967   4.734   2.678 -0.7987 -0.0141  0.8527
  277THF     C2 5530   4.896   4.840   2.615 -0.2033  0.3149  0.2922
  277THF     C3 5531   4.906   4.698   2.792  0.0666 -0.5712  0.0403
  277THF     H4 5532   4.916   4.835   2.508  1.6101  0.1270  0.6075
  277THF     H5 5533   4.927   4.938   2.649  1.5038 -0.2485  0.4939
  277THF     H6 5534   4.929   4.602   2.838 -2.5308 -0.7262  1.1678
  277THF     H7 5535   4.925   4.779   2.861 -1.1483  0.8180 -1.1727
  277THF     C8 5536   4.763   4.689   2.750  0.0441  0.0600  0.6508
  277THF     C9 5537   4.754   4.801   2.648 -1.1897  0.1033 -0.5125
  277THF    H10 5538   4.698   4.689   2.837  2.4053 -0.6882  2.5387
  277THF    H11 5539   4.760   4.587   2.712  1.5446 -0.4704  1.8252
  277THF    H12 5540   4.695   4.765   2.563 -2.2987  1.2706 -0.2681
  277THF    H13 5541   4.699   4.887   2.687 -0.1181  0.6912 -0.2774
  278THF     O1 5542   4.449   0.785   1.807 -0.3134  0.3007  0.1899
  278THF     C2 5543   4.339   0.846   1.746  0.1524 -0.3238 -0.0616
  278THF     C3 5544   4.436   0.644   1.789  0.3278 -0.0040 -0.6409
  278THF     H4 5545   4.357   0.854   1.639 -0.2914 -0.1885 -0.1298
  278THF     H5 5546   4.334   0.948   1.785  0.0686 -0.6239  0.7201
  278THF     H6 5547   4.485   0.623   1.694 -0.2908 -1.0484 -0.7569
  278THF     H7 5548   4.489   0.579   1.859 -2.1743 -1.8512 -0.3046
  278THF     C8 5549   4.279   0.622   1.794 -0.5292  0.1092 -0.4348
  278THF     C9 5550   4.220   0.763   1.778 -0.2087 -0.3589 -0.2787
  278THF    H10 5551   4.254   0.577   1.890  0.1858 -0.1840 -0.3805
  278THF    H11 5552   4.243   0.556   1.715  1.8470 -0.3498 -1.2054
  278THF    H12 5553   4.153   0.761   1.692  1.2732 -0.0140 -1.4994
  278THF    H13 5554   4.174   0.788   1.873  1.4179  0.9834  0.2069
  279THF     O1 5555   3.850   3.818   4.386  0.5527  0.5487  0.2377
  279THF     C2 5556   3.972   3.748   4.417  0.4763  0.1306  0.0187
  279THF     C3 5557   3.867   3.914   4.294  1.3472 -0.4413 -0.1987
  279THF     H4 5558   3.956   3.656   4.473 -3.2743  1.0591  0.7073
  279THF     H5 5559   4.036   3.812   4.477  1.9927 -0.9983 -0.3160
  279THF     H6 5560   3.773   3.937   4.243 -0.0574 -2.8131  1.1510
  279THF     H7 5561   3.909   4.007   4.334  0.3879  0.6090 -1.5236
  279THF     C8 5562   3.953   3.831   4.198 -0.3187  0.3892  0.1053
  279THF     C9 5563   4.037   3.732   4.281  0.0945  0.1837 -0.5455
  279THF    H10 5564   4.022   3.886   4.134 -1.2872  1.5583  0.0330
  279THF    H11 5565   3.882   3.776   4.134 -0.0540  0.5224 -0.3067
  279THF    H12 5566   4.035   3.633   4.236  1.5504 -0.3632  0.4994
  279THF    H13 5567   4.142   3.762   4.274  0.5535 -1.6631 -2.1307
  280THF     O1 5568   0.502   1.186   2.643 -0.7075 -0.0188  0.1266
  280THF     C2 5569   0.422   1.106   2.561  0.4046 -0.4596  0.0702
  280THF     C3 5570   0.494   1.316   2.591  0.1946 -0.4418  0.0790
  280THF     H4 5571   0.316   1.127   2.579  0.5180  0.8562 -0.7066
  280THF     H5 5572   0.433   1.001   2.587 -1.4003 -0.5826  0.4982
  280THF     H6 5573   0.410   1.371   2.633  2.2482  1.5038  1.8839
  280THF     H7 5574   0.585   1.366   2.624  0.7259 -1.9252  0.9550
  280THF     C8 5575   0.480   1.300   2.433  0.3657 -0.2158  0.3970
  280THF     C9 5576   0.454   1.145   2.417  0.5217  0.0086  0.6236
  280THF    H10 5577   0.565   1.332   2.374  0.3224 -1.0148 -0.1120
  280THF    H11 5578   0.389   1.354   2.404  0.8589 -0.3713 -1.5707
  280THF    H12 5579   0.383   1.117   2.339  0.2521 -1.6203  1.4067
  280THF    H13 5580   0.556   1.110   2.400 -0.0124 -1.2331 -0.1825
  281THF     O1 5581   2.335   2.649   4.065 -0.1180  0.1116  0.0560
  281THF     C2 5582   2.287   2.786   4.066  0.0766 -0.5104  0.5105
  281THF     C3 5583   2.431   2.645   3.958  0.4967 -0.4580  0.7698
  281THF     H4 5584   2.362   2.850   4.113 -0.6022  1.1701 -0.6034
  281THF     H5 5585   2.200   2.802   4.129  0.9044  0.3090  1.4719
  281THF     H6 5586   2.531   2.673   3.991 -0.2087  2.2459  0.8939
  281THF     H7 5587   2.435   2.545   3.914  1.6285 -0.3172  0.5203
  281THF     C8 5588   2.380   2.742   3.844 -0.9868 -0.6719 -0.0907
  281THF     C9 5589   2.273   2.823   3.921 -0.4673  0.0223  0.5517
  281THF    H10 5590   2.341   2.683   3.761 -0.6851 -1.1937  0.1337
  281THF    H11 5591   2.447   2.812   3.795 -0.2672  1.3441  3.4213
  281THF    H12 5592   2.289   2.931   3.917  1.0115 -0.1997 -0.3714
  281THF    H13 5593   2.177   2.798   3.876 -0.0423 -2.7010  0.9494
  282THF     O1 5594   3.188   3.440   5.240  0.2718  0.1553  1.2547
  282THF     C2 5595   3.221   3.523   5.352  0.4697 -0.8273  0.3246
  282THF     C3 5596   3.119   3.328   5.294  0.4858  0.1433  0.4606
  282THF     H4 5597   3.157   3.611   5.351  0.7556 -0.5068 -3.5169
  282THF     H5 5598   3.325   3.557   5.344 -0.1123  0.9164 -0.1971
  282THF     H6 5599   3.017   3.348   5.327  0.3853  1.0037 -0.3269
  282THF     H7 5600   3.113   3.253   5.215  1.1590  1.7557 -1.1981
  282THF     C8 5601   3.201   3.289   5.413 -0.9426  0.4749  0.2894
  282THF     C9 5602   3.212   3.426   5.475 -0.0152 -0.3445  0.2698
  282THF    H10 5603   3.294   3.261   5.363 -1.1227 -1.1097  0.7946
  282THF    H11 5604   3.157   3.213   5.478 -2.8254 -0.2326 -1.7137
  282THF    H12 5605   3.116   3.450   5.521 -0.5256  0.7213 -1.2723
  282THF    H13 5606   3.290   3.436   5.550 -1.2198 -1.1142  1.6796
  283THF     O1 5607   4.895   5.187   4.338  0.4602  0.8821 -0.1251
  283THF     C2 5608   5.014   5.187   4.265 -0.2791 -0.4447 -0.1796
  283THF     C3 5609   4.797   5.126   4.255  0.1191  0.1525 -0.0747
  283THF     H4 5610   5.088   5.111   4.290  1.6317  1.4593  0.1456
  283THF     H5 5611   5.057   5.283   4.294 -1.4526  0.1842 -0.4428
  283THF     H6 5612   4.787   5.023   4.289  0.6227 -0.7451 -2.4446
  283THF     H7 5613   4.708   5.187   4.271 -0.1155  0.5636 -2.6000
  283THF     C8 5614   4.839   5.128   4.108  0.0552 -0.0134 -0.1340
  283THF     C9 5615   4.977   5.191   4.116  0.3010 -0.7344  0.5290
  283THF    H10 5616   4.772   5.185   4.044 -1.9516 -1.9112  0.1753
  283THF    H11 5617   4.832   5.024   4.075  0.8761  0.0228 -0.4597
  283THF    H12 5618   5.047   5.144   4.047  2.1565  0.2887  1.6121
  283THF    H13 5619   4.971   5.293   4.078  0.9115 -0.6343  0.6790
  284THF     O1 5620   0.367   4.099   4.860  0.6029 -0.1112 -0.2509
  284THF     C2 5621   0.307   4.222   4.902  0.2900  0.3141 -0.8448
  284THF     C3 5622   0.286   4.020   4.769 -0.2263  0.2851 -0.2201
  284THF     H4 5623   0.376   4.300   4.868 -1.7301  2.3272 -0.5606
  284THF     H5 5624   0.315   4.233   5.010  1.1260 -0.1403 -0.8536
  284THF     H6 5625   0.338   3.959   4.695  1.1213  0.2344  0.7179
  284THF     H7 5626   0.233   3.945   4.827  1.4182  0.6547  1.8827
  284THF     C8 5627   0.196   4.124   4.714  0.8879 -0.2319 -0.1308
  284THF     C9 5628   0.182   4.221   4.830 -0.1285  0.2752 -0.1243
  284THF    H10 5629   0.100   4.086   4.681  0.6891  0.2409 -0.0953
  284THF    H11 5630   0.238   4.167   4.623 -0.0678 -0.1646 -0.5514
  284THF    H12 5631   0.154   4.322   4.799  0.0453  0.3362 -0.0820
  284THF    H13 5632   0.108   4.173   4.895 -0.2124 -0.9095 -1.0747
  285THF     O1 5633   0.389   4.718   0.311 -0.3878  0.1278 -0.6058
  285THF     C2 5634   0.377   4.672   0.176 -0.3003 -0.0175 -0.7585
  285THF     C3 5635   0.266   4.687   0.378  0.1625  0.0362  0.9597
  285THF     H4 5636   0.474   4.658   0.128  0.5164  0.6251  0.6213
  285THF     H5 5637   0.323   4.740   0.111 -0.1604  1.5158  0.6562
  285THF     H6 5638   0.279   4.690   0.486 -0.2550  1.5238  0.9925
  285THF     H7 5639   0.174   4.740   0.356 -0.1342 -0.2855  1.4057
  285THF     C8 5640   0.257   4.540   0.334 -0.6200 -0.3056  0.2093
  285THF     C9 5641   0.305   4.539   0.192 -0.6322 -0.1597 -0.4554
  285THF    H10 5642   0.156   4.502   0.352 -0.3900 -0.6503  0.8094
  285THF    H11 5643   0.321   4.479   0.397  0.0327 -1.7364 -1.7460
  285THF    H12 5644   0.375   4.456   0.203  1.0203  1.3492  1.0084
  285THF    H13 5645   0.224   4.528   0.120 -0.6041 -1.4516 -0.3187
  286THF     O1 5646   3.185   2.143   1.391  0.1516  0.1183  0.4674
  286THF     C2 5647   3.268   2.058   1.332  0.9455 -0.0689  0.4906
  286THF     C3 5648   3.055   2.082   1.405  0.0003  0.2047  0.3104
  286THF     H4 5649   3.300   1.988   1.409  0.7339  0.7007  1.2944
  286THF     H5 5650   3.359   2.108   1.298 -0.4754  0.8489 -2.3252
  286THF     H6 5651   3.052   2.013   1.490  1.3308 -0.7965 -0.4007
  286THF     H7 5652   2.974   2.151   1.428  0.1256 -0.0222  1.5027
  286THF     C8 5653   3.028   2.019   1.270 -0.1556 -0.4179 -0.4870
  286THF     C9 5654   3.173   1.989   1.231  0.5399 -0.2565  0.5767
  286THF    H10 5655   2.972   2.085   1.204 -1.0721 -0.9529 -0.2625
  286THF    H11 5656   2.966   1.930   1.284 -0.1516 -0.5858 -1.4539
  286THF    H12 5657   3.197   1.884   1.215  0.8013 -0.0021 -0.8768
  286THF    H13 5658   3.182   2.035   1.132  0.2316  0.0272  0.6807
  287THF     O1 5659   3.404   5.366   4.864  0.2501  0.3915 -0.3948
  287THF     C2 5660   3.337   5.410   4.982 -0.1885 -0.1186  0.3447
  287THF     C3 5661   3.543   5.397   4.875  0.7393  0.2962  0.1649
  287THF     H4 5662   3.329   5.326   5.050  2.6085  0.5358  1.6293
  287THF     H5 5663   3.239   5.427   4.936  0.2219  0.8958 -0.2004
  287THF     H6 5664   3.608   5.332   4.934  0.5049  1.0669  1.3100
  287THF     H7 5665   3.574   5.401   4.771 -1.3562  1.3943 -0.4625
  287THF     C8 5666   3.536   5.537   4.925 -0.3904 -0.4948  0.0992
  287THF     C9 5667   3.429   5.525   5.033 -0.2294  0.5633 -0.2902
  287THF    H10 5668   3.510   5.614   4.852  0.0062  1.0517  1.5290
  287THF    H11 5669   3.623   5.583   4.971 -1.3064  0.1379  1.2561
  287THF    H12 5670   3.462   5.493   5.132 -1.6002 -1.9974 -0.5813
  287THF    H13 5671   3.371   5.615   5.049 -0.7033  0.0749  0.8733
  288THF     O1 5672   3.081   1.584   3.768  0.2838  0.1190 -0.3068
  288THF     C2 5673   3.020   1.469   3.708  0.3035 -0.4776 -0.0216
  288THF     C3 5674   3.161   1.531   3.874  0.4186 -0.1515  0.3929
  288THF     H4 5675   3.077   1.407   3.638  1.9826 -0.1044  0.9681
  288THF     H5 5676   2.930   1.494   3.653 -0.6161 -0.3963  1.4657
  288THF     H6 5677   3.256   1.492   3.837  0.0443 -0.5407 -0.1756
  288THF     H7 5678   3.177   1.606   3.952  0.0660 -0.0214  0.3410
  288THF     C8 5679   3.081   1.413   3.926 -0.2791  0.3066  0.1653
  288THF     C9 5680   2.969   1.397   3.832 -0.3238  0.8026 -0.1499
  288THF    H10 5681   3.034   1.429   4.023  0.3173  1.7933  0.2299
  288THF    H11 5682   3.143   1.323   3.928 -0.0066  0.4801 -0.3961
  288THF    H12 5683   2.925   1.298   3.825 -1.5505  1.3497 -0.4302
  288THF    H13 5684   2.885   1.450   3.877 -0.2573  0.1844  0.7291
  289THF     O1 5685   4.778   0.722   2.226 -0.9261  0.2122  0.1002
  289THF     C2 5686   4.906   0.738   2.171  0.7910 -0.3513  0.3527
  289THF     C3 5687   4.674   0.703   2.128 -0.8149 -0.2910 -0.3883
  289THF     H4 5688   4.946   0.639   2.148  0.7117 -0.0756 -1.0597
  289THF     H5 5689   4.966   0.788   2.247  2.0609 -0.9440 -0.2395
  289THF     H6 5690   4.631   0.605   2.146  1.0804 -1.1889 -0.5864
  289THF     H7 5691   4.604   0.785   2.143  0.0843 -0.0258  3.2836
  289THF     C8 5692   4.753   0.723   1.996 -0.5774 -0.2962 -0.9363
  289THF     C9 5693   4.870   0.812   2.038  0.3487 -0.3149  0.2914
  289THF    H10 5694   4.694   0.782   1.926  0.4277  1.4730 -0.3563
  289THF    H11 5695   4.785   0.629   1.953 -0.7884 -0.4103 -0.8484
  289THF    H12 5696   4.946   0.822   1.961 -0.5874 -0.9943 -0.7471
  289THF    H13 5697   4.828   0.909   2.063  1.1711 -0.3481  1.9271
  290THF     O1 5698   0.325   2.924   3.410  0.3895  0.6640  0.2654
  290THF     C2 5699   0.200   2.847   3.415  0.0674 -0.0178 -0.0409
  290THF     C3 5700   0.308   3.026   3.312  0.8682  0.0934 -0.2419
  290THF     H4 5701   0.184   2.800   3.512 -3.0593  1.4384  0.2558
  290THF     H5 5702   0.207   2.758   3.353 -2.1626 -0.4560  0.2536
  290THF     H6 5703   0.348   3.124   3.336  0.4057  0.0334  0.8342
  290THF     H7 5704   0.369   2.997   3.226 -3.3888 -2.3439 -2.7724
  290THF     C8 5705   0.156   3.037   3.281  0.9383  1.0236  0.2441
  290THF     C9 5706   0.088   2.939   3.373 -0.1429  0.0641 -0.5095
  290THF    H10 5707   0.143   3.014   3.175  0.5767 -1.4315  0.7790
  290THF    H11 5708   0.115   3.136   3.301  1.1603  1.1101  0.2712
  290THF    H12 5709   0.049   2.986   3.463  1.7885  1.0786 -0.1443
  290THF    H13 5710  -0.002   2.899   3.328 -1.0524  1.3666  0.0899
  291THF     O1 5711   1.978   3.922   1.514  0.5837 -0.1995  0.0986
  291THF     C2 5712   1.995   4.060   1.543 -0.5984 -0.8914 -1.0451
  291THF     C3 5713   2.099   3.853   1.530  0.2228 -0.4290  0.2803
  291THF     H4 5714   1.901   4.110   1.565  0.9044  1.1717  1.0991
  291THF     H5 5715   2.048   4.119   1.468 -0.9167  2.2460  1.0248
  291THF     H6 5716   2.086   3.745   1.541 -2.3139 -0.5252 -2.4665
  291THF     H7 5717   2.171   3.862   1.448 -1.5967  0.6337 -1.2830
  291THF     C8 5718   2.159   3.923   1.660 -0.1858  0.4191  1.0220
  291THF     C9 5719   2.083   4.047   1.668  0.1364 -0.4488  0.0244
  291THF    H10 5720   2.267   3.920   1.649 -0.1605 -1.6754  1.3347
  291THF    H11 5721   2.133   3.854   1.741 -0.5811 -1.8739 -0.9471
  291THF    H12 5722   2.013   4.042   1.751  0.7879 -0.9776  0.5501
  291THF    H13 5723   2.147   4.135   1.667 -0.5500  0.0887 -2.0566
  292THF     O1 5724   2.290   4.987   3.182  0.4175 -0.4502  0.3136
  292THF     C2 5725   2.312   4.947   3.315 -0.2049  0.2976 -1.0015
  292THF     C3 5726   2.329   4.882   3.095 -0.4258 -0.9319 -0.5836
  292THF     H4 5727   2.231   4.979   3.381  0.2667 -2.2455  0.9642
  292THF     H5 5728   2.409   4.976   3.357 -1.0051 -0.5871  1.6885
  292THF     H6 5729   2.286   4.890   2.995  1.2621  0.4382 -1.2459
  292THF     H7 5730   2.437   4.880   3.089 -0.2066 -0.7168  2.0124
  292THF     C8 5731   2.276   4.761   3.168  0.5230 -0.3142  0.0760
  292THF     C9 5732   2.301   4.796   3.317  0.4921  0.4981  0.4308
  292THF    H10 5733   2.327   4.670   3.137 -1.7109 -2.3609  1.9653
  292THF    H11 5734   2.171   4.745   3.142 -0.1862  1.7397  1.3656
  292THF    H12 5735   2.236   4.740   3.384  1.4440 -1.8850 -0.4953
  292THF    H13 5736   2.397   4.749   3.340  0.3317  0.2611  0.6172
  293THF     O1 5737   4.133   2.057   0.046  0.9395 -0.1121 -0.4310
  293THF     C2 5738   3.996   2.027   0.026  1.0044  0.0462  0.1120
  293THF     C3 5739   4.186   1.956   0.123 -0.1327 -0.0499 -0.3147
  293THF     H4 5740   3.966   2.087  -0.060 -1.0264 -1.9521 -0.6478
  293THF     H5 5741   3.932   2.052   0.111 -0.7151  0.9245 -1.3755
  293THF     H6 5742   4.295   1.964   0.127 -0.0931 -0.3824 -0.6714
  293THF     H7 5743   4.142   1.979   0.220 -0.3239  1.9529 -0.8351
  293THF     C8 5744   4.128   1.831   0.067 -0.4335  0.5741 -0.1085
  293THF     C9 5745   4.001   1.878  -0.008 -0.7072  0.2463 -0.1420
  293THF    H10 5746   4.098   1.768   0.150 -1.8303  1.8489  0.3930
  293THF    H11 5747   4.198   1.784  -0.001 -1.7336 -0.8712 -0.4945
  293THF    H12 5748   4.015   1.869  -0.116  1.0395  1.6395 -0.0686
  293THF    H13 5749   3.909   1.820   0.009 -1.6103  1.2557 -1.4027
  294THF     O1 5750   0.283   0.800   5.381  0.0079 -0.3580  0.0695
  294THF     C2 5751   0.416   0.849   5.414  0.1405  0.5494 -0.2656
  294THF     C3 5752   0.240   0.873   5.269  0.0897  0.0118  0.6107
  294THF     H4 5753   0.487   0.793   5.353  1.2061 -1.3044  2.5277
  294THF     H5 5754   0.449   0.824   5.514  1.1084 -0.1145 -0.7315
  294THF     H6 5755   0.277   0.830   5.176 -2.0711  0.2471 -0.4280
  294THF     H7 5756   0.135   0.867   5.239  0.0272  1.1376  0.5417
  294THF     C8 5757   0.296   1.013   5.284 -0.0729  0.3811 -0.6478
  294THF     C9 5758   0.414   0.996   5.379 -0.4241  0.6510 -0.4195
  294THF    H10 5759   0.236   1.093   5.327  1.2730 -0.9767  4.4403
  294THF    H11 5760   0.342   1.047   5.191  0.2787 -0.0241 -0.6274
  294THF    H12 5761   0.511   1.022   5.337 -0.6922  0.4559 -1.1831
  294THF    H13 5762   0.399   1.060   5.466 -0.5734 -1.5023  1.2105
  295THF     O1 5763   1.528   4.799   0.668 -0.4183 -0.0817  0.0015
  295THF     C2 5764   1.554   4.934   0.626  0.8050  0.0545  0.0935
  295THF     C3 5765   1.577   4.800   0.799  0.5507 -0.7192 -0.3364
  295THF     H4 5766   1.477   4.998   0.669  0.7866 -1.1097  1.8950
  295THF     H5 5767   1.541   4.949   0.519 -2.4981 -0.6390  0.2895
  295THF     H6 5768   1.500   4.829   0.871  0.2940 -0.2053 -0.8131
  295THF     H7 5769   1.618   4.701   0.818  1.2980 -0.6942 -1.7374
  295THF     C8 5770   1.680   4.911   0.818 -0.1515 -0.7945  0.7373
  295THF     C9 5771   1.692   4.970   0.681  0.8151 -0.2968  0.1657
  295THF    H10 5772   1.775   4.870   0.853  0.5160 -0.6704 -0.8568
  295THF    H11 5773   1.637   4.987   0.884 -3.1756  0.0266 -1.9426
  295THF    H12 5774   1.721   5.075   0.688  1.0126 -0.4296  1.5069
  295THF    H13 5775   1.770   4.919   0.625 -1.4451 -0.2731 -3.3590
  296THF     O1 5776   1.381   0.450   4.016 -0.1255  0.1424 -0.2578
  296THF     C2 5777   1.384   0.586   3.976 -0.0642 -0.1513  0.2663
  296THF     C3 5778   1.363   0.446   4.159  1.3745  0.0894  0.9080
  296THF     H4 5779   1.304   0.602   3.904 -1.3546  3.1438  2.1823
  296THF     H5 5780   1.479   0.614   3.929 -0.3145 -1.4155 -1.0349
  296THF     H6 5781   1.256   0.438   4.174  1.6108  0.8805  3.4820
  296THF     H7 5782   1.418   0.360   4.199 -2.6131 -3.6908 -0.8890
  296THF     C8 5783   1.405   0.582   4.213 -0.8820 -0.2758  0.2495
  296THF     C9 5784   1.367   0.677   4.098 -0.6358 -0.7265  0.0683
  296THF    H10 5785   1.513   0.591   4.227 -0.6410 -0.8175 -1.0670
  296THF    H11 5786   1.358   0.609   4.307 -1.4402 -0.1125 -0.0721
  296THF    H12 5787   1.261   0.696   4.113 -0.5585 -1.3327  1.5237
  296THF    H13 5788   1.421   0.771   4.100  1.9336 -2.0523 -1.3797
  297THF     O1 5789   2.921   3.938   4.230  0.5326  0.7119  0.1573
  297THF     C2 5790   2.873   3.933   4.364 -0.2394 -0.4372  0.1355
  297THF     C3 5791   2.807   3.986   4.155  0.2725 -0.0335  0.3353
  297THF     H4 5792   2.858   4.033   4.406  1.4759  0.0405 -0.3025
  297THF     H5 5793   2.948   3.895   4.433  0.6185  0.1707 -0.4356
  297THF     H6 5794   2.798   4.094   4.171 -0.1293  0.2395 -1.5057
  297THF     H7 5795   2.810   3.976   4.047 -0.9180 -1.3066  0.3928
  297THF     C8 5796   2.699   3.902   4.219  0.0495 -0.1356 -0.4572
  297THF     C9 5797   2.736   3.866   4.366 -1.1129 -0.8418  0.3286
  297THF    H10 5798   2.692   3.807   4.166 -0.8732 -0.5303  0.3401
  297THF    H11 5799   2.600   3.948   4.223 -0.8884 -2.0463 -0.5586
  297THF    H12 5800   2.676   3.921   4.437 -2.1096  1.4308 -2.1039
  297THF    H13 5801   2.728   3.758   4.382 -2.2395 -0.5305  2.0997
  298THF     O1 5802   0.384   3.871   1.878  0.4189  0.1587 -0.3269
  298THF     C2 5803   0.492   3.901   1.967 -0.7005 -0.1321 -0.3280
  298THF     C3 5804   0.275   3.850   1.973 -0.3942 -0.3287 -0.5528
  298THF     H4 5805   0.573   3.944   1.909  0.0854 -0.2083  0.6913
  298THF     H5 5806   0.558   3.825   2.007  1.7881  1.5483 -1.0404
  298THF     H6 5807   0.185   3.842   1.911  0.5393 -0.1055 -2.0000
  298THF     H7 5808   0.279   3.760   2.033 -3.2278  0.4348  0.9458
  298THF     C8 5809   0.288   3.974   2.054  0.1840  0.1218 -0.4526
  298THF     C9 5810   0.437   3.993   2.074  0.6825 -0.6356  0.5772
  298THF    H10 5811   0.233   3.963   2.147  0.6825  0.5945 -0.0943
  298THF    H11 5812   0.247   4.062   2.005 -1.7445 -0.4673  0.0317
  298THF    H12 5813   0.450   4.100   2.062 -0.9766 -0.3324  1.1872
  298THF    H13 5814   0.469   3.977   2.177  2.6798 -0.0120  0.0868
  299THF     O1 5815   4.034   4.099   1.564  0.6130 -0.0371 -0.0883
  299THF     C2 5816   3.955   4.210   1.550 -0.1045 -0.3983  0.4310
  299THF     C3 5817   4.086   4.104   1.696  0.5119  0.3555  0.5943
  299THF     H4 5818   3.892   4.204   1.462 -0.1728  0.7296  0.3881
  299THF     H5 5819   4.017   4.298   1.535  0.1240 -0.6031  0.1691
  299THF     H6 5820   4.125   4.006   1.725  0.8852 -0.2773 -1.8426
  299THF     H7 5821   4.158   4.185   1.699  1.3789 -0.3391 -0.5326
  299THF     C8 5822   3.961   4.130   1.776  0.1053 -0.4940  0.7997
  299THF     C9 5823   3.876   4.215   1.681  0.0892  0.0198 -0.4004
  299THF    H10 5824   3.994   4.183   1.865  1.5442 -0.1605  0.0988
  299THF    H11 5825   3.921   4.036   1.815 -0.9977 -0.2149  0.4003
  299THF    H12 5826   3.776   4.172   1.683  0.5180 -1.0583 -0.9883
  299THF    H13 5827   3.885   4.314   1.726  1.4709 -0.5048  0.5544
  300THF     O1 5828   3.487   1.275   4.796 -0.2206 -0.5573  0.3508
  300THF     C2 5829   3.388   1.342   4.718 -0.7846  0.0765 -0.7698
  300THF     C3 5830   3.621   1.315   4.747 -1.1060 -0.3507 -1.1516
  300THF     H4 5831   3.299   1.367   4.776 -1.3249 -1.1875 -1.0210
  300THF     H5 5832   3.360   1.281   4.632 -0.5633  1.0105 -1.5263
  300THF     H6 5833   3.701   1.293   4.818 -1.5522  1.9265  0.1468
  300THF     H7 5834   3.634   1.258   4.655 -0.3103  1.0694 -1.9588
  300THF     C8 5835   3.591   1.463   4.723  0.0009  0.0929 -0.0495
  300THF     C9 5836   3.452   1.474   4.669 -0.4849  0.0128 -0.0314
  300THF    H10 5837   3.647   1.496   4.636 -1.6738 -2.3069 -2.1852
  300THF    H11 5838   3.611   1.516   4.816  2.7045  0.6741 -0.8897
  300THF    H12 5839   3.402   1.555   4.721 -2.8001 -1.9009  0.9063
  300THF    H13 5840   3.452   1.477   4.560 -0.7683 -1.6762 -0.1073
  301THF     O1 5841   0.319   1.521   3.981 -0.2668  0.2318 -0.1420
  301THF     C2 5842   0.280   1.405   3.913  0.2543 -0.2629  0.4447
  301THF     C3 5843   0.212   1.567   4.066 -0.0592  0.5252 -0.1921
  301THF     H4 5844   0.368   1.343   3.925 -0.8809 -1.7180  1.6544
  301THF     H5 5845   0.273   1.429   3.807  0.9492 -0.4205  0.3593
  301THF     H6 5846   0.236   1.628   4.154 -1.2866 -1.9413  1.9731
  301THF     H7 5847   0.142   1.622   4.003  1.2804  1.6977 -0.7202
  301THF     C8 5848   0.146   1.442   4.109 -0.0065  0.0086 -0.2850
  301THF     C9 5849   0.143   1.367   3.981 -0.4781 -0.0872  0.3902
  301THF    H10 5850   0.046   1.461   4.149  0.5179  1.2642  0.4888
  301THF    H11 5851   0.208   1.386   4.179 -0.6553  0.4891  0.7069
  301THF    H12 5852   0.120   1.262   3.998  0.1997 -0.7783 -2.5477
  301THF    H13 5853   0.059   1.404   3.922 -0.0693  2.4203  1.2668
  302THF     O1 5854   3.399   3.640   2.704  0.1507  0.1381  0.1841
  302THF     C2 5855   3.272   3.592   2.656 -0.7998 -0.1714 -0.4579
  302THF     C3 5856   3.379   3.638   2.849 -0.7304  0.0107  0.1730
  302THF     H4 5857   3.267   3.484   2.659  3.3684 -0.4992 -0.5825
  302THF     H5 5858   3.258   3.614   2.550  1.1779 -0.2662 -0.7686
  302THF     H6 5859   3.359   3.542   2.895 -1.0740 -1.6367 -3.1278
  302THF     H7 5860   3.452   3.704   2.897  1.0035 -0.8312 -1.2006
  302THF     C8 5861   3.238   3.703   2.870  0.0187  0.5976  0.2682
  302THF     C9 5862   3.170   3.666   2.736  0.3512 -0.0196 -0.6141
  302THF    H10 5863   3.240   3.810   2.887 -2.1335  0.6674  0.2718
  302THF    H11 5864   3.194   3.667   2.962  0.9737 -1.1714  0.0924
  302THF    H12 5865   3.083   3.603   2.753 -0.0331  0.4757 -0.7375
  302THF    H13 5866   3.137   3.759   2.690 -0.8297  1.4394  2.8618
  303THF     O1 5867   1.919   4.729   3.789 -0.3211  0.3642  0.0445
  303THF     C2 5868   1.967   4.626   3.872  0.2692  0.9201  0.2568
  303THF     C3 5869   1.840   4.680   3.682  0.1847  0.3846 -0.0301
  303THF     H4 5870   1.966   4.648   3.979  0.8213  1.6200  0.1301
  303THF     H5 5871   2.063   4.609   3.823 -0.9786 -1.1145 -1.6612
  303THF     H6 5872   1.749   4.733   3.653 -0.5951  0.3637  2.1660
  303THF     H7 5873   1.903   4.645   3.600  1.4025 -2.9555  2.1117
  303THF     C8 5874   1.797   4.544   3.733 -0.2226 -0.6568  0.0072
  303THF     C9 5875   1.892   4.499   3.843 -0.3365  0.9607  0.6121
  303THF    H10 5876   1.772   4.469   3.657 -0.2689 -1.4649  0.8005
  303THF    H11 5877   1.711   4.551   3.801 -0.4040  1.6895 -0.3768
  303THF    H12 5878   1.845   4.439   3.922  0.3878 -0.6044 -0.1005
  303THF    H13 5879   1.964   4.431   3.798 -0.2595  0.5607  1.3305
  304THF     O1 5880   3.586   1.690   2.841  0.3756  1.1561  0.2735
  304THF     C2 5881   3.537   1.609   2.739 -0.7482  0.7797 -1.3471
  304THF     C3 5882   3.527   1.658   2.963  0.9260 -0.1987 -0.2094
  304THF     H4 5883   3.626   1.583   2.682  1.2499 -0.4063  1.9876
  304THF     H5 5884   3.461   1.665   2.685 -0.9564  3.4703  1.4486
  304THF     H6 5885   3.598   1.672   3.046  0.9207  0.5023 -0.3120
  304THF     H7 5886   3.440   1.721   2.981 -0.7790 -2.3390 -0.5253
  304THF     C8 5887   3.487   1.507   2.955 -0.2726  0.8163 -0.1354
  304THF     C9 5888   3.486   1.478   2.809  0.1395  0.2423  0.6245
  304THF    H10 5889   3.390   1.490   3.002  0.9901  1.3057  2.8888
  304THF    H11 5890   3.566   1.445   2.996 -1.9246 -0.9489  0.5466
  304THF    H12 5891   3.548   1.393   2.782  1.6664  1.8685 -1.2958
  304THF    H13 5892   3.379   1.465   2.792 -0.2549  2.5057  1.0632
  305THF     O1 5893   5.303   0.597   5.293  0.2276  0.1265  0.2845
  305THF     C2 5894   5.268   0.594   5.430 -0.8923  0.4451  0.5169
  305THF     C3 5895   5.397   0.492   5.270  0.5579  0.5236  0.9729
  305THF     H4 5896   5.181   0.660   5.434 -0.9718  0.5951 -1.9944
  305THF     H5 5897   5.348   0.614   5.502 -0.8677  0.7249  0.4143
  305THF     H6 5898   5.411   0.454   5.169 -2.8338 -1.9298  1.2491
  305THF     H7 5899   5.497   0.520   5.302  1.1552  0.7058 -0.9807
  305THF     C8 5900   5.340   0.376   5.352 -0.1236  0.3015  0.9358
  305THF     C9 5901   5.242   0.443   5.446 -0.2984 -0.4795  0.5262
  305THF    H10 5902   5.416   0.316   5.402 -2.0646 -2.7647  0.4637
  305THF    H11 5903   5.299   0.292   5.297  1.7574 -0.1021  0.0590
  305THF    H12 5904   5.149   0.418   5.397  0.0067 -0.9035  0.1616
  305THF    H13 5905   5.254   0.420   5.552 -0.7493  0.4640  0.7999
  306THF     O1 5906   3.926   0.067   4.268 -0.3582  0.3557  0.0093
  306THF     C2 5907   3.976  -0.056   4.221 -0.0489  0.0087  0.5695
  306THF     C3 5908   3.984   0.164   4.188 -0.2838 -0.0623 -0.7784
  306THF     H4 5909   3.914  -0.094   4.140  2.0615 -0.1264 -1.0756
  306THF     H5 5910   3.988  -0.133   4.297  0.7926 -1.0231 -0.5669
  306THF     H6 5911   3.922   0.182   4.100 -4.0476 -1.2238  1.4193
  306THF     H7 5912   3.971   0.261   4.235  1.0896  0.3737 -1.2659
  306THF     C8 5913   4.121   0.114   4.160  0.3550  0.2100  0.6359
  306THF     C9 5914   4.114  -0.037   4.165  0.1078 -0.0808 -0.2155
  306THF    H10 5915   4.191   0.146   4.237 -1.2488  3.6328  0.8389
  306THF    H11 5916   4.160   0.157   4.068  0.1232 -0.9708 -0.0454
  306THF    H12 5917   4.114  -0.077   4.064  2.7160 -1.2421  0.1556
  306THF    H13 5918   4.188  -0.089   4.226 -1.2186 -3.5297 -1.3555
  307THF     O1 5919   2.738   4.990   2.201  0.1502  0.2642  0.0098
  307THF     C2 5920   2.848   5.006   2.284  0.4085  0.1073  0.7018
  307THF     C3 5921   2.684   5.122   2.187 -0.1214 -0.3219 -0.4878
  307THF     H4 5922   2.925   5.055   2.224 -0.4587 -0.5609 -1.0424
  307THF     H5 5923   2.886   4.908   2.315 -0.3544 -0.9728 -1.5632
  307THF     H6 5924   2.729   5.185   2.110 -0.1132 -0.8264 -0.9030
  307THF     H7 5925   2.575   5.117   2.183 -0.1014 -1.3778 -0.0868
  307THF     C8 5926   2.715   5.184   2.319 -0.5289 -0.0219 -0.5440
  307THF     C9 5927   2.785   5.072   2.398 -0.0449  0.1256  0.6851
  307THF    H10 5928   2.628   5.220   2.375  0.8395  0.0661  1.6562
  307THF    H11 5929   2.783   5.267   2.300 -1.3821  0.3395 -2.1499
  307THF    H12 5930   2.853   5.115   2.472  1.0164  2.6733 -1.5780
  307THF    H13 5931   2.718   5.002   2.447 -0.2039  0.7392  1.3756
  308THF     O1 5932   1.933   2.388   2.000  0.0217 -0.2828  0.1064
  308THF     C2 5933   1.984   2.273   2.062 -0.3808 -0.3553 -0.4758
  308THF     C3 5934   1.863   2.466   2.090  0.4018 -0.4290 -0.8775
  308THF     H4 5935   2.092   2.280   2.045 -0.0407 -0.3586  1.4254
  308THF     H5 5936   1.957   2.178   2.016 -4.0724 -0.7963  2.1355
  308THF     H6 5937   1.931   2.548   2.113 -0.7703  0.6920 -1.2589
  308THF     H7 5938   1.772   2.502   2.042 -0.4090 -0.5841  0.4834
  308THF     C8 5939   1.840   2.385   2.217 -0.0639 -0.3121 -0.0550
  308THF     C9 5940   1.957   2.284   2.221  0.9579 -0.0482 -0.2409
  308THF    H10 5941   1.741   2.339   2.212 -0.1056 -0.2616  0.2357
  308THF    H11 5942   1.845   2.455   2.302 -0.8000  2.0769 -1.8543
  308THF    H12 5943   2.049   2.318   2.270  0.0997  0.5950  0.9806
  308THF    H13 5944   1.930   2.186   2.261 -1.9362  0.0710 -1.6677
  309THF     O1 5945   0.227   2.873   4.731 -0.1050  0.3015 -0.4649
  309THF     C2 5946   0.228   2.750   4.795  0.5989  0.4167 -0.1614
  309THF     C3 5947   0.298   2.866   4.609  0.7635  0.2384 -0.5987
  309THF     H4 5948   0.188   2.669   4.734  1.4045  0.4996 -0.8117
  309THF     H5 5949   0.177   2.743   4.891  1.7516 -0.8518  0.3849
  309THF     H6 5950   0.227   2.832   4.534  1.1529  0.3507 -1.0208
  309THF     H7 5951   0.343   2.961   4.579  0.9865  0.8572  1.5449
  309THF     C8 5952   0.420   2.775   4.658  0.3198  1.1483 -0.2686
  309THF     C9 5953   0.373   2.716   4.791 -0.3204  0.0249 -0.5908
  309THF    H10 5954   0.513   2.830   4.670  1.1865  1.0014 -4.6027
  309THF    H11 5955   0.441   2.696   4.586 -1.1891 -0.6600  1.1672
  309THF    H12 5956   0.401   2.611   4.793 -1.4918 -0.3748 -2.3854
  309THF    H13 5957   0.413   2.761   4.882 -1.6230  0.3175 -0.1502
  310THF     O1 5958   0.307   4.966   0.765 -0.8041 -0.2916 -0.0003
  310THF     C2 5959   0.226   5.062   0.822  0.5586 -0.8208 -0.3720
  310THF     C3 5960   0.387   4.907   0.869  0.8009 -0.4585  0.6305
  310THF     H4 5961   0.137   5.093   0.767 -0.8837 -2.0739  1.1417
  310THF     H5 5962   0.289   5.150   0.837  0.4466 -0.6546 -0.8777
  310THF     H6 5963   0.394   4.800   0.845  2.0775 -0.7651  2.2257
  310THF     H7 5964   0.483   4.958   0.875  0.5007  0.4271 -1.2933
  310THF     C8 5965   0.308   4.927   1.002 -0.1780  0.8367 -0.2460
  310THF     C9 5966   0.182   4.996   0.951 -0.4173  0.5467  0.0134
  310THF    H10 5967   0.367   4.980   1.076  0.9867  0.4842 -0.8901
  310THF    H11 5968   0.276   4.840   1.060  0.3796  0.8422  0.0758
  310THF    H12 5969   0.119   4.913   0.920  0.3885 -0.0020 -0.2185
  310THF    H13 5970   0.137   5.055   1.030  1.3391 -1.8539  3.0241
  311THF     O1 5971   3.149   0.048   5.451  0.3698  0.4017  0.3480
  311THF     C2 5972   3.258   0.008   5.527  0.3651 -0.1522 -0.1039
  311THF     C3 5973   3.096  -0.056   5.376  0.1943 -0.1041 -0.0398
  311THF     H4 5974   3.251   0.057   5.625  0.5533 -0.9903  0.3340
  311THF     H5 5975   3.353   0.039   5.483  0.9736 -1.3548  0.3302
  311THF     H6 5976   2.994  -0.031   5.348  0.2146  1.0322  0.8388
  311THF     H7 5977   3.162  -0.068   5.289  0.9361  3.5733 -0.1319
  311THF     C8 5978   3.112  -0.175   5.474 -0.0934 -0.8049 -0.2163
  311THF     C9 5979   3.246  -0.141   5.544  0.7406  0.2507  0.2086
  311THF    H10 5980   3.113  -0.270   5.420 -1.0323  0.7141 -3.0401
  311THF    H11 5981   3.032  -0.171   5.549  0.0880  0.8003 -0.0720
  311THF    H12 5982   3.269  -0.167   5.647 -1.7107 -1.4313  0.4142
  311THF    H13 5983   3.322  -0.180   5.476  0.5507 -1.0275  0.7151
  312THF     O1 5984   2.887   1.577   5.260  0.2885  0.7934  0.4942
  312THF     C2 5985   3.010   1.632   5.233  0.9580  0.0057 -0.1915
  312THF     C3 5986   2.891   1.436   5.260  0.0772 -0.4860 -0.2032
  312THF     H4 5987   2.999   1.727   5.284 -1.5604 -0.4682  0.2718
  312THF     H5 5988   3.014   1.664   5.128  1.6705 -1.0302 -0.5016
  312THF     H6 5989   2.814   1.382   5.315  1.5050 -0.3852  2.0222
  312THF     H7 5990   2.885   1.410   5.154 -2.1648  3.5749 -1.3005
  312THF     C8 5991   3.024   1.412   5.329 -0.2448  0.0553  0.8538
  312THF     C9 5992   3.111   1.536   5.283  0.4747  0.0732  0.3336
  312THF    H10 5993   3.050   1.309   5.304 -1.1179 -0.5197  2.1899
  312THF    H11 5994   3.023   1.430   5.437  1.1654  0.9530  0.7457
  312THF    H12 5995   3.158   1.581   5.370  0.8113  0.9253 -0.2683
  312THF    H13 5996   3.194   1.511   5.216  1.8883  1.8333  1.3366
  313THF     O1 5997   4.359   3.330   4.401 -0.2353  0.4306 -0.3080
  313THF     C2 5998   4.228   3.381   4.406 -0.4638  0.4613 -0.9071
  313THF     C3 5999   4.359   3.191   4.426 -0.7712  0.0788  0.4570
  313THF     H4 6000   4.182   3.380   4.307 -1.0210  0.2236 -0.6500
  313THF     H5 6001   4.240   3.482   4.446 -1.0147  0.0601  0.3151
  313THF     H6 6002   4.364   3.151   4.325 -0.8447 -0.6602  0.7373
  313THF     H7 6003   4.443   3.152   4.483 -0.2047 -2.3515 -1.8439
  313THF     C8 6004   4.218   3.155   4.477 -0.1741  0.0167  0.3386
  313THF     C9 6005   4.157   3.287   4.505 -0.4232 -0.1335  0.9220
  313THF    H10 6006   4.219   3.089   4.564  3.1086  1.7750  1.8234
  313THF    H11 6007   4.174   3.106   4.390  1.2767 -1.1280  0.2032
  313THF    H12 6008   4.050   3.290   4.484 -0.3371 -1.4868  0.1338
  313THF    H13 6009   4.189   3.321   4.603  0.6634  0.9417  0.2265
  314THF     O1 6010   4.603   0.739   0.402  0.0259 -0.5356 -0.2967
  314THF     C2 6011   4.736   0.742   0.456  0.6015 -0.4291  0.0325
  314THF     C3 6012   4.534   0.859   0.446  0.4964  0.2123  0.0905
  314THF     H4 6013   4.795   0.674   0.394 -0.8635  0.0811 -2.0092
  314THF     H5 6014   4.735   0.710   0.560 -0.9852  1.1043  0.5364
  314THF     H6 6015   4.450   0.883   0.380 -0.3524 -0.3988  0.9187
  314THF     H7 6016   4.490   0.835   0.543 -1.9062  1.2645 -0.6736
  314THF     C8 6017   4.642   0.958   0.454 -0.1614  0.1186 -0.1391
  314THF     C9 6018   4.773   0.884   0.426 -0.6746 -0.1180  0.0378
  314THF    H10 6019   4.649   0.999   0.555 -1.2542 -0.4231  0.1676
  314THF    H11 6020   4.636   1.026   0.370  0.3337 -0.4671 -0.6560
  314THF    H12 6021   4.799   0.882   0.320 -0.5481  1.6420  0.0127
  314THF    H13 6022   4.860   0.915   0.483 -0.3540 -1.2574  0.1939
  315THF     O1 6023   3.814   1.950   4.891  0.7925 -0.2377 -0.2066
  315THF     C2 6024   3.763   1.816   4.887  0.1918 -0.1391  0.8719
  315THF     C3 6025   3.887   1.963   5.004  0.5452  0.6311 -0.4452
  315THF     H4 6026   3.792   1.779   4.788  2.0717  0.5618  1.1095
  315THF     H5 6027   3.655   1.808   4.895 -0.1538  0.2205 -2.2588
  315THF     H6 6028   3.962   2.041   4.992  1.1303 -0.1058 -1.8540
  315THF     H7 6029   3.812   1.996   5.075  1.5730  1.6158  0.2190
  315THF     C8 6030   3.945   1.830   5.035  0.3441  0.5695  0.2058
  315THF     C9 6031   3.841   1.737   4.994  0.5554  0.2683  0.0516
  315THF    H10 6032   3.967   1.826   5.142 -0.4176 -2.6936  0.3290
  315THF    H11 6033   4.035   1.819   4.974  0.5059  0.7652  0.4055
  315THF    H12 6034   3.888   1.641   4.973  1.4289  0.5818  0.5285
  315THF    H13 6035   3.784   1.728   5.087  0.3259  1.4841  0.0494
  316THF     O1 6036   3.878   2.244   1.398  0.4920 -0.0700  0.5573
  316THF     C2 6037   3.842   2.376   1.422  0.8360 -0.8023  0.8410
  316THF     C3 6038   3.782   2.191   1.308  0.0945 -0.0425  0.2338
  316THF     H4 6039   3.859   2.441   1.336  0.5381 -1.5243  0.2197
  316THF     H5 6040   3.893   2.417   1.509 -0.8065 -1.2582  2.0785
  316THF     H6 6041   3.807   2.238   1.213  2.8059  2.0324  1.8313
  316THF     H7 6042   3.805   2.085   1.307 -1.2911 -0.3622 -0.3220
  316THF     C8 6043   3.648   2.233   1.354  0.4793 -0.0722  0.5711
  316THF     C9 6044   3.687   2.352   1.446  0.4668 -0.9370  0.5711
  316THF    H10 6045   3.605   2.149   1.408 -0.7665  1.1785  1.6097
  316THF    H11 6046   3.577   2.248   1.273  0.5955  0.9786  0.6399
  316THF    H12 6047   3.622   2.428   1.402 -0.3052 -2.2976 -0.7455
  316THF    H13 6048   3.656   2.335   1.549 -0.5642 -1.8702  0.1283
  317THF     O1 6049   3.588   1.396   5.327 -0.0199 -0.2509 -0.0457
  317THF     C2 6050   3.462   1.401   5.280 -0.0202 -0.0906 -0.2118
  317THF     C3 6051   3.679   1.423   5.225  0.2432 -0.0827 -0.0876
  317THF     H4 6052   3.409   1.488   5.317 -1.8082 -0.5123 -1.6088
  317THF     H5 6053   3.400   1.320   5.319  1.6963 -1.2445  0.2343
  317THF     H6 6054   3.707   1.527   5.208 -0.3097 -0.0383 -0.8119
  317THF     H7 6055   3.776   1.374   5.231 -0.0205 -0.4512  1.3623
  317THF     C8 6056   3.616   1.355   5.097  0.8032 -0.5635  0.0186
  317THF     C9 6057   3.466   1.385   5.130 -0.5358  0.0003 -0.3441
  317THF    H10 6058   3.645   1.250   5.106  1.4108 -0.2606  2.2096
  317THF    H11 6059   3.655   1.396   5.004 -0.5474  1.4742  0.2983
  317THF    H12 6060   3.439   1.481   5.086 -1.1830 -1.1330 -2.5613
  317THF    H13 6061   3.402   1.309   5.086  0.2357 -1.2370  0.6108
  318THF     O1 6062   4.486   1.483   4.458  0.7100 -0.2040 -0.4976
  318THF     C2 6063   4.548   1.399   4.548 -0.4374 -0.2140 -0.1850
  318THF     C3 6064   4.378   1.405   4.407  0.1895  0.6524  0.3586
  318THF     H4 6065   4.622   1.455   4.605 -0.9780  1.2283 -0.8298
  318THF     H5 6066   4.607   1.325   4.494  1.4146  1.3742 -0.4539
  318THF     H6 6067   4.314   1.469   4.346  1.3395  1.3617 -0.1448
  318THF     H7 6068   4.423   1.337   4.334 -0.8823  0.8302 -0.5006
  318THF     C8 6069   4.317   1.335   4.522 -0.0176 -0.1767 -0.0973
  318THF     C9 6070   4.429   1.342   4.629  0.7327  0.4318 -0.7986
  318THF    H10 6071   4.281   1.235   4.497 -0.6227 -0.3879  1.4847
  318THF    H11 6072   4.223   1.372   4.564  0.0936 -2.3679  2.3274
  318THF    H12 6073   4.412   1.413   4.710  0.7577 -1.2008  0.7248
  318THF    H13 6074   4.456   1.249   4.679 -0.8647 -0.0097 -0.6924
  319THF     O1 6075   0.970   3.278   4.117 -0.6319 -0.0789 -0.0467
  319THF     C2 6076   0.990   3.291   4.257 -0.0362 -0.0144  0.8920
  319THF     C3 6077   1.034   3.380   4.045 -0.6958  0.9945  0.2930
  319THF     H4 6078   1.079   3.237   4.290 -0.4362 -1.1535  0.1826
  319THF     H5 6079   0.915   3.251   4.325  0.0929 -0.8145  0.5698
  319THF     H6 6080   1.138   3.353   4.027 -0.9233  1.3514 -1.8948
  319THF     H7 6081   0.966   3.385   3.960 -3.9167 -0.7663  2.5400
  319THF     C8 6082   1.013   3.499   4.130 -0.4711 -0.3710 -0.3096
  319THF     C9 6083   1.008   3.444   4.268 -0.2560 -0.5252 -0.5052
  319THF    H10 6084   0.916   3.541   4.104 -0.5076  0.0727  0.5090
  319THF    H11 6085   1.090   3.574   4.109  0.5340 -0.8109  1.5821
  319THF    H12 6086   1.109   3.455   4.308 -0.6771  0.6444  0.2871
  319THF    H13 6087   0.930   3.491   4.328 -2.7994 -3.9059 -0.8297
  320THF     O1 6088   0.614   1.026   3.600 -0.2177  0.1517 -0.2285
  320THF     C2 6089   0.526   0.962   3.511 -0.2953 -1.1609 -0.0960
  320THF     C3 6090   0.632   1.162   3.557  0.4685  0.0024 -0.3996
  320THF     H4 6091   0.475   0.880   3.560  0.7376 -2.0231 -0.4068
  320THF     H5 6092   0.589   0.928   3.428 -0.2377  2.3965 -1.7019
  320THF     H6 6093   0.658   1.220   3.645 -0.9185  0.7704 -0.4804
  320THF     H7 6094   0.712   1.159   3.482  0.8576  1.0751 -0.0384
  320THF     C8 6095   0.497   1.200   3.497 -0.5109  0.4173  0.8435
  320THF     C9 6096   0.432   1.066   3.456 -0.3523 -0.2937 -0.5077
  320THF    H10 6097   0.517   1.268   3.414  2.6877 -1.5548 -0.1915
  320THF    H11 6098   0.450   1.259   3.575 -0.1094  0.6815  0.8901
  320THF    H12 6099   0.330   1.051   3.494  0.0141  1.4298  1.3377
  320THF    H13 6100   0.427   1.059   3.347  1.3950 -1.6194 -0.5361
  321THF     O1 6101   4.003   2.670   3.423  0.3367 -0.1573  0.4732
  321THF     C2 6102   3.899   2.752   3.469  0.2667  0.1134  0.4668
  321THF     C3 6103   4.081   2.656   3.534 -0.3027  0.0938  0.4835
  321THF     H4 6104   3.829   2.691   3.527  0.6278  0.1560  0.9426
  321THF     H5 6105   3.833   2.778   3.386 -0.4191 -2.1952  0.1909
  321THF     H6 6106   4.039   2.585   3.605 -0.6213 -3.3348 -2.7946
  321THF     H7 6107   4.173   2.610   3.499 -0.8033  1.1993 -2.7213
  321THF     C8 6108   4.100   2.802   3.582 -0.3102  0.3043 -0.3120
  321THF     C9 6109   3.969   2.867   3.553  0.6222  0.1600  0.1933
  321THF    H10 6110   4.183   2.841   3.523  0.7109 -0.6997  0.4493
  321THF    H11 6111   4.123   2.802   3.688 -0.3076 -0.4208 -0.3123
  321THF    H12 6112   3.905   2.892   3.638 -0.9263 -1.8642 -0.2982
  321THF    H13 6113   3.979   2.958   3.493 -2.1264  0.2975 -0.2019
  322THF     O1 6114   1.880   4.268   0.416 -0.0086 -0.0343 -0.4027
  322THF     C2 6115   1.762   4.201   0.458  0.2025  1.0281  0.5324
  322THF     C3 6116   1.902   4.369   0.509 -0.8457  0.8172 -0.2683
  322THF     H4 6117   1.783   4.096   0.479  1.0674  1.5784  2.6237
  322THF     H5 6118   1.691   4.204   0.375  0.9705  0.1622 -0.1844
  322THF     H6 6119   2.010   4.386   0.511  0.1205 -3.6983 -1.7384
  322THF     H7 6120   1.860   4.464   0.477  0.3819  0.4448 -3.3185
  322THF     C8 6121   1.829   4.330   0.638  0.2651 -0.1690 -0.8209
  322THF     C9 6122   1.708   4.254   0.584 -0.6310  0.2014 -0.7633
  322THF    H10 6123   1.799   4.411   0.704  0.1585  0.0103 -1.0911
  322THF    H11 6124   1.884   4.256   0.697 -0.1117 -0.6963 -1.1257
  322THF    H12 6125   1.684   4.174   0.655 -1.0537 -0.7733 -1.9554
  322THF    H13 6126   1.618   4.314   0.569  0.3323  2.3475  1.4482
  323THF     O1 6127   0.552   2.775   1.310  0.7348  0.2473 -0.3527
  323THF     C2 6128   0.561   2.636   1.342  0.0925  0.0145  0.1982
  323THF     C3 6129   0.433   2.794   1.235  0.0170 -0.6325  0.2749
  323THF     H4 6130   0.551   2.624   1.450 -0.5973 -0.7619  0.0602
  323THF     H5 6131   0.660   2.597   1.321  0.2997  0.6944 -0.1149
  323THF     H6 6132   0.347   2.802   1.301 -0.3614  1.7073 -0.4062
  323THF     H7 6133   0.437   2.878   1.165  0.2323 -1.0116 -0.1754
  323THF     C8 6134   0.417   2.673   1.153 -0.0282 -0.2148  0.1219
  323THF     C9 6135   0.456   2.566   1.255  0.6338  0.9587 -0.0229
  323THF    H10 6136   0.479   2.673   1.064  0.5385  0.5712  0.5023
  323THF    H11 6137   0.316   2.658   1.116 -0.8521 -0.6261  2.3994
  323THF    H12 6138   0.365   2.549   1.311 -0.0218 -0.0999 -1.3651
  323THF    H13 6139   0.482   2.475   1.201 -0.6853  0.1545  0.6682
  324THF     O1 6140   0.507   3.715   2.985 -0.2146 -0.1731 -0.1118
  324THF     C2 6141   0.609   3.647   2.916  0.1729 -0.4688  0.1487
  324THF     C3 6142   0.520   3.856   2.958 -0.1569 -0.3688  0.6303
  324THF     H4 6143   0.577   3.543   2.909 -0.2437 -0.2497 -2.0423
  324THF     H5 6144   0.698   3.663   2.978 -0.0437  0.5239  0.2222
  324THF     H6 6145   0.419   3.899   2.953  0.2726  0.5534 -2.5878
  324THF     H7 6146   0.570   3.906   3.041 -0.0770  2.0704 -0.7793
  324THF     C8 6147   0.599   3.864   2.827  0.2985  0.1558 -0.7550
  324THF     C9 6148   0.605   3.723   2.782 -0.2777 -0.2601 -0.7787
  324THF    H10 6149   0.700   3.900   2.850  0.0380 -0.9190  2.6390
  324THF    H11 6150   0.543   3.931   2.762 -3.0625 -0.4550  1.2514
  324THF    H12 6151   0.524   3.694   2.715 -0.5954 -1.7050  0.1828
  324THF    H13 6152   0.697   3.722   2.723  0.8971  0.7972  0.9443
  325THF     O1 6153   4.266   4.791   4.781 -0.1082  0.0769  0.2117
  325THF     C2 6154   4.340   4.792   4.902 -0.1152 -0.5923 -0.1948
  325THF     C3 6155   4.177   4.903   4.775 -0.2684 -1.0112 -0.5425
  325THF     H4 6156   4.444   4.761   4.887  0.1147  0.7042 -1.5667
  325THF     H5 6157   4.294   4.739   4.985 -2.1973  0.4917 -0.5944
  325THF     H6 6158   4.159   4.928   4.671  1.3957  1.1577 -0.3849
  325THF     H7 6159   4.087   4.887   4.835 -0.6435  0.3892 -0.7020
  325THF     C8 6160   4.263   5.013   4.843 -0.0133 -0.3680  0.1561
  325THF     C9 6161   4.345   4.940   4.946  0.7883 -0.0965  0.8111
  325THF    H10 6162   4.194   5.082   4.891 -0.8449 -2.2165  1.7394
  325THF    H11 6163   4.330   5.065   4.774  1.0432 -0.9797  0.7003
  325THF    H12 6164   4.443   4.987   4.961  1.4560 -1.5569  1.2557
  325THF    H13 6165   4.279   4.949   5.033 -0.5390  0.8091 -0.2542
  326THF     O1 6166   1.429   3.616   3.310  0.7032  0.3296  0.1644
  326THF     C2 6167   1.540   3.627   3.215 -0.1341  0.0011  0.2672
  326THF     C3 6168   1.332   3.526   3.254 -0.0833  0.6225  0.1715
  326THF     H4 6169   1.639   3.638   3.258  0.7493 -0.2972 -1.5807
  326THF     H5 6170   1.512   3.698   3.137 -0.9605 -0.0812  0.4737
  326THF     H6 6171   1.262   3.490   3.329  0.0336  2.3193  1.1306
  326THF     H7 6172   1.269   3.574   3.178 -0.6320 -1.6448 -0.8999
  326THF     C8 6173   1.414   3.417   3.188 -0.0943 -0.3652 -0.1844
  326THF     C9 6174   1.540   3.487   3.147 -0.8102 -0.2249 -0.5652
  326THF    H10 6175   1.360   3.366   3.109 -0.0866 -0.1430 -0.3325
  326THF    H11 6176   1.439   3.347   3.268 -1.0707  0.8051  1.1937
  326THF    H12 6177   1.612   3.414   3.183 -0.8119  0.3003  0.5250
  326THF    H13 6178   1.551   3.484   3.038 -0.3180 -3.5311 -0.5125
  327THF     O1 6179   0.195   2.943   2.419  0.0834 -0.9697  0.3380
  327THF     C2 6180   0.067   2.918   2.359 -0.4446 -0.4265 -0.1489
  327THF     C3 6181   0.192   3.083   2.449  0.6328  0.3665 -0.5201
  327THF     H4 6182   0.045   2.812   2.368  1.3235 -0.7772  0.7039
  327THF     H5 6183   0.059   2.935   2.252 -1.4789 -0.8080 -0.1358
  327THF     H6 6184   0.268   3.115   2.521  1.0862 -1.7373  0.0191
  327THF     H7 6185   0.213   3.138   2.358  2.4029 -2.5847 -2.0393
  327THF     C8 6186   0.050   3.112   2.495  0.6251 -0.3633 -0.0294
  327THF     C9 6187  -0.037   2.997   2.438  0.2128 -0.5393  0.1637
  327THF    H10 6188   0.023   3.206   2.447 -1.2223 -0.2281  1.1831
  327THF    H11 6189   0.033   3.110   2.603  1.1573  1.3458  0.1131
  327THF    H12 6190  -0.085   2.944   2.521 -0.0562 -1.8860 -0.8079
  327THF    H13 6191  -0.122   3.040   2.385  0.7892 -0.8850 -1.0841
  328THF     O1 6192   0.823   0.594   2.905  0.5223 -0.7963  0.1164
  328THF     C2 6193   0.753   0.485   2.838  0.1329 -0.4632 -0.2961
  328THF     C3 6194   0.920   0.534   2.988 -0.3982 -0.2633 -1.1551
  328THF     H4 6195   0.695   0.519   2.752  1.1069  0.1874 -0.7132
  328THF     H5 6196   0.680   0.440   2.906 -0.2666  1.8411  0.9024
  328THF     H6 6197   0.993   0.611   3.015 -1.7566  0.6766 -0.0110
  328THF     H7 6198   0.873   0.488   3.074  1.1183  1.2917  0.5942
  328THF     C8 6199   0.988   0.436   2.894  0.6623 -0.5347 -0.0772
  328THF     C9 6200   0.873   0.396   2.806  0.0700  0.6180 -0.1765
  328THF    H10 6201   1.033   0.348   2.940  0.6611 -0.2166  0.5567
  328THF    H11 6202   1.071   0.483   2.841  0.6822 -0.2765  0.1788
  328THF    H12 6203   0.901   0.413   2.702 -0.7825 -0.5076 -0.6141
  328THF    H13 6204   0.847   0.293   2.827 -1.5051  1.2614  1.2907
  329THF     O1 6205   0.562   4.780   3.030  0.3270  0.2890  0.6923
  329THF     C2 6206   0.590   4.914   2.988  0.0454  0.0800  0.0086
  329THF     C3 6207   0.683   4.714   3.077 -0.5223 -0.1470  0.5587
  329THF     H4 6208   0.605   4.977   3.075  0.2354  1.4301 -0.9747
  329THF     H5 6209   0.497   4.946   2.943 -0.8083 -0.3133  1.4282
  329THF     H6 6210   0.702   4.714   3.185  0.8646  1.8181  0.3765
  329THF     H7 6211   0.681   4.612   3.040  3.5162 -0.0891 -0.2582
  329THF     C8 6212   0.796   4.793   3.003 -0.6682 -0.4272 -0.1205
  329THF     C9 6213   0.717   4.886   2.898  0.5300  0.1815 -0.4552
  329THF    H10 6214   0.865   4.729   2.948  0.8636  0.2967  0.8685
  329THF    H11 6215   0.858   4.850   3.073  1.4195 -0.9874 -1.4039
  329THF    H12 6216   0.779   4.975   2.887  0.6076  0.4650  1.8829
  329THF    H13 6217   0.700   4.831   2.805  1.7791 -0.8970 -0.0777
  330THF     O1 6218   4.912   2.335   2.197 -0.3404 -0.0219  0.3015
  330THF     C2 6219   4.804   2.325   2.286  0.4178  0.2406 -0.0172
  330THF     C3 6220   4.980   2.215   2.186 -0.1575 -0.3782 -0.8260
  330THF     H4 6221   4.721   2.273   2.239 -0.6722  2.1772 -0.3620
  330THF     H5 6222   4.778   2.430   2.303  0.3408  0.2324 -0.0821
  330THF     H6 6223   4.933   2.139   2.123  0.8864 -1.2107 -0.6386
  330THF     H7 6224   5.082   2.229   2.150 -0.2020  0.4547 -0.6482
  330THF     C8 6225   4.973   2.162   2.326 -0.3485  0.7826  0.5779
  330THF     C9 6226   4.868   2.244   2.401  0.4899  0.7814  0.1891
  330THF    H10 6227   5.072   2.175   2.371 -0.0225  0.1322  0.0888
  330THF    H11 6228   4.954   2.055   2.330  2.7699  0.0773 -0.3341
  330THF    H12 6229   4.786   2.182   2.439 -1.0106  1.4264 -1.8215
  330THF    H13 6230   4.920   2.301   2.478 -0.8627 -0.8161  2.4432
  331THF     O1 6231   2.179   4.543   2.072 -0.5903  0.2354  0.2802
  331THF     C2 6232   2.054   4.566   2.006 -0.2999 -0.0402 -0.1758
  331THF     C3 6233   2.252   4.436   2.016 -0.4593  0.1318  0.5881
  331THF     H4 6234   2.064   4.623   1.914  0.4941  0.4129  0.1825
  331THF     H5 6235   1.975   4.615   2.063 -3.6461 -1.9493 -2.7946
  331THF     H6 6236   2.285   4.453   1.914  3.4275 -0.7393  1.5410
  331THF     H7 6237   2.333   4.391   2.072 -0.6262  0.7605  1.3614
  331THF     C8 6238   2.135   4.338   2.012 -0.4825  0.1030 -0.1698
  331THF     C9 6239   2.012   4.420   1.980 -0.5475 -0.7460 -0.1742
  331THF    H10 6240   2.120   4.298   2.112  0.0139  3.2108  1.2828
  331THF    H11 6241   2.135   4.258   1.938 -0.5047 -0.2332  0.1856
  331THF    H12 6242   1.965   4.408   1.882 -1.0008 -0.7828  0.0483
  331THF    H13 6243   1.943   4.399   2.061 -0.0837  0.3812  0.5288
  332THF     O1 6244   1.545   2.505   5.370  0.6691  0.0112 -0.2886
  332THF     C2 6245   1.480   2.446   5.260  1.1183  0.2888 -0.5078
  332THF     C3 6246   1.651   2.574   5.317 -0.1101  0.2011 -0.1729
  332THF     H4 6247   1.377   2.411   5.268  1.0618  0.5452 -0.1498
  332THF     H5 6248   1.546   2.368   5.222  1.7935  0.4105  0.3827
  332THF     H6 6249   1.684   2.649   5.390 -2.0806 -0.2881  1.3127
  332THF     H7 6250   1.738   2.517   5.285 -0.5160 -0.7654  0.4048
  332THF     C8 6251   1.586   2.644   5.203 -0.0474 -0.3970 -1.0291
  332THF     C9 6252   1.474   2.555   5.148 -0.3912  0.1155 -0.4304
  332THF    H10 6253   1.661   2.663   5.127  1.9395 -2.5055  0.3076
  332THF    H11 6254   1.555   2.746   5.228 -0.9063 -0.9972  0.4740
  332THF    H12 6255   1.382   2.609   5.127 -0.2970  0.3854 -0.1689
  332THF    H13 6256   1.507   2.504   5.057 -1.4412 -0.6636 -0.3843
  333THF     O1 6257   3.548   4.301   2.023  0.7088 -0.3256  0.1854
  333THF     C2 6258   3.666   4.367   2.069  0.2042 -0.4767  0.2739
  333THF     C3 6259   3.448   4.322   2.118  0.3170  0.1251  0.1490
  333THF     H4 6260   3.662   4.470   2.034  3.2067 -0.4003 -0.1803
  333THF     H5 6261   3.764   4.327   2.041  0.4551  0.1544  0.2285
  333THF     H6 6262   3.384   4.397   2.071 -1.1329 -1.2483 -0.1615
  333THF     H7 6263   3.384   4.237   2.140  1.1082 -0.3319  0.7499
  333THF     C8 6264   3.507   4.373   2.245 -1.0566 -0.0990  0.2612
  333THF     C9 6265   3.656   4.375   2.222 -0.0207  0.1630 -0.5302
  333THF    H10 6266   3.483   4.307   2.327 -0.4075  1.6413  1.9296
  333THF    H11 6267   3.466   4.471   2.272  3.2519  2.1071 -0.2419
  333THF    H12 6268   3.701   4.464   2.266 -2.1184  1.1349 -0.2357
  333THF    H13 6269   3.705   4.286   2.262 -3.4260 -1.5634  0.1465
  334THF     O1 6270   3.218   2.278   1.981 -0.7132 -0.3267  0.0472
  334THF     C2 6271   3.093   2.348   1.988  0.1075 -0.1048  0.4795
  334THF     C3 6272   3.208   2.157   1.898  0.0029 -0.3732 -0.2834
  334THF     H4 6273   3.057   2.409   1.906 -0.7581  1.1758  1.7553
  334THF     H5 6274   3.089   2.414   2.075  0.1732  0.5963 -0.0419
  334THF     H6 6275   3.195   2.189   1.795  0.4630 -0.3995 -0.3522
  334THF     H7 6276   3.287   2.084   1.919  1.4458  1.0902 -0.4198
  334THF     C8 6277   3.071   2.101   1.941  0.0107 -0.0215  0.2025
  334THF     C9 6278   3.010   2.221   2.024  0.1818  0.2088  0.6551
  334THF    H10 6279   3.088   2.015   2.006  0.3635  0.0842  0.2525
  334THF    H11 6280   3.014   2.065   1.855 -0.0839 -0.4042  0.4213
  334THF    H12 6281   2.903   2.236   2.009  0.5051  0.7083 -1.5065
  334THF    H13 6282   3.020   2.179   2.124 -1.8029  0.2422  0.9084
  335THF     O1 6283   3.118   4.750   3.909 -0.1125 -0.1235 -0.4716
  335THF     C2 6284   3.250   4.741   3.861 -0.0611  1.1445 -0.3403
  335THF     C3 6285   3.061   4.627   3.876  0.1113 -0.4051  0.3131
  335THF     H4 6286   3.306   4.681   3.934 -0.4960 -0.7397 -1.4826
  335THF     H5 6287   3.311   4.832   3.864 -1.6691  2.2374  1.2270
  335THF     H6 6288   3.095   4.557   3.952  1.6367 -0.3205 -0.2444
  335THF     H7 6289   2.954   4.641   3.886  0.2446  1.7634 -0.7857
  335THF     C8 6290   3.101   4.614   3.737 -0.4443  0.1116 -0.0816
  335THF     C9 6291   3.240   4.662   3.728  0.4873  0.3491  0.4814
  335THF    H10 6292   3.035   4.682   3.683  0.1737  0.3720 -0.5308
  335THF    H11 6293   3.085   4.520   3.684  0.7510 -0.5496  0.6753
  335THF    H12 6294   3.308   4.577   3.726 -0.3266 -0.3039  0.0997
  335THF    H13 6295   3.254   4.729   3.643 -1.0613  0.7027  0.4811
  336THF     O1 6296   0.148   1.008   0.872  0.4179 -0.0294  0.4683
  336THF     C2 6297   0.250   1.096   0.834  0.1450  0.1726 -0.2273
  336THF     C3 6298   0.200   0.884   0.912 -0.2451  0.5290 -0.1333
  336THF     H4 6299   0.208   1.196   0.844  0.6030  0.2783  0.8355
  336THF     H5 6300   0.279   1.072   0.732  0.5403  0.8611 -0.2869
  336THF     H6 6301   0.178   0.864   1.016 -0.8166 -1.0109 -0.5168
  336THF     H7 6302   0.148   0.808   0.852  1.8860  0.9608 -2.7374
  336THF     C8 6303   0.350   0.902   0.914 -0.5845 -0.1634 -0.4208
  336THF     C9 6304   0.353   1.054   0.937 -0.2716  0.1772  0.4525
  336THF    H10 6305   0.391   0.861   0.822  0.2480  0.6581 -0.4357
  336THF    H11 6306   0.391   0.860   1.005 -1.0258  1.7529  0.7246
  336THF    H12 6307   0.323   1.076   1.039 -1.5617  0.3568  0.0484
  336THF    H13 6308   0.452   1.094   0.915 -1.2697  1.7148 -1.6188
  337THF     O1 6309   1.303   4.827   5.073  0.3011 -0.1538 -0.1151
  337THF     C2 6310   1.283   4.733   4.969  0.0917  0.0273 -0.0516
  337THF     C3 6311   1.444   4.861   5.073 -0.2380  0.4170 -0.0794
  337THF     H4 6312   1.299   4.785   4.874 -0.6425 -0.2281 -0.3205
  337THF     H5 6313   1.187   4.689   4.995  0.0621 -0.2919 -0.6879
  337THF     H6 6314   1.481   4.931   4.998  0.4039  0.1146 -0.0457
  337THF     H7 6315   1.463   4.911   5.168 -1.7553  2.4506 -0.7661
  337THF     C8 6316   1.510   4.722   5.043  0.7359 -1.0286 -0.0017
  337THF     C9 6317   1.401   4.639   4.981  0.3832  0.7191  0.6273
  337THF    H10 6318   1.535   4.679   5.140  1.7060  2.0972  1.2492
  337THF    H11 6319   1.602   4.718   4.984  0.0166 -0.5676 -1.1974
  337THF    H12 6320   1.435   4.608   4.882  1.2160  0.1934  1.0666
  337THF    H13 6321   1.368   4.547   5.028 -1.7622  0.9032 -0.3931
  338THF     O1 6322   4.049   2.366   0.757  0.1874  0.6426 -0.0809
  338THF     C2 6323   4.128   2.401   0.646  0.2256  0.2842  0.4702
  338THF     C3 6324   3.925   2.432   0.757  0.0836 -0.1849 -0.8594
  338THF     H4 6325   4.096   2.347   0.557 -1.0142 -0.2802  1.2278
  338THF     H5 6326   4.231   2.376   0.668  0.5302  2.3371  1.7105
  338THF     H6 6327   3.854   2.391   0.685  1.1920  0.0003 -2.1017
  338THF     H7 6328   3.878   2.428   0.855  0.0657  2.4612 -0.6748
  338THF     C8 6329   3.971   2.576   0.714 -0.5611 -0.0890 -0.2001
  338THF     C9 6330   4.108   2.552   0.636  0.6402  0.0368 -0.5933
  338THF    H10 6331   3.991   2.647   0.794  0.7149  0.5538 -1.0555
  338THF    H11 6332   3.888   2.623   0.662 -1.7381 -0.1644  1.5131
  338THF    H12 6333   4.123   2.588   0.534  0.0586 -0.2672 -0.7877
  338THF    H13 6334   4.182   2.600   0.701 -0.8259  1.9193 -0.2209
  339THF     O1 6335   3.514   4.914   2.075 -0.5425 -0.6043 -0.7564
  339THF     C2 6336   3.566   4.780   2.076 -0.6205 -0.2812 -0.9609
  339THF     C3 6337   3.624   5.008   2.069  0.2326 -0.2355 -0.3180
  339THF     H4 6338   3.551   4.732   1.980 -1.4337  2.5985 -2.3809
  339THF     H5 6339   3.523   4.722   2.158 -1.5598 -0.9817 -1.9333
  339THF     H6 6340   3.607   5.087   1.996  1.5612  0.5429  0.1687
  339THF     H7 6341   3.641   5.045   2.171  0.1216 -1.9603  0.3536
  339THF     C8 6342   3.754   4.929   2.036  0.2398 -1.0550  0.1555
  339THF     C9 6343   3.715   4.800   2.102  0.9102 -0.3015 -0.1618
  339THF    H10 6344   3.837   4.985   2.079  0.3993 -0.5734 -0.7580
  339THF    H11 6345   3.779   4.924   1.930  3.1521 -2.0027  0.7876
  339THF    H12 6346   3.768   4.714   2.062 -1.6276 -2.1381  0.1992
  339THF    H13 6347   3.735   4.804   2.209 -3.7398  0.8154  0.8990
  340THF     O1 6348   2.174   2.046   2.193  0.4748  0.8978  0.2506
  340THF     C2 6349   2.142   1.937   2.105 -0.1460  0.9441  0.2286
  340THF     C3 6350   2.212   2.002   2.322  0.2098 -0.7138  0.0366
  340THF     H4 6351   2.195   1.958   2.011  0.4055  2.2708  0.8021
  340THF     H5 6352   2.038   1.929   2.074 -0.1772  0.2689  0.4887
  340THF     H6 6353   2.280   2.079   2.359  1.6180 -1.9625  0.1628
  340THF     H7 6354   2.135   1.975   2.394  0.2164 -2.6967 -0.6532
  340THF     C8 6355   2.283   1.873   2.273  0.3154 -0.4575  0.2666
  340THF     C9 6356   2.190   1.812   2.175 -0.0211  0.9337  0.6193
  340THF    H10 6357   2.315   1.807   2.355  1.8950  0.9935  0.8957
  340THF    H11 6358   2.375   1.890   2.216 -0.9640 -0.6878 -1.9614
  340THF    H12 6359   2.240   1.739   2.111 -2.4391 -0.2046 -0.1002
  340THF    H13 6360   2.105   1.766   2.227  1.1073 -1.2073  0.6798
  341THF     O1 6361   5.210   2.740   1.045 -1.1105 -0.1582 -0.0686
  341THF     C2 6362   5.223   2.618   1.118  0.2523 -0.1379  0.1353
  341THF     C3 6363   5.215   2.841   1.146  0.2050  0.0892  0.0528
  341THF     H4 6364   5.270   2.545   1.052  2.3095  0.5680  0.7233
  341THF     H5 6365   5.125   2.580   1.145 -0.1805 -1.7602 -3.1902
  341THF     H6 6366   5.234   2.946   1.124  1.9704 -0.0253  0.8854
  341THF     H7 6367   5.120   2.842   1.200  1.2405  2.9384  2.0400
  341THF     C8 6368   5.325   2.793   1.248  0.2033  0.7919  0.7289
  341THF     C9 6369   5.292   2.641   1.255 -0.7828 -0.3719 -0.2106
  341THF    H10 6370   5.324   2.839   1.346 -0.0858 -0.7998  1.4960
  341THF    H11 6371   5.429   2.794   1.215  0.2886 -0.7142  0.8741
  341THF    H12 6372   5.387   2.587   1.261  0.6291  1.8085 -1.4318
  341THF    H13 6373   5.231   2.608   1.339  0.3745 -1.6752  0.1547
  342THF     O1 6374   0.251   0.439   4.555  0.2750 -0.3606 -0.2706
  342THF     C2 6375   0.232   0.527   4.673 -0.7412  0.0479 -0.0223
  342THF     C3 6376   0.225   0.308   4.594  0.4036  0.7642 -0.4092
  342THF     H4 6377   0.136   0.578   4.668 -0.2879  0.8232 -1.6542
  342THF     H5 6378   0.304   0.609   4.676 -1.1818  0.4839 -0.8435
  342THF     H6 6379   0.151   0.270   4.523 -0.5477 -0.0050  0.9390
  342THF     H7 6380   0.317   0.250   4.582  1.2783  1.2008  3.0791
  342THF     C8 6381   0.179   0.311   4.737  0.9183 -0.1196 -0.4762
  342THF     C9 6382   0.241   0.438   4.791  0.0428  0.3093  0.0302
  342THF    H10 6383   0.210   0.221   4.790  1.0352 -0.4536 -1.0986
  342THF    H11 6384   0.071   0.321   4.724  0.9535  0.4628 -0.3638
  342THF    H12 6385   0.195   0.489   4.876  0.8830  0.8634  0.1641
  342THF    H13 6386   0.345   0.416   4.816 -0.3043 -1.3355  0.1925
  343THF     O1 6387   4.203   4.429   3.522  0.0690  0.4632 -0.6561
  343THF     C2 6388   4.196   4.283   3.492  0.0445 -0.1452  0.2609
  343THF     C3 6389   4.311   4.493   3.456  0.1455 -0.1475  0.5954
  343THF     H4 6390   4.108   4.250   3.436  1.7860  0.2698 -2.9188
  343THF     H5 6391   4.203   4.224   3.584 -0.4176 -0.2604  0.2281
  343THF     H6 6392   4.276   4.538   3.363 -0.2913  0.8659  1.2346
  343THF     H7 6393   4.345   4.574   3.521 -1.0379  1.3352 -0.5830
  343THF     C8 6394   4.406   4.372   3.426 -0.6033 -0.2335 -0.3150
  343THF     C9 6395   4.321   4.248   3.408  0.1409  0.4381 -0.1393
  343THF    H10 6396   4.483   4.364   3.502  0.9638  3.2083 -1.3567
  343THF    H11 6397   4.470   4.404   3.344  0.9696  1.0279  1.3167
  343THF    H12 6398   4.292   4.243   3.303  2.1783 -0.4003 -0.7195
  343THF    H13 6399   4.375   4.158   3.437  0.8591  0.7784 -0.3688
  344THF     O1 6400   2.863   3.316   1.008 -0.7273 -0.2800  0.4585
  344THF     C2 6401   2.904   3.208   0.921 -0.1743 -0.1984 -0.1859
  344THF     C3 6402   2.875   3.433   0.928  0.1715  0.4412 -0.0750
  344THF     H4 6403   2.862   3.111   0.946 -0.5079  0.3760  1.5376
  344THF     H5 6404   3.013   3.198   0.923 -0.0093 -0.5387 -3.7399
  344THF     H6 6405   2.824   3.516   0.978 -0.5661  1.1285 -1.8957
  344THF     H7 6406   2.979   3.461   0.910 -0.3371  1.5132 -1.5261
  344THF     C8 6407   2.812   3.392   0.799  0.3543 -0.2318 -0.0397
  344THF     C9 6408   2.855   3.250   0.775 -0.4045  0.2934  0.1315
  344THF    H10 6409   2.837   3.456   0.714 -1.4896  2.3958  1.2267
  344THF    H11 6410   2.703   3.394   0.804  0.3362  1.2891 -0.4910
  344THF    H12 6411   2.771   3.188   0.745 -1.6233  0.2662  3.2483
  344THF    H13 6412   2.939   3.243   0.705  0.1930 -1.2927  0.9421
  345THF     O1 6413   1.099   2.640   2.470  0.5814 -0.3673  0.1202
  345THF     C2 6414   1.096   2.727   2.587 -0.0108 -0.8392  0.8465
  345THF     C3 6415   1.145   2.517   2.523  0.2889 -0.0193  0.3206
  345THF     H4 6416   1.004   2.724   2.645 -0.3523 -1.8181  0.2866
  345THF     H5 6417   1.093   2.826   2.543 -1.4493 -1.3790 -0.3584
  345THF     H6 6418   1.058   2.488   2.583  0.8917  0.6871  1.5968
  345THF     H7 6419   1.174   2.443   2.449  1.8063  0.8845 -0.0395
  345THF     C8 6420   1.253   2.545   2.626 -0.6011  0.3017 -0.1360
  345THF     C9 6421   1.211   2.686   2.676 -1.0837  0.7178  0.5192
  345THF    H10 6422   1.352   2.555   2.581  0.1242  1.6328  1.6360
  345THF    H11 6423   1.258   2.466   2.701 -0.4909 -2.0760 -2.4831
  345THF    H12 6424   1.171   2.670   2.776 -1.6530  1.1309  0.3610
  345THF    H13 6425   1.291   2.759   2.664  1.1650 -1.8025 -0.9940
  346THF     O1 6426   0.433   0.722   3.322 -0.4335 -0.5348  0.3835
  346THF     C2 6427   0.495   0.731   3.196 -0.5554  0.0145  0.3215
  346THF     C3 6428   0.421   0.584   3.354 -0.0994 -0.0359 -0.3053
  346THF     H4 6429   0.554   0.821   3.179 -0.5294 -0.4896 -2.6797
  346THF     H5 6430   0.422   0.709   3.119  0.5779 -1.7964 -0.2968
  346THF     H6 6431   0.393   0.565   3.457  0.3149 -0.2338 -0.2254
  346THF     H7 6432   0.347   0.541   3.286  0.0745 -2.3396  0.8681
  346THF     C8 6433   0.561   0.535   3.317  0.3389  0.0147 -0.0938
  346THF     C9 6434   0.593   0.612   3.193  0.3350  0.1932 -0.8851
  346THF    H10 6435   0.565   0.428   3.302 -1.1281 -0.2946  1.4735
  346THF    H11 6436   0.636   0.565   3.390 -0.7576 -1.0841  1.5389
  346THF    H12 6437   0.700   0.634   3.195  0.5726 -0.7131 -2.1676
  346THF    H13 6438   0.570   0.543   3.112 -1.0655 -1.3152  0.7020
  347THF     O1 6439   0.866   1.535   4.221  0.8341 -0.0513 -0.1905
  347THF     C2 6440   0.738   1.517   4.165 -0.3984  0.3490  0.3942
  347THF     C3 6441   0.878   1.453   4.337 -0.2060  0.8134  0.2491
  347THF     H4 6442   0.722   1.563   4.068  0.4498  0.4959  0.3161
  347THF     H5 6443   0.668   1.568   4.231 -2.8299 -0.3398 -1.5154
  347THF     H6 6444   0.981   1.443   4.373  0.1796 -0.3073 -1.0900
  347THF     H7 6445   0.801   1.487   4.407 -2.8205 -0.6963 -1.7168
  347THF     C8 6446   0.825   1.321   4.273  0.1571 -0.7590  0.3094
  347THF     C9 6447   0.710   1.364   4.180 -0.3843  0.4746 -0.4144
  347THF    H10 6448   0.797   1.241   4.342 -0.2314 -2.4840 -1.7463
  347THF    H11 6449   0.903   1.282   4.208 -1.0371  0.9679 -2.2901
  347THF    H12 6450   0.702   1.317   4.082  1.6397 -0.2868 -0.2683
  347THF    H13 6451   0.609   1.348   4.218  0.0261  1.3540  1.1438
  348THF     O1 6452   0.984   4.064   3.942  0.3300  0.5402 -0.2571
  348THF     C2 6453   0.916   4.183   3.986 -0.5733  0.0169  0.9907
  348THF     C3 6454   0.933   4.025   3.808 -0.0608  0.3489  0.0661
  348THF     H4 6455   0.991   4.234   4.046 -0.3574  0.7340  0.1339
  348THF     H5 6456   0.834   4.148   4.049  0.4105  0.6288  2.6746
  348THF     H6 6457   1.005   3.961   3.757  2.2571  0.6885  2.6763
  348THF     H7 6458   0.838   3.972   3.815 -1.5696  2.8744  0.0428
  348THF     C8 6459   0.913   4.150   3.732  0.6957 -0.6207  0.1711
  348THF     C9 6460   0.865   4.241   3.848 -0.2021  0.0431 -0.8376
  348THF    H10 6461   0.845   4.134   3.647  1.0019  0.0428 -0.2106
  348THF    H11 6462   1.005   4.190   3.690  1.2240 -0.5759  1.3500
  348THF    H12 6463   0.873   4.350   3.845 -2.7025  0.5720  3.2371
  348THF    H13 6464   0.756   4.236   3.854 -0.2907  0.7832 -1.6086
  349THF     O1 6465   3.065   0.824   1.896  0.5668 -0.0268  0.2110
  349THF     C2 6466   3.203   0.847   1.919  0.4988  0.2717 -0.5800
  349THF     C3 6467   2.996   0.945   1.862  0.6614 -0.3635 -0.2372
  349THF     H4 6468   3.240   0.845   1.817 -0.2949 -1.3994 -0.8792
  349THF     H5 6469   3.246   0.770   1.984 -0.5890 -1.2563 -1.6089
  349THF     H6 6470   3.011   0.980   1.760  3.5256  0.2905  0.3056
  349THF     H7 6471   2.891   0.957   1.888  0.3086 -0.1559 -1.6577
  349THF     C8 6472   3.079   1.044   1.945  0.9467  0.5486  0.6436
  349THF     C9 6473   3.210   0.986   1.985 -0.1103 -0.6624 -0.9140
  349THF    H10 6474   3.023   1.070   2.035  2.1910  1.2438  1.2485
  349THF    H11 6475   3.085   1.136   1.887 -0.6125 -1.2339 -2.5777
  349THF    H12 6476   3.296   1.042   1.948  0.8427 -2.3843 -1.4004
  349THF    H13 6477   3.214   0.965   2.092 -0.4634  0.0098 -0.7596
  350THF     O1 6478   2.298   5.323   2.889  0.3654 -0.5352  0.3934
  350THF     C2 6479   2.297   5.222   2.976  0.3261 -0.5790 -0.8010
  350THF     C3 6480   2.174   5.391   2.882 -0.0301  0.5683 -0.9614
  350THF     H4 6481   2.383   5.229   3.043 -0.1112 -3.1006  0.1375
  350THF     H5 6482   2.305   5.126   2.924  1.3097 -2.3005  2.2759
  350THF     H6 6483   2.179   5.488   2.932 -0.9161 -0.1785  0.6522
  350THF     H7 6484   2.137   5.413   2.782 -1.4978  0.7047 -0.4173
  350THF     C8 6485   2.078   5.303   2.963 -0.2335 -0.5871  0.0720
  350THF     C9 6486   2.169   5.252   3.062 -0.6184 -0.0455  0.3247
  350THF    H10 6487   2.035   5.223   2.903 -0.3409  0.7856 -1.8116
  350THF    H11 6488   1.990   5.350   3.006 -0.0118 -1.7009  1.8253
  350THF    H12 6489   2.205   5.321   3.138  0.0309  0.8980 -0.8052
  350THF    H13 6490   2.131   5.159   3.105  3.3566 -2.6026 -1.1746
  351THF     O1 6491   1.798   1.740   3.117  0.2390 -0.4420 -1.0619
  351THF     C2 6492   1.720   1.773   3.231  0.1397  0.3916  0.6500
  351THF     C3 6493   1.779   1.831   3.005  0.5665 -0.4759  1.0414
  351THF     H4 6494   1.768   1.830   3.310  0.5586  0.3626  0.4144
  351THF     H5 6495   1.712   1.673   3.274  1.9470 -0.7500 -1.4632
  351THF     H6 6496   1.874   1.881   2.994  1.3182 -1.2012  3.5228
  351THF     H7 6497   1.758   1.770   2.917 -1.9636  0.2547  1.0501
  351THF     C8 6498   1.669   1.924   3.057  0.1869  0.9282 -0.2041
  351THF     C9 6499   1.596   1.839   3.166 -0.5537  0.1608  0.5551
  351THF    H10 6500   1.595   1.957   2.984  0.0308  0.3324 -0.3204
  351THF    H11 6501   1.722   2.015   3.088  0.2760  1.0488 -0.6955
  351THF    H12 6502   1.524   1.899   3.222 -1.8755 -1.0114  0.1612
  351THF    H13 6503   1.527   1.769   3.120  0.5275 -1.3530  1.1413
  352THF     O1 6504   0.014   3.282   0.682  0.1510 -0.3747  0.4265
  352THF     C2 6505  -0.018   3.381   0.774 -0.6716 -0.9239  0.4330
  352THF     C3 6506  -0.105   3.257   0.602  0.4413  0.2001  0.0005
  352THF     H4 6507   0.066   3.426   0.826 -1.8332 -0.8754  2.3829
  352THF     H5 6508  -0.083   3.338   0.850 -0.7046 -1.0524  0.3311
  352THF     H6 6509  -0.083   3.190   0.519 -0.4631 -0.0674 -0.0362
  352THF     H7 6510  -0.192   3.219   0.656 -0.1775  0.5808 -0.7086
  352THF     C8 6511  -0.131   3.401   0.564  0.3101 -0.2584 -0.1219
  352THF     C9 6512  -0.089   3.487   0.684 -0.3462  0.0372 -0.3644
  352THF    H10 6513  -0.234   3.414   0.531 -0.1720  0.1370  1.4485
  352THF    H11 6514  -0.069   3.427   0.478  0.4229  0.1840  0.0877
  352THF    H12 6515  -0.015   3.563   0.660 -0.2729 -0.4614 -1.8047
  352THF    H13 6516  -0.177   3.533   0.729 -0.9570 -0.6902 -0.8042
  353THF     O1 6517   3.738   1.013   2.958  0.1957 -0.0486  0.0556
  353THF     C2 6518   3.794   0.980   2.831  0.3220  0.5221 -0.6165
  353THF     C3 6519   3.668   1.136   2.942  0.0089 -0.3799  0.1510
  353THF     H4 6520   3.730   0.931   2.759  0.8330 -1.3993  0.1776
  353THF     H5 6521   3.874   0.909   2.852  0.3866  0.0274 -2.4184
  353THF     H6 6522   3.577   1.123   2.882  0.0511 -3.9514  0.6410
  353THF     H7 6523   3.632   1.188   3.031  0.2030 -0.2036  0.1269
  353THF     C8 6524   3.777   1.221   2.874 -0.3557 -0.4861 -0.1664
  353THF     C9 6525   3.842   1.122   2.780 -0.0159  0.0043  0.5156
  353THF    H10 6526   3.856   1.267   2.934  0.2722 -0.1261 -1.2328
  353THF    H11 6527   3.747   1.308   2.816  0.9546  1.2012  1.5324
  353THF    H12 6528   3.809   1.129   2.677  2.4859 -1.3196 -0.4712
  353THF    H13 6529   3.951   1.126   2.780 -0.0170  1.6733 -1.6504
  354THF     O1 6530   1.154   1.695   3.973  0.6325 -0.1535  0.7926
  354THF     C2 6531   1.031   1.752   3.938 -0.3999  0.3520  0.1362
  354THF     C3 6532   1.242   1.808   3.997  0.0365  0.4928 -0.2272
  354THF     H4 6533   0.982   1.787   4.029 -1.8614  3.0277 -1.5520
  354THF     H5 6534   0.963   1.683   3.886  0.8900  0.9409 -2.4740
  354THF     H6 6535   1.231   1.841   4.101 -0.3359 -1.4190  0.3811
  354THF     H7 6536   1.345   1.773   3.992 -0.5457 -2.2624  2.9867
  354THF     C8 6537   1.203   1.928   3.914 -0.0751  0.3581  0.1117
  354THF     C9 6538   1.063   1.887   3.869 -0.1442  0.1923 -0.6207
  354THF    H10 6539   1.263   1.950   3.826 -1.7015  0.3111 -1.0438
  354THF    H11 6540   1.191   2.019   3.971 -1.2668 -1.2070  2.5396
  354THF    H12 6541   0.990   1.965   3.889 -0.4576  0.0457 -1.1821
  354THF    H13 6542   1.066   1.858   3.764  2.5393 -0.6751 -0.3861
  355THF     O1 6543   0.764   5.483   5.189 -0.9069 -0.4483 -0.0417
  355THF     C2 6544   0.831   5.493   5.310  0.6879  0.0261 -0.3212
  355THF     C3 6545   0.762   5.349   5.146  0.7427 -0.1805  0.0443
  355THF     H4 6546   0.758   5.470   5.388  1.2600  0.6204  0.4148
  355THF     H5 6547   0.866   5.592   5.340 -1.5457  0.8948 -0.3516
  355THF     H6 6548   0.688   5.303   5.213  2.5723 -0.9937  1.5925
  355THF     H7 6549   0.736   5.353   5.040 -0.8179 -0.7196  0.3671
  355THF     C8 6550   0.894   5.295   5.186  0.1609  0.0049 -0.7735
  355THF     C9 6551   0.937   5.382   5.300 -0.4405  0.0509 -0.0733
  355THF    H10 6552   0.953   5.315   5.097 -2.4294  0.9303 -2.3948
  355THF    H11 6553   0.870   5.192   5.212 -1.7926  0.4504 -0.6113
  355THF    H12 6554   0.946   5.326   5.393  3.4258  0.7964  0.1688
  355THF    H13 6555   1.035   5.421   5.274 -0.8123  0.8818 -0.2496
  356THF     O1 6556   4.178   1.939   1.135  0.1026 -0.6308  0.5683
  356THF     C2 6557   4.240   1.814   1.099  0.3394  0.1932 -0.5529
  356THF     C3 6558   4.124   1.983   1.011  0.1481  0.0094 -0.1043
  356THF     H4 6559   4.159   1.744   1.083 -0.4648  0.5183  1.7522
  356THF     H5 6560   4.312   1.779   1.173 -1.6153 -1.5183  0.6105
  356THF     H6 6561   4.044   1.913   0.988  1.6203 -2.6289  2.2403
  356THF     H7 6562   4.094   2.088   1.013 -0.6796 -0.2182 -0.1517
  356THF     C8 6563   4.237   1.954   0.911  0.1007 -0.3935 -0.7307
  356THF     C9 6564   4.321   1.847   0.974  0.2685 -0.4694 -0.1775
  356THF    H10 6565   4.294   2.044   0.889 -0.3629  0.2024  0.3882
  356THF    H11 6566   4.206   1.921   0.812  1.7290 -2.6878 -0.5711
  356THF    H12 6567   4.353   1.768   0.907 -0.4722  0.8762 -2.2292
  356THF    H13 6568   4.409   1.903   1.005  1.6539 -0.8203 -3.1905
  357THF     O1 6569   3.601   0.007   1.676 -0.1550 -0.2538 -0.5843
  357THF     C2 6570   3.728   0.068   1.702 -0.0710 -0.4055  0.0534
  357THF     C3 6571   3.579  -0.096   1.768  0.4837  0.1292  0.1615
  357THF     H4 6572   3.744   0.161   1.649 -2.8902  1.2243  1.7848
  357THF     H5 6573   3.818   0.008   1.692  0.9869  1.3534 -1.5322
  357THF     H6 6574   3.472  -0.115   1.772  0.6228 -0.6768  0.1317
  357THF     H7 6575   3.636  -0.181   1.730  1.2817  1.0795 -0.8241
  357THF     C8 6576   3.637  -0.036   1.893 -0.3517  0.0507  0.4764
  357THF     C9 6577   3.708   0.092   1.848  0.7793 -0.2586  0.1275
  357THF    H10 6578   3.704  -0.110   1.937  0.6712 -1.9251 -3.8419
  357THF    H11 6579   3.553  -0.022   1.961 -1.3607 -3.1630  0.0384
  357THF    H12 6580   3.650   0.182   1.865  0.0464 -1.0574  2.2044
  357THF    H13 6581   3.803   0.103   1.899  1.0554  1.3681 -0.6785
  358THF     O1 6582   2.405   2.185   2.528  0.4696  0.4780  0.0047
  358THF     C2 6583   2.350   2.119   2.644 -0.1207 -0.7471 -0.2777
  358THF     C3 6584   2.515   2.271   2.568 -0.3243  0.6535 -0.1423
  358THF     H4 6585   2.417   2.035   2.664  1.7077  0.1660 -2.2325
  358THF     H5 6586   2.248   2.089   2.621 -0.6242 -0.2750  1.2066
  358THF     H6 6587   2.592   2.194   2.560 -0.5804  0.5418 -1.8324
  358THF     H7 6588   2.523   2.348   2.491 -1.8135  1.0229  0.0425
  358THF     C8 6589   2.481   2.309   2.717 -0.1172 -0.0028  0.8335
  358THF     C9 6590   2.362   2.223   2.748  0.0022  0.2247  0.7725
  358THF    H10 6591   2.454   2.415   2.710 -0.8076 -0.2667 -1.5451
  358THF    H11 6592   2.571   2.292   2.775 -0.6372 -0.5962  1.4806
  358THF    H12 6593   2.353   2.191   2.852 -0.5236  0.0798  0.6868
  358THF    H13 6594   2.274   2.285   2.728 -1.7808 -1.6820  2.2381
  359THF     O1 6595   0.587   0.124   2.201 -0.1023 -0.4869  0.3033
  359THF     C2 6596   0.572  -0.004   2.138  0.0533  0.5703 -0.4748
  359THF     C3 6597   0.725   0.141   2.223 -0.0374 -0.0031  0.2602
  359THF     H4 6598   0.484  -0.002   2.074  0.9305 -0.9109 -1.7938
  359THF     H5 6599   0.573  -0.075   2.220  0.8161  1.4821  0.3317
  359THF     H6 6600   0.739   0.249   2.223 -0.8890  0.1275 -0.6016
  359THF     H7 6601   0.749   0.097   2.320  0.4109  0.2094  0.2477
  359THF     C8 6602   0.795   0.064   2.110 -0.0907  0.3298 -0.0073
  359THF     C9 6603   0.684  -0.017   2.046  0.9998  0.2401 -0.1729
  359THF    H10 6604   0.872  -0.002   2.150  0.1400  1.4604  1.4745
  359THF    H11 6605   0.841   0.130   2.037  0.0213 -0.3137 -0.5294
  359THF    H12 6606   0.660   0.019   1.946 -1.3265  0.5175  0.4286
  359THF    H13 6607   0.710  -0.123   2.043  0.0540  0.0002 -0.1798
  360THF     O1 6608   1.955   1.495   1.852  0.0058 -0.1070 -0.4574
  360THF     C2 6609   1.853   1.576   1.812  0.2656  0.9771  0.4390
  360THF     C3 6610   1.989   1.510   1.989  0.1831 -0.0493  0.0988
  360THF     H4 6611   1.804   1.548   1.719  1.2179 -0.6166  0.3906
  360THF     H5 6612   1.899   1.672   1.786 -0.3030  0.7226 -1.6781
  360THF     H6 6613   2.034   1.426   2.042  3.8839  0.5516 -1.7437
  360THF     H7 6614   2.069   1.584   1.980 -1.0996  1.8490  2.9985
  360THF     C8 6615   1.862   1.575   2.053 -0.5669  0.9937  0.5836
  360THF     C9 6616   1.764   1.587   1.932  0.2884 -0.6422 -0.2856
  360THF    H10 6617   1.886   1.666   2.108  2.6325  0.5871  0.0831
  360THF    H11 6618   1.823   1.502   2.124  1.2024  0.1559  0.7618
  360THF    H12 6619   1.706   1.495   1.929 -0.0173 -0.6001  2.2027
  360THF    H13 6620   1.695   1.671   1.926  1.5344  0.3787 -0.7653
  361THF     O1 6621   4.535   0.330   4.418 -0.6693  0.5454 -0.2869
  361THF     C2 6622   4.430   0.368   4.333 -0.1196  0.4619 -0.1744
  361THF     C3 6623   4.522   0.391   4.551  0.6078 -0.1670 -0.6551
  361THF     H4 6624   4.398   0.277   4.282  1.5145 -0.3171  0.0982
  361THF     H5 6625   4.454   0.440   4.256 -2.8071 -0.7292 -2.3081
  361THF     H6 6626   4.552   0.321   4.629  1.4795  0.8789 -0.0155
  361THF     H7 6627   4.586   0.479   4.557 -0.1817  0.3974 -0.2308
  361THF     C8 6628   4.369   0.403   4.565  0.1841  0.0294 -1.0441
  361THF     C9 6629   4.318   0.423   4.421  0.5860  0.4595 -1.0337
  361THF    H10 6630   4.331   0.484   4.628 -1.3035  1.5095 -3.6508
  361THF    H11 6631   4.318   0.311   4.593  0.0166 -0.2259 -2.1414
  361THF    H12 6632   4.222   0.383   4.388  1.7995 -2.0749 -1.6884
  361THF    H13 6633   4.320   0.531   4.407  2.2357  0.5500 -0.3818
  362THF     O1 6634   4.147   4.911   0.381  0.1149 -0.6530 -0.2152
  362THF     C2 6635   4.048   4.948   0.473 -0.1667 -0.0101 -0.4610
  362THF     C3 6636   4.255   4.867   0.455  0.2643  0.1095 -0.0741
  362THF     H4 6637   3.953   4.960   0.422 -0.6152  0.3914  0.4308
  362THF     H5 6638   4.064   5.051   0.506 -0.9137  0.6610 -2.1226
  362THF     H6 6639   4.324   4.815   0.389 -2.7714 -2.9321 -1.1581
  362THF     H7 6640   4.308   4.958   0.482 -0.4934  0.4496  0.2947
  362THF     C8 6641   4.202   4.783   0.576  0.1506 -0.3834  0.2423
  362THF     C9 6642   4.055   4.842   0.587 -0.3970 -0.0817  0.0453
  362THF    H10 6643   4.263   4.812   0.662 -0.4158  2.5532 -0.2461
  362THF    H11 6644   4.195   4.676   0.555 -2.0008 -0.0834 -0.8044
  362THF    H12 6645   3.982   4.766   0.557 -0.5403  0.7474 -1.8289
  362THF    H13 6646   4.029   4.886   0.683 -1.2902 -0.7801  0.1411
  363THF     O1 6647   1.747   5.286   2.388  0.4038 -0.0248 -0.3627
  363THF     C2 6648   1.741   5.163   2.454 -0.8384 -0.1716  0.6379
  363THF     C3 6649   1.863   5.352   2.432 -0.0901  0.6628 -0.4533
  363THF     H4 6650   1.816   5.094   2.418  0.2207 -0.8371  3.7772
  363THF     H5 6651   1.645   5.115   2.434 -0.5508 -0.2458 -0.6394
  363THF     H6 6652   1.948   5.329   2.369  0.5489  0.6420  0.4005
  363THF     H7 6653   1.846   5.460   2.440 -1.7947  0.3755  0.3878
  363THF     C8 6654   1.883   5.305   2.578  0.3464  0.3856  0.2148
  363THF     C9 6655   1.779   5.191   2.595  0.2004 -0.5000 -0.1121
  363THF    H10 6656   1.871   5.384   2.652 -0.3653  1.3428 -0.9053
  363THF    H11 6657   1.986   5.273   2.598  0.5088  1.7497  1.7802
  363THF    H12 6658   1.810   5.092   2.627 -1.4672 -0.7784  0.8049
  363THF    H13 6659   1.692   5.229   2.650  1.3569  1.3381  0.5593
  364THF     O1 6660   5.120   1.075   1.046  0.3661  0.2380  0.3570
  364THF     C2 6661   5.150   0.953   1.116  0.3235 -0.2647  0.3142
  364THF     C3 6662   5.241   1.144   1.006  0.0919  0.3551  0.1948
  364THF     H4 6663   5.104   0.878   1.052  1.9006  0.5254 -1.8851
  364THF     H5 6664   5.111   0.950   1.218 -0.2488  2.3225  0.2448
  364THF     H6 6665   5.233   1.198   0.912 -2.1841  0.1297  0.2065
  364THF     H7 6666   5.268   1.217   1.082 -1.2789  1.1212 -0.0161
  364THF     C8 6667   5.351   1.039   1.007  0.2878 -0.3706 -0.3149
  364THF     C9 6668   5.307   0.935   1.110  0.1296  0.5015 -0.1530
  364THF    H10 6669   5.451   1.075   1.030  0.3880 -0.4081 -0.6762
  364THF    H11 6670   5.352   1.006   0.903 -3.4663  1.9143 -1.2847
  364THF    H12 6671   5.335   0.832   1.086 -4.0766 -0.9538  0.3545
  364THF    H13 6672   5.348   0.955   1.209 -1.0905 -0.3609  0.5554
  365THF     O1 6673   0.099   2.605   0.265 -0.3444 -0.3894 -0.3212
  365THF     C2 6674   0.237   2.622   0.237 -0.2981  0.0453  0.1878
  365THF     C3 6675   0.085   2.514   0.376  0.4135 -0.9930 -0.2097
  365THF     H4 6676   0.269   2.717   0.280 -3.0301  0.4027  1.6830
  365THF     H5 6677   0.248   2.629   0.129 -0.9186 -1.9322 -0.0436
  365THF     H6 6678   0.084   2.585   0.458  1.9516  0.0489 -1.0354
  365THF     H7 6679  -0.012   2.468   0.357 -0.4370 -0.4816  2.4592
  365THF     C8 6680   0.206   2.417   0.377  0.3508 -0.1933  0.1216
  365THF     C9 6681   0.315   2.502   0.302 -0.6469  0.1532 -0.6274
  365THF    H10 6682   0.192   2.329   0.315  0.6078  1.5864 -2.6459
  365THF    H11 6683   0.237   2.381   0.475  0.0281 -0.0821  0.2682
  365THF    H12 6684   0.394   2.541   0.366 -1.5464  2.5143 -0.8650
  365THF    H13 6685   0.355   2.452   0.214 -3.5850 -0.9256 -1.4682
  366THF     O1 6686   3.008   1.116   0.068 -0.2738  0.0290  0.0992
  366THF     C2 6687   3.015   1.005  -0.028 -0.3839 -0.6757  0.5422
  366THF     C3 6688   2.873   1.157   0.063  0.2073 -0.0123  0.0780
  366THF     H4 6689   3.004   0.913   0.030  1.4471 -0.5020  1.2588
  366THF     H5 6690   3.113   1.006  -0.075  0.1908 -2.2215  1.5921
  366THF     H6 6691   2.827   1.116   0.154 -0.0459  1.1647  0.4971
  366THF     H7 6692   2.858   1.265   0.067  0.5599  0.1382 -1.8739
  366THF     C8 6693   2.795   1.087  -0.051  0.5792 -0.2053 -0.0268
  366THF     C9 6694   2.904   1.024  -0.135 -0.2221 -0.8337  0.0586
  366THF    H10 6695   2.727   1.156  -0.101  1.3784  0.9426  0.4125
  366THF    H11 6696   2.731   1.007  -0.016 -0.2898  0.2289 -0.5897
  366THF    H12 6697   2.870   0.934  -0.187 -1.1573 -0.7925  0.5732
  366THF    H13 6698   2.941   1.093  -0.210 -2.5027 -0.7295 -1.0602
  367THF     O1 6699   0.096   0.546   3.308 -0.1962  0.1086  0.5063
  367THF     C2 6700  -0.009   0.456   3.332 -0.1239 -0.3636 -0.1733
  367THF     C3 6701   0.027   0.670   3.268 -0.7796 -0.2147  0.5824
  367THF     H4 6702  -0.050   0.478   3.431  0.6384 -0.4713  0.1720
  367THF     H5 6703   0.020   0.351   3.342 -0.8947 -0.7169 -1.4500
  367THF     H6 6704  -0.007   0.728   3.354  1.4955 -1.8388  2.6952
  367THF     H7 6705   0.103   0.741   3.237 -0.6633  0.6459  2.6628
  367THF     C8 6706  -0.093   0.632   3.178 -0.2202  0.2085 -0.0819
  367THF     C9 6707  -0.129   0.490   3.232 -0.0247 -0.1323 -0.0284
  367THF    H10 6708  -0.054   0.606   3.080 -0.6840 -2.2635  0.3267
  367THF    H11 6709  -0.183   0.693   3.179  0.0435  0.6111 -0.7267
  367THF    H12 6710  -0.223   0.507   3.285 -0.8442 -1.6021 -0.9587
  367THF    H13 6711  -0.141   0.423   3.147  0.2285 -0.0835 -0.1027
  368THF     O1 6712   3.533   4.625   1.538  0.0867  0.2215  0.1331
  368THF     C2 6713   3.596   4.636   1.662  0.1784 -0.5279 -0.0798
  368THF     C3 6714   3.622   4.559   1.450 -0.0283  0.7215  0.3015
  368THF     H4 6715   3.522   4.657   1.739 -0.0242 -1.4639 -0.0062
  368THF     H5 6716   3.656   4.725   1.645  0.0858 -0.4248  0.1352
  368THF     H6 6717   3.576   4.518   1.360  2.0827  2.3676 -1.6443
  368THF     H7 6718   3.711   4.618   1.428  1.6569 -1.9912 -0.6096
  368THF     C8 6719   3.669   4.448   1.539 -0.3053 -0.3171  0.6391
  368THF     C9 6720   3.678   4.512   1.681 -0.1043 -0.4619  0.1433
  368THF    H10 6721   3.767   4.408   1.514 -0.0354 -0.9107  2.5551
  368THF    H11 6722   3.594   4.369   1.543  0.5372 -1.1899 -0.2705
  368THF    H12 6723   3.630   4.448   1.755  0.7431 -1.0439  0.2041
  368THF    H13 6724   3.779   4.527   1.719 -0.5123 -0.9843  1.5336
  369THF     O1 6725   3.066   0.510   2.238 -0.2520 -0.4235 -0.2119
  369THF     C2 6726   2.953   0.426   2.270 -0.2642 -0.0802 -0.3295
  369THF     C3 6727   3.022   0.637   2.195 -0.5101  0.0077 -0.3945
  369THF     H4 6728   2.985   0.354   2.345 -1.9795 -1.0643 -0.4923
  369THF     H5 6729   2.917   0.374   2.182 -2.3919 -0.1622  0.5280
  369THF     H6 6730   3.098   0.714   2.208  0.6165 -0.9850 -0.8919
  369THF     H7 6731   2.993   0.631   2.090 -1.3685  1.1188 -0.2488
  369THF     C8 6732   2.893   0.663   2.282 -0.5833 -0.0430  0.2941
  369THF     C9 6733   2.860   0.527   2.331  0.4663  0.1619  0.1888
  369THF    H10 6734   2.812   0.709   2.225  0.0735 -0.1733 -0.7703
  369THF    H11 6735   2.916   0.740   2.356 -0.9751 -0.4994  0.9002
  369THF    H12 6736   2.868   0.523   2.440  0.5459  2.6972  0.3251
  369THF    H13 6737   2.761   0.487   2.308  1.4020 -1.1197 -1.9470
  370THF     O1 6738   2.356   2.459   3.106  0.3351 -0.2990  0.1288
  370THF     C2 6739   2.373   2.565   3.203 -0.3195  0.9001  0.8115
  370THF     C3 6740   2.488   2.418   3.079  0.1488  0.1931  0.2424
  370THF     H4 6741   2.277   2.590   3.246 -0.8746 -0.6180  0.5245
  370THF     H5 6742   2.410   2.654   3.153 -0.4249  0.9930  0.8995
  370THF     H6 6743   2.496   2.314   3.050  0.8821 -0.3997  2.3944
  370THF     H7 6744   2.527   2.492   3.009 -2.4589  2.1983  0.7120
  370THF     C8 6745   2.547   2.412   3.215 -0.1006 -1.0504  0.0800
  370THF     C9 6746   2.471   2.506   3.308 -0.6889  0.2566  0.3208
  370THF    H10 6747   2.652   2.440   3.209 -0.5016  1.0789  1.6752
  370THF    H11 6748   2.546   2.311   3.257  2.9207 -0.6434  1.4362
  370THF    H12 6749   2.417   2.449   3.384  0.0744 -0.2747  0.4727
  370THF    H13 6750   2.529   2.578   3.365 -0.6163  0.6187 -0.2021
  371THF     O1 6751   3.046   1.612   4.406 -0.1037 -0.3841 -0.5848
  371THF     C2 6752   3.120   1.499   4.363  0.3545 -0.7078 -0.0469
  371THF     C3 6753   2.950   1.584   4.504 -0.1089  0.2791  0.4787
  371THF     H4 6754   3.213   1.500   4.421  1.0137 -1.6089 -1.0474
  371THF     H5 6755   3.135   1.487   4.256 -0.6649 -0.8562 -0.1792
  371THF     H6 6756   2.987   1.597   4.606  0.7367 -1.8542  0.5002
  371THF     H7 6757   2.867   1.653   4.490 -0.5489 -0.0289  1.5016
  371THF     C8 6758   2.918   1.443   4.477  0.2060 -0.6394 -0.8159
  371THF     C9 6759   3.039   1.380   4.417  0.4808  0.7327 -0.2521
  371THF    H10 6760   2.832   1.439   4.410  1.1045  1.1816 -2.1671
  371THF    H11 6761   2.896   1.380   4.563  0.0912 -1.9845 -1.8012
  371THF    H12 6762   3.097   1.325   4.491 -0.7953  0.3993  0.5356
  371THF    H13 6763   3.020   1.313   4.333  2.1646 -2.4301  1.6936
  372THF     O1 6764   0.489   2.724   4.212  0.3419  0.3026 -0.1835
  372THF     C2 6765   0.434   2.597   4.261 -0.6618  0.2129 -0.7025
  372THF     C3 6766   0.585   2.761   4.313 -0.1134 -0.2420  0.2738
  372THF     H4 6767   0.374   2.548   4.184 -0.6140 -0.8625 -0.0777
  372THF     H5 6768   0.369   2.613   4.347 -1.6311 -0.4175 -1.2919
  372THF     H6 6769   0.661   2.831   4.277  0.1253 -1.6425 -2.1541
  372THF     H7 6770   0.538   2.804   4.401 -2.4106 -0.8724 -0.5669
  372THF     C8 6771   0.650   2.623   4.353  0.2545  0.5763 -0.2228
  372THF     C9 6772   0.554   2.515   4.298 -0.1370 -0.1751  0.6318
  372THF    H10 6773   0.653   2.632   4.462 -2.2462  0.1709 -0.0732
  372THF    H11 6774   0.752   2.603   4.319  1.0270  0.8389  1.7639
  372THF    H12 6775   0.582   2.479   4.198  1.1069  2.0960  0.1058
  372THF    H13 6776   0.522   2.425   4.351 -0.0844 -0.8339 -0.4250
  373THF     O1 6777   4.224   0.315   4.859  0.2565 -0.6543 -0.1973
  373THF     C2 6778   4.135   0.245   4.943 -0.5696 -0.3874  0.3260
  373THF     C3 6779   4.352   0.304   4.924 -0.0984  0.3421 -0.4173
  373THF     H4 6780   4.159   0.139   4.939  0.3656 -0.1749 -0.1016
  373THF     H5 6781   4.030   0.237   4.916 -0.1294 -2.3509 -0.9985
  373THF     H6 6782   4.406   0.211   4.905  2.8089  2.1253 -1.7193
  373THF     H7 6783   4.413   0.393   4.904 -1.1378  0.7673 -1.8757
  373THF     C8 6784   4.323   0.324   5.074  0.5443  0.6546  0.9597
  373THF     C9 6785   4.172   0.283   5.085  0.1086 -0.1941 -0.4788
  373THF    H10 6786   4.325   0.430   5.097  0.5856  0.6340  1.0491
  373THF    H11 6787   4.385   0.265   5.141 -1.1765  1.4466  3.3812
  373THF    H12 6788   4.158   0.193   5.145  1.4258  0.5443  0.9994
  373THF    H13 6789   4.108   0.358   5.130 -0.6357 -1.6653  1.0347
  374THF     O1 6790   3.115   1.742   2.594 -0.3538  0.0676  0.3504
  374THF     C2 6791   3.126   1.743   2.734 -0.0844 -0.0131  0.4210
  374THF     C3 6792   3.022   1.637   2.552  0.1928  0.2994 -0.0099
  374THF     H4 6793   3.065   1.824   2.773  1.0492  0.3603  1.4850
  374THF     H5 6794   3.233   1.755   2.752  0.4500 -1.8218 -1.2218
  374THF     H6 6795   2.918   1.669   2.555  0.2438  0.8444 -2.1140
  374THF     H7 6796   3.056   1.606   2.453  1.8811  0.5463  0.4589
  374THF     C8 6797   3.043   1.528   2.660 -0.0218 -0.4850  0.4247
  374THF     C9 6798   3.065   1.609   2.787 -0.0182 -0.2428 -0.4229
  374THF    H10 6799   3.139   1.483   2.634  1.6266  1.5788  2.5080
  374THF    H11 6800   2.971   1.446   2.658 -1.1529  0.4864  0.8288
  374THF    H12 6801   2.976   1.622   2.848  0.0710 -0.9658 -0.1275
  374THF    H13 6802   3.135   1.555   2.850 -0.9677  1.8390  2.6133
  375THF     O1 6803   4.976   4.275   2.499  0.0057  0.3990  0.1946
  375THF     C2 6804   4.989   4.411   2.532  0.1463  0.0049  0.4760
  375THF     C3 6805   4.971   4.258   2.354  0.3533  0.2326 -0.1035
  375THF     H4 6806   5.093   4.439   2.548 -0.0990  1.3260 -0.0987
  375THF     H5 6807   4.938   4.424   2.628  0.0445  1.6279  0.2377
  375THF     H6 6808   5.071   4.255   2.310  0.3357 -3.0208 -0.1802
  375THF     H7 6809   4.934   4.165   2.312  1.3534  0.1703 -0.8921
  375THF     C8 6810   4.888   4.382   2.318  0.0706  0.9021  0.3362
  375THF     C9 6811   4.935   4.495   2.415  0.6281  0.5796  0.1069
  375THF    H10 6812   4.781   4.363   2.326  0.4844 -2.1463 -0.2430
  375THF    H11 6813   4.905   4.386   2.210  2.5722 -0.9215  0.5741
  375THF    H12 6814   5.015   4.550   2.365  2.1488 -1.4738  0.1161
  375THF    H13 6815   4.860   4.570   2.439 -2.7398 -1.8610 -1.8232
  376THF     O1 6816   4.462   1.211   0.245 -0.2612  0.0115  0.3913
  376THF     C2 6817   4.482   1.171   0.110  0.6774 -0.7153 -0.0709
  376THF     C3 6818   4.321   1.233   0.258  0.1170 -0.0539  0.8943
  376THF     H4 6819   4.573   1.112   0.107  1.3072  0.1694  0.7720
  376THF     H5 6820   4.491   1.255   0.041  1.8575 -1.5027 -0.9105
  376THF     H6 6821   4.271   1.215   0.354 -2.5945 -0.3349 -0.4625
  376THF     H7 6822   4.300   1.339   0.243  0.3316 -0.2779 -1.2458
  376THF     C8 6823   4.257   1.139   0.163  0.1411  0.3143  0.0464
  376THF     C9 6824   4.364   1.079   0.077  0.1223 -0.1081  0.9767
  376THF    H10 6825   4.184   1.199   0.109  0.2450  0.7935  0.4346
  376THF    H11 6826   4.212   1.056   0.216 -1.0660  0.9495  0.0416
  376THF    H12 6827   4.394   0.977   0.103 -0.3277 -0.4491  0.1998
  376THF    H13 6828   4.345   1.071  -0.030  1.0517  1.1853  0.6887
  377THF     O1 6829   4.454   4.139   1.953  0.5046  1.1584 -0.1376
  377THF     C2 6830   4.368   4.164   2.063  0.2527  0.3653  0.3279
  377THF     C3 6831   4.565   4.226   1.972  0.1557  0.4975  0.6394
  377THF     H4 6832   4.418   4.125   2.151 -0.7245 -0.0811  0.6901
  377THF     H5 6833   4.269   4.120   2.053  0.7544 -1.2160  1.9078
  377THF     H6 6834   4.640   4.170   2.028  1.2655  0.7974 -0.4858
  377THF     H7 6835   4.617   4.263   1.883  0.2364  1.3937  1.0540
  377THF     C8 6836   4.516   4.348   2.051 -0.4667  0.1056  0.3567
  377THF     C9 6837   4.373   4.318   2.081 -0.5396 -0.1071  0.3867
  377THF    H10 6838   4.545   4.443   2.007  1.6021 -1.0122 -0.8746
  377THF    H11 6839   4.565   4.340   2.148 -2.3871 -1.4757  1.2686
  377THF    H12 6840   4.340   4.345   2.181  0.3694  0.1294  0.6287
  377THF    H13 6841   4.309   4.370   2.009 -1.5817  0.5635  1.7472
  378THF     O1 6842   3.906   5.466   5.253  0.1790  0.0080 -0.6407
  378THF     C2 6843   3.852   5.389   5.153 -0.6712 -0.1570  0.5306
  378THF     C3 6844   4.027   5.404   5.300 -0.1998 -0.2232  0.3651
  378THF     H4 6845   3.819   5.456   5.073  1.0908  1.2452  0.9081
  378THF     H5 6846   3.769   5.323   5.177  0.5492 -2.1465 -0.3748
  378THF     H6 6847   4.108   5.450   5.356  2.0389 -1.7271 -1.4333
  378THF     H7 6848   3.988   5.318   5.355 -1.1972  0.0853  0.1692
  378THF     C8 6849   4.092   5.355   5.171  0.7143 -0.1966  0.0420
  378THF     C9 6850   3.965   5.308   5.086  0.2081 -0.2401  0.8581
  378THF    H10 6851   4.162   5.272   5.181 -1.7951 -2.3350  1.2971
  378THF    H11 6852   4.141   5.442   5.128  1.4819 -0.7124 -0.1441
  378THF    H12 6853   3.994   5.335   4.984  0.2058  0.4449  1.0352
  378THF    H13 6854   3.950   5.200   5.089 -0.6443 -0.1903 -0.4088
  379THF     O1 6855   1.222   1.931   1.829  0.6186 -0.7098  0.1143
  379THF     C2 6856   1.201   1.792   1.829  0.9853  0.2167  0.3105
  379THF     C3 6857   1.302   1.968   1.939  0.1040 -1.1679 -0.2129
  379THF     H4 6858   1.278   1.738   1.773 -0.7224 -1.1952 -0.7583
  379THF     H5 6859   1.116   1.764   1.767  2.1412  1.0665 -1.7448
  379THF     H6 6860   1.401   1.992   1.899  0.5510 -0.5060  1.2237
  379THF     H7 6861   1.254   2.051   1.991  0.1463 -2.3598  1.8148
  379THF     C8 6862   1.314   1.853   2.031 -0.5557 -0.0590  0.3348
  379THF     C9 6863   1.207   1.757   1.975 -0.2046 -0.0118 -0.5485
  379THF    H10 6864   1.294   1.876   2.135  0.8330  0.5809  0.4731
  379THF    H11 6865   1.413   1.807   2.036  0.3645  1.8514  0.3898
  379THF    H12 6866   1.238   1.658   2.009  2.0096  0.3397 -1.3915
  379THF    H13 6867   1.110   1.791   2.013  0.3698  1.8549 -0.6423
  380THF     O1 6868   3.777   1.904   2.632  0.2835 -0.1808  0.0976
  380THF     C2 6869   3.883   1.982   2.593 -0.0442 -1.2547 -0.2903
  380THF     C3 6870   3.665   1.977   2.674  0.8755 -0.1022  0.3265
  380THF     H4 6871   3.872   1.988   2.485  0.7504  4.0694 -0.3421
  380THF     H5 6872   3.982   1.945   2.618 -0.2384 -0.3189  2.1797
  380THF     H6 6873   3.584   1.967   2.602  2.6537 -2.7782 -1.4908
  380THF     H7 6874   3.626   1.943   2.770 -0.8880  2.7909  0.7724
  380THF     C8 6875   3.713   2.120   2.684  0.1452  0.1353  0.5393
  380THF     C9 6876   3.859   2.109   2.675  0.0868 -0.1627 -0.2792
  380THF    H10 6877   3.681   2.173   2.774 -2.6696  1.8319 -1.3057
  380THF    H11 6878   3.667   2.175   2.602  0.7267  0.2416  0.2800
  380THF    H12 6879   3.915   2.196   2.642 -0.7818  0.4957 -0.0339
  380THF    H13 6880   3.895   2.078   2.773  0.7980 -2.5603 -1.2194
  381THF     O1 6881   5.464   5.007   0.417 -0.4040 -0.4475 -0.2171
  381THF     C2 6882   5.390   4.994   0.534  0.4062 -0.4147 -0.6017
  381THF     C3 6883   5.375   5.080   0.331 -0.2982 -0.4611 -0.0433
  381THF     H4 6884   5.397   5.074   0.608 -1.7856 -0.7908  0.0920
  381THF     H5 6885   5.425   4.904   0.585 -1.3454 -1.1491 -0.5972
  381THF     H6 6886   5.365   5.186   0.356 -1.8938 -1.1183  2.4750
  381THF     H7 6887   5.413   5.081   0.229  0.4761  0.2105  0.2337
  381THF     C8 6888   5.238   5.013   0.347  0.1639 -0.1286 -0.3845
  381THF     C9 6889   5.243   4.961   0.486  0.2094 -0.2456 -0.4046
  381THF    H10 6890   5.227   4.939   0.268  0.6935 -1.1238  0.4375
  381THF    H11 6891   5.154   5.080   0.330 -1.3323 -2.1467 -1.2325
  381THF    H12 6892   5.165   5.011   0.544  2.0172  0.3105  1.6869
  381THF    H13 6893   5.220   4.855   0.484 -1.0516 -0.0281  0.7180
  382THF     O1 6894   5.387   4.474   4.618 -0.0989 -0.3827 -0.4567
  382THF     C2 6895   5.339   4.352   4.659  0.4806 -0.4280 -0.0202
  382THF     C3 6896   5.487   4.456   4.514 -0.8119  0.2299 -0.0291
  382THF     H4 6897   5.237   4.355   4.697  0.1536 -1.3291 -0.7735
  382THF     H5 6898   5.397   4.311   4.741  0.6134 -2.1191 -0.9067
  382THF     H6 6899   5.465   4.510   4.423  0.7502 -1.3219 -1.4002
  382THF     H7 6900   5.591   4.471   4.545 -0.1512  0.9408 -2.3915
  382THF     C8 6901   5.472   4.312   4.472  0.2115  0.1258  0.1801
  382THF     C9 6902   5.339   4.273   4.531 -0.1920  0.4738 -0.5108
  382THF    H10 6903   5.546   4.239   4.505  0.3785 -0.7808 -2.0004
  382THF    H11 6904   5.478   4.299   4.364 -0.2266 -0.0186  0.1705
  382THF    H12 6905   5.259   4.314   4.468 -0.1669 -1.6206 -2.0326
  382THF    H13 6906   5.331   4.164   4.540 -3.8266  0.5850 -0.8371
  383THF     O1 6907   2.290   4.932   3.633 -0.2371  0.2204  0.5552
  383THF     C2 6908   2.282   4.861   3.753  0.3007 -0.0258 -0.0456
  383THF     C3 6909   2.306   5.072   3.664  0.0049 -0.0857 -0.4898
  383THF     H4 6910   2.387   4.849   3.779  0.9884  0.2099 -2.4586
  383THF     H5 6911   2.227   4.768   3.739 -1.8743  0.9559  1.4097
  383THF     H6 6912   2.408   5.089   3.698 -0.0056  2.3412 -1.4734
  383THF     H7 6913   2.295   5.144   3.583 -0.1829 -1.3200 -1.5870
  383THF     C8 6914   2.228   5.101   3.791  0.3313  0.1320  0.1869
  383THF     C9 6915   2.198   4.959   3.843  0.0245 -0.3302  0.0591
  383THF    H10 6916   2.132   5.152   3.781  1.0838  1.3775 -1.0903
  383THF    H11 6917   2.285   5.167   3.856  0.0964  0.5717 -0.0465
  383THF    H12 6918   2.218   4.928   3.945  0.2972 -1.4893 -0.3366
  383THF    H13 6919   2.091   4.942   3.826  0.3919 -2.1212 -0.6546
  384THF     O1 6920   4.752   2.293   3.309  0.2083  0.5868  0.1313
  384THF     C2 6921   4.658   2.370   3.235  0.1791 -0.2107 -0.0484
  384THF     C3 6922   4.773   2.342   3.440 -0.3230  0.3001  0.3134
  384THF     H4 6923   4.592   2.309   3.173  1.5875 -1.4809 -0.3645
  384THF     H5 6924   4.709   2.452   3.184 -0.6416  0.6536  0.4919
  384THF     H6 6925   4.753   2.261   3.510 -0.0254  0.4931  0.6245
  384THF     H7 6926   4.874   2.378   3.460 -0.8490  0.5753  2.8381
  384THF     C8 6927   4.667   2.445   3.463 -0.1555 -0.1919  0.0223
  384THF     C9 6928   4.576   2.436   3.342  0.0734 -0.1038  0.2574
  384THF    H10 6929   4.703   2.546   3.480  1.8412 -0.7257 -0.7374
  384THF    H11 6930   4.617   2.412   3.554  0.7231  1.6513  1.2246
  384THF    H12 6931   4.486   2.384   3.373 -0.4900  0.5740 -0.2222
  384THF    H13 6932   4.542   2.532   3.305  0.1854 -0.0827  0.2076
  385THF     O1 6933   2.156   0.150   0.656  0.3884  0.0075 -0.0079
  385THF     C2 6934   2.169   0.265   0.578  0.4898 -0.7128 -0.2167
  385THF     C3 6935   2.032   0.153   0.721  1.0659  0.0172 -0.3510
  385THF     H4 6936   2.141   0.235   0.476 -2.3452  0.0943  0.2451
  385THF     H5 6937   2.271   0.302   0.593  0.2758 -0.4235  0.5640
  385THF     H6 6938   1.952   0.101   0.668  2.8110 -2.2371 -0.9204
  385THF     H7 6939   2.046   0.092   0.811  0.9618  1.4260  0.6518
  385THF     C8 6940   2.003   0.298   0.749  0.6176  0.4665  0.2276
  385THF     C9 6941   2.058   0.358   0.622 -0.7396 -0.6626 -0.4745
  385THF    H10 6942   2.046   0.334   0.843 -0.0950  1.7988  0.0661
  385THF    H11 6943   1.899   0.326   0.762  0.2255 -1.5941  2.1567
  385THF    H12 6944   1.980   0.351   0.545 -0.9878  0.4085 -0.3264
  385THF    H13 6945   2.088   0.460   0.642 -1.5332 -0.5126  0.0113
  386THF     O1 6946   2.397   4.536   1.680  0.6054  0.0613 -0.4593
  386THF     C2 6947   2.331   4.656   1.652  1.2425 -0.1764  0.7173
  386THF     C3 6948   2.354   4.439   1.578  0.5652 -0.0491  0.2012
  386THF     H4 6949   2.366   4.740   1.712  0.6888  0.8293 -0.3355
  386THF     H5 6950   2.226   4.658   1.681  1.2171  3.5052  0.8553
  386THF     H6 6951   2.425   4.357   1.569  0.9117  0.3726 -1.1638
  386THF     H7 6952   2.253   4.405   1.601 -0.4046  2.5958  0.2497
  386THF     C8 6953   2.354   4.527   1.448 -0.0662 -0.2614 -0.3399
  386THF     C9 6954   2.350   4.671   1.506 -0.0062  0.3497  0.3283
  386THF    H10 6955   2.257   4.524   1.397 -0.6497  3.0278  0.3613
  386THF    H11 6956   2.433   4.502   1.377  0.4904  0.0509  0.1617
  386THF    H12 6957   2.440   4.721   1.471 -0.6943  0.5103 -1.2784
  386THF    H13 6958   2.259   4.719   1.469 -0.4867 -1.3354 -0.7893
  387THF     O1 6959   4.295   2.421   1.247  0.0635  0.0015 -0.2411
  387THF     C2 6960   4.181   2.342   1.287 -0.0835  0.0234 -0.3440
  387THF     C3 6961   4.392   2.340   1.190  0.0456 -0.0814  0.5837
  387THF     H4 6962   4.124   2.319   1.197  1.1346 -2.0467 -0.6568
  387THF     H5 6963   4.098   2.374   1.350 -1.0625  0.3340 -1.7549
  387THF     H6 6964   4.364   2.313   1.089  1.1597 -2.8522  0.9241
  387THF     H7 6965   4.480   2.404   1.190 -1.2154  1.7077 -0.0539
  387THF     C8 6966   4.397   2.216   1.280 -0.0269  0.4737 -0.4659
  387THF     C9 6967   4.250   2.210   1.331 -0.1406  0.3375 -0.3415
  387THF    H10 6968   4.469   2.229   1.361  0.2267  0.2597 -0.6591
  387THF    H11 6969   4.434   2.125   1.234  0.8661  0.8659 -0.5531
  387THF    H12 6970   4.190   2.124   1.301 -0.2619  0.6481 -1.0074
  387THF    H13 6971   4.254   2.211   1.440 -1.7204  0.3171 -0.2642
  388THF     O1 6972   2.203   0.395   1.738 -0.1439  0.0755 -0.3493
  388THF     C2 6973   2.215   0.264   1.687  0.1567  0.3038 -0.0291
  388THF     C3 6974   2.063   0.429   1.745  0.2532  0.4306  0.0677
  388THF     H4 6975   2.296   0.208   1.733  0.0554  2.4076  3.0265
  388THF     H5 6976   2.224   0.278   1.579  0.6674  0.6776  0.0596
  388THF     H6 6977   2.061   0.522   1.801  3.3720 -0.3586  1.6805
  388THF     H7 6978   2.016   0.435   1.646 -1.0751  0.6491  0.6947
  388THF     C8 6979   2.014   0.306   1.822 -0.7017  0.2370  0.0242
  388THF     C9 6980   2.078   0.196   1.739 -0.4850 -0.6887 -0.2714
  388THF    H10 6981   1.906   0.291   1.820 -0.7451  0.5684 -0.3145
  388THF    H11 6982   2.027   0.317   1.929  0.0698 -1.7173  0.1713
  388THF    H12 6983   2.104   0.106   1.795  2.5547 -0.3442 -0.9248
  388THF    H13 6984   2.023   0.180   1.646  0.8824 -1.0152 -1.0579
  389THF     O1 6985   5.361   1.650   5.406  0.5178 -0.2558  0.0822
  389THF     C2 6986   5.278   1.685   5.512  0.5257 -0.0518 -0.6597
  389THF     C3 6987   5.308   1.720   5.290  0.5286  0.9397 -0.8914
  389THF     H4 6988   5.311   1.778   5.558  1.0821  0.2540 -1.6520
  389THF     H5 6989   5.308   1.612   5.586  3.4458  0.9862 -0.7049
  389THF     H6 6990   5.366   1.813   5.285  1.0133  0.5762 -2.5199
  389THF     H7 6991   5.325   1.655   5.204 -0.4232  0.2331 -0.5548
  389THF     C8 6992   5.160   1.739   5.313  0.2393  0.3163  0.2106
  389THF     C9 6993   5.134   1.699   5.456  0.2634 -0.3559 -0.3115
  389THF    H10 6994   5.090   1.690   5.245 -1.1736 -0.3808  2.0567
  389THF    H11 6995   5.146   1.846   5.308 -0.8247  0.2726  1.5196
  389THF    H12 6996   5.080   1.762   5.526  0.3284  0.5904 -1.0905
  389THF    H13 6997   5.097   1.596   5.451  0.2640 -0.3543 -0.3522
  390THF     O1 6998   0.877   3.910   2.500  0.1139 -0.8111  0.1335
  390THF     C2 6999   0.786   3.829   2.432  0.6179  0.2043  0.6192
  390THF     C3 7000   1.007   3.857   2.492 -0.0307  0.2960  0.0693
  390THF     H4 7001   0.696   3.882   2.403  1.0030  0.6647  0.2386
  390THF     H5 7002   0.765   3.731   2.475  0.2069  0.1885  0.3856
  390THF     H6 7003   1.079   3.937   2.509 -0.5002  0.1578  3.3343
  390THF     H7 7004   1.023   3.772   2.559 -0.8021 -0.0322 -0.1516
  390THF     C8 7005   1.011   3.796   2.354 -0.6155  0.3405  0.7745
  390THF     C9 7006   0.864   3.795   2.307 -0.3168  0.1083 -0.6917
  390THF    H10 7007   1.054   3.696   2.366  0.4190  0.4234 -1.5953
  390THF    H11 7008   1.068   3.858   2.285 -1.2035 -0.4768 -0.4778
  390THF    H12 7009   0.843   3.876   2.237 -1.4021  1.2689  0.8937
  390THF    H13 7010   0.839   3.698   2.265  0.5546 -1.3417  1.9051
  391THF     O1 7011   3.824   5.141   4.152  0.4432  0.3222  0.0721
  391THF     C2 7012   3.714   5.188   4.087 -0.1828 -0.2605  0.0591
  391THF     C3 7013   3.836   5.002   4.137 -0.1620  0.2805 -0.9564
  391THF     H4 7014   3.737   5.271   4.020 -1.8812  0.1473 -0.0799
  391THF     H5 7015   3.642   5.231   4.157 -1.3276  2.3682 -2.4945
  391THF     H6 7016   3.941   4.979   4.115  0.0936  0.3914  0.0721
  391THF     H7 7017   3.825   4.944   4.229  0.7092 -1.3310 -1.8231
  391THF     C8 7018   3.741   4.959   4.033  0.0019 -0.3286  0.2288
  391THF     C9 7019   3.644   5.075   4.008  0.0532 -0.6359 -0.0941
  391THF    H10 7020   3.685   4.870   4.060 -1.7964  0.8021  0.4212
  391THF    H11 7021   3.788   4.938   3.937 -0.1110 -1.2624  0.3700
  391THF    H12 7022   3.626   5.093   3.902  1.4079 -1.3666 -0.4719
  391THF    H13 7023   3.548   5.066   4.057 -0.3338  0.3415 -0.6402
  392THF     O1 7024   5.336   4.127   5.202 -0.3383 -0.5075 -0.2848
  392THF     C2 7025   5.341   4.036   5.088  0.0523  0.6920  0.5221
  392THF     C3 7026   5.263   4.241   5.162 -0.5453  0.1025  0.5032
  392THF     H4 7027   5.387   3.946   5.128 -2.2090  0.5112  3.0303
  392THF     H5 7028   5.400   4.086   5.011 -0.8039 -0.3778 -0.9000
  392THF     H6 7029   5.241   4.315   5.239 -1.2345 -0.7773  1.1653
  392THF     H7 7030   5.308   4.296   5.079  1.3687 -0.5954  1.0344
  392THF     C8 7031   5.143   4.158   5.116 -0.2893  0.2751 -0.7446
  392THF     C9 7032   5.193   4.027   5.045 -0.3530  0.9682  0.1790
  392THF    H10 7033   5.074   4.214   5.054 -0.3257  0.9332 -0.1221
  392THF    H11 7034   5.081   4.137   5.204  0.1371 -2.9330 -1.0686
  392THF    H12 7035   5.150   3.936   5.087  1.6524 -0.6621 -1.0864
  392THF    H13 7036   5.170   4.028   4.939 -0.5927  0.9961  0.2314
  393THF     O1 7037   2.204   4.295   4.163  0.0976 -0.1782  0.1046
  393THF     C2 7038   2.114   4.324   4.272  0.0725  0.0959 -0.3290
  393THF     C3 7039   2.135   4.260   4.050  0.6201  0.3954 -0.0154
  393THF     H4 7040   2.078   4.427   4.267  0.9567  0.4774  0.8590
  393THF     H5 7041   2.151   4.316   4.374  1.7705 -0.0195 -0.9329
  393THF     H6 7042   2.108   4.345   3.987 -1.4339  0.0766  0.3742
  393THF     H7 7043   2.202   4.192   3.998  3.2672  0.0273  3.4677
  393THF     C8 7044   1.995   4.201   4.092 -0.8298  0.2476  0.4627
  393THF     C9 7045   1.999   4.228   4.242  0.2983 -0.0281  0.6817
  393THF    H10 7046   1.983   4.094   4.082 -2.5131  0.5367 -1.3355
  393THF    H11 7047   1.918   4.258   4.040  0.4876  0.8796 -0.8619
  393THF    H12 7048   1.903   4.265   4.277  0.7543  1.8058  0.1109
  393THF    H13 7049   2.020   4.134   4.293  0.9303 -0.0089  0.4765
  394THF     O1 7050   4.416   5.481   5.135 -0.2572 -0.0087  0.7661
  394THF     C2 7051   4.476   5.367   5.080  0.3843  0.5979 -0.0087
  394THF     C3 7052   4.479   5.494   5.258 -0.2455  0.1672 -0.6857
  394THF     H4 7053   4.469   5.353   4.972  0.9003 -0.7832  0.1158
  394THF     H5 7054   4.443   5.268   5.111 -0.9671  1.1272  0.3212
  394THF     H6 7055   4.476   5.596   5.297 -1.6045  0.6389 -1.9200
  394THF     H7 7056   4.439   5.430   5.337  3.8088  0.1529  1.6380
  394THF     C8 7057   4.628   5.462   5.241 -0.0973  0.7634 -0.3511
  394THF     C9 7058   4.625   5.387   5.108 -0.1354 -0.5566 -0.0783
  394THF    H10 7059   4.678   5.393   5.310  0.8322  0.6698 -1.0977
  394THF    H11 7060   4.686   5.555   5.241  0.8426  0.1963 -0.9218
  394THF    H12 7061   4.678   5.442   5.030  0.6181  0.4439  1.1027
  394THF    H13 7062   4.669   5.288   5.120 -0.7722 -0.9819 -1.1404
  395THF     O1 7063   3.245   3.485   1.204  0.2128 -0.0058  0.0382
  395THF     C2 7064   3.214   3.344   1.217  0.3228  0.3969  0.3228
  395THF     C3 7065   3.328   3.512   1.319  0.2472  0.2668  0.8126
  395THF     H4 7066   3.299   3.282   1.189 -0.1193  0.7090 -1.9109
  395THF     H5 7067   3.128   3.310   1.158 -1.5735  0.9646  2.6052
  395THF     H6 7068   3.430   3.486   1.292  0.0485 -0.1805  0.4676
  395THF     H7 7069   3.325   3.621   1.326 -1.8505  0.2757  0.6193
  395THF     C8 7070   3.274   3.418   1.429 -0.0938 -0.3440  1.0761
  395THF     C9 7071   3.174   3.322   1.362 -0.2246 -0.4423 -0.1617
  395THF    H10 7072   3.209   3.467   1.501 -1.8030  0.9192 -1.1907
  395THF    H11 7073   3.353   3.357   1.472 -0.0331  0.4363  2.1215
  395THF    H12 7074   3.189   3.217   1.389  0.9603 -0.5527 -1.1502
  395THF    H13 7075   3.069   3.347   1.380 -0.5713 -2.1089  0.3609
  396THF     O1 7076   0.492   5.493   4.559 -0.2097 -0.5393 -0.3535
  396THF     C2 7077   0.607   5.473   4.646 -0.6007 -0.1040 -0.3317
  396THF     C3 7078   0.376   5.448   4.629  0.3869  0.4806 -0.1953
  396THF     H4 7079   0.667   5.561   4.625 -1.6408  0.2835 -1.8455
  396THF     H5 7080   0.661   5.385   4.609  1.7568  1.2112 -0.1694
  396THF     H6 7081   0.291   5.509   4.598 -0.3327  0.1603  1.0479
  396THF     H7 7082   0.347   5.349   4.595  0.2757  1.1136 -2.0504
  396THF     C8 7083   0.402   5.462   4.774  0.3102 -0.4584  0.3309
  396THF     C9 7084   0.552   5.471   4.788 -0.1075 -0.1627  0.0437
  396THF    H10 7085   0.354   5.384   4.832  0.5162  0.0852  1.2549
  396THF    H11 7086   0.353   5.554   4.808 -4.4003 -2.4879 -0.2288
  396THF    H12 7087   0.583   5.551   4.855 -0.0066  0.0214 -0.2196
  396THF    H13 7088   0.590   5.381   4.837  0.9374  0.3249  0.1413
  397THF     O1 7089   2.637   2.317   2.073 -0.4772 -0.6162  0.5662
  397THF     C2 7090   2.534   2.236   2.123 -0.5893 -1.0582 -0.4776
  397THF     C3 7091   2.581   2.386   1.961  0.4278  0.1247  0.2458
  397THF     H4 7092   2.491   2.306   2.195  1.0119  0.3684 -0.8355
  397THF     H5 7093   2.577   2.152   2.178  0.5161  0.2614  0.7563
  397THF     H6 7094   2.519   2.471   1.990  2.1799  1.5021  0.1703
  397THF     H7 7095   2.656   2.441   1.904  1.2104  1.2809  2.3010
  397THF     C8 7096   2.506   2.281   1.887 -0.0314  0.2179 -0.4029
  397THF     C9 7097   2.450   2.204   2.003 -0.5992  0.9797  0.5111
  397THF    H10 7098   2.568   2.209   1.832 -1.6188 -1.1236 -0.5297
  397THF    H11 7099   2.428   2.322   1.823 -0.0982  0.2839 -0.2796
  397THF    H12 7100   2.343   2.223   2.015 -2.3980 -5.0044 -2.2366
  397THF    H13 7101   2.456   2.096   1.994  2.4722  0.9707  1.4704
  398THF     O1 7102   4.844   0.726   2.662 -0.4403 -0.3156 -0.0173
  398THF     C2 7103   4.764   0.622   2.711  0.4945 -0.1208  0.6109
  398THF     C3 7104   4.794   0.750   2.529 -0.3054 -0.3883 -0.6768
  398THF     H4 7105   4.754   0.632   2.819 -0.0401  0.7553  0.4857
  398THF     H5 7106   4.801   0.521   2.692 -1.4636 -0.5640 -1.3886
  398THF     H6 7107   4.837   0.843   2.491 -1.7435  0.2775 -0.7130
  398THF     H7 7108   4.830   0.666   2.468 -1.7517 -3.0962  1.9218
  398THF     C8 7109   4.640   0.743   2.556 -0.4622 -0.6797 -0.0494
  398THF     C9 7110   4.619   0.638   2.657 -0.2740  0.8967 -0.1187
  398THF    H10 7111   4.585   0.737   2.462 -0.0991  0.2524 -0.3335
  398THF    H11 7112   4.590   0.834   2.590 -2.2891 -1.1378 -1.3249
  398THF    H12 7113   4.547   0.659   2.736 -2.7452 -0.2994 -1.9179
  398THF    H13 7114   4.597   0.539   2.617 -0.2011  0.1041  1.6769
  399THF     O1 7115   2.415   3.098   3.622 -0.0465  0.2961  0.3911
  399THF     C2 7116   2.441   3.002   3.526  0.1812  0.6448  0.0448
  399THF     C3 7117   2.275   3.117   3.626  0.9125  0.4185  0.1550
  399THF     H4 7118   2.435   2.903   3.571  0.9881  1.5611  2.3025
  399THF     H5 7119   2.542   3.009   3.486  0.1175  1.1789 -0.0193
  399THF     H6 7120   2.233   3.028   3.673  0.0446  0.8749  0.2415
  399THF     H7 7121   2.234   3.202   3.680  1.1712  0.3437  0.4746
  399THF     C8 7122   2.228   3.108   3.483  0.6713 -0.2334 -0.2449
  399THF     C9 7123   2.342   3.029   3.418  0.8326  0.2083  0.6026
  399THF    H10 7124   2.229   3.210   3.442  0.4670  0.6754  1.8644
  399THF    H11 7125   2.130   3.062   3.492  0.0562  1.3472  2.2449
  399THF    H12 7126   2.286   2.944   3.379  0.3471 -0.2250  2.1748
  399THF    H13 7127   2.383   3.083   3.332 -0.0323  0.8202  0.5563
  400THF     O1 7128   4.547   3.863   2.316  0.1758 -0.3761  0.3885
  400THF     C2 7129   4.652   3.830   2.403  0.5876 -0.0042 -0.1173
  400THF     C3 7130   4.582   3.811   2.189  0.2384 -0.4331 -0.2596
  400THF     H4 7131   4.626   3.843   2.508 -1.8775  0.3461 -0.7185
  400THF     H5 7132   4.725   3.908   2.384 -0.6355  1.1075 -0.4178
  400THF     H6 7133   4.500   3.808   2.117  0.7440  1.4830 -0.9854
  400THF     H7 7134   4.658   3.873   2.142  1.3921 -0.5114  1.4276
  400THF     C8 7135   4.634   3.667   2.226  0.7550 -0.2053  0.1422
  400THF     C9 7136   4.704   3.682   2.364 -0.0639 -0.2602  0.0444
  400THF    H10 7137   4.706   3.633   2.151  0.0382  0.1196 -0.7146
  400THF    H11 7138   4.549   3.601   2.240 -1.7132  2.9273  1.3358
  400THF    H12 7139   4.671   3.606   2.436 -1.2439  0.7419  0.6112
  400THF    H13 7140   4.812   3.687   2.352 -0.1270  0.8801 -0.1590
  401THF     O1 7141   1.483   2.500   3.310 -0.2047 -0.3743  0.7362
  401THF     C2 7142   1.438   2.621   3.250  0.7110  0.6840  0.0327
  401THF     C3 7143   1.381   2.426   3.380 -0.2719  0.3124 -0.4881
  401THF     H4 7144   1.464   2.636   3.145 -2.3297 -1.2071 -1.1076
  401THF     H5 7145   1.472   2.710   3.303  1.7783  1.0594 -1.2375
  401THF     H6 7146   1.351   2.337   3.324  2.3616 -2.7372  2.4690
  401THF     H7 7147   1.419   2.398   3.479  2.1081 -1.4414 -1.7859
  401THF     C8 7148   1.269   2.529   3.386  0.0253 -0.2653  0.1116
  401THF     C9 7149   1.288   2.612   3.255  0.0178  0.1334  0.0661
  401THF    H10 7150   1.292   2.591   3.473 -1.9548  0.6434  0.0421
  401THF    H11 7151   1.170   2.486   3.401 -0.3202 -0.4269 -2.3147
  401THF    H12 7152   1.258   2.545   3.175 -1.1742  1.4351 -0.6170
  401THF    H13 7153   1.228   2.703   3.251  1.4578  1.3501  2.9907
  402THF     O1 7154   2.096   1.141   3.632 -0.3440 -0.3149  0.1314
  402THF     C2 7155   2.036   1.046   3.715  0.5998  0.0260 -0.2744
  402THF     C3 7156   2.020   1.257   3.613  0.0325 -0.2451  0.2699
  402THF     H4 7157   2.116   1.016   3.783  0.8263 -0.3420 -0.6954
  402THF     H5 7158   2.026   0.961   3.647 -1.0150 -0.6532  0.7555
  402THF     H6 7159   2.046   1.346   3.670 -0.6337  1.1785 -1.5179
  402THF     H7 7160   2.021   1.285   3.507 -1.8203  1.6003  0.6528
  402THF     C8 7161   1.879   1.207   3.653  0.7655  0.4746  0.0191
  402THF     C9 7162   1.906   1.101   3.766  0.2497  0.3762 -0.4806
  402THF    H10 7163   1.824   1.171   3.566  0.6938  0.5226  0.0443
  402THF    H11 7164   1.830   1.296   3.694 -3.4332 -1.2145 -0.8436
  402THF    H12 7165   1.917   1.140   3.867 -3.7058 -1.6205  0.9189
  402THF    H13 7166   1.833   1.022   3.781 -0.5899  1.7128  4.3324
  403THF     O1 7167   0.970   4.165   1.577 -0.3930 -0.0087  0.6048
  403THF     C2 7168   0.961   4.196   1.440  0.2118  0.0108  0.8691
  403THF     C3 7169   0.844   4.112   1.606  0.2887  0.3379  0.6929
  403THF     H4 7170   1.060   4.199   1.393  0.2916  1.5189  1.0843
  403THF     H5 7171   0.907   4.289   1.420  0.9085 -0.1028 -1.8666
  403THF     H6 7172   0.844   4.063   1.703  0.3760 -1.6738 -0.2633
  403THF     H7 7173   0.766   4.189   1.603 -1.3145 -1.2339 -0.0750
  403THF     C8 7174   0.812   4.011   1.490  0.4934 -0.2425 -0.0570
  403THF     C9 7175   0.872   4.087   1.379 -0.1851 -0.4606  0.0034
  403THF    H10 7176   0.703   4.002   1.481  0.0497  2.3394  1.7123
  403THF    H11 7177   0.866   3.917   1.502  1.3112  0.2553  0.2196
  403THF    H12 7178   0.937   4.017   1.325 -1.1541 -1.5507  0.1995
  403THF    H13 7179   0.806   4.125   1.301 -1.5452 -2.7475 -0.0582
  404THF     O1 7180   4.711   4.999   3.406 -0.3244 -0.3808  0.1089
  404THF     C2 7181   4.645   4.871   3.406 -0.7748 -0.3224 -0.2756
  404THF     C3 7182   4.811   5.004   3.303 -0.3293  0.5408  0.1839
  404THF     H4 7183   4.552   4.863   3.463 -0.2456 -2.6985  0.3529
  404THF     H5 7184   4.715   4.805   3.456  0.6958 -0.3719 -2.2784
  404THF     H6 7185   4.848   5.103   3.276  0.2917  0.6491  1.3648
  404THF     H7 7186   4.900   4.948   3.329 -0.1739  0.4477 -0.5335
  404THF     C8 7187   4.741   4.923   3.186 -0.1124 -0.4408  0.1614
  404THF     C9 7188   4.630   4.844   3.259 -0.7469 -1.0675  0.2225
  404THF    H10 7189   4.815   4.860   3.137 -2.1998 -3.2545  0.3951
  404THF    H11 7190   4.690   4.991   3.118 -1.2781 -0.8742  0.5787
  404THF    H12 7191   4.537   4.887   3.225 -0.1532 -0.2950 -0.4726
  404THF    H13 7192   4.627   4.738   3.234 -0.1597 -1.2618  0.9250
  405THF     O1 7193   4.240   0.867   1.379  0.6025 -0.1224  0.1763
  405THF     C2 7194   4.111   0.933   1.376 -0.1004  0.2122 -0.1642
  405THF     C3 7195   4.312   0.908   1.267 -0.0096 -0.0902  0.2465
  405THF     H4 7196   4.095   1.010   1.451  0.6357 -1.4936  1.8628
  405THF     H5 7197   4.035   0.862   1.410 -0.8894  1.3747  0.5485
  405THF     H6 7198   4.370   0.997   1.293  0.3957 -0.4041  0.4238
  405THF     H7 7199   4.389   0.843   1.227 -2.0424 -2.1193 -0.5428
  405THF     C8 7200   4.207   0.938   1.155 -0.0836  0.0056 -0.2136
  405THF     C9 7201   4.087   0.985   1.235  0.2274  0.3504  0.0523
  405THF    H10 7202   4.187   0.838   1.116  0.1461 -0.6310  1.2196
  405THF    H11 7203   4.241   1.007   1.079 -0.7787 -1.6466 -2.1226
  405THF    H12 7204   4.089   1.093   1.227 -0.5636  0.2916 -1.1880
  405THF    H13 7205   3.999   0.938   1.190 -0.7948 -0.3475  2.5611
  406THF     O1 7206   1.475   4.280   4.092 -0.0821 -0.6046 -0.7295
  406THF     C2 7207   1.359   4.199   4.064 -0.2013  0.3153  0.1825
  406THF     C3 7208   1.548   4.295   3.969  1.3640  0.1447 -0.5573
  406THF     H4 7209   1.292   4.211   4.149  1.0964  0.4917  1.2282
  406THF     H5 7210   1.385   4.093   4.070 -0.6846  0.1692 -0.3267
  406THF     H6 7211   1.586   4.397   3.961 -1.3876  1.2231 -1.0762
  406THF     H7 7212   1.632   4.229   3.954  1.3839  0.4007 -1.7243
  406THF     C8 7213   1.439   4.272   3.862  0.2749  0.4868 -0.1761
  406THF     C9 7214   1.308   4.256   3.930 -0.0940  1.2740  0.5431
  406THF    H10 7215   1.460   4.169   3.832 -4.3891 -0.5494 -0.6363
  406THF    H11 7216   1.449   4.337   3.774  0.7475  1.6295  0.6915
  406THF    H12 7217   1.252   4.348   3.944  0.4954  1.5398  1.2566
  406THF    H13 7218   1.241   4.188   3.878  0.5480 -0.1023  1.4311
  407THF     O1 7219   1.451   1.535   3.524  0.6783  0.1532 -0.1368
  407THF     C2 7220   1.405   1.610   3.636  0.0261 -0.3087 -0.1298
  407THF     C3 7221   1.367   1.423   3.500 -0.0395  0.9061  0.0389
  407THF     H4 7222   1.425   1.717   3.635 -0.8831 -0.1212  0.7994
  407THF     H5 7223   1.454   1.574   3.727  0.9134 -1.2012 -0.9291
  407THF     H6 7224   1.328   1.420   3.398  2.3401 -0.3564 -0.9106
  407THF     H7 7225   1.416   1.328   3.521 -0.0583  0.7179 -0.7561
  407THF     C8 7226   1.246   1.444   3.597  0.5590 -0.6906  0.3010
  407THF     C9 7227   1.256   1.589   3.635  0.3600  0.2160  0.7161
  407THF    H10 7228   1.247   1.378   3.684 -4.2274 -1.1140  0.3123
  407THF    H11 7229   1.154   1.413   3.547 -0.4482 -1.2288  2.3575
  407THF    H12 7230   1.217   1.661   3.563  0.9794  0.1370  0.2943
  407THF    H13 7231   1.215   1.595   3.736  1.7204 -0.3120  1.3229
  408THF     O1 7232   1.142   0.073   1.031 -0.1315 -0.4859 -0.4883
  408THF     C2 7233   1.196  -0.047   1.077 -0.9633  0.8333  0.1447
  408THF     C3 7234   1.209   0.182   1.082  0.5618  0.9252  0.3051
  408THF     H4 7235   1.249  -0.107   1.003  0.3711 -0.0936  1.7932
  408THF     H5 7236   1.114  -0.111   1.109 -1.9179  2.3143  0.7546
  408THF     H6 7237   1.301   0.199   1.027 -0.4277  0.5916 -1.5413
  408THF     H7 7238   1.139   0.265   1.066  0.8727  1.6505  2.3997
  408THF     C8 7239   1.240   0.135   1.227 -0.0484  0.5946 -0.7808
  408THF     C9 7240   1.279  -0.014   1.209 -0.5128 -0.4411  0.7494
  408THF    H10 7241   1.158   0.134   1.298  0.5322 -1.0852 -0.0901
  408THF    H11 7242   1.319   0.190   1.278 -0.6621  0.5906  0.1861
  408THF    H12 7243   1.387  -0.031   1.208 -0.6025 -1.1496  1.7614
  408THF    H13 7244   1.239  -0.072   1.292  1.2591  1.7545  3.3002
  409THF     O1 7245   2.864   1.137   0.891  0.6841 -0.0112  0.4142
  409THF     C2 7246   2.894   1.093   0.765 -0.1505  0.4260 -0.0394
  409THF     C3 7247   2.770   1.241   0.880 -0.2266  0.2397  0.1531
  409THF     H4 7248   2.832   1.009   0.733  1.0211 -0.5571  0.1963
  409THF     H5 7249   2.995   1.053   0.762 -0.6537 -0.8649 -0.9500
  409THF     H6 7250   2.670   1.205   0.856 -0.1222  1.4657 -2.4991
  409THF     H7 7251   2.767   1.301   0.971  0.4829 -2.1799  1.8644
  409THF     C8 7252   2.822   1.321   0.759  0.1180  0.2131  0.7198
  409THF     C9 7253   2.872   1.212   0.667  0.8310 -0.5734 -0.1236
  409THF    H10 7254   2.900   1.391   0.790  1.4772 -0.4582 -1.0593
  409THF    H11 7255   2.746   1.385   0.713  1.4635 -0.3149 -2.4414
  409THF    H12 7256   2.784   1.197   0.604 -1.4900  1.6232  2.3029
  409THF    H13 7257   2.953   1.240   0.600 -0.2045  1.3855 -0.6301
  410THF     O1 7258   4.249   3.978   4.014 -0.1001  0.5487  0.0733
  410THF     C2 7259   4.201   4.098   3.969  0.3219  0.1238  0.5837
  410THF     C3 7260   4.332   4.025   4.125 -0.7482  0.4643 -0.6390
  410THF     H4 7261   4.118   4.078   3.902  0.9110 -3.2939  0.7304
  410THF     H5 7262   4.281   4.152   3.918  2.0471 -1.2382  1.7391
  410THF     H6 7263   4.361   3.938   4.184  1.0089 -0.3235 -2.5563
  410THF     H7 7264   4.422   4.075   4.090  0.7286 -2.0529 -0.6745
  410THF     C8 7265   4.239   4.111   4.200  0.2650  0.3047 -0.4832
  410THF     C9 7266   4.148   4.166   4.090 -0.8489  0.0785 -0.1783
  410THF    H10 7267   4.289   4.182   4.266 -0.8490  1.5322 -0.9165
  410THF    H11 7268   4.179   4.050   4.267 -0.7399  1.5135 -0.2400
  410THF    H12 7269   4.047   4.137   4.116 -0.2122 -1.6689  0.4943
  410THF    H13 7270   4.161   4.274   4.099  1.0443 -0.0078 -1.3255
  411THF     O1 7271   0.258   0.143   5.185  0.5587  0.1499  0.1548
  411THF     C2 7272   0.128   0.157   5.237  0.1002  0.6526  0.5828
  411THF     C3 7273   0.265   0.074   5.061  0.0357  0.6770  0.5186
  411THF     H4 7274   0.073   0.244   5.201 -0.5354 -0.0019 -0.0526
  411THF     H5 7275   0.156   0.161   5.343 -0.8831  0.7131  0.8490
  411THF     H6 7276   0.232   0.148   4.988 -1.2156 -0.5736 -0.2128
  411THF     H7 7277   0.365   0.048   5.026 -0.0804 -1.3703  1.6059
  411THF     C8 7278   0.153  -0.039   5.083  0.0142  0.4212  0.2184
  411THF     C9 7279   0.067   0.022   5.200  0.0451  0.3520  0.1958
  411THF    H10 7280   0.207  -0.122   5.127  0.9101  1.6705  1.5727
  411THF    H11 7281   0.106  -0.066   4.988  0.1054  0.0139  0.2908
  411THF    H12 7282  -0.040   0.030   5.180  0.0906  0.7444  0.1070
  411THF    H13 7283   0.062  -0.037   5.291 -2.3997  1.0802  0.6218
  412THF     O1 7284   3.702   1.764   3.652  0.0974  0.6399  0.0306
  412THF     C2 7285   3.700   1.626   3.644 -0.2506 -1.1196 -0.7510
  412THF     C3 7286   3.607   1.803   3.737 -0.1716 -0.2433 -0.8023
  412THF     H4 7287   3.788   1.592   3.588  0.0783 -0.5394 -0.5910
  412THF     H5 7288   3.613   1.599   3.585 -0.1476 -1.6792 -0.6598
  412THF     H6 7289   3.627   1.901   3.781 -1.4367  0.1394 -1.0092
  412THF     H7 7290   3.510   1.808   3.687  0.0142  0.3144 -1.1225
  412THF     C8 7291   3.604   1.697   3.844  0.1338  0.1662 -0.0153
  412THF     C9 7292   3.695   1.590   3.790 -0.5995 -0.1010  0.1015
  412THF    H10 7293   3.500   1.665   3.850 -0.7659  2.5228 -1.4933
  412THF    H11 7294   3.632   1.728   3.945 -0.0576  1.9967 -0.4829
  412THF    H12 7295   3.792   1.609   3.836 -0.9129  1.1036  0.2900
  412THF    H13 7296   3.666   1.486   3.804 -1.7442  0.2089  0.0899
  413THF     O1 7297   4.925   2.710   0.822 -0.1660  0.1361 -0.0814
  413THF     C2 7298   4.878   2.826   0.888 -0.7290 -0.0259 -0.3876
  413THF     C3 7299   4.934   2.757   0.683 -0.2755  0.5411 -0.4908
  413THF     H4 7300   4.894   2.824   0.996 -0.5447  1.1819 -0.3853
  413THF     H5 7301   4.769   2.829   0.881 -1.1323  0.3645  3.6913
  413THF     H6 7302   5.019   2.714   0.630 -1.7825  0.7739 -3.2844
  413THF     H7 7303   4.844   2.730   0.627 -0.9534  1.3296  0.1864
  413THF     C8 7304   4.934   2.911   0.684  0.3199 -0.4590 -0.0801
  413THF     C9 7305   4.926   2.952   0.825 -0.5704 -0.4233 -0.0460
  413THF    H10 7306   4.851   2.946   0.623  0.6097  0.4850  0.0449
  413THF    H11 7307   5.021   2.958   0.638  0.3381  0.4721  0.8846
  413THF    H12 7308   5.022   2.988   0.864 -0.8464  4.0161 -2.8075
  413THF    H13 7309   4.857   3.036   0.835 -1.0321 -0.7380 -0.5470
  414THF     O1 7310   1.396   0.886   4.817 -0.2698  0.2244 -0.0916
  414THF     C2 7311   1.277   0.954   4.800  0.3069 -0.2069  0.5478
  414THF     C3 7312   1.409   0.844   4.954  0.5295  0.2306  0.3233
  414THF     H4 7313   1.197   0.880   4.792  2.8967 -2.9826 -2.8216
  414THF     H5 7314   1.289   1.011   4.708 -0.3376  0.1290  0.6639
  414THF     H6 7315   1.348   0.755   4.973  0.9171  0.0689  0.8340
  414THF     H7 7316   1.508   0.819   4.993  0.0751  2.2307  3.0510
  414THF     C8 7317   1.346   0.958   5.027 -0.0700  0.5019  0.4022
  414THF     C9 7318   1.272   1.048   4.926 -0.4289  0.0558  0.3771
  414THF    H10 7319   1.412   0.999   5.104  1.0761 -0.6235  0.0450
  414THF    H11 7320   1.269   0.921   5.094 -1.1524  2.5128  0.3575
  414THF    H12 7321   1.167   1.068   4.946 -0.9886 -2.6758  0.6461
  414THF    H13 7322   1.303   1.150   4.906 -1.7692  0.0313 -2.1114
  415THF     O1 7323   0.658   4.388   0.109  0.1935  0.0449  0.4638
  415THF     C2 7324   0.600   4.371  -0.018 -0.6772  0.3216 -0.4386
  415THF     C3 7325   0.774   4.467   0.087  0.0221 -0.5346 -0.0043
  415THF     H4 7326   0.499   4.334  -0.002 -0.1585 -0.6617  0.7166
  415THF     H5 7327   0.667   4.300  -0.067  3.3200  2.6471  1.1620
  415THF     H6 7328   0.823   4.502   0.178 -0.1586 -1.1829  0.3517
  415THF     H7 7329   0.848   4.402   0.041  2.1999  2.1487 -0.5338
  415THF     C8 7330   0.727   4.565  -0.010 -0.2373  0.3099  0.0522
  415THF     C9 7331   0.616   4.501  -0.094  0.3644  0.4573  0.5187
  415THF    H10 7332   0.803   4.616  -0.070 -2.1354  1.5561 -1.4369
  415THF    H11 7333   0.687   4.648   0.049 -0.7785  0.7961 -0.9765
  415THF    H12 7334   0.525   4.561  -0.095  0.6242  0.8909 -1.4450
  415THF    H13 7335   0.649   4.475  -0.195  1.1142 -0.9119  1.0846
  416THF     O1 7336   2.431   4.550   3.789  0.0239 -0.2602  0.0954
  416THF     C2 7337   2.516   4.598   3.683 -0.3647  0.2600  0.6355
  416THF     C3 7338   2.510   4.478   3.877 -0.2492  0.4070 -0.1078
  416THF     H4 7339   2.590   4.668   3.721  0.3776  0.4853 -1.1323
  416THF     H5 7340   2.461   4.649   3.604 -0.1273 -0.4226  0.0252
  416THF     H6 7341   2.590   4.534   3.926 -1.6341  2.0167  0.4032
  416THF     H7 7342   2.438   4.442   3.950 -0.9179 -0.4115 -1.1304
  416THF     C8 7343   2.581   4.383   3.777  0.3238 -0.5994 -0.0035
  416THF     C9 7344   2.571   4.464   3.648  0.4986  0.1053  0.0958
  416THF    H10 7345   2.527   4.288   3.774 -4.5523  1.8379 -3.1929
  416THF    H11 7346   2.683   4.369   3.813  0.2910 -2.2083 -0.4290
  416THF    H12 7347   2.674   4.471   3.613  1.1896 -0.3684  1.9250
  416THF    H13 7348   2.498   4.420   3.580  2.2916 -0.5396 -1.5143
  417THF     O1 7349   5.478   4.988   5.416  0.0684 -0.2061 -0.0813
  417THF     C2 7350   5.564   5.073   5.483  0.1196  0.5902 -0.2668
  417THF     C3 7351   5.555   4.891   5.349  0.7287 -0.4223  0.5909
  417THF     H4 7352   5.604   5.028   5.573 -3.9295  1.7204  2.3705
  417THF     H5 7353   5.519   5.162   5.527  0.6528 -0.2231  2.0292
  417THF     H6 7354   5.580   4.813   5.421 -1.2282  0.2065  2.0330
  417THF     H7 7355   5.498   4.831   5.279 -0.1024  1.1666 -0.1500
  417THF     C8 7356   5.668   4.971   5.288  0.2432 -0.1602 -0.3214
  417THF     C9 7357   5.671   5.099   5.373  0.5777  0.3958  0.4495
  417THF    H10 7358   5.645   4.997   5.184  0.8412  0.6518 -0.2596
  417THF    H11 7359   5.765   4.923   5.294 -0.7814 -2.3051  0.0779
  417THF    H12 7360   5.765   5.107   5.427  0.7588 -0.3550  0.2562
  417THF    H13 7361   5.664   5.190   5.313  1.8858 -0.9928 -1.9504
  418THF     O1 7362   0.028   0.689   4.260  0.7984 -0.1081 -0.7904
  418THF     C2 7363  -0.105   0.661   4.199  0.1310  0.1938 -0.3466
  418THF     C3 7364   0.034   0.606   4.374  0.3570 -0.0344  0.4436
  418THF     H4 7365  -0.114   0.694   4.096 -0.5145  0.9257 -0.0648
  418THF     H5 7366  -0.184   0.715   4.251 -0.9845 -0.3507 -1.4250
  418THF     H6 7367   0.136   0.569   4.364  0.0440 -0.6492 -0.6159
  418THF     H7 7368   0.036   0.657   4.471 -1.2257 -1.1626  1.0966
  418THF     C8 7369  -0.065   0.493   4.364  0.4196  0.2793 -0.1754
  418THF     C9 7370  -0.121   0.512   4.226 -0.6717  0.2927 -0.8052
  418THF    H10 7371  -0.132   0.510   4.447  1.5014 -1.0737  1.0296
  418THF    H11 7372  -0.014   0.396   4.372 -1.8019 -0.9145  0.2758
  418THF    H12 7373  -0.067   0.454   4.151  0.1153 -0.4277  0.2946
  418THF    H13 7374  -0.225   0.483   4.223 -0.3888 -0.7727 -0.5664
  419THF     O1 7375   0.860   4.091   4.557  0.3436  0.0916 -0.5047
  419THF     C2 7376   0.884   4.212   4.631  0.4807 -0.4859  0.0041
  419THF     C3 7377   0.734   4.102   4.501 -0.1813  0.1867 -0.1752
  419THF     H4 7378   0.892   4.305   4.573 -1.1829 -0.7176 -0.6474
  419THF     H5 7379   0.973   4.203   4.694 -0.2002 -0.4585  0.9798
  419THF     H6 7380   0.731   4.165   4.412 -2.9006  0.8644  0.2812
  419THF     H7 7381   0.691   4.004   4.479  0.5418 -0.1402 -0.1340
  419THF     C8 7382   0.651   4.183   4.604  0.0970  0.6358  0.6241
  419THF     C9 7383   0.758   4.216   4.714  0.0284 -0.1291  0.3935
  419THF    H10 7384   0.575   4.117   4.646 -0.0532  0.1879 -0.3277
  419THF    H11 7385   0.614   4.272   4.554 -1.4872  0.8932  2.1519
  419THF    H12 7386   0.734   4.307   4.768  0.9534  0.5796 -0.3613
  419THF    H13 7387   0.762   4.135   4.787  1.1842 -2.4807 -2.0797
  420THF     O1 7388   3.197   0.114   4.497 -0.7642  0.2430  0.2133
  420THF     C2 7389   3.259   0.101   4.621 -0.1866  0.1869 -0.2677
  420THF     C3 7390   3.081   0.200   4.507 -0.9783 -0.1479  0.1808
  420THF     H4 7391   3.319   0.188   4.649 -0.1157  0.2301 -0.5455
  420THF     H5 7392   3.329   0.017   4.617 -3.4260 -2.6837 -1.6381
  420THF     H6 7393   3.115   0.300   4.535 -0.3962 -0.2126 -0.2822
  420THF     H7 7394   3.026   0.219   4.415 -0.7452 -0.1573  0.0398
  420THF     C8 7395   3.015   0.142   4.625  0.4305  0.0227 -0.2931
  420THF     C9 7396   3.136   0.087   4.709  0.7060  0.3602 -0.8339
  420THF    H10 7397   2.939   0.067   4.601 -1.8664  1.0897  3.0455
  420THF    H11 7398   2.961   0.218   4.680  3.2206  2.6805 -0.9481
  420THF    H12 7399   3.147   0.138   4.804  1.6809  0.4611 -0.9977
  420THF    H13 7400   3.119  -0.016   4.742 -0.2337  1.1950  1.4685
  421THF     O1 7401   0.907   1.195   2.227 -0.3664  0.1911  0.4853
  421THF     C2 7402   1.018   1.206   2.131  0.0301 -0.0218  0.2172
  421THF     C3 7403   0.845   1.325   2.235  0.5384  0.2830 -0.2748
  421THF     H4 7404   1.037   1.119   2.069  0.0178 -1.4895  2.1830
  421THF     H5 7405   1.111   1.230   2.183 -0.2630 -0.6288  1.0385
  421THF     H6 7406   0.743   1.317   2.272  0.8636  0.4065  0.6736
  421THF     H7 7407   0.907   1.383   2.303  0.6920  0.6836 -0.7509
  421THF     C8 7408   0.849   1.371   2.087 -0.5239 -0.4219 -0.3123
  421THF     C9 7409   0.987   1.329   2.041  0.4700  0.4772 -1.0029
  421THF    H10 7410   0.841   1.478   2.068  0.3883 -0.4455 -0.9265
  421THF    H11 7411   0.773   1.317   2.030 -1.4579  0.3896  0.1422
  421THF    H12 7412   1.003   1.310   1.935  4.4470  0.0899 -0.5192
  421THF    H13 7413   1.058   1.408   2.066  0.9858 -1.0802  3.4579
  422THF     O1 7414   3.431   3.934   1.349 -0.5034 -0.3302  0.4121
  422THF     C2 7415   3.505   3.890   1.461 -0.0940  0.2230 -0.1698
  422THF     C3 7416   3.505   4.042   1.293 -0.1571 -0.1704  0.2323
  422THF     H4 7417   3.565   3.801   1.444  0.1810  0.1826  0.9403
  422THF     H5 7418   3.440   3.864   1.545  1.8587 -0.3837  1.2381
  422THF     H6 7419   3.587   4.002   1.233  1.1035  0.2177  1.6330
  422THF     H7 7420   3.440   4.102   1.229  1.8488  1.4414 -0.4146
  422THF     C8 7421   3.564   4.120   1.406  0.1038 -0.0043  0.0963
  422THF     C9 7422   3.602   4.009   1.501  0.0262  0.0516  0.0907
  422THF    H10 7423   3.506   4.197   1.457 -0.3255 -0.3298  0.1066
  422THF    H11 7424   3.658   4.168   1.383  0.2111 -0.5985 -0.7680
  422THF    H12 7425   3.706   3.977   1.495 -0.0925 -0.3439  0.1321
  422THF    H13 7426   3.589   4.036   1.606 -1.4868 -0.2941  0.0144
  423THF     O1 7427   0.309   4.149   1.003  0.3896 -0.2140  0.1276
  423THF     C2 7428   0.439   4.116   0.951  0.0388 -0.4306  0.3523
  423THF     C3 7429   0.309   4.168   1.143  0.5311  0.0735  0.5953
  423THF     H4 7430   0.493   4.202   0.913 -0.7749 -1.1514 -2.7175
  423THF     H5 7431   0.423   4.047   0.868  0.3790  1.3291 -1.2429
  423THF     H6 7432   0.281   4.267   1.179  1.2088  0.4184  0.2033
  423THF     H7 7433   0.221   4.112   1.172 -0.3744 -0.1884 -2.3056
  423THF     C8 7434   0.450   4.141   1.183 -0.9270 -0.1115 -0.5264
  423THF     C9 7435   0.507   4.054   1.074 -1.0383 -0.5661 -0.1264
  423THF    H10 7436   0.457   4.096   1.282 -0.0772  0.1500 -0.4658
  423THF    H11 7437   0.501   4.234   1.206 -0.5563 -0.6163  0.7528
  423THF    H12 7438   0.615   4.065   1.060 -1.0949 -0.8559 -0.8567
  423THF    H13 7439   0.479   3.949   1.085 -2.5448 -0.2947 -0.9924
  424THF     O1 7440   2.966   1.463   1.620  0.2845  0.5025  0.0219
  424THF     C2 7441   2.862   1.401   1.545  0.7957 -0.3674  0.1842
  424THF     C3 7442   2.987   1.384   1.740  0.4583 -0.1195 -1.0420
  424THF     H4 7443   2.906   1.317   1.490 -1.1581 -1.9548  0.9009
  424THF     H5 7444   2.814   1.475   1.481 -1.2975 -0.6148  1.3903
  424THF     H6 7445   3.087   1.340   1.747  1.2042  1.5854 -0.4613
  424THF     H7 7446   2.984   1.460   1.818  0.8453 -1.3981  0.2479
  424THF     C8 7447   2.864   1.287   1.746  0.1885 -0.1982 -0.1000
  424THF     C9 7448   2.763   1.350   1.651 -0.5988  0.6739 -0.4015
  424THF    H10 7449   2.829   1.290   1.849 -2.2896 -0.8134 -0.8676
  424THF    H11 7450   2.895   1.191   1.704  0.6387 -0.5798  1.0773
  424THF    H12 7451   2.699   1.278   1.601  0.6938 -0.6385 -0.2458
  424THF    H13 7452   2.698   1.423   1.698 -1.4603 -0.6188  0.4668
  425THF     O1 7453   4.960   2.989   1.697 -0.4614  0.4956  0.1912
  425THF     C2 7454   5.080   2.985   1.619 -0.3056  0.6929 -0.2726
  425THF     C3 7455   4.940   2.856   1.750  0.8311  0.3646  0.2241
  425THF     H4 7456   5.157   3.051   1.659  1.4090 -1.4596  0.1839
  425THF     H5 7457   5.053   3.015   1.518  1.6646 -0.9156 -1.3445
  425THF     H6 7458   4.900   2.859   1.851 -0.3280  0.3543 -0.2256
  425THF     H7 7459   4.874   2.800   1.684  1.6297  0.5588 -0.7584
  425THF     C8 7460   5.075   2.779   1.747  0.1733 -0.7985  0.2029
  425THF     C9 7461   5.135   2.839   1.624  0.3826  0.1726 -0.6721
  425THF    H10 7462   5.067   2.671   1.736  0.1732 -0.8087  0.3056
  425THF    H11 7463   5.140   2.800   1.832  2.2399 -1.0316 -1.2406
  425THF    H12 7464   5.243   2.837   1.619  0.3238 -0.7567 -2.1797
  425THF    H13 7465   5.094   2.788   1.536 -0.4681 -0.3547  0.0073
  426THF     O1 7466   2.030   4.031   4.875  0.5429 -0.2340 -0.3615
  426THF     C2 7467   1.918   4.085   4.806  0.0078  0.5070 -0.1867
  426THF     C3 7468   2.031   3.886   4.861  0.5586 -0.4841  0.1316
  426THF     H4 7469   1.918   4.188   4.768 -0.2485  0.1683 -1.1350
  426THF     H5 7470   1.831   4.086   4.872  0.8931 -0.6979  1.0441
  426THF     H6 7471   2.134   3.852   4.851  1.2818  1.3992  0.7813
  426THF     H7 7472   2.003   3.847   4.959  1.2138 -1.0666  0.1008
  426THF     C8 7473   1.944   3.848   4.746  0.6956 -0.0198  0.1491
  426THF     C9 7474   1.890   3.984   4.695 -0.1259  0.0591 -0.1404
  426THF    H10 7475   1.862   3.784   4.781  0.3587  1.4602  2.2281
  426THF    H11 7476   1.997   3.801   4.663  0.7417 -0.9147  0.6648
  426THF    H12 7477   1.938   4.029   4.608 -0.8882  0.8523 -0.1527
  426THF    H13 7478   1.783   3.990   4.681  0.0356  1.2718 -1.0001
  427THF     O1 7479   1.167   5.025   3.153  0.3226 -0.0485  0.4000
  427THF     C2 7480   1.142   4.944   3.263 -0.3112 -0.4285 -0.1832
  427THF     C3 7481   1.049   5.109   3.142 -0.1644  0.2624 -0.4668
  427THF     H4 7482   1.224   4.903   3.322  0.0848 -0.8603 -1.0136
  427THF     H5 7483   1.082   4.858   3.233 -0.0045 -1.1545  1.2317
  427THF     H6 7484   1.073   5.192   3.076  2.1585  1.3310  1.5752
  427THF     H7 7485   0.971   5.041   3.107  0.5752 -0.8103 -0.0921
  427THF     C8 7486   1.021   5.151   3.285 -0.6815  0.0017  0.9060
  427THF     C9 7487   1.052   5.024   3.355 -0.7511 -0.1724  0.1008
  427THF    H10 7488   0.917   5.185   3.282 -0.3796  0.8828  0.4275
  427THF    H11 7489   1.098   5.225   3.304  0.1561 -1.3611  3.1623
  427THF    H12 7490   1.102   5.043   3.450 -0.7544  2.1577 -0.3241
  427THF    H13 7491   0.960   4.970   3.379 -0.4136  0.0239  1.9616
  428THF     O1 7492   5.311   2.092   3.208 -0.3329  0.1253 -0.3606
  428THF     C2 7493   5.273   2.225   3.214 -0.3720  0.5978  0.1885
  428THF     C3 7494   5.205   2.005   3.264 -0.5793 -0.3581  0.9194
  428THF     H4 7495   5.207   2.235   3.128  0.8480  2.5727 -0.5883
  428THF     H5 7496   5.349   2.301   3.198  0.0314  0.0163 -0.7114
  428THF     H6 7497   5.147   1.956   3.186 -1.5713 -0.6246  1.8006
  428THF     H7 7498   5.241   1.914   3.313 -0.0264  0.8536  2.8708
  428THF     C8 7499   5.134   2.086   3.362  0.0646  0.4026 -0.5230
  428THF     C9 7500   5.192   2.232   3.343  0.3193  0.6131  0.5082
  428THF    H10 7501   5.157   2.074   3.468 -2.2660  0.0228 -0.0104
  428THF    H11 7502   5.029   2.093   3.332 -0.3922 -2.2367  0.2461
  428THF    H12 7503   5.109   2.302   3.332  0.0768  0.6780  2.5153
  428THF    H13 7504   5.254   2.260   3.428  0.1188  2.2628  0.1547
  429THF     O1 7505   1.294   2.487   3.749 -0.2993 -0.1871 -0.4783
  429THF     C2 7506   1.325   2.503   3.889 -0.1126 -0.7031  0.4871
  429THF     C3 7507   1.155   2.492   3.730  0.1830 -0.1318  0.3331
  429THF     H4 7508   1.313   2.607   3.919  0.5626 -0.3107 -0.5346
  429THF     H5 7509   1.430   2.475   3.898 -0.0611 -0.0547  2.2109
  429THF     H6 7510   1.117   2.588   3.764 -3.0987 -0.6394 -1.4593
  429THF     H7 7511   1.124   2.472   3.628 -1.1188 -1.3528  0.9311
  429THF     C8 7512   1.122   2.380   3.823  0.1600  0.2376 -0.1823
  429THF     C9 7513   1.217   2.409   3.941 -0.2100 -0.2052 -0.3669
  429THF    H10 7514   1.128   2.286   3.768 -1.8062 -0.1234  0.1374
  429THF    H11 7515   1.018   2.401   3.847  0.6762  2.8214  0.0982
  429THF    H12 7516   1.160   2.454   4.022  0.4009  0.1928 -0.1458
  429THF    H13 7517   1.251   2.318   3.991 -1.5019 -0.0662  0.8035
  430THF     O1 7518   1.014   0.623   3.389 -0.0573 -0.1227 -0.1508
  430THF     C2 7519   1.112   0.522   3.356  1.1372 -0.4718  0.9544
  430THF     C3 7520   0.993   0.724   3.292  0.2321 -0.6461  0.2426
  430THF     H4 7521   1.063   0.433   3.316  1.1290  0.0294 -0.1956
  430THF     H5 7522   1.175   0.498   3.441  2.6869 -2.2929 -0.6070
  430THF     H6 7523   0.930   0.677   3.216  0.2137 -1.6034  0.8327
  430THF     H7 7524   0.932   0.810   3.322  0.8583  1.5195 -3.8889
  430THF     C8 7525   1.135   0.741   3.244 -0.5246  0.3551 -0.6276
  430THF     C9 7526   1.191   0.593   3.248  0.1011  0.3327  0.1252
  430THF    H10 7527   1.196   0.805   3.307  0.5405 -0.2707 -0.9895
  430THF    H11 7528   1.132   0.784   3.143 -1.0627  0.1123 -0.7209
  430THF    H12 7529   1.171   0.537   3.156  1.1974  0.8160 -0.4266
  430THF    H13 7530   1.299   0.585   3.256  0.0823  0.1037  0.1726
  431THF     O1 7531   2.832   1.946   0.645  0.6699  0.4206  0.2740
  431THF     C2 7532   2.804   1.939   0.782  0.5663 -0.3315 -0.0682
  431THF     C3 7533   2.875   1.823   0.596  0.3575  0.5061  0.4872
  431THF     H4 7534   2.721   2.003   0.812 -0.4876 -1.2859 -0.8367
  431THF     H5 7535   2.892   1.973   0.836  1.4098 -0.3958 -1.3585
  431THF     H6 7536   2.868   1.818   0.487  0.5762 -0.7879  0.5189
  431THF     H7 7537   2.980   1.827   0.624  0.3913  1.8620  0.2598
  431THF     C8 7538   2.789   1.723   0.676  0.2872 -0.2119  0.3843
  431THF     C9 7539   2.774   1.786   0.810  0.3766  0.2828  0.8841
  431THF    H10 7540   2.832   1.622   0.679 -0.8695 -0.7160  0.6410
  431THF    H11 7541   2.691   1.723   0.628  0.1100  1.6865  0.6763
  431THF    H12 7542   2.674   1.778   0.852  0.4209  1.8704  1.3537
  431THF    H13 7543   2.849   1.751   0.882 -0.6473  0.5864  2.1354
  432THF     O1 7544   4.563   1.851   1.575  0.0081  0.1473  0.3014
  432THF     C2 7545   4.547   1.931   1.463  0.0943  0.4522  0.3316
  432THF     C3 7546   4.679   1.775   1.549 -0.4493  0.1077 -0.3391
  432THF     H4 7547   4.627   2.005   1.464 -0.4020  0.9976  0.9932
  432THF     H5 7548   4.450   1.981   1.470 -0.2600 -0.2911  1.0520
  432THF     H6 7549   4.764   1.841   1.563  0.6372 -1.3585  0.1402
  432THF     H7 7550   4.685   1.680   1.603  0.7736 -2.1578 -4.0645
  432THF     C8 7551   4.678   1.741   1.400  0.3447  0.5783  0.3204
  432THF     C9 7552   4.557   1.819   1.358 -0.1215  0.0154 -0.2550
  432THF    H10 7553   4.666   1.637   1.371  3.8489  0.3302 -0.6767
  432THF    H11 7554   4.771   1.777   1.355  0.1975  2.2575  1.2843
  432THF    H12 7555   4.550   1.840   1.251  1.3852  0.4161 -0.3018
  432THF    H13 7556   4.464   1.764   1.375  0.8285 -1.1340  1.4193
  433THF     O1 7557   5.052   2.173   0.001  0.5059  0.2544 -0.1652
  433THF     C2 7558   5.190   2.154  -0.038  0.2701 -0.4315 -0.8439
  433THF     C3 7559   5.043   2.100   0.122  0.4774  0.2829  0.3726
  433THF     H4 7560   5.217   2.241  -0.096  0.4009 -0.7610 -1.2837
  433THF     H5 7561   5.207   2.065  -0.098  3.2350  0.1874 -1.0628
  433THF     H6 7562   4.954   2.110   0.184 -0.3207  1.2717 -0.8897
  433THF     H7 7563   5.054   1.992   0.112 -0.6721  0.1507  0.4259
  433THF     C8 7564   5.168   2.139   0.200 -0.3974  0.1122  0.1814
  433THF     C9 7565   5.272   2.128   0.092  0.7440 -0.6867  0.5396
  433THF    H10 7566   5.201   2.077   0.284  1.1429  0.9895  0.2641
  433THF    H11 7567   5.166   2.244   0.231  1.3105  0.3602 -0.4352
  433THF    H12 7568   5.349   2.204   0.102  1.3115 -1.1268 -0.3423
  433THF    H13 7569   5.315   2.028   0.084  1.8920 -0.3969  2.5743
  434THF     O1 7570   1.762   3.277   0.488  0.1343 -0.1287  0.0960
  434THF     C2 7571   1.849   3.262   0.596 -0.3970 -0.7209  0.6402
  434THF     C3 7572   1.715   3.410   0.488 -0.2910  0.0031 -0.3214
  434THF     H4 7573   1.917   3.178   0.584 -1.2671 -1.1901 -1.5884
  434THF     H5 7574   1.790   3.242   0.685  0.8923 -1.0532  1.4300
  434THF     H6 7575   1.671   3.440   0.393 -2.0716  0.5159  0.6109
  434THF     H7 7576   1.644   3.424   0.570  1.5690 -2.7992  1.9570
  434THF     C8 7577   1.848   3.491   0.508  0.3953  0.0327  0.2162
  434THF     C9 7578   1.915   3.400   0.602  0.0863 -0.2195  0.3831
  434THF    H10 7579   1.836   3.592   0.546 -0.8739 -0.2902  0.7268
  434THF    H11 7580   1.901   3.494   0.413 -3.1991  2.2222 -1.9685
  434THF    H12 7581   2.020   3.401   0.572  0.4754  1.0133  1.6994
  434THF    H13 7582   1.894   3.440   0.701 -1.4241  0.2452 -0.1023
  435THF     O1 7583   3.861   2.926   2.008 -0.0458  0.8753 -0.4077
  435THF     C2 7584   3.823   2.986   1.884  0.3041  0.3014  0.1686
  435THF     C3 7585   3.748   2.843   2.039  0.2078  0.6109 -0.0528
  435THF     H4 7586   3.902   3.040   1.832 -1.0598  1.7658 -0.4636
  435THF     H5 7587   3.743   3.059   1.901  0.2731  0.0893  0.9571
  435THF     H6 7588   3.782   2.773   2.114 -1.5958 -1.2392 -0.8513
  435THF     H7 7589   3.663   2.902   2.074 -0.4668  0.4089 -1.2893
  435THF     C8 7590   3.709   2.780   1.904 -0.0711 -0.0005  0.2842
  435THF     C9 7591   3.746   2.882   1.803  0.0490 -0.2752  0.0865
  435THF    H10 7592   3.608   2.740   1.895  0.6302 -1.5481 -1.5218
  435THF    H11 7593   3.767   2.689   1.887 -0.0832 -0.0768  0.6494
  435THF    H12 7594   3.819   2.840   1.734 -0.2014  0.0347 -0.3668
  435THF    H13 7595   3.665   2.929   1.748  0.2829  0.6822  0.5516
  436THF     O1 7596   2.314   3.175   2.293 -0.1016  0.2440  0.0533
  436THF     C2 7597   2.373   3.154   2.420 -0.7496 -0.1473 -0.4903
  436THF     C3 7598   2.405   3.215   2.199 -0.1576 -0.1448 -0.0724
  436THF     H4 7599   2.318   3.078   2.476 -0.5092 -0.0215 -0.0758
  436THF     H5 7600   2.388   3.248   2.473 -0.0032  0.6191 -1.9943
  436THF     H6 7601   2.387   3.152   2.111 -0.8813  0.8552 -0.6609
  436THF     H7 7602   2.392   3.321   2.179 -1.1604 -0.1699  0.3699
  436THF     C8 7603   2.545   3.173   2.259 -0.1041  0.1978 -0.2026
  436THF     C9 7604   2.504   3.093   2.387  0.1040  0.1449 -0.1216
  436THF    H10 7605   2.607   3.257   2.291  0.2632 -0.3578  0.5889
  436THF    H11 7606   2.607   3.116   2.191 -1.2791 -0.2464 -0.9336
  436THF    H12 7607   2.494   2.988   2.360 -0.0606  0.8031 -2.8793
  436THF    H13 7608   2.578   3.102   2.466  0.4152 -1.2184 -0.2374
  437THF     O1 7609   2.553   0.671   1.938  0.2374  0.3615  0.4909
  437THF     C2 7610   2.491   0.627   1.815  0.1572 -0.9010  0.0978
  437THF     C3 7611   2.454   0.745   2.008 -0.3043  0.0216  0.0020
  437THF     H4 7612   2.434   0.536   1.833  0.0413 -1.1684 -1.4864
  437THF     H5 7613   2.571   0.611   1.743  0.6705 -0.0822  0.4687
  437THF     H6 7614   2.409   0.681   2.084 -1.1819 -0.5832 -0.9957
  437THF     H7 7615   2.500   0.833   2.053 -1.1324  0.0479  0.8434
  437THF     C8 7616   2.339   0.772   1.907 -0.3506 -0.6324 -0.3772
  437THF     C9 7617   2.404   0.746   1.774  0.5504 -0.2397 -0.9512
  437THF    H10 7618   2.283   0.864   1.923 -1.9733 -1.4301 -1.2077
  437THF    H11 7619   2.254   0.705   1.916 -0.3847 -0.6358 -0.7141
  437THF    H12 7620   2.344   0.708   1.690 -0.0043  0.5912 -0.9407
  437THF    H13 7621   2.467   0.831   1.748  0.1782  0.3462  0.0047
  438THF     O1 7622   5.163   3.499   4.033 -0.2468  0.1473  0.1039
  438THF     C2 7623   5.199   3.417   4.137 -0.6684  0.0004 -0.7687
  438THF     C3 7624   5.257   3.471   3.935 -0.2170 -0.0658  0.3475
  438THF     H4 7625   5.116   3.414   4.207 -0.8797  1.3135 -0.9247
  438THF     H5 7626   5.291   3.463   4.174 -0.2321 -1.0783 -0.4720
  438THF     H6 7627   5.215   3.494   3.838  1.6489 -1.9818 -0.9973
  438THF     H7 7628   5.348   3.527   3.957 -0.3461  0.1995  0.1999
  438THF     C8 7629   5.282   3.322   3.947 -0.0081 -0.3871 -0.5286
  438THF     C9 7630   5.222   3.276   4.081  0.0479 -0.7461 -0.2980
  438THF    H10 7631   5.391   3.310   3.942 -0.0923 -2.3115  0.9226
  438THF    H11 7632   5.241   3.275   3.858 -0.9220  1.1336 -0.9268
  438THF    H12 7633   5.131   3.216   4.072 -0.1642 -0.3177 -1.1850
  438THF    H13 7634   5.294   3.213   4.133  0.4990 -0.7975 -0.9799
  439THF     O1 7635   3.690   2.355   3.728  0.2748  0.0650 -0.1078
  439THF     C2 7636   3.664   2.413   3.602  0.0691  0.1724  0.4670
  439THF     C3 7637   3.674   2.217   3.700  0.4312  0.0485 -0.4078
  439THF     H4 7638   3.747   2.396   3.534  1.8328 -1.4695  2.8966
  439THF     H5 7639   3.651   2.521   3.598 -1.1903 -0.0003 -1.3014
  439THF     H6 7640   3.749   2.178   3.631  0.8607  0.2714 -0.0756
  439THF     H7 7641   3.685   2.160   3.793 -0.0401 -0.0898 -0.4337
  439THF     C8 7642   3.538   2.199   3.635 -0.2503 -0.2095 -0.1457
  439THF     C9 7643   3.536   2.333   3.564 -0.9399  0.5677 -0.8077
  439THF    H10 7644   3.466   2.181   3.714 -0.4594 -0.5272 -0.4028
  439THF    H11 7645   3.540   2.110   3.571 -1.3392 -0.1553 -0.2729
  439THF    H12 7646   3.529   2.327   3.456  0.5733  0.2853 -0.9083
  439THF    H13 7647   3.461   2.400   3.607  1.8563  1.3116  3.6149
  440THF     O1 7648   2.456   0.560   0.510  0.0387  0.0002  0.0848
  440THF     C2 7649   2.523   0.489   0.615 -0.0390 -0.0278 -0.1151
  440THF     C3 7650   2.471   0.492   0.392  0.0201  0.1899 -0.7079
  440THF     H4 7651   2.453   0.407   0.634 -1.7097  1.8015  2.1800
  440THF     H5 7652   2.538   0.548   0.705 -0.1045  0.9730 -0.7409
  440THF     H6 7653   2.398   0.412   0.381 -0.3680 -0.0469  2.4881
  440THF     H7 7654   2.442   0.555   0.308 -0.5538  1.3443  0.3294
  440THF     C8 7655   2.613   0.444   0.389  0.4261 -0.5592 -0.3310
  440THF     C9 7656   2.655   0.447   0.545  0.9359 -0.2796 -0.3474
  440THF    H10 7657   2.679   0.511   0.333 -0.2864 -1.3573 -2.2244
  440THF    H11 7658   2.611   0.343   0.350 -2.7951 -0.8512  0.3228
  440THF    H12 7659   2.693   0.351   0.579  1.9473 -0.2359 -1.3113
  440THF    H13 7660   2.736   0.518   0.559 -0.2281  1.0367 -0.0723
  441THF     O1 7661   1.519   0.898   3.696  0.0110 -0.4958  0.4154
  441THF     C2 7662   1.521   1.024   3.639  0.2487 -0.2307  0.3628
  441THF     C3 7663   1.537   0.805   3.586 -0.6001 -0.0834  0.2736
  441THF     H4 7664   1.607   1.085   3.666 -0.5349  0.3383  1.6545
  441THF     H5 7665   1.437   1.080   3.680  0.3334 -1.4702  2.3772
  441THF     H6 7666   1.645   0.789   3.588 -0.3967  0.9322 -1.0444
  441THF     H7 7667   1.490   0.708   3.602  1.1659 -1.0063  0.1686
  441THF     C8 7668   1.491   0.874   3.461  0.9619 -0.6882 -0.8798
  441THF     C9 7669   1.529   1.017   3.493 -0.9738 -0.1846  0.5153
  441THF    H10 7670   1.383   0.859   3.471  0.6784  1.8678  0.9354
  441THF    H11 7671   1.529   0.825   3.371 -2.1215 -2.7350 -1.2356
  441THF    H12 7672   1.631   1.040   3.465 -0.8777  1.4055  2.0024
  441THF    H13 7673   1.455   1.084   3.448  0.7238  2.0051  0.8131
  442THF     O1 7674   1.970   3.829   0.932  0.4105  0.1271  0.5682
  442THF     C2 7675   1.939   3.959   0.982 -0.2139  0.4364  1.0764
  442THF     C3 7676   1.950   3.739   1.042 -0.0782  0.0379 -0.3763
  442THF     H4 7677   1.830   3.969   0.980 -0.2235  0.6132  1.9346
  442THF     H5 7678   1.976   4.038   0.917 -1.5629 -0.5677 -1.0408
  442THF     H6 7679   1.843   3.733   1.060  0.2055 -3.5716  0.8205
  442THF     H7 7680   1.992   3.640   1.025 -0.5908 -0.2647  0.0708
  442THF     C8 7681   2.002   3.809   1.169 -0.4497 -0.2764  0.7530
  442THF     C9 7682   1.994   3.959   1.127 -0.1781  0.1988  0.2920
  442THF    H10 7683   2.106   3.780   1.181 -0.7355 -2.0042 -0.4430
  442THF    H11 7684   1.945   3.792   1.260  3.0235 -1.1317  2.9419
  442THF    H12 7685   1.933   4.026   1.187 -0.1977  1.2537 -0.8604
  442THF    H13 7686   2.096   3.998   1.131 -1.3872  3.6091  1.6071
  443THF     O1 7687   1.527   5.028   4.678  0.2200  0.9635  0.0746
  443THF     C2 7688   1.488   5.170   4.686  0.3144  0.4158 -0.0201
  443THF     C3 7689   1.450   4.956   4.582 -0.3404 -0.2706 -0.4663
  443THF     H4 7690   1.564   5.225   4.631 -0.4790  0.8780 -0.6798
  443THF     H5 7691   1.480   5.204   4.790 -1.7199  2.4802 -0.7655
  443THF     H6 7692   1.480   4.957   4.477 -2.0467  3.4871 -1.0943
  443THF     H7 7693   1.467   4.852   4.610  2.4072 -0.2854 -1.7797
  443THF     C8 7694   1.318   5.017   4.602 -0.0885 -0.5145  0.1446
  443THF     C9 7695   1.358   5.162   4.615 -0.0138 -0.3460  0.8022
  443THF    H10 7696   1.261   4.981   4.688  1.1744 -1.4694  0.6064
  443THF    H11 7697   1.247   4.995   4.522 -0.6735  1.2299  0.1394
  443THF    H12 7698   1.376   5.200   4.514  1.0946  1.3430  1.5977
  443THF    H13 7699   1.285   5.226   4.663 -0.9327 -0.2466 -0.6697
  444THF     O1 7700   0.261   3.157   0.450 -0.6268  0.3098 -0.2679
  444THF     C2 7701   0.399   3.124   0.439  0.5860  0.2535 -0.2156
  444THF     C3 7702   0.254   3.286   0.397 -0.2221  0.1544  0.4192
  444THF     H4 7703   0.434   3.032   0.483  0.6398  0.5451  0.3565
  444THF     H5 7704   0.446   3.189   0.513 -0.7554  0.3612  0.5719
  444THF     H6 7705   0.151   3.312   0.374 -0.6320 -2.4844 -1.2343
  444THF     H7 7706   0.302   3.353   0.469  0.1959 -1.4615  1.7239
  444THF     C8 7707   0.339   3.266   0.273 -0.4375  0.1074  0.2484
  444THF     C9 7708   0.443   3.159   0.301 -0.0967  0.1111  0.7510
  444THF    H10 7709   0.377   3.356   0.226 -1.1736 -0.2315 -1.0533
  444THF    H11 7710   0.268   3.220   0.204 -1.8367  0.7336  1.2156
  444THF    H12 7711   0.429   3.086   0.222  0.2346 -0.3437  1.1090
  444THF    H13 7712   0.544   3.199   0.296 -0.3963  0.7671 -0.7430
  445THF     O1 7713   0.740   3.037   1.474 -0.5783 -0.0912  0.0897
  445THF     C2 7714   0.851   2.999   1.387 -1.0933 -0.1738  0.2098
  445THF     C3 7715   0.722   2.943   1.570  0.3764 -0.1414  0.2268
  445THF     H4 7716   0.916   3.086   1.379  0.9600 -1.6493 -0.0986
  445THF     H5 7717   0.810   2.985   1.287 -0.2761  0.4726 -0.2273
  445THF     H6 7718   0.679   2.990   1.659  2.0417 -0.1587  1.0817
  445THF     H7 7719   0.651   2.867   1.539  0.6957 -1.0065  1.5252
  445THF     C8 7720   0.857   2.883   1.585  0.2990  0.2568 -0.1058
  445THF     C9 7721   0.916   2.872   1.441  0.1701 -0.5704 -0.3191
  445THF    H10 7722   0.843   2.792   1.643 -1.3678  1.4683  1.5307
  445THF    H11 7723   0.918   2.958   1.636  2.4701 -1.3538 -0.2271
  445THF    H12 7724   1.022   2.865   1.417  0.4888  1.0538  0.4501
  445THF    H13 7725   0.864   2.785   1.401  0.4093  0.4234 -3.0052
  446THF     O1 7726   2.577   2.058   2.999  0.0178 -0.1298  0.2510
  446THF     C2 7727   2.701   1.996   2.965  0.0865  0.7241  0.1307
  446THF     C3 7728   2.480   1.950   3.022 -1.0441 -0.7743  0.2068
  446THF     H4 7729   2.749   1.958   3.055 -1.0113 -0.0049  0.4249
  446THF     H5 7730   2.758   2.078   2.921 -1.2224  1.3736 -0.4029
  446THF     H6 7731   2.472   1.949   3.130  0.0538  2.0831  0.3900
  446THF     H7 7732   2.381   1.976   2.986  0.0478 -0.0051 -2.4999
  446THF     C8 7733   2.539   1.821   2.957 -0.5020  0.3540  0.4978
  446THF     C9 7734   2.665   1.866   2.885  0.3897 -0.1037  0.9073
  446THF    H10 7735   2.467   1.781   2.885 -0.5742  3.1501 -1.1677
  446THF    H11 7736   2.575   1.744   3.025  1.2583 -0.4653 -1.2849
  446THF    H12 7737   2.744   1.791   2.890 -0.3817 -0.8470  2.3680
  446THF    H13 7738   2.641   1.899   2.783 -1.2303 -0.5694  1.1201
  447THF     O1 7739   4.895   2.168   2.944  0.4909  0.1997 -0.5394
  447THF     C2 7740   4.854   2.219   2.819  0.1958 -0.5850  0.8807
  447THF     C3 7741   4.787   2.092   2.996  0.2152  0.6365  0.0503
  447THF     H4 7742   4.935   2.243   2.750 -1.7004  1.9534 -0.6385
  447THF     H5 7743   4.792   2.309   2.825  2.2383  1.0117 -0.4745
  447THF     H6 7744   4.829   2.001   3.039 -0.3265 -0.2188 -1.1569
  447THF     H7 7745   4.732   2.148   3.071 -1.2050 -1.5090  0.6964
  447THF     C8 7746   4.702   2.044   2.877  0.7417 -0.0066 -0.0793
  447THF     C9 7747   4.766   2.102   2.761  0.6919  0.4288  0.4006
  447THF    H10 7748   4.599   2.078   2.889  2.0147  3.6280  2.4997
  447THF    H11 7749   4.699   1.936   2.869 -1.7741  0.0772 -1.3016
  447THF    H12 7750   4.831   2.023   2.722 -0.9715 -0.9761  0.3554
  447THF    H13 7751   4.696   2.127   2.681  0.3915  0.3978  0.6524
  448THF     O1 7752   2.596   2.078   3.598 -0.6180 -0.2609 -0.2377
  448THF     C2 7753   2.557   1.942   3.634  0.3761  0.2895  0.7337
  448THF     C3 7754   2.604   2.087   3.455  0.8953  0.0947 -0.3916
  448THF     H4 7755   2.449   1.935   3.621  0.3760  0.1723  0.8002
  448THF     H5 7756   2.598   1.925   3.733 -0.9249  0.4642  1.3137
  448THF     H6 7757   2.513   2.139   3.425  1.5142  0.9743 -0.7943
  448THF     H7 7758   2.685   2.156   3.431 -0.1122  0.7785 -1.9046
  448THF     C8 7759   2.626   1.942   3.398 -0.3928 -0.6903 -0.4807
  448THF     C9 7760   2.636   1.856   3.531  0.0367 -0.1179  0.4380
  448THF    H10 7761   2.721   1.928   3.346 -0.0490  0.6565 -0.2502
  448THF    H11 7762   2.544   1.910   3.335  0.1614 -0.1908 -1.4775
  448THF    H12 7763   2.588   1.761   3.508  2.1173 -1.1370  0.0065
  448THF    H13 7764   2.738   1.832   3.561  0.4803 -0.6577 -1.3589
  449THF     O1 7765   4.536   0.632   3.837  0.6108 -0.2610  0.1472
  449THF     C2 7766   4.611   0.755   3.809 -0.3051 -0.4704 -0.0119
  449THF     C3 7767   4.561   0.597   3.972 -0.2206  0.0173  0.2693
  449THF     H4 7768   4.554   0.835   3.856 -1.4978  0.1531 -2.3861
  449THF     H5 7769   4.634   0.776   3.704  0.1151 -0.0180  0.1656
  449THF     H6 7770   4.489   0.659   4.025 -3.5709 -2.5397 -0.9288
  449THF     H7 7771   4.542   0.491   3.993  1.8393  0.1964  3.7915
  449THF     C8 7772   4.711   0.631   3.984 -0.3632  0.0282 -0.3988
  449THF     C9 7773   4.742   0.742   3.887  0.9126  0.2607 -0.2432
  449THF    H10 7774   4.781   0.553   3.954 -0.3375 -0.3611  0.6134
  449THF    H11 7775   4.745   0.657   4.084  0.5711 -0.7976 -0.4905
  449THF    H12 7776   4.773   0.834   3.935  3.5564 -0.3967 -0.5451
  449THF    H13 7777   4.828   0.706   3.830  1.2150 -0.6067  0.7324
  450THF     O1 7778   4.292   4.748   5.420 -0.3319 -0.1369 -0.1465
  450THF     C2 7779   4.423   4.716   5.370 -0.1868  0.3837  0.4900
  450THF     C3 7780   4.301   4.715   5.559  0.0338 -0.3400 -0.1633
  450THF     H4 7781   4.452   4.766   5.278  2.6922 -2.3038 -0.2531
  450THF     H5 7782   4.434   4.609   5.350  0.4952  0.6560 -0.6599
  450THF     H6 7783   4.225   4.766   5.619  0.8063  0.2459  0.3384
  450THF     H7 7784   4.303   4.608   5.575 -0.2168 -0.3261 -0.0300
  450THF     C8 7785   4.433   4.763   5.604  0.0544 -0.1038  0.2783
  450THF     C9 7786   4.519   4.753   5.483 -0.0318 -0.3476 -0.6811
  450THF    H10 7787   4.467   4.709   5.693  0.6453 -0.0962  0.0593
  450THF    H11 7788   4.419   4.866   5.636 -1.7164  0.1608 -1.2187
  450THF    H12 7789   4.570   4.848   5.467  0.7657 -0.9257 -1.6869
  450THF    H13 7790   4.591   4.671   5.484  1.8531  1.2595 -0.4307
  451THF     O1 7791   1.646   4.437   5.095 -0.2869 -0.2128 -0.5401
  451THF     C2 7792   1.655   4.299   5.060 -0.4075  1.1772 -0.3056
  451THF     C3 7793   1.612   4.436   5.233  0.4064  0.5825 -0.2188
  451THF     H4 7794   1.696   4.273   4.962 -0.8915  1.1634 -0.5061
  451THF     H5 7795   1.561   4.245   5.072 -0.2224  0.9602  0.2221
  451THF     H6 7796   1.637   4.539   5.259 -2.1543  1.3936 -0.7360
  451THF     H7 7797   1.504   4.421   5.236  0.1456  2.3736  2.7333
  451THF     C8 7798   1.688   4.322   5.304 -0.4806 -0.2600 -0.5992
  451THF     C9 7799   1.744   4.248   5.177  0.8753 -0.7991 -0.6735
  451THF    H10 7800   1.618   4.262   5.362  1.9065 -0.1396  2.6594
  451THF    H11 7801   1.769   4.357   5.367  1.7317 -2.2735 -2.1227
  451THF    H12 7802   1.845   4.284   5.158  0.4943  0.4022 -0.4978
  451THF    H13 7803   1.748   4.139   5.182 -0.7960 -0.8806 -0.5834
  452THF     O1 7804   2.197   3.339   0.916 -0.7370  0.0003  0.3971
  452THF     C2 7805   2.296   3.301   1.002 -0.4581 -0.7077 -0.7282
  452THF     C3 7806   2.259   3.430   0.829 -0.3559 -1.0095  0.4489
  452THF     H4 7807   2.326   3.196   0.994 -1.2488 -1.2597  2.1963
  452THF     H5 7808   2.249   3.309   1.100 -1.1028  1.6653 -1.1621
  452THF     H6 7809   2.308   3.385   0.742  0.8253 -1.8002  1.4902
  452THF     H7 7810   2.177   3.492   0.795 -1.9458 -2.4044  1.5769
  452THF     C8 7811   2.363   3.507   0.914 -0.3455 -0.0169 -0.4971
  452THF     C9 7812   2.416   3.401   0.999  0.2026  0.3098  0.4272
  452THF    H10 7813   2.321   3.579   0.984  4.8393  2.2735  0.7348
  452THF    H11 7814   2.446   3.561   0.868  0.0864  0.3183  0.6561
  452THF    H12 7815   2.508   3.350   0.969  0.5413  0.2603  1.5206
  452THF    H13 7816   2.437   3.435   1.100  2.6586 -0.2899  0.1888
  453THF     O1 7817   1.995   4.337   3.064 -0.2455  0.4156  0.1429
  453THF     C2 7818   2.032   4.476   3.033  0.0295  0.2758  0.5056
  453THF     C3 7819   1.881   4.301   2.990 -0.0325 -0.2768  0.2194
  453THF     H4 7820   2.103   4.487   2.951 -0.6134  2.5927  0.1744
  453THF     H5 7821   2.075   4.514   3.126  0.4559 -2.7198  1.6282
  453THF     H6 7822   1.901   4.251   2.895  0.1795  0.7334 -0.2869
  453THF     H7 7823   1.817   4.237   3.050 -3.4518  1.1969 -1.5732
  453THF     C8 7824   1.799   4.426   2.957 -1.1137  0.2990 -0.0181
  453THF     C9 7825   1.898   4.544   2.990  0.4039  0.0180  0.2301
  453THF    H10 7826   1.704   4.448   3.007 -1.7847 -0.9451 -0.7032
  453THF    H11 7827   1.778   4.422   2.850  0.6127 -0.2472 -0.3772
  453THF    H12 7828   1.906   4.614   2.906  0.6129  0.0309  0.2593
  453THF    H13 7829   1.856   4.611   3.065  1.1058 -1.3875  1.9441
  454THF     O1 7830   1.055   0.946   4.539 -0.7340  0.5687  0.4541
  454THF     C2 7831   1.029   0.828   4.473 -0.9830  0.6132 -0.4917
  454THF     C3 7832   1.120   1.032   4.449  0.1963  0.2762 -0.9869
  454THF     H4 7833   0.943   0.829   4.405  1.2553  0.7121 -3.5058
  454THF     H5 7834   0.998   0.759   4.552 -0.5809  0.7764 -0.1884
  454THF     H6 7835   1.043   1.073   4.383 -1.2017  0.2031  0.5241
  454THF     H7 7836   1.170   1.120   4.490  2.3338 -0.7225 -1.3091
  454THF     C8 7837   1.219   0.931   4.397 -0.3400 -0.2123  0.2265
  454THF     C9 7838   1.159   0.797   4.405 -0.4918 -0.4681 -0.1804
  454THF    H10 7839   1.312   0.932   4.454 -1.2559 -0.1920  1.7726
  454THF    H11 7840   1.251   0.953   4.295 -1.0155  0.2411  0.1011
  454THF    H12 7841   1.160   0.759   4.303  4.1482 -0.5853 -0.3354
  454THF    H13 7842   1.217   0.733   4.472 -1.1069 -2.7364 -1.7160
  455THF     O1 7843   2.255   2.007   1.545  0.2732 -0.3274  0.1557
  455THF     C2 7844   2.248   1.872   1.578  0.2886  0.1321 -0.7595
  455THF     C3 7845   2.150   2.069   1.617  0.7127  0.3098  0.0216
  455THF     H4 7846   2.334   1.812   1.550  0.4903 -0.0308  0.1536
  455THF     H5 7847   2.161   1.831   1.528 -0.5601  1.5815 -0.5359
  455THF     H6 7848   2.166   2.177   1.626  3.2780  0.2006 -2.1298
  455THF     H7 7849   2.056   2.030   1.578  2.1233 -2.8927 -0.5082
  455THF     C8 7850   2.174   2.004   1.749 -0.4808 -0.0647 -0.3404
  455THF     C9 7851   2.220   1.866   1.729 -0.7154 -0.7142  0.5648
  455THF    H10 7852   2.082   1.988   1.805  0.1976 -2.8846  0.1369
  455THF    H11 7853   2.250   2.052   1.810  0.6693 -1.2404 -0.8108
  455THF    H12 7854   2.316   1.849   1.777 -0.0376 -3.1854 -1.4666
  455THF    H13 7855   2.146   1.788   1.749 -1.5132  0.1390  1.0555
  456THF     O1 7856   3.885   5.333   0.080  0.3349  0.1675  0.0874
  456THF     C2 7857   3.766   5.405   0.037  0.1154 -0.2294  0.1712
  456THF     C3 7858   3.829   5.211   0.134 -0.0389  0.7095  0.1583
  456THF     H4 7859   3.794   5.475  -0.042 -0.2998 -0.6648 -0.3793
  456THF     H5 7860   3.720   5.458   0.120 -0.2604  0.9603 -0.7700
  456THF     H6 7861   3.897   5.126   0.141 -0.8495  0.0553  0.2166
  456THF     H7 7862   3.803   5.228   0.238 -0.1452 -0.7766  0.3938
  456THF     C8 7863   3.707   5.170   0.052  0.3938 -0.2693 -0.1129
  456THF     C9 7864   3.672   5.297  -0.018  0.3501 -0.2757  0.6525
  456THF    H10 7865   3.635   5.144   0.130 -0.6544  0.1064 -0.9172
  456THF    H11 7866   3.730   5.088  -0.017 -2.6269 -0.8994 -0.5194
  456THF    H12 7867   3.681   5.294  -0.127 -0.1275  1.3276  0.5455
  456THF    H13 7868   3.566   5.318  -0.001  0.7337  1.3942  1.1816
  457THF     O1 7869   2.722   1.497   4.805  0.1752  0.4073  0.6322
  457THF     C2 7870   2.655   1.454   4.922 -0.4285  0.3107 -0.4627
  457THF     C3 7871   2.647   1.604   4.741  1.5416 -0.1207 -0.5244
  457THF     H4 7872   2.675   1.527   5.001  1.7772 -0.8587  0.1672
  457THF     H5 7873   2.689   1.354   4.948  0.0023  0.3302 -0.9452
  457THF     H6 7874   2.681   1.694   4.792  1.0103 -0.9528  1.4026
  457THF     H7 7875   2.650   1.619   4.633 -1.0414 -1.0575 -0.8165
  457THF     C8 7876   2.507   1.572   4.785  0.2923 -0.2367  0.1367
  457THF     C9 7877   2.507   1.463   4.893 -0.2124 -0.0004 -0.1199
  457THF    H10 7878   2.443   1.554   4.699 -0.0904  0.6037  0.2367
  457THF    H11 7879   2.471   1.667   4.823  3.0336  1.9147 -2.2307
  457THF    H12 7880   2.455   1.491   4.985  0.0275 -1.1430  0.3934
  457THF    H13 7881   2.467   1.365   4.866 -2.2330 -0.1393  2.8287
  458THF     O1 7882   4.601   1.652   2.918 -0.2578 -0.3384  0.3154
  458THF     C2 7883   4.508   1.718   2.996 -0.3515  0.2969  0.3131
  458THF     C3 7884   4.548   1.522   2.872 -0.0905  0.2764 -0.5179
  458THF     H4 7885   4.428   1.760   2.936  1.1229  2.2058 -0.4254
  458THF     H5 7886   4.556   1.800   3.051  2.8936 -0.9644 -0.3755
  458THF     H6 7887   4.493   1.539   2.780  0.1569 -0.3264 -0.7784
  458THF     H7 7888   4.634   1.456   2.871 -0.1966 -0.0235  1.9801
  458THF     C8 7889   4.450   1.490   2.979 -0.1322  0.4111 -1.0639
  458THF     C9 7890   4.449   1.604   3.079  0.0245 -0.1888 -0.0902
  458THF    H10 7891   4.476   1.396   3.026  0.1540  1.0194  0.0393
  458THF    H11 7892   4.358   1.480   2.922  1.0928 -0.2505 -3.0285
  458THF    H12 7893   4.348   1.625   3.114 -0.8120 -1.2971 -1.7368
  458THF    H13 7894   4.510   1.585   3.168  0.2767 -0.2772 -0.2832
  459THF     O1 7895   1.577   0.424   4.442  0.0428 -1.3514 -0.3948
  459THF     C2 7896   1.478   0.476   4.535 -0.1096 -0.3106  0.1778
  459THF     C3 7897   1.702   0.468   4.493 -0.4481  0.5590  0.1952
  459THF     H4 7898   1.486   0.407   4.620 -2.2648 -3.1579 -1.7363
  459THF     H5 7899   1.375   0.477   4.501  0.0700 -1.0374 -0.3952
  459THF     H6 7900   1.733   0.379   4.549 -0.8524 -1.0233 -1.9919
  459THF     H7 7901   1.783   0.494   4.425  0.4133  0.5385  1.1813
  459THF     C8 7902   1.675   0.604   4.570  0.5146  0.9623 -0.2445
  459THF     C9 7903   1.522   0.618   4.572 -1.4601  0.4833  0.2972
  459THF    H10 7904   1.717   0.691   4.521 -0.4199  2.1538  0.9823
  459THF    H11 7905   1.703   0.598   4.676 -0.9009 -1.7713  0.0904
  459THF    H12 7906   1.493   0.643   4.674  0.3260 -0.9542  1.2126
  459THF    H13 7907   1.488   0.683   4.492 -0.0697  0.0382 -0.6949
  460THF     O1 7908   3.092   3.943   3.854  0.0346 -0.1772 -0.5116
  460THF     C2 7909   3.194   3.949   3.754  1.0032 -0.2092 -0.6490
  460THF     C3 7910   2.970   3.917   3.793 -0.5636  0.1857  0.2681
  460THF     H4 7911   3.233   3.848   3.737 -1.2582 -1.0868 -1.0160
  460THF     H5 7912   3.282   4.003   3.790  0.9953 -0.2419 -0.5802
  460THF     H6 7913   2.957   3.811   3.770 -1.6210  0.1679  0.9089
  460THF     H7 7914   2.894   3.957   3.860  2.8497  0.4187  4.4247
  460THF     C8 7915   2.978   3.990   3.663 -0.7414 -0.8845  0.0288
  460THF     C9 7916   3.125   3.997   3.630 -0.2571 -0.2133  0.3165
  460THF    H10 7917   2.939   4.092   3.667  1.4919 -0.0122  1.5088
  460THF    H11 7918   2.921   3.934   3.589 -1.4878  1.4132 -1.2353
  460THF    H12 7919   3.145   3.928   3.548 -1.4191  0.5268 -0.6294
  460THF    H13 7920   3.159   4.096   3.602  0.0376  0.0857  1.6450
  461THF     O1 7921   2.840   0.926   4.559 -0.5585  0.1284  0.2355
  461THF     C2 7922   2.699   0.955   4.560  0.1607  0.4303  0.1043
  461THF     C3 7923   2.886   1.025   4.473  0.1532  0.2076 -0.2316
  461THF     H4 7924   2.677   1.039   4.626 -0.2087 -0.1183  0.6802
  461THF     H5 7925   2.656   0.861   4.594  0.8538 -0.3620 -1.1471
  461THF     H6 7926   2.891   1.119   4.529 -1.5850  1.3363 -1.8689
  461THF     H7 7927   2.983   1.003   4.430 -0.0547 -1.0623 -0.0828
  461THF     C8 7928   2.793   1.041   4.354 -0.1673 -0.3491  0.3731
  461THF     C9 7929   2.662   0.988   4.411  0.2474 -0.0799  0.0586
  461THF    H10 7930   2.817   0.982   4.266 -1.0495  0.4975 -0.4735
  461THF    H11 7931   2.778   1.144   4.323 -2.2725 -1.4309 -2.6542
  461THF    H12 7932   2.584   1.064   4.417  0.7294  0.5968 -1.5994
  461THF    H13 7933   2.632   0.900   4.355  1.3708 -1.5441  1.6302
  462THF     O1 7934   3.807   3.238   5.210  0.1807  0.5350  0.2522
  462THF     C2 7935   3.713   3.321   5.274  0.7942  0.3616  0.3522
  462THF     C3 7936   3.770   3.100   5.241 -0.0011 -0.1723  0.0458
  462THF     H4 7937   3.627   3.329   5.208  0.2910  0.9579  1.0543
  462THF     H5 7938   3.747   3.424   5.283 -0.3367  1.0158 -2.0619
  462THF     H6 7939   3.704   3.048   5.171 -0.3164  0.9821 -0.5402
  462THF     H7 7940   3.872   3.062   5.239  0.3851  0.8660 -0.5199
  462THF     C8 7941   3.699   3.105   5.381 -0.2759 -0.3991  0.1836
  462THF     C9 7942   3.695   3.253   5.410 -0.3870 -0.2932  0.2732
  462THF    H10 7943   3.742   3.050   5.464 -2.0051  2.2219  3.0328
  462THF    H11 7944   3.599   3.062   5.380 -1.8814  2.9730 -0.7677
  462THF    H12 7945   3.605   3.284   5.465 -1.7006 -0.1415 -1.8498
  462THF    H13 7946   3.788   3.269   5.465  0.7744 -1.0454 -1.3925
  463THF     O1 7947   4.969   4.867   3.884  0.2781  0.0383 -0.1442
  463THF     C2 7948   4.877   4.762   3.860 -0.0375  0.2780  0.0020
  463THF     C3 7949   4.955   4.979   3.796 -0.1518  0.1177 -0.1373
  463THF     H4 7950   4.833   4.725   3.952 -1.9343 -1.5401 -1.5334
  463THF     H5 7951   4.926   4.677   3.814  0.6727 -0.1590  1.5367
  463THF     H6 7952   5.003   5.065   3.843  3.0965 -1.3536 -0.4736
  463THF     H7 7953   5.014   4.959   3.706  2.1649  2.2196  0.7896
  463THF     C8 7954   4.800   4.984   3.778  0.1477 -0.2495  0.6569
  463THF     C9 7955   4.772   4.833   3.778  0.4283  0.5739 -0.8164
  463THF    H10 7956   4.764   5.041   3.692 -1.3448 -1.4182  0.4713
  463THF    H11 7957   4.761   5.030   3.869 -0.7163  2.6734 -1.0573
  463THF    H12 7958   4.669   4.809   3.804  0.6730  0.4001  0.0105
  463THF    H13 7959   4.776   4.796   3.675  1.4434  1.3348 -1.0720
  464THF     O1 7960   5.273   0.585   1.597  0.3749 -0.1257  0.4888
  464THF     C2 7961   5.415   0.562   1.595 -0.3577 -0.6134 -0.3856
  464THF     C3 7962   5.227   0.608   1.733 -0.0134  0.5105 -0.4194
  464THF     H4 7963   5.469   0.649   1.559 -1.3404  0.9986  1.7977
  464THF     H5 7964   5.439   0.465   1.550 -0.6875 -2.0148  2.2270
  464THF     H6 7965   5.235   0.716   1.751  1.5440  0.2166  0.8853
  464THF     H7 7966   5.125   0.579   1.756  0.1503  1.2047  1.3517
  464THF     C8 7967   5.328   0.531   1.815 -0.0662 -0.0282 -0.3350
  464THF     C9 7968   5.457   0.543   1.740 -0.1071  0.1296  0.3254
  464THF    H10 7969   5.302   0.426   1.806 -2.2172  0.2500  1.8306
  464THF    H11 7970   5.331   0.559   1.920 -1.0781 -0.8360 -0.0697
  464THF    H12 7971   5.511   0.628   1.782 -0.2560  0.4828 -0.1991
  464THF    H13 7972   5.516   0.454   1.762 -1.1908 -0.3009  1.6917
  465THF     O1 7973   4.856   4.381   4.801  0.1640  0.3627 -0.0428
  465THF     C2 7974   4.780   4.347   4.690 -0.2875 -0.9450  0.3079
  465THF     C3 7975   4.946   4.278   4.820 -0.1585 -0.1047 -0.3792
  465THF     H4 7976   4.773   4.435   4.625  0.8599 -0.6126  0.6122
  465THF     H5 7977   4.680   4.323   4.726 -1.5773  2.5452 -0.5015
  465THF     H6 7978   5.039   4.306   4.871 -0.4577  1.3902 -0.5918
  465THF     H7 7979   4.904   4.197   4.880  0.0241 -0.0549 -0.1783
  465THF     C8 7980   4.979   4.219   4.682 -0.2836  0.0582  0.1855
  465THF     C9 7981   4.843   4.232   4.614 -0.9619  0.4026  0.1573
  465THF    H10 7982   5.010   4.115   4.690 -3.2839 -0.9694 -0.5147
  465THF    H11 7983   5.044   4.288   4.626 -0.1731 -0.8357 -0.8253
  465THF    H12 7984   4.857   4.251   4.508  4.2923 -0.7882  0.3601
  465THF    H13 7985   4.793   4.136   4.630  0.1588 -0.3692 -0.7200
  466THF     O1 7986   1.664   0.459   3.502 -0.2331  0.1620 -0.2536
  466THF     C2 7987   1.581   0.483   3.389 -0.1151 -0.0312  0.2901
  466THF     C3 7988   1.712   0.330   3.487 -0.0121 -0.1972  0.1004
  466THF     H4 7989   1.645   0.508   3.304 -1.8405  0.5305 -0.8810
  466THF     H5 7990   1.515   0.568   3.402  1.0264  0.9394 -0.0824
  466THF     H6 7991   1.815   0.332   3.452  1.2183  0.2237  3.3915
  466THF     H7 7992   1.714   0.288   3.587 -2.2387 -1.8237 -0.4511
  466THF     C8 7993   1.605   0.249   3.410  0.3611  0.2540  0.3182
  466THF     C9 7994   1.509   0.356   3.359 -0.5447 -0.1980  0.4391
  466THF    H10 7995   1.549   0.180   3.473 -1.2250 -0.5349 -1.8302
  466THF    H11 7996   1.658   0.192   3.334  0.4350 -0.4520  0.8915
  466THF    H12 7997   1.482   0.345   3.254 -2.3465 -0.9012  0.9408
  466THF    H13 7998   1.418   0.366   3.419 -1.4708 -1.6441 -0.6735
  467THF     O1 7999   4.714   0.976   0.825 -0.5837 -0.4334  0.1175
  467THF     C2 8000   4.664   1.058   0.925 -0.2159 -0.5936 -0.7713
  467THF     C3 8001   4.829   0.918   0.888 -0.4983 -0.1462  0.3444
  467THF     H4 8002   4.566   1.084   0.885  0.5403  1.8049 -1.2015
  467THF     H5 8003   4.718   1.152   0.933 -0.5801 -0.2035 -2.6007
  467THF     H6 8004   4.838   0.826   0.831 -0.1538  2.0674 -3.5284
  467THF     H7 8005   4.922   0.972   0.874  0.4413 -1.5254  0.9989
  467THF     C8 8006   4.797   0.908   1.036 -0.5254 -0.4817 -0.3426
  467THF     C9 8007   4.662   0.972   1.050 -0.0699  0.1311 -0.0223
  467THF    H10 8008   4.875   0.964   1.087  0.1500 -1.4411 -0.3043
  467THF    H11 8009   4.801   0.804   1.067 -2.4884 -1.0840 -1.8832
  467THF    H12 8010   4.580   0.900   1.050 -0.3685  0.4468  1.2212
  467THF    H13 8011   4.646   1.032   1.140  0.7855  0.0862  0.1705
  468THF     O1 8012   3.862   1.377   2.064  0.6245 -0.7297  0.4957
  468THF     C2 8013   3.960   1.441   2.143  0.1124  0.0429  0.1064
  468THF     C3 8014   3.778   1.311   2.161 -0.1822 -0.4632  0.0731
  468THF     H4 8015   3.955   1.550   2.131  0.1047  0.0944  0.5488
  468THF     H5 8016   4.058   1.401   2.119  0.1636  0.0705  0.2659
  468THF     H6 8017   3.675   1.287   2.133 -0.8817  0.5221  1.6415
  468THF     H7 8018   3.832   1.218   2.172  3.2962  1.1339 -1.8581
  468THF     C8 8019   3.783   1.389   2.293 -0.8943  0.4897 -0.3325
  468THF     C9 8020   3.933   1.423   2.293  0.2274 -0.0608  0.6232
  468THF    H10 8021   3.749   1.341   2.385  3.3319  0.4770  1.4553
  468THF    H11 8022   3.733   1.486   2.290  1.4777  1.8433  0.7354
  468THF    H12 8023   3.952   1.517   2.344 -0.1860  0.8798 -0.8844
  468THF    H13 8024   3.994   1.344   2.336  3.0835  1.3258 -0.6029
  469THF     O1 8025   4.679   3.270   1.440 -0.0991  0.1616 -0.0291
  469THF     C2 8026   4.592   3.170   1.501  0.3174 -0.5944 -0.3339
  469THF     C3 8027   4.586   3.368   1.394  0.7416 -0.7996  0.3459
  469THF     H4 8028   4.548   3.202   1.596 -1.1889  0.7955 -1.4440
  469THF     H5 8029   4.642   3.076   1.526  1.2126  0.1471  0.7852
  469THF     H6 8030   4.544   3.425   1.477 -0.4413  0.2900 -0.9411
  469THF     H7 8031   4.627   3.434   1.317 -3.1718  0.5449 -0.8316
  469THF     C8 8032   4.481   3.288   1.325 -0.4688 -0.3722  0.2418
  469THF     C9 8033   4.479   3.158   1.395  0.3999  0.2472  0.1192
  469THF    H10 8034   4.506   3.274   1.220  1.7601  1.0282  0.5097
  469THF    H11 8035   4.391   3.350   1.327  0.0301  0.3940 -0.2903
  469THF    H12 8036   4.383   3.140   1.444  0.9050  1.3016  1.5747
  469THF    H13 8037   4.510   3.075   1.331  0.2164  0.1030  0.2163
  470THF     O1 8038   1.821   1.013   1.694 -0.1900 -0.3348  0.4622
  470THF     C2 8039   1.891   1.001   1.814 -0.1674 -0.2153 -0.1665
  470THF     C3 8040   1.718   1.110   1.717  0.2733  0.1686  0.4564
  470THF     H4 8041   1.988   0.952   1.800 -0.6625 -1.1034 -0.5718
  470THF     H5 8042   1.830   0.941   1.881  1.4982 -2.0188 -0.1737
  470THF     H6 8043   1.692   1.165   1.627 -0.9880 -0.4096  0.4517
  470THF     H7 8044   1.636   1.051   1.758  1.6481 -2.4002 -0.2655
  470THF     C8 8045   1.772   1.206   1.823 -0.1908  0.3923 -0.0239
  470THF     C9 8046   1.901   1.140   1.863 -0.8048  0.5566 -0.7158
  470THF    H10 8047   1.703   1.223   1.905 -0.8460 -1.8821 -0.0483
  470THF    H11 8048   1.793   1.305   1.783 -0.8263  0.0899 -1.1384
  470THF    H12 8049   1.986   1.186   1.812  0.5934 -1.0815  0.0521
  470THF    H13 8050   1.930   1.148   1.968  1.1721 -0.1424 -1.1571
  471THF     O1 8051   0.095   2.687   1.995  0.3372 -0.0200 -0.5285
  471THF     C2 8052  -0.039   2.646   2.011 -0.0022 -0.4126 -0.1893
  471THF     C3 8053   0.149   2.610   1.887  0.2114 -0.2436  0.0605
  471THF     H4 8054  -0.092   2.721   2.069  1.2892  0.2493  0.1947
  471THF     H5 8055  -0.031   2.545   2.050  0.3231 -0.1443  0.4549
  471THF     H6 8056   0.239   2.647   1.838 -0.6647 -0.0146 -1.4189
  471THF     H7 8057   0.177   2.511   1.924 -0.7956 -0.4465  0.2899
  471THF     C8 8058   0.034   2.599   1.782  0.3392 -0.0997 -0.1929
  471THF     C9 8059  -0.088   2.653   1.862 -0.1795  0.3089  0.3027
  471THF    H10 8060   0.018   2.496   1.749 -0.1563 -0.4103  0.9761
  471THF    H11 8061   0.054   2.669   1.701 -1.1932  1.2310  0.5402
  471THF    H12 8062  -0.094   2.760   1.845  4.8153  0.9542  1.0338
  471THF    H13 8063  -0.184   2.606   1.841  1.1488 -1.8206 -1.3635
  472THF     O1 8064   3.098   0.836   2.487  0.1450 -0.0875  0.5084
  472THF     C2 8065   3.117   0.964   2.546  0.0586  0.6520 -0.3086
  472THF     C3 8066   3.101   0.734   2.581  0.2158  0.3446 -0.0653
  472THF     H4 8067   3.025   1.004   2.588  0.6284  0.4572  1.1528
  472THF     H5 8068   3.159   1.039   2.479 -0.0157  1.4616  0.5326
  472THF     H6 8069   2.999   0.717   2.615 -0.1627 -0.2629 -1.4512
  472THF     H7 8070   3.136   0.641   2.537  2.5246  0.6396  0.9953
  472THF     C8 8071   3.196   0.781   2.683 -0.2243  0.6793 -0.6891
  472THF     C9 8072   3.200   0.930   2.669 -0.1852  0.0541  0.5065
  472THF    H10 8073   3.294   0.734   2.668  0.3871  1.4463  0.6632
  472THF    H11 8074   3.175   0.745   2.784  0.6731  3.2421  0.5075
  472THF    H12 8075   3.162   0.975   2.761 -0.6862 -0.1497  0.4000
  472THF    H13 8076   3.308   0.948   2.664 -0.5744  2.4057 -0.5028
  473THF     O1 8077   0.226   4.521   0.669  0.0072  0.2670  0.0622
  473THF     C2 8078   0.134   4.632   0.702  0.3122 -0.0754 -0.0325
  473THF     C3 8079   0.263   4.447   0.791  0.1712 -0.0747  0.0257
  473THF     H4 8080   0.074   4.642   0.611  1.4000 -0.9582 -0.8699
  473THF     H5 8081   0.185   4.722   0.737  1.2027 -1.4980  2.6680
  473THF     H6 8082   0.286   4.344   0.765 -0.8021  0.0262 -1.3420
  473THF     H7 8083   0.346   4.505   0.830  0.8678  0.1164 -1.6831
  473THF     C8 8084   0.136   4.453   0.873 -0.1635  0.3804 -0.1745
  473THF     C9 8085   0.059   4.572   0.817 -0.1410 -0.0860 -0.4951
  473THF    H10 8086   0.142   4.468   0.981  1.2158 -0.9645 -0.0297
  473THF    H11 8087   0.072   4.366   0.866 -0.6828  0.5783  1.6973
  473THF    H12 8088  -0.036   4.549   0.769 -1.1317  1.3048  0.6759
  473THF    H13 8089   0.045   4.644   0.898 -0.8223  1.6571 -2.0795
  474THF     O1 8090   3.936   1.703   3.001  0.6545 -0.0919  0.4671
  474THF     C2 8091   3.921   1.745   2.862  0.0277  0.4556 -0.3041
  474THF     C3 8092   4.048   1.629   3.006  0.0068 -0.0054 -0.2271
  474THF     H4 8093   3.961   1.846   2.867 -0.9256  0.8247  0.3115
  474THF     H5 8094   3.819   1.766   2.831 -0.2140  0.4396  0.4510
  474THF     H6 8095   4.116   1.684   3.071 -0.1099 -0.1004 -0.0220
  474THF     H7 8096   4.027   1.537   3.061  2.3644  0.3080  1.3632
  474THF     C8 8097   4.097   1.595   2.863 -0.2568 -0.5997  0.1467
  474THF     C9 8098   3.983   1.638   2.777  0.4581 -0.3953  0.0057
  474THF    H10 8099   4.131   1.492   2.863 -0.6829 -0.7425 -0.3375
  474THF    H11 8100   4.184   1.659   2.846  0.5115 -0.9766  2.2747
  474THF    H12 8101   4.019   1.676   2.682  0.2259  0.9189  0.4092
  474THF    H13 8102   3.905   1.564   2.762  0.6117 -0.3102 -1.3054
  475THF     O1 8103   0.403   0.884   0.467 -0.0905  0.1147  0.4212
  475THF     C2 8104   0.506   0.922   0.553  0.4643  0.2949 -0.1014
  475THF     C3 8105   0.453   0.826   0.347  0.7129 -0.1814 -0.3319
  475THF     H4 8106   0.523   0.843   0.625 -2.2805  0.1467  0.4657
  475THF     H5 8107   0.491   1.014   0.610  0.7079  2.8915 -3.8067
  475THF     H6 8108   0.490   0.724   0.357 -1.3871 -1.0981 -1.2033
  475THF     H7 8109   0.390   0.826   0.258 -1.1189  0.2997  0.8906
  475THF     C8 8110   0.575   0.915   0.322  0.7089 -0.0988 -0.4963
  475THF     C9 8111   0.630   0.935   0.464  0.2204  0.3788  0.3184
  475THF    H10 8112   0.558   1.010   0.271  0.9997  1.1556  1.6265
  475THF    H11 8113   0.645   0.852   0.266  1.8389  0.6064  0.0877
  475THF    H12 8114   0.698   0.854   0.490 -0.1990 -0.3007 -0.6400
  475THF    H13 8115   0.685   1.028   0.479 -2.1742  1.9124  0.2073
  476THF     O1 8116   2.258   1.170   2.281 -0.0872 -0.0807  0.6044
  476THF     C2 8117   2.288   1.029   2.285  0.0952 -0.4465  0.0071
  476THF     C3 8118   2.119   1.191   2.291  0.6300 -0.5251 -0.6954
  476THF     H4 8119   2.348   1.007   2.374 -0.8711 -1.2828  0.4664
  476THF     H5 8120   2.340   1.007   2.192 -0.2109  0.1998 -0.3270
  476THF     H6 8121   2.090   1.276   2.354  1.0929 -0.4553 -0.5770
  476THF     H7 8122   2.073   1.209   2.193  1.2715  0.0885 -0.8978
  476THF     C8 8123   2.055   1.062   2.339 -0.3737  0.2462 -0.3244
  476THF     C9 8124   2.146   0.960   2.284  0.4227 -0.3686 -0.1768
  476THF    H10 8125   1.953   1.053   2.301  0.2200  0.3602 -2.0426
  476THF    H11 8126   2.060   1.066   2.448  1.2253 -0.9484 -0.3176
  476THF    H12 8127   2.143   0.864   2.335  1.7803 -0.7552 -0.7859
  476THF    H13 8128   2.108   0.951   2.182  0.3177 -1.3006 -0.0629
  477THF     O1 8129   5.435   2.071   5.228  0.6689  0.6561  0.5128
  477THF     C2 8130   5.474   2.200   5.258  0.6376 -0.4860  0.1816
  477THF     C3 8131   5.542   2.002   5.167 -1.0786  0.5501 -0.0988
  477THF     H4 8132   5.466   2.215   5.365  0.6029 -0.1751  0.1364
  477THF     H5 8133   5.406   2.281   5.229  1.1387 -0.3282 -0.5955
  477THF     H6 8134   5.598   1.938   5.235  2.9363 -0.3365 -3.8141
  477THF     H7 8135   5.500   1.930   5.097 -0.1156 -1.5878  1.4330
  477THF     C8 8136   5.632   2.114   5.105 -0.1322  0.6569 -0.0773
  477THF     C9 8137   5.619   2.220   5.211 -0.0608  0.4836 -0.1711
  477THF    H10 8138   5.590   2.150   5.011 -0.7935  0.0816 -0.0043
  477THF    H11 8139   5.738   2.093   5.086 -0.4047  0.2537 -1.2388
  477THF    H12 8140   5.692   2.204   5.290 -0.5156  0.6651  0.2940
  477THF    H13 8141   5.639   2.322   5.178  1.1841  0.1083 -0.6286
  478THF     O1 8142   2.842   4.958   0.086  0.1093  0.0236 -0.3779
  478THF     C2 8143   2.826   4.888  -0.036 -1.0587 -0.1188  0.1237
  478THF     C3 8144   2.981   4.995   0.106  0.3025  0.4527  0.7539
  478THF     H4 8145   2.739   4.928  -0.088  0.0827  1.5950 -0.5520
  478THF     H5 8146   2.822   4.782  -0.012  1.4557 -0.1826  0.5554
  478THF     H6 8147   3.006   5.101   0.103  1.4057  0.2345  1.5567
  478THF     H7 8148   3.016   4.953   0.200  1.2823 -0.2435  0.1113
  478THF     C8 8149   3.060   4.918  -0.004 -0.2085 -0.5137  0.2619
  478THF     C9 8150   2.951   4.927  -0.116  0.5044  0.1985  0.5713
  478THF    H10 8151   3.077   4.812   0.013  0.3997 -0.2594  1.3409
  478THF    H11 8152   3.155   4.963  -0.033 -0.0581 -0.7697  0.3555
  478THF    H12 8153   2.948   5.024  -0.165  0.7000 -0.0624  0.0317
  478THF    H13 8154   2.975   4.855  -0.194 -0.3574  0.8756 -0.3404
  479THF     O1 8155   0.775   4.064   5.025  0.1770  0.3265 -0.2197
  479THF     C2 8156   0.873   4.034   5.119 -0.2914 -0.1521  0.0627
  479THF     C3 8157   0.656   4.087   5.101  0.2055 -0.5624  0.0138
  479THF     H4 8158   0.913   4.124   5.165  0.4719 -0.4489 -0.0091
  479THF     H5 8159   0.961   3.988   5.075  2.3622  3.3290  1.2675
  479THF     H6 8160   0.640   4.191   5.131  0.3710 -0.0861 -1.4806
  479THF     H7 8161   0.571   4.070   5.036 -0.5998  0.9195  0.6210
  479THF     C8 8162   0.665   3.982   5.213 -0.0311 -0.6050 -0.5161
  479THF     C9 8163   0.804   3.932   5.213 -1.1911  0.4922  0.3334
  479THF    H10 8164   0.599   3.899   5.191  0.9223 -1.6466  0.4578
  479THF    H11 8165   0.640   4.023   5.311  0.4647 -2.0555  0.2339
  479THF    H12 8166   0.859   3.929   5.307 -1.3237 -0.8939  0.3915
  479THF    H13 8167   0.821   3.831   5.176  0.3732  1.5009 -1.9351
  480THF     O1 8168   1.597   1.244   4.673  0.5265 -0.6439  0.2708
  480THF     C2 8169   1.509   1.182   4.571 -1.1686 -0.4875  0.0613
  480THF     C3 8170   1.659   1.135   4.735 -0.0069  0.2617 -0.0858
  480THF     H4 8171   1.519   1.241   4.479 -1.7798 -0.2301  0.1527
  480THF     H5 8172   1.402   1.189   4.591 -0.6238  0.5024  3.0659
  480THF     H6 8173   1.748   1.171   4.787  0.7881 -0.6686 -0.7722
  480THF     H7 8174   1.593   1.076   4.799 -0.9216 -0.3759 -1.5766
  480THF     C8 8175   1.691   1.039   4.623 -0.2852 -0.7368  0.0975
  480THF     C9 8176   1.560   1.036   4.551  0.6880  0.6059 -0.6737
  480THF    H10 8177   1.725   0.945   4.667 -1.5062 -0.7905  0.9698
  480THF    H11 8178   1.771   1.073   4.556  0.1270 -0.5270  0.6898
  480THF    H12 8179   1.585   1.001   4.451  0.6588 -1.6015  0.0221
  480THF    H13 8180   1.499   0.961   4.603  0.5165  0.1890 -1.4654
  481THF     O1 8181   4.298   2.489   3.117  0.1915 -0.9156  0.8234
  481THF     C2 8182   4.342   2.521   2.983 -0.1037 -0.9444  0.4655
  481THF     C3 8183   4.158   2.478   3.121  0.1783  0.7491 -0.0939
  481THF     H4 8184   4.393   2.435   2.940  0.0537 -1.6326  1.9499
  481THF     H5 8185   4.423   2.594   2.986 -1.4814  0.6382  1.0800
  481THF     H6 8186   4.131   2.372   3.124 -0.4392  0.8964 -0.4267
  481THF     H7 8187   4.122   2.528   3.211 -0.7018  1.0897 -0.6272
  481THF     C8 8188   4.099   2.537   2.996  0.2313  0.8404  0.8841
  481THF     C9 8189   4.212   2.539   2.898 -0.2879  0.4363  0.3025
  481THF    H10 8190   4.057   2.638   3.000 -1.9615  0.0941 -0.8649
  481THF    H11 8191   4.015   2.480   2.954  1.5868  1.5371 -3.2556
  481THF    H12 8192   4.204   2.448   2.839 -1.5142 -0.7325  2.1505
  481THF    H13 8193   4.199   2.618   2.824 -0.9775 -0.2402 -0.3162
  482THF     O1 8194   0.708   3.245   3.496 -0.2035 -0.9496 -0.0610
  482THF     C2 8195   0.802   3.302   3.584  0.3127 -0.1652 -0.0397
  482THF     C3 8196   0.591   3.227   3.566  0.6895  0.3893  0.2946
  482THF     H4 8197   0.889   3.339   3.531  2.0807 -0.4137  2.5046
  482THF     H5 8198   0.837   3.220   3.647 -3.1235 -2.5954 -1.0327
  482THF     H6 8199   0.507   3.203   3.501  2.1053 -0.0357 -1.4561
  482THF     H7 8200   0.609   3.155   3.647  2.5305  0.0237 -0.4026
  482THF     C8 8201   0.584   3.367   3.623  1.0429 -0.2755  0.2801
  482THF     C9 8202   0.726   3.410   3.655  1.2260  0.3228  0.1944
  482THF    H10 8203   0.519   3.372   3.711 -0.2172 -0.5668 -0.6028
  482THF    H11 8204   0.539   3.441   3.557  1.2400  1.2874  1.8374
  482THF    H12 8205   0.738   3.511   3.617 -1.3885 -0.2347 -2.4953
  482THF    H13 8206   0.748   3.396   3.761  0.4918 -1.0309  0.1983
  483THF     O1 8207   3.824   2.380   0.239  0.7333 -0.1731 -0.6568
  483THF     C2 8208   3.862   2.289   0.343  0.3260  0.1124  0.1069
  483THF     C3 8209   3.694   2.355   0.195 -0.3591 -0.1486  0.0784
  483THF     H4 8210   3.939   2.331   0.408  0.4919 -1.0126  0.6453
  483THF     H5 8211   3.911   2.201   0.303  2.5338  1.1276  0.4220
  483THF     H6 8212   3.658   2.450   0.156 -1.5922 -0.0825  1.2942
  483THF     H7 8213   3.693   2.283   0.114 -2.5069 -1.5236  1.2412
  483THF     C8 8214   3.628   2.313   0.328  0.3484  0.3232  0.1378
  483THF     C9 8215   3.736   2.240   0.418 -0.2501 -0.8254  0.5044
  483THF    H10 8216   3.543   2.248   0.308  0.6571 -0.0693  0.0942
  483THF    H11 8217   3.593   2.394   0.392  0.2789 -0.9900  1.8343
  483THF    H12 8218   3.734   2.272   0.523  0.1259  0.1132  0.2387
  483THF    H13 8219   3.719   2.134   0.400  0.5394 -0.7110 -1.0091
  484THF     O1 8220   2.063   1.978   5.419  0.6276 -0.3134 -0.1909
  484THF     C2 8221   1.984   2.095   5.398 -0.4168  0.3503  0.1903
  484THF     C3 8222   1.986   1.892   5.508  0.7967  0.4334 -0.0839
  484THF     H4 8223   2.006   2.127   5.296 -2.0432  1.6696  0.2020
  484THF     H5 8224   2.001   2.168   5.477 -0.6939 -2.6014  3.2008
  484THF     H6 8225   1.995   1.787   5.479 -1.1559 -0.0931  0.9935
  484THF     H7 8226   2.034   1.900   5.606  1.7545 -2.4333 -0.2156
  484THF     C8 8227   1.842   1.932   5.515 -0.1136 -0.1235  0.1965
  484THF     C9 8228   1.840   2.040   5.404  0.5607  0.0937  0.1757
  484THF    H10 8229   1.811   1.982   5.607  1.1939  1.6600 -0.2796
  484THF    H11 8230   1.778   1.848   5.489  0.5221 -0.2852 -0.9207
  484THF    H12 8231   1.802   1.987   5.317 -1.5299 -1.0589  1.7117
  484THF    H13 8232   1.767   2.114   5.437  1.3342  0.3834  1.2958
  485THF     O1 8233   0.571   3.460   0.375  0.1064 -0.6920  0.1810
  485THF     C2 8234   0.621   3.587   0.326 -0.0248 -0.1600 -0.2115
  485THF     C3 8235   0.678   3.407   0.447  0.3370 -0.2026 -0.5898
  485THF     H4 8236   0.608   3.668   0.396 -0.2999  0.0455 -0.4954
  485THF     H5 8237   0.569   3.604   0.231 -0.8411 -0.4403  0.1823
  485THF     H6 8238   0.686   3.467   0.538  0.2785 -0.7972 -0.1867
  485THF     H7 8239   0.656   3.304   0.475 -1.7704  0.4687  0.4640
  485THF     C8 8240   0.797   3.422   0.356 -0.2597  0.0392 -0.4206
  485THF     C9 8241   0.774   3.569   0.311  0.1869 -0.1917 -0.3867
  485THF    H10 8242   0.782   3.354   0.272  0.2852  1.6850 -1.9044
  485THF    H11 8243   0.900   3.415   0.392 -0.3567  2.6712  0.5921
  485THF    H12 8244   0.820   3.646   0.372  0.8033 -1.5789  0.9416
  485THF    H13 8245   0.805   3.572   0.206  0.4538  0.2530 -0.2958
  486THF     O1 8246   0.826   2.193   1.229 -0.1139  0.0582  0.2633
  486THF     C2 8247   0.828   2.108   1.121  0.0150 -0.3614 -0.2855
  486THF     C3 8248   0.766   2.314   1.174 -0.2563 -0.7225 -0.2119
  486THF     H4 8249   0.867   2.012   1.154 -1.2391 -0.0404  2.3764
  486THF     H5 8250   0.906   2.149   1.055  0.4689 -2.6601 -1.2517
  486THF     H6 8251   0.735   2.400   1.234  0.6039 -1.7248  1.7692
  486THF     H7 8252   0.844   2.345   1.105  1.6455 -0.2012  2.0294
  486THF     C8 8253   0.650   2.266   1.088  0.1744 -0.0226 -0.1416
  486THF     C9 8254   0.691   2.121   1.055  0.2638  0.0145 -0.0775
  486THF    H10 8255   0.627   2.325   1.000 -0.7048  1.1053  0.8159
  486THF    H11 8256   0.559   2.272   1.149 -1.1099 -1.4318 -1.8058
  486THF    H12 8257   0.627   2.055   1.114  0.1957  0.6466  0.5670
  486THF    H13 8258   0.675   2.098   0.950 -0.5765 -0.1990  0.0840
  487THF     O1 8259   0.598   0.077   0.418  0.1207 -0.5934  0.3625
  487THF     C2 8260   0.617  -0.062   0.420 -0.1408  0.0586  0.5275
  487THF     C3 8261   0.612   0.126   0.286 -0.4143 -0.2740 -0.5903
  487THF     H4 8262   0.526  -0.118   0.401  0.1205 -0.4989  0.8795
  487THF     H5 8263   0.655  -0.095   0.517 -0.8631  1.6552  1.3921
  487THF     H6 8264   0.523   0.109   0.226 -0.9030  1.3054 -0.3825
  487THF     H7 8265   0.631   0.233   0.274  0.5617 -0.2350  1.0436
  487THF     C8 8266   0.728   0.051   0.235 -0.5578  0.0950  1.0617
  487THF     C9 8267   0.713  -0.089   0.302  0.0989  0.3975  0.6380
  487THF    H10 8268   0.812   0.107   0.276 -0.1124 -0.4944  0.9524
  487THF    H11 8269   0.745   0.059   0.128  0.8971  1.3002  1.3487
  487THF    H12 8270   0.659  -0.158   0.237  1.3525 -0.1691  0.1595
  487THF    H13 8271   0.807  -0.141   0.320 -0.7315 -1.4710 -0.1882
  488THF     O1 8272   4.984   4.587   4.281  0.0977  0.0869 -0.2346
  488THF     C2 8273   4.960   4.726   4.258 -0.7690 -0.1248  0.4264
  488THF     C3 8274   4.960   4.563   4.418 -0.4569  0.2794  0.6308
  488THF     H4 8275   4.855   4.736   4.230 -1.1045 -3.8101 -0.1757
  488THF     H5 8276   5.022   4.757   4.174 -0.1231 -0.7811  0.6483
  488THF     H6 8277   4.872   4.498   4.427 -0.6761  0.4767 -0.0410
  488THF     H7 8278   5.039   4.503   4.463  0.1172  2.5636  2.9087
  488THF     C8 8279   4.938   4.689   4.496  0.4145 -0.2953  1.0436
  488THF     C9 8280   4.985   4.790   4.394 -0.4479 -0.2116  0.3563
  488THF    H10 8281   4.997   4.692   4.588  0.4917 -1.0360  1.0287
  488THF    H11 8282   4.833   4.710   4.519  0.1624 -0.0203 -0.2920
  488THF    H12 8283   4.946   4.892   4.398 -2.3370 -0.7531 -1.7403
  488THF    H13 8284   5.092   4.805   4.404 -0.3645 -1.0952  0.9419
  489THF     O1 8285   4.069   1.533   1.252  0.0286  0.7152  0.0133
  489THF     C2 8286   3.946   1.589   1.203 -0.6173 -0.2871 -0.3254
  489THF     C3 8287   4.133   1.455   1.154  0.5378 -0.4325 -0.2912
  489THF     H4 8288   3.963   1.695   1.185  1.7409 -0.6709 -0.7083
  489THF     H5 8289   3.870   1.579   1.281 -1.4148 -2.0500 -1.2718
  489THF     H6 8290   4.207   1.503   1.089 -1.6893  1.9154 -1.2510
  489THF     H7 8291   4.162   1.360   1.199 -2.5314 -0.3478  2.2300
  489THF     C8 8292   4.014   1.407   1.062 -0.2623 -0.0447  0.5924
  489THF     C9 8293   3.908   1.513   1.078  0.3680  0.1418  0.3215
  489THF    H10 8294   3.970   1.316   1.105  0.4371 -0.2942  0.7901
  489THF    H11 8295   4.048   1.394   0.960 -0.5814 -1.9105  0.6822
  489THF    H12 8296   3.878   1.587   1.004  0.4253  2.1080  2.2020
  489THF    H13 8297   3.812   1.465   1.097  0.5730 -0.5147 -0.2376
  490THF     O1 8298   4.652   3.265   4.801  0.2571  0.2759 -0.4057
  490THF     C2 8299   4.682   3.212   4.927 -0.4252  0.6714 -0.8001
  490THF     C3 8300   4.512   3.270   4.790 -0.6013 -0.0096 -0.0352
  490THF     H4 8301   4.678   3.300   4.990 -0.1361 -0.8474  1.4386
  490THF     H5 8302   4.781   3.165   4.932  0.1239  1.6747 -1.6956
  490THF     H6 8303   4.458   3.341   4.853  1.3801  0.2649  1.4937
  490THF     H7 8304   4.482   3.291   4.688  1.1043 -0.5314 -0.6744
  490THF     C8 8305   4.472   3.128   4.836  0.7665  0.1299 -0.2106
  490THF     C9 8306   4.568   3.109   4.952 -0.6786  0.4334  0.3611
  490THF    H10 8307   4.491   3.056   4.757 -0.3034 -0.1602 -0.2140
  490THF    H11 8308   4.368   3.126   4.867  0.9916 -0.0975  0.5525
  490THF    H12 8309   4.522   3.113   5.050 -0.1775  2.0798  0.5619
  490THF    H13 8310   4.624   3.015   4.945  1.2705  1.4272  1.5733
  491THF     O1 8311   4.448   4.044   0.952  0.3271  0.4979  0.4904
  491THF     C2 8312   4.349   3.978   0.880 -0.4680 -0.9374  0.6821
  491THF     C3 8313   4.573   4.010   0.892 -0.0714  0.5762 -0.4260
  491THF     H4 8314   4.298   4.035   0.802  0.9776 -1.5162 -0.7670
  491THF     H5 8315   4.264   3.944   0.939 -2.8042  1.5638 -1.0056
  491THF     H6 8316   4.587   4.055   0.794 -0.5149 -0.5682 -1.0321
  491THF     H7 8317   4.647   4.039   0.967  0.2783 -1.2740 -0.0013
  491THF     C8 8318   4.561   3.864   0.869  0.3385  0.8240  0.1837
  491THF     C9 8319   4.419   3.851   0.820 -0.8669 -0.7031  0.4067
  491THF    H10 8320   4.582   3.815   0.964  0.5322  1.1163  0.2935
  491THF    H11 8321   4.633   3.830   0.795 -0.3713  0.7865 -0.5056
  491THF    H12 8322   4.419   3.858   0.711  3.0233 -1.0397  0.2591
  491THF    H13 8323   4.364   3.759   0.842 -0.1234 -1.4002 -0.5835
  492THF     O1 8324   1.539   3.633   2.668 -0.3835  0.3891  0.0828
  492THF     C2 8325   1.531   3.650   2.530  0.2430  0.6388 -0.2515
  492THF     C3 8326   1.449   3.517   2.689  0.2239 -0.1572 -0.7914
  492THF     H4 8327   1.584   3.566   2.487 -0.3156 -0.4013  1.0274
  492THF     H5 8328   1.578   3.745   2.503  0.5408  0.2812 -1.0081
  492THF     H6 8329   1.508   3.426   2.677  0.2045 -0.2297 -0.3617
  492THF     H7 8330   1.421   3.519   2.795 -2.4728  0.9650 -1.4357
  492THF     C8 8331   1.332   3.533   2.595  0.2419 -0.1151  0.7566
  492THF     C9 8332   1.382   3.637   2.500  0.0785 -0.6516  0.4086
  492THF    H10 8333   1.240   3.561   2.645  0.4549  1.4138  0.3262
  492THF    H11 8334   1.319   3.439   2.541 -0.7038  0.9335 -0.9236
  492THF    H12 8335   1.368   3.614   2.395  0.9889  1.7947 -0.3104
  492THF    H13 8336   1.350   3.739   2.523  3.0641  0.3257  0.6444
  493THF     O1 8337   5.121   3.936   2.419  0.0924  0.0753 -0.0541
  493THF     C2 8338   5.180   3.909   2.542 -0.7394 -0.0053 -0.2029
  493THF     C3 8339   5.226   3.959   2.331 -0.2329 -0.3860  0.3109
  493THF     H4 8340   5.111   3.856   2.607 -1.2550  1.6408  0.6290
  493THF     H5 8341   5.203   3.997   2.601  2.0809 -1.2136  0.6786
  493THF     H6 8342   5.188   3.935   2.232  0.4945  4.6317 -1.4704
  493THF     H7 8343   5.263   4.061   2.337 -1.3224 -0.0318  1.6916
  493THF     C8 8344   5.326   3.852   2.362  0.4462 -0.0692  0.1876
  493THF     C9 8345   5.304   3.830   2.508 -0.0991  0.0310  0.0923
  493THF    H10 8346   5.420   3.896   2.330 -1.4456  0.8497 -5.2532
  493THF    H11 8347   5.301   3.759   2.310  0.0157  0.4927 -0.6294
  493THF    H12 8348   5.306   3.725   2.537  0.1090  0.1233  0.4121
  493THF    H13 8349   5.385   3.876   2.564  0.4820 -1.0226  0.1446
  494THF     O1 8350   4.099   1.503   5.416  0.2225 -0.6233 -0.3159
  494THF     C2 8351   4.242   1.495   5.426 -0.1715  0.4512 -0.1674
  494THF     C3 8352   4.055   1.527   5.283 -0.1317 -0.2387 -0.6480
  494THF     H4 8353   4.283   1.409   5.479 -1.2897 -1.1318 -1.7511
  494THF     H5 8354   4.277   1.592   5.460 -1.9569  0.5089  1.7450
  494THF     H6 8355   4.005   1.438   5.245 -0.6374  0.4867 -1.7452
  494THF     H7 8356   3.983   1.609   5.279 -0.1408 -0.2090  0.0290
  494THF     C8 8357   4.183   1.539   5.202 -1.2401  0.2628  0.1074
  494THF     C9 8358   4.278   1.452   5.287  0.8948 -0.2275 -0.0876
  494THF    H10 8359   4.229   1.638   5.206  0.9050 -0.6810  0.1029
  494THF    H11 8360   4.182   1.501   5.100 -0.7341 -0.0157  0.2038
  494THF    H12 8361   4.272   1.344   5.269  1.1191 -0.5873  1.7357
  494THF    H13 8362   4.383   1.481   5.281  1.2058 -0.7724  1.9168
  495THF     O1 8363   0.200   4.097   4.186  0.2169 -0.2200  0.6816
  495THF     C2 8364   0.269   4.218   4.208  0.4164  0.8267  0.0153
  495THF     C3 8365   0.225   4.007   4.293  0.0628 -0.1132  0.6724
  495THF     H4 8366   0.210   4.283   4.273 -0.9348  1.1983 -1.5188
  495THF     H5 8367   0.282   4.272   4.114  0.4300  1.1200  0.1852
  495THF     H6 8368   0.143   4.020   4.363  0.1938  2.3143  0.4716
  495THF     H7 8369   0.215   3.916   4.234 -2.4733  1.6779 -1.9317
  495THF     C8 8370   0.363   4.042   4.344 -0.6373 -0.9686 -0.1590
  495THF     C9 8371   0.404   4.160   4.257 -0.0161  0.0545 -0.7428
  495THF    H10 8372   0.437   3.962   4.341  0.2736 -0.1370 -2.4555
  495THF    H11 8373   0.371   4.058   4.451  0.1864 -0.7136 -0.2530
  495THF    H12 8374   0.469   4.234   4.303  0.5412  0.5136 -2.2182
  495THF    H13 8375   0.454   4.127   4.166  0.6659  2.5035 -1.3235
  496THF     O1 8376   0.516   4.988   4.399  0.5507 -0.4188  0.5752
  496THF     C2 8377   0.452   5.085   4.473 -0.1125 -0.1829 -0.5911
  496THF     C3 8378   0.460   4.973   4.270 -0.0624 -0.6480 -0.2950
  496THF     H4 8379   0.497   5.182   4.454  0.2647 -0.2361 -0.0242
  496THF     H5 8380   0.448   5.070   4.581  2.9310 -0.0708 -0.3640
  496THF     H6 8381   0.501   5.045   4.200 -0.1562 -1.3519 -1.0815
  496THF     H7 8382   0.475   4.873   4.230 -1.1477 -0.9890  0.1157
  496THF     C8 8383   0.316   4.988   4.300  0.2732  0.4069  0.3690
  496THF     C9 8384   0.304   5.083   4.419 -0.5163  0.1446  0.2417
  496THF    H10 8385   0.291   4.887   4.336  1.7043 -1.1400 -2.6486
  496THF    H11 8386   0.252   5.008   4.214  0.4006 -0.9884 -0.0825
  496THF    H12 8387   0.276   5.184   4.390  0.6720  0.4211  0.0343
  496THF    H13 8388   0.235   5.055   4.499 -1.7749  0.7276 -0.5966
  497THF     O1 8389   3.016   3.826   1.555 -0.1666 -0.7418  0.4307
  497THF     C2 8390   3.017   3.827   1.413  0.0062  0.3942 -0.4321
  497THF     C3 8391   3.015   3.965   1.592 -0.1954 -0.4111 -0.0219
  497THF     H4 8392   2.995   3.733   1.361 -0.9862 -0.7030  1.8313
  497THF     H5 8393   3.115   3.846   1.370  0.0214  0.8668 -0.1856
  497THF     H6 8394   2.984   3.979   1.695 -0.1862  2.7050 -0.3368
  497THF     H7 8395   3.112   4.012   1.575 -0.6492  0.4658 -0.2426
  497THF     C8 8396   2.913   4.022   1.495  0.4061 -0.2056 -0.0706
  497THF     C9 8397   2.922   3.939   1.370  0.0775 -0.2928  0.1921
  497THF    H10 8398   2.935   4.127   1.478 -0.1123 -0.2368 -1.0105
  497THF    H11 8399   2.813   4.009   1.535 -0.8697  0.6815 -2.7658
  497THF    H12 8400   2.822   3.907   1.341 -0.1998  2.0079 -1.6188
  497THF    H13 8401   2.963   4.001   1.291 -1.2883 -0.0492 -0.3661
  498THF     O1 8402   0.687   1.889   4.976  0.0247  0.3927  0.1705
  498THF     C2 8403   0.646   1.912   5.107 -0.1655 -0.1573  0.6197
  498THF     C3 8404   0.718   2.020   4.932  0.3173 -0.6031 -0.4294
  498THF     H4 8405   0.731   1.945   5.167  0.0768  1.2787 -0.4674
  498THF     H5 8406   0.610   1.819   5.151  0.5470 -0.7470 -0.0131
  498THF     H6 8407   0.820   2.045   4.962 -0.1706  1.4856 -0.3475
  498THF     H7 8408   0.711   2.028   4.823  1.6745  1.8164 -0.4139
  498THF     C8 8409   0.607   2.116   5.003 -0.5419  0.1693 -0.2611
  498THF     C9 8410   0.540   2.023   5.098  0.3414 -0.8681  0.4742
  498THF    H10 8411   0.541   2.155   4.926 -0.6683 -2.1488 -1.4060
  498THF    H11 8412   0.654   2.194   5.065 -0.2459 -2.2562  2.8235
  498THF    H12 8413   0.527   2.070   5.196  3.4295  0.4829  0.3299
  498THF    H13 8414   0.454   1.975   5.052  0.6479  0.2211 -1.3048
  499THF     O1 8415   1.949   2.737   2.714 -0.1932  0.3307  0.8238
  499THF     C2 8416   1.913   2.670   2.594 -0.3758 -0.0617  0.3099
  499THF     C3 8417   2.049   2.664   2.776 -0.1786  0.0129  0.9968
  499THF     H4 8418   1.921   2.748   2.519 -1.4606 -1.3080 -1.1595
  499THF     H5 8419   1.807   2.643   2.590 -0.5959  0.8915 -0.4803
  499THF     H6 8420   2.122   2.727   2.826 -0.4056  0.8389  0.3076
  499THF     H7 8421   2.008   2.591   2.846  2.3291 -1.3961  1.1095
  499THF     C8 8422   2.116   2.593   2.656  0.6455  0.1785 -0.1011
  499THF     C9 8423   1.997   2.545   2.574 -0.2758  0.2498 -0.8107
  499THF    H10 8424   2.168   2.504   2.693 -1.5971 -0.3346  2.0208
  499THF    H11 8425   2.178   2.657   2.592 -0.0089 -0.0735 -1.0086
  499THF    H12 8426   2.014   2.521   2.469 -2.0976  3.8696 -2.1161
  499THF    H13 8427   1.958   2.457   2.625 -0.4669  2.5305  3.4962
  500THF     O1 8428   0.009   5.461   0.458 -0.5220  0.0761  0.6859
  500THF     C2 8429   0.020   5.392   0.585 -0.1233 -0.0121 -0.1339
  500THF     C3 8430   0.094   5.576   0.490  0.0798 -0.2167  0.6908
  500THF     H4 8431   0.125   5.363   0.598 -0.2701 -0.2757  0.5412
  500THF     H5 8432  -0.043   5.304   0.603 -0.5988 -0.1734 -2.3197
  500THF     H6 8433   0.198   5.550   0.510  0.1960  0.3003  0.7692
  500THF     H7 8434   0.090   5.654   0.414  1.3746 -1.9302 -1.2848
  500THF     C8 8435   0.032   5.628   0.620 -0.2945 -0.6458  0.5586
  500THF     C9 8436  -0.010   5.502   0.689  0.7573  0.0964  0.1960
  500THF    H10 8437  -0.058   5.685   0.596  0.5497  0.1347 -0.9038
  500THF    H11 8438   0.095   5.697   0.675 -1.7809 -0.3534  1.9584
  500THF    H12 8439   0.031   5.486   0.788  1.1468 -1.9036 -0.2488
  500THF    H13 8440  -0.116   5.519   0.705  0.8080  0.5316  0.1095
  501THF     O1 8441   3.244   0.365   1.557 -0.5406  0.3735  0.4948
  501THF     C2 8442   3.284   0.499   1.585 -0.0806 -0.2785  0.4762
  501THF     C3 8443   3.355   0.284   1.585  0.4814 -0.2336 -0.4705
  501THF     H4 8444   3.300   0.507   1.692  1.6078 -0.7862  0.2845
  501THF     H5 8445   3.214   0.573   1.544  1.8281  2.1684  1.3487
  501THF     H6 8446   3.364   0.273   1.694  1.3342  0.0064 -0.5116
  501THF     H7 8447   3.360   0.181   1.550  1.3488 -0.1722 -0.5523
  501THF     C8 8448   3.471   0.358   1.524 -0.7007 -0.6056  0.0081
  501THF     C9 8449   3.420   0.501   1.515 -0.1311 -0.5960  1.3423
  501THF    H10 8450   3.499   0.314   1.428  1.8099  3.1511 -1.2395
  501THF    H11 8451   3.567   0.352   1.576  0.0909 -0.6593 -1.3842
  501THF    H12 8452   3.490   0.579   1.545 -0.5332  0.6710 -0.7928
  501THF    H13 8453   3.399   0.528   1.411  2.0019  0.2969  1.0883
  502THF     O1 8454   3.044   2.948   4.575 -0.5530  0.9845  0.2441
  502THF     C2 8455   3.128   2.859   4.499 -0.9309 -0.1330 -1.4302
  502THF     C3 8456   2.948   2.867   4.648 -0.5051 -0.2863 -0.0394
  502THF     H4 8457   3.217   2.906   4.458 -1.4274 -0.2225 -2.6489
  502THF     H5 8458   3.079   2.838   4.404 -0.2087  0.1378 -1.8699
  502THF     H6 8459   2.914   2.913   4.741 -1.0822 -1.1910  0.2160
  502THF     H7 8460   2.856   2.844   4.593 -1.3419 -1.8185  1.8533
  502THF     C8 8461   3.025   2.741   4.677 -0.2897  0.7231 -1.2690
  502THF     C9 8462   3.144   2.735   4.584  0.3800 -0.2011 -0.6702
  502THF    H10 8463   2.960   2.654   4.679 -2.2962  2.1671  0.1453
  502THF    H11 8464   3.051   2.750   4.782  0.6051  1.2555 -1.5205
  502THF    H12 8465   3.236   2.752   4.640  0.3925 -1.5553 -0.2359
  502THF    H13 8466   3.155   2.643   4.527 -1.3046  0.0280 -1.4278
  503THF     O1 8467   3.286   0.421   4.181 -0.0375 -0.2970 -0.2845
  503THF     C2 8468   3.172   0.499   4.232  0.8465  0.4976 -0.3966
  503THF     C3 8469   3.368   0.387   4.294 -0.5625 -0.4215  0.5020
  503THF     H4 8470   3.096   0.438   4.280  0.7362  0.6368 -0.3968
  503THF     H5 8471   3.133   0.561   4.152  3.0504 -0.7966 -2.6487
  503THF     H6 8472   3.315   0.303   4.339 -1.1621 -0.4701 -0.2775
  503THF     H7 8473   3.473   0.358   4.287  0.0124  1.6109  0.0397
  503THF     C8 8474   3.343   0.506   4.393  0.3003  1.0170 -0.9072
  503THF     C9 8475   3.241   0.587   4.334  0.2091 -1.0443 -1.0695
  503THF    H10 8476   3.441   0.544   4.420  0.8237 -2.3387  2.8449
  503THF    H11 8477   3.296   0.462   4.481  0.3968  2.3269 -0.1744
  503THF    H12 8478   3.158   0.617   4.399  0.6428 -1.9769 -0.0610
  503THF    H13 8479   3.274   0.681   4.289 -1.0983 -0.1639 -0.2512
  504THF     O1 8480   2.132   2.243   3.917  0.1637  0.0363  0.2564
  504THF     C2 8481   2.230   2.308   3.838 -0.4029  0.1871  0.4154
  504THF     C3 8482   2.072   2.144   3.838  0.4137  1.1350 -1.0669
  504THF     H4 8483   2.301   2.366   3.898  0.3451 -1.4883  1.2133
  504THF     H5 8484   2.183   2.367   3.759  0.1461 -1.0452 -0.8755
  504THF     H6 8485   2.007   2.072   3.890  1.7015  1.9432  1.8461
  504THF     H7 8486   2.012   2.182   3.755 -3.1721  1.2223  1.3148
  504THF     C8 8487   2.199   2.074   3.793 -0.7805  0.0563  0.4054
  504THF     C9 8488   2.296   2.189   3.758  0.3842 -0.3278 -0.1586
  504THF    H10 8489   2.172   2.018   3.703 -2.2742  1.5163 -0.1237
  504THF    H11 8490   2.248   2.008   3.864  0.6645  2.3372  1.6466
  504THF    H12 8491   2.391   2.168   3.807  1.5999  1.4193 -1.6168
  504THF    H13 8492   2.304   2.210   3.651 -0.4141  2.0008  0.1677
  505THF     O1 8493   5.121   3.199   0.313 -0.0521  0.1094 -0.4202
  505THF     C2 8494   5.049   3.078   0.287  0.2403  0.0942  0.1914
  505THF     C3 8495   5.258   3.194   0.259 -0.0250  0.8256  0.0906
  505THF     H4 8496   4.977   3.093   0.207 -0.8777 -0.7467  0.9973
  505THF     H5 8497   5.005   3.050   0.383 -1.9806  1.1145 -0.4675
  505THF     H6 8498   5.293   3.277   0.196  0.3280  0.5616 -0.0607
  505THF     H7 8499   5.335   3.161   0.329 -1.5221 -0.8644  1.0132
  505THF     C8 8500   5.243   3.073   0.159  0.3494  0.7196 -0.3262
  505THF     C9 8501   5.143   2.977   0.225  0.5715  0.0948  0.0876
  505THF    H10 8502   5.335   3.018   0.143 -1.4852 -2.5813 -0.4088
  505THF    H11 8503   5.194   3.113   0.070 -0.5792  1.1469  0.3540
  505THF    H12 8504   5.089   2.914   0.154 -3.4184  1.9812  1.1683
  505THF    H13 8505   5.167   2.900   0.299 -0.1185 -0.8471 -0.6502
  506THF     O1 8506   5.080   1.775   0.477 -0.1259 -0.0527 -0.3042
  506THF     C2 8507   5.215   1.743   0.470 -0.5879 -0.9016  0.2934
  506THF     C3 8508   5.015   1.694   0.381 -0.2659 -0.2446 -1.0067
  506THF     H4 8509   5.252   1.761   0.572 -2.2661  0.2320  0.7539
  506THF     H5 8510   5.268   1.813   0.406 -0.1389  0.1130  1.7165
  506THF     H6 8511   4.909   1.686   0.402 -0.0093 -0.6730  0.2414
  506THF     H7 8512   5.038   1.733   0.282 -0.6767  0.4170 -0.8456
  506THF     C8 8513   5.089   1.557   0.388 -0.6983 -0.9734 -0.1518
  506THF     C9 8514   5.229   1.598   0.419  0.5881 -0.3556 -0.0375
  506THF    H10 8515   5.076   1.491   0.302 -1.2929 -0.5474 -0.4018
  506THF    H11 8516   5.058   1.495   0.472  1.5197 -0.6094  0.9969
  506THF    H12 8517   5.253   1.540   0.508 -2.1325  0.1326  1.1356
  506THF    H13 8518   5.293   1.587   0.332  0.2081 -4.1198  0.0144
  507THF     O1 8519   3.512   5.140   5.194  0.5726  0.9032 -0.2287
  507THF     C2 8520   3.502   5.080   5.065 -0.1618  1.2705  0.8563
  507THF     C3 8521   3.402   5.101   5.268  0.3799  0.2736 -0.1043
  507THF     H4 8522   3.595   5.071   5.009 -2.4193  2.6123 -3.5075
  507THF     H5 8523   3.421   5.125   5.008 -0.7202  1.1312  1.5320
  507THF     H6 8524   3.406   5.138   5.370  0.5612  0.7008 -0.2641
  507THF     H7 8525   3.310   5.145   5.231 -0.5238 -1.6389 -0.2823
  507THF     C8 8526   3.391   4.949   5.244 -0.9697 -0.2458  0.2062
  507THF     C9 8527   3.450   4.937   5.104  0.3161  0.2748  0.6354
  507THF    H10 8528   3.287   4.918   5.248 -1.1267  0.3361  0.6686
  507THF    H11 8529   3.440   4.892   5.323  1.0735  0.7604 -0.2609
  507THF    H12 8530   3.532   4.868   5.084 -0.5371 -1.1936  2.0097
  507THF    H13 8531   3.374   4.918   5.028  0.6645  0.0193  0.3475
  508THF     O1 8532   0.306   4.512   5.304 -0.2525 -0.1771  0.1231
  508THF     C2 8533   0.203   4.423   5.324  0.1964  0.0669  0.5418
  508THF     C3 8534   0.313   4.559   5.170  0.4518 -0.3186 -0.0822
  508THF     H4 8535   0.150   4.441   5.418  1.3225  1.0926  1.0013
  508THF     H5 8536   0.239   4.321   5.336 -1.7141 -0.6859  0.2669
  508THF     H6 8537   0.366   4.654   5.162 -0.5503  0.2211 -0.5471
  508THF     H7 8538   0.374   4.493   5.109  0.1056  1.1171 -2.1102
  508THF     C8 8539   0.165   4.554   5.128  0.3839 -0.3420 -0.5846
  508THF     C9 8540   0.117   4.429   5.201 -0.0326 -0.4000  0.5489
  508THF    H10 8541   0.148   4.554   5.020  0.1225 -2.1953 -0.5761
  508THF    H11 8542   0.124   4.649   5.162 -0.8488 -1.0130 -0.1735
  508THF    H12 8543   0.009   4.434   5.208 -0.3200 -2.7961 -1.1536
  508THF    H13 8544   0.136   4.343   5.137 -1.6313 -0.3274 -0.0551
  509THF     O1 8545   5.296   4.259   0.526 -0.1883 -0.4793  0.0290
  509THF     C2 8546   5.367   4.376   0.560 -0.8189  0.1705 -0.0947
  509THF     C3 8547   5.171   4.314   0.478  0.4296 -0.1085 -0.0890
  509THF     H4 8548   5.474   4.360   0.564 -0.8952 -0.2179  0.6743
  509THF     H5 8549   5.329   4.409   0.658 -1.2002  1.6929 -0.7215
  509THF     H6 8550   5.099   4.248   0.430 -0.7016  2.0939 -1.5642
  509THF     H7 8551   5.110   4.335   0.566 -0.1110 -1.1656 -0.1886
  509THF     C8 8552   5.208   4.425   0.382 -0.6645 -0.1904 -0.1787
  509THF     C9 8553   5.335   4.474   0.442  0.2120 -0.0122 -0.5963
  509THF    H10 8554   5.133   4.504   0.392  1.9758  2.4887 -0.1497
  509THF    H11 8555   5.220   4.398   0.277  2.0667  1.9978 -0.5538
  509THF    H12 8556   5.413   4.465   0.366 -0.5143 -0.3693 -1.3111
  509THF    H13 8557   5.325   4.573   0.487  1.3226  0.8237 -2.0569
  510THF     O1 8558   1.622   1.129   2.701 -0.5473 -0.2747  0.5697
  510THF     C2 8559   1.553   1.051   2.602 -0.2615 -0.4842  0.8691
  510THF     C3 8560   1.528   1.157   2.804 -0.4097  0.3330  0.2033
  510THF     H4 8561   1.544   0.947   2.633 -1.7005 -1.2903 -1.9360
  510THF     H5 8562   1.601   1.055   2.504 -0.9791  0.1519  0.5262
  510THF     H6 8563   1.523   1.079   2.880  0.2550  0.4636  0.3848
  510THF     H7 8564   1.548   1.253   2.851 -2.1454  1.1239 -0.5933
  510THF     C8 8565   1.395   1.168   2.730  0.5452 -0.1746 -0.1654
  510THF     C9 8566   1.421   1.117   2.595  0.4248 -0.2839 -0.1625
  510THF    H10 8567   1.356   1.269   2.738  0.9298  0.1752 -2.3175
  510THF    H11 8568   1.329   1.097   2.781 -0.9010  1.4548  0.3540
  510THF    H12 8569   1.337   1.059   2.559  0.1280  1.1256 -1.8368
  510THF    H13 8570   1.421   1.196   2.520 -0.9959 -0.6220 -0.5429
  511THF     O1 8571   4.056   2.023   3.817  0.0539  0.2078 -0.1238
  511THF     C2 8572   4.112   2.089   3.933  0.4333  0.3278  0.7638
  511THF     C3 8573   3.931   1.970   3.848 -0.1128 -0.0656 -0.4876
  511THF     H4 8574   4.153   2.186   3.905 -1.5135  0.6616 -1.2470
  511THF     H5 8575   4.189   2.024   3.976 -0.8918 -0.2102  2.4119
  511THF     H6 8576   3.849   2.032   3.811 -0.5812 -1.3551 -1.7477
  511THF     H7 8577   3.923   1.866   3.814  0.4933 -0.5825  0.8993
  511THF     C8 8578   3.923   1.982   3.998 -0.0359 -0.1759  0.3618
  511THF     C9 8579   3.995   2.116   4.028  0.1544  0.1598 -0.2761
  511THF    H10 8580   3.975   1.897   4.044 -0.5919 -0.1976  0.9678
  511THF    H11 8581   3.822   1.974   4.038 -0.2517  1.7323  0.2916
  511THF    H12 8582   3.930   2.194   3.988 -1.4647 -1.4815 -1.0439
  511THF    H13 8583   4.012   2.128   4.135 -2.5162 -0.4251  0.2917
  512THF     O1 8584   5.100   1.573   3.136 -0.0164  1.0205 -0.3427
  512THF     C2 8585   5.054   1.530   3.259  0.4327  0.3038 -0.6103
  512THF     C3 8586   4.990   1.643   3.068  0.0633  0.2247  0.6178
  512THF     H4 8587   5.133   1.501   3.329  2.8929  1.4957 -2.6892
  512THF     H5 8588   4.984   1.450   3.238  1.1811  0.0674 -2.4135
  512THF     H6 8589   5.036   1.716   3.002  0.3797 -1.3829 -1.0452
  512THF     H7 8590   4.927   1.575   3.010  0.4857 -0.6485  1.1457
  512THF     C8 8591   4.896   1.699   3.183 -1.1152  0.0263  0.4979
  512THF     C9 8592   4.967   1.645   3.307  0.2712 -0.3999 -0.4881
  512THF    H10 8593   4.799   1.651   3.170 -0.1937 -1.2720 -2.3681
  512THF    H11 8594   4.883   1.807   3.174  1.3292  0.2960 -0.8380
  512THF    H12 8595   5.036   1.718   3.351  0.5097 -1.1948  0.5080
  512THF    H13 8596   4.897   1.622   3.388 -0.9660 -0.9258 -1.6789
  513THF     O1 8597   0.635   0.629   2.506 -0.1309  0.3737  0.1545
  513THF     C2 8598   0.713   0.535   2.435 -0.3319 -0.1553 -0.1519
  513THF     C3 8599   0.699   0.758   2.504 -0.0385  0.0897 -0.6868
  513THF     H4 8600   0.658   0.452   2.390 -1.1703  0.0854  0.3934
  513THF     H5 8601   0.788   0.486   2.498  1.7853  2.3550 -0.5781
  513THF     H6 8602   0.627   0.834   2.533  1.1676  1.1487 -0.3863
  513THF     H7 8603   0.778   0.772   2.577  1.8757  0.3063 -2.7131
  513THF     C8 8604   0.745   0.760   2.365 -0.2232  0.7863 -0.1968
  513THF     C9 8605   0.778   0.614   2.324 -0.2618 -0.2729 -0.2031
  513THF    H10 8606   0.826   0.831   2.351  0.1026  0.0688 -2.4165
  513THF    H11 8607   0.658   0.791   2.307 -1.1666 -0.3674  0.5401
  513THF    H12 8608   0.736   0.578   2.230  1.0958 -0.2684 -0.8289
  513THF    H13 8609   0.881   0.578   2.329 -0.5272 -0.9016  2.4259
  514THF     O1 8610   3.236   2.344   2.444  0.3197  0.5258 -0.0697
  514THF     C2 8611   3.359   2.382   2.498 -0.3567  0.6377 -0.5276
  514THF     C3 8612   3.247   2.306   2.311  0.4724 -0.2538 -0.0361
  514THF     H4 8613   3.356   2.391   2.606 -1.3598  2.3413 -0.6541
  514THF     H5 8614   3.397   2.471   2.449 -2.2800  0.9449 -1.5921
  514THF     H6 8615   3.154   2.255   2.284  0.7439  0.2827 -2.1618
  514THF     H7 8616   3.259   2.398   2.253  1.3408  1.6302  2.8890
  514THF     C8 8617   3.369   2.218   2.324 -0.1508 -0.1191 -0.0429
  514THF     C9 8618   3.441   2.266   2.446 -0.5413 -0.7820  0.3478
  514THF    H10 8619   3.423   2.223   2.230  2.0597 -1.4689  1.0642
  514THF    H11 8620   3.343   2.112   2.335  1.2772 -0.5087 -0.2892
  514THF    H12 8621   3.453   2.188   2.522 -1.0880 -0.5887  0.6376
  514THF    H13 8622   3.544   2.292   2.420 -1.3220  0.3873 -1.7846
  515THF     O1 8623   3.782   1.137   1.224 -0.2645 -0.8625 -0.1674
  515THF     C2 8624   3.698   1.242   1.283 -0.0303  0.2929 -0.1996
  515THF     C3 8625   3.700   1.025   1.234  0.4405 -0.7254  0.3686
  515THF     H4 8626   3.619   1.268   1.213  0.6627 -0.8564 -1.4759
  515THF     H5 8627   3.761   1.330   1.295 -1.6870  1.3667  0.9732
  515THF     H6 8628   3.610   1.037   1.174  0.1571 -0.6403  0.7986
  515THF     H7 8629   3.750   0.930   1.215 -1.9134 -1.4108 -3.4801
  515THF     C8 8630   3.654   1.023   1.378 -0.0448 -0.4123 -0.7674
  515THF     C9 8631   3.638   1.175   1.405  0.0825 -0.7224  0.0671
  515THF    H10 8632   3.727   0.980   1.446  0.2988  1.0139 -0.1994
  515THF    H11 8633   3.555   0.982   1.397 -1.1849  2.7147  0.6993
  515THF    H12 8634   3.541   1.216   1.434  1.1545  2.0092  0.1007
  515THF    H13 8635   3.704   1.190   1.491  1.2415  1.2402 -1.0903
  516THF     O1 8636   0.353   0.101   0.019  0.3335 -0.6365  0.1124
  516THF     C2 8637   0.295  -0.000   0.093  0.3048  0.5975  0.9742
  516THF     C3 8638   0.454   0.046  -0.074 -0.2715  0.0357 -1.3073
  516THF     H4 8639   0.195   0.003   0.050  0.9537  1.1188 -0.5490
  516THF     H5 8640   0.274   0.019   0.198  0.6381 -1.5574  1.4819
  516THF     H6 8641   0.463   0.092  -0.173  0.5378  1.1436 -0.7436
  516THF     H7 8642   0.548   0.067  -0.023 -0.2999  0.0254 -1.2513
  516THF     C8 8643   0.434  -0.099  -0.077 -0.0129  0.6726  0.5286
  516THF     C9 8644   0.386  -0.126   0.065  0.6614  0.5500  0.6347
  516THF    H10 8645   0.521  -0.155  -0.110 -1.3590 -1.4987  0.4722
  516THF    H11 8646   0.356  -0.117  -0.151 -1.7732  1.1256  2.1871
  516THF    H12 8647   0.320  -0.213   0.060  3.1819 -1.4693  0.0467
  516THF    H13 8648   0.466  -0.147   0.135  0.2156 -1.2953  0.6404
  517THF     O1 8649   3.964   0.059   2.234  1.0784  0.2702  0.3976
  517THF     C2 8650   3.841  -0.013   2.258 -0.5284 -0.6227  0.4224
  517THF     C3 8651   4.057   0.010   2.331  0.1973 -0.2900  0.1125
  517THF     H4 8652   3.782  -0.008   2.166  0.9017  2.3961 -0.4337
  517THF     H5 8653   3.792   0.035   2.342  2.5653 -0.3547  2.1784
  517THF     H6 8654   4.157   0.038   2.298 -0.2842  1.2220 -0.1576
  517THF     H7 8655   4.033   0.059   2.426  1.1883  0.9730 -0.2521
  517THF     C8 8656   4.031  -0.135   2.357  0.5481  0.0946  0.5496
  517THF     C9 8657   3.902  -0.155   2.273  0.8943 -0.5546  0.1914
  517THF    H10 8658   4.001  -0.139   2.461 -0.7395  2.0683  0.3003
  517THF    H11 8659   4.104  -0.210   2.326  0.1838 -0.3425  0.7542
  517THF    H12 8660   3.908  -0.191   2.171 -1.8171  1.0846 -0.6559
  517THF    H13 8661   3.825  -0.213   2.324 -0.4228  2.6966  2.2858
  518THF     O1 8662   0.592   2.937   5.350 -0.3607 -0.7484  0.0225
  518THF     C2 8663   0.595   2.872   5.228 -0.0715  0.4049 -0.7793
  518THF     C3 8664   0.487   3.030   5.340  0.5932  0.2438 -0.2772
  518THF     H4 8665   0.549   2.773   5.232  1.1137 -0.1643 -0.6988
  518THF     H5 8666   0.699   2.855   5.201  0.1439  1.6657 -0.7750
  518THF     H6 8667   0.391   2.978   5.341  0.3624  0.6661  0.0760
  518THF     H7 8668   0.497   3.111   5.413  2.4990  1.1168 -1.4228
  518THF     C8 8669   0.511   3.084   5.202 -0.0614  0.1520  0.5889
  518THF     C9 8670   0.542   2.958   5.117 -0.3794  0.5015 -0.1798
  518THF    H10 8671   0.598   3.150   5.200 -0.2543  0.3869 -0.4697
  518THF    H11 8672   0.425   3.144   5.174 -1.0419 -0.0560  2.8994
  518THF    H12 8673   0.452   2.914   5.074 -0.9439 -1.9380  3.1273
  518THF    H13 8674   0.625   2.977   5.048  1.4018 -1.4518  1.3004
  519THF     O1 8675   1.533   4.791   4.225 -0.2514 -0.2647  0.4407
  519THF     C2 8676   1.667   4.843   4.256 -0.0552  0.4346  0.0757
  519THF     C3 8677   1.532   4.652   4.181  0.9246 -0.3419 -0.0204
  519THF     H4 8678   1.679   4.877   4.359  1.7257  0.1715 -0.0177
  519THF     H5 8679   1.689   4.919   4.181 -0.4024  0.5320  0.0674
  519THF     H6 8680   1.493   4.581   4.254  0.1312 -1.6569 -1.6540
  519THF     H7 8681   1.469   4.647   4.093  0.9480 -0.5689 -0.0229
  519THF     C8 8682   1.675   4.628   4.148 -0.1746  0.2122 -0.1561
  519THF     C9 8683   1.758   4.718   4.239  0.9680  0.8496  0.2363
  519THF    H10 8684   1.688   4.657   4.044 -0.7555  1.5167  0.1256
  519THF    H11 8685   1.703   4.524   4.167  1.6772 -0.2350 -4.2730
  519THF    H12 8686   1.784   4.687   4.341 -2.0711 -0.7912  0.6093
  519THF    H13 8687   1.858   4.740   4.202  2.0648 -1.2643  1.7252
  520THF     O1 8688   3.094   1.183   3.086  0.3421  0.0026  0.8348
  520THF     C2 8689   3.181   1.278   3.032 -0.7419 -0.6893  0.7440
  520THF     C3 8690   3.169   1.088   3.158 -0.0627 -0.7116  0.1458
  520THF     H4 8691   3.197   1.366   3.095  2.2526  1.4338 -2.5725
  520THF     H5 8692   3.138   1.312   2.938  0.0577 -1.4411  0.0872
  520THF     H6 8693   3.165   1.129   3.259  2.9375  0.3742 -0.0666
  520THF     H7 8694   3.123   0.989   3.168 -1.2417 -0.1260  0.6079
  520THF     C8 8695   3.311   1.087   3.111  0.1442  0.6402 -0.7642
  520THF     C9 8696   3.315   1.202   3.021  0.2183 -1.1718  0.2812
  520THF    H10 8697   3.326   1.001   3.047 -1.2301  0.6596 -1.1492
  520THF    H11 8698   3.388   1.085   3.188  1.0094  0.4664 -1.6308
  520THF    H12 8699   3.402   1.265   3.039 -1.1705  1.1612 -0.7720
  520THF    H13 8700   3.313   1.161   2.920 -0.6620 -1.7788  0.5308
  521THF     O1 8701   4.304   2.727   1.622 -0.4848 -0.1257 -0.3762
  521THF     C2 8702   4.240   2.860   1.613 -0.5228  0.1749 -0.3872
  521THF     C3 8703   4.270   2.663   1.508  0.4000  0.3536 -0.0808
  521THF     H4 8704   4.287   2.927   1.541  0.0209 -0.4456 -0.6239
  521THF     H5 8705   4.232   2.906   1.711  0.7894 -1.5539  0.6045
  521THF     H6 8706   4.339   2.688   1.427  1.7272  0.2043  0.9716
  521THF     H7 8707   4.270   2.556   1.531 -0.2409  0.2287 -0.6351
  521THF     C8 8708   4.124   2.704   1.470  0.1017 -0.0473  0.4285
  521THF     C9 8709   4.099   2.826   1.559  0.4888 -1.2337 -0.4420
  521THF    H10 8710   4.051   2.624   1.483  1.4026 -1.2167  0.7398
  521THF    H11 8711   4.131   2.732   1.365  0.1510  2.4937  1.0391
  521THF    H12 8712   4.062   2.917   1.512  0.0961  0.7584  3.3147
  521THF    H13 8713   4.032   2.803   1.642 -0.4611 -0.9173 -1.1078
  522THF     O1 8714   5.493   1.898   0.516  0.0689 -0.6705 -0.0632
  522THF     C2 8715   5.532   2.018   0.446 -0.2639  0.2989 -0.0156
  522THF     C3 8716   5.477   1.931   0.656  0.1488 -0.6736 -0.5194
  522THF     H4 8717   5.477   2.041   0.355 -2.7754  1.1294  1.5923
  522THF     H5 8718   5.638   2.000   0.426 -0.0853 -0.4236  1.3989
  522THF     H6 8719   5.393   1.883   0.706 -1.5433  4.1029  1.7731
  522THF     H7 8720   5.553   1.926   0.734 -1.5699  1.3053  1.3952
  522THF     C8 8721   5.440   2.079   0.647  0.0632  0.0215  0.1173
  522THF     C9 8722   5.528   2.131   0.546  0.2981  0.1285 -0.5639
  522THF    H10 8723   5.455   2.126   0.744  0.7553 -2.3833  1.2597
  522THF    H11 8724   5.335   2.094   0.620 -0.5749  1.5039  2.9501
  522THF    H12 8725   5.485   2.220   0.501  0.3719  1.1498  1.3024
  522THF    H13 8726   5.625   2.151   0.593  0.6805 -0.6823 -0.9896
  523THF     O1 8727   4.872   1.622   4.143  0.3507 -0.1726  0.7112
  523THF     C2 8728   4.822   1.608   4.268  0.4296  0.1725  0.1735
  523THF     C3 8729   4.764   1.690   4.074 -0.0702  0.5155 -0.5264
  523THF     H4 8730   4.897   1.571   4.338  1.0169 -2.4604 -1.7287
  523THF     H5 8731   4.739   1.537   4.269 -0.0394  0.7056 -0.1356
  523THF     H6 8732   4.795   1.721   3.974 -0.3314  1.1670 -0.4093
  523THF     H7 8733   4.683   1.618   4.061 -0.1912  0.2905  1.2450
  523THF     C8 8734   4.712   1.793   4.180 -0.4566  0.3257 -0.4492
  523THF     C9 8735   4.768   1.744   4.314  0.2557  0.6575 -0.2097
  523THF    H10 8736   4.604   1.806   4.189 -0.3761 -0.4422  3.4537
  523THF    H11 8737   4.749   1.895   4.166 -2.4559  1.2880  0.7760
  523THF    H12 8738   4.847   1.806   4.357 -1.0353  1.1168  1.6466
  523THF    H13 8739   4.697   1.743   4.397 -0.8397  2.0224 -1.0743
  524THF     O1 8740   0.248   0.088   1.182 -0.1248  0.3749  0.5714
  524THF     C2 8741   0.150   0.007   1.114  0.0811  0.7299  0.6468
  524THF     C3 8742   0.338   0.008   1.259 -0.3874  0.3863  0.5601
  524THF     H4 8743   0.107   0.057   1.027  0.8262  0.9662  0.4055
  524THF     H5 8744   0.069  -0.020   1.182  1.7191 -2.2464  1.5877
  524THF     H6 8745   0.426   0.070   1.277  0.0879 -0.4514  1.1947
  524THF     H7 8746   0.292  -0.015   1.355  0.7932  0.4461  1.1553
  524THF     C8 8747   0.335  -0.125   1.179 -0.5307  0.2057 -0.7138
  524THF     C9 8748   0.239  -0.108   1.066 -0.4387 -0.0394  0.0731
  524THF    H10 8749   0.311  -0.207   1.247 -0.6090  1.6446  1.0641
  524THF    H11 8750   0.435  -0.151   1.144  0.2996  0.1479  1.5256
  524THF    H12 8751   0.282  -0.071   0.972 -4.0489  1.8683 -1.0596
  524THF    H13 8752   0.178  -0.193   1.036 -2.2014  0.5512  1.7869
  525THF     O1 8753   1.144   1.216   3.228  0.0244  0.0515  0.3984
  525THF     C2 8754   1.232   1.255   3.125  0.0508  0.5154  0.2472
  525THF     C3 8755   1.030   1.139   3.190  0.3692 -1.0700 -0.5626
  525THF     H4 8756   1.276   1.166   3.080  2.1600  0.8667  1.4718
  525THF     H5 8757   1.314   1.326   3.137  0.1269  0.7709 -1.5094
  525THF     H6 8758   1.040   1.031   3.203  0.5939 -0.8177  1.6067
  525THF     H7 8759   0.949   1.157   3.260  2.6347 -1.6073  2.3996
  525THF     C8 8760   1.011   1.195   3.046 -0.1160 -0.3917  0.0809
  525THF     C9 8761   1.132   1.286   3.023 -0.4504  0.0271  0.4530
  525THF    H10 8762   0.923   1.257   3.031 -0.5609 -0.6979  1.3789
  525THF    H11 8763   1.003   1.118   2.969 -0.2657  0.1611 -0.4727
  525THF    H12 8764   1.181   1.289   2.925  1.0751 -2.1979  1.0842
  525THF    H13 8765   1.093   1.383   3.055 -0.7896  0.1083 -0.1777
  526THF     O1 8766   4.365   2.762   4.441 -0.2976  0.6196  0.0276
  526THF     C2 8767   4.231   2.723   4.398  0.5260  0.1439 -0.6034
  526THF     C3 8768   4.406   2.668   4.546  0.0511 -0.2977 -0.0899
  526THF     H4 8769   4.221   2.644   4.323 -1.8517  2.1181 -2.5259
  526THF     H5 8770   4.176   2.804   4.350  0.0833  0.6903  0.7887
  526THF     H6 8771   4.452   2.577   4.507 -1.2264 -1.4574  1.0097
  526THF     H7 8772   4.472   2.717   4.618 -1.7114  0.4036  1.1319
  526THF     C8 8773   4.278   2.644   4.630  0.4314 -0.2741 -0.1278
  526THF     C9 8774   4.163   2.692   4.528  0.1876 -0.2078  0.2237
  526THF    H10 8775   4.267   2.707   4.718 -2.6948  0.1445 -0.7021
  526THF    H11 8776   4.271   2.543   4.669 -0.5503  0.8077  2.7922
  526THF    H12 8777   4.090   2.612   4.514 -0.9754  1.0379 -1.1030
  526THF    H13 8778   4.122   2.782   4.573 -1.0675 -1.4564  1.7172
  527THF     O1 8779   1.347   3.081   3.827  0.0384 -0.4568  0.7302
  527THF     C2 8780   1.373   3.062   3.965  0.2252 -0.1664 -0.3294
  527THF     C3 8781   1.216   3.029   3.816  0.4406 -0.5412 -0.0380
  527THF     H4 8782   1.330   3.143   4.024 -4.4794 -1.7566 -1.1749
  527THF     H5 8783   1.481   3.066   3.983  0.0763  1.0725  0.3783
  527THF     H6 8784   1.142   3.108   3.808 -0.0794 -1.1623 -1.7180
  527THF     H7 8785   1.215   2.973   3.722  0.8981 -1.7670  0.6605
  527THF     C8 8786   1.189   2.928   3.924 -0.1850 -0.3816  0.4601
  527THF     C9 8787   1.317   2.931   4.000  0.1716 -0.4377 -0.1114
  527THF    H10 8788   1.160   2.832   3.881  1.9286  0.1127 -2.4006
  527THF    H11 8789   1.101   2.969   3.973 -1.4884  0.8331 -2.5946
  527THF    H12 8790   1.298   2.929   4.108 -2.5221  0.3080 -0.5036
  527THF    H13 8791   1.380   2.847   3.968  0.3240 -1.2246  2.0776
  528THF     O1 8792   0.091   1.400   3.555  1.0964  0.2618 -0.3422
  528THF     C2 8793   0.067   1.334   3.430 -0.6395 -0.2587  0.5139
  528THF     C3 8794  -0.035   1.442   3.603  0.3424 -0.0541  0.4055
  528THF     H4 8795   0.028   1.232   3.433  1.2510 -1.1140 -1.3281
  528THF     H5 8796   0.159   1.329   3.372 -0.1460  0.6041  1.2087
  528THF     H6 8797  -0.090   1.357   3.644 -0.8243 -0.2008 -1.3466
  528THF     H7 8798  -0.020   1.530   3.665  2.3240  0.0090 -0.0996
  528THF     C8 8799  -0.119   1.481   3.477 -0.2695 -0.0651 -0.9746
  528THF     C9 8800  -0.037   1.429   3.365  0.1320  0.6472 -0.5876
  528THF    H10 8801  -0.112   1.590   3.465 -1.4386 -0.0967 -2.1545
  528THF    H11 8802  -0.221   1.445   3.488 -0.1311  0.0869  1.0723
  528THF    H12 8803  -0.101   1.376   3.294  1.3378 -2.3207  0.3531
  528THF    H13 8804   0.010   1.510   3.310  1.2039  1.3766  1.3054
  529THF     O1 8805   2.047   0.220   3.067  0.2889  0.0347 -0.0695
  529THF     C2 8806   1.985   0.327   3.127  0.4981 -0.0663  0.8666
  529THF     C3 8807   2.183   0.228   3.114  0.3527  0.6706 -0.7772
  529THF     H4 8808   1.876   0.326   3.114  0.2633  1.3362  2.4133
  529THF     H5 8809   2.026   0.416   3.080  1.9126 -1.8137 -1.4320
  529THF     H6 8810   2.226   0.128   3.102 -0.1689  0.0796  1.7410
  529THF     H7 8811   2.241   0.300   3.056  1.8895 -0.1411 -0.3084
  529THF     C8 8812   2.175   0.265   3.254  1.4617 -0.1403 -0.2484
  529THF     C9 8813   2.028   0.317   3.269  0.2322  0.4438  0.2000
  529THF    H10 8814   2.247   0.343   3.281 -0.8378  2.0210  0.0094
  529THF    H11 8815   2.186   0.176   3.316  0.9584 -0.1631 -0.1918
  529THF    H12 8816   1.965   0.241   3.315 -2.7336  2.8288  0.4683
  529THF    H13 8817   2.026   0.412   3.322  0.9143 -0.0712  1.1642
  530THF     O1 8818   3.962   3.133   4.823 -0.3752 -0.1666  0.1584
  530THF     C2 8819   4.067   3.047   4.862 -0.5474 -0.2270  0.3022
  530THF     C3 8820   3.837   3.080   4.867  1.2406 -1.0058 -0.8782
  530THF     H4 8821   4.094   3.070   4.965  0.8888 -0.5914  0.0252
  530THF     H5 8822   4.156   3.048   4.800 -0.4083 -2.4465  0.3915
  530THF     H6 8823   3.811   3.131   4.960 -0.2051 -1.9661 -0.7143
  530THF     H7 8824   3.750   3.095   4.803  0.7585 -1.7435 -0.4110
  530THF     C8 8825   3.852   2.933   4.894 -0.0966 -0.3426  0.0286
  530THF     C9 8826   4.000   2.909   4.848  0.1101 -0.4146  0.2465
  530THF    H10 8827   3.785   2.873   4.832 -1.2320  0.9730 -0.0597
  530THF    H11 8828   3.850   2.906   4.999  3.4133 -1.6294 -0.0965
  530THF    H12 8829   4.046   2.830   4.909 -2.4291 -1.4778  0.9154
  530THF    H13 8830   4.007   2.880   4.743 -1.1367 -3.3202  0.8585
  531THF     O1 8831   0.112   1.901   4.221  0.0311 -0.1615  0.1478
  531THF     C2 8832   0.103   2.036   4.262 -0.1252  0.5078 -0.4250
  531THF     C3 8833  -0.021   1.845   4.233 -0.0970  0.1374 -0.5262
  531THF     H4 8834   0.072   2.101   4.180  0.8537  0.1009 -1.1340
  531THF     H5 8835   0.204   2.062   4.292 -0.1883  0.4983 -0.2028
  531THF     H6 8836  -0.072   1.870   4.140 -1.5325 -2.8286 -0.6434
  531THF     H7 8837  -0.026   1.737   4.240  0.4928  0.2200  1.8842
  531THF     C8 8838  -0.071   1.899   4.365  0.3527 -0.2279 -0.6555
  531THF     C9 8839   0.003   2.031   4.382 -0.5201  0.1190  0.1753
  531THF    H10 8840  -0.056   1.841   4.456 -2.3616  0.6707  0.4503
  531THF    H11 8841  -0.175   1.927   4.349 -0.2529 -1.9109  0.0984
  531THF    H12 8842  -0.065   2.115   4.387  0.3386  0.9610 -1.4725
  531THF    H13 8843   0.063   2.032   4.472 -0.6864 -0.4573  0.2981
  532THF     O1 8844   2.223   5.392   4.191  0.4490  0.3648 -0.3295
  532THF     C2 8845   2.357   5.364   4.166 -0.2546  0.4561 -0.1456
  532THF     C3 8846   2.180   5.327   4.314 -0.1663 -0.0860 -0.4486
  532THF     H4 8847   2.401   5.446   4.109 -2.5858  1.7363 -0.2408
  532THF     H5 8848   2.378   5.278   4.102  0.2394  0.9752 -0.6982
  532THF     H6 8849   2.088   5.367   4.355  0.0604 -0.8424  0.8337
  532THF     H7 8850   2.171   5.219   4.302  0.5200 -0.5381  2.3464
  532THF     C8 8851   2.298   5.367   4.401  0.3224 -0.0596  0.4293
  532THF     C9 8852   2.415   5.360   4.307 -0.1943  0.4623  0.2012
  532THF    H10 8853   2.316   5.311   4.493 -0.4554 -0.2132  0.4970
  532THF    H11 8854   2.277   5.467   4.440 -0.7760 -0.6331  1.3735
  532THF    H12 8855   2.475   5.448   4.331 -2.1431  1.9866 -0.1940
  532THF    H13 8856   2.464   5.264   4.322 -1.3255  0.0004  1.1256
  533THF     O1 8857   3.053   3.498   2.141  0.3616  0.8226  0.5394
  533THF     C2 8858   3.175   3.491   2.209  0.2215  0.5732 -0.1282
  533THF     C3 8859   3.030   3.371   2.089 -1.1004  0.1445  0.3839
  533THF     H4 8860   3.173   3.570   2.284 -1.1370  0.4085  0.0253
  533THF     H5 8861   3.258   3.504   2.139  0.3386  1.3402  0.1468
  533THF     H6 8862   2.927   3.352   2.060 -1.3510  1.7867  0.1021
  533THF     H7 8863   3.087   3.356   1.998 -3.2872  0.0855 -1.0536
  533THF     C8 8864   3.077   3.270   2.199  0.2873 -0.4370 -0.3269
  533THF     C9 8865   3.174   3.355   2.277 -0.4827  0.2558  0.3954
  533THF    H10 8866   3.128   3.194   2.140 -0.4568 -0.5427 -0.8447
  533THF    H11 8867   2.995   3.234   2.263  2.0834 -1.9603  1.2532
  533THF    H12 8868   3.125   3.367   2.373  0.2426  0.6595  0.7289
  533THF    H13 8869   3.271   3.308   2.294 -0.2939  0.4001 -0.2355
  534THF     O1 8870   0.412   4.521   2.073 -0.4301  0.3424  0.0390
  534THF     C2 8871   0.440   4.656   2.077  0.3865 -0.4394  0.4571
  534THF     C3 8872   0.310   4.496   2.163 -0.7044  0.1136 -0.5050
  534THF     H4 8873   0.495   4.680   1.986  0.7808 -1.1746  0.4945
  534THF     H5 8874   0.507   4.667   2.162  1.3397 -0.0576 -0.3306
  534THF     H6 8875   0.260   4.400   2.149 -0.7499 -0.0394  0.6509
  534THF     H7 8876   0.368   4.488   2.255  1.2087 -0.4843 -1.6878
  534THF     C8 8877   0.215   4.611   2.138  0.4006  0.1431 -0.0661
  534THF     C9 8878   0.298   4.720   2.083 -0.4456 -0.4384 -0.2800
  534THF    H10 8879   0.160   4.645   2.226 -0.4941 -0.6592 -0.2902
  534THF    H11 8880   0.136   4.575   2.071 -0.2924 -1.9554  1.7645
  534THF    H12 8881   0.279   4.742   1.978 -1.1159  0.4892  0.0287
  534THF    H13 8882   0.285   4.813   2.138 -0.1700 -2.0624  2.7559
  535THF     O1 8883   5.361   0.416   1.288  0.5103  0.4013 -0.5533
  535THF     C2 8884   5.451   0.336   1.225 -0.3694 -0.2610 -0.7833
  535THF     C3 8885   5.390   0.549   1.241 -0.5601  0.2092  0.2741
  535THF     H4 8886   5.437   0.332   1.117 -2.2446 -0.0898 -0.5777
  535THF     H5 8887   5.452   0.236   1.270 -0.8189  0.0882  0.0193
  535THF     H6 8888   5.365   0.568   1.137  1.6843  0.2688 -0.2899
  535THF     H7 8889   5.336   0.621   1.302  0.7176  0.4788  1.1294
  535THF     C8 8890   5.536   0.563   1.267 -0.0801  0.6667  0.4390
  535THF     C9 8891   5.580   0.415   1.250 -0.3330  0.1698  0.2123
  535THF    H10 8892   5.562   0.598   1.367 -1.1464  2.7546  0.0385
  535THF    H11 8893   5.576   0.630   1.191 -0.5086 -1.6149 -1.9114
  535THF    H12 8894   5.660   0.411   1.176 -1.6616  1.0535 -1.3654
  535THF    H13 8895   5.621   0.389   1.347 -1.0457  1.4619  0.8914
  536THF     O1 8896   0.115   2.901   5.117  0.6724  0.3160 -0.6087
  536THF     C2 8897   0.140   3.018   5.035 -0.7146 -0.2571 -0.1113
  536THF     C3 8898  -0.023   2.898   5.143 -0.3757 -0.1843 -0.3197
  536THF     H4 8899   0.234   3.003   4.981 -0.9507 -3.2627  0.1455
  536THF     H5 8900   0.166   3.102   5.099 -1.0337 -2.2300  2.7601
  536THF     H6 8901  -0.066   2.806   5.181 -0.1537  0.2372  1.0103
  536THF     H7 8902  -0.051   2.973   5.218  0.0394 -1.0186  0.6965
  536THF     C8 8903  -0.079   2.936   5.010 -0.5931  0.0604  0.5441
  536THF     C9 8904   0.009   3.045   4.954 -0.7928  0.2357 -1.0750
  536THF    H10 8905  -0.180   2.973   5.031 -1.3165 -2.0524  0.9948
  536THF    H11 8906  -0.082   2.851   4.942 -0.7052  0.8477 -0.4596
  536THF    H12 8907   0.021   3.034   4.846  1.4281 -0.0927 -0.8463
  536THF    H13 8908  -0.035   3.143   4.973 -0.6089  0.3130 -1.0457
  537THF     O1 8909   3.148   4.164   0.967  0.4367 -0.6316  0.2689
  537THF     C2 8910   3.097   4.171   1.098 -0.2142 -0.2106 -0.7661
  537THF     C3 8911   3.268   4.231   0.956  0.5905  0.6403 -0.5878
  537THF     H4 8912   3.108   4.083   1.162 -0.3609  1.9937  2.5867
  537THF     H5 8913   2.992   4.198   1.093  0.0630  1.5831  1.3158
  537THF     H6 8914   3.357   4.173   0.983 -0.5576 -2.5074 -2.9541
  537THF     H7 8915   3.279   4.258   0.850 -1.1502 -2.6756 -1.7303
  537THF     C8 8916   3.236   4.353   1.051 -0.3644  0.4435 -0.0431
  537THF     C9 8917   3.174   4.285   1.169 -0.5938  0.1263  0.4866
  537THF    H10 8918   3.175   4.439   1.022 -0.3678  0.7032  0.6939
  537THF    H11 8919   3.325   4.406   1.087 -0.1422  0.4785 -0.6378
  537THF    H12 8920   3.252   4.253   1.238 -0.9309  1.2615  1.4416
  537THF    H13 8921   3.108   4.359   1.215  0.5405  1.7185 -0.3628
  538THF     O1 8922   0.466   4.665   4.716 -0.6525 -0.0188  0.5952
  538THF     C2 8923   0.447   4.541   4.644  0.2722  0.2495  0.6165
  538THF     C3 8924   0.551   4.748   4.647  0.4323  0.2206 -0.8507
  538THF     H4 8925   0.357   4.484   4.667  1.3173 -1.1791  1.3085
  538THF     H5 8926   0.528   4.477   4.678  0.8385  1.0672  0.8208
  538THF     H6 8927   0.483   4.832   4.627  0.6591  0.5782 -0.1541
  538THF     H7 8928   0.640   4.768   4.706 -0.0625 -0.5274  0.1738
  538THF     C8 8929   0.575   4.685   4.505  0.0296 -0.3060 -0.0510
  538THF     C9 8930   0.461   4.591   4.494  0.9536  0.8205 -0.7098
  538THF    H10 8931   0.668   4.629   4.498  0.9207  0.8719  1.5638
  538THF    H11 8932   0.590   4.763   4.430  1.8427 -0.0090  0.5592
  538THF    H12 8933   0.372   4.631   4.444 -0.4587 -0.4914  0.6662
  538THF    H13 8934   0.491   4.504   4.435  0.5851 -0.2094  0.5778
  539THF     O1 8935   3.693   4.116   2.777  0.3717 -0.1345 -0.5687
  539THF     C2 8936   3.687   3.986   2.726 -0.8807  0.2628  0.0785
  539THF     C3 8937   3.643   4.199   2.671  0.6995 -0.0766  0.7861
  539THF     H4 8938   3.703   3.912   2.804  0.7691  1.5427  1.0216
  539THF     H5 8939   3.772   3.980   2.658 -0.0010 -0.0536  1.1847
  539THF     H6 8940   3.603   4.296   2.702 -1.9243 -0.5567 -0.7809
  539THF     H7 8941   3.724   4.213   2.600  0.5787 -3.9248 -0.3511
  539THF     C8 8942   3.521   4.118   2.610  0.4315  0.5361  0.0771
  539THF     C9 8943   3.561   3.975   2.640  0.4334  0.4208 -0.9652
  539THF    H10 8944   3.507   4.145   2.506  0.6954 -0.0478 -0.1168
  539THF    H11 8945   3.430   4.148   2.662  0.5100  1.1592 -0.1497
  539THF    H12 8946   3.474   3.934   2.690  1.5716  1.2067  1.8782
  539THF    H13 8947   3.579   3.939   2.538 -2.7080  1.3224 -1.9409
  540THF     O1 8948   0.995   2.787   3.664  0.1320 -0.1774  0.7451
  540THF     C2 8949   0.865   2.738   3.643 -0.5393 -0.2795 -0.5952
  540THF     C3 8950   1.038   2.827   3.534 -0.5220 -0.1552 -0.1272
  540THF     H4 8951   0.798   2.755   3.727  0.4222  0.3060  0.0644
  540THF     H5 8952   0.859   2.629   3.634  0.5253 -0.4661  0.7766
  540THF     H6 8953   1.048   2.936   3.535 -0.6776 -0.1373 -0.3452
  540THF     H7 8954   1.138   2.794   3.506  0.3996  2.4527 -0.1376
  540THF     C8 8955   0.928   2.783   3.429  0.0471 -0.2892  0.7187
  540THF     C9 8956   0.811   2.792   3.514 -0.1272 -0.3878  0.0112
  540THF    H10 8957   0.957   2.686   3.390  0.3169  0.4484 -1.0087
  540THF    H11 8958   0.915   2.850   3.343 -1.9476 -0.8620  0.5204
  540THF    H12 8959   0.794   2.898   3.533 -1.1333 -0.7941  1.5554
  540THF    H13 8960   0.718   2.749   3.478 -1.5422  3.1165 -0.9324
  541THF     O1 8961   0.623   1.503   0.137 -0.4570  0.1097  0.3047
  541THF     C2 8962   0.529   1.576   0.059 -0.2485  0.1239 -0.6808
  541THF     C3 8963   0.745   1.585   0.144  0.1489  0.0191  0.2240
  541THF     H4 8964   0.429   1.535   0.072 -0.2051  0.5439  1.2437
  541THF     H5 8965   0.555   1.578  -0.047  0.8306 -0.7511 -0.4570
  541THF     H6 8966   0.793   1.544   0.233 -2.4765 -2.2907  0.6889
  541THF     H7 8967   0.809   1.572   0.056 -0.8224  2.1482 -0.8788
  541THF     C8 8968   0.696   1.722   0.145  0.4910 -0.0821  0.1972
  541THF     C9 8969   0.549   1.715   0.123 -0.8239  0.4538 -0.1331
  541THF    H10 8970   0.739   1.780   0.064 -0.3411 -1.1712 -1.0636
  541THF    H11 8971   0.715   1.773   0.240 -0.6843  1.0050 -0.1132
  541THF    H12 8972   0.484   1.728   0.209  0.3160 -2.1728  1.2411
  541THF    H13 8973   0.517   1.804   0.069 -0.1961  2.0412  1.9918
  542THF     O1 8974   0.806   3.706   3.277 -0.2565  0.7427  0.2404
  542THF     C2 8975   0.939   3.748   3.241  0.5365  0.4965  0.5017
  542THF     C3 8976   0.790   3.714   3.418  0.4837  0.4594  0.7179
  542THF     H4 8977   0.947   3.794   3.143  3.4167  2.5023  1.5397
  542THF     H5 8978   1.001   3.659   3.245 -0.7699 -0.5933 -1.6927
  542THF     H6 8979   0.689   3.702   3.455  0.6638  0.9802  1.4092
  542THF     H7 8980   0.854   3.642   3.470 -0.0729 -1.9482 -1.7358
  542THF     C8 8981   0.836   3.855   3.438 -0.6132 -0.2891 -0.2245
  542THF     C9 8982   0.963   3.855   3.347 -0.2461  0.6258 -0.6050
  542THF    H10 8983   0.857   3.867   3.544 -2.1640 -0.8102  0.1711
  542THF    H11 8984   0.776   3.938   3.403 -0.8549 -0.3230  0.1041
  542THF    H12 8985   0.985   3.947   3.292  0.3824  0.0637 -1.3041
  542THF    H13 8986   1.058   3.829   3.394 -0.8162 -0.7215 -0.1600
  543THF     O1 8987   4.200   2.114   3.542 -0.4540  0.2328  0.1349
  543THF     C2 8988   4.097   2.176   3.466  0.1839 -0.4783  0.4595
  543THF     C3 8989   4.311   2.205   3.536  0.4784 -0.4848 -0.3235
  543THF     H4 8990   4.000   2.136   3.496 -0.2287  0.0600 -0.1231
  543THF     H5 8991   4.115   2.161   3.359 -0.9042 -0.5007  0.2653
  543THF     H6 8992   4.390   2.190   3.610  1.6341 -0.6955 -1.5754
  543THF     H7 8993   4.360   2.185   3.441 -0.3525 -3.3441 -0.2569
  543THF     C8 8994   4.249   2.345   3.538  0.3032 -0.1710  0.0318
  543THF     C9 8995   4.107   2.319   3.499 -0.0355  0.4447 -0.0491
  543THF    H10 8996   4.295   2.406   3.460 -0.1193  0.3847  0.2123
  543THF    H11 8997   4.249   2.403   3.630 -0.7296 -0.2556  0.0958
  543THF    H12 8998   4.049   2.337   3.590  0.7436  0.7925  0.3939
  543THF    H13 8999   4.073   2.375   3.412  0.8876 -0.1055 -0.7769
  544THF     O1 9000   1.545   1.592   1.342  0.8124 -0.0192  0.3557
  544THF     C2 9001   1.445   1.552   1.444 -0.5722 -0.4194 -0.1511
  544THF     C3 9002   1.582   1.728   1.376  0.9006  0.2998  0.4741
  544THF     H4 9003   1.431   1.444   1.446 -0.0838 -0.4903 -0.2875
  544THF     H5 9004   1.348   1.593   1.419 -0.8911 -1.6651 -1.0247
  544THF     H6 9005   1.662   1.753   1.306  1.0323 -1.2133  0.0375
  544THF     H7 9006   1.495   1.786   1.346 -1.0231 -2.3038  0.6227
  544THF     C8 9007   1.586   1.723   1.522 -0.4061  0.1507 -0.1598
  544THF     C9 9008   1.512   1.600   1.573  0.1433  0.4623 -0.4329
  544THF    H10 9009   1.542   1.813   1.565  0.9627  1.5928 -1.6393
  544THF    H11 9010   1.688   1.715   1.561 -1.3677 -0.5459  2.4225
  544THF    H12 9011   1.590   1.529   1.599 -0.0060 -0.1166 -1.4804
  544THF    H13 9012   1.437   1.616   1.651 -0.0405  0.6662 -0.6466
  545THF     O1 9013   3.735   1.382   0.834 -0.1280  0.1026 -0.5888
  545THF     C2 9014   3.610   1.409   0.779  0.2017  0.5365 -0.6465
  545THF     C3 9015   3.789   1.273   0.763  0.6884  0.2079  0.6039
  545THF     H4 9016   3.629   1.499   0.721 -0.0496  1.0431  0.0418
  545THF     H5 9017   3.528   1.417   0.850 -0.4980 -1.1953 -1.1940
  545THF     H6 9018   3.834   1.310   0.671 -1.4295  0.9935 -0.1695
  545THF     H7 9019   3.862   1.221   0.825  0.7969  1.9396  2.0251
  545THF     C8 9020   3.676   1.184   0.713  0.4217  0.0425  0.5283
  545THF     C9 9021   3.574   1.291   0.680 -1.2714 -0.2530 -0.4330
  545THF    H10 9022   3.643   1.126   0.800 -0.0212  0.3639  0.5783
  545THF    H11 9023   3.715   1.120   0.634  3.7077  1.6296  0.6723
  545THF    H12 9024   3.591   1.336   0.582 -0.7309  0.0246 -0.2139
  545THF    H13 9025   3.470   1.260   0.685 -1.0047 -1.0609  0.3444
  546THF     O1 9026   5.416   2.184   2.356  0.3384 -0.1443  0.1335
  546THF     C2 9027   5.396   2.087   2.257 -0.8394  1.1100 -0.9789
  546THF     C3 9028   5.538   2.160   2.421 -0.0632  0.0014 -0.2813
  546THF     H4 9029   5.438   2.145   2.174  0.6464 -0.6590 -1.5305
  546THF     H5 9030   5.294   2.068   2.225 -0.6690  1.0950 -1.5228
  546THF     H6 9031   5.603   2.247   2.430  0.3207 -0.0704 -2.0254
  546THF     H7 9032   5.514   2.127   2.522 -0.3545  0.4553 -0.2005
  546THF     C8 9033   5.608   2.046   2.340  0.8031 -0.0880  0.9884
  546THF     C9 9034   5.485   1.967   2.285  0.0435 -0.2017  0.1080
  546THF    H10 9035   5.678   1.990   2.402  2.4732  1.4929  0.6381
  546THF    H11 9036   5.671   2.087   2.261 -0.3988 -0.0536  0.0283
  546THF    H12 9037   5.505   1.907   2.197  1.5813  0.3238  0.0691
  546THF    H13 9038   5.437   1.903   2.359  0.4164  0.4423  0.9263
  547THF     O1 9039   2.066   4.389   0.973 -0.6066 -0.0660  0.4969
  547THF     C2 9040   2.091   4.493   0.880  0.4935  0.0168 -0.2346
  547THF     C3 9041   2.011   4.444   1.089  0.5686 -0.1188  0.5131
  547THF     H4 9042   2.087   4.459   0.776  0.5567  0.0386 -0.2440
  547THF     H5 9043   2.193   4.529   0.889  1.0987 -1.4288 -0.9612
  547THF     H6 9044   1.973   4.358   1.143  1.6709 -0.8019  0.2328
  547THF     H7 9045   2.088   4.480   1.158 -0.7774 -0.7051  2.3918
  547THF     C8 9046   1.919   4.552   1.040  0.8671  0.2984  0.7789
  547THF     C9 9047   1.991   4.600   0.917  0.4864  0.3115  0.0521
  547THF    H10 9048   1.885   4.627   1.111 -0.2306  1.2436 -0.6637
  547THF    H11 9049   1.828   4.498   1.014  0.9027  0.2484  0.7576
  547THF    H12 9050   1.920   4.619   0.836  0.7748  0.1195 -0.2450
  547THF    H13 9051   2.040   4.694   0.941 -0.1370  0.1517  2.2176
  548THF     O1 9052   3.255   2.705   2.175  0.6463 -0.2071  0.2115
  548THF     C2 9053   3.164   2.710   2.288 -0.4114  0.3298  0.4348
  548THF     C3 9054   3.342   2.818   2.185 -0.0844  0.2487 -0.4829
  548THF     H4 9055   3.223   2.706   2.379 -0.2630 -0.5333  0.3011
  548THF     H5 9056   3.093   2.627   2.291  0.4738 -0.7251 -3.0818
  548THF     H6 9057   3.423   2.800   2.256 -0.9718 -1.2225  0.2142
  548THF     H7 9058   3.379   2.843   2.086  0.4861 -1.1711 -0.6608
  548THF     C8 9059   3.254   2.925   2.240 -0.2576  0.0493  0.2836
  548THF     C9 9060   3.123   2.855   2.279 -0.0530 -0.2612  0.9418
  548THF    H10 9061   3.230   2.995   2.159 -0.1841 -2.2941 -1.8808
  548THF    H11 9062   3.305   2.973   2.324  0.3826 -0.3378  0.1209
  548THF    H12 9063   3.081   2.894   2.371 -1.3671  1.9491 -0.5187
  548THF    H13 9064   3.055   2.865   2.194  0.1341 -1.2009  0.6704
  549THF     O1 9065   3.512   1.844   1.340 -0.6708 -0.0650 -0.2784
  549THF     C2 9066   3.448   1.721   1.311 -0.1856  0.3949  0.4002
  549THF     C3 9067   3.643   1.816   1.389  0.5098 -0.0288 -0.0816
  549THF     H4 9068   3.487   1.675   1.220  1.3018 -2.3377  2.2625
  549THF     H5 9069   3.340   1.728   1.308 -0.3471 -1.6733 -0.3089
  549THF     H6 9070   3.710   1.798   1.306 -1.5876 -1.2837 -1.5935
  549THF     H7 9071   3.688   1.898   1.445 -1.9257 -0.2649  2.4646
  549THF     C8 9072   3.633   1.677   1.461 -0.1884 -0.5430 -0.3525
  549THF     C9 9073   3.496   1.632   1.429 -0.1174 -0.2409  0.1280
  549THF    H10 9074   3.647   1.688   1.568  1.3365 -0.6836 -0.5126
  549THF    H11 9075   3.705   1.599   1.437 -1.3108 -2.2557  1.5821
  549THF    H12 9076   3.500   1.524   1.411  1.7626 -0.1905  0.0470
  549THF    H13 9077   3.424   1.641   1.510 -0.7355  1.9842 -0.6230
  550THF     O1 9078   4.006   2.203   4.565  0.4223  0.1791  0.4553
  550THF     C2 9079   4.076   2.222   4.685  0.2907 -0.5329  0.1830
  550THF     C3 9080   3.867   2.211   4.595 -0.9452  0.5950  0.1319
  550THF     H4 9081   4.181   2.248   4.673  0.7501 -1.5309  1.7557
  550THF     H5 9082   4.082   2.139   4.755 -1.6326  0.9632  2.2720
  550THF     H6 9083   3.807   2.214   4.505 -1.6577 -0.1222  0.5716
  550THF     H7 9084   3.828   2.131   4.658 -0.6239  1.1211  1.0309
  550THF     C8 9085   3.870   2.334   4.680  0.0747  0.0483  0.2409
  550THF     C9 9086   3.994   2.323   4.763 -0.1727 -0.2073 -0.8119
  550THF    H10 9087   3.778   2.350   4.736 -0.3974  0.0734 -0.5333
  550THF    H11 9088   3.871   2.420   4.613  0.3274 -1.1347 -1.3339
  550THF    H12 9089   4.035   2.413   4.809 -1.7608  0.2822 -0.2883
  550THF    H13 9090   3.966   2.266   4.851  2.2397 -1.0729 -0.5146
  551THF     O1 9091   0.999   5.171   2.306 -0.5244  0.1708 -0.9697
  551THF     C2 9092   0.906   5.163   2.415 -0.3175 -0.0777 -0.0719
  551THF     C3 9093   0.959   5.077   2.204 -1.1768 -0.3159  0.2025
  551THF     H4 9094   0.821   5.222   2.382 -1.6153 -0.6251  2.0415
  551THF     H5 9095   0.938   5.212   2.507  0.3228 -0.2496 -0.1985
  551THF     H6 9096   0.886   5.111   2.131 -0.9452  0.7532  0.4520
  551THF     H7 9097   1.055   5.048   2.160 -1.3565 -0.1437 -0.3053
  551THF     C8 9098   0.893   4.961   2.283 -1.1643  0.8345  0.8219
  551THF     C9 9099   0.886   5.013   2.423 -0.5660  0.2629 -0.3973
  551THF    H10 9100   0.948   4.867   2.274 -3.7350 -0.9602  2.5011
  551THF    H11 9101   0.791   4.937   2.253 -0.5174 -1.6447  0.3835
  551THF    H12 9102   0.794   4.981   2.473 -0.1591 -1.9848 -0.9817
  551THF    H13 9103   0.967   4.971   2.482 -2.0720  0.1631  1.7286
  552THF     O1 9104   4.286   1.329   0.715 -0.5310 -0.6482 -0.2993
  552THF     C2 9105   4.150   1.319   0.680 -0.2967 -1.1074 -0.3539
  552THF     C3 9106   4.359   1.209   0.679  0.7538  1.0526 -0.3318
  552THF     H4 9107   4.123   1.386   0.598  0.7278  0.7903  0.7753
  552THF     H5 9108   4.089   1.359   0.761 -0.7013  2.1064 -2.0518
  552THF     H6 9109   4.394   1.211   0.575 -1.2123  0.2378 -1.0664
  552THF     H7 9110   4.449   1.199   0.739  0.1226  4.5738  1.4740
  552THF     C8 9111   4.244   1.105   0.705  0.3723 -0.1123 -0.0895
  552THF     C9 9112   4.131   1.169   0.641  0.2862  0.6997 -0.0031
  552THF    H10 9113   4.217   1.108   0.811  1.3023 -1.0188  0.1878
  552THF    H11 9114   4.266   1.003   0.676  0.6216  0.1136 -0.6970
  552THF    H12 9115   4.135   1.153   0.533  1.3972 -0.3929  0.1851
  552THF    H13 9116   4.033   1.140   0.678 -0.1907 -1.3574 -2.6377
  553THF     O1 9117   2.383   1.529   2.532 -0.7017 -0.0616 -0.3609
  553THF     C2 9118   2.451   1.506   2.408  0.0086  0.6555 -0.2803
  553THF     C3 9119   2.461   1.497   2.640 -0.4554 -0.2057  0.0038
  553THF     H4 9120   2.409   1.560   2.323 -0.7596 -1.2149 -1.1424
  553THF     H5 9121   2.442   1.398   2.392  0.3078  0.7756 -1.3246
  553THF     H6 9122   2.444   1.565   2.723  0.7128 -0.7473  0.7106
  553THF     H7 9123   2.430   1.398   2.673 -2.2956  0.7559  1.2870
  553THF     C8 9124   2.608   1.498   2.583 -0.2777 -0.0696 -0.1064
  553THF     C9 9125   2.595   1.542   2.442 -0.3318  0.0726 -0.1313
  553THF    H10 9126   2.639   1.393   2.586 -0.3249 -0.1273  3.9672
  553THF    H11 9127   2.671   1.564   2.643 -0.7678 -0.3248  0.7158
  553THF    H12 9128   2.590   1.651   2.439 -1.9204 -0.0051 -1.6724
  553THF    H13 9129   2.669   1.498   2.375 -0.6255 -2.5253  1.1124
  554THF     O1 9130   2.654   4.299   1.406 -0.5513  0.0803  0.3893
  554THF     C2 9131   2.716   4.250   1.294  0.0276 -0.4244 -0.2225
  554THF     C3 9132   2.715   4.422   1.430 -0.3330  0.0131 -0.1686
  554THF     H4 9133   2.674   4.158   1.253 -1.4767 -0.3928  1.1568
  554THF     H5 9134   2.821   4.234   1.315  0.2887  0.1102 -1.0520
  554THF     H6 9135   2.659   4.486   1.499  1.3243  1.0700  0.2397
  554THF     H7 9136   2.812   4.407   1.476  0.0938  0.6315 -0.8351
  554THF     C8 9137   2.732   4.488   1.294  0.0466 -0.4648 -0.0452
  554THF     C9 9138   2.709   4.372   1.203 -0.5606  0.0320 -0.5950
  554THF    H10 9139   2.830   4.534   1.277  1.2834 -2.6235  0.9200
  554THF    H11 9140   2.658   4.567   1.280  0.4165  0.3065  1.8990
  554THF    H12 9141   2.609   4.379   1.161 -1.4099  1.2393  1.4606
  554THF    H13 9142   2.775   4.370   1.117  0.2656  0.6291  0.0048
  555THF     O1 9143   5.273   0.982   4.756  0.0060  0.0964  0.1420
  555THF     C2 9144   5.218   0.956   4.634  0.7225  0.0296  0.1956
  555THF     C3 9145   5.402   0.920   4.758  0.5537 -0.1160 -0.1221
  555THF     H4 9146   5.282   1.006   4.561 -0.0343  1.5731  0.5527
  555THF     H5 9147   5.112   0.975   4.617  0.5703  1.3146  2.2204
  555THF     H6 9148   5.470   0.976   4.693 -1.1596  2.0547 -0.1527
  555THF     H7 9149   5.453   0.922   4.855  1.9998 -1.7530 -0.7869
  555THF     C8 9150   5.367   0.781   4.696  0.0687 -0.3729 -0.4852
  555THF     C9 9151   5.243   0.805   4.614  1.0060 -0.2110  0.0961
  555THF    H10 9152   5.347   0.711   4.777 -0.4029  0.7546  0.4006
  555THF    H11 9153   5.451   0.751   4.633  0.0388 -3.2862  0.7360
  555THF    H12 9154   5.244   0.773   4.510 -0.4735 -0.6004  0.1839
  555THF    H13 9155   5.159   0.754   4.660  0.7078 -1.6572 -1.8924
  556THF     O1 9156   0.911   0.821   1.866  0.3064  0.2544 -0.0863
  556THF     C2 9157   0.924   0.947   1.790  0.8848  0.2285  0.3477
  556THF     C3 9158   0.802   0.842   1.961  0.2320 -0.4293 -0.4964
  556THF     H4 9159   0.941   0.926   1.685 -0.7227 -0.2035  0.1523
  556THF     H5 9160   1.018   0.989   1.827  1.7207 -0.2979 -1.1181
  556THF     H6 9161   0.718   0.790   1.916  1.1906 -0.6597 -2.0874
  556THF     H7 9162   0.829   0.808   2.061 -0.3222  0.7368  0.0631
  556THF     C8 9163   0.766   0.983   1.958  0.1537 -0.0739  0.3592
  556THF     C9 9164   0.800   1.023   1.819 -0.4325 -0.8988 -0.4570
  556THF    H10 9165   0.831   1.036   2.028  0.1250 -1.4066  1.4304
  556THF    H11 9166   0.667   1.013   1.994  0.4573  0.3960  0.8262
  556THF    H12 9167   0.733   0.997   1.737 -0.4883  0.9899 -1.0711
  556THF    H13 9168   0.811   1.130   1.802  0.0386 -0.4966  1.9682
  557THF     O1 9169   4.783   2.939   0.140  0.0440 -0.3438 -0.1971
  557THF     C2 9170   4.716   2.938   0.017 -0.1426 -0.1803  0.2986
  557THF     C3 9171   4.694   2.912   0.243  0.5480  0.1380  0.4894
  557THF     H4 9172   4.720   2.831  -0.003 -2.0757 -0.4007  0.9387
  557THF     H5 9173   4.752   2.985  -0.074  0.5272  1.4445  1.3492
  557THF     H6 9174   4.725   2.825   0.300  0.8881  0.7450  1.2584
  557THF     H7 9175   4.698   2.990   0.320 -0.1863 -1.9840  2.7963
  557THF     C8 9176   4.557   2.901   0.173 -0.2317  0.4734 -0.8306
  557THF     C9 9177   4.574   2.983   0.048  0.1564  0.1765 -0.8409
  557THF    H10 9178   4.481   2.928   0.245  0.8330 -2.5104  1.6162
  557THF    H11 9179   4.528   2.802   0.138  0.9924 -0.0852 -0.3005
  557THF    H12 9180   4.501   2.965  -0.032  0.4996 -0.9999 -0.9129
  557THF    H13 9181   4.573   3.090   0.070  0.5000 -0.0901  0.5201
  558THF     O1 9182   5.430   4.189   1.696 -0.1035 -0.4006 -0.1399
  558THF     C2 9183   5.502   4.269   1.607 -0.0373  0.8578 -0.5432
  558THF     C3 9184   5.321   4.125   1.632  0.2755  0.8752 -0.0487
  558THF     H4 9185   5.578   4.214   1.551  1.2747  0.9876  1.0434
  558THF     H5 9186   5.558   4.342   1.665 -1.7769  1.0409  1.0143
  558THF     H6 9187   5.351   4.044   1.565 -1.7864  0.1285 -0.1326
  558THF     H7 9188   5.235   4.094   1.691 -1.7365 -0.8732 -3.6095
  558THF     C8 9189   5.268   4.241   1.548  0.3243 -0.4660  0.1218
  558THF     C9 9190   5.393   4.321   1.508 -0.4797 -0.9671 -0.3353
  558THF    H10 9191   5.190   4.298   1.599 -0.0114 -0.6588 -0.1692
  558THF    H11 9192   5.219   4.217   1.454  1.1424  1.2240 -0.7941
  558THF    H12 9193   5.426   4.295   1.408  1.5610  1.2724 -0.3242
  558THF    H13 9194   5.399   4.429   1.521  1.8414 -1.2288  1.3355
  559THF     O1 9195   1.706   5.398   3.065 -0.4227 -0.1194 -0.0077
  559THF     C2 9196   1.692   5.320   2.940  0.5298  0.3660  0.5635
  559THF     C3 9197   1.740   5.536   3.030 -0.1444  0.7432  0.2075
  559THF     H4 9198   1.618   5.241   2.950 -0.5150  1.3702  1.0197
  559THF     H5 9199   1.788   5.281   2.906  1.6393  3.2112  0.1187
  559THF     H6 9200   1.670   5.596   3.090  0.2918  1.5385 -0.0604
  559THF     H7 9201   1.840   5.553   3.069 -0.1258  0.2402  0.3855
  559THF     C8 9202   1.728   5.547   2.877  0.0157 -0.2464 -0.2551
  559THF     C9 9203   1.645   5.427   2.851 -0.7063  0.2227  0.6868
  559THF    H10 9204   1.822   5.542   2.822 -0.2482 -0.8036 -0.6723
  559THF    H11 9205   1.677   5.634   2.836  0.5059  1.8596  3.2214
  559THF    H12 9206   1.541   5.443   2.880 -0.5621  0.5057  1.0596
  559THF    H13 9207   1.649   5.388   2.750  2.2814 -1.3842  1.3024
  560THF     O1 9208   3.577   2.136   3.177  0.0312 -0.3057 -0.4521
  560THF     C2 9209   3.649   2.043   3.265 -0.6146 -0.2887 -0.0020
  560THF     C3 9210   3.663   2.168   3.068 -0.2734  0.5174 -0.3987
  560THF     H4 9211   3.651   1.940   3.228 -0.2871 -0.4366  0.4237
  560THF     H5 9212   3.612   2.042   3.368 -0.7072 -1.5814 -0.0348
  560THF     H6 9213   3.648   2.090   2.993 -0.3553 -0.4422  0.5751
  560THF     H7 9214   3.647   2.260   3.014 -1.7360 -0.3141 -1.4402
  560THF     C8 9215   3.807   2.169   3.125 -0.3042  0.0656  0.4664
  560THF     C9 9216   3.786   2.121   3.268  0.2286  0.1492 -0.8609
  560THF    H10 9217   3.865   2.261   3.113  4.2225 -2.2178  2.2850
  560THF    H11 9218   3.872   2.110   3.060  0.4835  0.4780  0.8590
  560THF    H12 9219   3.858   2.049   3.308 -1.5515 -0.3483  1.7278
  560THF    H13 9220   3.771   2.203   3.338 -0.8586 -0.1773 -0.6865
  561THF     O1 9221   1.926   3.101   5.452  0.5136 -0.3911 -0.0320
  561THF     C2 9222   1.793   3.126   5.403 -0.5926 -0.1135 -0.4192
  561THF     C3 9223   1.986   3.047   5.339 -0.9685 -0.5469  0.0686
  561THF     H4 9224   1.789   3.224   5.354 -0.6484 -0.2571 -0.7027
  561THF     H5 9225   1.723   3.145   5.485  1.3062  0.7730  1.0690
  561THF     H6 9226   2.018   3.127   5.271  1.7506 -0.2052  1.5667
  561THF     H7 9227   2.068   2.986   5.376 -0.6481 -0.2893 -0.2000
  561THF     C8 9228   1.887   2.949   5.276  0.8044 -0.0070 -0.4431
  561THF     C9 9229   1.754   3.027   5.306 -0.6748  0.0553 -0.0396
  561THF    H10 9230   1.892   2.852   5.325  0.6966  0.1415 -0.1359
  561THF    H11 9231   1.899   2.931   5.169  1.6011  0.2266 -0.3986
  561THF    H12 9232   1.702   3.066   5.219 -0.5472 -1.5829 -0.8889
  561THF    H13 9233   1.686   2.954   5.350  1.0373 -1.0943  0.8213
  562THF     O1 9234   3.109   4.218   4.882  0.2449 -0.1570 -0.3575
  562THF     C2 9235   3.080   4.333   4.798 -0.3038  0.8491  0.1074
  562THF     C3 9236   3.086   4.101   4.808  0.5121  0.2413  1.0049
  562THF     H4 9237   3.170   4.364   4.745 -0.5621  0.3835 -0.6332
  562THF     H5 9238   3.041   4.413   4.860  1.1605  2.4267 -0.9224
  562THF     H6 9239   3.179   4.045   4.798  0.8024  1.1017 -4.0518
  562THF     H7 9240   3.016   4.048   4.873  0.3205 -1.0892 -0.2273
  562THF     C8 9241   3.017   4.140   4.671  0.0563  0.4877 -0.0526
  562THF     C9 9242   2.983   4.291   4.684 -0.1212 -0.0607  0.6157
  562THF    H10 9243   2.933   4.072   4.653  1.2212 -0.8762 -0.5739
  562THF    H11 9244   3.081   4.109   4.588 -0.2318 -2.7984  0.7964
  562THF    H12 9245   2.998   4.353   4.596  2.9531  0.0545  1.1061
  562THF    H13 9246   2.880   4.282   4.720 -0.2561 -3.6434 -0.2224
  563THF     O1 9247   3.590   3.764   1.744 -0.2450  0.4450 -0.0688
  563THF     C2 9248   3.650   3.654   1.682  0.0735  0.2785  0.4263
  563THF     C3 9249   3.674   3.809   1.852 -0.2529  0.6848  0.2626
  563THF     H4 9250   3.713   3.687   1.599  2.7649  2.2830  3.0249
  563THF     H5 9251   3.575   3.589   1.639  0.8515 -0.3626  0.0064
  563THF     H6 9252   3.754   3.865   1.806 -0.2617  0.5693  0.1031
  563THF     H7 9253   3.617   3.873   1.919 -1.5529  2.4611 -2.3861
  563THF     C8 9254   3.723   3.677   1.906  0.7000 -0.1427  0.0085
  563THF     C9 9255   3.743   3.586   1.781  0.0367 -0.0658 -0.5373
  563THF    H10 9256   3.638   3.636   1.961 -0.4172  2.6181  0.4748
  563THF    H11 9257   3.807   3.693   1.974 -0.2002  0.4411  1.0012
  563THF    H12 9258   3.846   3.590   1.746 -0.1868  0.2701 -1.1734
  563THF    H13 9259   3.731   3.480   1.801 -0.5139  0.3929  1.9407
  564THF     O1 9260   4.878   3.761   4.966 -0.2887  0.1295 -0.1465
  564THF     C2 9261   4.843   3.635   4.909 -0.3055 -0.2474  0.0820
  564THF     C3 9262   4.921   3.850   4.861  0.9380  0.1496  0.6887
  564THF     H4 9263   4.752   3.591   4.948 -1.7372  0.8235 -1.8374
  564THF     H5 9264   4.925   3.567   4.934 -1.4198 -1.1605  1.3972
  564THF     H6 9265   4.911   3.954   4.890 -0.3775 -0.2594  1.7860
  564THF     H7 9266   5.017   3.813   4.825  0.0030 -0.0718 -1.7962
  564THF     C8 9267   4.824   3.812   4.749  0.0012 -0.2236 -0.0468
  564THF     C9 9268   4.808   3.661   4.767 -0.3171  0.0695  0.2273
  564THF    H10 9269   4.858   3.837   4.648 -1.0823 -0.7343 -0.5523
  564THF    H11 9270   4.733   3.866   4.775  1.3483  1.3215  1.7438
  564THF    H12 9271   4.725   3.603   4.724  1.4700 -1.0197 -1.9803
  564THF    H13 9272   4.889   3.627   4.703 -1.7074  0.0033 -1.6095
  565THF     O1 9273   2.630   0.558   4.338  0.4587  0.3295 -0.3258
  565THF     C2 9274   2.748   0.608   4.396  0.5290 -0.6575  0.2393
  565THF     C3 9275   2.519   0.572   4.421 -0.6560 -0.4489  0.6306
  565THF     H4 9276   2.747   0.717   4.398 -0.0185 -0.6679  1.0328
  565THF     H5 9277   2.841   0.572   4.353 -0.0292  0.1372 -1.7628
  565THF     H6 9278   2.487   0.676   4.412 -0.0715 -0.2048  1.2209
  565THF     H7 9279   2.441   0.503   4.388 -0.2249 -2.0265  2.6575
  565THF     C8 9280   2.580   0.540   4.561 -1.2436  0.1354  0.8926
  565THF     C9 9281   2.729   0.562   4.540  0.0124 -0.4281 -0.0330
  565THF    H10 9282   2.538   0.451   4.608  0.1612 -0.5871  0.8395
  565THF    H11 9283   2.555   0.623   4.627  0.9801  1.5816  0.0231
  565THF    H12 9284   2.775   0.632   4.609  1.3254 -0.7555 -0.5484
  565THF    H13 9285   2.784   0.469   4.554 -0.1701 -0.9863 -2.5040
  566THF     O1 9286   4.116   5.356   4.620 -0.2729  0.9972  0.3932
  566THF     C2 9287   4.143   5.493   4.646 -0.0233  0.3162  0.5870
  566THF     C3 9288   4.224   5.300   4.554 -0.6384  0.2241  0.1523
  566THF     H4 9289   4.077   5.541   4.717  0.0226  0.5225  0.4921
  566THF     H5 9290   4.129   5.549   4.553 -4.0091 -2.2243 -0.5781
  566THF     H6 9291   4.211   5.193   4.567 -2.6938  0.3353 -0.6309
  566THF     H7 9292   4.218   5.337   4.451 -1.0095  0.1007  0.1290
  566THF     C8 9293   4.349   5.355   4.625  0.4075 -0.0652 -0.2134
  566THF     C9 9294   4.292   5.490   4.686 -0.2976  0.2051 -0.6069
  566THF    H10 9295   4.427   5.374   4.551 -0.3618 -0.1469 -1.0670
  566THF    H11 9296   4.371   5.294   4.712 -3.8115 -0.2639  0.9357
  566THF    H12 9297   4.311   5.493   4.793  0.9523 -1.9858 -0.7202
  566THF    H13 9298   4.346   5.567   4.630  0.0274 -0.7127 -1.5959
  567THF     O1 9299   5.037   0.210   2.499 -0.3223 -0.2560  0.3103
  567THF     C2 9300   5.112   0.181   2.609 -0.6756  0.2207  0.0318
  567THF     C3 9301   5.017   0.353   2.486 -0.4480 -0.4118 -0.1543
  567THF     H4 9302   5.170   0.088   2.606  0.0489  0.6531  0.2977
  567THF     H5 9303   5.047   0.165   2.695  0.7344  0.9757  1.3006
  567THF     H6 9304   5.049   0.383   2.386  0.3506  2.9507  0.9906
  567THF     H7 9305   4.910   0.375   2.497 -0.0657  1.1279  0.6911
  567THF     C8 9306   5.096   0.422   2.599 -0.2295 -0.0376  0.4084
  567THF     C9 9307   5.192   0.308   2.624 -0.4870  0.6318 -0.5113
  567THF    H10 9308   5.041   0.441   2.691 -0.1951  3.4399 -0.1366
  567THF    H11 9309   5.134   0.519   2.566 -1.3603  0.4806  0.5789
  567THF    H12 9310   5.272   0.307   2.551  0.7325 -1.3144  0.7419
  567THF    H13 9311   5.237   0.323   2.722  0.1878 -0.4107 -0.6424
  568THF     O1 9312   0.977   4.678   1.891 -0.4114 -0.0912 -0.0559
  568THF     C2 9313   0.914   4.564   1.945  0.2154  0.3283  0.3335
  568THF     C3 9314   0.883   4.769   1.839  0.4866 -0.2420  0.1232
  568THF     H4 9315   0.863   4.587   2.039  0.2807 -0.7199  0.6371
  568THF     H5 9316   0.980   4.478   1.958 -0.6418 -0.5374 -0.7893
  568THF     H6 9317   0.828   4.827   1.913 -1.3389 -0.1588 -1.2228
  568THF     H7 9318   0.917   4.834   1.758  0.1177  0.9859  0.9185
  568THF     C8 9319   0.779   4.677   1.780 -0.0400 -0.0846 -0.0182
  568THF     C9 9320   0.808   4.541   1.839  0.3779 -0.1887  0.1904
  568THF    H10 9321   0.802   4.675   1.673  1.7427  1.4769  0.2936
  568THF    H11 9322   0.674   4.704   1.791 -0.2813  0.2631 -2.5561
  568THF    H12 9323   0.722   4.491   1.885 -0.4939  2.3707  1.5353
  568THF    H13 9324   0.835   4.475   1.756  0.3518 -0.6818  0.5699
  569THF     O1 9325   0.932   4.450   2.405  0.6982  0.3521  0.1019
  569THF     C2 9326   1.063   4.483   2.463  0.6135 -0.0059  0.3690
  569THF     C3 9327   0.831   4.537   2.451  0.0524  1.0229 -0.4995
  569THF     H4 9328   1.141   4.472   2.388  1.7690  1.1455  1.3653
  569THF     H5 9329   1.087   4.419   2.548 -0.2855  0.4930  1.0220
  569THF     H6 9330   0.806   4.575   2.352  0.5204  2.2880 -0.1534
  569THF     H7 9331   0.749   4.473   2.485  0.6511 -0.7976 -2.2432
  569THF     C8 9332   0.899   4.628   2.548 -0.4423  0.0770 -0.0888
  569THF     C9 9333   1.049   4.620   2.519 -0.2674 -0.4905  0.4534
  569THF    H10 9334   0.887   4.592   2.651 -1.0249  2.1773  0.6301
  569THF    H11 9335   0.856   4.727   2.561 -0.1169  0.1994  0.0719
  569THF    H12 9336   1.076   4.690   2.440 -2.2057 -2.0686 -1.7595
  569THF    H13 9337   1.114   4.629   2.606  0.6791  1.7874 -0.4183
  570THF     O1 9338   5.176   1.631   0.812  0.4758  0.0192  0.0083
  570THF     C2 9339   5.133   1.724   0.907  0.5868 -0.1088 -1.1788
  570THF     C3 9340   5.060   1.543   0.796 -0.1831 -0.2162  0.5422
  570THF     H4 9341   5.193   1.813   0.887 -0.3264  0.5412 -1.0855
  570THF     H5 9342   5.154   1.696   1.010  3.2408  0.1444 -1.5699
  570THF     H6 9343   5.069   1.476   0.710  0.9118  1.6649 -0.9018
  570THF     H7 9344   5.048   1.477   0.882 -0.5579 -2.2775 -1.0081
  570THF     C8 9345   4.946   1.632   0.776  0.4833 -0.4830  0.2649
  570THF     C9 9346   4.982   1.737   0.885  0.7460  0.2309 -0.6009
  570THF    H10 9347   4.847   1.590   0.788 -0.3156  0.8938 -1.1904
  570THF    H11 9348   4.947   1.691   0.685 -2.3378  1.7368  1.5188
  570THF    H12 9349   4.960   1.842   0.863  1.9566  0.5289 -0.4625
  570THF    H13 9350   4.929   1.704   0.974 -1.0122 -0.6897 -1.9123
  571THF     O1 9351   2.991   3.943   5.195  0.6079 -0.0509 -0.2920
  571THF     C2 9352   2.990   3.853   5.305  0.2303  0.9994 -0.1014
  571THF     C3 9353   2.970   4.072   5.241 -0.4708  0.5885 -0.2428
  571THF     H4 9354   3.083   3.859   5.361  1.0419 -2.3266 -0.8810
  571THF     H5 9355   2.989   3.752   5.266  1.0072  1.1445 -0.5189
  571THF     H6 9356   3.066   4.121   5.260  0.4332 -0.8408 -1.0014
  571THF     H7 9357   2.929   4.141   5.168 -0.0512  0.5421 -0.5289
  571THF     C8 9358   2.883   4.050   5.367 -0.0962  0.0183  0.1592
  571THF     C9 9359   2.875   3.899   5.390 -0.0871 -0.7561 -0.2850
  571THF    H10 9360   2.785   4.096   5.353  0.7537  2.1101  0.6839
  571THF    H11 9361   2.927   4.111   5.445 -1.6112  2.5826 -0.8617
  571THF    H12 9362   2.880   3.874   5.497 -1.9515 -0.7972 -0.1832
  571THF    H13 9363   2.789   3.853   5.342  1.4512 -2.4412 -1.5914
  572THF     O1 9364   1.096   4.552   4.597 -0.1242 -0.2740  0.4829
  572THF     C2 9365   1.200   4.477   4.545 -0.9098 -0.4185 -0.4633
  572THF     C3 9366   1.132   4.689   4.560  0.3727  0.4130 -0.0178
  572THF     H4 9367   1.175   4.371   4.539 -1.9035 -0.1645 -1.0413
  572THF     H5 9368   1.293   4.487   4.602 -1.7164  0.6132  0.7415
  572THF     H6 9369   1.053   4.764   4.554  0.0698  0.3522  2.2744
  572THF     H7 9370   1.200   4.737   4.630 -0.8218  1.1992  0.6414
  572THF     C8 9371   1.206   4.681   4.428  0.3647  0.0088 -0.1461
  572THF     C9 9372   1.224   4.532   4.407  0.0758 -1.1270  0.3196
  572THF    H10 9373   1.295   4.743   4.429 -0.9074  1.9592  1.2024
  572THF    H11 9374   1.133   4.715   4.354  1.5270 -0.2875 -1.4471
  572THF    H12 9375   1.145   4.501   4.338 -0.5393  2.1289 -0.6092
  572THF    H13 9376   1.324   4.517   4.366  0.1121 -0.3084  0.0828
  573THF     O1 9377   0.326   5.436   1.760 -0.0015  0.1678  0.0325
  573THF     C2 9378   0.411   5.490   1.663  0.3094 -0.0549  1.1356
  573THF     C3 9379   0.215   5.519   1.787  0.2470  0.1450 -0.4587
  573THF     H4 9380   0.384   5.430   1.576 -0.9883  0.5467  1.1117
  573THF     H5 9381   0.516   5.471   1.686  0.6963  0.4118 -0.1871
  573THF     H6 9382   0.128   5.454   1.789  2.1164 -2.4879  0.8599
  573THF     H7 9383   0.227   5.562   1.887 -0.9401  0.7770 -0.5720
  573THF     C8 9384   0.217   5.624   1.685  0.4589 -0.0391  0.5681
  573THF     C9 9385   0.363   5.640   1.651 -0.4740  0.4740  0.1374
  573THF    H10 9386   0.160   5.710   1.720 -1.0856 -1.3981  1.5414
  573THF    H11 9387   0.158   5.592   1.599 -0.4451  1.6003  0.5243
  573THF    H12 9388   0.393   5.670   1.551  1.5589 -0.3312  0.4520
  573THF    H13 9389   0.420   5.698   1.724  0.7086 -2.7722  2.0244
  574THF     O1 9390   2.766   1.856   1.711  0.1537 -1.0207 -0.2068
  574THF     C2 9391   2.718   1.979   1.661 -0.0948  0.0633 -0.0369
  574THF     C3 9392   2.735   1.743   1.631 -0.0981  0.0451 -0.4869
  574THF     H4 9393   2.798   2.052   1.676  0.2114  0.2856 -2.3419
  574THF     H5 9394   2.627   2.013   1.710 -0.1744 -0.9617  0.5571
  574THF     H6 9395   2.792   1.654   1.656  0.2283  0.0180 -1.3017
  574THF     H7 9396   2.634   1.704   1.643  0.0454 -0.1509  0.1372
  574THF     C8 9397   2.770   1.812   1.493 -0.3083 -0.5502 -0.2666
  574THF     C9 9398   2.699   1.946   1.508  0.3371  0.9107 -0.3622
  574THF    H10 9399   2.743   1.753   1.405  1.5942 -2.2642  0.2039
  574THF    H11 9400   2.875   1.843   1.497 -0.4633 -0.1755  1.7647
  574THF    H12 9401   2.747   2.020   1.443  0.4023  1.0550 -0.1522
  574THF    H13 9402   2.592   1.937   1.489  0.0754  1.9701  0.5216
  575THF     O1 9403   4.498   0.910   4.818 -0.0456  0.0837 -0.0174
  575THF     C2 9404   4.411   0.922   4.711  0.1642 -0.4682  0.6967
  575THF     C3 9405   4.521   0.775   4.854  0.2692 -0.3082  0.1013
  575THF     H4 9406   4.462   0.977   4.632 -1.0628 -0.0620  0.1659
  575THF     H5 9407   4.321   0.978   4.735 -0.8526 -0.9406 -1.7265
  575THF     H6 9408   4.620   0.749   4.818  0.5426 -0.0218  0.6511
  575THF     H7 9409   4.542   0.761   4.960 -1.4280 -1.7673  0.2917
  575THF     C8 9410   4.404   0.704   4.783  0.3815 -0.4633 -0.0886
  575THF     C9 9411   4.394   0.781   4.657  0.7033  0.0244  0.2115
  575THF    H10 9412   4.310   0.691   4.836  1.0621 -2.4048  0.7299
  575THF    H11 9413   4.436   0.602   4.760  0.8532 -0.9757  2.4729
  575THF    H12 9414   4.481   0.764   4.593  1.3119  0.6650  0.8402
  575THF    H13 9415   4.306   0.783   4.593  1.2107 -0.0702 -0.5058
  576THF     O1 9416   0.932   4.519   4.112 -0.2493 -0.0900 -0.0907
  576THF     C2 9417   0.837   4.617   4.097  0.6782 -0.0423 -0.2547
  576THF     C3 9418   0.891   4.432   4.216  0.0586  0.2440  0.2886
  576THF     H4 9419   0.745   4.585   4.049  0.4793 -0.0715  0.1412
  576THF     H5 9420   0.868   4.708   4.045  1.9372 -0.5478 -0.4323
  576THF     H6 9421   0.837   4.340   4.192 -1.9085  1.4906 -0.2850
  576THF     H7 9422   0.984   4.399   4.263  1.4780  0.5513 -2.1114
  576THF     C8 9423   0.804   4.518   4.303  0.2226 -0.0675 -0.0593
  576THF     C9 9424   0.807   4.664   4.245  0.2742  0.2612 -0.1087
  576THF    H10 9425   0.837   4.524   4.407  1.0311  1.1666 -0.3603
  576THF    H11 9426   0.701   4.486   4.316 -0.8860  2.5940 -1.6329
  576THF    H12 9427   0.713   4.717   4.258 -0.3284 -0.6102 -0.7706
  576THF    H13 9428   0.897   4.716   4.278 -0.0162  1.0169 -0.4937
  577THF     O1 9429   2.916   4.359   3.384  0.2490 -0.7267 -0.4379
  577THF     C2 9430   3.029   4.384   3.308  0.2246 -0.3393  0.7326
  577THF     C3 9431   2.801   4.386   3.305  0.0457  0.2623 -0.2646
  577THF     H4 9432   3.065   4.287   3.277  1.6700  0.1014  0.9844
  577THF     H5 9433   3.114   4.439   3.349  0.5465  1.4444 -2.0511
  577THF     H6 9434   2.772   4.294   3.254 -2.7533  0.7569  0.2798
  577THF     H7 9435   2.720   4.416   3.372 -0.5979  0.7406 -1.2366
  577THF     C8 9436   2.850   4.498   3.221  0.3188 -0.3745  0.2757
  577THF     C9 9437   2.985   4.452   3.183 -0.5512 -0.6640 -0.0018
  577THF    H10 9438   2.859   4.583   3.288  0.1341 -1.1968  1.3625
  577THF    H11 9439   2.779   4.517   3.140 -0.4766  2.7827  1.5561
  577THF    H12 9440   2.970   4.390   3.095  0.0236  0.6846 -1.0787
  577THF    H13 9441   3.045   4.537   3.150  0.0671 -1.2208 -0.3180
  578THF     O1 9442   1.547   4.064   1.387 -0.1936 -0.3611 -0.4227
  578THF     C2 9443   1.639   3.957   1.380 -0.5081  0.7167  0.3789
  578THF     C3 9444   1.559   4.123   1.263 -0.8307  0.7880  0.7367
  578THF     H4 9445   1.648   3.885   1.461  0.4294 -0.8763 -1.0914
  578THF     H5 9446   1.742   3.992   1.387 -0.3617  0.1356  1.3913
  578THF     H6 9447   1.477   4.193   1.246  0.9804  2.3881 -2.5468
  578THF     H7 9448   1.652   4.179   1.263  0.2953 -1.0249  1.3209
  578THF     C8 9449   1.558   4.011   1.162 -0.0794  0.0216  0.2122
  578THF     C9 9450   1.613   3.898   1.238  0.0898 -0.0366 -0.5851
  578THF    H10 9451   1.600   4.040   1.066 -0.2144  0.6643  0.3420
  578THF    H11 9452   1.459   3.977   1.132 -0.5106  3.2478 -2.5417
  578THF    H12 9453   1.542   3.816   1.238  0.3143 -0.2396 -1.2305
  578THF    H13 9454   1.714   3.875   1.202  0.6909  2.4185 -0.6429
  579THF     O1 9455   4.322   1.697   0.530  0.1233 -0.1069  0.0726
  579THF     C2 9456   4.333   1.588   0.435  0.3097 -0.1677 -0.2895
  579THF     C3 9457   4.409   1.679   0.640 -0.2552 -1.0892  0.3663
  579THF     H4 9458   4.305   1.621   0.335 -1.1402 -0.6255 -0.0512
  579THF     H5 9459   4.260   1.508   0.449 -1.3646  0.4235 -4.3959
  579THF     H6 9460   4.440   1.774   0.684  1.5170 -0.9476 -1.0702
  579THF     H7 9461   4.365   1.612   0.714 -0.1177 -0.7767  0.7346
  579THF     C8 9462   4.534   1.615   0.579  0.0093 -0.0368  0.4871
  579THF     C9 9463   4.480   1.532   0.468  1.1114  0.2194  0.4140
  579THF    H10 9464   4.574   1.544   0.650 -1.4254 -1.8260 -0.4001
  579THF    H11 9465   4.615   1.682   0.548 -0.3551  0.0644 -0.2680
  579THF    H12 9466   4.541   1.540   0.379  0.2344  1.2526 -0.1174
  579THF    H13 9467   4.477   1.424   0.483 -1.7493  0.1467 -0.0949
  580THF     O1 9468   0.590   3.158   3.070  0.0949  0.2236 -0.7480
  580THF     C2 9469   0.637   3.024   3.058  0.3382 -0.0976  0.0118
  580THF     C3 9470   0.673   3.224   3.162 -0.3057  0.0838 -0.1759
  580THF     H4 9471   0.682   3.008   2.960 -0.1249  0.3062 -0.2722
  580THF     H5 9472   0.556   2.951   3.062 -0.3177  0.6242  0.2334
  580THF     H6 9473   0.695   3.318   3.111 -0.3408  0.6372  0.8045
  580THF     H7 9474   0.616   3.253   3.250 -0.0772 -1.1873  0.3968
  580THF     C8 9475   0.797   3.138   3.189 -0.6915 -0.0210 -0.4762
  580THF     C9 9476   0.735   3.002   3.165  0.5887  0.4478  0.4997
  580THF    H10 9477   0.846   3.148   3.285  1.7495  0.2930 -1.6713
  580THF    H11 9478   0.872   3.163   3.114 -2.3907  4.4967 -1.0195
  580THF    H12 9479   0.807   2.926   3.135 -1.8040 -0.6906 -3.0795
  580THF    H13 9480   0.685   2.969   3.256 -0.4612  2.2647  0.6363
  581THF     O1 9481   4.529   2.848   0.889  0.8624 -0.4452  0.1709
  581THF     C2 9482   4.412   2.780   0.939  0.7514  0.2654 -0.0077
  581THF     C3 9483   4.552   2.961   0.968 -0.3818 -0.0955  0.5031
  581THF     H4 9484   4.437   2.681   0.977  2.2250  0.8494  0.6085
  581THF     H5 9485   4.351   2.767   0.849 -0.1083  1.0442  0.4435
  581THF     H6 9486   4.615   2.945   1.055 -1.3628 -0.2644  1.1921
  581THF     H7 9487   4.589   3.040   0.903 -0.4527  0.8460  1.5893
  581THF     C8 9488   4.416   2.987   1.034 -0.4912 -0.3362 -0.5559
  581THF     C9 9489   4.345   2.860   1.049 -0.0123  0.9267 -0.4624
  581THF    H10 9490   4.360   3.042   0.958  0.8711  2.1092  0.1049
  581THF    H11 9491   4.411   3.050   1.123 -2.9970  0.5976 -1.2534
  581THF    H12 9492   4.350   2.811   1.147 -0.0280 -0.3508 -1.0712
  581THF    H13 9493   4.239   2.883   1.034 -0.2570  0.8675  1.0130
  582THF     O1 9494   5.152   2.643   2.526 -0.5242  0.4311  0.3687
  582THF     C2 9495   5.150   2.548   2.631 -0.3328  0.5161 -0.1673
  582THF     C3 9496   5.243   2.619   2.419  0.6258  0.1654  0.2049
  582THF     H4 9497   5.048   2.521   2.657 -0.2323  0.7327  0.4711
  582THF     H5 9498   5.198   2.600   2.714 -0.9436  1.2211 -0.2546
  582THF     H6 9499   5.222   2.662   2.321  0.2742 -1.7083 -0.5944
  582THF     H7 9500   5.344   2.650   2.447 -0.4631  2.2272  2.1433
  582THF     C8 9501   5.236   2.470   2.422  0.2880  0.2257  0.6636
  582THF     C9 9502   5.219   2.430   2.568 -0.0839  0.3674  0.0592
  582THF    H10 9503   5.322   2.426   2.372 -0.6727  0.9717 -1.7894
  582THF    H11 9504   5.145   2.447   2.366  1.0975  1.0919 -1.0905
  582THF    H12 9505   5.165   2.336   2.574  2.8910 -1.5681 -0.9490
  582THF    H13 9506   5.315   2.406   2.614 -0.3467 -1.2018 -0.1681
  583THF     O1 9507   0.918   3.556   1.117  1.0644 -0.6577 -0.7048
  583THF     C2 9508   0.872   3.692   1.079  0.7265  0.3475  0.0134
  583THF     C3 9509   0.911   3.549   1.258  0.0368 -0.5253  0.0016
  583THF     H4 9510   0.764   3.690   1.065  0.7646 -2.4820 -0.3738
  583THF     H5 9511   0.915   3.717   0.982  0.9145 -0.5757 -0.1488
  583THF     H6 9512   0.810   3.534   1.294  0.0598 -0.1254  0.2421
  583THF     H7 9513   0.973   3.475   1.308 -1.7009 -1.2033  1.2466
  583THF     C8 9514   0.968   3.691   1.293  0.8304 -0.6948 -0.8191
  583THF     C9 9515   0.915   3.790   1.187  0.0533 -0.2178 -0.4667
  583THF    H10 9516   1.075   3.671   1.293  0.4232 -3.3631  0.2108
  583THF    H11 9517   0.949   3.722   1.396  3.7589  0.9022 -0.6599
  583THF    H12 9518   0.826   3.843   1.221  0.4880 -0.1755  0.6427
  583THF    H13 9519   0.997   3.854   1.156  0.2644 -1.3963 -2.5579
  584THF     O1 9520   3.848   5.044   1.193  0.2645  0.4714  0.3182
  584THF     C2 9521   3.895   5.034   1.327 -0.0947  0.0626 -0.6936
  584THF     C3 9522   3.715   5.004   1.191 -0.7575 -0.7550 -0.9250
  584THF     H4 9523   3.867   5.128   1.373 -3.4016 -1.4616  0.6885
  584THF     H5 9524   4.004   5.027   1.323 -0.0341  1.1008 -1.3779
  584THF     H6 9525   3.665   5.096   1.222  1.6565  0.1219  0.6778
  584THF     H7 9526   3.682   4.977   1.091  0.2459  1.9760 -2.1174
  584THF     C8 9527   3.707   4.886   1.295  0.2813 -0.2011  0.4296
  584THF     C9 9528   3.825   4.911   1.390  0.0581 -0.9429 -0.1822
  584THF    H10 9529   3.736   4.795   1.243  0.3336  0.2163 -0.2888
  584THF    H11 9530   3.615   4.866   1.350  0.1794 -0.1535  0.2792
  584THF    H12 9531   3.789   4.950   1.485 -0.2924  0.4333 -0.8569
  584THF    H13 9532   3.887   4.823   1.405 -0.8568 -1.5265  0.3064
  585THF     O1 9533   2.660   0.258   2.192  0.5952  0.6290  0.5737
  585THF     C2 9534   2.620   0.202   2.318  0.0110 -0.0805  0.0149
  585THF     C3 9535   2.669   0.146   2.096  0.1078 -0.2837 -0.6128
  585THF     H4 9536   2.520   0.161   2.306 -0.5020 -0.1540  3.5051
  585THF     H5 9537   2.633   0.280   2.393 -2.4504  0.6472 -0.2533
  585THF     H6 9538   2.567   0.123   2.068  0.0284 -1.0423  0.2535
  585THF     H7 9539   2.735   0.179   2.016 -0.5221  0.0752 -0.9860
  585THF     C8 9540   2.725   0.038   2.186  0.8019  0.6942  0.5528
  585THF     C9 9541   2.732   0.095   2.320 -0.3176  0.0713 -0.0579
  585THF    H10 9542   2.819   0.006   2.141  0.1976 -1.3316  0.6329
  585THF    H11 9543   2.661  -0.051   2.184  2.2005 -0.3319 -0.0328
  585THF    H12 9544   2.724   0.015   2.393 -1.1663  0.6215  0.4703
  585THF    H13 9545   2.829   0.141   2.341 -1.8954  3.2243  0.9087
  586THF     O1 9546   1.152   1.204   4.179 -0.1010  0.3816  0.1152
  586THF     C2 9547   1.192   1.338   4.197  0.1874 -0.4500 -0.4326
  586THF     C3 9548   1.166   1.179   4.043 -0.1721 -0.4036  0.7433
  586THF     H4 9549   1.215   1.370   4.299 -0.3719  2.1931 -1.0803
  586THF     H5 9550   1.126   1.414   4.157 -0.3888 -1.4061 -1.3368
  586THF     H6 9551   1.151   1.071   4.032 -2.3145 -0.2915  1.9886
  586THF     H7 9552   1.082   1.225   3.990 -0.2882 -1.6651 -0.2172
  586THF     C8 9553   1.302   1.231   4.005 -0.0477 -0.4960 -0.2070
  586THF     C9 9554   1.322   1.336   4.114 -0.3692  0.8861  0.0141
  586THF    H10 9555   1.300   1.267   3.902  1.6983  0.9408  0.2098
  586THF    H11 9556   1.380   1.155   4.017  2.6065  2.2481  1.4702
  586THF    H12 9557   1.409   1.302   4.169 -0.8261 -1.0859 -0.3936
  586THF    H13 9558   1.351   1.427   4.061  0.3035  0.4821 -0.3350
  587THF     O1 9559   3.518   2.865   5.451 -0.1718 -0.3388 -0.8908
  587THF     C2 9560   3.521   2.798   5.325 -0.1296 -0.6386  0.2393
  587THF     C3 9561   3.595   2.788   5.548 -0.1293 -0.3472 -0.2417
  587THF     H4 9562   3.512   2.875   5.248  0.1870 -0.1941  0.6430
  587THF     H5 9563   3.449   2.717   5.317  0.0555 -0.8532  0.7179
  587THF     H6 9564   3.643   2.854   5.620  1.5654 -2.0795  0.3161
  587THF     H7 9565   3.546   2.708   5.603 -0.5231  0.9412  1.3658
  587THF     C8 9566   3.706   2.725   5.467  0.0128 -0.4303 -0.5469
  587THF     C9 9567   3.666   2.742   5.319  0.1845  0.1148 -0.4170
  587THF    H10 9568   3.704   2.617   5.483 -1.7346 -0.1381  1.6909
  587THF    H11 9569   3.809   2.755   5.486 -1.2886  3.4989  1.3035
  587THF    H12 9570   3.739   2.819   5.292  0.3661  0.0109 -0.2198
  587THF    H13 9571   3.687   2.663   5.247  1.1250  0.2138 -0.2580
  588THF     O1 9572   2.376   3.649   1.436 -0.8050  0.0569  0.4799
  588THF     C2 9573   2.431   3.614   1.560  0.6633 -0.9032 -0.0472
  588THF     C3 9574   2.491   3.695   1.354 -0.4417  0.3945 -0.2756
  588THF     H4 9575   2.435   3.505   1.552 -0.2633 -0.9511  0.0877
  588THF     H5 9576   2.369   3.634   1.647 -1.7579 -0.5002 -1.7815
  588THF     H6 9577   2.538   3.604   1.317  0.3018  0.5927  0.1558
  588THF     H7 9578   2.464   3.748   1.264  2.6513  2.1455 -0.3128
  588THF     C8 9579   2.589   3.764   1.454  0.1738  1.1693  0.6793
  588THF     C9 9580   2.572   3.682   1.571 -0.0174  0.4117 -0.4570
  588THF    H10 9581   2.566   3.870   1.472  1.7842  1.6846 -0.1199
  588THF    H11 9582   2.695   3.757   1.430  0.6152 -0.0104  2.6836
  588THF    H12 9583   2.643   3.600   1.559  0.5001  0.9656 -1.2774
  588THF    H13 9584   2.589   3.735   1.665 -0.8192 -0.0350 -0.0517
  589THF     O1 9585   0.009   3.124   4.432 -0.2290  0.4269  0.1366
  589THF     C2 9586  -0.052   3.249   4.401  0.1891 -0.1735 -0.2053
  589THF     C3 9587  -0.058   3.055   4.544  0.1981 -0.5403  0.4832
  589THF     H4 9588  -0.144   3.241   4.343 -1.0679 -1.3836  1.8351
  589THF     H5 9589   0.020   3.303   4.340  1.5576 -2.5944 -0.8711
  589THF     H6 9590  -0.155   3.016   4.512 -0.6326  0.6288  1.4864
  589THF     H7 9591   0.010   2.986   4.594  1.4100  0.0544 -0.2945
  589THF     C8 9592  -0.071   3.182   4.633 -0.1631 -0.1215  0.2096
  589THF     C9 9593  -0.079   3.310   4.534  0.5473 -0.7763 -0.1389
  589THF    H10 9594   0.023   3.198   4.687  1.1958 -3.2343 -1.0020
  589THF    H11 9595  -0.144   3.172   4.713  1.3728 -3.5456  1.3797
  589THF    H12 9596  -0.178   3.355   4.543  0.6625 -0.5673  0.0937
  589THF    H13 9597  -0.014   3.394   4.559  1.0274 -0.8480 -1.0878
  590THF     O1 9598   3.800   0.924   4.548 -0.4395  0.1578 -0.0604
  590THF     C2 9599   3.881   1.037   4.535  0.7327  0.4756 -0.3940
  590THF     C3 9600   3.847   0.832   4.444 -0.3509 -0.1078 -0.3724
  590THF     H4 9601   3.869   1.105   4.620  2.3868  2.2520 -1.5136
  590THF     H5 9602   3.864   1.082   4.437  0.5617  1.1789 -0.0462
  590THF     H6 9603   3.807   0.731   4.458 -0.3121  0.0920  1.3048
  590THF     H7 9604   3.819   0.864   4.343  0.4569 -1.2981 -1.0070
  590THF     C8 9605   4.003   0.844   4.450  0.1162 -1.0428 -0.2204
  590THF     C9 9606   4.013   0.972   4.542  0.4374  0.7626  0.1846
  590THF    H10 9607   4.050   0.843   4.351  1.8449  0.9486  0.5038
  590THF    H11 9608   4.041   0.760   4.508 -1.7075 -1.9507 -0.2670
  590THF    H12 9609   4.045   0.944   4.643 -1.9922  0.0548  0.8161
  590THF    H13 9610   4.081   1.053   4.516  2.3941 -0.9398 -0.2527
  591THF     O1 9611   2.299   0.805   0.974 -0.7006 -0.0085 -0.1986
  591THF     C2 9612   2.361   0.720   0.880 -0.2587 -0.0722  0.9384
  591THF     C3 9613   2.408   0.881   1.031  0.1164  0.3451 -0.1191
  591THF     H4 9614   2.285   0.685   0.811 -1.9805  1.9592  1.6850
  591THF     H5 9615   2.390   0.628   0.930 -2.5125 -0.2664  1.9886
  591THF     H6 9616   2.366   0.961   1.092 -1.8377 -0.9199  0.2845
  591THF     H7 9617   2.467   0.824   1.103  0.9268 -0.3140 -1.2545
  591THF     C8 9618   2.489   0.922   0.913  0.4260  0.9089  0.4934
  591THF     C9 9619   2.479   0.798   0.820  0.1144  0.7183 -0.5293
  591THF    H10 9620   2.588   0.967   0.926  1.3190 -1.0865  1.1188
  591THF    H11 9621   2.442   1.006   0.862 -2.0995 -0.7130 -0.0379
  591THF    H12 9622   2.445   0.836   0.724  1.7304 -0.5191 -1.6454
  591THF    H13 9623   2.576   0.750   0.804 -0.5376 -0.0026 -2.6332
  592THF     O1 9624   3.466   4.334   3.381 -0.2211 -0.4925 -0.1103
  592THF     C2 9625   3.413   4.413   3.497 -0.0277  0.3088  1.2596
  592THF     C3 9626   3.530   4.216   3.427  0.0920  0.1443  0.4264
  592THF     H4 9627   3.332   4.478   3.463 -0.0715 -0.0173  0.7170
  592THF     H5 9628   3.501   4.468   3.528  2.0171 -1.6428 -0.7186
  592THF     H6 9629   3.540   4.146   3.345  0.1576 -0.2224  0.7412
  592THF     H7 9630   3.632   4.236   3.462  0.0601 -0.2328  0.7419
  592THF     C8 9631   3.434   4.176   3.538  0.6787 -0.6776  0.0328
  592THF     C9 9632   3.374   4.306   3.601  0.1130 -0.0477  0.0913
  592THF    H10 9633   3.490   4.113   3.608 -2.1301 -1.0378  2.1258
  592THF    H11 9634   3.348   4.127   3.493 -0.0829  0.0085  0.7090
  592THF    H12 9635   3.266   4.299   3.616  0.0024 -0.3464 -0.7447
  592THF    H13 9636   3.419   4.328   3.697  0.3555 -2.0459  0.4855
  593THF     O1 9637   2.304   1.229   1.169 -0.1419  0.8132 -0.1673
  593THF     C2 9638   2.426   1.286   1.122  0.9210  0.0650  0.6210
  593THF     C3 9639   2.198   1.252   1.078 -0.2720 -0.7623  0.7087
  593THF     H4 9640   2.481   1.227   1.049  1.3833 -0.1010  1.0969
  593THF     H5 9641   2.486   1.307   1.210 -0.1819 -0.1578  1.4521
  593THF     H6 9642   2.187   1.166   1.011 -2.1042  1.1538 -1.6239
  593THF     H7 9643   2.107   1.256   1.138 -0.9928 -0.7814 -0.3627
  593THF     C8 9644   2.221   1.392   1.026 -0.3683 -0.2933  0.6080
  593THF     C9 9645   2.372   1.415   1.052 -0.2263  0.2167 -0.5633
  593THF    H10 9646   2.167   1.476   1.069  2.4893  1.2646  1.4064
  593THF    H11 9647   2.205   1.400   0.918 -1.6104  0.6432  0.8359
  593THF    H12 9648   2.435   1.424   0.963 -0.6371 -0.7519 -0.9601
  593THF    H13 9649   2.384   1.499   1.121 -0.4567 -1.0514  1.0939
  594THF     O1 9650   1.775   2.616   0.174  0.1356 -0.0565  0.8199
  594THF     C2 9651   1.877   2.526   0.223 -0.1072 -0.1471 -0.1867
  594THF     C3 9652   1.650   2.545   0.174  0.3916  0.0745  0.4000
  594THF     H4 9653   1.893   2.543   0.329 -1.4890 -3.0438  0.5809
  594THF     H5 9654   1.971   2.529   0.168  0.5635  0.2716  0.9560
  594THF     H6 9655   1.599   2.553   0.270  1.6112 -2.3447  1.3307
  594THF     H7 9656   1.588   2.600   0.103  2.1304 -0.2515 -1.4710
  594THF     C8 9657   1.680   2.400   0.138  0.6121 -0.0376 -0.0555
  594THF     C9 9658   1.821   2.389   0.203  0.7973 -0.3651 -0.9854
  594THF    H10 9659   1.673   2.386   0.031 -0.4553  0.1703 -0.0288
  594THF    H11 9660   1.614   2.337   0.198  0.9362 -0.9529 -0.6544
  594THF    H12 9661   1.801   2.358   0.305 -0.0686 -0.4751 -1.1787
  594THF    H13 9662   1.895   2.316   0.169  2.6034  1.0625 -0.2650
  595THF     O1 9663   2.949   3.682   4.043 -0.4010  0.2866 -0.3406
  595THF     C2 9664   2.847   3.601   3.998  0.3321 -0.1192 -0.0480
  595THF     C3 9665   2.974   3.650   4.185 -0.3811 -0.3541  0.2088
  595THF     H4 9666   2.830   3.606   3.891 -0.1035 -0.5775 -0.0032
  595THF     H5 9667   2.748   3.611   4.041  0.6418  0.8014  0.4859
  595THF     H6 9668   3.071   3.686   4.220  0.2289 -0.6687 -1.1189
  595THF     H7 9669   2.891   3.664   4.255 -1.0752 -1.4356 -0.3545
  595THF     C8 9670   2.994   3.504   4.171  0.4416  0.6267  0.0145
  595THF     C9 9671   2.892   3.469   4.059 -0.1046 -0.0820  0.0114
  595THF    H10 9672   2.963   3.460   4.266 -1.6016  0.9910 -0.4500
  595THF    H11 9673   3.094   3.473   4.139  1.3424  2.3794  1.0022
  595THF    H12 9674   2.931   3.405   3.980 -1.2422 -1.0175  0.1903
  595THF    H13 9675   2.802   3.421   4.097 -1.8278  0.6600 -2.8349
  596THF     O1 9676   1.002   2.732   1.077  0.3257 -0.2756 -0.7060
  596THF     C2 9677   0.862   2.720   1.103 -0.2463  0.4589 -0.9051
  596THF     C3 9678   1.022   2.759   0.942  0.2899 -0.1559 -0.6699
  596THF     H4 9679   0.850   2.743   1.209  0.4368 -0.7156 -0.5497
  596THF     H5 9680   0.819   2.622   1.084  1.4616 -0.3457 -0.8118
  596THF     H6 9681   1.123   2.800   0.937 -0.1717  1.2570  0.6140
  596THF     H7 9682   0.996   2.670   0.885 -0.1260 -0.5019  0.0502
  596THF     C8 9683   0.914   2.865   0.914 -0.5199 -0.0725  0.1769
  596THF     C9 9684   0.803   2.822   1.011  0.3036 -0.4373 -0.1440
  596THF    H10 9685   0.861   2.855   0.819 -0.8159  0.2838  0.3004
  596THF    H11 9686   0.938   2.969   0.935 -0.2755 -0.3688  1.4841
  596THF    H12 9687   0.764   2.905   1.069  1.8239  1.3267 -1.5457
  596THF    H13 9688   0.712   2.792   0.958 -0.1389  1.1076 -0.2977
  597THF     O1 9689   3.636   0.408   5.405 -0.1234 -0.0642 -0.7900
  597THF     C2 9690   3.533   0.338   5.339 -0.4776 -0.0598  0.0432
  597THF     C3 9691   3.756   0.419   5.330  0.4284  0.8537 -0.0624
  597THF     H4 9692   3.472   0.401   5.273 -0.7618  0.1951  0.5452
  597THF     H5 9693   3.465   0.294   5.412  1.7601 -1.9342  1.1115
  597THF     H6 9694   3.747   0.491   5.248 -1.2060  0.2963 -0.4167
  597THF     H7 9695   3.839   0.443   5.397  2.4670 -0.2482 -2.0486
  597THF     C8 9696   3.764   0.274   5.273  0.1075  0.0824  0.2533
  597THF     C9 9697   3.613   0.234   5.258 -0.4882 -0.0560 -0.3003
  597THF    H10 9698   3.803   0.204   5.347 -0.6705  0.2692  0.8569
  597THF    H11 9699   3.824   0.267   5.183  0.2953  0.0724  0.3779
  597THF    H12 9700   3.590   0.247   5.152  2.2061  1.5400 -0.8041
  597THF    H13 9701   3.590   0.133   5.290  0.2968  0.3316  1.6304
  598THF     O1 9702   3.222   0.413   5.192 -0.3593 -0.2367  0.8365
  598THF     C2 9703   3.164   0.311   5.276  0.0566 -0.7316  0.5671
  598THF     C3 9704   3.167   0.533   5.235 -0.3205 -0.3151  0.3957
  598THF     H4 9705   3.220   0.296   5.369 -1.0854 -4.1725  0.8537
  598THF     H5 9706   3.174   0.222   5.213 -1.1675 -1.3350  1.1790
  598THF     H6 9707   3.229   0.577   5.313  1.8235  0.2431 -1.5188
  598THF     H7 9708   3.160   0.609   5.157 -0.9698  0.6229  1.3501
  598THF     C8 9709   3.020   0.500   5.279  0.2121 -0.5873  0.9528
  598THF     C9 9710   3.023   0.353   5.311  0.3876  0.4289 -0.1341
  598THF    H10 9711   2.939   0.517   5.208  1.4780 -0.6529 -0.5465
  598THF    H11 9712   2.987   0.554   5.368  2.0929  0.0934  1.2691
  598THF    H12 9713   3.003   0.334   5.417 -0.4823  0.0350 -0.3554
  598THF    H13 9714   2.939   0.304   5.261  0.8317 -0.5876  0.0878
  599THF     O1 9715   4.867   0.771   4.278 -0.4393 -0.3287  0.0355
  599THF     C2 9716   4.984   0.686   4.260  0.1816  0.5116 -0.3035
  599THF     C3 9717   4.842   0.761   4.416 -0.3180  0.2612 -0.5202
  599THF     H4 9718   5.077   0.732   4.294  1.3299 -0.3235 -2.1475
  599THF     H5 9719   5.001   0.651   4.158 -0.4426 -0.4923 -0.0793
  599THF     H6 9720   4.909   0.830   4.467 -0.0473  0.6911 -1.4342
  599THF     H7 9721   4.738   0.795   4.423 -0.7888 -1.2709  0.3633
  599THF     C8 9722   4.849   0.610   4.442 -0.7087  0.7059 -0.6586
  599THF     C9 9723   4.948   0.563   4.338 -0.2306  0.0818 -1.0285
  599THF    H10 9724   4.756   0.562   4.412  0.7812 -0.9764 -2.9000
  599THF    H11 9725   4.884   0.581   4.542 -1.1531  1.7501 -0.1872
  599THF    H12 9726   5.037   0.519   4.382  0.1575  1.5101 -0.3228
  599THF    H13 9727   4.902   0.484   4.279  2.2355 -2.4354  0.1633
  600THF     O1 9728   3.329   1.008   4.534 -0.8242 -0.0639  0.1088
  600THF     C2 9729   3.404   1.047   4.419 -0.0891 -0.8379 -0.3253
  600THF     C3 9730   3.407   0.921   4.611  0.1676  0.4271  0.5358
  600THF     H4 9731   3.471   1.128   4.450  1.3017 -2.5281  1.2782
  600THF     H5 9732   3.343   1.092   4.341  0.7370 -0.0056 -0.5224
  600THF     H6 9733   3.493   0.972   4.655  1.8176 -1.5785 -0.1745
  600THF     H7 9734   3.339   0.871   4.681 -1.3697  1.0398 -0.4661
  600THF     C8 9735   3.456   0.830   4.504  0.1017  0.8884  0.0990
  600THF     C9 9736   3.485   0.925   4.389 -0.9490  1.2017 -0.3552
  600THF    H10 9737   3.373   0.771   4.466  2.0659 -1.8629 -0.2316
  600THF    H11 9738   3.536   0.761   4.530  0.4423  0.6446 -1.4587
  600THF    H12 9739   3.591   0.948   4.382 -1.0620  2.3964  1.3560
  600THF    H13 9740   3.457   0.882   4.292 -0.6695 -0.7568  0.4072
  601THF     O1 9741   1.484   4.141   3.560  0.2211 -0.1038 -0.2608
  601THF     C2 9742   1.416   4.250   3.505 -0.0437  0.9622 -0.2136
  601THF     C3 9743   1.403   4.018   3.548 -0.6027 -0.6448 -0.3216
  601THF     H4 9744   1.457   4.261   3.404 -0.5150 -1.8778 -0.8072
  601THF     H5 9745   1.445   4.344   3.552  1.3087  0.7878 -0.6521
  601THF     H6 9746   1.433   3.972   3.454  2.0698  0.9065 -0.3090
  601THF     H7 9747   1.427   3.948   3.628 -0.1043  0.4187  0.4863
  601THF     C8 9748   1.259   4.069   3.548 -0.7402  0.7325 -0.1376
  601THF     C9 9749   1.266   4.214   3.505 -0.5677  0.0920  0.3230
  601THF    H10 9750   1.234   4.058   3.654  0.8258 -2.1600  0.0308
  601THF    H11 9751   1.184   4.024   3.483  0.5913  1.5000 -2.3073
  601THF    H12 9752   1.229   4.216   3.402  1.3797 -1.6043 -0.4820
  601THF    H13 9753   1.198   4.271   3.568  1.0995 -0.4581  2.7163
  602THF     O1 9754   2.633   3.031   1.386  0.0657  0.3481 -0.3325
  602THF     C2 9755   2.548   3.117   1.454  0.5129 -0.1292 -0.4567
  602THF     C3 9756   2.613   3.060   1.249  0.6649 -0.5546  0.1908
  602THF     H4 9757   2.565   3.111   1.562 -2.6838 -0.1263  0.1636
  602THF     H5 9758   2.447   3.080   1.439  1.4586 -3.1427 -0.0234
  602THF     H6 9759   2.687   3.016   1.183  0.4079 -0.8887  0.1237
  602THF     H7 9760   2.516   3.019   1.221  0.1091  0.7885  0.0840
  602THF     C8 9761   2.596   3.209   1.256 -0.4781  0.9780  0.2169
  602THF     C9 9762   2.571   3.252   1.401 -0.1026 -0.3726  0.4023
  602THF    H10 9763   2.528   3.258   1.186  1.1016  3.1886  0.1121
  602THF    H11 9764   2.692   3.246   1.219  0.3653 -1.1936  0.0910
  602THF    H12 9765   2.665   3.293   1.436  0.3156 -1.1589  0.2168
  602THF    H13 9766   2.484   3.315   1.422 -0.2604 -0.6432  0.5766
  603THF     O1 9767   4.213   4.970   3.496  0.4910  0.0122 -0.0778
  603THF     C2 9768   4.174   4.845   3.551 -0.1470 -0.2142  1.4007
  603THF     C3 9769   4.313   5.020   3.580  0.3898 -0.7773 -0.3538
  603THF     H4 9770   4.261   4.779   3.546 -1.0407 -1.3535  0.4090
  603THF     H5 9771   4.086   4.806   3.501  0.8272 -1.1086  0.3520
  603THF     H6 9772   4.410   4.974   3.559  1.7117  0.8823  1.7108
  603THF     H7 9773   4.332   5.122   3.547 -2.6191  0.1646  0.5019
  603THF     C8 9774   4.264   4.979   3.715  1.0003 -0.5069 -0.5586
  603THF     C9 9775   4.146   4.890   3.692  0.1263  0.3440  0.0176
  603THF    H10 9776   4.236   5.056   3.788  0.8905 -0.2714 -0.8443
  603THF    H11 9777   4.336   4.913   3.761  1.1575  1.0546  1.5827
  603THF    H12 9778   4.144   4.805   3.760  0.3766  1.0612  0.9329
  603THF    H13 9779   4.049   4.939   3.684  0.7071  1.6992  0.9442
  604THF     O1 9780   3.270   1.209   2.320 -0.7286  0.8127  0.1506
  604THF     C2 9781   3.190   1.322   2.309  0.1367 -0.1213 -0.4993
  604THF     C3 9782   3.391   1.233   2.402 -0.1215 -0.0776  0.0836
  604THF     H4 9783   3.111   1.317   2.385 -0.7063 -1.1726 -1.4006
  604THF     H5 9784   3.138   1.319   2.213 -0.8282  0.5989 -0.0137
  604THF     H6 9785   3.410   1.168   2.488  1.2750  0.0236 -0.1299
  604THF     H7 9786   3.475   1.208   2.338 -0.6317  0.8142 -0.9695
  604THF     C8 9787   3.397   1.378   2.434  0.6545 -0.1250  0.8322
  604THF     C9 9788   3.301   1.432   2.331  0.1516 -0.1809  0.3558
  604THF    H10 9789   3.501   1.408   2.423  0.1380  1.6364  0.4410
  604THF    H11 9790   3.359   1.395   2.535 -1.2281 -0.3904  0.2128
  604THF    H12 9791   3.250   1.520   2.371 -1.6123 -1.4185  0.9708
  604THF    H13 9792   3.354   1.449   2.238  2.8712  2.9630  2.2541
  605THF     O1 9793   3.602   3.652   2.284  0.4522  0.4035  0.3062
  605THF     C2 9794   3.700   3.546   2.297  0.0168 -0.4921 -0.6233
  605THF     C3 9795   3.604   3.729   2.397  0.2905  0.6775 -0.0847
  605THF     H4 9796   3.791   3.579   2.247  1.0282  1.9320  2.4888
  605THF     H5 9797   3.656   3.461   2.245 -1.5724  0.0279 -0.1955
  605THF     H6 9798   3.668   3.810   2.361  0.6656 -0.1845 -1.4370
  605THF     H7 9799   3.505   3.768   2.419 -0.7316 -1.0106 -1.4836
  605THF     C8 9800   3.666   3.656   2.507 -0.9767  0.0465 -0.0133
  605THF     C9 9801   3.721   3.530   2.445  0.0176 -0.1290  1.3343
  605THF    H10 9802   3.576   3.638   2.566 -1.6542 -0.4760 -1.1766
  605THF    H11 9803   3.734   3.731   2.549 -1.3976  1.1781 -1.2774
  605THF    H12 9804   3.822   3.496   2.469 -0.6154 -1.3090  2.4530
  605THF    H13 9805   3.656   3.445   2.465 -2.2612  1.1412 -0.2499
  606THF     O1 9806   0.185   1.534   0.416  0.4400  0.3399 -0.0689
  606THF     C2 9807   0.166   1.535   0.559 -0.0223  0.2265 -0.9463
  606THF     C3 9808   0.193   1.666   0.369 -0.0204 -0.8619 -0.0456
  606THF     H4 9809   0.173   1.445   0.622 -0.2581  0.3134 -0.7931
  606THF     H5 9810   0.069   1.582   0.570 -1.0810 -1.3911 -2.7606
  606THF     H6 9811   0.243   1.669   0.272 -0.2727  2.3841 -0.1974
  606THF     H7 9812   0.094   1.708   0.354 -0.1992 -1.6017 -0.9977
  606THF     C8 9813   0.276   1.730   0.482  0.7640  0.1710 -0.1422
  606THF     C9 9814   0.264   1.645   0.603  1.0212  0.6697 -1.0326
  606THF    H10 9815   0.246   1.831   0.507  0.0123  0.1579 -0.9228
  606THF    H11 9816   0.380   1.742   0.450  0.5658 -1.8257 -1.7492
  606THF    H12 9817   0.362   1.601   0.622  0.4476 -0.6797 -1.1659
  606THF    H13 9818   0.226   1.699   0.690  0.6240 -1.3836  0.1305
  607THF     O1 9819   3.970   4.412   3.814 -0.0985 -0.0570 -0.4482
  607THF     C2 9820   3.879   4.432   3.713  0.1765  0.6628 -0.6205
  607THF     C3 9821   3.992   4.531   3.882  0.0277  0.1609 -0.2729
  607THF     H4 9822   3.787   4.374   3.722  1.0976 -0.5255  1.9501
  607THF     H5 9823   3.923   4.423   3.613  1.4259 -0.4260  0.0077
  607THF     H6 9824   4.021   4.514   3.985  1.2339  1.3077 -0.4002
  607THF     H7 9825   4.080   4.568   3.829 -0.1714  1.7873  0.4870
  607THF     C8 9826   3.867   4.614   3.872 -0.0878  0.0602 -0.2084
  607THF     C9 9827   3.826   4.571   3.729 -0.6145  0.3173  0.0389
  607THF    H10 9828   3.890   4.719   3.887  1.9174 -0.6043  1.8950
  607THF    H11 9829   3.789   4.574   3.938 -1.2414  1.4214 -0.6950
  607THF    H12 9830   3.722   4.591   3.707 -0.5411  1.9634  1.0153
  607THF    H13 9831   3.879   4.625   3.650  2.0317 -1.9358  0.1276
  608THF     O1 9832   3.149   1.087   4.051 -0.7334  1.0101 -0.0614
  608THF     C2 9833   3.194   0.987   3.959  0.5466  0.5023 -0.0634
  608THF     C3 9834   3.015   1.070   4.092 -0.5571  0.1130 -0.2901
  608THF     H4 9835   3.280   0.938   4.006  0.4306  1.0893  0.7935
  608THF     H5 9836   3.216   1.030   3.862  0.5955 -0.6698 -0.5809
  608THF     H6 9837   3.023   1.013   4.184  0.4666 -1.2553 -1.1926
  608THF     H7 9838   2.946   1.153   4.110 -1.5343 -0.9295  0.9759
  608THF     C8 9839   2.951   0.974   3.988 -0.1138 -0.0412 -0.5281
  608THF     C9 9840   3.070   0.892   3.933  0.1760  0.5222  0.1715
  608THF    H10 9841   2.910   1.019   3.898 -3.2786 -0.7514  0.4576
  608THF    H11 9842   2.869   0.911   4.022 -0.9693  1.0417 -0.5228
  608THF    H12 9843   3.095   0.811   4.001  3.4942 -1.4924 -3.0885
  608THF    H13 9844   3.060   0.845   3.835 -1.8760 -1.2395  1.1337
  609THF     O1 9845   5.443   1.754   4.800  0.0356  0.0778  0.3918
  609THF     C2 9846   5.515   1.687   4.907 -1.2683 -0.1442 -0.0163
  609THF     C3 9847   5.483   1.898   4.790  0.3548  1.2728 -0.1587
  609THF     H4 9848   5.500   1.579   4.918  1.5884 -0.4085  3.0429
  609THF     H5 9849   5.482   1.718   5.006  0.2324 -2.3804  1.2767
  609THF     H6 9850   5.463   1.933   4.689 -1.2238 -1.6126 -0.9695
  609THF     H7 9851   5.437   1.956   4.870  2.8382  1.5156  1.1979
  609THF     C8 9852   5.632   1.887   4.833  0.2939  0.4659 -0.1860
  609THF     C9 9853   5.658   1.746   4.898  0.3800  0.5671  0.7263
  609THF    H10 9854   5.672   1.966   4.897 -3.1704  1.3852  1.0301
  609THF    H11 9855   5.694   1.874   4.745 -1.0833 -1.2836 -0.9568
  609THF    H12 9856   5.725   1.686   4.837 -0.1824  0.3340  0.3326
  609THF    H13 9857   5.721   1.758   4.986  2.1022  0.2290 -0.4136
  610THF     O1 9858   2.057   0.998   4.240  0.5634 -0.6711  0.2395
  610THF     C2 9859   1.975   1.054   4.348 -0.1636  0.3807  0.3382
  610THF     C3 9860   2.090   1.095   4.146  0.2370 -0.3759  0.2072
  610THF     H4 9861   2.047   1.096   4.418  0.7616  1.8285 -1.4115
  610THF     H5 9862   1.927   0.969   4.398 -1.0908 -0.4863 -1.8813
  610THF     H6 9863   2.196   1.111   4.159 -0.0600  1.8560  0.1892
  610THF     H7 9864   2.065   1.045   4.052  0.3378  0.2977 -0.1834
  610THF     C8 9865   1.997   1.218   4.176 -0.5304  0.0528  0.0697
  610THF     C9 9866   1.897   1.168   4.277 -0.5947  0.3339  0.1224
  610THF    H10 9867   1.944   1.262   4.092 -0.0647 -1.4626 -1.0543
  610THF    H11 9868   2.055   1.304   4.209  1.5057 -0.1844 -2.6374
  610THF    H12 9869   1.855   1.250   4.335 -0.6076  0.4271 -0.0195
  610THF    H13 9870   1.820   1.120   4.217  0.6241 -0.3974 -0.8996
  611THF     O1 9871   2.531   2.856   2.610  0.1518 -0.5740 -0.2890
  611THF     C2 9872   2.612   2.854   2.723  0.3842 -0.5346 -0.2512
  611THF     C3 9873   2.577   2.753   2.532 -0.4187 -0.5377 -0.4311
  611THF     H4 9874   2.589   2.769   2.787  0.8787 -2.4686 -2.4776
  611THF     H5 9875   2.603   2.952   2.768  0.7536 -0.8663  0.5595
  611THF     H6 9876   2.546   2.659   2.577  0.1357 -0.7230 -0.4264
  611THF     H7 9877   2.540   2.751   2.430 -0.3872 -0.1712 -0.4531
  611THF     C8 9878   2.734   2.766   2.543 -0.1928 -0.1009  0.6808
  611THF     C9 9879   2.752   2.851   2.666 -0.6344  0.5766  0.0549
  611THF    H10 9880   2.774   2.813   2.453  2.0289 -0.9176  1.1694
  611THF    H11 9881   2.788   2.671   2.541 -1.9381 -1.1229 -0.6910
  611THF    H12 9882   2.808   2.808   2.749 -2.5982 -1.1671  0.5600
  611THF    H13 9883   2.787   2.950   2.635 -0.9776  0.6568 -0.0884
  612THF     O1 9884   4.980   5.246   1.945  0.3522 -0.0277 -0.7049
  612THF     C2 9885   4.930   5.368   1.900  0.0632 -0.5216 -0.4798
  612THF     C3 9886   5.029   5.166   1.836  0.2880 -0.2163 -0.4330
  612THF     H4 9887   4.994   5.448   1.936 -0.5611 -1.1962  2.4749
  612THF     H5 9888   4.827   5.389   1.930  0.8735 -0.4521  2.5671
  612THF     H6 9889   5.120   5.115   1.865  1.8119  1.7468 -1.5154
  612THF     H7 9890   4.970   5.078   1.810  0.3262  0.1586 -1.8916
  612THF     C8 9891   5.038   5.261   1.715  0.2402  0.5944 -0.3041
  612THF     C9 9892   4.935   5.364   1.746  0.4332 -0.4109 -0.3041
  612THF    H10 9893   5.029   5.211   1.618  2.4977  0.5473 -0.5273
  612THF    H11 9894   5.133   5.313   1.716 -0.5030  2.0030 -0.1349
  612THF    H12 9895   4.971   5.461   1.711 -2.3433  1.1167  0.7847
  612THF    H13 9896   4.836   5.346   1.706 -0.6537 -0.9254  2.3914
  613THF     O1 9897   1.330   5.209   5.311  0.2365  0.4449 -0.7384
  613THF     C2 9898   1.246   5.137   5.224 -0.1538 -0.4139 -0.2181
  613THF     C3 9899   1.420   5.291   5.239  0.3470  0.5926  0.1084
  613THF     H4 9900   1.141   5.157   5.242  0.5160  0.3639  3.6045
  613THF     H5 9901   1.255   5.030   5.244 -3.7827 -0.5496  1.3530
  613THF     H6 9902   1.381   5.393   5.241 -0.2108  0.3784  1.7215
  613THF     H7 9903   1.522   5.293   5.277  0.7640  0.6797 -0.9757
  613THF     C8 9904   1.420   5.235   5.099 -0.3817 -0.3945  0.1554
  613THF     C9 9905   1.281   5.177   5.081 -0.2081 -0.7593 -0.1929
  613THF    H10 9906   1.491   5.154   5.084 -0.2839 -0.4449  0.8521
  613THF    H11 9907   1.451   5.308   5.025 -4.0925  0.7215 -0.5287
  613THF    H12 9908   1.222   5.262   5.047 -0.8870 -0.7436  0.9952
  613THF    H13 9909   1.275   5.095   5.009  0.1409  0.5000 -1.7017
  614THF     O1 9910   3.155   1.070   1.384  0.0142 -0.0444  0.1548
  614THF     C2 9911   3.217   0.945   1.411 -0.1860  0.1349  0.2529
  614THF     C3 9912   3.201   1.169   1.476  0.1891  0.1071  0.4500
  614THF     H4 9913   3.319   0.944   1.373 -0.7276 -2.4821 -1.3640
  614THF     H5 9914   3.169   0.856   1.371  1.5154 -0.1583 -1.2937
  614THF     H6 9915   3.277   1.234   1.432 -1.4791  0.9558 -1.3322
  614THF     H7 9916   3.115   1.229   1.507  0.3581  0.1782  0.7905
  614THF     C8 9917   3.268   1.085   1.589 -0.1799 -0.1878 -0.3325
  614THF     C9 9918   3.212   0.944   1.561 -0.2689 -0.2190 -0.2035
  614THF    H10 9919   3.237   1.120   1.688  0.0832  2.2342 -1.0483
  614THF    H11 9920   3.375   1.076   1.571 -0.0270  0.7827  0.0686
  614THF    H12 9921   3.280   0.865   1.593 -0.6394 -0.1236  0.8529
  614THF    H13 9922   3.107   0.924   1.583 -0.0355 -1.5126 -0.2170
  615THF     O1 9923   4.355   4.434   3.980  0.0199  0.4187  0.0385
  615THF     C2 9924   4.340   4.563   4.032  0.7925  0.2163 -0.4791
  615THF     C3 9925   4.378   4.451   3.846  0.3524 -0.8907 -0.1338
  615THF     H4 9926   4.337   4.567   4.141  1.2986  1.0853 -0.4920
  615THF     H5 9927   4.236   4.586   4.007 -0.0460 -1.1043  1.5167
  615THF     H6 9928   4.428   4.364   3.802 -0.3970 -0.9888 -0.8227
  615THF     H7 9929   4.293   4.472   3.780 -0.3903  0.0676  1.0811
  615THF     C8 9930   4.451   4.584   3.827  0.6030 -0.5191  0.3197
  615THF     C9 9931   4.443   4.654   3.966  0.0806 -0.3136 -0.0337
  615THF    H10 9932   4.410   4.659   3.759  0.5008  0.2363  1.1846
  615THF    H11 9933   4.555   4.561   3.805  0.5060 -1.8687  1.1687
  615THF    H12 9934   4.536   4.651   4.022 -1.2136 -1.1187  2.1734
  615THF    H13 9935   4.407   4.755   3.946  1.1282 -0.1360 -1.2041
  616THF     O1 9936   2.665   2.414   4.098 -0.4805  0.0840 -0.1727
  616THF     C2 9937   2.673   2.287   4.028 -0.0897 -0.6488 -0.1722
  616THF     C3 9938   2.792   2.477   4.088 -0.5220  0.3041 -0.1821
  616THF     H4 9939   2.663   2.293   3.920 -1.6317 -2.0768 -0.1650
  616THF     H5 9940   2.595   2.215   4.055  0.3281 -0.8454  0.5460
  616THF     H6 9941   2.798   2.542   4.001  1.2227  1.0905  0.4810
  616THF     H7 9942   2.820   2.549   4.165  2.2793  0.2105 -1.0048
  616THF     C8 9943   2.890   2.374   4.081 -0.3349 -0.1544  0.0618
  616THF     C9 9944   2.814   2.243   4.043 -0.1403 -0.4149 -0.5923
  616THF    H10 9945   2.955   2.360   4.168 -2.3909  0.9938  1.8920
  616THF    H11 9946   2.957   2.390   3.997 -2.2100  0.6702 -1.3323
  616THF    H12 9947   2.858   2.200   3.953 -0.4657 -2.3940  0.1581
  616THF    H13 9948   2.825   2.175   4.127 -1.1901  2.7947  2.4208
  617THF     O1 9949   4.634   2.251   4.751  0.2110  0.0414 -0.6074
  617THF     C2 9950   4.520   2.326   4.712  1.1462  0.3335 -0.6637
  617THF     C3 9951   4.647   2.275   4.892  0.7052  0.4199  0.0659
  617THF     H4 9952   4.481   2.290   4.617 -1.0963 -0.8930  0.6498
  617THF     H5 9953   4.542   2.432   4.700  2.1615 -0.0188 -2.3566
  617THF     H6 9954   4.717   2.204   4.937 -0.4427 -1.7729 -1.4075
  617THF     H7 9955   4.681   2.379   4.894  0.3384  0.5926 -1.4862
  617THF     C8 9956   4.505   2.276   4.946 -0.1236  0.9932  0.0085
  617THF     C9 9957   4.409   2.295   4.820 -0.3827 -0.2273  0.3535
  617THF    H10 9958   4.517   2.358   5.017  1.7949  0.8087 -0.0459
  617THF    H11 9959   4.484   2.181   4.995  2.3143 -0.1936 -1.0931
  617THF    H12 9960   4.380   2.202   4.772  3.6506 -1.4217 -0.1256
  617THF    H13 9961   4.331   2.371   4.829  0.0346  0.4850 -1.4930
  618THF     O1 9962   3.744   0.383   3.429  0.1346 -0.4129  0.2104
  618THF     C2 9963   3.726   0.395   3.571 -0.4037  0.5050  0.1022
  618THF     C3 9964   3.618   0.368   3.367  0.2342 -0.0990 -0.0576
  618THF     H4 9965   3.722   0.500   3.599 -0.4999  1.1708 -2.2482
  618THF     H5 9966   3.811   0.344   3.616 -0.8536 -0.1358  0.2429
  618THF     H6 9967   3.555   0.456   3.351 -1.6710 -1.6439 -1.5291
  618THF     H7 9968   3.628   0.320   3.270  0.1556  0.3060 -0.2669
  618THF     C8 9969   3.557   0.268   3.457 -0.2512 -0.1703 -0.5741
  618THF     C9 9970   3.601   0.308   3.595  0.0975 -0.1612  0.0011
  618THF    H10 9971   3.595   0.167   3.440  3.0107  0.4323  2.1358
  618THF    H11 9972   3.449   0.277   3.451 -0.1257  1.7265 -0.5564
  618THF    H12 9973   3.516   0.369   3.627  0.1253  0.2192 -0.6354
  618THF    H13 9974   3.620   0.224   3.661  1.7960 -0.5520 -0.9483
  619THF     O1 9975   0.832   1.060   1.445 -0.1830  0.2384  0.2014
  619THF     C2 9976   0.909   0.996   1.345  0.6921  0.4699  0.3026
  619THF     C3 9977   0.692   1.023   1.429 -0.2978 -0.8973  0.0351
  619THF     H4 9978   1.013   0.994   1.377  1.0280 -1.6465 -0.7259
  619THF     H5 9979   0.898   1.056   1.255  2.2852  0.8049  0.2904
  619THF     H6 9980   0.658   1.004   1.531  1.6724  2.5563  1.5021
  619THF     H7 9981   0.648   1.111   1.382  2.4845  0.5237 -0.0922
  619THF     C8 9982   0.691   0.909   1.335  0.2407  0.8068 -0.1337
  619THF     C9 9983   0.831   0.864   1.342  0.3378  0.5881  0.0710
  619THF    H10 9984   0.672   0.941   1.232  0.1524 -0.1078 -0.4124
  619THF    H11 9985   0.621   0.831   1.367  1.9689 -0.3067  1.1112
  619THF    H12 9986   0.841   0.796   1.427 -1.3345  1.2975  0.9030
  619THF    H13 9987   0.843   0.806   1.251  2.1730  0.3325  0.4379
  620THF     O1 9988   3.599   5.465   1.240  0.4287  0.5202  0.1515
  620THF     C2 9989   3.495   5.514   1.148  0.3659 -0.1838  0.9740
  620THF     C3 9990   3.533   5.363   1.311 -0.0891 -0.5234  0.2765
  620THF     H4 9991   3.545   5.575   1.073  0.1179  0.0668  1.0143
  620THF     H5 9992   3.426   5.567   1.212 -1.6575 -0.3492 -0.9630
  620THF     H6 9993   3.599   5.282   1.342  1.2039  0.6047  0.5290
  620THF     H7 9994   3.499   5.390   1.411  0.0990  0.1442  0.1624
  620THF     C8 9995   3.426   5.304   1.219 -0.0872 -0.4905 -0.3800
  620THF     C9 9996   3.435   5.394   1.092  0.2826 -0.3087 -0.3910
  620THF    H10 9997   3.327   5.313   1.264 -0.7833  1.3582 -2.1134
  620THF    H11 9998   3.448   5.200   1.198  1.4419 -0.1790 -0.4249
  620THF    H12 9999   3.500   5.338   1.026  2.5262  1.1905  0.4229
  620THF    H1310000   3.341   5.425   1.045 -0.5925  0.6737  1.8369
  621THF     O110001   3.806   3.144   4.384  0.0240  0.3925 -0.1875
  621THF     C210002   3.744   3.247   4.311 -0.2558 -0.9007 -0.4961
  621THF     C310003   3.761   3.164   4.522  0.0001 -0.9342  0.3118
  621THF     H410004   3.755   3.229   4.204 -1.3030 -0.9495 -0.6148
  621THF     H510005   3.793   3.342   4.333 -2.0621 -0.3462  1.6076
  621THF     H610006   3.788   3.073   4.576  2.4806 -1.9997 -2.4438
  621THF     H710007   3.814   3.244   4.573  0.3889 -1.6564  1.0678
  621THF     C810008   3.614   3.200   4.508 -0.3595 -0.3267 -0.4496
  621THF     C910009   3.598   3.234   4.361 -0.1280  0.1997 -0.9101
  621THF    H1010010   3.585   3.284   4.570  0.0462 -1.0181  0.7180
  621THF    H1110011   3.562   3.111   4.545  0.8795 -0.3647  1.2985
  621THF    H1210012   3.544   3.152   4.313  0.5132 -1.0003  0.3579
  621THF    H1310013   3.540   3.327   4.357  0.8614  1.1084  2.3894
  622THF     O110014   4.449   3.789   4.720  0.4345  0.6576 -0.4266
  622THF     C210015   4.366   3.690   4.667  0.2149  0.0164 -0.1743
  622THF     C310016   4.426   3.907   4.645 -0.1452 -0.0305  0.0278
  622THF     H410017   4.271   3.712   4.717 -0.4052  0.8921 -1.6785
  622THF     H510018   4.396   3.585   4.675 -0.9525 -0.2669  1.0218
  622THF     H610019   4.344   3.958   4.694 -0.7741  1.2565 -2.2245
  622THF     H710020   4.514   3.971   4.647  0.0793 -0.2784  3.1627
  622THF     C810021   4.386   3.858   4.508 -0.0037  0.4844  0.1095
  622THF     C910022   4.346   3.719   4.518 -0.4343  0.4059 -0.2437
  622THF    H1010023   4.458   3.874   4.428 -1.3019 -1.2063 -1.4805
  622THF    H1110024   4.301   3.920   4.479  1.2269  1.6586 -1.1533
  622THF    H1210025   4.245   3.699   4.484 -0.1363 -0.2532 -0.7623
  622THF    H1310026   4.417   3.657   4.463 -1.1388 -0.6970  0.0587
  623THF     O110027   0.104   3.280   3.492 -1.1325  0.7025  0.4712
  623THF     C210028   0.224   3.351   3.534 -0.5771 -0.3414 -0.4128
  623THF     C310029  -0.008   3.350   3.553  0.4464  0.1063  0.0081
  623THF     H410030   0.264   3.400   3.445  1.2777 -0.9352  0.0421
  623THF     H510031   0.303   3.290   3.578 -0.1691  0.3598 -0.1567
  623THF     H610032  -0.095   3.354   3.487 -0.3972 -0.4662  1.0449
  623THF     H710033  -0.030   3.287   3.639  1.5451  3.4960  2.9740
  623THF     C810034   0.039   3.482   3.611  0.8806 -0.2925  1.3605
  623THF     C910035   0.185   3.463   3.629 -0.3692  0.4791  0.0481
  623THF    H1010036  -0.004   3.523   3.702 -0.5895 -0.5582  0.8050
  623THF    H1110037   0.026   3.566   3.543  1.2986 -0.6098  0.8772
  623THF    H1210038   0.231   3.553   3.587  1.7120 -0.0481  1.0253
  623THF    H1310039   0.200   3.447   3.736 -0.3155 -1.9443 -0.2670
  624THF     O110040   2.783   2.476   3.512 -0.1796 -0.4572  0.1785
  624THF     C210041   2.768   2.611   3.555  0.0439  0.2724 -0.2497
  624THF     C310042   2.757   2.393   3.625  0.8992 -0.0484  0.0701
  624THF     H410043   2.737   2.668   3.467 -1.4632 -1.1956 -0.7472
  624THF     H510044   2.857   2.657   3.596 -0.3927  1.4389 -0.5590
  624THF     H610045   2.758   2.286   3.605  1.7315  0.1285 -0.8700
  624THF     H710046   2.836   2.412   3.698  0.0182 -0.5373  1.1958
  624THF     C810047   2.628   2.457   3.672 -0.1231 -0.9400 -0.2302
  624THF     C910048   2.655   2.605   3.659  0.1551 -0.4659  0.3936
  624THF    H1010049   2.599   2.429   3.774  1.9881 -0.5453  0.5175
  624THF    H1110050   2.546   2.431   3.605  1.1733  0.1415 -2.3283
  624THF    H1210051   2.572   2.662   3.618  0.0573 -1.3169 -0.6207
  624THF    H1310052   2.692   2.662   3.745  1.2251  2.4587 -1.8431
  625THF     O110053   3.377   0.599   3.617  0.0544  0.4492  0.0973
  625THF     C210054   3.246   0.617   3.665  0.3323 -0.1630  0.4323
  625THF     C310055   3.397   0.713   3.530 -0.2655 -0.0189  0.1463
  625THF     H410056   3.239   0.693   3.743 -1.4463  0.5506 -0.3771
  625THF     H510057   3.210   0.524   3.709  0.9723  0.0626  1.4813
  625THF     H610058   3.421   0.798   3.593  2.0862  0.6731 -1.5382
  625THF     H710059   3.491   0.712   3.474  0.8290 -0.4421  1.9304
  625THF     C810060   3.259   0.729   3.452 -0.5233 -0.2675 -0.3744
  625THF     C910061   3.161   0.662   3.547  0.0711 -0.2884 -0.4496
  625THF    H1010062   3.262   0.668   3.362  0.3948 -1.0963  0.1953
  625THF    H1110063   3.237   0.831   3.422  1.2583  0.1965 -0.2257
  625THF    H1210064   3.078   0.728   3.573  0.1092 -0.7851  1.0428
  625THF    H1310065   3.120   0.571   3.505  0.9548 -1.1898  0.5849
  626THF     O110066   4.769   0.312   3.105  0.0345  0.5146 -0.0764
  626THF     C210067   4.835   0.411   3.026  0.2006  0.7091 -0.0447
  626THF     C310068   4.860   0.200   3.126 -0.4163 -0.1168 -0.2344
  626THF     H410069   4.905   0.471   3.084  0.0692  0.9509 -0.1341
  626THF     H510070   4.769   0.473   2.965 -0.2848 -0.9303 -1.2711
  626THF     H610071   4.906   0.186   3.223  2.0938  0.8003 -1.1983
  626THF     H710072   4.802   0.109   3.106 -0.6382  0.5515 -3.1635
  626THF     C810073   4.975   0.222   3.028  0.3978 -0.7609  0.1917
  626THF     C910074   4.922   0.328   2.938  0.5758 -0.7249  0.0716
  626THF    H1010075   4.997   0.124   2.986 -0.0557 -1.6763  2.0220
  626THF    H1110076   5.071   0.250   3.072 -1.0214 -0.5055  3.3549
  626THF    H1210077   5.008   0.387   2.907  0.8257  0.4311  2.7059
  626THF    H1310078   4.890   0.281   2.845  0.7842 -0.6132 -0.0579
  627THF     O110079   2.692   2.892   4.867 -0.1166  0.2953  0.2582
  627THF     C210080   2.573   2.946   4.801 -0.8157  0.3217 -0.0916
  627THF     C310081   2.656   2.853   4.998 -0.7273 -0.7318  1.0241
  627THF     H410082   2.514   2.855   4.788  1.1075 -0.7090 -2.5410
  627THF     H510083   2.591   2.989   4.702  3.4207 -2.1639 -0.6494
  627THF     H610084   2.616   2.752   4.998 -0.9140 -0.6599  1.2918
  627THF     H710085   2.746   2.853   5.060  0.7342  0.2984 -0.9812
  627THF     C810086   2.553   2.964   5.042 -0.6995 -0.1345 -0.1056
  627THF     C910087   2.526   3.040   4.911  0.6128 -0.6935 -0.6585
  627THF    H1010088   2.596   3.031   5.117 -1.1408 -0.2276  0.2364
  627THF    H1110089   2.459   2.922   5.079 -0.5852  0.2143  0.6069
  627THF    H1210090   2.420   3.063   4.905  1.1988  2.4215 -0.6311
  627THF    H1310091   2.581   3.134   4.916 -1.5275  0.6519 -1.2248
  628THF     O110092   0.274   3.604   0.853  0.2549  0.2589 -0.3098
  628THF     C210093   0.338   3.590   0.974  0.0559  0.4197  0.1797
  628THF     C310094   0.371   3.609   0.749  0.3297  0.3972 -0.3249
  628THF     H410095   0.334   3.487   1.009 -0.1621  0.5971  0.6936
  628THF     H510096   0.289   3.648   1.053 -2.7433 -1.9908  0.3745
  628THF     H610097   0.373   3.507   0.711 -2.6516  0.4765 -0.9442
  628THF     H710098   0.332   3.678   0.675 -2.1911  1.2955  1.7107
  628THF     C810099   0.495   3.668   0.814  0.3111 -0.2260  0.3850
  628THF     C910100   0.487   3.623   0.957 -0.2039 -0.3200 -0.1790
  628THF    H1010101   0.502   3.776   0.800 -0.6031 -0.0517  1.1844
  628THF    H1110102   0.586   3.630   0.767 -0.4936  0.9762 -2.3954
  628THF    H1210103   0.551   3.538   0.984  0.3009  0.4740  1.2546
  628THF    H1310104   0.521   3.701   1.026  0.2685 -0.3689 -0.3514
  629THF     O110105   0.351   5.182   4.996  0.7591  0.9411 -0.3744
  629THF     C210106   0.322   5.066   4.924  0.0465  0.2360 -0.9638
  629THF     C310107   0.439   5.162   5.104  0.0397  0.5630  0.1228
  629THF     H410108   0.322   5.093   4.818 -0.8974 -0.2582 -1.1025
  629THF     H510109   0.230   5.010   4.936  1.0029 -0.8994  1.6359
  629THF     H610110   0.470   5.259   5.143  1.0001  0.5187 -0.4904
  629THF     H710111   0.391   5.114   5.189 -0.4787 -0.5751 -0.7776
  629THF     C810112   0.539   5.059   5.045 -0.0011 -0.2093 -0.0553
  629THF     C910113   0.444   4.979   4.954 -0.2390 -0.5849 -0.1511
  629THF    H1010114   0.578   4.991   5.120  2.1513 -0.2948 -1.1690
  629THF    H1110115   0.617   5.115   4.993  0.7756 -0.6854  0.5738
  629THF    H1210116   0.500   4.952   4.864  0.5332  2.1798 -0.6017
  629THF    H1310117   0.425   4.887   5.009 -0.0290  0.1965  1.2722
  630THF     O110118   2.422   5.045   0.093 -0.3585  0.7973  0.2097
  630THF     C210119   2.307   5.046   0.168 -0.1916 -0.1129  0.3482
  630THF     C310120   2.474   4.910   0.089  0.9287 -0.4477 -0.5364
  630THF     H410121   2.240   5.131   0.164  0.6601  0.5224 -1.1392
  630THF     H510122   2.342   5.039   0.271 -0.9574 -1.4778  0.5475
  630THF     H610123   2.517   4.883  -0.008  0.1714 -1.7294 -0.5407
  630THF     H710124   2.551   4.890   0.164  1.5387 -0.0874 -1.0579
  630THF     C810125   2.344   4.824   0.104 -0.2048  0.6376  0.2241
  630THF     C910126   2.241   4.923   0.138 -0.4955 -0.6183 -0.5077
  630THF    H1010127   2.334   4.749   0.182 -0.6303 -0.8311 -1.1740
  630THF    H1110128   2.310   4.774   0.013 -1.5652 -0.2705  1.2028
  630THF    H1210129   2.188   4.945   0.045 -0.2760 -0.6878 -0.6498
  630THF    H1310130   2.162   4.885   0.203 -0.2006 -1.3955 -0.5896
  631THF     O110131   3.115   5.216   5.062  0.3023  0.1823 -0.2297
  631THF     C210132   3.107   5.073   5.048  1.1330  0.1471  0.7380
  631THF     C310133   2.990   5.282   5.030 -0.2995  0.3923  0.8145
  631THF     H410134   3.134   5.008   5.130 -1.3407  0.3220  1.7927
  631THF     H510135   3.169   5.050   4.961  0.0252 -2.4740  0.5392
  631THF     H610136   2.967   5.365   5.096 -0.6467  0.9320  0.0294
  631THF     H710137   3.002   5.318   4.927 -1.0797 -0.8185  0.2841
  631THF     C810138   2.887   5.170   5.047 -0.6692 -0.2166 -0.9503
  631THF     C910139   2.963   5.046   5.001 -0.5602 -0.2611 -0.5354
  631THF    H1010140   2.790   5.188   5.001 -0.9699 -1.6298 -0.9237
  631THF    H1110141   2.866   5.172   5.154 -0.6290  1.3710 -0.9558
  631THF    H1210142   2.922   4.955   5.045 -1.5975  1.2209  1.7129
  631THF    H1310143   2.960   5.042   4.892  1.4954 -1.3838 -0.6157
  632THF     O110144   2.480   3.597   0.389  0.4190 -0.7169 -0.1292
  632THF     C210145   2.402   3.657   0.495 -0.8299  0.0613 -0.8441
  632THF     C310146   2.618   3.588   0.427  0.2798 -0.0400  0.1652
  632THF     H410147   2.362   3.580   0.561 -1.6705  0.6768 -0.6246
  632THF     H510148   2.316   3.717   0.466 -1.4737 -0.7938 -0.7598
  632THF     H610149   2.643   3.490   0.469 -0.0659  0.3214  1.2614
  632THF     H710150   2.672   3.617   0.337  1.8921 -0.6108  0.9105
  632THF     C810151   2.637   3.693   0.538  0.7626 -0.4873 -0.0362
  632THF     C910152   2.499   3.740   0.579  0.0250 -0.5680 -0.1656
  632THF    H1010153   2.695   3.772   0.491 -1.3200  0.1030 -1.7963
  632THF    H1110154   2.696   3.641   0.612  1.2454  0.2363  0.1014
  632THF    H1210155   2.473   3.729   0.684  0.1332  0.7517  0.0121
  632THF    H1310156   2.484   3.845   0.554 -4.1027 -1.0970 -0.6534
  633THF     O110157   3.259   1.620   3.302 -0.2211 -0.9808 -0.0062
  633THF     C210158   3.200   1.644   3.432 -0.2926  0.7017 -0.2051
  633THF     C310159   3.375   1.700   3.291 -0.6431 -0.4057 -0.3691
  633THF     H410160   3.264   1.591   3.502 -0.4077 -2.1308 -2.0796
  633THF     H510161   3.102   1.600   3.449  0.6770 -0.6770  2.2524
  633THF     H610162   3.472   1.650   3.302 -0.8175 -0.2922  2.2141
  633THF     H710163   3.366   1.746   3.192 -0.9610 -0.4161 -0.3448
  633THF     C810164   3.354   1.816   3.388  0.1109  0.0516  0.0258
  633THF     C910165   3.210   1.797   3.435  0.1170  0.4037 -0.4405
  633THF    H1010166   3.363   1.918   3.349  0.4448 -0.0279 -0.1147
  633THF    H1110167   3.429   1.803   3.466  0.4273 -2.2158 -0.5823
  633THF    H1210168   3.190   1.840   3.533 -1.1381 -0.3871 -0.3278
  633THF    H1310169   3.139   1.845   3.368  0.0222 -0.4441 -0.9705
  634THF     O110170   0.912   0.340   1.783 -0.4989  0.3874  0.6768
  634THF     C210171   0.890   0.467   1.850 -0.0412 -0.2862 -0.4040
  634THF     C310172   0.792   0.270   1.761  0.5602  0.4095 -0.5795
  634THF     H410173   0.854   0.535   1.773  0.8882  0.1376 -0.4774
  634THF     H510174   0.981   0.499   1.901 -0.3498 -0.1013  0.0451
  634THF     H610175   0.753   0.306   1.666 -1.5151  0.8566  0.3680
  634THF     H710176   0.801   0.162   1.767  2.0690  0.5458 -0.1945
  634THF     C810177   0.692   0.333   1.858  0.1727 -0.1458 -0.3300
  634THF     C910178   0.769   0.431   1.947 -0.5051 -0.2989  0.5766
  634THF    H1010179   0.646   0.257   1.921  2.7498 -1.4372  0.1135
  634THF    H1110180   0.618   0.385   1.797  0.7368  2.3444  0.9896
  634THF    H1210181   0.711   0.522   1.963 -0.7034  0.1810 -2.2886
  634THF    H1310182   0.809   0.383   2.036  1.0586 -1.2070 -0.5516
  635THF     O110183   4.529   5.140   3.875  0.0989 -0.2207  0.2613
  635THF     C210184   4.519   5.271   3.813  0.4431 -0.8103 -0.0184
  635THF     C310185   4.487   5.156   4.009 -0.3010  0.1778  0.4793
  635THF     H410186   4.495   5.272   3.707 -3.4528  0.9324  0.6800
  635THF     H510187   4.611   5.323   3.841 -1.4086  2.6905  0.1785
  635THF     H610188   4.460   5.064   4.060 -1.7007  1.4746  2.2308
  635THF     H710189   4.571   5.203   4.061  0.6628 -1.7735  0.7535
  635THF     C810190   4.365   5.252   4.008 -0.1634 -0.6610 -0.2389
  635THF     C910191   4.397   5.341   3.889 -0.3784  0.4775 -0.0943
  635THF    H1010192   4.359   5.307   4.102  2.5351 -1.3916  0.4696
  635THF    H1110193   4.273   5.198   3.987  0.5642 -1.5755 -1.2195
  635THF    H1210194   4.308   5.357   3.828 -0.7486 -3.6318 -0.9355
  635THF    H1310195   4.434   5.443   3.903 -1.2012  0.9099 -0.9245
  636THF     O110196   0.018   3.849   4.462  0.1251 -0.3640  0.6110
  636THF     C210197   0.003   3.738   4.373  0.4881  0.0315  0.0548
  636THF     C310198  -0.065   3.822   4.571 -0.1499  0.7021 -0.3060
  636THF     H410199   0.065   3.658   4.414 -0.5482 -0.3960  0.8412
  636THF     H510200   0.041   3.769   4.276 -0.9128 -2.0203 -1.2170
  636THF     H610201  -0.024   3.737   4.625  0.9092  0.9948 -0.6285
  636THF     H710202  -0.086   3.905   4.639  1.5520 -0.1057  1.2924
  636THF     C810203  -0.191   3.784   4.495 -0.1346 -0.5289 -0.9828
  636THF     C910204  -0.147   3.697   4.379  0.4844  0.3611  0.4828
  636THF    H1010205  -0.238   3.871   4.451  1.1650  1.0820  0.6791
  636THF    H1110206  -0.265   3.733   4.556 -0.8251  0.7285 -0.7619
  636THF    H1210207  -0.163   3.592   4.399  0.3785  0.2028 -0.3697
  636THF    H1310208  -0.200   3.733   4.291  3.4196 -0.0139 -1.5969
  637THF     O110209   1.762   2.276   3.706 -0.6599  0.3392 -0.3521
  637THF     C210210   1.673   2.322   3.800 -0.4245 -0.8742 -0.3685
  637THF     C310211   1.739   2.143   3.683  0.0676 -0.2631  0.0538
  637THF     H410212   1.657   2.430   3.797  2.6274 -0.3226 -0.3436
  637THF     H510213   1.715   2.290   3.895  0.0853  0.5560 -0.0959
  637THF     H610214   1.779   2.100   3.592 -1.2843 -0.3385 -0.5359
  637THF     H710215   1.778   2.094   3.772  1.0694  1.5345  0.6619
  637THF     C810216   1.586   2.130   3.667  0.1706  0.9918 -0.1521
  637THF     C910217   1.544   2.244   3.767  0.5673 -0.0460 -0.6072
  637THF    H1010218   1.565   2.029   3.702  0.8005  1.0903  0.5159
  637THF    H1110219   1.552   2.150   3.565  1.1278  1.8938 -0.3167
  637THF    H1210220   1.468   2.299   3.712 -0.1458 -1.3612 -0.9853
  637THF    H1310221   1.493   2.201   3.853 -0.2969  0.6976 -0.7294
  638THF     O110222   1.791   0.873   3.273  0.2482  0.5103  0.2315
  638THF     C210223   1.815   0.793   3.158 -0.5963 -0.5036 -0.3460
  638THF     C310224   1.865   0.816   3.387  0.4360  0.1640 -0.1577
  638THF     H410225   1.794   0.839   3.062 -2.0036 -0.7457 -0.1744
  638THF     H510226   1.752   0.704   3.162 -0.6452 -0.4449  1.9622
  638THF     H610227   1.878   0.891   3.465  1.3008 -0.1259 -0.0140
  638THF     H710228   1.802   0.738   3.430 -0.4606  1.5606  1.1750
  638THF     C810229   1.988   0.758   3.326  0.6554 -0.6337 -0.4319
  638THF     C910230   1.961   0.760   3.168 -0.2820 -0.5940 -0.5683
  638THF    H1010231   1.998   0.656   3.361 -0.3091 -0.3476  0.7466
  638THF    H1110232   2.073   0.823   3.346 -0.0021  1.3310 -3.2982
  638THF    H1210233   2.018   0.840   3.121 -0.1408 -0.1398  0.3601
  638THF    H1310234   1.992   0.668   3.118  1.8098  0.2911 -1.0055
  639THF     O110235   5.177   0.069   5.464 -0.1123 -0.2653  0.7680
  639THF     C210236   5.309   0.034   5.484  0.1905 -0.0153 -0.0835
  639THF     C310237   5.140  -0.017   5.363  0.0278 -0.1114  0.4455
  639THF     H410238   5.346   0.058   5.584  0.2512  1.9370 -0.5485
  639THF     H510239   5.373   0.084   5.412 -0.2484  1.6200  0.6094
  639THF     H610240   5.032  -0.008   5.346 -0.0639 -1.7131  0.0302
  639THF     H710241   5.192   0.008   5.271  0.4298 -1.2428  0.3452
  639THF     C810242   5.190  -0.158   5.405 -0.1750  0.4365 -0.4553
  639THF     C910243   5.318  -0.118   5.465 -0.2118  0.2832  0.4812
  639THF    H1010244   5.189  -0.236   5.329  1.0023 -1.5644  1.4521
  639THF    H1110245   5.116  -0.201   5.472  0.8711 -1.8800 -0.6597
  639THF    H1210246   5.337  -0.172   5.558  3.5357 -0.2149 -0.4029
  639THF    H1310247   5.406  -0.139   5.403 -0.8225 -0.2641 -0.2186
  640THF     O110248   3.056   3.507   3.694  0.1300 -0.0765  0.5593
  640THF     C210249   3.139   3.392   3.708 -0.3961 -0.2410  0.3441
  640THF     C310250   3.082   3.574   3.571  0.5526 -0.3240  0.3084
  640THF     H410251   3.083   3.322   3.645  1.8472 -2.1447  0.2967
  640THF     H510252   3.140   3.352   3.809 -0.7387  1.1743  0.9258
  640THF     H610253   2.996   3.542   3.511 -0.5608  1.2768  0.9865
  640THF     H710254   3.068   3.682   3.575  0.2728 -0.3649  0.5029
  640THF     C810255   3.218   3.519   3.527 -0.3384 -0.4863 -0.3530
  640THF     C910256   3.270   3.433   3.641 -0.7173 -0.6984  0.8061
  640THF    H1010257   3.284   3.603   3.501 -0.2631 -0.6174 -0.5943
  640THF    H1110258   3.203   3.454   3.441 -0.6434 -0.0238 -0.6533
  640THF    H1210259   3.330   3.350   3.605 -0.8167  0.2557 -1.7787
  640THF    H1310260   3.321   3.486   3.722 -1.6057  1.1539  0.2219
  641THF     O110261   3.296   2.124   3.895 -0.0625  0.6660  0.3277
  641THF     C210262   3.226   2.066   3.787  0.5330  0.0110 -0.3449
  641THF     C310263   3.230   2.067   4.011  0.0110 -0.1172 -0.0278
  641THF     H410264   3.293   2.071   3.701  3.5261 -1.5703  1.6908
  641THF     H510265   3.134   2.116   3.760 -0.1583  0.2870  2.2191
  641THF     H610266   3.282   2.067   4.107 -1.3781 -0.0856  0.7493
  641THF     H710267   3.147   2.133   4.036 -0.4539 -0.7200  0.0684
  641THF     C810268   3.182   1.927   3.971 -0.3189 -0.5150 -0.2192
  641THF     C910269   3.210   1.919   3.827  0.1555 -0.2294  0.4946
  641THF    H1010270   3.081   1.895   3.994 -0.3034 -0.6737 -0.3685
  641THF    H1110271   3.239   1.847   4.017 -2.6782 -0.4662  3.0937
  641THF    H1210272   3.297   1.858   3.806  1.2015  1.9836 -2.3352
  641THF    H1310273   3.130   1.874   3.768  0.7981 -2.5732  1.3292
  642THF     O110274   3.811   0.835   2.330 -0.5601  0.3840  0.1150
  642THF     C210275   3.805   0.974   2.309  0.4194  0.0267 -0.3322
  642THF     C310276   3.877   0.820   2.455  0.0844 -0.1332 -0.4375
  642THF     H410277   3.722   1.013   2.368  0.7879 -1.5316  1.3144
  642THF     H510278   3.771   0.994   2.208 -0.0208  1.0924  0.0109
  642THF     H610279   3.800   0.820   2.532  2.4203  1.4012  2.1070
  642THF     H710280   3.941   0.732   2.460 -1.0888 -1.0858 -1.5361
  642THF     C810281   3.956   0.951   2.482  0.4517  0.2758  0.5751
  642THF     C910282   3.940   1.032   2.347  0.5405  0.2288 -0.3786
  642THF    H1010283   4.060   0.923   2.496  0.7270  0.7031 -0.4780
  642THF    H1110284   3.913   1.012   2.562 -0.0607  0.6550  0.0252
  642THF    H1210285   3.940   1.138   2.369  2.3308 -0.1387  1.7072
  642THF    H1310286   4.022   1.007   2.280 -0.4410  0.8850 -1.8805
  643THF     O110287   4.844   1.642   2.108  0.3144  0.0430 -0.3199
  643THF     C210288   4.795   1.760   2.050  0.6235  0.2838 -0.3938
  643THF     C310289   4.736   1.578   2.167  0.1562  0.5535 -0.8331
  643THF     H410290   4.765   1.752   1.946  0.7413  2.4770 -0.6570
  643THF     H510291   4.872   1.837   2.057 -1.0029  2.0859 -1.1917
  643THF     H610292   4.686   1.513   2.096  0.6718  0.4157 -1.0760
  643THF     H710293   4.766   1.534   2.262  1.9777  2.0656 -0.6330
  643THF     C810294   4.647   1.687   2.210 -0.7089 -0.0744 -0.2840
  643THF     C910295   4.667   1.804   2.119  0.0874  0.4627  0.7031
  643THF    H1010296   4.678   1.720   2.309  2.1697 -0.0052 -1.1444
  643THF    H1110297   4.541   1.661   2.221 -0.8000  0.8037  1.2949
  643THF    H1210298   4.589   1.834   2.049  1.3796  0.2660 -0.8788
  643THF    H1310299   4.677   1.894   2.178 -2.6161 -0.5418  2.9217
  644THF     O110300   2.770   4.199   1.755 -0.3907  0.1383  0.3205
  644THF     C210301   2.763   4.303   1.850 -0.6095  0.5610  0.2363
  644THF     C310302   2.636   4.168   1.708 -0.0685  0.1227  0.1329
  644THF     H410303   2.747   4.396   1.796 -0.1248  0.7637  0.4464
  644THF     H510304   2.845   4.294   1.920  0.4156 -2.2142 -1.1698
  644THF     H610305   2.607   4.244   1.636 -1.1427 -2.1497 -1.9923
  644THF     H710306   2.618   4.069   1.665  1.3138  0.2563 -0.8230
  644THF     C810307   2.552   4.175   1.834  1.1548 -0.3147 -0.1943
  644THF     C910308   2.626   4.277   1.922 -0.3524 -0.4054  0.0059
  644THF    H1010309   2.558   4.084   1.893  0.4526  0.6679  1.4540
  644THF    H1110310   2.447   4.194   1.816  0.9354 -1.7689 -0.5035
  644THF    H1210311   2.578   4.374   1.934  0.7795  0.1920 -0.1449
  644THF    H1310312   2.632   4.239   2.024  3.0767  0.4964  0.2643
  645THF     O110313   2.366   2.725   2.095  0.2850  0.0883  0.2887
  645THF     C210314   2.274   2.827   2.128 -0.5444  0.1857  0.8345
  645THF     C310315   2.343   2.615   2.175  0.0429 -0.3257  0.2361
  645THF     H410316   2.182   2.827   2.069  1.1211  0.0075 -1.9424
  645THF     H510317   2.318   2.925   2.108  0.5757 -0.7518 -1.8494
  645THF     H610318   2.308   2.525   2.124  1.0821 -0.2278 -0.6769
  645THF     H710319   2.437   2.582   2.219 -0.1032 -1.5092 -0.3041
  645THF     C810320   2.249   2.659   2.293  0.1334 -0.1081  0.1478
  645THF     C910321   2.253   2.816   2.280 -0.0551  0.4689  0.6595
  645THF    H1010322   2.276   2.608   2.385 -1.5707  0.1394  0.8117
  645THF    H1110323   2.150   2.622   2.269 -1.3995  1.5954  3.2543
  645THF    H1210324   2.160   2.859   2.317 -0.4350 -0.6421  1.0255
  645THF    H1310325   2.343   2.857   2.325  1.1163 -0.4941 -0.7474
  646THF     O110326   1.588   3.918   0.564  0.3844  0.0318  0.9361
  646THF     C210327   1.468   3.964   0.623 -0.6266  0.3899  0.5183
  646THF     C310328   1.607   3.786   0.616 -0.1365  0.4519  0.3192
  646THF     H410329   1.383   3.910   0.580  0.9899 -1.2986 -0.7024
  646THF     H510330   1.458   4.070   0.603  0.2429  0.1089 -1.6700
  646THF     H610331   1.531   3.718   0.576  1.2699 -1.6897  1.1034
  646THF     H710332   1.703   3.748   0.582  0.4023 -0.3461  2.5145
  646THF     C810333   1.594   3.817   0.765  0.2042 -0.1403 -0.1222
  646THF     C910334   1.480   3.920   0.765 -0.1855 -0.3553  0.1540
  646THF    H1010335   1.683   3.868   0.801  0.9223 -0.9942 -0.6646
  646THF    H1110336   1.588   3.730   0.830 -0.0409 -0.6672 -0.8405
  646THF    H1210337   1.385   3.888   0.808  0.1926 -0.5710  0.8491
  646THF    H1310338   1.522   3.997   0.831  1.5244  0.2020 -1.4859
  647THF     O110339   0.889   5.165   4.670 -0.3713  0.3994  0.0513
  647THF     C210340   0.912   5.209   4.800  0.1156 -0.9668  0.1209
  647THF     C310341   0.969   5.044   4.658 -0.3047 -0.0232  0.0756
  647THF     H410342   0.828   5.273   4.827 -0.5422 -1.7511 -0.0147
  647THF     H510343   1.002   5.270   4.809 -1.4473  1.4405  0.4612
  647THF     H610344   0.944   4.976   4.576 -2.0971 -0.5486  1.0190
  647THF     H710345   1.071   5.078   4.638 -0.3823  0.3353  0.2982
  647THF     C810346   0.963   4.975   4.800 -0.7785  0.7499  0.9780
  647THF     C910347   0.908   5.089   4.886 -0.1362  0.4958 -0.1186
  647THF    H1010348   1.064   4.952   4.835 -0.9683 -2.1006 -0.0715
  647THF    H1110349   0.912   4.879   4.797  1.7068 -0.6244 -1.0648
  647THF    H1210350   0.807   5.053   4.904 -0.8043  2.3332  0.0784
  647THF    H1310351   0.967   5.091   4.978 -0.7466 -1.2379  0.3465
  648THF     O110352   2.179   2.642   5.326 -0.3167  0.0809  0.0022
  648THF     C210353   2.035   2.636   5.342  0.4777 -0.3321  0.0477
  648THF     C310354   2.237   2.563   5.429  0.2445  0.4950 -0.4608
  648THF     H410355   1.982   2.676   5.256 -0.6355  1.2617  1.4096
  648THF     H510356   2.008   2.690   5.432  0.0641  1.6838 -1.2187
  648THF     H610357   2.336   2.531   5.397 -0.8279 -2.1611 -1.3839
  648THF     H710358   2.245   2.629   5.515 -2.8921 -0.2470  0.5446
  648THF     C810359   2.147   2.441   5.437 -0.0464  0.2985  0.3247
  648THF     C910360   2.017   2.491   5.369 -0.0196  0.6083  0.6081
  648THF    H1010361   2.131   2.405   5.539 -1.8204  0.1053  0.0197
  648THF    H1110362   2.192   2.363   5.375 -1.4094 -0.1468 -0.1503
  648THF    H1210363   2.001   2.445   5.272 -0.6311 -0.4924  1.2212
  648THF    H1310364   1.934   2.461   5.433 -0.4739 -0.9901 -0.6659
  649THF     O110365   1.950   4.478   4.601  0.3007 -0.0714 -0.6139
  649THF     C210366   1.952   4.615   4.630 -0.3447  0.3463 -0.6582
  649THF     C310367   1.843   4.424   4.674  0.8088 -0.5386 -0.1770
  649THF     H410368   1.993   4.661   4.541 -0.0601  1.1127 -0.1387
  649THF     H510369   2.016   4.628   4.717 -2.4015 -0.7302  1.1075
  649THF     H610370   1.801   4.330   4.637 -0.0652 -0.0046 -0.5717
  649THF     H710371   1.868   4.418   4.780  0.2928  2.4014  0.1988
  649THF     C810372   1.731   4.535   4.655  0.4622  0.7815  0.2207
  649THF     C910373   1.810   4.664   4.660  0.1897  0.0668 -0.1672
  649THF    H1010374   1.654   4.531   4.732  1.0716  1.8822  0.9272
  649THF    H1110375   1.682   4.520   4.559 -1.8249 -1.1966  1.5774
  649THF    H1210376   1.776   4.743   4.593  0.9572 -1.6700 -2.7243
  649THF    H1310377   1.797   4.687   4.766 -0.0006 -2.8076  0.5140
  650THF     O110378   2.945   1.865   4.960 -0.3396 -0.1577 -0.3115
  650THF     C210379   2.993   1.986   5.011  0.1814  0.1121  0.3002
  650THF     C310380   3.057   1.802   4.899  0.5030  0.1768  0.5282
  650THF     H410381   2.934   2.041   5.084 -2.0490 -1.1436 -0.4744
  650THF     H510382   3.007   2.062   4.935 -0.0551  1.0406  1.1681
  650THF     H610383   3.059   1.696   4.924 -2.1618  0.0557  0.5050
  650THF     H710384   3.043   1.802   4.791 -0.4321  0.1246  0.6432
  650THF     C810385   3.188   1.866   4.951 -0.3341 -0.7109  0.0970
  650THF     C910386   3.127   1.952   5.062 -0.2688  0.7045 -0.0128
  650THF    H1010387   3.231   1.918   4.866 -0.0394 -0.6693  0.2709
  650THF    H1110388   3.254   1.791   4.994 -0.3224 -1.3100 -0.9069
  650THF    H1210389   3.097   1.900   5.153 -2.0919  1.5556 -0.0828
  650THF    H1310390   3.179   2.045   5.082  0.4110  0.0816  1.2705
  651THF     O110391   4.285   2.102   3.149  0.1000 -0.2257 -0.1810
  651THF     C210392   4.148   2.057   3.112  0.3287  0.0417  0.0929
  651THF     C310393   4.344   2.140   3.032  0.0507  0.1434  0.6388
  651THF     H410394   4.092   2.151   3.109  0.4399  0.0841 -1.4343
  651THF     H510395   4.111   1.985   3.185  0.0933 -0.5799 -0.6303
  651THF     H610396   4.322   2.237   2.986  0.4260 -0.8653 -1.8216
  651THF     H710397   4.450   2.134   3.058  0.1846 -1.1117 -0.1442
  651THF     C810398   4.298   2.044   2.924  0.3157 -0.1415  0.2660
  651THF     C910399   4.159   2.005   2.970  0.1256  0.2083 -0.5439
  651THF    H1010400   4.352   1.950   2.918 -0.7955 -0.8249  0.5338
  651THF    H1110401   4.302   2.088   2.824 -0.5638 -2.1390 -0.6955
  651THF    H1210402   4.088   2.052   2.901 -0.3161 -0.2948 -0.4361
  651THF    H1310403   4.153   1.896   2.967 -0.1504  0.1984  0.2471
  652THF     O110404   4.908   2.803   3.145  0.5899  0.0387 -0.5013
  652THF     C210405   4.970   2.681   3.133  0.0025 -0.2032 -0.2257
  652THF     C310406   4.954   2.869   3.267 -0.3869 -0.7067 -0.0024
  652THF     H410407   5.064   2.687   3.078 -0.5547  2.7972 -1.0142
  652THF     H510408   4.904   2.618   3.073 -1.1658  1.8296 -1.1839
  652THF     H610409   5.030   2.944   3.246 -2.0419  0.7496 -1.0430
  652THF     H710410   4.874   2.919   3.321 -0.1527  0.4125 -0.6869
  652THF     C810411   5.028   2.762   3.355  0.1601 -0.0463  0.5455
  652THF     C910412   5.002   2.633   3.278 -0.1845 -0.7649 -0.1397
  652THF    H1010413   5.000   2.745   3.459 -0.5709  0.2009  0.3963
  652THF    H1110414   5.132   2.792   3.347  0.9359 -2.9292 -2.1700
  652THF    H1210415   5.091   2.571   3.275  0.4839  0.1926 -0.5352
  652THF    H1310416   4.912   2.588   3.320  1.0783 -3.1127  0.1713
  653THF     O110417   1.381   0.161   3.672  0.2871 -0.1808  0.3981
  653THF     C210418   1.250   0.115   3.646  0.2347 -0.5917 -0.1953
  653THF     C310419   1.383   0.279   3.744 -0.1665  0.5062 -0.3357
  653THF     H410420   1.202   0.073   3.734 -0.1326 -1.3444 -0.7432
  653THF     H510421   1.231   0.047   3.563 -1.5659 -2.2245  1.4531
  653THF     H610422   1.410   0.270   3.849 -1.8383  1.0550  0.1717
  653THF     H710423   1.459   0.349   3.711 -0.0358  0.1604 -0.7752
  653THF     C810424   1.244   0.337   3.718 -0.1012 -0.0544  0.3657
  653THF     C910425   1.180   0.245   3.614  0.2631  0.3112  0.0024
  653THF    H1010426   1.262   0.437   3.679  0.3541 -0.0347  0.6203
  653THF    H1110427   1.179   0.351   3.805  1.4915  0.5684  1.5014
  653THF    H1210428   1.072   0.247   3.629  0.1019  1.3439 -1.2232
  653THF    H1310429   1.190   0.287   3.514 -3.4272  0.5338 -0.4027
  654THF     O110430   1.213   4.926   0.239  0.0613 -0.2746 -0.2439
  654THF     C210431   1.286   5.015   0.330 -0.1705 -0.1976  0.5621
  654THF     C310432   1.209   4.983   0.113 -0.0537 -0.4680  0.2427
  654THF     H410433   1.377   4.972   0.371  0.2359  0.2017  0.1004
  654THF     H510434   1.226   5.023   0.420  0.4418  0.7222  0.9035
  654THF     H610435   1.304   4.962   0.064  0.6040 -2.0744  2.0622
  654THF     H710436   1.125   4.957   0.050 -0.3854  1.0811  0.0120
  654THF     C810437   1.208   5.132   0.141 -0.3170  0.2944  0.5015
  654THF     C910438   1.310   5.146   0.254 -0.2667  0.3571  0.3450
  654THF    H1010439   1.109   5.170   0.165 -0.0950  3.0026 -2.3221
  654THF    H1110440   1.231   5.198   0.058  0.6909  2.2028  2.2014
  654THF    H1210441   1.413   5.156   0.219  0.0223  2.1931  1.5959
  654THF    H1310442   1.295   5.239   0.308 -1.4444  0.3058  0.1316
  655THF     O110443   1.009   1.177   5.134 -0.1658 -0.0132 -0.3249
  655THF     C210444   1.071   1.133   5.255 -0.7544 -0.7103  0.0767
  655THF     C310445   0.942   1.295   5.169 -0.5826  0.3997  0.2642
  655THF     H410446   1.161   1.194   5.258 -1.4389  0.4741 -1.5398
  655THF     H510447   1.109   1.031   5.256  2.6879  0.4490 -0.0714
  655THF     H610448   1.018   1.373   5.179  2.2166 -2.1301  0.0550
  655THF     H710449   0.865   1.327   5.099 -0.5325  0.4437  0.2293
  655THF     C810450   0.878   1.265   5.302  0.0673  0.9448  1.2391
  655THF     C910451   0.982   1.174   5.374  0.2029 -0.6658  0.2147
  655THF    H1010452   0.782   1.220   5.276  1.0606 -0.2629 -0.5276
  655THF    H1110453   0.856   1.351   5.365  1.5791  0.6694  2.1749
  655THF    H1210454   1.028   1.236   5.451  0.9613  1.2943 -1.7128
  655THF    H1310455   0.941   1.086   5.423 -0.4568 -0.6887 -0.3505
  656THF     O110456   1.394   4.114   5.451 -0.0862  0.1557 -0.0563
  656THF     C210457   1.331   4.117   5.581  0.9843 -0.0098  0.1034
  656THF     C310458   1.471   3.995   5.451  0.4101  0.5782  0.5288
  656THF     H410459   1.226   4.095   5.561  1.4445 -1.0374 -1.3612
  656THF     H510460   1.347   4.214   5.629  0.1843  0.8978 -1.3748
  656THF     H610461   1.416   3.914   5.403  0.9391  0.4846  0.0701
  656THF     H710462   1.557   4.000   5.384  0.9051 -0.2713  1.0885
  656THF     C810463   1.510   3.963   5.594 -0.0068  1.2946  0.2340
  656THF     C910464   1.383   3.999   5.670 -0.6094 -0.3952 -0.0767
  656THF    H1010465   1.584   4.031   5.635  1.5841 -0.8022  1.0304
  656THF    H1110466   1.552   3.863   5.605 -0.0209  1.1283 -1.0029
  656THF    H1210467   1.307   3.922   5.656 -2.1790  1.0564  0.1008
  656THF    H1310468   1.396   4.023   5.776  1.0308 -0.5690 -0.2125
  657THF     O110469   0.569   4.488   2.649 -0.5319  0.1380  0.1720
  657THF     C210470   0.536   4.570   2.757  0.1937 -0.0353 -0.2654
  657THF     C310471   0.483   4.516   2.546 -0.2172 -0.7960  0.4813
  657THF     H410472   0.631   4.618   2.781  1.0963 -1.6850 -0.4094
  657THF     H510473   0.514   4.503   2.840 -1.8134  0.5084 -0.3150
  657THF     H610474   0.528   4.491   2.449 -2.0425  1.0382 -0.9215
  657THF     H710475   0.389   4.462   2.556 -0.0002 -1.4548 -0.7463
  657THF     C810476   0.442   4.661   2.564 -0.0660  0.2622  0.9270
  657THF     C910477   0.425   4.659   2.718  0.0229 -0.1679  0.8939
  657THF    H1010478   0.349   4.691   2.516  0.1851  0.9440  0.8536
  657THF    H1110479   0.530   4.720   2.541  0.8320 -0.7531  1.6561
  657THF    H1210480   0.441   4.761   2.754  0.3574  0.2416 -0.3543
  657THF    H1310481   0.329   4.618   2.747 -0.5828 -0.6729 -1.5785
  658THF     O110482   3.405   1.091   3.603  0.0328 -0.1760 -0.0308
  658THF     C210483   3.436   1.215   3.667 -0.3239  0.6610 -0.4025
  658THF     C310484   3.287   1.112   3.539 -0.0193  0.3954 -0.1860
  658THF     H410485   3.541   1.218   3.692 -0.4750  3.5365  0.2277
  658THF     H510486   3.387   1.219   3.765  0.6760  2.5275  0.0638
  658THF     H610487   3.264   1.035   3.465 -0.6631 -1.0420  1.4432
  658THF     H710488   3.203   1.106   3.608 -0.2734  0.0141 -0.5267
  658THF     C810489   3.318   1.241   3.473  0.0921  0.0216  0.5938
  658THF     C910490   3.388   1.330   3.578  0.2432  0.8314 -0.4631
  658THF    H1010491   3.228   1.289   3.435 -1.1858 -1.5180  1.5336
  658THF    H1110492   3.395   1.223   3.398  1.9899 -0.2555  2.5159
  658THF    H1210493   3.464   1.391   3.529  0.7659  1.0034  0.5465
  658THF    H1310494   3.321   1.385   3.644 -1.5592 -2.0846  0.3294
  659THF     O110495   4.815   4.343   5.410  0.3996  0.2181 -0.3262
  659THF     C210496   4.757   4.345   5.543 -0.2493  0.2037 -0.7918
  659THF     C310497   4.952   4.369   5.432  0.2170 -0.5306  0.5181
  659THF     H410498   4.683   4.264   5.540 -0.3033  0.0635  1.6595
  659THF     H510499   4.705   4.439   5.559 -0.9565 -0.1778 -0.7888
  659THF     H610500   4.998   4.336   5.338  1.9120  0.9500  0.7907
  659THF     H710501   4.963   4.477   5.437  0.5784 -0.3504 -2.2418
  659THF     C810502   4.991   4.293   5.557 -0.2754  0.1426  0.2255
  659THF     C910503   4.871   4.325   5.642 -0.2248 -0.1225 -0.4169
  659THF    H1010504   5.081   4.342   5.594  0.2209 -0.8937  0.4166
  659THF    H1110505   5.008   4.188   5.534 -1.8770  0.5059 -3.2537
  659THF    H1210506   4.851   4.235   5.700 -0.9147 -0.3627 -1.0158
  659THF    H1310507   4.898   4.404   5.712 -1.4192 -0.1784  0.1345
  660THF     O110508   0.246   0.079   2.527 -0.1038 -0.1406  0.1040
  660THF     C210509   0.343   0.012   2.448 -0.1132  0.5005  0.5777
  660THF     C310510   0.157   0.140   2.431 -0.0283  0.2286  0.2275
  660THF     H410511   0.404  -0.054   2.510  0.2715  0.8357  0.5601
  660THF     H510512   0.413   0.083   2.403 -1.3463  1.0160 -0.6013
  660THF     H610513   0.070   0.191   2.472 -0.8784 -1.3805  0.5326
  660THF     H710514   0.209   0.212   2.368 -0.0037  2.0012  2.1633
  660THF     C810515   0.130   0.016   2.342 -0.1418  1.0129 -0.5978
  660THF     C910516   0.259  -0.062   2.349  0.3298 -0.6130  0.0546
  660THF    H1010517   0.103   0.041   2.240  1.3801  1.5600 -0.8783
  660THF    H1110518   0.043  -0.046   2.368  0.7205 -0.5387 -1.2673
  660THF    H1210519   0.242  -0.162   2.387  0.0458 -0.9195 -0.8587
  660THF    H1310520   0.319  -0.059   2.258 -0.2061  1.5447 -0.2893
  661THF     O110521   1.341   3.053   0.081 -0.0505 -0.1838 -0.2942
  661THF     C210522   1.427   3.152   0.129  0.5051 -0.6192  0.3679
  661THF     C310523   1.420   2.932   0.090 -0.0100 -0.4423 -0.0004
  661THF     H410524   1.372   3.246   0.140  2.6577  0.7316  0.2935
  661THF     H510525   1.498   3.159   0.047 -0.4390  0.1666 -0.3926
  661THF     H610526   1.361   2.841   0.101 -0.4127 -0.1572  0.2148
  661THF     H710527   1.464   2.918  -0.009  1.0918 -1.0748  0.5558
  661THF     C810528   1.526   2.956   0.197 -0.4567  1.0100 -0.1382
  661THF     C910529   1.504   3.094   0.245 -0.0077  0.2955 -0.7098
  661THF    H1010530   1.627   2.941   0.158 -0.9376 -0.7542 -0.8031
  661THF    H1110531   1.524   2.886   0.280 -1.5391  0.1935 -0.8250
  661THF    H1210532   1.438   3.088   0.332 -0.0419 -1.1357 -0.8191
  661THF    H1310533   1.591   3.153   0.273 -1.2281  0.7560  2.5816
  662THF     O110534   2.081   2.891   3.038 -0.5899  0.3024 -0.3797
  662THF     C210535   2.071   3.027   3.066  0.5242  0.2593  0.5655
  662THF     C310536   1.947   2.827   3.050 -0.5463 -0.2507  0.0552
  662THF     H410537   2.019   3.073   2.981 -2.0200  0.6417  2.2198
  662THF     H510538   2.170   3.068   3.084  0.6549 -0.0763  0.6037
  662THF     H610539   1.901   2.838   2.952  0.6102  2.4556 -0.2583
  662THF     H710540   1.938   2.721   3.076  0.5764  0.0664  1.9186
  662THF     C810541   1.875   2.920   3.149 -0.1064  0.1859 -0.5151
  662THF     C910542   1.984   3.018   3.193  0.3301  0.9331 -0.2805
  662THF    H1010543   1.831   2.868   3.234  0.9370  0.3664  0.1522
  662THF    H1110544   1.799   2.979   3.096  1.4951 -0.2517 -3.5075
  662THF    H1210545   1.936   3.112   3.219 -0.1878  0.2903  1.2037
  662THF    H1310546   2.042   2.974   3.274  1.3376  2.3893 -0.1604
  663THF     O110547   1.714   3.485   1.606 -0.4802  0.0216  0.0718
  663THF     C210548   1.696   3.437   1.738  0.4104 -0.3409 -0.1407
  663THF     C310549   1.788   3.604   1.609 -0.7616  0.0151 -0.4915
  663THF     H410550   1.698   3.329   1.750  3.6385 -0.4078 -0.2440
  663THF     H510551   1.613   3.490   1.785  1.5150  0.5396  0.9101
  663THF     H610552   1.839   3.636   1.518  1.1149 -0.0347  0.4838
  663THF     H710553   1.716   3.683   1.631 -0.0900  0.3565  0.5583
  663THF     C810554   1.880   3.595   1.733 -0.3828  0.2671 -0.0360
  663THF     C910555   1.822   3.481   1.807  0.4985  0.1298  0.1296
  663THF    H1010556   1.882   3.687   1.791 -0.2572  1.3809 -1.7234
  663THF    H1110557   1.978   3.564   1.696 -0.3236 -0.9989  1.1379
  663THF    H1210558   1.887   3.393   1.807  0.0750 -0.2020  1.3061
  663THF    H1310559   1.798   3.503   1.911 -0.2095 -1.0922  0.2445
  664THF     O110560   4.039   0.729   2.757  0.9792 -0.6063 -0.4294
  664THF     C210561   4.078   0.609   2.829 -0.5448 -0.0980 -0.3898
  664THF     C310562   4.154   0.810   2.768  0.3712  0.1965 -0.4043
  664THF     H410563   4.015   0.520   2.820 -0.1380 -0.4914  0.5124
  664THF     H510564   4.075   0.626   2.936 -2.4238  0.0171 -0.4276
  664THF     H610565   4.146   0.900   2.706  0.9320 -0.2126 -1.0894
  664THF     H710566   4.161   0.847   2.870 -3.9298  0.9365 -0.1942
  664THF     C810567   4.273   0.719   2.738  0.4799 -0.0840  0.2229
  664THF     C910568   4.226   0.586   2.789  0.1971 -0.0874 -0.1685
  664THF    H1010569   4.344   0.760   2.809  0.2470  0.1108  0.3435
  664THF    H1110570   4.295   0.728   2.632 -1.8424  0.7192 -0.2647
  664THF    H1210571   4.222   0.513   2.708 -1.3250 -0.8022  0.5119
  664THF    H1310572   4.282   0.549   2.874 -0.5287 -2.3388 -0.6077
  665THF     O110573   0.579   4.420   3.589 -0.0552 -0.1497 -0.3181
  665THF     C210574   0.511   4.389   3.469 -0.2710 -0.1922 -0.0749
  665THF     C310575   0.504   4.507   3.663 -0.2657  0.0119 -0.0297
  665THF     H410576   0.445   4.305   3.489 -1.2052  0.7851  1.0715
  665THF     H510577   0.580   4.358   3.390 -1.7664  0.8808 -1.8856
  665THF     H610578   0.425   4.447   3.710  0.3040 -0.6983  0.0403
  665THF     H710579   0.569   4.541   3.744  1.3738 -0.6720 -1.0204
  665THF     C810580   0.457   4.609   3.564 -0.0860  0.0718 -0.1312
  665THF     C910581   0.437   4.518   3.442  0.1300 -0.8970  0.2565
  665THF    H1010582   0.539   4.670   3.525 -0.2111  1.5867  1.8096
  665THF    H1110583   0.368   4.662   3.599  0.8556  1.3535  0.4449
  665THF    H1210584   0.333   4.490   3.427 -0.0422 -1.7448  2.6486
  665THF    H1310585   0.477   4.561   3.350 -1.3443 -1.7722 -0.8502
  666THF     O110586   1.104   3.390   4.632  0.5369 -0.4155  0.1593
  666THF     C210587   1.160   3.362   4.762 -0.5987  0.5232 -0.6236
  666THF     C310588   1.131   3.525   4.616 -0.1134 -0.2780  0.2702
  666THF     H410589   1.129   3.261   4.785 -2.1238  1.4064  1.5138
  666THF     H510590   1.111   3.417   4.843 -1.8649  0.4092 -1.2859
  666THF     H610591   1.121   3.557   4.512 -1.1262  1.2940  0.7985
  666THF     H710592   1.066   3.589   4.676 -1.1162  0.4396 -1.4985
  666THF     C810593   1.276   3.541   4.668 -1.1622 -0.2937  0.0291
  666THF     C910594   1.301   3.410   4.748  0.0673 -0.0561  0.2565
  666THF    H1010595   1.300   3.632   4.722  0.1446 -0.8655  0.4516
  666THF    H1110596   1.347   3.538   4.586  1.0560  1.8859  1.7267
  666THF    H1210597   1.358   3.335   4.694  0.6164 -0.5744  1.5042
  666THF    H1310598   1.351   3.420   4.844  2.6897 -0.3570 -1.0058
  667THF     O110599   3.613   2.931   3.551  0.1355  0.0345 -0.2778
  667THF     C210600   3.604   3.052   3.630 -0.7084 -0.0532 -0.2404
  667THF     C310601   3.503   2.845   3.576  0.2445 -0.3856 -0.4775
  667THF     H410602   3.636   3.140   3.574  0.6323 -0.8526 -0.7454
  667THF     H510603   3.667   3.045   3.718  0.3347  0.9725 -0.8767
  667THF     H610604   3.453   2.801   3.490 -4.3943  1.5069  0.9258
  667THF     H710605   3.547   2.763   3.632  1.8576  0.2528 -0.7686
  667THF     C810606   3.403   2.925   3.652  0.5464 -0.2733 -0.3799
  667THF     C910607   3.452   3.066   3.654 -0.9991  0.1025  0.3462
  667THF    H1010608   3.407   2.889   3.755 -0.5080  1.9323  0.5134
  667THF    H1110609   3.303   2.916   3.611 -0.2671  0.3240  1.4019
  667THF    H1210610   3.401   3.116   3.571 -1.4652  1.8329  1.6236
  667THF    H1310611   3.430   3.133   3.737 -1.0727  1.9794 -1.1141
  668THF     O110612   3.623   2.185   4.279 -0.6297  0.0014  0.1976
  668THF     C210613   3.664   2.225   4.155  0.2023 -0.2817  0.8649
  668THF     C310614   3.482   2.199   4.297  0.8980 -0.4479 -0.3603
  668THF     H410615   3.680   2.141   4.087 -2.2935  0.9847 -1.4970
  668THF     H510616   3.747   2.296   4.150 -1.0879  1.4376  2.3314
  668THF     H610617   3.441   2.103   4.264  1.6179 -1.6270  1.9852
  668THF     H710618   3.460   2.209   4.403  1.3999  0.7361 -0.3520
  668THF     C810619   3.444   2.321   4.210 -0.0479  0.5219  0.4307
  668THF     C910620   3.548   2.308   4.100 -0.3153 -0.5675  0.3452
  668THF    H1010621   3.445   2.414   4.267  0.1530 -0.6081  2.3430
  668THF    H1110622   3.341   2.310   4.175  0.3371 -1.1631 -0.2543
  668THF    H1210623   3.504   2.263   4.011 -1.2279  2.4691 -0.8773
  668THF    H1310624   3.590   2.403   4.068 -0.5726  0.1704  2.0861
  669THF     O110625   5.255   0.164   2.117 -0.0850 -0.3646  0.3637
  669THF     C210626   5.161   0.220   2.023 -0.7343  0.1457  0.1214
  669THF     C310627   5.316   0.258   2.201  0.3222  0.3561 -0.3295
  669THF     H410628   5.080   0.147   2.020  0.3086 -1.0819  0.8726
  669THF     H510629   5.205   0.234   1.925 -0.9135  1.0952  0.1628
  669THF     H610630   5.302   0.245   2.308 -0.9606  1.4637 -0.3329
  669THF     H710631   5.422   0.241   2.184  0.2740  1.5565 -2.1730
  669THF     C810632   5.255   0.389   2.162  0.3320  0.1538  0.3576
  669THF     C910633   5.125   0.351   2.094 -0.3440 -0.0611  0.3869
  669THF    H1010634   5.318   0.433   2.084  0.4793 -2.1662 -0.9113
  669THF    H1110635   5.240   0.449   2.252  1.7681  1.4987 -0.2472
  669THF    H1210636   5.044   0.329   2.163 -0.7241 -0.0992 -0.0685
  669THF    H1310637   5.096   0.433   2.028 -0.4157  0.0587  0.5663
  670THF     O110638   1.032   3.512   0.104 -0.5491  0.5535 -0.6334
  670THF     C210639   1.141   3.492   0.186 -0.2732  0.7422  0.4572
  670THF     C310640   1.067   3.467  -0.023 -0.0315  0.3360  0.2775
  670THF     H410641   1.160   3.388   0.210  2.5103  1.2578  0.8519
  670THF     H510642   1.135   3.544   0.282 -0.4334  1.6649 -0.0360
  670THF     H610643   1.083   3.359  -0.030  2.3770  0.6709 -0.0031
  670THF     H710644   0.995   3.490  -0.102  1.3468  1.8873 -0.5758
  670THF     C810645   1.205   3.535  -0.046 -0.5322 -0.0726 -0.1953
  670THF     C910646   1.257   3.543   0.101 -0.3666  0.6981  0.2699
  670THF    H1010647   1.208   3.632  -0.096 -0.9755  1.1836  2.0618
  670THF    H1110648   1.277   3.466  -0.090 -2.3179 -2.3930  0.3208
  670THF    H1210649   1.353   3.492   0.113 -0.5054  0.4317  0.2582
  670THF    H1310650   1.290   3.645   0.119 -1.4702  0.9382  1.0549
  671THF     O110651   5.053   3.121   4.563  0.1355  0.4779 -0.5040
  671THF     C210652   4.945   3.112   4.468 -0.0447 -0.8300  0.1029
  671THF     C310653   5.008   3.217   4.655 -0.6797 -0.3865  0.0610
  671THF     H410654   4.861   3.051   4.501  0.0282 -1.1752 -0.3304
  671THF     H510655   4.981   3.073   4.372 -1.5059  0.5603 -1.0696
  671THF     H610656   4.925   3.173   4.710  0.2273 -0.8808  1.0461
  671THF     H710657   5.083   3.243   4.729 -2.3498  1.6625  1.1779
  671THF     C810658   4.957   3.333   4.566 -0.7755  0.2255 -0.4427
  671THF     C910659   4.901   3.260   4.452 -0.0843 -0.1490  0.1250
  671THF    H1010660   5.042   3.395   4.537  1.0264 -0.4822  2.8757
  671THF    H1110661   4.882   3.389   4.622  0.3883  0.1508  1.2529
  671THF    H1210662   4.793   3.254   4.467  0.1206 -1.9063  1.2149
  671THF    H1310663   4.921   3.302   4.353 -2.0579 -1.2873 -0.8257
  672THF     O110664   0.006   4.523   1.283 -0.0742 -0.3397 -0.1802
  672THF     C210665   0.130   4.548   1.355  0.0503  0.3880  0.8589
  672THF     C310666  -0.046   4.656   1.270 -0.4060  0.3053  0.0680
  672THF     H410667   0.183   4.453   1.357 -1.4859 -0.5022  1.1688
  672THF     H510668   0.105   4.564   1.460 -3.5871 -2.0395  0.5568
  672THF     H610669  -0.123   4.670   1.194 -0.5769  0.6999  0.3117
  672THF     H710670  -0.076   4.695   1.367  0.7616  0.8630  0.2294
  672THF     C810671   0.076   4.741   1.224  0.3451  1.0894  0.0003
  672THF     C910672   0.200   4.661   1.277 -0.6250 -0.4768  0.3152
  672THF    H1010673   0.071   4.839   1.271  0.3645  0.1449  2.1064
  672THF    H1110674   0.071   4.749   1.116  0.0808  1.1190  0.0134
  672THF    H1210675   0.255   4.618   1.194  1.2910  2.3477 -0.0397
  672THF    H1310676   0.268   4.714   1.344  1.4091 -2.3350 -0.1867
  673THF     O110677   1.305   1.076   1.743  0.7150 -0.0354  0.5398
  673THF     C210678   1.278   1.164   1.630 -0.1705 -0.4063  0.0861
  673THF     C310679   1.353   1.153   1.855 -0.5281 -0.0687  0.1293
  673THF     H410680   1.172   1.189   1.625  0.0077  0.2514 -0.8717
  673THF     H510681   1.314   1.119   1.538 -0.6474 -0.6971  0.0413
  673THF     H610682   1.311   1.127   1.952  0.0357 -0.4624  0.2722
  673THF     H710683   1.459   1.127   1.864  0.1960  2.9076  1.1747
  673THF     C810684   1.347   1.300   1.802  0.6238  0.4492 -0.3888
  673THF     C910685   1.360   1.288   1.655 -0.1529  0.3123 -0.0107
  673THF    H1010686   1.429   1.346   1.857 -0.6422  1.0936  1.0256
  673THF    H1110687   1.251   1.333   1.843  0.6418  0.1574 -0.1082
  673THF    H1210688   1.316   1.374   1.604  2.1022  0.8031 -1.2524
  673THF    H1310689   1.463   1.280   1.620  0.0495  2.1234  0.0631
  674THF     O110690   1.273   5.467   4.909  0.2493  0.3181  0.0973
  674THF     C210691   1.389   5.509   4.834 -1.1538 -0.4463  0.1692
  674THF     C310692   1.250   5.569   5.010 -0.0378  0.9547 -0.2823
  674THF     H410693   1.392   5.470   4.732  1.3256  0.0377 -0.0279
  674THF     H510694   1.482   5.474   4.879 -0.3580  0.7026 -0.4834
  674THF     H610695   1.149   5.565   5.051 -0.3561 -2.1770 -1.1502
  674THF     H710696   1.325   5.576   5.089 -0.1804  0.6908 -0.1228
  674THF     C810697   1.265   5.693   4.924 -0.0108  0.2350  0.6843
  674THF     C910698   1.377   5.662   4.835  0.0618 -0.0581  0.2982
  674THF    H1010699   1.282   5.776   4.991  1.8082 -0.6533  1.3866
  674THF    H1110700   1.176   5.703   4.862  0.9517 -1.3933 -1.0772
  674THF    H1210701   1.362   5.715   4.741  1.1277 -0.1261  0.0791
  674THF    H1310702   1.471   5.699   4.875  2.0436 -1.9633 -2.2548
  675THF     O110703   5.469   4.671   2.459 -0.0093  0.7346  0.5995
  675THF     C210704   5.426   4.558   2.391  0.1111 -0.3106 -0.5664
  675THF     C310705   5.466   4.628   2.596 -0.3603  0.1594  0.0582
  675THF     H410706   5.437   4.570   2.283 -0.4429  0.6223 -0.5343
  675THF     H510707   5.318   4.551   2.407  0.3443 -1.0835  0.8651
  675THF     H610708   5.515   4.688   2.673  1.2501 -0.1425 -0.6906
  675THF     H710709   5.364   4.606   2.628 -0.7531 -0.3000 -1.4122
  675THF     C810710   5.537   4.491   2.588  0.4700 -0.1371  0.4913
  675THF     C910711   5.509   4.445   2.450  0.7432 -0.2742  0.0005
  675THF    H1010712   5.494   4.418   2.656  0.3437  0.7009  1.3412
  675THF    H1110713   5.645   4.503   2.591  0.2700  2.6922 -0.5652
  675THF    H1210714   5.603   4.437   2.396 -0.3727  1.7378 -2.4886
  675THF    H1310715   5.453   4.352   2.461 -0.1357  0.2676  0.1734
  676THF     O110716   1.151   4.622   5.441 -0.5416 -0.0578 -0.2374
  676THF     C210717   1.267   4.696   5.410 -0.1534  0.3348  0.6217
  676THF     C310718   1.152   4.599   5.585  0.0085  0.2775  0.4140
  676THF     H410719   1.255   4.805   5.412  1.2068  0.5150 -0.0596
  676THF     H510720   1.316   4.675   5.316  0.7182  2.1416  0.6351
  676THF     H610721   1.126   4.694   5.631 -1.5486 -0.4511  1.0898
  676THF     H710722   1.086   4.517   5.614  0.4007 -0.6591 -1.2396
  676THF     C810723   1.296   4.552   5.604  0.4658 -0.5631  0.7415
  676THF     C910724   1.361   4.660   5.518 -0.5697  0.3451 -0.2004
  676THF    H1010725   1.320   4.459   5.554 -1.2628  0.5358 -2.4525
  676THF    H1110726   1.314   4.552   5.711  0.1451  0.7661  0.8194
  676THF    H1210727   1.383   4.744   5.583 -2.0081  0.0849  0.6686
  676THF    H1310728   1.456   4.623   5.480  1.0190  0.1499  3.5132
  677THF     O110729   2.917   3.056   3.874 -0.0347 -0.4622  0.2071
  677THF     C210730   2.928   3.060   3.730 -0.2835  0.0833 -0.0586
  677THF     C310731   2.789   3.098   3.917  0.4286  0.3368  0.1668
  677THF     H410732   3.015   3.002   3.698  0.8300  0.7691  1.5723
  677THF     H510733   2.939   3.163   3.696  1.9669  0.2618  1.0129
  677THF     H610734   2.770   3.077   4.023 -0.2462  2.1638  0.4390
  677THF     H710735   2.775   3.205   3.909 -1.7585  0.0367 -0.6887
  677THF     C810736   2.698   3.025   3.826  0.9937  0.4388 -0.4136
  677THF     C910737   2.791   2.994   3.701 -0.2988 -0.1813  0.5559
  677THF    H1010738   2.612   3.085   3.795  0.6414  0.1235 -0.0647
  677THF    H1110739   2.661   2.929   3.862 -0.4663  0.9996 -0.3601
  677THF    H1210740   2.792   2.885   3.710  1.5442 -0.0333  3.1466
  677THF    H1310741   2.745   3.007   3.603 -1.7125 -1.4107  1.0146
  678THF     O110742   3.883   4.445   2.628 -0.0786  0.0243 -0.0560
  678THF     C210743   3.913   4.539   2.735 -0.1410  0.1883  0.3529
  678THF     C310744   3.986   4.429   2.537 -0.1785 -0.0746  0.0611
  678THF     H410745   3.888   4.501   2.834 -0.4511  2.6345  1.2950
  678THF     H510746   3.857   4.633   2.729 -0.6566 -0.1040  0.5342
  678THF     H610747   4.054   4.345   2.551  2.1383  1.7482  0.3714
  678THF     H710748   3.948   4.420   2.435 -1.5732  2.4180  0.2658
  678THF     C810749   4.063   4.561   2.554 -0.6118  0.2370  0.4719
  678THF     C910750   4.062   4.569   2.704 -0.3936 -0.3848 -0.1066
  678THF    H1010751   4.008   4.648   2.519 -0.3118  0.0636 -0.4533
  678THF    H1110752   4.163   4.556   2.510 -0.5793  0.5815  0.5049
  678THF    H1210753   4.117   4.489   2.753  0.7507  0.5210  0.1408
  678THF    H1310754   4.096   4.664   2.745  1.7155 -0.7299 -0.9134
  679THF     O110755   0.875   5.169   0.864  0.2635  0.2873 -0.2500
  679THF     C210756   0.744   5.106   0.862  0.4844 -0.3325 -0.0239
  679THF     C310757   0.936   5.119   0.986  0.0008 -0.2850 -0.0672
  679THF     H410758   0.764   5.010   0.816 -0.2413 -0.6920  0.4025
  679THF     H510759   0.675   5.158   0.795 -0.2060 -1.0750  0.0958
  679THF     H610760   0.990   5.027   0.961  1.2532  0.2069  0.7558
  679THF     H710761   0.995   5.199   1.029 -0.1628  0.8246 -1.7998
  679THF     C810762   0.821   5.079   1.076  0.0794  1.0679 -0.1403
  679THF     C910763   0.693   5.112   1.009 -0.4529  0.1588  0.5274
  679THF    H1010764   0.827   5.115   1.179  0.7329 -1.2502  0.7123
  679THF    H1110765   0.844   4.972   1.080  0.6904  1.1588 -1.0045
  679THF    H1210766   0.607   5.046   1.022 -1.7201  0.9836 -2.7521
  679THF    H1310767   0.664   5.216   1.024  1.7512  1.3142 -2.2681
  680THF     O110768   4.839   4.880   0.247 -0.5109 -0.3947 -0.2988
  680THF     C210769   4.746   4.979   0.271 -0.8186 -0.9900 -0.2279
  680THF     C310770   4.901   4.847   0.372 -0.0197  0.5453 -0.5838
  680THF     H410771   4.662   4.962   0.203  0.4911  0.0260 -2.1822
  680THF     H510772   4.789   5.071   0.234  1.7680 -1.0573  2.2306
  680THF     H610773   4.859   4.752   0.403  0.2860  0.9124  1.0687
  680THF     H710774   5.009   4.856   0.376  0.0305 -0.3743  1.2131
  680THF     C810775   4.841   4.951   0.473 -0.3128  0.5052  0.4143
  680THF     C910776   4.713   4.979   0.412  0.0782  0.5176  0.1926
  680THF    H1010777   4.898   5.043   0.467  0.8278 -0.1941  0.3460
  680THF    H1110778   4.825   4.904   0.570  2.2208 -2.4046 -0.3894
  680THF    H1210779   4.644   4.897   0.427  0.7005  0.2835  1.9792
  680THF    H1310780   4.673   5.077   0.436 -1.5137  0.2217 -1.1070
  681THF     O110781   4.662   0.031   4.064  0.2770 -0.0616 -0.5489
  681THF     C210782   4.607   0.148   4.127 -0.4418  0.7203  0.2523
  681THF     C310783   4.771   0.069   3.976  0.4164 -0.1368  0.2900
  681THF     H410784   4.564   0.121   4.223 -1.8787  1.5442 -0.1216
  681THF     H510785   4.528   0.194   4.068 -0.3101  0.5856 -0.0295
  681THF     H610786   4.858   0.006   3.990  0.8509  0.7455  1.7502
  681THF     H710787   4.733   0.065   3.873  1.1947 -2.7133  0.0333
  681THF     C810788   4.800   0.213   4.015  0.5408  0.3172  0.1217
  681THF     C910789   4.722   0.238   4.142 -1.3102 -0.1002  0.2062
  681THF    H1010790   4.764   0.285   3.942 -0.2282 -0.5259 -0.3508
  681THF    H1110791   4.907   0.236   4.022  0.1726  1.7006  1.6281
  681THF    H1210792   4.776   0.208   4.231  1.4467  3.1944 -0.1635
  681THF    H1310793   4.699   0.345   4.149 -0.2803  0.3036 -1.7511
  682THF     O110794   2.436   1.495   4.179 -0.1290 -0.3816  0.3388
  682THF     C210795   2.519   1.419   4.267 -0.5476 -0.4424 -0.0371
  682THF     C310796   2.341   1.560   4.262 -0.1312  0.0013  0.2601
  682THF     H410797   2.620   1.396   4.232  0.7230 -0.1299  3.1284
  682THF     H510798   2.477   1.318   4.274 -0.6037 -0.3081  1.9349
  682THF     H610799   2.302   1.646   4.208  1.3514  0.6827  0.2370
  682THF     H710800   2.254   1.499   4.288  1.1535 -0.7034  3.3393
  682THF     C810801   2.413   1.599   4.391  0.4897  0.2868 -0.2393
  682THF     C910802   2.520   1.494   4.402 -1.2153  0.4028 -0.4066
  682THF    H1010803   2.345   1.595   4.476  0.8541 -0.2332  0.0306
  682THF    H1110804   2.452   1.701   4.381  2.9229 -0.5154  0.3531
  682THF    H1210805   2.617   1.536   4.428 -0.9803  0.1512 -0.8459
  682THF    H1310806   2.491   1.427   4.483 -0.8187 -0.7058 -1.1474
  683THF     O110807   0.226   0.691   2.456  0.3121 -0.2359 -0.6858
  683THF     C210808   0.124   0.631   2.530  0.0732 -0.2721 -0.4401
  683THF     C310809   0.323   0.728   2.556 -0.2633  0.1756 -0.4842
  683THF     H410810   0.150   0.529   2.558  1.4298  0.7379  2.3207
  683THF     H510811   0.037   0.622   2.465 -0.3919 -1.0154  0.2803
  683THF     H610812   0.386   0.645   2.586 -0.1324  1.0938  1.9900
  683THF     H710813   0.400   0.797   2.522 -1.9119  2.2920 -0.1484
  683THF     C810814   0.237   0.759   2.688 -0.4485 -0.4196  0.3856
  683THF     C910815   0.101   0.727   2.645  0.0732  0.2958 -0.7380
  683THF    H1010816   0.237   0.865   2.714 -1.8034 -0.4329  0.5253
  683THF    H1110817   0.263   0.705   2.780 -0.7157  0.4295  0.9752
  683THF    H1210818   0.031   0.685   2.717  0.9102 -1.9450 -1.1385
  683THF    H1310819   0.048   0.816   2.611 -2.0152 -0.8637 -0.6809
  684THF     O110820   3.303   0.299   0.763 -0.4362  0.3463  0.5197
  684THF     C210821   3.329   0.434   0.794 -0.4323 -0.2066 -0.5821
  684THF     C310822   3.187   0.306   0.671 -0.4031  0.1281  0.2417
  684THF     H410823   3.395   0.470   0.715 -0.2852  2.4410  0.6492
  684THF     H510824   3.387   0.447   0.886 -0.0140  0.7052 -0.9610
  684THF     H610825   3.224   0.296   0.569 -0.3474  2.7374 -0.0407
  684THF     H710826   3.123   0.218   0.685  0.2964 -0.4124  0.1267
  684THF     C810827   3.117   0.437   0.701  0.0100  0.1964  0.4148
  684THF     C910828   3.193   0.488   0.815 -0.5558  0.0788  0.0830
  684THF    H1010829   3.009   0.422   0.705  0.1386 -0.7324  0.7724
  684THF    H1110830   3.147   0.500   0.617 -2.3455  1.0626  0.1350
  684THF    H1210831   3.206   0.596   0.805  3.4326 -0.0882  1.6039
  684THF    H1310832   3.163   0.457   0.915  5.1005  1.0259  2.5207
  685THF     O110833   3.399   1.597   0.537  0.1063 -0.1490  0.1295
  685THF     C210834   3.306   1.607   0.650 -0.6650  0.2869 -0.6157
  685THF     C310835   3.391   1.713   0.451  0.8613 -0.4467  0.3480
  685THF     H410836   3.336   1.539   0.730 -2.0728 -0.2075 -0.4967
  685THF     H510837   3.206   1.583   0.616 -1.6427  0.2142  2.1251
  685THF     H610838   3.488   1.720   0.403  1.2888  2.6029  1.4744
  685THF     H710839   3.322   1.716   0.366  0.7560 -0.4745  0.4326
  685THF     C810840   3.365   1.821   0.554  0.7800  0.4027  0.0284
  685THF     C910841   3.322   1.763   0.682 -0.2633  0.1414  0.6071
  685THF    H1010842   3.287   1.893   0.527 -2.6695 -2.0064  2.6311
  685THF    H1110843   3.454   1.883   0.568  1.6219 -0.9262  0.7119
  685THF    H1210844   3.402   1.772   0.755 -1.8432 -1.4018  2.6541
  685THF    H1310845   3.232   1.811   0.719 -0.1911 -0.5298  1.6905
  686THF     O110846   0.013   4.478   3.372 -0.2730 -0.3066 -0.6472
  686THF     C210847  -0.111   4.429   3.423  0.1749 -0.6090 -1.0530
  686THF     C310848   0.090   4.354   3.341  0.2443  0.0182  0.2212
  686THF     H410849  -0.181   4.513   3.423  1.6843  0.7664  1.6415
  686THF     H510850  -0.096   4.398   3.526 -1.8710  0.0031 -0.5199
  686THF     H610851   0.164   4.380   3.265 -0.5207 -0.5434 -0.7325
  686THF     H710852   0.141   4.300   3.422  1.2177 -0.3189 -0.5995
  686THF     C810853  -0.025   4.261   3.286 -0.5296 -0.0385  0.3297
  686THF     C910854  -0.158   4.317   3.334 -0.0651  0.1840  0.2301
  686THF    H1010855   0.001   4.161   3.319  3.4891  0.6733 -0.1413
  686THF    H1110856  -0.021   4.265   3.177 -0.0374  0.3066  0.3540
  686THF    H1210857  -0.220   4.351   3.251 -1.4438 -1.2106  0.6540
  686THF    H1310858  -0.222   4.248   3.388 -0.0010  0.3335  0.4978
  687THF     O110859   3.279   2.183   0.618  0.9842  0.2449  0.0545
  687THF     C210860   3.145   2.131   0.580 -0.3267  0.5474 -0.5006
  687THF     C310861   3.321   2.277   0.514 -0.2666  0.7014 -0.5624
  687THF     H410862   3.064   2.177   0.637 -0.8423  0.4194 -1.1239
  687THF     H510863   3.145   2.025   0.609 -0.9139  0.6791  0.0174
  687THF     H610864   3.284   2.379   0.526 -0.8775  0.7227 -2.3462
  687THF     H710865   3.430   2.274   0.517 -0.1730  3.0275  1.2779
  687THF     C810866   3.262   2.213   0.388  0.1525  0.2177  0.5775
  687THF     C910867   3.129   2.159   0.429  0.5833  0.5276 -0.3403
  687THF    H1010868   3.317   2.123   0.360 -0.6450 -0.2326  0.4069
  687THF    H1110869   3.263   2.274   0.298 -1.3004 -2.9042 -1.7589
  687THF    H1210870   3.049   2.233   0.428 -0.6412 -0.7531 -0.2350
  687THF    H1310871   3.103   2.067   0.375 -2.1314  0.4251  1.0061
  688THF     O110872   0.622   1.411   5.141  0.1524 -0.6843 -0.5981
  688THF     C210873   0.525   1.311   5.127  0.1507 -0.2591  0.3253
  688THF     C310874   0.560   1.534   5.112  0.1903  0.2588 -0.2062
  688THF     H410875   0.459   1.310   5.214 -0.9690  2.6721 -0.3706
  688THF     H510876   0.558   1.208   5.113 -1.6300 -0.6375 -1.6012
  688THF     H610877   0.490   1.579   5.183  0.6604 -0.8209  0.9752
  688THF     H710878   0.631   1.615   5.096 -0.9587  1.2995 -0.2602
  688THF     C810879   0.498   1.508   4.980  0.4004  0.1704 -0.1549
  688THF     C910880   0.451   1.362   5.005  0.4062 -0.1763 -0.1469
  688THF    H1010881   0.575   1.501   4.903 -0.1478 -1.3349 -0.5984
  688THF    H1110882   0.422   1.585   4.966 -0.4475 -0.5445  0.3897
  688THF    H1210883   0.345   1.359   5.030  0.8519 -0.3871  1.9398
  688THF    H1310884   0.473   1.303   4.917  2.4570 -1.0453  0.8840
  689THF     O110885   4.407   0.202   3.497  0.5494  0.7330 -0.4805
  689THF     C210886   4.531   0.176   3.568 -0.3614 -0.4715  0.3306
  689THF     C310887   4.391   0.343   3.484  0.1294 -0.1933  0.0064
  689THF     H410888   4.615   0.191   3.501 -0.8254 -2.9727 -0.9312
  689THF     H510889   4.540   0.076   3.609 -0.7530  0.3383  2.4852
  689THF     H610890   4.441   0.386   3.397 -0.5027 -0.3196 -0.4209
  689THF     H710891   4.286   0.366   3.472 -0.2499 -1.8620 -0.1215
  689THF     C810892   4.452   0.396   3.620 -0.0446 -0.0157  0.5034
  689THF     C910893   4.526   0.276   3.678 -0.1779 -0.1881  0.1829
  689THF    H1010894   4.377   0.423   3.694 -0.1374  1.2521 -0.0404
  689THF    H1110895   4.512   0.484   3.600 -2.1721  0.9989 -1.8335
  689THF    H1210896   4.620   0.303   3.727 -0.7211  1.7306  0.2457
  689THF    H1310897   4.456   0.240   3.753 -1.1295  1.7071  0.2632
  690THF     O110898   1.484   2.980   2.862 -0.2722  0.4882  0.0802
  690THF     C210899   1.514   3.081   2.958 -0.7464 -0.5714 -0.3474
  690THF     C310900   1.605   2.948   2.789  0.1107 -0.0494  0.3788
  690THF     H410901   1.558   3.046   3.051  0.7730  0.8811 -0.4583
  690THF     H510902   1.433   3.149   2.985  0.4787  0.6665  0.3996
  690THF     H610903   1.657   2.860   2.824  0.0676  1.0477  3.5175
  690THF     H710904   1.590   2.953   2.681  1.9385  0.0140  0.1008
  690THF     C810905   1.702   3.076   2.812 -0.6013  0.6310  0.3474
  690THF     C910906   1.622   3.175   2.894  0.1004  0.2117 -0.5115
  690THF    H1010907   1.733   3.136   2.726  0.5899  0.0150  0.3279
  690THF    H1110908   1.783   3.055   2.881 -1.7434  0.7176  1.7607
  690THF    H1210909   1.683   3.233   2.963  1.5440 -1.1273 -0.6081
  690THF    H1310910   1.568   3.250   2.836 -0.8398  0.1786  0.2873
  691THF     O110911   5.305   3.381   2.552 -0.5074  0.6043 -0.1392
  691THF     C210912   5.237   3.266   2.504  0.3917 -0.5023 -0.4672
  691THF     C310913   5.212   3.439   2.638  0.1575  0.0914 -0.4891
  691THF     H410914   5.241   3.187   2.578  1.3329 -2.3026 -2.3445
  691THF     H510915   5.282   3.215   2.419  3.1353  0.0953  0.5501
  691THF     H610916   5.209   3.375   2.726  0.5717  0.4079 -0.2433
  691THF     H710917   5.238   3.542   2.664  1.3327 -0.4171  0.4071
  691THF     C810918   5.092   3.450   2.548  0.0490 -0.5306  0.3895
  691THF     C910919   5.089   3.319   2.487  0.6997 -0.5444 -0.0975
  691THF    H1010920   5.121   3.519   2.469  3.0976 -3.0564 -0.9115
  691THF    H1110921   5.002   3.465   2.608  0.8891  1.2883  1.2812
  691THF    H1210922   5.029   3.250   2.547  0.4852  1.6123  2.3127
  691THF    H1310923   5.062   3.334   2.382  1.4893  0.0889 -0.2241
  692THF     O110924   3.130   1.911   0.136 -0.5854 -0.4211 -0.5047
  692THF     C210925   3.181   2.022   0.065 -0.3193  0.1867 -0.5050
  692THF     C310926   2.989   1.906   0.106 -0.2616 -0.1190 -0.8024
  692THF     H410927   3.227   1.985  -0.027  1.5611 -0.7674  0.7497
  692THF     H510928   3.259   2.072   0.123 -0.4192 -0.4998  0.2243
  692THF     H610929   2.967   1.850   0.015 -1.6417 -0.5779 -0.2217
  692THF     H710930   2.939   1.858   0.191  0.9973  0.5652  0.3631
  692THF     C810931   2.952   2.052   0.098  0.0969 -0.2373 -0.1103
  692THF     C910932   3.075   2.123   0.039  0.7406 -0.2500  0.2689
  692THF    H1010933   2.928   2.101   0.192  0.8442  3.1014 -1.5185
  692THF    H1110934   2.863   2.076   0.040  1.1763  1.3174 -1.1982
  692THF    H1210935   3.066   2.161  -0.063  3.0610  2.1727  0.8448
  692THF    H1310936   3.093   2.221   0.084 -0.2025  0.5503 -1.0252
  693THF     O110937   0.074   2.167   1.956  0.4273 -0.3643 -0.2941
  693THF     C210938   0.168   2.075   1.899 -0.0958 -0.0760  0.4493
  693THF     C310939  -0.048   2.164   1.882  0.5817  0.1503  0.0885
  693THF     H410940   0.219   2.033   1.986 -0.3827  0.1593  0.7282
  693THF     H510941   0.235   2.138   1.840 -0.1603 -1.1281 -0.8263
  693THF     H610942  -0.138   2.128   1.933 -1.3088  1.0453 -2.4594
  693THF     H710943  -0.067   2.263   1.841  0.7269  0.2039  0.1484
  693THF     C810944  -0.022   2.073   1.764  1.0198 -0.7314  1.0476
  693THF     C910945   0.085   1.980   1.818  0.7128 -0.3435 -0.5171
  693THF    H1010946   0.016   2.143   1.689  0.2277 -1.6402 -0.2300
  693THF    H1110947  -0.116   2.028   1.734  0.3708  0.5143  1.1476
  693THF    H1210948   0.040   1.906   1.884 -0.3574 -0.2653 -1.1247
  693THF    H1310949   0.136   1.932   1.734 -0.9880 -2.8909 -0.1870
  694THF     O110950   2.197   2.534   4.581  0.4835 -0.1358 -0.4245
  694THF     C210951   2.076   2.606   4.561  0.3958 -0.1508  0.8142
  694THF     C310952   2.291   2.629   4.624 -0.5532  0.0636 -0.1305
  694THF     H410953   2.019   2.623   4.652  0.1714  0.6308  0.5382
  694THF     H510954   2.007   2.559   4.491 -0.5289  2.9088 -0.4965
  694THF     H610955   2.313   2.610   4.729  0.8226  1.8142 -0.0594
  694THF     H710956   2.389   2.618   4.578 -0.9845  2.4339 -1.8103
  694THF     C810957   2.239   2.765   4.591 -0.0265  0.1939 -0.3322
  694THF     C910958   2.115   2.742   4.516  1.4616 -0.2273 -0.2288
  694THF    H1010959   2.313   2.825   4.538  1.2642  0.1842  1.3917
  694THF    H1110960   2.208   2.829   4.674 -0.1482  0.9034 -0.9056
  694THF    H1210961   2.033   2.808   4.543 -1.3917 -3.7260  0.3154
  694THF    H1310962   2.139   2.752   4.410  0.6181 -0.5773 -0.4576
  695THF     O110963   3.819   2.668   4.360  0.1133 -0.3999  0.4313
  695THF     C210964   3.800   2.811   4.387  0.6977  0.3704 -0.2012
  695THF     C310965   3.701   2.612   4.423 -0.3324 -0.0955  0.3840
  695THF     H410966   3.857   2.876   4.321 -2.2775  1.8540 -1.4954
  695THF     H510967   3.817   2.836   4.491 -1.6091  1.8544 -0.1211
  695THF     H610968   3.697   2.516   4.371 -1.3076  0.7496 -1.1630
  695THF     H710969   3.711   2.606   4.531 -0.8230  1.4254  0.5382
  695THF     C810970   3.588   2.702   4.373  0.3896 -0.4211 -0.1981
  695THF     C910971   3.648   2.837   4.368 -0.3470  0.1976 -0.1254
  695THF    H1010972   3.498   2.708   4.433  0.4041  2.5169 -0.3206
  695THF    H1110973   3.561   2.676   4.271  1.6710 -2.6513 -0.0230
  695THF    H1210974   3.632   2.875   4.267 -1.6809 -1.5732 -0.6319
  695THF    H1310975   3.609   2.915   4.433  2.4787  1.0576  0.6815
  696THF     O110976   0.242   0.522   2.157 -1.0780  0.1216  0.1614
  696THF     C210977   0.389   0.523   2.180 -0.2728  0.1484  0.4586
  696THF     C310978   0.223   0.476   2.025  0.3644  0.1330 -0.0979
  696THF     H410979   0.427   0.538   2.282  1.6523  1.6240 -0.4010
  696THF     H510980   0.437   0.600   2.120 -0.2439 -0.4457 -0.2920
  696THF     H610981   0.121   0.443   2.013 -0.3092  1.8563  0.4747
  696THF     H710982   0.239   0.545   1.942  0.3617  0.2305 -0.0178
  696THF     C810983   0.322   0.354   2.026 -0.4592  0.4087 -0.1752
  696THF     C910984   0.432   0.388   2.124  0.0837  0.5278  0.7961
  696THF    H1010985   0.359   0.341   1.925 -0.5887  0.5359 -0.2392
  696THF    H1110986   0.284   0.258   2.063 -0.3489  1.1792  2.1188
  696THF    H1210987   0.433   0.313   2.203  0.9433  0.6267  0.8937
  696THF    H1310988   0.532   0.376   2.082 -0.7938  0.5501 -1.4330
  697THF     O110989   0.199   2.310   1.406 -0.2486 -0.1793 -0.0034
  697THF     C210990   0.132   2.183   1.388  0.1033  0.0990  0.2941
  697THF     C310991   0.110   2.416   1.438  0.2863  0.7563 -0.0186
  697THF     H410992   0.148   2.111   1.468 -2.4305 -0.7790  0.1074
  697THF     H510993   0.158   2.139   1.292  2.5812 -3.5974  2.3948
  697THF     H610994   0.138   2.461   1.533 -0.0742 -0.7651  0.8459
  697THF     H710995   0.097   2.485   1.355 -2.4346  1.9573  1.2732
  697THF     C810996  -0.021   2.345   1.461  0.3602  0.0297  0.5611
  697THF     C910997  -0.021   2.215   1.385 -1.3619 -0.8038 -0.1798
  697THF    H1010998  -0.105   2.408   1.432  0.3786 -0.4813 -0.6608
  697THF    H1110999  -0.030   2.327   1.568 -1.4048 -0.0865  0.4099
  697THF    H1211000  -0.076   2.135   1.434  0.6823 -0.7506  2.4244
  697THF    H1311001  -0.051   2.242   1.284  2.3444  1.6199 -0.8589
  698THF     O111002   2.157   2.385   0.339  0.2215 -0.8288  0.0643
  698THF     C211003   2.103   2.367   0.465 -0.4679 -1.0619 -0.2216
  698THF     C311004   2.219   2.264   0.298  0.5340  0.1487  0.2879
  698THF     H411005   2.019   2.433   0.487  1.0392  0.5513  0.9193
  698THF     H511006   2.181   2.373   0.541 -1.6166 -4.0466  1.4076
  698THF     H611007   2.215   2.260   0.189  0.1304  1.8268  0.2163
  698THF     H711008   2.320   2.251   0.338  0.6902 -0.9426 -0.3848
  698THF     C811009   2.119   2.156   0.343  0.0814  0.1673 -0.2448
  698THF     C911010   2.052   2.224   0.467 -0.0541 -0.2162 -0.5581
  698THF    H1011011   2.172   2.062   0.360  1.0627  0.4262 -1.6424
  698THF    H1111012   2.047   2.147   0.262  0.8963 -1.5024 -0.8390
  698THF    H1211013   1.944   2.213   0.458 -0.0610 -1.1050  0.5042
  698THF    H1311014   2.089   2.172   0.555  1.8274 -0.1023 -1.2291
  699THF     O111015   4.409   1.018   4.335  0.2455  1.0315 -0.1221
  699THF     C211016   4.350   1.010   4.205  0.0147 -0.1029  0.3921
  699THF     C311017   4.547   1.026   4.313  0.7869 -0.1958  0.4038
  699THF     H411018   4.325   1.113   4.180 -0.8047 -0.7237 -1.5972
  699THF     H511019   4.267   0.939   4.206 -0.0117 -0.1625 -1.4986
  699THF     H611020   4.575   1.129   4.293  0.7655 -0.3210 -0.2758
  699THF     H711021   4.612   0.996   4.395 -2.0369 -0.3902  2.7423
  699THF     C811022   4.567   0.928   4.189 -0.1360 -0.2503 -0.5353
  699THF     C911023   4.447   0.956   4.104 -0.5584 -0.6948  0.7351
  699THF    H1011024   4.570   0.831   4.240  0.5904  0.0406 -0.0107
  699THF    H1111025   4.660   0.956   4.140 -0.5564  1.0518 -0.6378
  699THF    H1211026   4.462   1.032   4.027 -2.3450 -1.0896 -0.0493
  699THF    H1311027   4.397   0.884   4.039  0.1058 -0.2527 -0.2885
  700THF     O111028   3.459   1.476   4.033 -0.1185 -0.3557  0.2100
  700THF     C211029   3.462   1.332   4.044  0.7828 -0.3298  0.4803
  700THF     C311030   3.488   1.539   4.159  0.6313  0.4668 -0.5583
  700THF     H411031   3.520   1.299   3.958 -0.3704  0.4122 -0.6190
  700THF     H511032   3.361   1.291   4.044  0.8047 -0.3839  0.5151
  700THF     H611033   3.530   1.638   4.149  3.5561 -0.7420 -1.0875
  700THF     H711034   3.400   1.548   4.224  0.3503 -0.0713 -0.8554
  700THF     C811035   3.592   1.443   4.223 -0.1749 -0.0808  0.3912
  700THF     C911036   3.530   1.313   4.182 -0.1691 -0.1350 -0.0472
  700THF    H1011037   3.592   1.465   4.330 -0.2906  1.3992  0.1126
  700THF    H1111038   3.692   1.457   4.180 -0.8437 -1.1128 -1.5798
  700THF    H1211039   3.606   1.235   4.176  2.1465  2.0836 -2.4034
  700THF    H1311040   3.453   1.281   4.252 -2.2078  1.7100 -1.3386
  701THF     O111041   3.073   2.991   5.421  0.2725  0.1714 -0.2764
  701THF     C211042   2.963   2.927   5.345 -0.4334  0.1129  0.1551
  701THF     C311043   3.196   2.938   5.374 -0.9737  0.4707  0.7535
  701THF     H411044   2.872   2.984   5.367 -0.6444 -0.3833  0.5683
  701THF     H511045   2.950   2.822   5.371 -0.3717  0.2184  0.6212
  701THF     H611046   3.272   3.007   5.410 -0.0419 -0.0667 -0.1571
  701THF     H711047   3.212   2.839   5.416 -0.5995  1.0092  1.9041
  701THF     C811048   3.173   2.949   5.224  0.0120 -0.7330  0.2913
  701THF     C911049   3.017   2.938   5.204 -1.2729 -0.4597 -0.2639
  701THF    H1011050   3.221   2.864   5.174  0.3724 -0.8761  0.8663
  701THF    H1111051   3.213   3.043   5.186  0.6570 -0.7115  0.9895
  701THF    H1211052   2.981   3.032   5.163  0.9942  0.7667  0.3642
  701THF    H1311053   2.986   2.856   5.140 -2.5445 -0.1429 -0.0758
  702THF     O111054   5.049   2.403   1.711 -0.4739  0.7200  0.5289
  702THF     C211055   5.032   2.385   1.570 -0.0855  0.3088 -0.1685
  702THF     C311056   5.137   2.302   1.742  0.1117  0.0032 -0.2380
  702THF     H411057   5.103   2.449   1.518  1.5589 -0.5782  0.8704
  702THF     H511058   4.930   2.411   1.543 -0.1615 -2.4046 -3.0206
  702THF     H611059   5.232   2.340   1.705  0.3981 -0.1738  0.2949
  702THF     H711060   5.150   2.295   1.850 -0.5743 -0.0847 -0.1563
  702THF     C811061   5.098   2.176   1.667  0.5088 -0.4196 -0.1804
  702THF     C911062   5.058   2.236   1.537  0.4453 -0.5515  0.4287
  702THF    H1011063   5.013   2.129   1.717  0.2301 -1.3863 -1.5169
  702THF    H1111064   5.184   2.111   1.656  1.5324  0.9774 -0.6975
  702THF    H1211065   5.132   2.221   1.458  1.3066 -0.8872  1.2771
  702THF    H1311066   4.964   2.196   1.501  0.4450  1.0555 -1.5166
  703THF     O111067   1.821   1.831   3.659  0.0624  0.2611 -0.4546
  703THF     C211068   1.958   1.794   3.668  0.2266 -0.2051 -0.3552
  703THF     C311069   1.742   1.720   3.640 -0.2279  0.1933 -0.2815
  703THF     H411070   1.991   1.782   3.771 -1.7081 -0.6383  0.2722
  703THF     H511071   2.025   1.868   3.625 -0.3193  0.3301 -0.2925
  703THF     H611072   1.693   1.698   3.735  1.0172 -0.3778  0.2451
  703THF     H711073   1.663   1.743   3.567  1.8028  1.1690 -2.2847
  703THF     C811074   1.838   1.609   3.602  0.4393  0.0027 -0.8927
  703THF     C911075   1.973   1.674   3.580  0.0539  0.1430  0.5273
  703THF    H1011076   1.813   1.547   3.516 -2.0139  0.0009 -0.2617
  703THF    H1111077   1.834   1.536   3.684  0.4717  1.2892  0.2980
  703THF    H1211078   2.061   1.612   3.598 -1.1054 -2.0760 -0.9279
  703THF    H1311079   1.967   1.691   3.473 -2.0385  1.7925  0.8366
  704THF     O111080   0.791   4.452   3.234 -0.1238 -0.4930 -0.0899
  704THF     C211081   0.866   4.447   3.361  0.1343  0.4503  0.6320
  704THF     C311082   0.887   4.412   3.136  0.0202  0.6323  0.2445
  704THF     H411083   0.795   4.424   3.441  0.3641 -0.1783  0.6604
  704THF     H511084   0.904   4.548   3.379  0.3655  0.3681  0.6086
  704THF     H611085   0.843   4.380   3.042  1.5841  0.6218 -0.5161
  704THF     H711086   0.956   4.496   3.124 -0.0803  1.0482  2.1944
  704THF     C811087   0.974   4.298   3.194 -0.7334  0.2328 -0.0697
  704THF     C911088   0.967   4.329   3.345  0.1880  0.2233 -0.0509
  704THF    H1011089   1.079   4.298   3.166 -0.7997  1.6819 -0.3683
  704THF    H1111090   0.929   4.199   3.180  1.8485 -0.8450 -1.3258
  704THF    H1211091   0.944   4.241   3.406  1.5744  0.6804  1.1956
  704THF    H1311092   1.066   4.352   3.384 -0.4242  0.7123  1.2643
  705THF     O111093   5.302   4.141   2.931 -0.5354  0.0630  0.9398
  705THF     C211094   5.187   4.226   2.942 -0.7184 -0.1784  1.2917
  705THF     C311095   5.379   4.188   2.812  0.2822 -0.5258 -0.2751
  705THF     H411096   5.213   4.324   2.982 -0.3856 -1.0996  3.4690
  705THF     H511097   5.118   4.183   3.014  0.0923 -1.6788  1.2128
  705THF     H611098   5.443   4.268   2.847 -0.9765 -0.1643  1.3649
  705THF     H711099   5.439   4.102   2.783  0.3503 -1.7695  3.0151
  705THF     C811100   5.275   4.259   2.720 -0.2721  0.4715 -0.5001
  705THF     C911101   5.144   4.238   2.794  0.6219  0.1430 -0.8006
  705THF    H1011102   5.268   4.208   2.624 -4.3783 -0.6538  0.2191
  705THF    H1111103   5.298   4.364   2.708  1.6949  0.3168  1.3576
  705THF    H1211104   5.072   4.318   2.779  0.0852 -0.1578  0.1081
  705THF    H1311105   5.097   4.146   2.759  1.1275 -0.2438 -0.4784
  706THF     O111106   4.511   1.739   4.805 -0.2962  0.3745 -0.3947
  706THF     C211107   4.418   1.825   4.861 -0.7116 -0.7304  0.7184
  706THF     C311108   4.565   1.802   4.694  0.8241  0.6822  0.1711
  706THF     H411109   4.450   1.920   4.904  0.1182 -0.3181 -0.7304
  706THF     H511110   4.352   1.773   4.930 -0.6896 -0.6413  0.8081
  706THF     H611111   4.620   1.892   4.723  1.2374  0.5883 -0.3071
  706THF     H711112   4.635   1.740   4.638  0.7478  2.5028 -2.0945
  706THF     C811113   4.439   1.846   4.622  0.1873 -0.0076  0.1843
  706THF     C911114   4.335   1.865   4.734  0.0223 -0.3708 -1.1678
  706THF    H1011115   4.403   1.769   4.553 -1.8265  0.8258  0.2282
  706THF    H1111116   4.448   1.936   4.562 -2.8238  0.3837  0.1254
  706THF    H1211117   4.318   1.973   4.734  1.5253 -0.1112 -1.8707
  706THF    H1311118   4.244   1.805   4.728  0.0301 -0.6009  0.4589
  707THF     O111119   1.409   3.483   1.239  0.5015  0.2614 -0.3904
  707THF     C211120   1.341   3.576   1.156  0.4216 -0.0092 -0.1959
  707THF     C311121   1.544   3.477   1.200  0.0772  0.1914 -0.1483
  707THF     H411122   1.355   3.673   1.204 -1.2348 -0.3658  1.1323
  707THF     H511123   1.234   3.553   1.155  0.6816 -1.3101 -0.0987
  707THF     H611124   1.592   3.549   1.267 -3.3773 -0.7376  3.6883
  707THF     H711125   1.585   3.378   1.221  0.4623 -0.0577 -1.9490
  707THF     C811126   1.558   3.527   1.054 -0.1263 -0.0953  0.1482
  707THF     C911127   1.413   3.572   1.025  0.4402  0.3044 -0.5981
  707THF    H1011128   1.590   3.448   0.986  1.2386 -0.9466  1.7160
  707THF    H1111129   1.623   3.614   1.059  0.0965 -0.3050  1.1995
  707THF    H1211130   1.404   3.666   0.970  0.1952  0.2679 -0.6235
  707THF    H1311131   1.359   3.498   0.965  1.0847 -1.2474  0.6557
  708THF     O111132   1.527   1.692   0.466 -0.4632  0.2439  0.3895
  708THF     C211133   1.549   1.651   0.328  0.7188 -0.3647  0.0138
  708THF     C311134   1.447   1.812   0.461  0.2656  0.1768  0.6226
  708THF     H411135   1.500   1.557   0.302 -0.8162  0.3006  0.3870
  708THF     H511136   1.656   1.644   0.311  0.8873  0.2143  0.8091
  708THF     H611137   1.340   1.791   0.461  0.3484 -0.2553  0.4970
  708THF     H711138   1.464   1.883   0.542 -0.2586 -0.7341  1.5479
  708THF     C811139   1.478   1.871   0.326  0.2388 -0.2905  1.1939
  708THF     C911140   1.482   1.755   0.237  0.1147  0.4663  0.2299
  708THF    H1011141   1.576   1.918   0.331 -0.3126  0.8694  1.6757
  708THF    H1111142   1.410   1.952   0.299 -0.7256 -1.8082 -1.3765
  708THF    H1211143   1.375   1.745   0.218  0.2259 -1.2947  0.3408
  708THF    H1311144   1.529   1.750   0.139 -0.0816 -1.6282  0.1852
  709THF     O111145   4.464   2.267   1.836 -0.0954  0.2976 -0.6347
  709THF     C211146   4.431   2.268   1.693  0.1375  0.9024 -0.1298
  709THF     C311147   4.601   2.234   1.863 -0.0371  0.3763  0.0965
  709THF     H411148   4.341   2.310   1.646 -1.3115 -1.1683  0.6335
  709THF     H511149   4.422   2.163   1.666  1.1867  0.2167  2.0100
  709THF     H611150   4.643   2.279   1.953  1.2121 -0.9805  0.2179
  709THF     H711151   4.620   2.127   1.867  0.8394  0.5493  1.1319
  709THF     C811152   4.667   2.295   1.741  0.0504  0.0580  0.3615
  709THF     C911153   4.558   2.319   1.633  0.1745  0.4667 -0.0529
  709THF    H1011154   4.749   2.230   1.710  0.1715 -0.5002  1.7704
  709THF    H1111155   4.706   2.394   1.763  1.0690  0.1204 -1.5749
  709THF    H1211156   4.551   2.426   1.618 -0.3120  0.4100 -0.2376
  709THF    H1311157   4.593   2.267   1.544 -1.3751 -0.1100 -0.3477
  710THF     O111158   0.115   1.984   0.968 -0.3064  0.6088  0.0746
  710THF     C211159   0.243   1.974   0.920  0.0667 -0.4377 -0.1027
  710THF     C311160   0.103   1.877   1.061 -0.1516 -0.0593  0.3405
  710THF     H411161   0.286   2.074   0.926 -0.2192 -0.3661  0.7476
  710THF     H511162   0.254   1.947   0.814 -3.0972  1.8574 -1.1646
  710THF     H611163   0.026   1.893   1.137 -0.2282 -1.1743  0.5104
  710THF     H711164   0.073   1.789   1.005 -2.8507  0.3771  0.9234
  710THF     C811165   0.240   1.850   1.124 -0.7399 -0.2448  0.2760
  710THF     C911166   0.330   1.877   1.006 -0.5446 -0.0531  0.5639
  710THF    H1011167   0.252   1.757   1.180 -1.3605 -1.2725 -1.2532
  710THF    H1111168   0.248   1.923   1.204 -3.6630  0.2054  0.2420
  710THF    H1211169   0.430   1.908   1.035 -0.1688  0.8026 -1.5101
  710THF    H1311170   0.346   1.785   0.949  2.1975  0.3131  0.6102
  711THF     O111171   2.768   0.895   5.017 -0.8924  0.0964 -0.1143
  711THF     C211172   2.719   0.812   4.909  0.1468 -0.1598 -0.3090
  711THF     C311173   2.657   0.982   5.052  0.8583 -0.2493  0.8955
  711THF     H411174   2.725   0.709   4.942 -0.8552 -0.6623 -1.6123
  711THF     H511175   2.777   0.816   4.817  0.4106 -3.3867 -0.3845
  711THF     H611176   2.606   0.950   5.142 -1.0645  0.4681  0.1197
  711THF     H711177   2.684   1.083   5.082 -0.9644  0.6241 -0.1898
  711THF     C811178   2.559   0.994   4.937  0.4279 -0.1264 -0.4852
  711THF     C911179   2.574   0.858   4.881 -0.0995  0.4512  0.1876
  711THF    H1011180   2.582   1.072   4.864 -1.2234 -0.4499 -1.3966
  711THF    H1111181   2.459   1.018   4.974  0.2275 -0.4588 -0.8133
  711THF    H1211182   2.501   0.797   4.934  0.0075 -0.9111 -1.1426
  711THF    H1311183   2.550   0.861   4.774 -0.5582  0.6388  0.2924
  712THF     O111184   5.416   4.929   1.774  0.0900  0.1731  0.3889
  712THF     C211185   5.339   4.812   1.788  0.7028 -0.2414 -0.5527
  712THF     C311186   5.554   4.892   1.779  0.0879 -0.2210  0.0894
  712THF     H411187   5.249   4.830   1.730  0.6560  0.6744 -0.1994
  712THF     H511188   5.309   4.784   1.889  0.9988  0.1471 -0.3582
  712THF     H611189   5.611   4.979   1.747  1.1647  0.0429  2.4502
  712THF     H711190   5.584   4.865   1.881 -0.3159  1.6297  0.7304
  712THF     C811191   5.558   4.766   1.687  0.8413  0.0730  0.2702
  712THF     C911192   5.424   4.700   1.725 -0.2872 -0.0793  0.4590
  712THF    H1011193   5.641   4.707   1.727  1.6988 -0.2284 -1.7985
  712THF    H1111194   5.574   4.781   1.580 -1.0310  0.7996  0.0606
  712THF    H1211195   5.384   4.672   1.628  1.3619 -1.6289  0.1694
  712THF    H1311196   5.435   4.619   1.797 -1.5526 -1.0726 -0.4221
  713THF     O111197   1.131   1.799   3.365 -0.0678 -0.1386  0.4293
  713THF     C211198   1.268   1.832   3.338  0.6502  0.1198  0.6884
  713THF     C311199   1.074   1.892   3.458 -0.6305 -0.3101  1.0368
  713THF     H411200   1.302   1.784   3.246 -1.3376  2.0721 -1.2027
  713THF     H511201   1.328   1.794   3.420 -1.2345 -0.5199  1.8166
  713THF     H611202   0.968   1.910   3.441 -0.7748  0.3028  2.4621
  713THF     H711203   1.088   1.855   3.560 -1.2968  2.5883  2.2884
  713THF     C811204   1.167   2.018   3.449 -0.8357  0.1335 -0.3765
  713THF     C911205   1.267   1.986   3.341  0.4781  0.1232 -0.3661
  713THF    H1011206   1.217   2.028   3.546  1.2723 -0.2117 -1.3716
  713THF    H1111207   1.102   2.101   3.423 -1.1802 -0.1524 -0.4334
  713THF    H1211208   1.219   2.024   3.251 -1.6997 -2.4829 -0.4265
  713THF    H1311209   1.361   2.038   3.361 -0.1158  1.2870 -0.5281
  714THF     O111210   4.086   3.420   2.901 -0.8639 -0.3091 -0.1619
  714THF     C211211   4.110   3.384   2.767  0.3998 -0.0917  0.2265
  714THF     C311212   4.131   3.553   2.905 -0.5676  0.3566  0.1028
  714THF     H411213   4.034   3.431   2.704  0.0496  0.5840  1.1258
  714THF     H511214   4.099   3.276   2.764  0.0573 -0.1954  2.9011
  714THF     H611215   4.050   3.617   2.871 -0.0945  0.7331 -0.3217
  714THF     H711216   4.165   3.586   3.004 -0.0084 -0.8934  0.3447
  714THF     C811217   4.257   3.568   2.817  0.0630 -0.4663 -0.8693
  714THF     C911218   4.246   3.434   2.736 -0.4276 -0.6910 -0.2009
  714THF    H1011219   4.347   3.568   2.879 -1.0420 -0.0609  0.7832
  714THF    H1111220   4.260   3.661   2.760  2.3035 -0.2381 -0.5032
  714THF    H1211221   4.272   3.459   2.633 -2.9923  1.9608 -0.3266
  714THF    H1311222   4.326   3.367   2.769  0.4718 -0.6602 -2.1447
  715THF     O111223   5.214   1.071   1.483  0.0525  0.2543 -0.5970
  715THF     C211224   5.150   1.171   1.560  0.3746  0.2136 -0.3287
  715THF     C311225   5.195   0.950   1.550 -0.5719 -0.0638 -0.5510
  715THF     H411226   5.043   1.163   1.543  0.3788 -2.9400  0.5374
  715THF     H511227   5.187   1.273   1.551 -0.3813  0.4945 -0.3365
  715THF     H611228   5.100   0.918   1.508 -0.7353 -0.3352  0.0137
  715THF     H711229   5.275   0.878   1.527 -1.7228 -0.8897 -2.2026
  715THF     C811230   5.204   0.981   1.700 -0.1760 -0.2489 -0.1508
  715THF     C911231   5.175   1.134   1.707 -0.4021  0.0623 -0.6540
  715THF    H1011232   5.304   0.974   1.742 -0.8187  0.6182  1.6028
  715THF    H1111233   5.129   0.924   1.755  0.2386  0.1861  0.8990
  715THF    H1211234   5.092   1.164   1.772  1.3421  0.5782  1.4474
  715THF    H1311235   5.265   1.183   1.742 -1.3314  3.0156 -2.0282
  716THF     O111236   1.702   5.169   0.150 -0.3275  0.2518  0.2329
  716THF     C211237   1.764   5.043   0.123  0.1884  0.0405  0.2419
  716THF     C311238   1.775   5.271   0.089  0.1449 -0.1511  0.3753
  716THF     H411239   1.684   4.978   0.088 -0.2283  1.1369 -0.9302
  716THF     H511240   1.807   4.997   0.212  1.1070  2.4549  1.1195
  716THF     H611241   1.715   5.308   0.006  0.2495  0.8053  0.7118
  716THF     H711242   1.788   5.353   0.160 -1.8751 -0.4388  1.1524
  716THF     C811243   1.914   5.210   0.060  0.2136  0.1218  0.6311
  716THF     C911244   1.866   5.075   0.009  0.0122 -0.1873 -0.2793
  716THF    H1011245   1.976   5.191   0.148  0.4734  3.1029  1.2112
  716THF    H1111246   1.977   5.269  -0.008  0.3288 -0.2103  0.4495
  716THF    H1211247   1.819   5.086  -0.089 -1.0276 -2.1364 -0.0425
  716THF    H1311248   1.944   5.003  -0.012 -1.7254 -2.3716  0.3331
  717THF     O111249   1.437   1.279   2.156  0.1424  0.2940  0.1018
  717THF     C211250   1.564   1.251   2.206  0.0645  0.1521  0.3343
  717THF     C311251   1.364   1.361   2.250 -0.0163 -0.6122 -0.2657
  717THF     H411252   1.639   1.221   2.132  0.7916 -1.2142  1.5732
  717THF     H511253   1.554   1.172   2.279 -0.2768 -0.3335 -0.2286
  717THF     H611254   1.316   1.431   2.181  1.5112  0.1442 -0.6064
  717THF     H711255   1.294   1.309   2.314  0.9791 -0.7831  0.7250
  717THF     C811256   1.475   1.427   2.333 -0.6301 -0.3369 -0.4430
  717THF     C911257   1.605   1.385   2.271  0.2722  0.1620 -0.4873
  717THF    H1011258   1.473   1.382   2.432  4.1767  0.6277  0.3074
  717THF    H1111259   1.460   1.534   2.349 -3.1706 -0.7802  0.6900
  717THF    H1211260   1.642   1.471   2.214  0.2717  1.4142  1.3356
  717THF    H1311261   1.673   1.357   2.351  0.1127  0.1963 -0.3412
  718THF     O111262   4.033   3.066   0.432 -0.0670 -0.1194  0.2911
  718THF     C211263   4.162   3.014   0.473  0.2056 -0.4285  0.7543
  718THF     C311264   3.941   2.990   0.501  0.5407 -0.0942 -0.4231
  718THF     H411265   4.181   3.061   0.569 -0.1499  3.2911 -0.8041
  718THF     H511266   4.240   3.041   0.402 -1.3418 -0.1261 -0.9186
  718THF     H611267   3.936   3.042   0.597  0.5696  0.7910 -0.8879
  718THF     H711268   3.842   2.983   0.454  1.0600  1.9163 -2.0094
  718THF     C811269   3.999   2.849   0.526 -0.0257  0.0073 -0.2480
  718THF     C911270   4.142   2.867   0.489  0.4206  0.2247  0.4152
  718THF    H1011271   3.942   2.768   0.479 -1.7753  1.8591 -1.4598
  718THF    H1111272   3.992   2.824   0.632  1.8361 -0.7915 -0.2702
  718THF    H1211273   4.211   2.810   0.551 -0.2142 -1.2068 -0.1426
  718THF    H1311274   4.160   2.832   0.387 -0.0358  0.3634  0.2823
  719THF     O111275   1.556   4.044   4.611  0.6275 -0.0058  0.2036
  719THF     C211276   1.506   4.132   4.508  0.3042  0.3382 -0.4163
  719THF     C311277   1.442   4.014   4.687 -0.0807  0.6294  0.4467
  719THF     H411278   1.472   4.074   4.422  1.1066  1.9112 -1.8512
  719THF     H511279   1.584   4.198   4.471 -0.6151  1.5266 -0.2839
  719THF     H611280   1.373   3.940   4.646  1.0753  0.2540 -0.9136
  719THF     H711281   1.461   3.972   4.786 -2.6049 -3.1894 -0.4692
  719THF     C811282   1.371   4.150   4.698 -0.1216 -0.0126  0.2757
  719THF     C911283   1.392   4.214   4.563 -0.7744 -0.1089  0.7267
  719THF    H1011284   1.424   4.211   4.772 -0.3556  2.4012 -1.4192
  719THF    H1111285   1.266   4.137   4.724 -0.6759  3.8146  0.5291
  719THF    H1211286   1.304   4.193   4.502 -0.9029  1.2426  0.4089
  719THF    H1311287   1.410   4.321   4.559  1.5074 -0.4933 -1.6389
  720THF     O111288   1.226   4.039   2.924 -0.0746  0.6068  0.1925
  720THF     C211289   1.313   3.984   3.017 -0.2745  0.0895 -0.6464
  720THF     C311290   1.116   3.952   2.917  0.5151 -0.5512  0.0757
  720THF     H411291   1.290   4.015   3.119  1.3170  0.5471 -0.3986
  720THF     H511292   1.409   4.027   2.990  0.8600 -1.8449  0.1482
  720THF     H611293   1.045   3.973   2.998  2.3048 -1.7391  2.0542
  720THF     H711294   1.068   3.964   2.820  0.3699  0.0840  0.2252
  720THF     C811295   1.175   3.812   2.935 -0.1146 -0.5765  0.0627
  720THF     C911296   1.301   3.832   3.017  0.7176  0.5434 -0.0262
  720THF    H1011297   1.201   3.783   2.833 -1.4053  1.2286 -0.8576
  720THF    H1111298   1.102   3.738   2.965 -0.5761  0.1491  0.7752
  720THF    H1211299   1.294   3.804   3.122  1.2481 -0.1615 -0.1733
  720THF    H1311300   1.379   3.773   2.969  0.8173  0.9281 -0.3443
  721THF     O111301   0.329   1.031   1.839  0.1379 -0.0025 -0.2514
  721THF     C211302   0.407   1.126   1.919  0.6916 -0.0116 -0.7642
  721THF     C311303   0.331   0.892   1.890  0.3222  0.4169  0.3392
  721THF     H411304   0.349   1.218   1.925 -0.4089 -0.7509  0.7204
  721THF     H511305   0.507   1.147   1.882  1.1232 -0.1195  0.3069
  721THF     H611306   0.235   0.848   1.918  0.1217  1.2258  0.9562
  721THF     H711307   0.387   0.827   1.822  0.3777  0.5505  0.2573
  721THF     C811308   0.397   0.904   2.026  0.5392  0.5001 -0.4008
  721THF     C911309   0.407   1.058   2.063 -0.5619  0.6833  0.6776
  721THF    H1011310   0.499   0.866   2.018  0.0046 -1.6600  1.5347
  721THF    H1111311   0.353   0.842   2.105  1.3420  2.2391  1.4884
  721THF    H1211312   0.319   1.077   2.124 -1.2057  0.1677 -0.0681
  721THF    H1311313   0.496   1.077   2.123 -0.5207 -0.1737  0.8988
  722THF     O111314   1.576   1.730   4.395 -0.2820 -0.5463  0.4139
  722THF     C211315   1.539   1.632   4.485  0.4076  0.1964 -0.7084
  722THF     C311316   1.450   1.769   4.330  0.0862 -0.2589 -0.2361
  722THF     H411317   1.474   1.678   4.559 -0.3746 -0.0275 -1.2516
  722THF     H511318   1.617   1.591   4.549 -1.2918 -1.4662  0.3802
  722THF     H611319   1.394   1.820   4.408 -1.3075 -2.2984  0.1691
  722THF     H711320   1.457   1.831   4.241 -2.5389  1.8315  0.8911
  722THF     C811321   1.378   1.638   4.314 -0.3482 -0.7674  0.2073
  722THF     C911322   1.454   1.543   4.400  0.1217 -0.4568 -0.0645
  722THF    H1011323   1.396   1.617   4.208 -1.1386 -0.6695  0.0495
  722THF    H1111324   1.271   1.644   4.333 -0.1562  0.9603  0.8656
  722THF    H1211325   1.385   1.488   4.464  1.9774 -0.0939  2.3892
  722THF    H1311326   1.508   1.472   4.338 -1.4246 -0.7207 -1.1662
  723THF     O111327   4.410   0.741   0.981 -0.0183 -0.1412  0.3795
  723THF     C211328   4.470   0.613   1.006  0.6681  0.4464  0.1831
  723THF     C311329   4.376   0.756   0.844 -0.0970  0.6824 -0.0060
  723THF     H411330   4.408   0.523   1.018  1.5222 -0.1235  0.3842
  723THF     H511331   4.532   0.602   1.095  1.8669  1.1351 -0.5401
  723THF     H611332   4.297   0.690   0.808  0.4152 -0.3058  0.6314
  723THF     H711333   4.346   0.856   0.812 -1.4867  1.3352  2.9875
  723THF     C811334   4.492   0.697   0.781 -0.1377 -0.2735 -0.7480
  723THF     C911335   4.555   0.599   0.883  0.4115  0.1165 -0.1114
  723THF    H1011336   4.559   0.775   0.747 -1.5268  1.3535  0.1030
  723THF    H1111337   4.470   0.641   0.690 -1.6309 -0.0507 -0.5526
  723THF    H1211338   4.558   0.496   0.847 -2.1023  0.5640 -1.9104
  723THF    H1311339   4.662   0.610   0.894  0.5477 -0.3429 -0.8549
  724THF     O111340   1.460   4.885   1.508 -0.1460 -0.3964 -0.0601
  724THF     C211341   1.432   4.975   1.616  0.1247 -0.3174  0.1968
  724THF     C311342   1.583   4.926   1.461  0.1210 -0.0594  0.1290
  724THF     H411343   1.350   4.923   1.665  0.0252 -0.9347 -0.5981
  724THF     H511344   1.390   5.067   1.576 -1.1803 -1.6031 -1.5702
  724THF     H611345   1.642   4.855   1.403  0.2534 -0.8219  1.1769
  724THF     H711346   1.590   5.023   1.412  0.9795  0.6915  1.6413
  724THF     C811347   1.664   4.931   1.596  0.3636  0.8568  0.2101
  724THF     C911348   1.560   5.005   1.686 -0.1576  0.3560  0.0505
  724THF    H1011349   1.753   4.987   1.567  1.0072 -0.7179 -1.0364
  724THF    H1111350   1.694   4.828   1.613  0.9933  0.9505 -0.2806
  724THF    H1211351   1.560   4.973   1.791 -1.2847  1.0848  0.2838
  724THF    H1311352   1.582   5.111   1.689  1.3023  0.0658  1.2866
  725THF     O111353   1.895   2.655   4.237 -0.4486 -0.0692  0.4197
  725THF     C211354   1.851   2.573   4.129  0.4831  0.3485 -0.9760
  725THF     C311355   1.904   2.786   4.185 -0.0100  0.4484 -0.4890
  725THF     H411356   1.742   2.577   4.132  0.5455  1.3408  0.4083
  725THF     H511357   1.886   2.470   4.141  3.1833  1.0893 -1.7460
  725THF     H611358   1.833   2.853   4.234 -0.3439 -0.4729  0.3171
  725THF     H711359   2.000   2.833   4.205 -0.4180  1.8401 -1.6142
  725THF     C811360   1.863   2.781   4.038 -0.0655 -0.4933 -0.0120
  725THF     C911361   1.876   2.641   3.995  0.4870  0.0548 -0.3848
  725THF    H1011362   1.915   2.847   3.968  2.5943 -1.1352  1.2517
  725THF    H1111363   1.755   2.801   4.039  0.2922  1.6322  1.3163
  725THF    H1211364   1.811   2.610   3.913 -0.8377 -1.7776  1.2549
  725THF    H1311365   1.982   2.621   3.981  1.1696  2.0234  1.5987
  726THF     O111366   5.458   0.789   3.854 -0.2032  0.2796 -0.1969
  726THF     C211367   5.459   0.654   3.819 -0.2882  0.3277  0.0815
  726THF     C311368   5.343   0.839   3.791  0.6173 -0.3060 -0.4537
  726THF     H411369   5.525   0.595   3.883 -2.2270 -0.2537  1.6310
  726THF     H511370   5.504   0.654   3.719  0.3404  2.0389  0.3307
  726THF     H611371   5.305   0.930   3.837  2.1508  0.8670 -1.4308
  726THF     H711372   5.369   0.859   3.687 -0.5509  0.4101 -0.6328
  726THF     C811373   5.239   0.727   3.819  0.3316 -0.1218 -0.1757
  726THF     C911374   5.314   0.605   3.825  0.2619 -0.4608  0.0311
  726THF    H1011375   5.153   0.722   3.752  0.8003 -0.0764 -0.7901
  726THF    H1111376   5.196   0.735   3.919 -0.8019  0.3435 -0.6874
  726THF    H1211377   5.304   0.551   3.919  0.4425 -1.8726 -0.7404
  726THF    H1311378   5.307   0.533   3.743 -0.0586  1.7873 -2.0304
  727THF     O111379   0.816   3.847   0.495 -0.1023 -0.0105 -0.0521
  727THF     C211380   0.953   3.863   0.491 -0.8621 -0.5882 -0.2328
  727THF     C311381   0.787   3.779   0.614 -0.1220 -0.2043  0.2998
  727THF     H411382   0.979   3.943   0.560  0.5858 -1.6872  0.5716
  727THF     H511383   0.991   3.899   0.396  0.0466  1.7246  0.9201
  727THF     H611384   0.766   3.860   0.685 -1.3110 -1.3550  1.3079
  727THF     H711385   0.692   3.729   0.594 -1.2405  1.6671  0.6421
  727THF     C811386   0.916   3.701   0.642  0.8395 -0.2477 -0.5972
  727THF     C911387   1.020   3.742   0.543  0.5419 -0.4184 -0.6258
  727THF    H1011388   0.900   3.593   0.642 -0.2782 -0.1049 -0.0870
  727THF    H1111389   0.942   3.732   0.743  0.9562  1.4317 -1.1115
  727THF    H1211390   1.118   3.774   0.579  1.6372 -3.1599 -0.9414
  727THF    H1311391   1.030   3.664   0.468 -0.6214 -1.3361  0.1339
  728THF     O111392   2.029   5.077   1.551 -0.1954  0.0580 -0.0049
  728THF     C211393   2.080   4.944   1.577  0.2017  0.9996 -0.2924
  728THF     C311394   2.035   5.149   1.675  0.7546 -0.0786 -0.0770
  728THF     H411395   2.186   4.935   1.552  0.1447 -0.2592 -0.1603
  728THF     H511396   2.019   4.874   1.520  0.8624  1.4175 -1.5287
  728THF     H611397   2.134   5.191   1.690  0.5804  0.5644 -0.6365
  728THF     H711398   1.966   5.234   1.673  0.5682 -0.2312 -0.1272
  728THF     C811399   1.988   5.045   1.778  0.6306 -0.3724 -0.4064
  728THF     C911400   2.056   4.918   1.732  0.0522  0.4526 -0.7810
  728THF    H1011401   1.879   5.039   1.771  0.4398  0.1318  1.5143
  728THF    H1111402   2.016   5.080   1.877  3.1138 -1.0062 -0.8270
  728THF    H1211403   2.146   4.902   1.790 -0.2655 -1.7921 -0.8157
  728THF    H1311404   1.991   4.834   1.756 -0.8572  1.1239 -0.8218
  729THF     O111405   3.243   2.939   3.281 -0.1320 -0.4994 -0.2000
  729THF     C211406   3.233   2.795   3.261  0.0515 -0.1148  0.5579
  729THF     C311407   3.119   2.995   3.330 -0.4479  0.2101 -0.4409
  729THF     H411408   3.306   2.741   3.322  1.3160 -1.7012 -2.1793
  729THF     H511409   3.261   2.765   3.160 -0.6520  0.2598  0.2474
  729THF     H611410   3.137   3.070   3.408 -1.3570 -0.5558  0.5405
  729THF     H711411   3.061   3.033   3.246 -1.3157 -2.8430 -1.3327
  729THF     C811412   3.037   2.883   3.393  0.3293  0.3250  0.2872
  729THF     C911413   3.090   2.766   3.302  0.3128 -0.4301  0.0282
  729THF    H1011414   2.931   2.892   3.372  0.4524 -1.3943 -1.3076
  729THF    H1111415   3.071   2.859   3.494  1.3052 -0.6344 -0.2481
  729THF    H1211416   3.077   2.668   3.347  1.4580  0.3702  2.2982
  729THF    H1311417   3.028   2.766   3.212  1.1836  0.3167 -0.5907
  730THF     O111418   2.202   4.067   5.303  0.5694 -0.6467  0.1219
  730THF     C211419   2.299   3.970   5.357  0.8861 -0.7282  0.4006
  730THF     C311420   2.096   3.989   5.240 -0.3581  0.7239 -0.0528
  730THF     H411421   2.272   3.942   5.459 -0.2527 -0.3963  0.2107
  730THF     H511422   2.402   4.003   5.350  0.2059  1.5912  0.5110
  730THF     H611423   2.034   3.942   5.317 -0.4979  0.9891 -0.0049
  730THF     H711424   2.040   4.049   5.169 -3.3429 -0.9419  0.7024
  730THF     C811425   2.163   3.871   5.173  0.5081  0.1855 -0.0417
  730THF     C911426   2.286   3.853   5.264 -0.5877  0.5900 -0.1172
  730THF    H1011427   2.197   3.906   5.075  0.6131  1.2464  0.3565
  730THF    H1111428   2.100   3.784   5.154 -1.6646  2.2862 -3.8172
  730THF    H1211429   2.288   3.758   5.317  1.4450  1.5370  1.6671
  730THF    H1311430   2.375   3.848   5.201 -0.5569  1.3613 -0.1408
  731THF     O111431   2.579   3.490   5.306 -0.1148  0.1585  0.4938
  731THF     C211432   2.671   3.406   5.366  0.6388 -0.3351  0.5365
  731THF     C311433   2.608   3.620   5.351 -0.0074  0.0041 -0.1336
  731THF     H411434   2.763   3.417   5.309 -0.6080  4.1739 -1.0582
  731THF     H511435   2.649   3.300   5.358  2.3523 -0.6025 -1.8270
  731THF     H611436   2.690   3.652   5.287  0.1939  0.4481  0.3392
  731THF     H711437   2.531   3.695   5.330  1.2763  1.1356 -0.9968
  731THF     C811438   2.653   3.609   5.501 -0.3570  0.0408 -0.2731
  731THF     C911439   2.696   3.463   5.507  0.1962  0.6481 -0.2934
  731THF    H1011440   2.570   3.633   5.567 -2.2731 -0.7955 -2.2812
  731THF    H1111441   2.743   3.666   5.523  0.1208 -0.3118 -1.2242
  731THF    H1211442   2.804   3.461   5.522  0.2611 -0.7765 -0.8194
  731THF    H1311443   2.641   3.405   5.581  0.8585 -0.6272 -0.7612
  732THF     O111444   1.372   1.348   0.959 -0.1447  0.1300 -0.1100
  732THF     C211445   1.367   1.245   1.058 -0.8738  0.3766 -0.2110
  732THF     C311446   1.343   1.465   1.030 -0.2532  1.3271 -0.4119
  732THF     H411447   1.461   1.238   1.113  0.4277 -0.0174 -2.3512
  732THF     H511448   1.362   1.156   0.996  0.4926  0.0603  0.0855
  732THF     H611449   1.439   1.492   1.074  0.5399 -2.6312  0.7323
  732THF     H711450   1.312   1.544   0.962 -0.5778 -0.0303 -1.8959
  732THF     C811451   1.243   1.423   1.135 -0.4732  0.9070 -0.4482
  732THF     C911452   1.258   1.273   1.161  0.1319  0.1668 -0.5528
  732THF    H1011453   1.146   1.430   1.085  0.4432 -0.9243 -2.6770
  732THF    H1111454   1.238   1.493   1.218 -0.0157 -0.2273  0.5728
  732THF    H1211455   1.288   1.255   1.264  0.6461  2.9807 -0.1262
  732THF    H1311456   1.169   1.221   1.125 -1.3669  2.5706 -0.5809
  733THF     O111457   4.571   0.167   2.134 -0.2147  0.1938 -0.3444
  733THF     C211458   4.648   0.210   2.024 -0.1575  0.0075  0.3878
  733THF     C311459   4.660   0.174   2.249  0.2247  0.0262 -0.1723
  733THF     H411460   4.587   0.284   1.974  0.0911 -0.2783 -0.3588
  733THF     H511461   4.653   0.122   1.960  2.7663 -0.1448  0.6867
  733THF     H611462   4.607   0.182   2.344  0.4177 -0.1153 -0.0523
  733THF     H711463   4.714   0.079   2.252  0.9783  0.3739 -1.8941
  733THF     C811464   4.750   0.288   2.218  0.1377  0.4188  0.9728
  733THF     C911465   4.785   0.265   2.074  0.9045  0.6791 -0.8928
  733THF    H1011466   4.834   0.297   2.286  2.2165 -0.7260 -1.2876
  733THF    H1111467   4.702   0.386   2.227  2.4650  1.4277  4.2031
  733THF    H1211468   4.828   0.347   2.018  2.5340  0.8196  0.4691
  733THF    H1311469   4.851   0.178   2.065  1.1842  0.8450 -0.4783
  734THF     O111470   0.530   5.150   0.333 -0.0962 -0.1123 -0.0737
  734THF     C211471   0.596   5.051   0.412 -0.1529 -0.9421  0.2730
  734THF     C311472   0.393   5.116   0.325 -0.0393 -0.1111  0.0377
  734THF     H411473   0.697   5.078   0.444  0.3509 -2.0165 -0.3325
  734THF     H511474   0.614   4.957   0.359  2.2210 -0.5669  0.2855
  734THF     H611475   0.331   5.205   0.311 -1.2519 -0.7797  0.9968
  734THF     H711476   0.381   5.050   0.239 -0.9278 -3.4263  2.4820
  734THF     C811477   0.367   5.056   0.467 -0.9638 -0.2856  0.4394
  734THF     C911478   0.503   5.026   0.530  0.6965  0.3471  0.3618
  734THF    H1011479   0.302   4.969   0.470 -2.0332  0.4845  0.3055
  734THF    H1111480   0.319   5.135   0.525 -1.7576  1.0329 -1.8682
  734THF    H1211481   0.524   5.086   0.618 -0.3677 -1.9526  2.2980
  734THF    H1311482   0.503   4.923   0.564  0.3010  0.0800 -0.4111
  735THF     O111483   3.921   1.941   0.506  0.1159 -0.1111 -0.1023
  735THF     C211484   3.950   1.946   0.645  0.7508  0.1137  0.2484
  735THF     C311485   3.834   1.826   0.495  0.1326 -0.0334  0.2570
  735THF     H411486   3.860   1.986   0.690  0.3280 -1.4219  0.8537
  735THF     H511487   4.037   2.009   0.664 -0.0741  0.8941  1.5345
  735THF     H611488   3.739   1.856   0.539 -0.6715 -2.5326  0.3739
  735THF     H711489   3.815   1.788   0.394 -1.0279  0.6178  0.2182
  735THF     C811490   3.913   1.717   0.573  0.2097 -0.3240  0.6940
  735THF     C911491   3.977   1.797   0.682  0.3934  0.2729 -0.3607
  735THF    H1011492   3.978   1.668   0.501 -0.2734 -1.6063  1.1062
  735THF    H1111493   3.836   1.648   0.607 -1.2999  2.6004  3.8201
  735THF    H1211494   3.938   1.773   0.780  3.0112 -0.5862  0.5436
  735THF    H1311495   4.083   1.776   0.682  0.1178 -1.1977  0.5829
  736THF     O111496   2.420   0.547   1.354  0.2166  0.0734  0.2721
  736THF     C211497   2.348   0.531   1.228 -0.0392  0.3910  0.2672
  736THF     C311498   2.478   0.415   1.384  0.3855  0.0100  0.3208
  736THF     H411499   2.416   0.548   1.144 -0.1772  1.3032  0.3326
  736THF     H511500   2.265   0.602   1.218  0.4370  1.7818  4.3416
  736THF     H611501   2.576   0.410   1.337  0.1971  0.0727 -0.0825
  736THF     H711502   2.496   0.415   1.491 -0.4326 -1.0013  0.4758
  736THF     C811503   2.385   0.310   1.322 -0.0390  0.5466  0.5213
  736THF     C911504   2.289   0.391   1.235 -0.0857 -0.2399 -0.4850
  736THF    H1011505   2.338   0.248   1.398 -3.4596  1.8981 -0.2770
  736THF    H1111506   2.444   0.237   1.266  0.0832  1.1551 -0.1611
  736THF    H1211507   2.256   0.348   1.141  1.4616  0.9787 -1.6432
  736THF    H1311508   2.202   0.412   1.297  0.2841 -0.3299  0.0803
  737THF     O111509   1.524   3.721   4.967  0.1761  0.3527  0.5028
  737THF     C211510   1.598   3.839   4.975  0.0894 -0.1880  0.2305
  737THF     C311511   1.543   3.654   5.092 -0.5768 -0.7111  0.1819
  737THF     H411512   1.521   3.911   5.004 -0.6967  0.0423 -2.1672
  737THF     H511513   1.638   3.883   4.884 -0.2576  0.7125  0.5056
  737THF     H611514   1.474   3.690   5.169  1.4657 -0.5172  2.0309
  737THF     H711515   1.531   3.546   5.080  1.3143 -0.6928 -3.0511
  737THF     C811516   1.681   3.687   5.145  0.2197  0.1896  0.3937
  737THF     C911517   1.693   3.830   5.093  0.1945 -0.2443 -0.0325
  737THF    H1011518   1.744   3.621   5.086 -0.2562  1.7871 -2.0114
  737THF    H1111519   1.708   3.671   5.250  1.8821  1.5760  0.2202
  737THF    H1211520   1.657   3.903   5.165 -0.7431  0.3752 -1.0955
  737THF    H1311521   1.794   3.863   5.070 -0.3107  0.3617 -1.5120
  738THF     O111522   3.481   0.037   3.999 -0.0653  0.7074 -0.5501
  738THF     C211523   3.453   0.165   3.964 -0.0960 -0.9612 -0.9809
  738THF     C311524   3.375  -0.014   4.082 -1.0717 -0.4312 -0.1507
  738THF     H411525   3.521   0.187   3.882  4.2089 -1.2914  2.1096
  738THF     H511526   3.476   0.229   4.049 -4.3822  0.7954 -0.8786
  738THF     H611527   3.356  -0.119   4.060  1.2862 -0.9052 -0.1903
  738THF     H711528   3.390   0.014   4.186 -2.3574  0.2532 -0.1338
  738THF     C811529   3.253   0.074   4.039 -0.4291 -0.5000  0.1534
  738THF     C911530   3.311   0.158   3.929  1.0560 -0.1108  0.3603
  738THF    H1011531   3.208   0.136   4.117  0.7716  0.0938  0.3934
  738THF    H1111532   3.167   0.014   4.008  0.1094 -1.0100 -0.3784
  738THF    H1211533   3.310   0.103   3.835 -1.2685 -0.0576  0.2784
  738THF    H1311534   3.251   0.247   3.910  0.5733 -0.8799 -2.1301
  739THF     O111535   4.326   4.591   2.921  0.5006  0.0806  0.1101
  739THF     C211536   4.285   4.546   3.050  0.1190  0.0702 -0.2556
  739THF     C311537   4.346   4.733   2.932  0.2552 -0.0031  0.5029
  739THF     H411538   4.369   4.546   3.119  0.5646 -0.9108 -0.7733
  739THF     H511539   4.238   4.447   3.042 -1.4925  0.7838  0.0218
  739THF     H611540   4.451   4.762   2.937 -0.4206  2.6310  1.3843
  739THF     H711541   4.309   4.787   2.844 -0.5694 -0.9884  0.2244
  739THF     C811542   4.272   4.785   3.048 -0.9991 -0.6654  0.7449
  739THF     C911543   4.192   4.662   3.089  0.5089 -0.1537 -0.1983
  739THF    H1011544   4.213   4.871   3.018  1.7425  1.4333  1.0713
  739THF    H1111545   4.336   4.812   3.132 -1.6957  2.2399  0.4276
  739THF    H1211546   4.166   4.671   3.195 -1.1097 -0.1582 -0.5734
  739THF    H1311547   4.104   4.653   3.026  0.5443 -1.2767 -0.1082
  740THF     O111548   4.191   0.217   1.803 -0.5498  0.2059  0.5495
  740THF     C211549   4.269   0.225   1.916 -0.5189  0.4774  0.0724
  740THF     C311550   4.146   0.080   1.792 -0.1424  0.2880  0.7925
  740THF     H411551   4.286   0.326   1.953  2.6616 -0.2690  0.9856
  740THF     H511552   4.363   0.176   1.891  0.3595  1.2595  1.6736
  740THF     H611553   4.064   0.075   1.721 -0.4338 -0.0416  1.1524
  740THF     H711554   4.230   0.031   1.742 -0.6056  2.1544 -2.0278
  740THF     C811555   4.113   0.045   1.932 -0.1460  0.5243 -0.0712
  740THF     C911556   4.194   0.144   2.017  0.2438  0.5813 -0.1882
  740THF    H1011557   4.149  -0.055   1.956 -1.5962 -0.3646 -1.4713
  740THF    H1111558   4.005   0.046   1.942 -0.1628  0.2285 -0.2161
  740THF    H1211559   4.127   0.211   2.071  0.8843  0.7094  0.4655
  740THF    H1311560   4.263   0.100   2.089  1.1454  2.2781  0.0451
  741THF     O111561   4.776   0.586   0.005 -0.4074  0.1468 -0.1796
  741THF     C211562   4.715   0.492  -0.075  0.9274 -0.1470  0.0175
  741THF     C311563   4.678   0.649   0.095 -0.2200 -0.2417 -0.0880
  741THF     H411564   4.684   0.403  -0.021 -0.3542 -0.6939 -1.5247
  741THF     H511565   4.774   0.463  -0.162  1.1294  0.6722 -0.1251
  741THF     H611566   4.672   0.605   0.194  0.0640  0.6700  0.3404
  741THF     H711567   4.713   0.750   0.114 -0.3544 -0.2347  0.1183
  741THF     C811568   4.548   0.650   0.014 -0.4083  0.6617  0.4434
  741THF     C911569   4.584   0.567  -0.112  0.6112 -1.0455  0.3788
  741THF    H1011570   4.525   0.752  -0.016 -1.9781 -0.1004 -1.1998
  741THF    H1111571   4.468   0.597   0.065  0.9398  0.4976  2.4840
  741THF    H1211572   4.508   0.492  -0.135 -1.1902  0.6366  0.5078
  741THF    H1311573   4.584   0.618  -0.208 -0.1900 -0.5628  0.6186
  742THF     O111574   4.779   3.756   4.408 -0.0017  0.4306  0.4018
  742THF     C211575   4.694   3.744   4.293 -0.0377  0.7733  0.2613
  742THF     C311576   4.915   3.732   4.363 -0.1947  0.5975 -0.0030
  742THF     H411577   4.686   3.841   4.245 -1.7025  0.3137 -0.4851
  742THF     H511578   4.590   3.719   4.317  0.5864 -0.4642  1.8388
  742THF     H611579   4.954   3.821   4.314 -2.1157  1.9974  0.8702
  742THF     H711580   4.988   3.719   4.442  0.2804 -2.3161 -0.8108
  742THF     C811581   4.891   3.614   4.264 -0.6158 -0.3667  0.0045
  742THF     C911582   4.758   3.643   4.201 -0.2518  0.5390 -0.2052
  742THF    H1011583   4.889   3.525   4.327  1.0093  0.5663  1.4731
  742THF    H1111584   4.972   3.608   4.192 -0.6771 -0.3770 -0.0636
  742THF    H1211585   4.776   3.693   4.106  0.9116  1.1462  0.3158
  742THF    H1311586   4.698   3.555   4.176 -0.9520  1.2031 -0.8816
  743THF     O111587   2.823   1.892   2.500 -0.0156 -0.0437 -0.4880
  743THF     C211588   2.721   1.954   2.425 -1.2095 -0.2111  0.1240
  743THF     C311589   2.880   1.995   2.579 -0.4129  1.2717  0.3373
  743THF     H411590   2.645   1.981   2.499 -0.0102 -0.4776  1.4844
  743THF     H511591   2.678   1.881   2.356  0.3388 -1.4961  0.4629
  743THF     H611592   2.823   2.007   2.671 -2.9610 -0.5320 -0.8983
  743THF     H711593   2.983   1.973   2.607 -0.2042  2.7304  0.7847
  743THF     C811594   2.883   2.121   2.488 -0.3263 -0.1256  0.0868
  743THF     C911595   2.786   2.085   2.369 -0.0934 -0.3548 -0.1813
  743THF    H1011596   2.977   2.126   2.433 -0.7753  0.8071 -0.6239
  743THF    H1111597   2.869   2.215   2.542 -0.4005  2.1051 -3.4903
  743THF    H1211598   2.722   2.171   2.348  0.9275 -0.1173 -2.7994
  743THF    H1311599   2.838   2.067   2.274  0.7108  0.3906  0.0983
  744THF     O111600   4.512   0.113   1.119 -0.1231  0.1281 -0.6181
  744THF     C211601   4.600   0.198   1.196 -0.1566 -0.2450 -0.4778
  744THF     C311602   4.576  -0.009   1.111 -0.1328  0.1605 -0.2926
  744THF     H411603   4.585   0.189   1.304  0.7551 -2.2192 -0.4866
  744THF     H511604   4.580   0.304   1.174 -1.6954 -0.7284 -1.6466
  744THF     H611605   4.546  -0.078   1.190 -1.1807  0.5687 -0.3083
  744THF     H711606   4.550  -0.051   1.014  1.9818  0.0001 -0.8284
  744THF     C811607   4.726   0.013   1.121 -0.1935  0.3110  0.4213
  744THF     C911608   4.740   0.158   1.151  0.7032  0.3793 -0.2598
  744THF    H1011609   4.775  -0.024   1.031 -2.2204 -1.6302  0.0270
  744THF    H1111610   4.766  -0.043   1.206  1.8040  0.2831 -0.4830
  744THF    H1211611   4.808   0.170   1.235  0.4161 -1.7992  0.3372
  744THF    H1311612   4.777   0.212   1.063 -0.8402  0.6331 -0.7870
  745THF     O111613   2.826   3.932   1.009  0.5813 -0.2259  0.1364
  745THF     C211614   2.852   3.949   0.876 -0.4767 -0.4213 -0.0048
  745THF     C311615   2.698   3.983   1.034 -0.1056  0.0395  0.0884
  745THF     H411616   2.917   3.871   0.836 -1.5326 -0.2732 -2.1809
  745THF     H511617   2.899   4.044   0.849 -1.2346 -0.0232  0.0600
  745THF     H611618   2.662   3.950   1.132  1.7731  0.1942  0.8751
  745THF     H711619   2.691   4.089   1.010 -3.0829 -0.5140 -2.0275
  745THF     C811620   2.621   3.907   0.924  0.5270  0.5359 -0.6407
  745THF     C911621   2.715   3.918   0.808  1.0173 -1.0670 -0.0606
  745THF    H1011622   2.526   3.958   0.907  0.8804  1.6585  0.5723
  745THF    H1111623   2.603   3.801   0.940  1.5218  0.0341 -2.5216
  745THF    H1211624   2.724   3.822   0.756  2.0686 -2.1295  1.9442
  745THF    H1311625   2.683   3.998   0.742  0.0786 -0.3227  1.2658
  746THF     O111626   0.729   2.205   3.333 -0.1691  0.2815  0.4682
  746THF     C211627   0.817   2.272   3.245  0.1973 -0.1449 -0.3285
  746THF     C311628   0.780   2.211   3.459 -0.1133  0.6653  0.3075
  746THF     H411629   0.760   2.297   3.155  1.9812 -0.2925 -1.5499
  746THF     H511630   0.897   2.204   3.217  0.0938 -0.0843 -0.7813
  746THF     H611631   0.702   2.225   3.534  0.5128  1.4556  0.8260
  746THF     H711632   0.825   2.114   3.479 -0.1722  0.2527 -1.3742
  746THF     C811633   0.879   2.318   3.466  0.0826  0.3830 -0.1400
  746THF     C911634   0.865   2.387   3.333 -0.1273  0.1851 -0.0831
  746THF    H1011635   0.981   2.286   3.486  0.3800  2.3899  2.0328
  746THF    H1111636   0.864   2.379   3.555  0.5339 -0.5941  0.6345
  746THF    H1211637   0.802   2.475   3.329 -0.2185  0.2082  1.3368
  746THF    H1311638   0.964   2.418   3.297 -0.2438 -0.1306 -0.6909
  747THF     O111639   3.749   2.242   2.302 -0.5185  0.5713  0.5012
  747THF     C211640   3.856   2.316   2.346 -0.2394 -0.5216 -0.2604
  747THF     C311641   3.712   2.314   2.183 -0.2989  0.0540  0.1302
  747THF     H411642   3.937   2.301   2.275  0.9603 -1.2998  1.2188
  747THF     H511643   3.886   2.298   2.449 -0.6946  0.3024  0.0346
  747THF     H611644   3.785   2.287   2.106 -0.9148  0.2118 -0.5221
  747THF     H711645   3.610   2.294   2.151  0.2390 -1.8917 -0.5774
  747THF     C811646   3.720   2.463   2.219 -0.3305  0.1867  0.5280
  747THF     C911647   3.801   2.463   2.343 -0.2184  0.4069 -0.3170
  747THF    H1011648   3.618   2.495   2.239 -0.7450 -1.1856  0.6888
  747THF    H1111649   3.768   2.509   2.133 -1.7987  0.3591 -0.2294
  747THF    H1211650   3.872   2.545   2.354  1.3549 -1.1595  2.0893
  747THF    H1311651   3.734   2.470   2.429  0.2357 -0.6964  0.1422
  748THF     O111652   1.406   3.139   5.261  0.0042  0.3189  0.3654
  748THF     C211653   1.272   3.149   5.281  0.6960 -0.2935 -0.4034
  748THF     C311654   1.455   3.275   5.244  0.1994  0.0281  0.1146
  748THF     H411655   1.256   3.190   5.381  0.5671  0.9301 -0.9060
  748THF     H511656   1.215   3.056   5.274 -0.2107  0.3195 -1.5591
  748THF     H611657   1.430   3.337   5.329  0.1837  0.0536  0.0913
  748THF     H711658   1.562   3.277   5.229  0.0626 -1.8906 -1.6092
  748THF     C811659   1.357   3.319   5.138  0.2246  0.1003  0.2619
  748THF     C911660   1.226   3.247   5.170  0.6600 -0.1316  0.3492
  748THF    H1011661   1.387   3.279   5.041  1.0541  0.3642  0.4010
  748THF    H1111662   1.341   3.427   5.135 -0.0133  0.1485  2.1525
  748THF    H1211663   1.143   3.311   5.199  0.0439  0.3648 -2.2397
  748THF    H1311664   1.190   3.195   5.081 -2.3188 -0.5531  1.6666
  749THF     O111665   0.782   0.062   3.847  0.6951 -0.6142 -0.0008
  749THF     C211666   0.718   0.147   3.938  0.1288 -0.6320 -0.3065
  749THF     C311667   0.675  -0.026   3.798  0.0168 -0.0749 -0.4921
  749THF     H411668   0.777   0.238   3.947  0.4300 -0.7538 -1.0109
  749THF     H511669   0.720   0.098   4.036  0.1415 -1.2132 -0.5914
  749THF     H611670   0.717  -0.074   3.710  0.0614 -1.0880  0.0677
  749THF     H711671   0.661  -0.104   3.872  1.4293  1.0244  0.9981
  749THF     C811672   0.560   0.073   3.765 -0.8858  0.5162  0.0889
  749THF     C911673   0.581   0.178   3.876  0.6176  0.1307  0.5112
  749THF    H1011674   0.465   0.019   3.764 -0.9843  0.6856 -0.3800
  749THF    H1111675   0.578   0.120   3.668  1.8660 -0.0852  0.2386
  749THF    H1211676   0.583   0.282   3.841  1.0173  0.0618  0.3272
  749THF    H1311677   0.506   0.171   3.955  1.1784  1.5221  1.2117
  750THF     O111678   3.310   1.312   0.929  0.3952  0.0870 -0.3829
  750THF     C211679   3.375   1.266   1.048 -0.3462 -0.3332  0.5224
  750THF     C311680   3.206   1.215   0.893  0.5874 -0.0189 -0.2792
  750THF     H411681   3.401   1.351   1.111 -0.9147 -0.4453  0.9109
  750THF     H511682   3.470   1.228   1.011 -0.3182  1.5730 -1.5455
  750THF     H611683   3.110   1.265   0.905  1.4552  2.2845 -2.0473
  750THF     H711684   3.218   1.192   0.787 -0.2145 -0.8288 -0.2070
  750THF     C811685   3.212   1.097   0.988  0.0157  0.4696 -0.1587
  750THF     C911686   3.287   1.150   1.102 -0.9508  0.2591 -1.0808
  750THF    H1011687   3.279   1.022   0.945 -1.1085 -1.1226  0.7780
  750THF    H1111688   3.116   1.053   1.015 -0.1939  1.3387  0.5497
  750THF    H1211689   3.216   1.191   1.173  1.7210 -0.5356  2.3119
  750THF    H1311690   3.335   1.071   1.160 -0.2363 -0.4604 -2.5782
  751THF     O111691   0.987   1.902   2.986  0.0538  0.4251  0.2002
  751THF     C211692   1.072   1.794   3.006 -0.1265  0.1627 -0.2609
  751THF     C311693   0.906   1.918   3.101  0.0381 -0.2435 -0.2274
  751THF     H411694   1.152   1.819   3.076 -0.4514 -0.4087  0.3288
  751THF     H511695   1.125   1.772   2.913 -0.5317  0.8239 -0.6577
  751THF     H611696   0.964   1.956   3.185 -1.0860 -0.2219  0.5582
  751THF     H711697   0.830   1.994   3.083 -1.5116 -2.0616 -1.7324
  751THF     C811698   0.859   1.776   3.121 -0.7486  0.4925 -0.1715
  751THF     C911699   0.971   1.696   3.052  0.3932  0.1686  0.0484
  751THF    H1011700   0.762   1.746   3.081 -0.7954 -3.7899  2.5137
  751THF    H1111701   0.839   1.758   3.227  0.5913  0.2151  0.0419
  751THF    H1211702   1.012   1.627   3.125  3.0273  1.1779 -0.3640
  751THF    H1311703   0.923   1.644   2.969 -2.1093  0.1319  1.4382
  752THF     O111704   3.957   2.501   1.804  0.3424  0.0297 -0.3087
  752THF     C211705   3.935   2.369   1.864  0.1622 -0.3825  0.2555
  752THF     C311706   4.082   2.546   1.855  0.4331 -0.3249  0.6504
  752THF     H411707   3.867   2.298   1.817 -0.2025 -0.5321  1.0063
  752THF     H511708   3.924   2.395   1.969  3.4498  1.1739  0.3432
  752THF     H611709   4.136   2.589   1.772  0.9449 -2.2555 -0.0650
  752THF     H711710   4.055   2.618   1.933 -0.5256 -1.4726  1.4255
  752THF     C811711   4.150   2.434   1.920 -0.4765 -0.2827 -0.4675
  752THF     C911712   4.074   2.316   1.860 -0.2148  0.0883 -0.0296
  752THF    H1011713   4.138   2.443   2.028  0.7951  0.8935 -0.3917
  752THF    H1111714   4.257   2.444   1.900  0.0924  0.0812  2.3843
  752THF    H1211715   4.113   2.310   1.758  2.2449  1.3869  0.7379
  752THF    H1311716   4.094   2.219   1.907  2.7723  0.4383 -0.3324
  753THF     O111717   2.532   1.919   5.261  0.2803 -0.6029 -0.5384
  753THF     C211718   2.649   1.839   5.235  0.0247 -0.4923 -0.9338
  753THF     C311719   2.438   1.906   5.157 -0.1744 -0.1403 -0.0071
  753THF     H411720   2.631   1.734   5.261  1.6989 -0.1169  2.2455
  753THF     H511721   2.744   1.874   5.275 -0.5932 -0.1973  0.3295
  753THF     H611722   2.363   1.831   5.181 -1.7146  1.0206 -0.9920
  753THF     H711723   2.398   2.001   5.123  0.9206  0.6233  0.7698
  753THF     C811724   2.514   1.836   5.049  0.7328 -0.1692  0.7290
  753THF     C911725   2.657   1.852   5.083 -0.1306 -0.5911 -0.8062
  753THF    H1011726   2.491   1.883   4.953  1.2049  1.7642  1.5242
  753THF    H1111727   2.492   1.729   5.059  0.9371 -0.2929 -0.0952
  753THF    H1211728   2.718   1.775   5.034  1.5751  0.0783  0.1753
  753THF    H1311729   2.695   1.952   5.061 -0.2421 -0.4115 -0.1845
  754THF     O111730   0.907   0.081   1.316 -0.7520 -0.0635 -0.0946
  754THF     C211731   0.829   0.123   1.434 -0.1352  0.2694 -0.2379
  754THF     C311732   0.911  -0.066   1.319 -0.1412 -0.3510  0.3490
  754THF     H411733   0.785   0.222   1.424 -1.1367 -0.2141 -0.7469
  754THF     H511734   0.889   0.140   1.524 -0.2945  0.3167 -0.1396
  754THF     H611735   0.856  -0.105   1.233  0.0341  0.2553 -0.0457
  754THF     H711736   1.013  -0.101   1.310  0.6462  1.9372 -0.3423
  754THF     C811737   0.827  -0.107   1.440  0.5118  0.3578  0.4192
  754THF     C911738   0.735   0.008   1.465  0.9230 -0.4119 -0.3697
  754THF    H1011739   0.905  -0.111   1.516  2.9744  1.9620 -1.8603
  754THF    H1111740   0.797  -0.210   1.425 -0.8676  0.8731 -0.5023
  754THF    H1211741   0.648   0.005   1.399  1.5204 -0.2955 -1.1753
  754THF    H1311742   0.693  -0.004   1.565 -0.5802  2.7228 -0.5022
  755THF     O111743   4.705   0.138   2.713 -0.3987  0.3402  0.1721
  755THF     C211744   4.638   0.258   2.691  0.4742 -0.3467 -0.0300
  755THF     C311745   4.628   0.061   2.803 -0.5110  0.8740 -0.0281
  755THF     H411746   4.580   0.239   2.601  0.3429 -2.4503  0.4699
  755THF     H511747   4.717   0.329   2.664 -1.5211  2.0067 -0.0932
  755THF     H611748   4.577   0.003   2.726  2.0914 -1.8631  0.1166
  755THF     H711749   4.701   0.009   2.865 -1.9339 -1.6630 -0.3765
  755THF     C811750   4.537   0.150   2.888  0.4956  0.3924  0.2046
  755THF     C911751   4.556   0.280   2.816  0.4248 -0.0949  0.4193
  755THF    H1011752   4.571   0.145   2.991  1.0268 -2.8335 -0.0266
  755THF    H1111753   4.437   0.108   2.876  1.4179 -1.7986 -0.3674
  755THF    H1211754   4.464   0.337   2.806 -0.1974 -0.8634  1.5285
  755THF    H1311755   4.611   0.352   2.876 -1.1772  0.9269  0.7174
  756THF     O111756   4.895   1.464   1.143 -0.7308 -0.2636  0.4081
  756THF     C211757   4.956   1.515   1.258  0.1755  0.1994  0.2935
  756THF     C311758   4.929   1.327   1.152 -0.2733  0.5908  0.2196
  756THF     H411759   4.904   1.607   1.285  1.2845  0.1080  3.0871
  756THF     H511760   5.064   1.527   1.244  0.0414  0.9016 -0.2059
  756THF     H611761   4.884   1.260   1.079  0.4877 -0.2582  0.5082
  756THF     H711762   5.036   1.315   1.135 -0.2744 -0.0650  0.6177
  756THF     C811763   4.886   1.287   1.292 -0.6733 -0.2661 -0.5504
  756THF     C911764   4.919   1.415   1.361  0.3974  0.6193  0.4074
  756THF    H1011765   4.950   1.209   1.332  0.0208  0.1005 -0.9402
  756THF    H1111766   4.780   1.263   1.308 -0.4606  0.1571  1.9436
  756THF    H1211767   4.824   1.453   1.397  0.6047  1.3880  0.1545
  756THF    H1311768   4.987   1.394   1.444 -1.6683 -2.6802  1.4512
  757THF     O111769   0.198   2.280   2.704  0.3957 -0.6533 -0.2721
  757THF     C211770   0.326   2.305   2.651  0.0284 -0.4366 -0.1719
  757THF     C311771   0.189   2.154   2.759  0.2917  0.9907  0.3920
  757THF     H411772   0.342   2.413   2.652 -2.0624 -0.0845  0.9306
  757THF     H511773   0.345   2.262   2.553  2.6323 -1.1121  0.5679
  757THF     H611774   0.113   2.147   2.836  0.5674  0.0468  0.5901
  757THF     H711775   0.182   2.079   2.680 -0.8356  0.1720  1.2382
  757THF     C811776   0.327   2.141   2.820  0.3669  0.0028  0.9138
  757THF     C911777   0.422   2.233   2.749 -0.1002 -0.6886 -0.2553
  757THF    H1011778   0.369   2.041   2.814 -0.6792 -0.4747  1.2889
  757THF    H1111779   0.322   2.161   2.927 -1.3371  0.2833  0.8099
  757THF    H1211780   0.459   2.305   2.822  0.1903 -1.4611  0.3755
  757THF    H1311781   0.515   2.201   2.702  1.4576  2.0680  0.6946
  758THF     O111782   3.739   4.508   3.108 -0.2850 -0.1870 -0.2767
  758THF     C211783   3.870   4.517   3.163 -0.1885 -0.0157  0.6208
  758THF     C311784   3.738   4.377   3.050 -0.5350 -0.1434 -1.1012
  758THF     H411785   3.870   4.607   3.225  0.9312  0.6995 -0.3683
  758THF     H511786   3.935   4.529   3.076 -0.4827  1.7483  0.5911
  758THF     H611787   3.630   4.360   3.054 -0.3204 -1.3144  0.9904
  758THF     H711788   3.780   4.368   2.950  3.2828 -0.8584  0.3976
  758THF     C811789   3.800   4.288   3.165 -0.2802  0.5593 -0.0865
  758THF     C911790   3.878   4.394   3.245  0.2903  0.2632 -0.4984
  758THF    H1011791   3.860   4.203   3.130 -0.5322  0.0548  0.6987
  758THF    H1111792   3.720   4.248   3.226  0.8001 -2.0709 -0.2819
  758THF    H1211793   3.824   4.416   3.337  0.1228 -2.7341  0.2291
  758THF    H1311794   3.984   4.374   3.263 -0.0109 -0.8449  0.1637
  759THF     O111795   3.223   5.035   1.721 -0.5175  0.2901  0.0646
  759THF     C211796   3.335   5.034   1.813  0.5999 -0.0812 -0.1044
  759THF     C311797   3.281   5.013   1.592 -0.2025 -0.2661 -0.0320
  759THF     H411798   3.297   5.044   1.915 -1.4215  1.2991 -0.9248
  759THF     H511799   3.393   5.123   1.789 -1.3731  0.6898 -2.4263
  759THF     H611800   3.208   4.978   1.519  2.1458 -0.9360 -2.2049
  759THF     H711801   3.327   5.100   1.546  2.0451 -1.1909  0.3176
  759THF     C811802   3.365   4.891   1.623 -0.2595 -0.0587 -0.7598
  759THF     C911803   3.409   4.910   1.772 -0.0030 -0.1651  0.0973
  759THF    H1011804   3.453   4.911   1.563  0.1651  0.6727  0.0707
  759THF    H1111805   3.310   4.798   1.611 -0.2443 -0.5479  2.1411
  759THF    H1211806   3.379   4.826   1.835 -4.1388  1.0966  0.0801
  759THF    H1311807   3.515   4.934   1.786  0.2256 -0.2171 -1.4188
  760THF     O111808   4.610   3.266   0.572  0.1930 -0.0934  0.2716
  760THF     C211809   4.594   3.405   0.553  0.0123  0.7039 -0.2483
  760THF     C311810   4.647   3.248   0.708  0.4863 -0.1725  0.0519
  760THF     H411811   4.517   3.453   0.613  1.4930  4.2354 -0.9501
  760THF     H511812   4.579   3.421   0.446 -1.3590 -1.6787 -0.4978
  760THF     H611813   4.559   3.264   0.771  0.7143 -0.1575  0.3650
  760THF     H711814   4.689   3.151   0.732  0.2654 -0.2876 -0.0202
  760THF     C811815   4.748   3.366   0.726  0.5657  0.5228 -0.1436
  760THF     C911816   4.728   3.450   0.603 -0.1415 -0.2356  0.1554
  760THF    H1011817   4.844   3.318   0.711 -0.0881 -0.4088 -1.5910
  760THF    H1111818   4.726   3.410   0.823 -3.2117 -1.1960 -0.0214
  760THF    H1211819   4.728   3.557   0.623  2.6349 -0.1058 -0.1592
  760THF    H1311820   4.804   3.430   0.528  0.8400 -0.2235  1.1273
  761THF     O111821   3.179   5.255   2.121  0.4772  0.1588 -0.1259
  761THF     C211822   3.302   5.275   2.167 -0.5710 -0.0373 -0.1528
  761THF     C311823   3.091   5.314   2.214  0.8296  0.6410 -0.2490
  761THF     H411824   3.365   5.285   2.078  1.3874 -1.0299  1.0673
  761THF     H511825   3.339   5.195   2.231  0.0506 -0.1829 -0.6848
  761THF     H611826   2.999   5.360   2.178  1.0469  1.3586  0.0907
  761THF     H711827   3.050   5.233   2.274 -0.6687  2.4731  1.3346
  761THF     C811828   3.174   5.414   2.296  1.0564 -0.3055 -0.4700
  761THF     C911829   3.303   5.408   2.240 -0.5895  0.4330  0.0838
  761THF    H1011830   3.183   5.376   2.397  1.5296  0.2948 -0.2794
  761THF    H1111831   3.131   5.514   2.289 -1.0532 -1.2448 -2.3319
  761THF    H1211832   3.319   5.491   2.172  2.2694  0.3596  0.5198
  761THF    H1311833   3.381   5.423   2.314 -0.3318 -0.5257  0.0230
  762THF     O111834   3.618   3.848   3.510 -0.4959 -0.1524  0.6201
  762THF     C211835   3.723   3.934   3.538 -0.6527  0.4671  0.1315
  762THF     C311836   3.583   3.785   3.630 -0.2251 -0.7483 -0.2355
  762THF     H411837   3.685   4.006   3.610 -1.0367 -1.2335  1.7087
  762THF     H511838   3.764   3.984   3.450 -1.2564  1.5187  0.4292
  762THF     H611839   3.540   3.862   3.694  0.7265 -0.0097 -0.4594
  762THF     H711840   3.513   3.702   3.625  0.5060 -1.3732 -0.2427
  762THF     C811841   3.723   3.749   3.689  0.7525 -0.0944 -0.4658
  762THF     C911842   3.818   3.841   3.610 -0.6678  0.0067 -0.0903
  762THF    H1011843   3.749   3.644   3.676 -1.0794 -0.6824  0.3253
  762THF    H1111844   3.726   3.777   3.794 -1.0373  0.1014 -0.4333
  762THF    H1211845   3.897   3.887   3.670  1.4876 -1.8309 -1.3922
  762THF    H1311846   3.865   3.776   3.537 -1.2379  0.5335 -0.9361
  763THF     O111847   0.534   1.566   3.118  0.5160  0.4427 -0.3018
  763THF     C211848   0.554   1.471   3.022 -0.2164  0.2227 -0.2234
  763THF     C311849   0.473   1.504   3.224  0.2629 -0.0729 -0.6280
  763THF     H411850   0.642   1.415   3.053  1.5312  2.0286 -1.6812
  763THF     H511851   0.576   1.513   2.924  0.2281  1.7006  0.4950
  763THF     H611852   0.544   1.442   3.279  0.6139  0.0379 -0.9510
  763THF     H711853   0.436   1.569   3.303 -0.8630 -1.6592  0.2106
  763THF     C811854   0.356   1.429   3.161  0.0150  0.1012  0.2841
  763THF     C911855   0.429   1.379   3.032  0.0672 -0.0791  0.3120
  763THF    H1011856   0.266   1.484   3.136 -1.2844 -2.6802 -1.6283
  763THF    H1111857   0.322   1.340   3.214 -0.6991  0.2283  0.0439
  763THF    H1211858   0.462   1.276   3.047 -1.2680 -0.2476  2.6884
  763THF    H1311859   0.363   1.380   2.945  0.3078 -1.4799  0.0808
  764THF     O111860   4.217   2.336   2.347 -0.1982  0.0307  0.1748
  764THF     C211861   4.285   2.445   2.298 -0.9325 -0.2056  0.4243
  764THF     C311862   4.298   2.235   2.404 -0.2019  0.0200  0.6495
  764THF     H411863   4.300   2.517   2.378  0.1150  1.4434 -1.1599
  764THF     H511864   4.235   2.506   2.221 -1.2041 -0.2528  0.5609
  764THF     H611865   4.285   2.229   2.512 -1.3432 -0.8453  0.4871
  764THF     H711866   4.267   2.139   2.363  0.7697 -0.8390  1.8328
  764THF     C811867   4.442   2.269   2.359  0.2028  0.0107  0.4058
  764THF     C911868   4.413   2.369   2.254 -1.4405  0.8396 -0.5005
  764THF    H1011869   4.506   2.186   2.327  0.2144  0.6698 -1.4422
  764THF    H1111870   4.496   2.314   2.442  0.9621  2.4589 -1.3040
  764THF    H1211871   4.492   2.445   2.246 -0.3152 -0.3623 -1.3436
  764THF    H1311872   4.399   2.329   2.153  1.9814  1.0038 -1.1789
  765THF     O111873   1.213   3.277   0.603 -0.3245  0.2712 -0.6656
  765THF     C211874   1.217   3.355   0.483 -0.0145  0.7237  0.0957
  765THF     C311875   1.319   3.313   0.688  0.3437 -1.0069  0.3001
  765THF     H411876   1.122   3.402   0.455  0.7300  4.4547  2.9947
  765THF     H511877   1.250   3.283   0.408  0.8112  0.7469  0.4316
  765THF     H611878   1.289   3.286   0.789 -3.0430  0.4067 -0.1788
  765THF     H711879   1.407   3.264   0.646  0.4965  0.9533 -1.8483
  765THF     C811880   1.331   3.465   0.671 -0.0590 -0.0932  0.2769
  765THF     C911881   1.317   3.468   0.517  0.0040  0.0295  0.4948
  765THF    H1011882   1.419   3.524   0.698 -1.3889  2.3084 -0.3349
  765THF    H1111883   1.248   3.518   0.716 -2.3456 -2.5166 -0.8474
  765THF    H1211884   1.295   3.566   0.475 -1.3940 -1.2406 -2.0136
  765THF    H1311885   1.408   3.440   0.464  0.7757  2.4088  0.4519
  766THF     O111886   1.376   2.638   0.594 -0.4338  0.1661  0.7492
  766THF     C211887   1.519   2.665   0.622 -0.5346 -0.0636  0.1346
  766THF     C311888   1.295   2.692   0.692  0.0476  0.4426  1.3223
  766THF     H411889   1.588   2.681   0.540 -1.8249 -0.7816 -1.1342
  766THF     H511890   1.553   2.597   0.701 -2.6359  0.5514  1.6519
  766THF     H611891   1.191   2.707   0.662  0.8276  1.0223 -1.4240
  766THF     H711892   1.301   2.634   0.784 -0.2276 -1.3167  0.2782
  766THF     C811893   1.361   2.826   0.716 -0.7931  0.0509  0.5357
  766THF     C911894   1.509   2.795   0.696  0.5649 -0.6903 -0.1095
  766THF    H1011895   1.336   2.867   0.814 -1.0503  0.9330  0.1179
  766THF    H1111896   1.335   2.899   0.639  0.2304  0.3390  0.4506
  766THF    H1211897   1.560   2.874   0.640  0.1436 -1.0634 -1.0373
  766THF    H1311898   1.551   2.782   0.796 -0.8481  0.9220  0.7281
  767THF     O111899   4.164   1.802   4.440 -0.2767  0.2262  0.5106
  767THF     C211900   4.167   1.714   4.327  0.5476  0.2999 -0.8104
  767THF     C311901   4.182   1.931   4.376  0.0195  0.1988 -0.1638
  767THF     H411902   4.086   1.744   4.260 -0.5486  1.5741  0.9809
  767THF     H511903   4.150   1.612   4.362 -0.2790 -0.0846 -2.2525
  767THF     H611904   4.095   1.963   4.318 -0.5737 -2.3536 -0.7918
  767THF     H711905   4.213   2.007   4.448  2.2380 -1.4190  0.6969
  767THF     C811906   4.297   1.898   4.278 -0.4333  0.0951  0.2588
  767THF     C911907   4.298   1.747   4.260 -0.0692  0.7946  0.1356
  767THF    H1011908   4.396   1.934   4.304 -0.4636  0.3367  0.0467
  767THF    H1111909   4.283   1.940   4.178 -0.6524 -0.4038  0.0793
  767THF    H1211910   4.298   1.714   4.155  0.1136 -0.5196  0.5236
  767THF    H1311911   4.378   1.701   4.317 -0.5911 -0.3344 -0.0083
  768THF     O111912   0.767   5.006   5.342  0.1338 -0.0640 -0.0760
  768THF     C211913   0.867   4.988   5.434 -0.3920 -0.8052  0.1378
  768THF     C311914   0.648   5.015   5.406  0.4245 -1.0129  0.7857
  768THF     H411915   0.890   5.086   5.477 -0.1225 -1.1941  0.8917
  768THF     H511916   0.961   4.945   5.399  0.0775  1.1641 -1.2335
  768THF     H611917   0.633   5.115   5.445  0.5795 -0.1061 -1.3191
  768THF     H711918   0.564   5.000   5.339  0.8614  0.5830 -0.1704
  768THF     C811919   0.653   4.920   5.525  0.2030 -1.0898  0.5574
  768THF     C911920   0.803   4.902   5.537  0.4458  0.0572 -0.3736
  768THF    H1011921   0.605   4.827   5.493  0.2930 -0.7859 -0.4784
  768THF    H1111922   0.601   4.967   5.609  0.9668  0.8064 -0.0081
  768THF    H1211923   0.820   4.944   5.637 -2.2959 -0.6014  0.4527
  768THF    H1311924   0.855   4.806   5.530  2.3981  0.9620  0.6303
  769THF     O111925   2.647   1.002   1.297 -0.5269 -0.5245  0.2660
  769THF     C211926   2.624   0.892   1.380  0.3982  0.0801 -0.4086
  769THF     C311927   2.780   1.053   1.315  0.4444  1.2333 -0.5701
  769THF     H411928   2.646   0.798   1.329  1.1819 -0.2359  0.4971
  769THF     H511929   2.523   0.881   1.418  0.3720 -0.3375 -0.5972
  769THF     H611930   2.845   1.013   1.238 -0.7220 -2.8848  0.3495
  769THF     H711931   2.775   1.162   1.324 -0.0334  1.2183 -0.6168
  769THF     C811932   2.838   0.987   1.436 -0.4919  0.0274 -0.0672
  769THF     C911933   2.720   0.920   1.498  0.2037  0.0071 -0.3717
  769THF    H1011934   2.892   1.060   1.496 -2.5066  1.3206  0.2712
  769THF    H1111935   2.915   0.915   1.406  1.2832  2.1838 -0.9766
  769THF    H1211936   2.741   0.833   1.561  0.8791 -0.4329 -1.1798
  769THF    H1311937   2.673   0.994   1.563 -1.6064 -0.0636 -1.5296
  770THF     O111938   2.325   3.172   1.748  0.2428 -0.0124  0.4643
  770THF     C211939   2.204   3.240   1.788  0.4264  0.0960  0.5481
  770THF     C311940   2.312   3.038   1.794  0.0854 -0.4537  0.0681
  770THF     H411941   2.193   3.339   1.743 -0.1017 -0.6297 -1.0274
  770THF     H511942   2.215   3.255   1.895  1.6380 -0.1689  0.4646
  770THF     H611943   2.366   2.978   1.720 -1.3524 -1.9980  0.2107
  770THF     H711944   2.335   3.018   1.898 -0.4975  0.3607  0.3562
  770THF     C811945   2.165   3.006   1.761 -0.5345 -0.1107  0.5897
  770THF     C911946   2.099   3.140   1.747 -0.2243  0.1061  0.6661
  770THF    H1011947   2.115   2.948   1.839  0.1871 -0.2208  0.9856
  770THF    H1111948   2.168   2.943   1.672  1.4462  2.2841 -1.1886
  770THF    H1211949   2.058   3.163   1.649 -0.0209 -1.7964  0.1040
  770THF    H1311950   2.012   3.133   1.812 -1.1182  0.1978 -0.5036
  771THF     O111951   2.445   4.170   1.102  0.2579  0.1074  0.2038
  771THF     C211952   2.323   4.236   1.087  0.1898 -0.3251 -0.0668
  771THF     C311953   2.422   4.073   1.207  0.1971  0.3762 -0.0861
  771THF     H411954   2.252   4.170   1.037 -2.0494  0.7111  1.5593
  771THF     H511955   2.335   4.331   1.034 -0.5576 -1.0333 -1.5871
  771THF     H611956   2.364   3.993   1.161 -0.3325  1.8825 -2.1779
  771THF     H711957   2.510   4.029   1.255 -0.1609  0.7416  0.9417
  771THF     C811958   2.340   4.149   1.309  0.8670  0.3087  0.5883
  771THF     C911959   2.275   4.259   1.226  0.1071 -0.2719 -0.1382
  771THF    H1011960   2.398   4.176   1.397  0.5458  0.4465  0.7612
  771THF    H1111961   2.263   4.086   1.354 -0.2625  0.1927 -1.3966
  771THF    H1211962   2.166   4.251   1.236 -0.1027  1.4423 -0.5840
  771THF    H1311963   2.300   4.361   1.255  1.4165 -0.4797 -0.5150
  772THF     O111964   2.950   2.673   3.867 -0.2790 -0.5066  0.4065
  772THF     C211965   3.064   2.631   3.785 -0.1093 -0.5248  0.4092
  772THF     C311966   3.007   2.743   3.978 -0.0140  0.4290  0.0493
  772THF     H411967   3.092   2.710   3.717  0.6493 -1.1238  0.0118
  772THF     H511968   3.031   2.541   3.732 -0.6695  1.1278 -2.1977
  772THF     H611969   3.067   2.831   3.953  0.1467 -0.0436 -1.3129
  772THF     H711970   2.935   2.765   4.056  0.8607  0.6013  0.8233
  772THF     C811971   3.121   2.648   4.015  0.0995 -0.6446  0.4710
  772THF     C911972   3.183   2.606   3.880 -0.0211  0.0525  0.0690
  772THF    H1011973   3.077   2.562   4.065  0.5382 -1.1831 -0.0481
  772THF    H1111974   3.207   2.676   4.076  1.3694 -0.7159 -1.2342
  772THF    H1211975   3.261   2.680   3.858 -1.3669  1.3923 -0.4098
  772THF    H1311976   3.221   2.505   3.892 -0.5576 -0.1517  0.0768
  773THF     O111977   2.858   3.475   2.710  0.2464  0.3292  0.3913
  773THF     C211978   2.922   3.362   2.668  0.0743  0.2016 -0.2337
  773THF     C311979   2.717   3.451   2.705  0.3424 -0.0919 -0.8337
  773THF     H411980   3.030   3.360   2.682  0.1065  0.0762 -0.4816
  773THF     H511981   2.909   3.358   2.559  0.0777  0.7568 -0.2614
  773THF     H611982   2.668   3.507   2.783 -0.8685 -0.9882 -0.9222
  773THF     H711983   2.667   3.485   2.614  0.6111 -0.2182 -1.0344
  773THF     C811984   2.699   3.297   2.721  0.1381 -0.3516 -0.3499
  773THF     C911985   2.838   3.252   2.734 -0.0146 -0.0613  0.0466
  773THF    H1011986   2.660   3.244   2.635 -0.7811 -0.7400  0.2971
  773THF    H1111987   2.641   3.273   2.810 -0.3112  0.5783 -0.3820
  773THF    H1211988   2.864   3.253   2.840  1.9117 -0.9225 -0.3869
  773THF    H1311989   2.849   3.154   2.686  0.1379 -0.8929  1.7019
  774THF     O111990   4.781   0.071   0.273 -0.1737  0.8043 -0.1384
  774THF     C211991   4.857   0.052   0.155 -0.3710 -0.2013 -0.0781
  774THF     C311992   4.668  -0.016   0.264  0.8552 -0.0684 -0.2748
  774THF     H411993   4.963   0.074   0.169 -0.3734  0.5328 -1.0611
  774THF     H511994   4.832   0.132   0.086  0.5710 -0.5754 -0.8862
  774THF     H611995   4.625  -0.021   0.363 -0.6642  1.9036 -0.7689
  774THF     H711996   4.586   0.023   0.203 -0.3173 -1.2175  0.5257
  774THF     C811997   4.735  -0.146   0.208 -0.5887  0.0552 -0.2812
  774THF     C911998   4.824  -0.088   0.108  0.5598  0.1488 -0.8687
  774THF    H1011999   4.667  -0.205   0.148 -0.5659  0.4901 -0.7405
  774THF    H1112000   4.777  -0.197   0.295 -1.5920  0.0355  0.2090
  774THF    H1212001   4.919  -0.143   0.107  2.4890  3.2254 -1.3580
  774THF    H1312002   4.778  -0.097   0.010 -0.5934 -0.9858 -0.2539
  775THF     O112003   3.951   1.712   1.587  0.1647 -0.2651  0.1294
  775THF     C212004   4.042   1.774   1.494  0.4093  0.4126 -0.4138
  775THF     C312005   3.961   1.764   1.722  0.1662 -0.0541 -0.1067
  775THF     H412006   3.987   1.805   1.405  0.1311 -1.8309 -1.1052
  775THF     H512007   4.111   1.691   1.477 -2.1174 -1.9429  0.1758
  775THF     H612008   3.860   1.763   1.762  0.8378 -3.2811  1.8862
  775THF     H712009   4.032   1.710   1.784 -0.6092 -2.7878 -1.4724
  775THF     C812010   4.011   1.902   1.701  0.6662  0.2402 -0.5687
  775THF     C912011   4.104   1.882   1.579 -0.1730 -0.7556  0.4443
  775THF    H1012012   4.058   1.946   1.789  0.2112 -0.4725  0.0471
  775THF    H1112013   3.922   1.954   1.664 -1.7679 -1.4446  2.4329
  775THF    H1212014   4.126   1.973   1.523 -2.0344  0.8538  2.1591
  775THF    H1312015   4.197   1.853   1.627  0.8432  1.7899  0.1446
  776THF     O112016   1.308   4.631   1.578  0.1995 -0.2504  0.2914
  776THF     C212017   1.357   4.501   1.572 -0.1611 -0.4022  1.1306
  776THF     C312018   1.244   4.644   1.708  0.3491 -0.3954 -0.3694
  776THF     H412019   1.447   4.483   1.631 -0.0970 -0.1582  1.1074
  776THF     H512020   1.374   4.481   1.466 -2.8285 -2.2860  0.9588
  776THF     H612021   1.305   4.680   1.791 -0.1239 -0.4399 -0.0025
  776THF     H712022   1.171   4.722   1.686  2.6706  1.5441 -1.7787
  776THF     C812023   1.197   4.502   1.745 -0.1703 -0.7210 -0.3209
  776THF     C912024   1.239   4.424   1.626  0.3793  0.3750 -0.1116
  776THF    H1012025   1.089   4.506   1.752 -0.1828  0.9607 -0.8792
  776THF    H1112026   1.238   4.460   1.837 -1.9930  0.0151  0.8769
  776THF    H1212027   1.262   4.319   1.648 -0.2768  0.2298 -0.0845
  776THF    H1312028   1.160   4.430   1.550  0.4306 -0.6116 -0.2561
  777THF     O112029   4.560   4.192   1.388  0.7793 -0.1826  0.2550
  777THF     C212030   4.585   4.333   1.396 -0.1933  0.2720  0.4672
  777THF     C312031   4.528   4.159   1.523 -0.8228  0.0337  0.2507
  777THF     H412032   4.578   4.378   1.297 -0.6381  1.7295  1.1484
  777THF     H512033   4.687   4.348   1.431  0.5561 -3.7536  0.5539
  777THF     H612034   4.487   4.058   1.529  0.4398 -0.7074 -2.1440
  777THF     H712035   4.620   4.156   1.582 -1.5693 -0.3651  1.4198
  777THF     C812036   4.439   4.269   1.563  0.7296 -0.5638 -0.1358
  777THF     C912037   4.483   4.388   1.490  0.3945  0.1593  0.0820
  777THF    H1012038   4.447   4.286   1.670  0.6090  0.0888 -0.2260
  777THF    H1112039   4.335   4.243   1.539  0.4154  0.7256 -0.2539
  777THF    H1212040   4.402   4.442   1.440  0.0910  0.0120  0.4053
  777THF    H1312041   4.533   4.454   1.560  0.6400 -0.7201  0.7599
  778THF     O112042   4.532   4.378   2.468 -0.6407  0.2188  0.2842
  778THF     C212043   4.457   4.418   2.581 -0.0012 -0.4590  0.1067
  778THF     C312044   4.539   4.235   2.463  0.3217  0.4514  0.3780
  778THF     H412045   4.384   4.491   2.546 -0.7573 -0.1369  2.1668
  778THF     H512046   4.512   4.448   2.670  0.4379 -2.4257  0.5400
  778THF     H612047   4.578   4.204   2.366  1.6333  2.4626  0.1913
  778THF     H712048   4.603   4.188   2.538  0.0835 -0.9376 -0.2497
  778THF     C812049   4.396   4.196   2.503  1.1434 -0.7546 -0.4948
  778THF     C912050   4.376   4.297   2.616 -0.2039 -0.3430 -0.5615
  778THF    H1012051   4.383   4.092   2.535 -0.1679 -0.5183 -0.2171
  778THF    H1112052   4.335   4.210   2.414  1.5779  3.6599 -0.3141
  778THF    H1212053   4.271   4.321   2.635 -0.0907  1.8846 -2.2982
  778THF    H1312054   4.419   4.255   2.707  0.2991  1.8102  0.2588
  779THF     O112055   1.476   3.214   2.577 -0.2095 -0.7816 -0.1269
  779THF     C212056   1.347   3.152   2.574 -0.0925  0.2286 -0.3633
  779THF     C312057   1.521   3.250   2.449  0.1921 -0.3741  0.2119
  779THF     H412058   1.279   3.217   2.629  0.3890  0.4063  0.0318
  779THF     H512059   1.346   3.048   2.605  0.6368  0.5052  0.6571
  779THF     H612060   1.481   3.347   2.418 -3.0050 -1.9162 -0.9353
  779THF     H712061   1.629   3.251   2.434  0.0062 -1.7580 -1.4645
  779THF     C812062   1.445   3.147   2.356  0.1969 -0.0494 -0.1427
  779THF     C912063   1.306   3.137   2.425  0.1758  0.4765 -0.4683
  779THF    H1012064   1.502   3.055   2.351 -0.9791 -0.7574 -1.4602
  779THF    H1112065   1.431   3.176   2.252 -0.3800 -1.5604 -0.5039
  779THF    H1212066   1.244   3.219   2.388 -0.9156 -1.5484 -3.5031
  779THF    H1312067   1.249   3.051   2.390  0.2584  0.4592 -0.5624
  780THF     O112068   2.556   2.442   5.469 -0.4074 -0.0125 -0.2505
  780THF     C212069   2.551   2.299   5.449  0.0864 -0.0071 -0.3360
  780THF     C312070   2.612   2.500   5.352  0.2815 -0.1163  0.2117
  780THF     H412071   2.444   2.285   5.434  0.1591  0.5282 -1.5097
  780THF     H512072   2.590   2.246   5.536  0.4081  1.5538  0.4983
  780THF     H612073   2.564   2.596   5.336  1.5400  0.5229  0.0791
  780THF     H712074   2.720   2.515   5.361  0.1168  1.1068  0.2343
  780THF     C812075   2.579   2.396   5.245 -0.8649 -0.5381 -0.4125
  780THF     C912076   2.611   2.270   5.313 -0.5095 -0.5861  0.8409
  780THF    H1012077   2.634   2.416   5.152 -2.0102 -1.6156 -1.3531
  780THF    H1112078   2.472   2.383   5.228 -1.7878  2.8356  1.7437
  780THF    H1212079   2.582   2.178   5.262 -1.2321  0.4261 -0.6564
  780THF    H1312080   2.718   2.264   5.331 -0.3072 -1.1973 -0.3974
  781THF     O112081   4.704   1.124   1.514  0.5727 -0.3629 -0.3584
  781THF     C212082   4.643   1.086   1.635 -0.6341 -0.1707 -0.6296
  781THF     C312083   4.749   1.005   1.459  0.1484  1.2144 -0.0580
  781THF     H412084   4.548   1.056   1.591 -0.8069  0.4854 -0.7055
  781THF     H512085   4.624   1.172   1.700 -2.9019 -2.2078  1.6090
  781THF     H612086   4.663   0.957   1.414  0.1648  0.3194  0.8390
  781THF     H712087   4.812   1.025   1.372  2.1017 -2.2804  0.3790
  781THF     C812088   4.795   0.921   1.585 -0.4259  0.0196  0.2851
  781THF     C912089   4.724   0.977   1.703  0.6484  0.4735 -0.3322
  781THF    H1012090   4.900   0.943   1.605 -0.5350  0.1543  0.7138
  781THF    H1112091   4.769   0.816   1.577 -0.6621 -0.1807  2.8958
  781THF    H1212092   4.655   0.905   1.748  0.9313 -0.0427 -0.7086
  781THF    H1312093   4.797   1.005   1.779  1.0492  0.1273 -0.5804
  782THF     O112094   2.602   4.613   0.751 -0.0602 -0.4814 -0.5391
  782THF     C212095   2.694   4.681   0.836 -0.5458 -0.8224 -0.5284
  782THF     C312096   2.467   4.633   0.802  0.5215 -0.1214 -0.3028
  782THF     H412097   2.706   4.783   0.801 -2.9716 -0.7159 -1.2265
  782THF     H512098   2.792   4.635   0.850  0.8277  2.2484  0.8931
  782THF     H612099   2.433   4.735   0.782  1.0067  0.0480 -0.2799
  782THF     H712100   2.389   4.570   0.759  0.8975 -0.8277  0.0303
  782THF     C812101   2.489   4.608   0.953 -0.0042  0.4338  0.1931
  782THF     C912102   2.622   4.675   0.975  0.3342 -0.1835 -0.5290
  782THF    H1012103   2.510   4.502   0.966  1.4646  0.5531 -0.9903
  782THF    H1112104   2.410   4.650   1.016  1.6291  0.2830  2.4770
  782THF    H1212105   2.612   4.772   1.024  0.0144 -0.3382 -0.2843
  782THF    H1312106   2.671   4.604   1.041  0.3554  0.3592  0.0567
  783THF     O112107   3.888   3.595   4.719  0.2460  0.2853 -0.3899
  783THF     C212108   3.755   3.633   4.692  0.1567 -0.4195 -0.4847
  783THF     C312109   3.894   3.457   4.738  0.5374 -0.5501  0.0487
  783THF     H412110   3.749   3.635   4.583  0.0953 -2.1502 -0.5385
  783THF     H512111   3.728   3.736   4.719 -0.8634 -1.2292  1.8333
  783THF     H612112   3.890   3.423   4.635  0.9695 -3.2963  0.8711
  783THF     H712113   3.986   3.417   4.780  0.0907  0.1918  1.8304
  783THF     C812114   3.772   3.433   4.826 -0.3507 -0.1851  0.5066
  783THF     C912115   3.670   3.533   4.769  0.0611 -0.5824  0.6337
  783THF    H1012116   3.794   3.471   4.925 -3.1635  2.1451  0.3839
  783THF    H1112117   3.730   3.333   4.840 -0.7392 -0.1712 -0.4758
  783THF    H1212118   3.607   3.481   4.697 -1.6675  3.2259 -0.8235
  783THF    H1312119   3.599   3.577   4.839 -3.5695 -3.6476 -0.7446
  784THF     O112120   0.893   1.474   2.605 -0.2447  0.9089 -0.9151
  784THF     C212121   1.026   1.505   2.547  0.2936  0.9268 -0.8487
  784THF     C312122   0.882   1.334   2.639 -0.0507  0.6035  0.1367
  784THF     H412123   1.074   1.592   2.592 -0.2522  1.4094 -1.1889
  784THF     H512124   1.034   1.515   2.439  0.6510  1.7568 -0.7505
  784THF     H612125   0.894   1.333   2.747 -1.5965  0.6024  0.3252
  784THF     H712126   0.788   1.283   2.622  0.9149 -1.9987  1.9303
  784THF     C812127   1.002   1.265   2.576  0.4305 -0.1255  0.2628
  784THF     C912128   1.104   1.369   2.588  0.1489 -0.0062  0.3181
  784THF    H1012129   0.995   1.232   2.473  3.7535  1.1427 -0.4830
  784THF    H1112130   1.024   1.175   2.632 -0.3597  0.2662  1.2503
  784THF    H1212131   1.134   1.370   2.692 -1.6672 -0.0865  0.8776
  784THF    H1312132   1.184   1.348   2.517  0.9494  2.4189  0.3961
  785THF     O112133   4.453   5.244   2.588 -0.1207 -0.2641  0.4042
  785THF     C212134   4.564   5.176   2.642 -0.2212  0.5312 -0.2446
  785THF     C312135   4.340   5.162   2.599  0.0214  0.2091 -0.3649
  785THF     H412136   4.645   5.247   2.658  0.0574  0.0181  0.6462
  785THF     H512137   4.595   5.099   2.571 -2.5414 -1.0946  0.3828
  785THF     H612138   4.246   5.216   2.602  0.9698  1.9070  0.0244
  785THF     H712139   4.327   5.086   2.522  0.2426  0.9025 -1.0995
  785THF     C812140   4.364   5.092   2.732  0.0734  0.6926 -0.2587
  785THF     C912141   4.504   5.120   2.772  0.1553 -0.0892  0.5286
  785THF    H1012142   4.351   4.984   2.720  0.9429  0.5910 -0.3452
  785THF    H1112143   4.295   5.133   2.807 -0.9614  1.9331 -1.8184
  785THF    H1212144   4.507   5.190   2.856  0.1111  1.1151 -0.4495
  785THF    H1312145   4.554   5.029   2.806 -1.6496 -0.4685  2.3528
  786THF     O112146   2.204   1.543   1.513  0.1806 -0.1101  0.2294
  786THF     C212147   2.251   1.505   1.641  0.0702  0.0740  0.6424
  786THF     C312148   2.300   1.527   1.413 -0.5627 -0.1202  0.3982
  786THF     H412149   2.181   1.445   1.699 -0.6406 -0.3470 -0.6157
  786THF     H512150   2.267   1.602   1.687  1.1378  0.6633 -0.9052
  786THF     H612151   2.272   1.436   1.359 -0.9415  1.3610 -1.9991
  786THF     H712152   2.305   1.607   1.340 -1.2425 -1.4757 -1.2146
  786THF     C812153   2.428   1.518   1.498 -0.1701 -0.0217 -0.5651
  786THF     C912154   2.390   1.440   1.622 -0.1580  0.0321 -0.1322
  786THF    H1012155   2.440   1.623   1.523 -2.3531 -0.4028  2.8317
  786THF    H1112156   2.516   1.484   1.445 -0.1845  1.3557 -1.5151
  786THF    H1212157   2.382   1.332   1.607 -2.4996 -0.3376  2.8022
  786THF    H1312158   2.458   1.446   1.707 -1.4698 -1.2795  1.0749
  787THF     O112159   4.306   0.817   5.332  0.1084 -0.1547  0.5248
  787THF     C212160   4.202   0.752   5.401  0.2567  0.2973 -0.6020
  787THF     C312161   4.306   0.755   5.199  1.2130 -0.3548 -0.3650
  787THF     H412162   4.163   0.798   5.492  1.0351 -0.1501 -0.0344
  787THF     H512163   4.230   0.650   5.425  3.2663  0.8570 -1.3598
  787THF     H612164   4.365   0.807   5.124  0.6730  1.0440  0.1576
  787THF     H712165   4.345   0.653   5.206  1.0514 -0.6113 -2.5094
  787THF     C812166   4.157   0.735   5.167 -0.1740  0.3486  0.7138
  787THF     C912167   4.085   0.756   5.298  0.2122  0.5931 -0.7482
  787THF    H1012168   4.135   0.641   5.117  0.5585  0.0760  0.8865
  787THF    H1112169   4.116   0.802   5.092 -1.4119 -0.8759  0.2465
  787THF    H1212170   4.044   0.858   5.294  1.1683  0.9916 -0.6573
  787THF    H1312171   3.997   0.695   5.318  2.0193 -2.1316 -0.7115
  788THF     O112172   4.977   5.064   2.899  0.0949 -0.3415  0.0546
  788THF     C212173   4.868   5.150   2.897  0.3957 -0.1325 -0.2195
  788THF     C312174   5.082   5.144   2.952  0.9205  0.5576  0.6130
  788THF     H412175   4.832   5.156   3.000 -0.7207  0.4196 -0.6197
  788THF     H512176   4.783   5.120   2.835  0.2657 -1.7803  0.6777
  788THF     H612177   5.057   5.160   3.057 -0.3597  4.5402 -0.1208
  788THF     H712178   5.184   5.105   2.952  1.5859  2.2297  1.2607
  788THF     C812179   5.071   5.276   2.882 -0.1732 -0.3328  0.1312
  788THF     C912180   4.916   5.285   2.848 -0.0436  0.8043 -0.4693
  788THF    H1012181   5.111   5.286   2.781 -3.2716 -0.3419 -1.1910
  788THF    H1112182   5.111   5.359   2.940 -1.0192  0.9402 -1.0743
  788THF    H1212183   4.855   5.369   2.883  2.0898  2.0569  0.4270
  788THF    H1312184   4.900   5.284   2.741 -3.0763 -1.7012 -0.1484
  789THF     O112185   2.531   5.350   5.256 -0.3237 -0.1014  0.0712
  789THF     C212186   2.493   5.484   5.235 -0.0175 -0.1427  0.2835
  789THF     C312187   2.504   5.323   5.392  0.6284  0.0997 -0.3039
  789THF     H412188   2.384   5.490   5.239 -0.0918 -1.6711  0.9900
  789THF     H512189   2.530   5.511   5.136  2.7740  0.0348  1.2825
  789THF     H612190   2.396   5.317   5.409  0.7193  1.0122  0.7175
  789THF     H712191   2.546   5.234   5.440  1.2080  0.6641  0.2524
  789THF     C812192   2.556   5.452   5.460 -0.0490 -0.4157  0.2449
  789THF     C912193   2.556   5.562   5.354  0.2302  0.6698 -0.5055
  789THF    H1012194   2.659   5.426   5.483 -0.2471 -1.6261 -0.1445
  789THF    H1112195   2.495   5.471   5.548 -2.1964 -0.0309 -1.2558
  789THF    H1212196   2.487   5.643   5.377 -0.2445 -0.3216  1.8737
  789THF    H1312197   2.655   5.603   5.335 -1.1444  3.2505 -2.8367
  790THF     O112198   2.586   2.873   4.432  0.1187  0.2518 -0.2995
  790THF     C212199   2.634   2.992   4.391 -0.1712  0.1202  0.5813
  790THF     C312200   2.586   2.790   4.312 -1.1083  0.9162 -0.1204
  790THF     H412201   2.642   3.047   4.485 -0.8980 -0.5717  1.0644
  790THF     H512202   2.570   3.038   4.316  1.0936 -1.2958 -1.4733
  790THF     H612203   2.576   2.684   4.337 -2.4856  0.9750 -0.3562
  790THF     H712204   2.503   2.828   4.253 -1.5559 -1.2530 -0.9583
  790THF     C812205   2.721   2.827   4.255 -0.3137 -0.3957 -0.4871
  790THF     C912206   2.762   2.961   4.321 -0.0827  0.0809 -0.1025
  790THF    H1012207   2.724   2.835   4.147  1.2420 -1.8388 -0.6090
  790THF    H1112208   2.797   2.755   4.286 -2.3112 -2.7152 -0.6428
  790THF    H1212209   2.843   2.946   4.392 -0.1031 -0.3411 -0.1641
  790THF    H1312210   2.800   3.036   4.251  0.8787  0.4072  0.7471
  791THF     O112211   0.703   3.988   0.109  0.1735  0.0327 -0.7107
  791THF     C212212   0.743   3.860   0.143  0.1942 -0.3132  0.3396
  791THF     C312213   0.809   4.064   0.149 -0.2211 -0.3382 -0.0720
  791THF     H412214   0.676   3.800   0.081 -1.3395  0.2933  1.3504
  791THF     H512215   0.707   3.855   0.246 -1.6126 -3.6871 -0.2839
  791THF     H612216   0.793   4.164   0.111  0.9912  0.0813  0.4601
  791THF     H712217   0.811   4.068   0.258  1.4116 -1.6050 -0.0099
  791THF     C812218   0.939   3.997   0.101  0.2688 -0.6003  0.1074
  791THF     C912219   0.888   3.853   0.092 -0.1028 -0.6479  0.0621
  791THF    H1012220   1.025   4.010   0.166  0.0208  4.0493 -0.1495
  791THF    H1112221   0.967   4.029   0.000  1.4749 -1.1920  0.2418
  791THF    H1212222   0.892   3.812  -0.009 -0.5953 -1.0129  0.1900
  791THF    H1312223   0.946   3.792   0.162  2.3950 -0.6239 -1.8363
  792THF     O112224   5.227   3.914   0.634 -0.5284 -0.3073 -0.0679
  792THF     C212225   5.117   3.817   0.623 -0.4081 -0.1352  0.2219
  792THF     C312226   5.286   3.922   0.500 -0.8048 -0.6011  0.0664
  792THF     H412227   5.034   3.857   0.682 -0.3404  1.4686 -0.7128
  792THF     H512228   5.166   3.725   0.656 -1.4012 -1.8007 -2.5983
  792THF     H612229   5.348   4.012   0.498 -1.2399 -0.3060 -2.4828
  792THF     H712230   5.336   3.828   0.479 -0.7960 -0.2891 -1.3985
  792THF     C812231   5.158   3.930   0.417 -0.4832  0.6430 -0.1160
  792THF     C912232   5.082   3.812   0.473 -0.9185  0.0586  0.0410
  792THF    H1012233   5.184   3.917   0.312 -2.2908  1.1963 -0.6649
  792THF    H1112234   5.103   4.023   0.428  0.2902  1.1366 -0.3571
  792THF    H1212235   4.976   3.815   0.446 -1.1701 -0.5889  0.9199
  792THF    H1312236   5.128   3.721   0.434  0.5211  0.7413  0.0975
  793THF     O112237   3.937   5.267   0.799  0.1102 -0.0527 -0.0500
  793THF     C212238   3.858   5.273   0.919  0.5971  0.3330  0.5474
  793THF     C312239   4.072   5.260   0.839  0.2347  0.3051 -0.3606
  793THF     H412240   3.856   5.178   0.973  0.9485 -0.3182 -0.5587
  793THF     H512241   3.759   5.315   0.905 -1.0544 -2.6357  2.2310
  793THF     H612242   4.088   5.158   0.877  1.0137  0.4765 -0.2098
  793THF     H712243   4.137   5.276   0.753  2.4606 -0.5285  1.0744
  793THF     C812244   4.074   5.371   0.945  1.0793 -0.1168 -1.2882
  793THF     C912245   3.927   5.379   0.995  0.0610 -1.5739  0.2432
  793THF    H1012246   4.093   5.470   0.903 -0.4550 -0.5849 -3.2350
  793THF    H1112247   4.149   5.353   1.022 -1.1804 -1.1700  0.8330
  793THF    H1212248   3.928   5.370   1.103 -1.5304 -0.1610  0.4111
  793THF    H1312249   3.886   5.476   0.968  0.5022 -2.2715 -3.4157
  794THF     O112250   3.323   3.011   4.202 -0.4010  0.0507 -0.6496
  794THF     C212251   3.242   3.125   4.227  0.1936  0.0111 -0.0036
  794THF     C312252   3.380   3.032   4.071 -0.4112 -0.7050  0.4385
  794THF     H412253   3.305   3.211   4.250  1.2733 -1.2232  1.9388
  794THF     H512254   3.180   3.111   4.315  0.6475 -2.1108  0.0235
  794THF     H612255   3.465   3.099   4.088 -0.8753  0.1410 -0.4350
  794THF     H712256   3.414   2.945   4.015  0.3010 -0.4207  0.4138
  794THF     C812257   3.269   3.106   3.987  0.1999 -0.5947  0.0199
  794THF     C912258   3.162   3.128   4.091 -0.4182  0.0006  0.5620
  794THF    H1012259   3.241   3.050   3.898 -0.8879  0.5036 -0.3482
  794THF    H1112260   3.311   3.199   3.949  0.7152  0.5250  3.0589
  794THF    H1212261   3.100   3.214   4.064 -1.7336 -1.4845 -1.4359
  794THF    H1312262   3.102   3.039   4.074  1.4052 -1.3421  0.9551
  795THF     O112263   0.150   0.487   0.226 -0.1226 -0.3954  0.1412
  795THF     C212264   0.265   0.496   0.145  0.7652  0.2490  0.2638
  795THF     C312265   0.192   0.428   0.349  0.1870 -0.1189  0.3311
  795THF     H412266   0.310   0.594   0.157  0.6267  0.3328  0.0896
  795THF     H512267   0.240   0.477   0.041  0.1430 -0.0676  0.4639
  795THF     H612268   0.234   0.516   0.397 -2.8485  2.2311 -0.9632
  795THF     H712269   0.114   0.385   0.413  0.8132 -0.6711  0.7360
  795THF     C812270   0.310   0.329   0.318  0.4307  0.2395  0.1907
  795THF     C912271   0.368   0.390   0.197  0.8484  0.9694 -0.4350
  795THF    H1012272   0.290   0.223   0.308  2.9883 -0.4985  1.8441
  795THF    H1112273   0.382   0.334   0.400  1.2586  0.2510 -0.5228
  795THF    H1212274   0.460   0.444   0.221  0.3389  1.8771 -0.4809
  795THF    H1312275   0.393   0.321   0.116  1.4087 -0.6054  1.0417
  796THF     O112276   1.965   2.665   3.649 -0.5582 -0.3960  0.3736
  796THF     C212277   2.070   2.680   3.555  0.8617 -0.1131 -0.3886
  796THF     C312278   1.920   2.531   3.654  0.1914  0.0236 -0.1756
  796THF     H412279   2.162   2.664   3.612 -0.2790  2.7970  2.6280
  796THF     H512280   2.081   2.784   3.523  0.5982  1.2328  3.4068
  796THF     H612281   1.955   2.477   3.741 -0.7920  0.3817  0.4531
  796THF     H712282   1.812   2.527   3.662  0.2757 -0.7436  0.6399
  796THF     C812283   1.967   2.465   3.519 -0.0243  0.0734  0.7397
  796THF     C912284   2.043   2.579   3.447  0.5589  0.1982  0.4669
  796THF    H1012285   1.879   2.435   3.462  0.5702  0.8264 -0.6293
  796THF    H1112286   2.017   2.369   3.530  0.7678  0.5006  0.9647
  796THF    H1212287   2.141   2.561   3.403  0.8493  0.0155  1.1735
  796THF    H1312288   1.981   2.616   3.365  1.8307 -0.0808 -0.6582
  797THF     O112289   2.473   4.164   2.344  0.0838  0.0109 -0.4369
  797THF     C212290   2.354   4.096   2.374 -0.2302 -0.2787 -1.0518
  797THF     C312291   2.527   4.231   2.454 -0.2078  0.0688  0.2560
  797THF     H412292   2.343   4.021   2.295  1.7734 -2.1829  0.3411
  797THF     H512293   2.270   4.165   2.371 -0.7458 -0.9170 -1.6063
  797THF     H612294   2.632   4.245   2.428 -0.1034  0.2044  0.7324
  797THF     H712295   2.480   4.328   2.471 -1.7321 -0.4790 -0.6054
  797THF     C812296   2.496   4.130   2.561  0.1648  0.0723 -0.1596
  797THF     C912297   2.372   4.053   2.520  0.5772 -0.0376 -0.4062
  797THF    H1012298   2.489   4.178   2.658 -0.2577  0.1890 -0.2476
  797THF    H1112299   2.578   4.059   2.573  0.0353  0.2775  2.3239
  797THF    H1212300   2.381   3.945   2.524  0.6667 -0.0827 -1.4809
  797THF    H1312301   2.285   4.080   2.580 -0.0809 -0.9981 -0.9016
  798THF     O112302   0.606   1.875   0.564  0.3013 -0.1027  0.1728
  798THF     C212303   0.614   1.969   0.454 -0.1015  0.1965  0.3697
  798THF     C312304   0.621   1.957   0.680  0.7119  0.5522  0.2458
  798THF     H412305   0.574   1.924   0.363  0.7629  1.1737 -0.5125
  798THF     H512306   0.717   1.998   0.434 -0.2475 -0.3014 -1.2000
  798THF     H612307   0.576   1.901   0.762  1.4898 -1.6160 -0.7416
  798THF     H712308   0.725   1.977   0.706  0.7394 -0.3845  0.8967
  798THF     C812309   0.547   2.087   0.649  0.0301 -0.0634  0.2225
  798THF     C912310   0.537   2.089   0.495  0.7310 -0.4117 -0.8883
  798THF    H1012311   0.610   2.171   0.679 -0.8420  0.7645 -0.1785
  798THF    H1112312   0.448   2.104   0.693 -0.2849 -0.0240 -0.4866
  798THF    H1212313   0.435   2.071   0.462  0.6144 -1.4474 -0.0366
  798THF    H1312314   0.556   2.186   0.450  1.8375 -1.1242 -2.0159
  799THF     O112315   4.175   4.708   0.890 -0.2313  0.1956  0.1135
  799THF     C212316   4.225   4.828   0.940 -0.0012 -0.6965 -0.1885
  799THF     C312317   4.052   4.690   0.956 -0.1653  0.3641 -0.4843
  799THF     H412318   4.163   4.908   0.899  1.3469  0.8096  0.5665
  799THF     H512319   4.325   4.844   0.900 -0.3488 -2.5545 -1.9745
  799THF     H612320   3.979   4.754   0.906 -0.6338 -0.4032 -0.8009
  799THF     H712321   4.030   4.584   0.949  2.5143 -0.5003  1.9862
  799THF     C812322   4.083   4.730   1.101 -0.8276 -0.0426 -0.0998
  799THF     C912323   4.204   4.827   1.094 -0.0837 -0.5576  0.2641
  799THF    H1012324   4.108   4.648   1.167  1.1433 -0.5004 -1.3393
  799THF    H1112325   4.001   4.784   1.148 -1.4119  0.0650 -1.1934
  799THF    H1212326   4.186   4.929   1.128  1.5344 -0.3337  0.5455
  799THF    H1312327   4.295   4.791   1.141 -0.0509  0.4329  0.9678
  800THF     O112328   0.045   3.203   0.096 -0.0174  0.0732 -0.6593
  800THF     C212329   0.047   3.345   0.075  0.1622 -0.0392  0.5298
  800THF     C312330   0.068   3.144  -0.029 -0.4506  0.1392 -0.1621
  800THF     H412331   0.148   3.386   0.080  0.2933 -0.0997 -1.1981
  800THF     H512332  -0.013   3.392   0.152  0.6369  0.1780  0.7741
  800THF     H612333   0.172   3.157  -0.060 -0.7129  0.6935 -0.8110
  800THF     H712334   0.043   3.037  -0.029  2.1308 -0.6956  3.8507
  800THF     C812335  -0.025   3.231  -0.123  0.9583 -0.5972  0.3748
  800THF     C912336  -0.014   3.365  -0.064 -0.3902 -0.7093 -0.0659
  800THF    H1012337  -0.128   3.196  -0.112  0.1445  1.7397  0.7333
  800THF    H1112338  -0.000   3.221  -0.228 -1.5689 -3.2304 -0.1062
  800THF    H1212339   0.048   3.438  -0.114 -0.2184 -0.9283 -0.1731
  800THF    H1312340  -0.109   3.419  -0.064 -0.8254 -1.4274 -1.5149
  801THF     O112341   0.574   3.373   5.327  0.6641  0.0689 -0.5589
  801THF     C212342   0.690   3.402   5.394  0.6223  0.6740 -0.4531
  801THF     C312343   0.476   3.466   5.368 -0.4623  0.1923 -0.0719
  801THF     H412344   0.773   3.353   5.342 -0.6159 -1.8946 -0.1749
  801THF     H512345   0.693   3.364   5.496 -1.1413 -0.3356 -0.7425
  801THF     H612346   0.406   3.472   5.285 -0.3549 -1.8189 -0.3580
  801THF     H712347   0.424   3.416   5.451 -1.7786  0.8021 -0.4987
  801THF     C812348   0.546   3.594   5.400  0.1859 -0.1528  0.4509
  801THF     C912349   0.692   3.555   5.395 -0.3548  0.6598  0.4407
  801THF    H1012350   0.521   3.626   5.501 -1.1525 -1.6478  0.6279
  801THF    H1112351   0.528   3.679   5.335 -1.0759 -0.3827  0.4912
  801THF    H1212352   0.734   3.578   5.297  0.5855 -2.6560 -0.0292
  801THF    H1312353   0.757   3.607   5.466 -0.1561  2.6353 -1.0754
  802THF     O112354   5.172   4.536   4.939  0.3253 -0.1406  0.0398
  802THF     C212355   5.189   4.594   5.068  0.0047 -0.1741  0.4053
  802THF     C312356   5.080   4.610   4.865 -0.2279 -0.0353 -0.1319
  802THF     H412357   5.275   4.661   5.074 -0.8229  1.0871 -0.9816
  802THF     H512358   5.201   4.530   5.155  0.8487  1.3439  1.4602
  802THF     H612359   5.125   4.697   4.818  1.0867 -0.3897  0.4256
  802THF     H712360   5.043   4.549   4.783  0.9220 -0.6392 -0.2111
  802THF     C812361   4.981   4.650   4.971  0.0928 -0.1307 -0.5837
  802THF     C912362   5.064   4.670   5.105  0.2264 -0.6634  0.0522
  802THF    H1012363   4.925   4.559   4.989 -1.3133  0.3518 -2.2603
  802THF    H1112364   4.915   4.734   4.948 -0.3262  0.7310  3.1358
  802THF    H1212365   5.073   4.775   5.132  1.3556  0.1892 -3.1717
  802THF    H1312366   5.014   4.619   5.187  0.0152  1.0781  1.0500
  803THF     O112367   3.694   0.421   0.352  0.2051  0.2103 -0.2736
  803THF     C212368   3.685   0.401   0.212 -0.3676  0.1004  0.2968
  803THF     C312369   3.577   0.365   0.405 -0.3369  0.3008  1.0627
  803THF     H412370   3.781   0.401   0.160 -0.4853  2.7614 -0.0581
  803THF     H512371   3.620   0.473   0.161 -0.2028 -0.1170 -0.2302
  803THF     H612372   3.572   0.343   0.511  1.9094  0.7133  1.3050
  803THF     H712373   3.501   0.438   0.381  0.6818  0.9083 -0.4708
  803THF     C812374   3.538   0.239   0.321 -0.2507  0.2422 -0.4233
  803THF     C912375   3.612   0.269   0.193  0.2079 -0.3345  0.4655
  803THF    H1012376   3.431   0.221   0.324 -0.0576 -1.4325  3.5107
  803THF    H1112377   3.585   0.152   0.366  1.4295 -0.5376 -3.4242
  803THF    H1212378   3.682   0.191   0.162  0.9376  0.1874  0.7546
  803THF    H1312379   3.543   0.284   0.110 -0.3968  4.9760  1.5680
  804THF     O112380   4.445   5.357   3.192 -0.2082  0.4421  0.1982
  804THF     C212381   4.418   5.228   3.141 -0.2285 -0.1860 -0.2592
  804THF     C312382   4.323   5.417   3.241  0.1299  0.8191  0.2872
  804THF     H412383   4.411   5.166   3.231 -1.3423 -0.5576 -0.5876
  804THF     H512384   4.487   5.199   3.062  0.2913  1.1427 -0.3031
  804THF     H612385   4.319   5.429   3.350 -0.5042  1.2775  0.2186
  804THF     H712386   4.310   5.518   3.201  0.3124  0.1531 -1.5233
  804THF     C812387   4.212   5.332   3.180  0.0203 -0.0615 -0.3833
  804THF     C912388   4.278   5.236   3.089 -0.3138  0.1316  0.4277
  804THF    H1012389   4.127   5.387   3.137  0.7181  0.8382 -0.6356
  804THF    H1112390   4.172   5.271   3.261 -1.3037  2.7967  1.3131
  804THF    H1212391   4.229   5.139   3.083  0.4101 -0.2280  0.1042
  804THF    H1312392   4.281   5.276   2.987  1.0479 -0.4479  0.2126
  805THF     O112393   2.397   1.695   3.700  0.0005 -0.4378 -0.5381
  805THF     C212394   2.392   1.579   3.623  0.0434  0.6295 -0.3567
  805THF     C312395   2.355   1.659   3.832 -0.0387 -0.8109 -0.2609
  805THF     H412396   2.478   1.579   3.556  0.5813  3.3004  0.2029
  805THF     H512397   2.300   1.572   3.566  0.0028 -0.6711 -0.1590
  805THF     H612398   2.429   1.703   3.900  0.2791 -2.0971  0.2484
  805THF     H712399   2.258   1.703   3.853  0.0383  0.1004 -1.6712
  805THF     C812400   2.338   1.512   3.844 -0.0245  0.1428  0.3746
  805THF     C912401   2.405   1.457   3.717  0.2424  0.3753 -0.1139
  805THF    H1012402   2.237   1.473   3.838 -0.1708  0.6259 -0.3169
  805THF    H1112403   2.395   1.468   3.926  2.1107 -1.2001 -1.6830
  805THF    H1212404   2.510   1.433   3.736 -0.1585 -2.5011 -1.0288
  805THF    H1312405   2.353   1.371   3.675  0.7528  0.5134 -1.0626
  806THF     O112406   0.330   1.978   1.545 -0.0295 -0.2745  0.1255
  806THF     C212407   0.345   1.840   1.529 -0.6243 -0.2518 -0.0420
  806THF     C312408   0.447   2.042   1.496  0.6885 -0.2171 -0.2234
  806THF     H412409   0.242   1.815   1.505 -1.1781  0.9411  0.9833
  806THF     H512410   0.366   1.794   1.625 -1.0590  1.5560  0.9494
  806THF     H612411   0.422   2.144   1.470 -2.5969 -0.8678  0.0460
  806THF     H712412   0.527   2.059   1.569 -0.4382  0.3368  0.9144
  806THF     C812413   0.506   1.959   1.382 -0.5436 -0.0147 -0.3268
  806THF     C912414   0.449   1.822   1.426 -0.3873  1.0096  0.0826
  806THF    H1012415   0.615   1.968   1.383 -0.5858  0.5944  1.2218
  806THF    H1112416   0.462   1.993   1.288 -0.3568 -1.8668 -1.1321
  806THF    H1212417   0.405   1.770   1.341 -0.0041  2.7512 -1.2459
  806THF    H1312418   0.534   1.762   1.460 -0.1375  1.8482  0.9747
  807THF     O112419   0.041   3.693   0.208 -0.0183  0.3394 -0.1067
  807THF     C212420   0.141   3.742   0.114 -0.0402 -0.0987 -0.2556
  807THF     C312421   0.108   3.649   0.332 -0.4115 -0.4082  0.6777
  807THF     H412422   0.105   3.845   0.111  0.8129  0.3037  1.6522
  807THF     H512423   0.129   3.679   0.026  0.1901 -0.4697 -0.0241
  807THF     H612424   0.050   3.670   0.421 -0.4689 -0.6260  0.6940
  807THF     H712425   0.138   3.544   0.324  2.0419  0.3148 -0.4960
  807THF     C812426   0.234   3.740   0.328  0.5690  0.1871 -0.0868
  807THF     C912427   0.277   3.735   0.185  0.1896  0.6068  0.1359
  807THF    H1012428   0.304   3.700   0.401  0.5217 -1.5571 -0.9260
  807THF    H1112429   0.201   3.840   0.354  1.8596  0.2562  1.3642
  807THF    H1212430   0.343   3.818   0.161 -1.4364  1.4764 -1.5893
  807THF    H1312431   0.326   3.640   0.160  0.6557  0.6447  0.8591
  808THF     O112432   1.530   4.218   2.710 -0.1776  0.0461 -0.2320
  808THF     C212433   1.594   4.135   2.801 -0.7318 -0.3010 -0.5178
  808THF     C312434   1.418   4.151   2.671  0.0468 -0.1456 -0.1822
  808THF     H412435   1.555   4.140   2.903  0.2915 -1.4486 -0.0359
  808THF     H512436   1.700   4.160   2.807 -0.6566 -0.4236 -1.2801
  808THF     H612437   1.333   4.186   2.730 -0.1984 -2.8623  1.1973
  808THF     H712438   1.399   4.177   2.567 -1.2594 -1.2372 -0.2458
  808THF     C812439   1.437   3.999   2.682  0.9990 -0.1499  0.0572
  808THF     C912440   1.576   3.988   2.747  0.4648  0.2065 -0.1831
  808THF    H1012441   1.451   3.960   2.581 -1.2510  0.9401 -0.7292
  808THF    H1112442   1.351   3.950   2.727 -0.7046  1.2990 -1.4402
  808THF    H1212443   1.575   3.905   2.816 -0.2894  1.3797  1.2771
  808THF    H1312444   1.651   3.972   2.669  0.1452 -1.0446 -0.2491
  809THF     O112445   0.296   4.103   3.747  0.6652  0.0984  0.7070
  809THF     C212446   0.353   3.984   3.696 -0.3604 -0.3628  0.2787
  809THF     C312447   0.392   4.171   3.817  0.3456 -0.7003  0.1462
  809THF     H412448   0.288   3.938   3.622  0.2176 -1.8163  0.6370
  809THF     H512449   0.375   3.910   3.774 -2.1101 -0.7247  0.4730
  809THF     H612450   0.364   4.276   3.814 -0.7693 -0.9858  0.1495
  809THF     H712451   0.395   4.140   3.921 -0.5167  1.7309  0.9567
  809THF     C812452   0.527   4.129   3.747  0.3550 -0.2476 -0.2537
  809THF     C912453   0.481   4.042   3.638  0.3285  0.3885  0.2449
  809THF    H1012454   0.601   4.077   3.807 -1.5671 -1.6031  1.0367
  809THF    H1112455   0.560   4.221   3.697  1.4479 -0.5265 -0.0648
  809THF    H1212456   0.468   4.098   3.545  2.4215  0.4501 -0.0646
  809THF    H1312457   0.556   3.964   3.629 -0.1161 -0.0549  0.3625
  810THF     O112458   5.324   4.601   5.421 -0.2492 -0.1489 -0.7830
  810THF     C212459   5.402   4.611   5.543 -0.2236 -0.1293 -0.7333
  810THF     C312460   5.231   4.716   5.430 -0.2715  0.7148  0.2255
  810THF     H412461   5.509   4.622   5.529 -0.1997  0.8447  0.0831
  810THF     H512462   5.385   4.519   5.600  1.1723 -0.0940 -0.2346
  810THF     H612463   5.276   4.807   5.390  1.4604 -0.2613 -0.1029
  810THF     H712464   5.146   4.693   5.365 -0.3188 -1.1347  0.8781
  810THF     C812465   5.203   4.721   5.576  0.9677 -0.8242  0.2769
  810THF     C912466   5.337   4.715   5.632 -0.0672  0.3112 -0.1222
  810THF    H1012467   5.133   4.641   5.602  0.0132 -0.2936 -0.5711
  810THF    H1112468   5.153   4.816   5.594  0.8378 -0.4033 -1.9961
  810THF    H1212469   5.398   4.805   5.636  1.4294 -0.5216 -2.2868
  810THF    H1312470   5.344   4.678   5.734 -0.0308  0.9853  0.1215
  811THF     O112471   1.881   4.932   2.855  0.8330 -0.3214  0.8041
  811THF     C212472   1.746   4.920   2.898 -0.3355 -0.6274 -0.4879
  811THF     C312473   1.970   4.931   2.962  0.0137 -0.3576 -0.3143
  811THF     H412474   1.719   4.823   2.858  0.5367 -0.3507 -1.8170
  811THF     H512475   1.686   4.998   2.851  3.0184  1.1549 -2.1716
  811THF     H612476   1.999   4.829   2.984  0.4830 -0.5372 -1.7098
  811THF     H712477   2.052   5.000   2.940  0.5966 -1.1258 -0.5678
  811THF     C812478   1.883   4.981   3.079  0.0331  0.1126 -0.4769
  811THF     C912479   1.745   4.928   3.049  0.0255  0.5680  0.0351
  811THF    H1012480   1.890   5.090   3.077  4.3325  0.0207  0.1165
  811THF    H1112481   1.924   4.936   3.169  0.3131 -1.3841 -1.3258
  811THF    H1212482   1.735   4.833   3.103  0.1325  0.5511  0.0251
  811THF    H1312483   1.667   4.990   3.094 -0.2104  0.9130 -0.8305
  812THF     O112484   1.879   4.124   3.807  0.2791 -0.1855  0.1770
  812THF     C212485   1.779   4.127   3.701 -0.2029 -0.0896 -0.5109
  812THF     C312486   1.984   4.036   3.770  0.1151 -0.1845  0.1250
  812THF     H412487   1.798   4.204   3.626  1.1942  2.4103  2.1778
  812THF     H512488   1.687   4.171   3.739 -0.9149 -0.0790 -2.1880
  812THF     H612489   2.054   4.084   3.702 -0.7028  1.4543  0.3836
  812THF     H712490   2.038   4.003   3.859  0.8869 -1.9286 -0.9498
  812THF     C812491   1.911   3.927   3.697  1.0179  0.0372  0.6059
  812THF     C912492   1.781   3.986   3.644  0.2968  0.2020  0.5367
  812THF    H1012493   1.878   3.850   3.766 -1.2397 -1.1780 -1.6671
  812THF    H1112494   1.967   3.868   3.623  1.3850 -1.3360  1.9273
  812THF    H1212495   1.783   3.980   3.535  0.3011 -2.2164  0.6190
  812THF    H1312496   1.693   3.925   3.665  1.0718 -1.3260 -0.5322
  813THF     O112497   1.654   3.131   0.981  0.0967 -0.0189 -0.4863
  813THF     C212498   1.759   3.226   0.995 -0.2323  0.3083 -0.3326
  813THF     C312499   1.718   3.013   0.940  0.7588 -0.0133 -0.0892
  813THF     H412500   1.738   3.292   1.078 -0.8785 -0.8268  0.4364
  813THF     H512501   1.769   3.296   0.912 -2.0770  1.9456  0.7551
  813THF     H612502   1.660   2.921   0.949  0.9062 -0.0981  0.0082
  813THF     H712503   1.743   3.024   0.834 -0.4872 -1.0474 -0.5121
  813THF     C812504   1.850   3.011   1.009 -0.9631 -0.2097 -0.0018
  813THF     C912505   1.890   3.154   1.024 -0.3803  0.3699 -0.1874
  813THF    H1012506   1.927   2.954   0.957 -0.2431  0.2685  0.5181
  813THF    H1112507   1.834   2.956   1.102  1.4203 -0.3821  0.3779
  813THF    H1212508   1.917   3.159   1.130 -0.9282  2.2835 -0.1004
  813THF    H1312509   1.974   3.190   0.966  0.2919 -1.1086 -0.1920
  814THF     O112510   1.237   1.884   4.939 -0.1663  0.3607  0.2998
  814THF     C212511   1.319   1.929   4.837  0.0955 -0.0644  0.4766
  814THF     C312512   1.208   1.998   5.009  0.4416 -0.6011 -0.0305
  814THF     H412513   1.247   1.973   4.768  0.8839  2.0493  0.9159
  814THF     H512514   1.373   1.852   4.783  1.7905  1.3818  0.0169
  814THF     H612515   1.124   2.054   4.967 -1.0435 -1.5562  1.5491
  814THF     H712516   1.170   1.976   5.108 -3.5881  0.9888 -0.9874
  814THF     C812517   1.334   2.079   5.013  0.8732  0.6083 -0.9127
  814THF     C912518   1.411   2.037   4.888  0.6460  0.0526  0.2410
  814THF    H1012519   1.383   2.069   5.110 -3.5459  1.0913  1.6337
  814THF    H1112520   1.308   2.185   5.010  0.1002  0.5295  1.1572
  814THF    H1212521   1.432   2.111   4.812  0.5039 -0.8054 -0.6603
  814THF    H1312522   1.502   1.991   4.925  0.8034  0.0711 -0.1292
  815THF     O112523   1.013   4.638   3.605 -0.4376  0.1537  0.2556
  815THF     C212524   1.132   4.678   3.537 -0.3646 -0.6664 -1.0119
  815THF     C312525   1.045   4.558   3.717  0.0540  0.3875  0.1605
  815THF     H412526   1.132   4.781   3.502  0.7462 -1.0858 -2.3642
  815THF     H512527   1.147   4.614   3.449  0.7512 -1.5251 -0.2327
  815THF     H612528   0.965   4.565   3.791 -1.1312 -2.3168 -0.7634
  815THF     H712529   1.043   4.459   3.672 -0.2441  0.1427  0.7128
  815THF     C812530   1.180   4.613   3.766  0.0050  0.7286  0.3778
  815THF     C912531   1.248   4.652   3.631  0.1251 -0.0274 -0.9722
  815THF    H1012532   1.234   4.544   3.831 -0.4413  0.8271  0.8660
  815THF    H1112533   1.175   4.701   3.830  3.1530  0.0511  1.7898
  815THF    H1212534   1.325   4.729   3.639 -1.6024  1.5140  2.6236
  815THF    H1312535   1.304   4.564   3.597 -0.4445 -1.1173  0.7922
  816THF     O112536   0.956   2.222   5.090 -0.3960  0.8075  0.8026
  816THF     C212537   0.917   2.354   5.071  0.1496  0.2803  0.3979
  816THF     C312538   0.986   2.194   5.227 -0.6886  0.2108 -0.1007
  816THF     H412539   0.814   2.359   5.035 -0.7205 -1.5208  2.4050
  816THF     H512540   0.972   2.390   4.984 -0.8572 -0.8369 -0.7329
  816THF     H612541   0.897   2.151   5.274  0.2548 -1.3816  0.3118
  816THF     H712542   1.068   2.127   5.250 -0.7981  0.1411  0.0973
  816THF     C812543   1.023   2.331   5.281 -0.3773  0.0136 -0.1409
  816THF     C912544   0.928   2.424   5.204  0.0605  0.1520  1.3969
  816THF    H1012545   1.125   2.360   5.257 -0.1531 -0.7971 -0.1946
  816THF    H1112546   1.001   2.340   5.387 -1.6917 -2.6204 -0.1074
  816THF    H1212547   0.830   2.430   5.252 -0.1480  0.7049  0.9115
  816THF    H1312548   0.971   2.521   5.181 -1.1337  0.3910  0.0113
  817THF     O112549   2.552   1.910   0.232  0.3579 -0.3537  0.4917
  817THF     C212550   2.542   1.931   0.089  0.2566 -0.6006  0.3228
  817THF     C312551   2.460   1.809   0.270 -1.3504 -0.3890 -0.4283
  817THF     H412552   2.589   1.842   0.048  0.3344 -0.2965 -0.2581
  817THF     H512553   2.595   2.020   0.056 -1.4956  1.4663  2.6627
  817THF     H612554   2.515   1.717   0.250 -1.0865 -0.6060  1.1106
  817THF     H712555   2.442   1.802   0.378  0.6539 -0.5199 -0.0490
  817THF     C812556   2.344   1.830   0.173  0.1220 -0.3415 -0.6256
  817THF     C912557   2.384   1.943   0.083 -0.1219 -0.4580 -0.3172
  817THF    H1012558   2.248   1.853   0.219 -0.3249  0.8036 -2.0558
  817THF    H1112559   2.344   1.742   0.109 -1.6024 -1.1020  0.3396
  817THF    H1212560   2.337   1.922  -0.013  0.1335  0.5096 -0.6602
  817THF    H1312561   2.353   2.043   0.111 -3.4765 -1.2423 -0.8236
  818THF     O112562   3.273   4.671   1.055 -0.4489  0.8682 -0.1723
  818THF     C212563   3.379   4.698   1.143  0.1791 -0.4662 -0.3901
  818THF     C312564   3.184   4.777   1.076  0.6612  0.1060  0.1595
  818THF     H412565   3.439   4.782   1.107 -1.9885  1.1627 -0.4053
  818THF     H512566   3.454   4.621   1.160 -0.0843 -0.6921 -0.2637
  818THF     H612567   3.230   4.862   1.024 -0.9001  1.5265  1.0122
  818THF     H712568   3.085   4.757   1.035  1.3378 -1.0767 -0.9699
  818THF     C812569   3.182   4.787   1.231 -0.4333  0.0615 -0.2651
  818THF     C912570   3.321   4.761   1.270  0.3400 -0.6964  0.3273
  818THF    H1012571   3.116   4.713   1.276  0.5662 -0.6952  0.0022
  818THF    H1112572   3.141   4.879   1.272 -0.3408 -0.8428  1.9940
  818THF    H1212573   3.368   4.854   1.304  0.8868 -0.8998  0.1452
  818THF    H1312574   3.329   4.690   1.352 -1.1042 -1.2405  0.0290
  819THF     O112575   0.653   4.551   1.298 -0.1702 -0.4014 -0.1183
  819THF     C212576   0.680   4.483   1.173 -0.1836 -0.0551 -0.3007
  819THF     C312577   0.596   4.672   1.270 -0.2670  0.2225 -0.3830
  819THF     H412578   0.587   4.430   1.152 -0.8244  0.6064  0.7532
  819THF     H512579   0.757   4.406   1.179  0.4672  0.6940  3.8981
  819THF     H612580   0.501   4.689   1.321  0.6802  0.7830  1.2679
  819THF     H712581   0.668   4.739   1.316  0.4132 -1.8689  1.7856
  819THF     C812582   0.588   4.688   1.120  0.2571  0.3864  0.1061
  819THF     C912583   0.701   4.599   1.071 -0.2028  0.6850  0.3727
  819THF    H1012584   0.598   4.791   1.086 -0.9609  1.0626  1.6705
  819THF    H1112585   0.491   4.648   1.092  0.4876 -0.1590  0.0801
  819THF    H1212586   0.686   4.565   0.968 -1.8152 -0.7400  1.0290
  819THF    H1312587   0.795   4.653   1.084  0.5468 -0.5315  0.1004
  820THF     O112588   0.830   4.554   5.133 -0.1191 -1.0417  0.4550
  820THF     C212589   0.738   4.578   5.024 -0.1758 -0.5822 -0.0508
  820THF     C312590   0.901   4.680   5.144 -0.9803  0.0763 -0.1605
  820THF     H412591   0.670   4.493   5.038  0.8010 -1.1037  1.9969
  820THF     H512592   0.782   4.575   4.925 -0.9584  0.3516 -0.4451
  820THF     H612593   0.955   4.680   5.239  1.2124  2.9652 -1.2704
  820THF     H712594   0.958   4.703   5.054 -2.5138  0.2810 -1.1092
  820THF     C812595   0.797   4.784   5.140 -0.6549  0.0756 -0.1106
  820THF     C912596   0.691   4.719   5.048 -0.1467 -0.9550 -0.5486
  820THF    H1012597   0.828   4.878   5.095 -0.5353 -0.3330 -0.9161
  820THF    H1112598   0.747   4.809   5.233 -0.2553  0.9080 -0.1173
  820THF    H1212599   0.601   4.722   5.110  0.9326 -0.7092  1.0704
  820THF    H1312600   0.660   4.764   4.954  1.7252 -0.3767 -0.9184
  821THF     O112601   2.488   4.273   4.985 -0.1378  0.3034  0.3322
  821THF     C212602   2.616   4.309   4.924 -0.2663  0.1929 -0.4519
  821THF     C312603   2.511   4.159   5.067  1.0451 -0.5578 -0.4780
  821THF     H412604   2.674   4.371   4.992  2.4329 -1.0015 -1.5278
  821THF     H512605   2.610   4.364   4.830 -3.3998  1.6778  0.4803
  821THF     H612606   2.557   4.188   5.162 -1.1968  0.7738  0.2734
  821THF     H712607   2.422   4.107   5.101  0.3863  0.7437 -0.1376
  821THF     C812608   2.600   4.069   4.979 -0.5002  0.3620 -0.7174
  821THF     C912609   2.679   4.169   4.902 -0.6798 -0.4706  0.3346
  821THF    H1012610   2.540   4.015   4.906 -0.5628 -0.9194  0.2687
  821THF    H1112611   2.661   4.003   5.040 -0.6132 -0.6646 -1.6759
  821THF    H1212612   2.783   4.179   4.933  0.0150 -0.3108 -1.8466
  821THF    H1312613   2.693   4.146   4.796  0.0441  1.1500  0.0445
  822THF     O112614   4.147   1.768   3.570  0.1447 -0.3694 -0.0617
  822THF     C212615   4.197   1.648   3.496 -0.6973 -0.7966 -0.4908
  822THF     C312616   4.013   1.799   3.529 -0.5203 -0.3337  0.1631
  822THF     H412617   4.173   1.555   3.547  0.2092 -1.4283 -1.1839
  822THF     H512618   4.305   1.663   3.490 -0.4503 -1.9618  0.5558
  822THF     H612619   3.946   1.758   3.604 -1.2670 -2.0723 -1.3559
  822THF     H712620   3.999   1.906   3.520 -2.5907 -0.5987 -0.2940
  822THF     C812621   4.011   1.732   3.390  0.6411  0.4326 -0.3448
  822THF     C912622   4.132   1.651   3.363 -0.6551 -0.2383 -0.4573
  822THF    H1012623   3.990   1.804   3.311 -0.9096  2.1308  1.5098
  822THF    H1112624   3.922   1.669   3.386 -0.1125  1.5090 -3.9196
  822THF    H1212625   4.111   1.547   3.339  0.7371 -1.2222  2.2154
  822THF    H1312626   4.195   1.697   3.286 -0.0702 -0.0187  0.1452
  823THF     O112627   4.731   1.595   2.546  0.4884 -0.4748 -0.3182
  823THF     C212628   4.825   1.683   2.602  0.0745 -0.3302 -0.3580
  823THF     C312629   4.784   1.467   2.563 -0.1304  0.2907  0.3320
  823THF     H412630   4.823   1.690   2.711  0.2050  1.4494 -0.4325
  823THF     H512631   4.816   1.784   2.562 -0.3376 -0.1283  0.2252
  823THF     H612632   4.768   1.422   2.660  2.1699 -3.3191 -0.7535
  823THF     H712633   4.738   1.392   2.498 -2.2198  0.1785  1.8558
  823THF     C812634   4.934   1.488   2.525 -0.5733  0.2521  0.1329
  823THF     C912635   4.959   1.635   2.545 -0.2780 -0.0004 -0.0593
  823THF    H1012636   4.959   1.467   2.421 -1.6851  0.3595 -0.1799
  823THF    H1112637   5.000   1.437   2.595  0.0807  0.8985 -0.0038
  823THF    H1212638   5.034   1.653   2.622 -1.3225  1.1414  0.7346
  823THF    H1312639   4.990   1.687   2.454  1.0281  0.7068  0.7573
  824THF     O112640   4.087   1.045   3.259  0.2245 -0.1644  0.1070
  824THF     C212641   4.031   1.091   3.127 -0.6089  0.0852 -0.0743
  824THF     C312642   4.229   1.057   3.248  0.6311 -0.7081  0.0446
  824THF     H412643   3.932   1.137   3.131 -1.6167 -2.0168  1.8186
  824THF     H512644   4.028   1.007   3.058 -2.0149  0.5845 -0.6504
  824THF     H612645   4.283   1.055   3.343  2.4952  2.1711 -0.8265
  824THF     H712646   4.277   0.975   3.196  1.3654 -1.0325  1.1920
  824THF     C812647   4.259   1.181   3.169 -0.2673  0.4120 -0.1705
  824THF     C912648   4.138   1.191   3.078  0.5630  0.0847  0.3655
  824THF    H1012649   4.356   1.184   3.121  0.8667 -1.3350  1.8852
  824THF    H1112650   4.256   1.264   3.239  0.4940 -0.2279  0.6348
  824THF    H1212651   4.089   1.288   3.080 -3.0812 -1.6026  0.8765
  824THF    H1312652   4.165   1.161   2.977  1.1481  0.6327  0.3505
  825THF     O112653   1.745   1.279   3.013  0.1694  0.4641 -0.0387
  825THF     C212654   1.774   1.190   3.123 -0.3064  0.3168  0.2597
  825THF     C312655   1.726   1.405   3.074 -0.2861 -0.0093 -0.2295
  825THF     H412656   1.876   1.214   3.152 -0.9582  2.8258  0.6798
  825THF     H512657   1.782   1.084   3.099  2.0952  0.9634 -2.3081
  825THF     H612658   1.823   1.440   3.111 -0.7798  0.4468  0.6724
  825THF     H712659   1.694   1.481   3.003 -0.0681  0.8618  0.5910
  825THF     C812660   1.625   1.370   3.184  0.1785 -0.1667 -0.2109
  825THF     C912661   1.670   1.231   3.218 -0.6121  0.0001 -0.1656
  825THF    H1012662   1.523   1.365   3.146 -0.0412  0.1571  0.3213
  825THF    H1112663   1.631   1.438   3.269 -0.9800  1.3934 -1.3140
  825THF    H1212664   1.715   1.226   3.317  1.2809 -3.8833 -0.9930
  825THF    H1312665   1.586   1.164   3.201 -0.9954  0.3813  0.2101
  826THF     O112666   1.809   1.919   2.237 -0.0076  0.0701 -0.2780
  826THF     C212667   1.730   1.993   2.152 -0.3110  0.7778  0.2040
  826THF     C312668   1.738   1.822   2.306  0.6350  0.6466  0.3915
  826THF     H412669   1.717   1.930   2.064 -2.6025 -1.3967  1.9733
  826THF     H512670   1.773   2.087   2.116  3.1237 -0.9629 -0.7498
  826THF     H612671   1.727   1.730   2.248 -1.3071 -1.4121  3.6728
  826THF     H712672   1.776   1.809   2.407 -0.7747  1.7010  1.0988
  826THF     C812673   1.603   1.887   2.329 -0.7994  0.7593  0.1500
  826THF     C912674   1.604   2.005   2.233 -0.1719 -0.4657  0.4629
  826THF    H1012675   1.587   1.922   2.431 -3.3713 -1.1689  0.5334
  826THF    H1112676   1.522   1.816   2.313  1.5073 -1.9698 -0.1556
  826THF    H1212677   1.511   1.997   2.178 -0.5767 -1.3394  1.2576
  826THF    H1312678   1.609   2.100   2.287 -1.7830 -0.5559  0.8172
  827THF     O112679   1.931   2.536   1.733  0.5582 -0.6174  0.1890
  827THF     C212680   1.977   2.668   1.768 -0.5919 -0.1293  0.5348
  827THF     C312681   2.019   2.470   1.646 -0.3487 -1.4354  0.0652
  827THF     H412682   1.942   2.717   1.859 -0.3286 -0.0595  0.5998
  827THF     H512683   1.966   2.726   1.676  1.8534  0.6483  0.6740
  827THF     H612684   2.006   2.363   1.628 -0.2093 -1.1893 -1.6339
  827THF     H712685   2.019   2.529   1.555  0.2447 -1.4543  0.0523
  827THF     C812686   2.152   2.505   1.713  0.5338 -0.1753 -0.3787
  827THF     C912687   2.128   2.641   1.777  0.2666  0.3627  0.4343
  827THF    H1012688   2.236   2.493   1.645  0.5283 -2.3372 -0.0464
  827THF    H1112689   2.178   2.428   1.785  1.9713 -0.5192 -1.2266
  827THF    H1212690   2.162   2.645   1.880  1.6131  0.8415 -0.0103
  827THF    H1312691   2.183   2.721   1.728 -1.5559  2.7009  1.9419
  828THF     O112692   2.006   4.810   5.286 -0.1582  0.0399 -0.0360
  828THF     C212693   2.009   4.678   5.346  0.3375 -0.4939  0.1284
  828THF     C312694   1.913   4.831   5.181 -0.0321 -0.3111 -0.4380
  828THF     H412695   1.922   4.677   5.412 -0.1942  0.6254 -0.5055
  828THF     H512696   2.088   4.669   5.420  1.3106 -1.1518 -0.9493
  828THF     H612697   1.819   4.873   5.216  0.3808  0.8809 -0.7373
  828THF     H712698   1.951   4.884   5.094 -0.6923  1.5692  0.3804
  828THF     C812699   1.896   4.681   5.135 -0.4642 -0.2316  0.1440
  828THF     C912700   1.985   4.598   5.224 -0.2970 -0.3834 -0.2413
  828THF    H1012701   1.915   4.664   5.029 -0.9451  0.3620 -0.0414
  828THF    H1112702   1.790   4.657   5.145 -0.3833 -0.1949  1.1504
  828THF    H1212703   1.933   4.503   5.236 -0.9054 -0.4449 -2.7354
  828THF    H1312704   2.080   4.572   5.177 -0.8274 -1.7691 -0.6080
  829THF     O112705   0.577   3.520   2.428 -0.1383  0.0510 -0.1653
  829THF     C212706   0.489   3.635   2.415 -0.1464 -0.1988  0.0992
  829THF     C312707   0.552   3.438   2.315  0.0796 -0.1061 -0.3606
  829THF     H412708   0.548   3.708   2.470 -0.9832  1.1326 -0.7132
  829THF     H512709   0.398   3.629   2.475 -1.7584  1.2965 -2.0464
  829THF     H612710   0.633   3.365   2.310  1.1069  0.7964  1.7414
  829THF     H712711   0.466   3.373   2.336  0.0787 -0.0841 -0.2957
  829THF     C812712   0.530   3.536   2.204 -0.2596  0.3916  0.3135
  829THF     C912713   0.474   3.666   2.267  0.3709 -0.3953 -0.5164
  829THF    H1012714   0.471   3.491   2.124  0.1631  0.0027  0.2137
  829THF    H1112715   0.626   3.552   2.154 -0.3132 -0.6747 -0.1542
  829THF    H1212716   0.535   3.752   2.242 -0.9033  0.9892  0.9245
  829THF    H1312717   0.370   3.683   2.238  0.9332  0.9743 -1.8646
  830THF     O112718   5.119   2.012   2.645  0.3332  0.2459 -0.1514
  830THF     C212719   5.128   1.964   2.777 -0.3404  0.0187  0.3147
  830THF     C312720   5.252   2.031   2.599 -0.0105  0.3710 -0.3872
  830THF     H412721   5.162   1.861   2.771  0.7698  0.4304 -1.6498
  830THF     H512722   5.029   1.987   2.817 -0.8349  0.8213 -1.2369
  830THF     H612723   5.288   1.935   2.563  0.2687  0.5769 -0.6661
  830THF     H712724   5.256   2.111   2.525  1.2199  0.8138  0.1226
  830THF     C812725   5.328   2.084   2.718 -0.1860 -0.2358 -0.2800
  830THF     C912726   5.239   2.052   2.839  0.0530 -0.0883  0.2730
  830THF    H1012727   5.336   2.193   2.721  1.7316 -0.3296 -0.6411
  830THF    H1112728   5.429   2.043   2.721 -0.6311 -1.4978 -1.4981
  830THF    H1212729   5.298   2.001   2.915  1.0742  0.4362 -0.1596
  830THF    H1312730   5.188   2.136   2.886 -0.1783  0.0415 -0.2035
  831THF     O112731   3.655   2.675   3.031 -0.1858 -0.3311 -0.3835
  831THF     C212732   3.517   2.652   3.028  0.4197 -0.3929  0.4742
  831THF     C312733   3.726   2.563   3.090 -0.2514  0.4459 -0.3207
  831THF     H412734   3.489   2.614   2.930  0.9286  1.6091 -0.5084
  831THF     H512735   3.473   2.746   3.061  2.8683  1.4373 -1.1340
  831THF     H612736   3.741   2.483   3.018  1.4652  0.5676 -0.1436
  831THF     H712737   3.825   2.588   3.129  0.1181 -0.2960 -0.7723
  831THF     C812738   3.629   2.529   3.207 -0.5866 -0.1849 -0.7231
  831THF     C912739   3.494   2.540   3.135 -0.1782  0.2414 -0.2730
  831THF    H1012740   3.626   2.604   3.287  0.4090 -1.0933  0.1989
  831THF    H1112741   3.658   2.432   3.248 -0.8061 -0.2963 -0.8334
  831THF    H1212742   3.491   2.447   3.077 -1.0778 -0.1380  0.3504
  831THF    H1312743   3.401   2.545   3.190  0.7399  1.0964  1.2556
  832THF     O112744   0.482   4.103   0.575  0.2930 -0.0369  0.1595
  832THF     C212745   0.343   4.067   0.595 -0.4926  0.1565 -0.4859
  832THF     C312746   0.525   4.068   0.442 -0.4170  0.3992 -0.2065
  832THF     H412747   0.299   4.109   0.685 -1.5892 -0.6832 -0.6167
  832THF     H512748   0.334   3.960   0.579  2.5246 -0.3072  0.2727
  832THF     H612749   0.610   4.133   0.421 -0.0565  0.7937  2.1145
  832THF     H712750   0.554   3.964   0.428  1.3084  0.7755  0.3555
  832THF     C812751   0.395   4.102   0.363  0.1661 -0.2088 -0.5928
  832THF     C912752   0.287   4.121   0.468 -0.1674  0.0640  0.0615
  832THF    H1012753   0.370   4.028   0.288 -0.2798 -1.2943  0.5871
  832THF    H1112754   0.422   4.189   0.303 -0.5628  0.9946  0.7625
  832THF    H1212755   0.281   4.230   0.473 -0.1453  0.0708 -0.0716
  832THF    H1312756   0.186   4.086   0.448 -0.9936  2.3887 -0.2221
  833THF     O112757   0.039   3.635   2.181 -0.3060 -0.0330 -0.0075
  833THF     C212758  -0.063   3.584   2.091  0.5908 -0.2450 -0.3069
  833THF     C312759   0.103   3.522   2.244  0.3567  0.5382  0.9309
  833THF     H412760  -0.007   3.532   2.013  4.7167  2.1720  0.7021
  833THF     H512761  -0.128   3.658   2.044  1.3379  0.5896 -0.0543
  833THF     H612762   0.172   3.482   2.170 -0.4374  0.4897  0.2075
  833THF     H712763   0.157   3.544   2.336  0.6653  1.1157  0.6181
  833THF     C812764  -0.021   3.433   2.267 -0.3209 -0.5955 -0.0191
  833THF     C912765  -0.135   3.485   2.180 -0.4824 -0.0591 -0.1471
  833THF    H1012766  -0.047   3.439   2.373 -0.8243 -3.5978  0.1061
  833THF    H1112767   0.009   3.330   2.250  2.5957 -0.3403  2.6877
  833THF    H1212768  -0.172   3.404   2.117  0.0970 -1.4884  1.2879
  833THF    H1312769  -0.215   3.513   2.249 -0.7515 -1.2281  0.0303
  834THF     O112770   0.502   3.698   3.850  0.0543  0.3597 -0.2666
  834THF     C212771   0.442   3.709   3.975  0.0719  0.1740  0.5652
  834THF     C312772   0.638   3.731   3.868  0.0528  0.0936 -0.0326
  834THF     H412773   0.474   3.614   4.019  1.0579  0.3837  0.3306
  834THF     H512774   0.335   3.727   3.971  0.0110 -0.3723 -0.8501
  834THF     H612775   0.699   3.641   3.879  1.6212  1.0816 -0.2454
  834THF     H712776   0.673   3.791   3.784 -1.6808  1.4046  0.1283
  834THF     C812777   0.651   3.829   3.986  1.0695 -0.0410 -0.0779
  834THF     C912778   0.515   3.817   4.054 -0.1842 -0.3634 -0.5666
  834THF    H1012779   0.653   3.934   3.955  0.5867  0.1051  0.3791
  834THF    H1112780   0.720   3.815   4.069 -1.2178  1.5132  2.2217
  834THF    H1212781   0.524   3.791   4.159  0.5793  0.4926 -0.4121
  834THF    H1312782   0.458   3.910   4.061  2.6729  1.3866  2.2662
  835THF     O112783   1.075   0.126   0.249 -0.1042  0.0845 -0.5135
  835THF     C212784   1.057   0.227   0.151  0.1863  0.0182  0.3233
  835THF     C312785   1.128   0.009   0.186  0.7968  0.2145 -0.1238
  835THF     H412786   1.071   0.327   0.192 -1.6617  0.2945  0.3575
  835THF     H512787   0.964   0.238   0.095  0.2145 -0.2329  0.2227
  835THF     H612788   1.177  -0.060   0.255  1.5620  2.6641  1.9602
  835THF     H712789   1.047  -0.048   0.141 -1.3930  1.5278  1.9369
  835THF     C812790   1.232   0.071   0.087  0.7333  0.0487 -0.1088
  835THF     C912791   1.161   0.198   0.041  0.1323 -0.1492  0.6175
  835THF    H1012792   1.244  -0.005   0.010  2.6251  0.7204 -0.5231
  835THF    H1112793   1.329   0.091   0.132  1.4553 -0.8785 -1.2083
  835THF    H1212794   1.241   0.270   0.026 -0.8081  0.8569  0.3519
  835THF    H1312795   1.124   0.185  -0.061  0.5780  2.1455  0.1104
  836THF     O112796   0.886   1.368   4.665 -0.2902 -0.1827 -0.0152
  836THF     C212797   0.756   1.378   4.710  0.1022  0.1263 -0.0863
  836THF     C312798   0.934   1.241   4.705 -0.3996 -0.4740  0.1381
  836THF     H412799   0.696   1.465   4.682 -0.9916 -0.5591  0.0561
  836THF     H512800   0.760   1.391   4.818  2.1364 -1.7841  0.1236
  836THF     H612801   1.028   1.214   4.658  1.5595  3.3405  1.4051
  836THF     H712802   0.937   1.230   4.813  1.0445 -0.9977  0.0727
  836THF     C812803   0.820   1.152   4.651  0.5318  0.0600  0.5822
  836THF     C912804   0.693   1.236   4.668  0.4544 -0.2806  0.0267
  836THF    H1012805   0.808   1.059   4.706  1.8577 -0.4948 -0.0253
  836THF    H1112806   0.831   1.131   4.544  0.7555  1.2999  0.3457
  836THF    H1212807   0.644   1.255   4.573 -0.4497 -0.8518  0.3591
  836THF    H1312808   0.618   1.201   4.739  1.3223  0.9143  1.5873
  837THF     O112809   0.297   3.854   1.320 -0.6332 -0.6539  0.2437
  837THF     C212810   0.166   3.831   1.347  0.0055  0.3285 -0.0330
  837THF     C312811   0.375   3.840   1.440 -0.1390  0.5914  0.5210
  837THF     H412812   0.132   3.736   1.306  3.8613 -1.2008 -0.1304
  837THF     H512813   0.104   3.904   1.294  0.5179  0.9754  0.2323
  837THF     H612814   0.386   3.732   1.450  1.6416  0.4757 -1.7724
  837THF     H712815   0.477   3.878   1.444 -0.3985  1.4657 -0.5782
  837THF     C812816   0.283   3.886   1.552 -0.1897 -0.0177  1.3977
  837THF     C912817   0.150   3.825   1.497  0.1709 -0.3634 -0.5406
  837THF    H1012818   0.280   3.993   1.570 -1.6581  0.0349  1.0211
  837THF    H1112819   0.301   3.839   1.648 -0.4809 -0.6831  1.1311
  837THF    H1212820   0.134   3.724   1.535 -0.6944 -0.2286 -0.5218
  837THF    H1312821   0.069   3.889   1.532  0.6119 -0.2081  0.2067
  838THF     O112822   3.334   3.197   1.937 -0.4264  0.3458  0.0621
  838THF     C212823   3.429   3.216   2.040  0.4474  0.1028  0.4326
  838THF     C312824   3.378   3.252   1.813 -1.7583 -0.4833 -0.0549
  838THF     H412825   3.504   3.137   2.047 -0.4288 -0.8094 -0.1854
  838THF     H512826   3.379   3.225   2.137  0.7269 -2.3029  0.8655
  838THF     H612827   3.409   3.175   1.742  3.1228 -0.3308  1.4901
  838THF     H712828   3.298   3.312   1.769 -0.4231 -0.1953 -2.2843
  838THF     C812829   3.506   3.336   1.841 -0.5498 -0.0886 -0.2614
  838THF     C912830   3.495   3.347   1.998  0.0759  0.2867 -0.2901
  838THF    H1012831   3.502   3.430   1.786  1.6124  0.0140 -0.3242
  838THF    H1112832   3.596   3.281   1.814  0.6045  2.5352 -2.1145
  838THF    H1212833   3.594   3.356   2.043 -0.2293  0.0009  0.4502
  838THF    H1312834   3.426   3.424   2.031  0.7678 -0.1650  2.4741
  839THF     O112835   3.028   1.221   5.066 -0.5319 -0.2614 -0.2554
  839THF     C212836   2.979   1.215   4.928 -0.6363 -0.6771 -0.0305
  839THF     C312837   3.098   1.106   5.092  0.3039 -0.2727  0.0041
  839THF     H412838   2.980   1.316   4.885 -1.3741 -0.2712  0.8462
  839THF     H512839   2.874   1.185   4.928 -0.4820 -1.2774 -1.4804
  839THF     H612840   3.158   1.122   5.181 -0.5432 -0.2359  0.5851
  839THF     H712841   3.027   1.024   5.102  0.3135 -0.4399 -1.1478
  839THF     C812842   3.172   1.081   4.964 -0.6437 -0.5771  0.6767
  839THF     C912843   3.079   1.122   4.849  0.5385  0.0120  0.7928
  839THF    H1012844   3.196   0.975   4.956 -0.9546 -0.6542  0.7320
  839THF    H1112845   3.263   1.141   4.969 -0.5201 -0.7303  0.2638
  839THF    H1212846   3.125   1.185   4.774 -3.3048 -1.2062 -2.9881
  839THF    H1312847   3.034   1.038   4.796 -2.0379  1.8184 -0.0644
  840THF     O112848   0.264   4.328   3.005  1.0503  0.3770  0.3577
  840THF     C212849   0.390   4.356   3.067 -0.2870 -0.4236 -0.2033
  840THF     C312850   0.284   4.299   2.866  0.3727 -0.0554  0.1294
  840THF     H412851   0.391   4.329   3.172  2.1529 -2.3927 -0.6493
  840THF     H512852   0.414   4.460   3.043 -0.8643 -0.4872 -1.1181
  840THF     H612853   0.200   4.271   2.803 -0.0740  2.2031 -0.3732
  840THF     H712854   0.301   4.397   2.820 -0.2421  0.8556  1.7656
  840THF     C812855   0.404   4.202   2.873  0.6160  0.7512  0.5081
  840THF     C912856   0.483   4.251   3.000 -0.0877  0.2964  0.2012
  840THF    H1012857   0.472   4.221   2.790  0.6139  1.1961  0.6049
  840THF    H1112858   0.374   4.098   2.878 -0.2476  1.0334  1.8659
  840THF    H1212859   0.523   4.176   3.069 -0.4016 -1.2199 -1.2267
  840THF    H1312860   0.574   4.300   2.965  0.8255 -1.5047 -0.0933
  841THF     O112861   4.094   0.605   3.889  0.5735  0.1793  0.0605
  841THF     C212862   4.107   0.709   3.989  0.6117  0.1051  0.0502
  841THF     C312863   4.214   0.536   3.895 -0.2146  0.3341  0.0228
  841THF     H412864   4.010   0.752   4.011  0.8398  0.1516  1.0061
  841THF     H512865   4.168   0.790   3.950  0.0299  0.9998  0.9469
  841THF     H612866   4.211   0.445   3.834  0.5324 -0.2175  0.7981
  841THF     H712867   4.296   0.596   3.857 -1.2623  0.9793 -1.3430
  841THF     C812868   4.219   0.504   4.041  0.2292 -0.4276  0.5655
  841THF     C912869   4.169   0.631   4.101 -0.5521 -0.7155  0.2266
  841THF    H1012870   4.319   0.478   4.077  0.5155 -0.4291 -0.2082
  841THF    H1112871   4.154   0.419   4.061 -0.7350  0.2938  0.5658
  841THF    H1212872   4.102   0.608   4.184 -1.6021 -0.1123 -0.4256
  841THF    H1312873   4.254   0.692   4.132 -0.2341 -0.8033 -0.4662
  842THF     O112874   2.664   4.315   4.288 -0.0378 -0.0246 -0.5555
  842THF     C212875   2.720   4.338   4.412 -0.2521 -0.0918  0.8277
  842THF     C312876   2.522   4.310   4.304  0.1088  0.1805  0.5093
  842THF     H412877   2.818   4.384   4.401 -0.7378  0.7727  0.0173
  842THF     H512878   2.724   4.248   4.474  1.8599 -0.0301  0.8444
  842THF     H612879   2.483   4.312   4.202  0.8518 -1.4451  0.1630
  842THF     H712880   2.487   4.215   4.345 -0.5894 -1.2982 -3.1313
  842THF     C812881   2.488   4.415   4.403  0.6558  0.2973 -0.0097
  842THF     C912882   2.617   4.422   4.487  0.0930  0.4515 -0.2439
  842THF    H1012883   2.402   4.385   4.463  0.6708 -0.0660 -0.1718
  842THF    H1112884   2.452   4.507   4.357  0.4107  0.2296  0.0453
  842THF    H1212885   2.647   4.527   4.492  0.8144  0.3189 -1.4020
  842THF    H1312886   2.606   4.379   4.587  1.3754  1.5822  0.4107
  843THF     O112887   4.371   3.252   0.058 -0.0108  0.0759  0.3806
  843THF     C212888   4.291   3.207   0.170  0.1772 -0.3054 -0.6173
  843THF     C312889   4.283   3.247  -0.052 -0.0215  0.1075  0.1314
  843THF     H412890   4.322   3.241   0.269  3.3568 -0.2046 -1.5394
  843THF     H512891   4.301   3.100   0.187  0.4792  0.1563  2.9483
  843THF     H612892   4.286   3.336  -0.114  0.4219 -1.0950 -1.6591
  843THF     H712893   4.301   3.167  -0.125 -1.8193 -1.4356  1.2877
  843THF     C812894   4.133   3.234  -0.008 -0.6303  0.1576 -0.0285
  843THF     C912895   4.145   3.247   0.140  0.1023 -0.1730 -0.1573
  843THF    H1012896   4.089   3.138  -0.036 -0.3028  0.1583 -0.5437
  843THF    H1112897   4.055   3.304  -0.041 -1.7932 -1.4145 -0.7682
  843THF    H1212898   4.117   3.348   0.170 -1.0199 -0.4724 -0.1606
  843THF    H1312899   4.067   3.183   0.181 -1.2665  0.6266 -1.4453
  844THF     O112900   1.563   4.478   0.344  0.4032  0.5703 -0.1273
  844THF     C212901   1.588   4.575   0.436 -0.2830 -0.3666 -0.5011
  844THF     C312902   1.639   4.483   0.228  0.1637 -0.6667 -0.4865
  844THF     H412903   1.649   4.543   0.521 -0.7797 -3.1032 -1.0854
  844THF     H512904   1.493   4.608   0.479  0.9461  4.4147 -0.8575
  844THF     H612905   1.693   4.389   0.218 -2.1511 -2.5393  2.6573
  844THF     H712906   1.581   4.502   0.138 -0.4330 -2.8800 -0.6158
  844THF     C812907   1.724   4.614   0.243 -0.3549 -0.3372  0.4185
  844THF     C912908   1.647   4.689   0.357  0.5444 -0.6383  0.1772
  844THF    H1012909   1.737   4.685   0.162 -0.7534 -0.7566 -0.0232
  844THF    H1112910   1.825   4.593   0.278 -0.3915 -0.0212  0.7146
  844THF    H1212911   1.715   4.752   0.414 -0.1771 -1.2549  1.7930
  844THF    H1312912   1.565   4.746   0.312 -1.3556 -2.9091  0.5580
  845THF     O112913   3.949   2.828   4.003 -0.3279  0.1220  0.0193
  845THF     C212914   3.866   2.939   3.977 -0.6112  0.2704 -0.0264
  845THF     C312915   4.055   2.878   4.082 -0.7917 -0.1975  0.1427
  845THF     H412916   3.807   2.956   4.067  0.2162  0.1473  0.5491
  845THF     H512917   3.806   2.904   3.893  0.7873 -1.0564 -0.5219
  845THF     H612918   4.013   2.898   4.181 -0.9387 -2.1888  0.5269
  845THF     H712919   4.140   2.810   4.094  0.0475  0.7031 -0.5381
  845THF     C812920   4.092   3.014   4.030 -0.0658 -0.0789 -0.3180
  845THF     C912921   3.972   3.050   3.947  0.7186 -0.1990  0.0102
  845THF    H1012922   4.183   3.021   3.969  0.9532  0.0626  1.1579
  845THF    H1112923   4.103   3.082   4.114 -0.2965  1.2898 -1.3716
  845THF    H1212924   3.924   3.147   3.963 -0.8458 -0.7630 -0.9765
  845THF    H1312925   4.001   3.056   3.842  0.5007  0.7267 -0.0073
  846THF     O112926   1.522   3.828   2.237 -0.0292  0.6393 -0.1931
  846THF     C212927   1.596   3.741   2.155  0.5334  0.0800 -0.1959
  846THF     C312928   1.570   3.958   2.200 -0.4788 -0.0379 -0.5005
  846THF     H412929   1.555   3.740   2.053  0.5322  0.9747 -0.2161
  846THF     H512930   1.593   3.643   2.202  1.7609  0.3511  0.4685
  846THF     H612931   1.524   3.981   2.104  0.8270 -1.7678 -1.5942
  846THF     H712932   1.540   4.026   2.280  0.9562  0.1070 -0.0593
  846THF     C812933   1.724   3.944   2.206  0.4365  0.5545 -0.9685
  846THF     C912934   1.743   3.797   2.163  0.4506  0.9120  0.0480
  846THF    H1012935   1.752   3.956   2.311 -0.8371 -3.7710  0.0468
  846THF    H1112936   1.790   4.014   2.153  1.4289 -1.1512 -2.0603
  846THF    H1212937   1.807   3.784   2.076  1.9197 -1.3285  1.3669
  846THF    H1312938   1.795   3.756   2.249 -3.1588  2.4430  3.3025
  847THF     O112939   0.106   5.486   4.215 -0.0263  0.2740  0.8085
  847THF     C212940   0.173   5.381   4.144 -0.6593 -0.5405 -0.2069
  847THF     C312941   0.194   5.557   4.301  0.1520 -0.0332 -0.2743
  847THF     H412942   0.122   5.367   4.049 -1.1821  1.0757 -0.2097
  847THF     H512943   0.180   5.291   4.205  3.2365 -0.5897 -0.4716
  847THF     H612944   0.148   5.652   4.326 -0.6485 -0.5341  0.1905
  847THF     H712945   0.190   5.504   4.396  1.6125  0.6991  0.2261
  847THF     C812946   0.327   5.546   4.225  0.2098 -0.0207 -0.8990
  847THF     C912947   0.316   5.441   4.117  0.2230 -0.1899 -0.0554
  847THF    H1012948   0.415   5.531   4.287 -1.2995  1.4987  1.8061
  847THF    H1112949   0.329   5.639   4.168  0.2721  1.8155  1.9449
  847THF    H1212950   0.311   5.483   4.016  0.1822  0.6753  0.3016
  847THF    H1312951   0.388   5.359   4.114  0.6649  0.1542  0.8559
  848THF     O112952   4.909   1.332   4.451 -0.3526 -0.4201 -0.2746
  848THF     C212953   5.046   1.360   4.467  0.4623  0.1907 -0.1832
  848THF     C312954   4.894   1.234   4.351  0.7669 -0.5242 -0.2439
  848THF     H412955   5.070   1.403   4.564  0.1974 -2.2203  1.0272
  848THF     H512956   5.085   1.440   4.404 -1.0201  2.2598  1.4181
  848THF     H612957   4.792   1.210   4.378  0.6648  2.9345  3.5374
  848THF     H712958   4.903   1.279   4.252 -0.2879  0.1469 -0.0459
  848THF     C812959   4.998   1.136   4.390 -1.3558  0.3198 -0.0387
  848THF     C912960   5.117   1.224   4.433 -0.0708  0.0859 -0.4201
  848THF    H1012961   5.029   1.059   4.320  0.1173 -0.7448  1.6967
  848THF    H1112962   4.962   1.074   4.472 -0.0133 -0.3680  0.0525
  848THF    H1212963   5.183   1.194   4.514 -1.9119 -1.5669  0.5487
  848THF    H1312964   5.184   1.235   4.348  0.0812  0.9152 -0.1980
  849THF     O112965   1.136   1.046   3.701 -0.1893  0.0528 -0.0520
  849THF     C212966   1.160   0.907   3.693  0.2235 -0.8352 -0.2728
  849THF     C312967   1.047   1.083   3.595  0.2382  0.0312  0.2583
  849THF     H412968   1.188   0.876   3.793  2.0387  3.0386  0.6093
  849THF     H512969   1.234   0.866   3.624  0.1809 -0.8184 -0.3285
  849THF     H612970   1.012   1.186   3.610 -0.4603  0.1631 -1.9605
  849THF     H712971   1.104   1.081   3.503  0.1444 -2.3360  0.1955
  849THF     C812972   0.953   0.962   3.594  0.0592 -0.2616  0.8097
  849THF     C912973   1.023   0.844   3.655 -0.5286  0.8274 -0.3655
  849THF    H1012974   0.926   0.943   3.491 -0.3375  2.2886  0.3801
  849THF    H1112975   0.850   0.980   3.626 -0.0962  0.1001  0.1068
  849THF    H1212976   0.974   0.801   3.742  2.2550 -1.4004  0.2713
  849THF    H1312977   1.039   0.757   3.591 -0.7565  0.0005  0.6790
  850THF     O112978   2.336   2.773   1.288  0.0466  0.2895  0.7470
  850THF     C212979   2.285   2.774   1.160 -0.7239  0.0081  0.3166
  850THF     C312980   2.232   2.765   1.389  0.1610  0.0944  0.5792
  850THF     H412981   2.270   2.670   1.130  0.0450 -0.8957  2.7982
  850THF     H512982   2.354   2.831   1.098 -1.4524  2.3068  1.5247
  850THF     H612983   2.229   2.660   1.419  1.5277  0.4177  2.0353
  850THF     H712984   2.270   2.814   1.479  1.1889 -1.2389  0.9136
  850THF     C812985   2.107   2.800   1.318  0.3205 -0.4621  0.6637
  850THF     C912986   2.156   2.847   1.176 -0.4604  0.6283  0.1331
  850THF    H1012987   2.048   2.879   1.363  0.2132 -0.5143  0.6159
  850THF    H1112988   2.047   2.709   1.307  2.4498 -1.9737  0.9793
  850THF    H1212989   2.076   2.843   1.102  0.0882  3.1558 -0.6850
  850THF    H1312990   2.171   2.954   1.182  2.0252  0.3331  0.1336
  851THF     O112991   1.770   2.418   3.006 -0.5477 -0.1868  0.4332
  851THF     C212992   1.684   2.494   2.921  0.3719 -0.3560 -0.5257
  851THF     C312993   1.693   2.345   3.108  0.2483 -0.0048 -0.2569
  851THF     H412994   1.727   2.496   2.821  0.3687  1.6838 -0.5362
  851THF     H512995   1.660   2.595   2.954  0.8359 -0.2442 -0.5274
  851THF     H612996   1.739   2.255   3.147  3.1264  0.9317 -1.2341
  851THF     H712997   1.679   2.410   3.195  0.6898  1.0685 -0.9575
  851THF     C812998   1.563   2.314   3.029 -0.2220 -0.2640 -0.2003
  851THF     C912999   1.550   2.426   2.926  0.3370  0.3880  0.0348
  851THF    H1013000   1.483   2.306   3.102 -0.3899 -2.2703 -0.5452
  851THF    H1113001   1.575   2.213   2.988  0.1952 -0.6253  0.7893
  851THF    H1213002   1.538   2.381   2.827  1.2288 -2.4179  1.0759
  851THF    H1313003   1.477   2.502   2.952  1.3251  0.5036  2.8605
  852THF     O113004   1.178   0.146   2.992  0.2669  0.5531  0.5210
  852THF     C213005   1.154   0.010   3.025  0.1070 -0.3363  0.1157
  852THF     C313006   1.294   0.189   3.054 -0.1573 -0.4177  0.0959
  852THF     H413007   1.180  -0.054   2.940  3.3041  0.7551  0.1391
  852THF     H513008   1.052  -0.013   3.053  0.0230  0.3968  0.4220
  852THF     H613009   1.364   0.249   2.997  2.4192 -1.1200  2.3189
  852THF     H713010   1.267   0.254   3.138 -0.4189  1.2930 -1.2469
  852THF     C813011   1.374   0.071   3.108 -0.2067  0.0425  0.1259
  852THF     C913012   1.257  -0.019   3.142  0.6876 -0.0567 -0.4456
  852THF    H1013013   1.448   0.087   3.186  0.1460 -1.2832  0.0943
  852THF    H1113014   1.425   0.021   3.026  0.8869 -0.9606  1.3864
  852THF    H1213015   1.289  -0.121   3.120 -0.7628 -1.1697  2.1840
  852THF    H1313016   1.213  -0.015   3.242  0.1130 -0.4242 -0.6770
  853THF     O113017   3.498   1.480   1.723 -0.2815  0.0027  0.2923
  853THF     C213018   3.604   1.412   1.796 -0.8816 -0.1430  0.0026
  853THF     C313019   3.373   1.441   1.779  0.0665  0.1648 -0.1380
  853THF     H413020   3.633   1.466   1.887 -2.2765 -0.2696  0.5479
  853THF     H513021   3.693   1.404   1.734 -0.3514  2.1330  0.3500
  853THF     H613022   3.308   1.522   1.813 -1.1243 -1.1332  0.8205
  853THF     H713023   3.330   1.380   1.699  1.4044 -0.8273 -0.1383
  853THF     C813024   3.400   1.335   1.884  0.8339  0.0578 -0.9822
  853THF     C913025   3.535   1.286   1.842 -0.2279 -0.0776  0.2081
  853THF    H1013026   3.322   1.258   1.887  2.7148 -1.9433  2.1049
  853THF    H1113027   3.400   1.388   1.980 -2.7234 -1.2841 -0.0399
  853THF    H1213028   3.602   1.231   1.908  2.8538 -0.3292 -2.8135
  853THF    H1313029   3.526   1.215   1.759 -2.4586  1.0925 -0.6399
  854THF     O113030   4.517   5.183   1.993  0.3925  0.0954  0.2002
  854THF     C213031   4.482   5.318   1.987  0.3069 -0.1013 -0.3162
  854THF     C313032   4.426   5.105   2.057 -0.5364  0.2674 -0.0321
  854THF     H413033   4.412   5.331   1.905  0.9394  2.2642 -0.5757
  854THF     H513034   4.565   5.385   1.966  1.6789 -2.0167 -1.2804
  854THF     H613035   4.350   5.077   1.984  1.1929 -2.1990 -1.0269
  854THF     H713036   4.472   5.015   2.098  1.3596  1.3545  0.3592
  854THF     C813037   4.363   5.191   2.165 -0.0772 -0.3299  0.3163
  854THF     C913038   4.424   5.327   2.131 -0.5075 -0.0236  1.3625
  854THF    H1013039   4.388   5.159   2.267 -1.1010 -0.7110  0.4598
  854THF    H1113040   4.254   5.200   2.162  0.0228  0.6174 -0.7836
  854THF    H1213041   4.353   5.408   2.147  0.9126  1.7519 -0.7012
  854THF    H1313042   4.509   5.354   2.195  0.0138  2.8917 -0.3697
  855THF     O113043   1.663   3.344   4.788 -0.0105 -0.0773  0.3428
  855THF     C213044   1.737   3.463   4.819 -0.6441  0.4341 -0.4030
  855THF     C313045   1.669   3.246   4.895 -0.6397 -0.1408 -0.2826
  855THF     H413046   1.667   3.521   4.880  0.5760  0.4824  0.9831
  855THF     H513047   1.771   3.523   4.735  2.3870  1.0063  1.0956
  855THF     H613048   1.583   3.248   4.963  0.4841  1.8713  1.1773
  855THF     H713049   1.688   3.149   4.849 -1.3670  0.5446 -2.1035
  855THF     C813050   1.798   3.300   4.975  0.0501 -0.5253  0.2356
  855THF     C913051   1.853   3.425   4.905  0.3653  0.0272 -0.2616
  855THF    H1013052   1.865   3.215   4.991  1.3231  0.1590 -1.2293
  855THF    H1113053   1.765   3.329   5.075  1.0705  1.0286  0.1436
  855THF    H1213054   1.899   3.501   4.968  0.5379 -0.6364  0.4278
  855THF    H1313055   1.932   3.392   4.837  0.7227 -1.3670  0.8016
  856THF     O113056   0.055   5.261   4.617 -0.2807 -0.5069  0.0343
  856THF     C213057   0.007   5.228   4.494  0.1059  0.5969  0.0018
  856THF     C313058  -0.018   5.374   4.661 -0.0481 -0.5058 -0.3282
  856THF     H413059   0.023   5.122   4.480 -0.0641  0.7107 -1.1425
  856THF     H513060   0.049   5.285   4.411 -0.0118  1.6875  0.6647
  856THF     H613061   0.002   5.392   4.767 -1.7237 -0.6170  0.0366
  856THF     H713062   0.023   5.458   4.606 -2.4393  1.0895  0.1427
  856THF     C813063  -0.161   5.341   4.627  0.0463  0.3188  0.0606
  856THF     C913064  -0.145   5.243   4.509 -0.3741  1.3856 -0.0339
  856THF    H1013065  -0.227   5.421   4.593  1.6115  1.0515 -1.3523
  856THF    H1113066  -0.217   5.292   4.707 -1.9421 -0.1902 -1.5445
  856THF    H1213067  -0.187   5.143   4.523  0.9080  0.8321  0.1088
  856THF    H1313068  -0.192   5.292   4.424 -0.2130  1.5107 -0.0505
  857THF     O113069   1.945   1.668   5.078  0.2369  0.1766  0.4324
  857THF     C213070   1.986   1.791   5.134  0.2935 -0.3030 -0.2949
  857THF     C313071   2.051   1.600   5.027  0.1287 -0.8864 -0.1337
  857THF     H413072   2.036   1.793   5.231  2.5779  2.7174 -1.3721
  857THF     H513073   1.897   1.854   5.139 -0.8107 -1.8536  0.5051
  857THF     H613074   2.103   1.546   5.106 -0.8213  1.1490  2.0080
  857THF     H713075   2.029   1.529   4.947 -0.3310  0.3993 -1.1878
  857THF     C813076   2.134   1.712   4.958 -0.3842  0.3206 -0.1592
  857THF     C913077   2.085   1.840   5.027  0.2882 -0.5432  0.0135
  857THF    H1013078   2.117   1.707   4.850  1.4833 -2.2348 -0.4217
  857THF    H1113079   2.242   1.708   4.965 -0.3362  1.3557 -0.1585
  857THF    H1213080   2.171   1.901   5.053  0.4288 -0.9341  0.4978
  857THF    H1313081   2.038   1.901   4.951 -0.2342  1.7885  2.0817
  858THF     O113082   3.394   0.536   1.133 -0.1932 -0.3125 -0.2493
  858THF     C213083   3.372   0.676   1.139 -0.0427 -0.8905 -0.4021
  858THF     C313084   3.534   0.506   1.125  0.8712  0.4378 -0.1455
  858THF     H413085   3.337   0.721   1.232  1.8166  2.4159 -1.1651
  858THF     H513086   3.287   0.693   1.073  0.3850 -0.9839 -0.9852
  858THF     H613087   3.582   0.519   1.222  0.5821  1.0718 -0.0795
  858THF     H713088   3.543   0.408   1.079 -3.0843 -1.0759  1.8149
  858THF     C813089   3.576   0.621   1.044 -0.2543 -0.4338  0.3672
  858THF     C913090   3.501   0.734   1.102 -0.5331 -0.0040 -0.0777
  858THF    H1013091   3.550   0.602   0.941  2.2769 -0.8789 -0.2615
  858THF    H1113092   3.685   0.628   1.052 -0.2742  0.6355 -0.1387
  858THF    H1213093   3.549   0.783   1.187  1.4456  0.3579 -1.3480
  858THF    H1313094   3.491   0.812   1.026  0.8137  0.4425  0.1657
  859THF     O113095   3.662   3.303   1.550 -0.4319  0.0289 -0.0143
  859THF     C213096   3.775   3.239   1.612 -0.1509 -0.2974  0.1873
  859THF     C313097   3.647   3.263   1.412 -0.1945 -0.1619 -0.5877
  859THF     H413098   3.737   3.169   1.687 -3.6995 -0.7795 -1.7956
  859THF     H513099   3.821   3.314   1.677 -1.3502  0.0834  0.6408
  859THF     H613100   3.567   3.189   1.398 -2.7511  2.1682  0.6477
  859THF     H713101   3.617   3.351   1.355  1.2940  1.1182  0.5280
  859THF     C813102   3.786   3.208   1.377  0.0552  0.4371  0.1716
  859THF     C913103   3.847   3.155   1.506  0.0174 -0.2300  0.3777
  859THF    H1013104   3.838   3.293   1.333 -1.9873  1.0889 -1.1724
  859THF    H1113105   3.753   3.140   1.298 -0.6690  0.3241  0.5662
  859THF    H1213106   3.826   3.049   1.522 -0.0648 -0.2214  0.3311
  859THF    H1313107   3.955   3.162   1.500  0.0225 -0.0600  0.6492
  860THF     O113108   3.916   1.298   0.294  0.4364  0.5701 -0.3878
  860THF     C213109   3.812   1.360   0.371 -0.1096 -0.8999  0.5670
  860THF     C313110   3.945   1.375   0.179 -0.7378  0.8168 -0.4969
  860THF     H413111   3.848   1.413   0.459 -2.1901  1.5911  0.0391
  860THF     H513112   3.745   1.281   0.407 -0.1509 -1.3418 -0.4294
  860THF     H613113   3.989   1.469   0.211 -0.3630  0.0197  1.4616
  860THF     H713114   4.004   1.329   0.100  1.8110  3.0296 -0.0171
  860THF     C813115   3.800   1.396   0.143  1.0132  0.4107  0.5046
  860THF     C913116   3.742   1.454   0.273 -0.0565  0.3582 -0.3332
  860THF    H1013117   3.745   1.305   0.117  0.1718  1.3626 -1.1729
  860THF    H1113118   3.785   1.469   0.064 -1.1435  1.5385  1.8778
  860THF    H1213119   3.769   1.559   0.268 -1.0041  0.6066 -0.2927
  860THF    H1313120   3.633   1.451   0.269 -0.0454 -0.3441 -0.1718
  861THF     O113121   3.146   2.134   3.341 -0.5512 -0.4200 -0.4526
  861THF     C213122   3.034   2.181   3.409  0.0138  0.2857 -0.2883
  861THF     C313123   3.262   2.206   3.374 -0.1474 -0.6986  0.0641
  861THF     H413124   3.035   2.159   3.516 -0.4588  2.6512  0.2444
  861THF     H513125   2.945   2.145   3.358  0.6866 -1.8314 -0.0688
  861THF     H613126   3.304   2.165   3.466  0.0264  0.0292  0.3131
  861THF     H713127   3.341   2.202   3.300  0.5483  2.6921  0.4724
  861THF     C813128   3.205   2.349   3.392 -0.3415 -0.4370  0.9363
  861THF     C913129   3.055   2.328   3.393  0.3622 -0.4070 -0.0708
  861THF    H1013130   3.224   2.412   3.305 -1.3375  1.4523  2.0273
  861THF    H1113131   3.242   2.387   3.487 -2.1340  1.2624  1.0213
  861THF    H1213132   3.008   2.371   3.482 -1.4658 -4.4589  1.2026
  861THF    H1313133   3.012   2.362   3.299  0.0634 -1.6619 -0.4036
  862THF     O113134   0.401   2.406   3.198 -0.3265 -0.2785  0.1797
  862THF     C213135   0.276   2.447   3.147 -0.5731  0.0083 -0.3084
  862THF     C313136   0.498   2.474   3.104  0.9273  0.3806  0.0909
  862THF     H413137   0.214   2.452   3.236 -1.2898  0.5595 -0.8233
  862THF     H513138   0.233   2.370   3.083 -0.8290  1.2253 -1.6577
  862THF     H613139   0.596   2.457   3.149  0.5674  0.6138  0.9986
  862THF     H713140   0.501   2.416   3.013 -1.6115 -1.5845  1.1376
  862THF     C813141   0.437   2.619   3.094  0.3207 -0.0722  0.0891
  862THF     C913142   0.291   2.581   3.069  0.4408  0.7481  0.5147
  862THF    H1013143   0.485   2.667   3.009 -2.1466  3.2091  0.3375
  862THF    H1113144   0.440   2.682   3.184 -3.6192  1.3848 -0.5728
  862THF    H1213145   0.217   2.656   3.097 -1.0427 -0.0697 -0.9881
  862THF    H1313146   0.277   2.553   2.965 -0.4146  3.1922 -0.0951
  863THF     O113147   4.658   2.528   2.540  0.2372  0.1620  0.3280
  863THF     C213148   4.558   2.532   2.644  0.0365 -0.6846 -0.0962
  863THF     C313149   4.781   2.552   2.596  0.1460 -0.2756  0.7306
  863THF     H413150   4.574   2.448   2.711  2.3780  0.0437  0.3614
  863THF     H513151   4.456   2.526   2.607  0.2630  0.1673 -0.9053
  863THF     H613152   4.824   2.455   2.621  0.9545 -0.3127 -0.6477
  863THF     H713153   4.853   2.594   2.526  0.8101  0.8306  2.0355
  863THF     C813154   4.755   2.652   2.712  0.3696 -0.0526 -0.4909
  863THF     C913155   4.607   2.661   2.716  0.6918  0.5006  0.5712
  863THF    H1013156   4.803   2.749   2.698 -0.7712  0.7633  1.0490
  863THF    H1113157   4.786   2.625   2.813  1.4141  3.1866  0.1765
  863THF    H1213158   4.565   2.671   2.816  4.5135 -0.0238  2.3761
  863THF    H1313159   4.583   2.751   2.659  0.4909  0.0920  0.0016
  864THF     O113160   3.463   0.863   0.441  0.7524 -0.4092 -0.5156
  864THF     C213161   3.553   0.754   0.462  0.0892  0.1495  1.0329
  864THF     C313162   3.456   0.923   0.568 -0.2313  0.0444 -0.6626
  864THF     H413163   3.653   0.790   0.485 -0.3054  2.2637 -0.3544
  864THF     H513164   3.556   0.683   0.379 -0.7431 -0.9429  1.9065
  864THF     H613165   3.551   0.969   0.593 -0.8859  1.6391 -0.9644
  864THF     H713166   3.392   1.012   0.568  2.3710  2.0424 -0.9088
  864THF     C813167   3.437   0.806   0.666  0.2771 -0.3392  0.3276
  864THF     C913168   3.487   0.690   0.578  0.5517  0.2677 -0.3249
  864THF    H1013169   3.334   0.797   0.701 -0.5695  3.6282 -0.6601
  864THF    H1113170   3.485   0.826   0.762  1.6029  0.4137 -0.4623
  864THF    H1213171   3.563   0.627   0.623  1.7077 -1.1836 -3.9809
  864THF    H1313172   3.407   0.621   0.553 -1.3031  1.6882  1.3088
  865THF     O113173   3.517   0.494   2.066 -0.7273 -0.2756 -0.0202
  865THF     C213174   3.532   0.356   2.030 -0.1555  0.1898  0.1484
  865THF     C313175   3.382   0.523   2.084  0.4883 -0.3599 -0.7486
  865THF     H413176   3.628   0.317   2.063  0.5862  2.3722  0.7031
  865THF     H513177   3.517   0.352   1.922  0.7872  3.5426 -0.2139
  865THF     H613178   3.367   0.615   2.141 -0.3449  1.0950 -3.1995
  865THF     H713179   3.337   0.534   1.986 -0.3564 -0.7621 -0.4140
  865THF     C813180   3.328   0.398   2.155  0.2655  0.1659  0.6711
  865THF     C913181   3.419   0.275   2.100  0.0934  0.0374  0.0442
  865THF    H1013182   3.231   0.367   2.117 -0.4656  0.4502  2.2218
  865THF    H1113183   3.330   0.415   2.263  0.2190  0.1740  0.6703
  865THF    H1213184   3.455   0.218   2.186 -0.2033 -0.3725 -0.0993
  865THF    H1313185   3.361   0.221   2.025  1.2801 -0.5198 -0.4923
  866THF     O113186   0.998   3.490   2.572  0.2400 -0.3869 -0.5519
  866THF     C213187   0.898   3.500   2.670  0.1607  0.2941 -0.0607
  866THF     C313188   0.946   3.434   2.456  0.1653 -0.4296 -0.9847
  866THF     H413189   0.857   3.600   2.661 -1.8807 -0.5524 -0.7018
  866THF     H513190   0.930   3.498   2.774  1.8365  2.5520 -0.4517
  866THF     H613191   0.893   3.514   2.405  0.0956 -0.0996 -0.3995
  866THF     H713192   1.032   3.401   2.397  1.6573  2.1314 -0.3990
  866THF     C813193   0.857   3.324   2.505  0.1187  0.0296  0.1983
  866THF     C913194   0.803   3.386   2.631 -0.4273 -0.0526 -0.1579
  866THF    H1013195   0.919   3.236   2.516  3.5917  2.3583  0.7920
  866THF    H1113196   0.778   3.290   2.438 -1.9181  2.2032  1.2911
  866THF    H1213197   0.703   3.426   2.613 -0.8254 -0.6212  0.6878
  866THF    H1313198   0.813   3.317   2.714  2.6967 -0.7920 -1.0129
  867THF     O113199   0.030   5.145   1.449 -0.2599 -0.1895 -0.2376
  867THF     C213200  -0.111   5.120   1.430 -0.1206 -0.2552 -0.0314
  867THF     C313201   0.067   5.277   1.402 -0.3399  0.0216  0.3653
  867THF     H413202  -0.151   5.056   1.508 -0.5856 -1.6270 -1.3533
  867THF     H513203  -0.119   5.071   1.333  0.8968 -1.5262  0.5001
  867THF     H613204   0.147   5.332   1.452 -1.2203  1.7871 -0.0999
  867THF     H713205   0.082   5.267   1.295 -1.4359 -1.4744  0.3126
  867THF     C813206  -0.061   5.354   1.432 -0.2899 -0.5835  0.1450
  867THF     C913207  -0.178   5.260   1.413 -0.5093  0.2109  0.5913
  867THF    H1013208  -0.061   5.452   1.383  0.8545 -0.0614  1.1591
  867THF    H1113209  -0.067   5.375   1.539  2.3339 -0.9702  0.4142
  867THF    H1213210  -0.257   5.276   1.487  0.1701 -0.2557  1.4342
  867THF    H1313211  -0.214   5.273   1.311  1.5858  1.5709 -0.0279
  868THF     O113212   1.248   4.262   5.125 -0.6171 -0.1333 -0.3689
  868THF     C213213   1.134   4.250   5.037 -0.5084 -0.3479  0.0909
  868THF     C313214   1.228   4.359   5.238 -0.0955  0.1859 -0.3173
  868THF     H413215   1.096   4.148   5.044  2.5339 -1.5982 -0.1007
  868THF     H513216   1.158   4.261   4.931  0.4651 -3.0497 -0.0574
  868THF     H613217   1.251   4.320   5.337  0.4962  1.9253  0.2587
  868THF     H713218   1.287   4.451   5.235  1.6703 -0.9133 -1.7391
  868THF     C813219   1.074   4.380   5.242 -0.4040  0.2081  0.2421
  868THF     C913220   1.036   4.357   5.098  0.1059  0.4893  0.0667
  868THF    H1013221   1.034   4.479   5.268 -1.8865 -0.7129  1.6894
  868THF    H1113222   1.031   4.317   5.319 -0.9409  0.4025  0.1073
  868THF    H1213223   0.935   4.317   5.089 -0.5078  2.0188 -0.1807
  868THF    H1313224   1.039   4.450   5.041 -1.3243 -0.4933 -1.7223
  869THF     O113225   1.211   2.652   4.494  0.9413  0.4475 -0.1116
  869THF     C213226   1.303   2.655   4.387  0.5556 -0.0447  0.5444
  869THF     C313227   1.080   2.615   4.452  0.4626  0.3254  0.1413
  869THF     H413228   1.363   2.566   4.366 -0.1142 -0.4912  0.4634
  869THF     H513229   1.373   2.735   4.409  1.3226  0.0802 -2.0326
  869THF     H613230   1.053   2.514   4.481 -0.4550  1.0785  2.1001
  869THF     H713231   1.028   2.677   4.526  0.7879  0.0642  0.5966
  869THF     C813232   1.067   2.659   4.311 -0.6499 -0.3592  0.1427
  869THF     C913233   1.206   2.689   4.267  0.7855 -0.7592  0.1614
  869THF    H1013234   0.998   2.744   4.305  0.1018  0.2363 -0.2128
  869THF    H1113235   1.015   2.581   4.256  0.3608 -1.8384  1.2147
  869THF    H1213236   1.220   2.628   4.177 -1.7766  0.7088 -1.3508
  869THF    H1313237   1.211   2.790   4.227  1.1972 -1.8663 -2.9102
  870THF     O113238   4.263   2.617   0.182  0.1522 -0.0869 -0.3015
  870THF     C213239   4.187   2.526   0.248 -0.4579 -0.2203 -0.2264
  870THF     C313240   4.335   2.536   0.088 -0.3190  0.4108 -0.7077
  870THF     H413241   4.099   2.572   0.294  0.3145 -0.2016  1.2903
  870THF     H513242   4.246   2.474   0.324  1.3133  0.1297 -1.3228
  870THF     H613243   4.386   2.593   0.010 -0.1374  1.1173 -0.0882
  870THF     H713244   4.408   2.476   0.142  1.6555  1.7360 -1.7762
  870THF     C813245   4.226   2.458   0.019  0.1223  0.3962  0.3071
  870THF     C913246   4.132   2.429   0.131  1.0432 -0.3682 -0.3831
  870THF    H1013247   4.259   2.377  -0.046 -0.4122  0.1725  0.3085
  870THF    H1113248   4.177   2.523  -0.053 -0.6260  0.5000  0.9023
  870THF    H1213249   4.029   2.446   0.099  1.1740  1.1597 -0.0878
  870THF    H1313250   4.137   2.327   0.169 -2.6714 -0.9629 -1.0796
  871THF     O113251   3.834   0.139   0.470  0.2928  0.2803  0.0341
  871THF     C213252   3.906   0.093   0.354 -0.1882 -0.4875  0.0793
  871THF     C313253   3.816   0.024   0.551 -0.0841 -0.1918 -0.0061
  871THF     H413254   3.942   0.170   0.286 -1.8387 -0.4683 -0.8151
  871THF     H513255   3.834   0.034   0.298 -1.1684 -2.1111  2.7955
  871THF     H613256   3.819   0.040   0.659 -0.7821  2.4267 -0.3280
  871THF     H713257   3.725  -0.024   0.514 -1.4233  2.6225 -0.6623
  871THF     C813258   3.946  -0.058   0.532  0.2789  0.1418  0.4461
  871THF     C913259   4.008  -0.007   0.407 -0.4906 -0.2464 -0.0144
  871THF    H1013260   3.928  -0.165   0.520  3.4242 -0.2008 -2.6466
  871THF    H1113261   4.005  -0.047   0.624 -1.7665 -2.6056  2.2482
  871THF    H1213262   4.102   0.045   0.421 -0.7974  0.4951 -0.6398
  871THF    H1313263   4.035  -0.081   0.331 -0.8001 -1.6731  1.2114
  872THF     O113264   3.532   0.706   3.908  0.2649 -0.3162 -0.2733
  872THF     C213265   3.537   0.735   4.046 -0.5437  0.0178  0.0464
  872THF     C313266   3.602   0.585   3.879  0.1226 -0.1333 -0.0998
  872THF     H413267   3.434   0.722   4.080 -0.8350  2.0227  0.0224
  872THF     H513268   3.570   0.838   4.054  0.8395 -0.4966  1.5220
  872THF     H613269   3.541   0.519   3.816 -1.8431  1.8029 -0.3387
  872THF     H713270   3.702   0.598   3.838  0.7545 -1.8679  0.8066
  872THF     C813271   3.632   0.516   4.012  0.1599 -0.1552 -0.0929
  872THF     C913272   3.631   0.635   4.113  0.0771 -0.2350 -0.2060
  872THF    H1013273   3.732   0.473   4.021 -0.4791 -1.3298  2.4756
  872THF    H1113274   3.564   0.445   4.059  0.2902 -0.4746 -0.3845
  872THF    H1213275   3.603   0.624   4.217 -1.6452  0.5105 -0.5477
  872THF    H1313276   3.730   0.679   4.122  0.7605 -1.9496  1.3290
  873THF     O113277   3.448   2.103   4.977 -0.0456 -0.1987  0.3438
  873THF     C213278   3.490   2.035   4.856  0.1031 -0.5394 -0.3936
  873THF     C313279   3.430   2.243   4.948 -0.2027 -0.0243  0.1478
  873THF     H413280   3.447   1.935   4.853  0.3407 -0.6606  0.0757
  873THF     H513281   3.598   2.019   4.859 -0.0696 -1.8529 -0.4100
  873THF     H613282   3.343   2.288   4.997 -0.6310 -0.5560 -0.1059
  873THF     H713283   3.518   2.298   4.979  0.5251  0.0649 -1.8884
  873THF     C813284   3.424   2.254   4.795  0.2119 -0.5432  0.3707
  873THF     C913285   3.436   2.109   4.745 -0.6842 -0.9136 -0.3367
  873THF    H1013286   3.510   2.315   4.769  0.2123 -0.2761  0.9676
  873THF    H1113287   3.329   2.298   4.764 -0.6666 -1.2248  1.9373
  873THF    H1213288   3.339   2.067   4.717 -1.7592  1.8100 -1.0689
  873THF    H1313289   3.503   2.119   4.660  0.3659  2.6982  0.7017
  874THF     O113290   3.703   0.421   4.449  0.1125  0.1940 -0.4974
  874THF     C213291   3.792   0.455   4.555  0.4905 -0.2361  0.4291
  874THF     C313292   3.705   0.275   4.441 -0.9243 -1.1260  0.0640
  874THF     H413293   3.767   0.550   4.604 -0.8406 -0.4183  0.1264
  874THF     H513294   3.892   0.466   4.514 -0.2229 -0.8810 -1.5928
  874THF     H613295   3.602   0.241   4.438 -1.3019 -0.4248  2.5761
  874THF     H713296   3.769   0.237   4.361 -0.0173  1.3491 -0.4906
  874THF     C813297   3.774   0.219   4.564  0.4352  0.1553  0.3387
  874THF     C913298   3.774   0.340   4.652  0.1111 -0.2036 -0.9059
  874THF    H1013299   3.875   0.193   4.533 -0.4449 -1.3894 -1.3681
  874THF    H1113300   3.729   0.134   4.615  2.2914 -0.5451  0.8820
  874THF    H1213301   3.681   0.343   4.709  1.0500 -1.9161  0.8457
  874THF    H1313302   3.846   0.328   4.733  0.7226  0.7285 -1.2998
  875THF     O113303   3.771   2.449   2.710 -0.2622 -0.0631 -0.1068
  875THF     C213304   3.854   2.558   2.722  0.3022 -1.0728 -0.1466
  875THF     C313305   3.637   2.477   2.697  0.2573  0.5409 -0.3781
  875THF     H413306   3.959   2.546   2.696  1.3549 -0.7436  3.4766
  875THF     H513307   3.871   2.589   2.825 -1.5683 -0.3900  0.0048
  875THF     H613308   3.591   2.403   2.630 -0.0086 -0.7519  1.1657
  875THF     H713309   3.598   2.441   2.792  0.3779  1.4547  0.0247
  875THF     C813310   3.627   2.624   2.659 -0.5139  0.2297  0.7180
  875THF     C913311   3.776   2.664   2.634 -0.7893  0.0194 -0.3715
  875THF    H1013312   3.573   2.684   2.732  0.0738  1.4822  0.1687
  875THF    H1113313   3.584   2.624   2.559  0.3284 -0.5299  0.3421
  875THF    H1213314   3.811   2.661   2.531  0.2577 -1.5581 -0.0136
  875THF    H1313315   3.795   2.761   2.681  2.0309  0.7137 -2.6047
  876THF     O113316   0.176   1.697   3.186  0.2519 -0.1400 -0.3084
  876THF     C213317   0.244   1.754   3.079 -0.5214 -0.1525  0.0235
  876THF     C313318   0.104   1.799   3.256 -0.3405  0.2619 -0.2286
  876THF     H413319   0.280   1.693   2.996  0.3517  0.3798 -0.0005
  876THF     H513320   0.327   1.814   3.116 -0.2506 -0.6039  0.1533
  876THF     H613321   0.020   1.753   3.307  1.0714  0.1046  2.1333
  876THF     H713322   0.170   1.833   3.336  0.2595 -0.6760 -0.2972
  876THF     C813323   0.055   1.899   3.147 -0.1046 -0.4744  0.5186
  876THF     C913324   0.145   1.864   3.031  0.0466 -0.4943 -0.2039
  876THF    H1013325   0.073   1.999   3.186  1.4115  0.5781 -2.6005
  876THF    H1113326  -0.048   1.875   3.122 -0.2363  0.5097  0.0643
  876THF    H1213327   0.087   1.815   2.953 -0.6490 -0.8127  0.4957
  876THF    H1313328   0.191   1.948   2.979 -1.2867 -0.4666 -1.3902
  877THF     O113329   4.266   3.664   0.190  0.3528 -0.2900  0.4025
  877THF     C213330   4.151   3.734   0.140 -0.7854 -0.6190 -0.2507
  877THF     C313331   4.303   3.712   0.314 -0.1416 -0.2122 -0.2693
  877THF     H413332   4.072   3.659   0.130 -2.1840  0.7565  0.1655
  877THF     H513333   4.165   3.797   0.052 -0.8729  0.9749  0.8339
  877THF     H613334   4.265   3.652   0.397  0.8318  3.8976  3.5477
  877THF     H713335   4.410   3.692   0.309 -0.2615 -0.8109 -0.4589
  877THF     C813336   4.262   3.854   0.316 -0.3642  0.4288  0.4657
  877THF     C913337   4.125   3.840   0.247  0.6914  0.5522 -0.5128
  877THF    H1013338   4.327   3.923   0.263  0.1060 -0.6457 -0.3771
  877THF    H1113339   4.252   3.888   0.419  1.8982 -0.6578  1.1125
  877THF    H1213340   4.064   3.790   0.322  1.8127  0.7476  0.5632
  877THF    H1313341   4.077   3.933   0.217  0.3156  0.7265  0.6167
  878THF     O113342   1.390   3.072   3.484  0.4221  0.0678  0.3583
  878THF     C213343   1.286   3.173   3.493  0.0822 -0.6323 -0.2939
  878THF     C313344   1.408   3.027   3.352  1.0135  0.4476 -0.2594
  878THF     H413345   1.331   3.272   3.488 -3.2468  1.0265 -0.5070
  878THF     H513346   1.222   3.171   3.581 -1.2847 -0.3517 -1.2469
  878THF     H613347   1.482   3.086   3.298  1.4963  1.2293  1.2150
  878THF     H713348   1.445   2.924   3.354  0.4409  0.2483  1.1503
  878THF     C813349   1.266   3.049   3.289  0.8466 -0.3734  0.3343
  878THF     C913350   1.204   3.171   3.369  1.3102  0.4243  0.5335
  878THF    H1013351   1.197   2.966   3.309  1.6552 -1.2072 -0.2173
  878THF    H1113352   1.271   3.057   3.180 -2.3481 -2.5553 -0.1291
  878THF    H1213353   1.221   3.267   3.319 -3.1773  1.5832  0.8386
  878THF    H1313354   1.098   3.159   3.389  1.3965 -3.3635 -0.6156
  879THF     O113355   0.823   1.386   3.544 -0.8067  0.3029  0.4156
  879THF     C213356   0.867   1.467   3.438  0.0462 -0.1839  0.1841
  879THF     C313357   0.862   1.450   3.665  0.4120  0.0581 -0.8411
  879THF     H413358   0.821   1.443   3.342 -2.6191  1.9570  0.7902
  879THF     H513359   0.973   1.470   3.413 -0.9164  1.5630 -4.8029
  879THF     H613360   0.793   1.411   3.740  0.2028 -1.3902 -1.7419
  879THF     H713361   0.965   1.439   3.700  0.2270  1.8810  0.4323
  879THF     C813362   0.834   1.594   3.640  0.2662 -0.3538  0.2508
  879THF     C913363   0.821   1.598   3.488 -0.2704 -0.2890 -0.1940
  879THF    H1013364   0.910   1.661   3.680  1.2401 -1.1541 -0.2152
  879THF    H1113365   0.739   1.622   3.685 -0.0215 -2.0917  0.8154
  879THF    H1213366   0.725   1.631   3.448  0.2343  0.2460 -0.9990
  879THF    H1313367   0.891   1.675   3.456  0.1265 -0.8696 -0.7696
  880THF     O113368   4.260   3.363   5.038  0.3284  0.0032 -0.1106
  880THF     C213369   4.319   3.497   5.059  0.1606  0.2867 -0.1287
  880THF     C313370   4.116   3.385   5.045 -0.4184  0.3917 -0.6315
  880THF     H413371   4.324   3.545   4.961  2.5612 -2.0567 -1.2806
  880THF     H513372   4.422   3.488   5.094 -0.1103 -3.7640  0.0246
  880THF     H613373   4.082   3.426   4.950  0.6465 -3.1310 -2.6699
  880THF     H713374   4.083   3.282   5.052 -1.5742  0.7868  0.1052
  880THF     C813375   4.106   3.473   5.171  0.0383  0.1604  0.0273
  880THF     C913376   4.229   3.560   5.172  0.2723  0.0620  0.7242
  880THF    H1013377   4.095   3.418   5.265 -3.0643 -1.5010 -1.1797
  880THF    H1113378   4.014   3.531   5.174 -0.0913  0.0456 -1.2072
  880THF    H1213379   4.203   3.659   5.134  0.7736 -0.1571 -0.2282
  880THF    H1313380   4.277   3.561   5.270  0.0423  1.1115  0.8445
  881THF     O113381   4.221   0.265   2.673 -0.4821  0.1810  0.1731
  881THF     C213382   4.275   0.142   2.630 -0.5697 -0.0696  1.0718
  881THF     C313383   4.082   0.238   2.681 -0.0546 -0.6156  0.6727
  881THF     H413384   4.381   0.155   2.649 -0.0789 -0.8009 -0.8947
  881THF     H513385   4.250   0.140   2.524  1.4093  2.2518  0.4916
  881THF     H613386   4.029   0.311   2.742 -0.1550  0.3549 -0.5339
  881THF     H713387   4.035   0.228   2.583  1.6778 -3.0296 -0.0098
  881THF     C813388   4.079   0.109   2.752  0.2709  0.4356  0.2481
  881THF     C913389   4.207   0.039   2.721 -0.1676 -0.0062  0.4326
  881THF    H1013390   3.993   0.051   2.716 -1.7800  2.3613  1.7803
  881THF    H1113391   4.058   0.119   2.858 -1.4236  3.2998 -0.2478
  881THF    H1213392   4.263   0.017   2.811  1.0525 -0.1672 -0.3440
  881THF    H1313393   4.175  -0.055   2.675  1.6750 -1.0754  1.2091
  882THF     O113394   3.405   3.838   3.129  0.2120  0.0618 -0.7262
  882THF     C213395   3.316   3.934   3.193  0.0947  0.6388  0.6616
  882THF     C313396   3.508   3.913   3.072 -0.2013 -0.4717 -0.3329
  882THF     H413397   3.368   3.964   3.284  3.5764  0.7204 -1.2008
  882THF     H513398   3.223   3.894   3.234  0.5656  0.3919  1.5074
  882THF     H613399   3.574   3.941   3.154 -4.0022 -1.5181  3.4910
  882THF     H713400   3.573   3.860   3.002 -0.3790 -1.8649  0.5050
  882THF     C813401   3.436   4.032   3.013 -0.1179  0.7845  0.2850
  882THF     C913402   3.312   4.049   3.094 -0.1052  0.9122 -0.1340
  882THF    H1013403   3.408   4.010   2.911 -1.5048  0.2238  0.7596
  882THF    H1113404   3.502   4.119   3.011  0.2689  0.4790 -1.5613
  882THF    H1213405   3.304   4.146   3.144 -0.7739 -0.3730  2.4439
  882THF    H1313406   3.220   4.033   3.038 -0.7143  2.7070  0.2999
  883THF     O113407   4.707   5.372   3.549 -0.7032 -0.1998 -0.6317
  883THF     C213408   4.634   5.351   3.428 -0.5571 -0.3572  0.1078
  883THF     C313409   4.845   5.359   3.514  0.2761 -0.3066 -0.7570
  883THF     H413410   4.540   5.405   3.418 -1.8706 -2.2440  1.6223
  883THF     H513411   4.631   5.245   3.403 -0.8424  0.0680 -1.8574
  883THF     H613412   4.903   5.408   3.592  0.7956  0.0724 -1.3785
  883THF     H713413   4.863   5.252   3.502 -0.6656 -0.5472 -0.1820
  883THF     C813414   4.857   5.425   3.374  0.0554  0.0881 -0.5361
  883THF     C913415   4.716   5.420   3.320 -0.0037 -0.4803  0.6707
  883THF    H1013416   4.925   5.364   3.315  0.1998  1.0737 -1.4056
  883THF    H1113417   4.897   5.526   3.380  0.0301  0.0858 -0.3173
  883THF    H1213418   4.687   5.525   3.318  1.7326  0.0256 -0.8186
  883THF    H1313419   4.706   5.385   3.217  0.6365 -2.5634  1.2637
  884THF     O113420   3.269   3.196   4.922  0.4238  0.1143  0.6478
  884THF     C213421   3.381   3.280   4.952  0.0168  0.3624 -0.2936
  884THF     C313422   3.307   3.060   4.892 -1.3930 -0.2999  0.3918
  884THF     H413423   3.358   3.343   5.039 -1.0936  1.5168 -1.3849
  884THF     H513424   3.409   3.348   4.872 -2.2797  0.5844 -0.9616
  884THF     H613425   3.258   2.986   4.955 -1.4188 -0.8727 -0.2956
  884THF     H713426   3.284   3.046   4.787 -0.2986  2.5635 -0.3244
  884THF     C813427   3.461   3.062   4.903 -0.0350 -0.7053 -0.2656
  884THF     C913428   3.487   3.182   4.999 -0.0963  0.2013  0.6235
  884THF    H1013429   3.515   3.093   4.814 -1.0677  3.5139  0.3653
  884THF    H1113430   3.506   2.977   4.955 -0.1774 -0.3121  0.5233
  884THF    H1213431   3.484   3.147   5.102  0.7306  2.0342  1.3232
  884THF    H1313432   3.591   3.212   4.983 -0.3745 -0.2176 -2.5426
  885THF     O113433   1.066   1.407   1.557  0.4346  0.0605 -0.4485
  885THF     C213434   1.014   1.384   1.420  0.3739 -0.5152 -0.1052
  885THF     C313435   0.953   1.417   1.636  0.2510  0.7946  0.0549
  885THF     H413436   1.008   1.276   1.424  0.4763 -0.5107  0.1926
  885THF     H513437   1.077   1.428   1.343  0.0565  0.3736  0.1256
  885THF     H613438   0.910   1.317   1.650  2.6644 -0.5687 -1.4782
  885THF     H713439   0.982   1.454   1.734  1.8346  0.8153 -0.3940
  885THF     C813440   0.849   1.503   1.557 -0.3860  0.2869 -0.1334
  885THF     C913441   0.878   1.453   1.419  0.2864  0.0950  0.4028
  885THF    H1013442   0.865   1.610   1.571 -1.3255  0.3533  0.4915
  885THF    H1113443   0.748   1.480   1.589 -1.1063  1.0885 -1.7601
  885THF    H1213444   0.803   1.375   1.415 -0.1235  0.5122 -0.3411
  885THF    H1313445   0.871   1.522   1.335 -0.0516  0.4996  0.7582
  886THF     O113446   2.617   1.862   4.213  0.2210 -0.1970 -0.2944
  886THF     C213447   2.734   1.893   4.297  0.0706  0.0011 -1.1085
  886THF     C313448   2.682   1.797   4.103  0.7584  0.5991  0.0620
  886THF     H413449   2.742   1.820   4.377  0.9260  1.1236 -0.1320
  886THF     H513450   2.723   1.993   4.340 -2.5765 -0.0306 -1.5487
  886THF     H613451   2.705   1.693   4.127 -0.4983 -0.2759 -2.2042
  886THF     H713452   2.616   1.802   4.017  0.3710  0.7476  0.3636
  886THF     C813453   2.816   1.870   4.088  1.0473 -0.2455  0.6428
  886THF     C913454   2.864   1.889   4.225  0.1210 -0.2664  0.6015
  886THF    H1013455   2.795   1.971   4.051  0.7081 -0.0768  1.2893
  886THF    H1113456   2.880   1.815   4.019 -0.1222 -0.9664  0.1023
  886THF    H1213457   2.921   1.803   4.261 -0.4695 -0.6382  0.6636
  886THF    H1313458   2.916   1.984   4.233 -0.1680 -0.0884  0.3756
  887THF     O113459   2.990   4.185   2.871  0.6025  0.4810  0.6663
  887THF     C213460   2.855   4.227   2.870 -0.7326 -0.3147  0.3083
  887THF     C313461   3.043   4.214   2.742 -0.4983 -0.4014 -0.6791
  887THF     H413462   2.837   4.326   2.912 -0.2084  0.2576 -0.7613
  887THF     H513463   2.795   4.158   2.929 -2.4459  1.4207  0.7123
  887THF     H613464   3.077   4.315   2.723 -1.5329 -0.2423 -1.8158
  887THF     H713465   3.131   4.151   2.734 -0.0783 -0.0753  1.0054
  887THF     C813466   2.929   4.180   2.646 -0.4278  0.5514  0.1998
  887THF     C913467   2.806   4.228   2.722 -0.3827 -0.4892 -0.1939
  887THF    H1013468   2.934   4.072   2.654 -1.8670  0.3758 -0.8906
  887THF    H1113469   2.940   4.195   2.538 -2.6050 -1.3053 -0.3510
  887THF    H1213470   2.765   4.321   2.684 -2.3261 -1.8629 -1.6592
  887THF    H1313471   2.728   4.153   2.710 -0.7760 -0.1543  0.2574
  888THF     O113472   2.675   4.917   3.623  0.3173  0.2756  0.6406
  888THF     C213473   2.627   4.902   3.489 -0.6973  0.5324 -0.2809
  888THF     C313474   2.814   4.898   3.621  0.2397 -0.0515  0.7320
  888THF     H413475   2.636   4.988   3.423 -1.9113  0.9376  0.0427
  888THF     H513476   2.524   4.880   3.517  0.7824 -2.2342  3.9446
  888THF     H613477   2.862   4.987   3.580  0.9672 -0.8802 -0.2757
  888THF     H713478   2.844   4.884   3.725 -1.0131  3.4621  1.7090
  888THF     C813479   2.831   4.777   3.528 -0.3062  0.3891  0.7816
  888THF     C913480   2.710   4.796   3.421 -0.4734 -0.0772 -0.2476
  888THF    H1013481   2.803   4.687   3.584 -1.0824 -0.2604 -0.5960
  888THF    H1113482   2.933   4.773   3.490 -0.3924 -0.1311  0.5958
  888THF    H1213483   2.751   4.819   3.323 -0.6613  0.6639 -0.1605
  888THF    H1313484   2.665   4.698   3.408  0.3420 -0.3394 -1.2526
  889THF     O113485   3.910   2.317   5.069 -0.2067  0.4283  0.2819
  889THF     C213486   3.779   2.301   5.105 -0.5967 -0.2449  0.7112
  889THF     C313487   3.964   2.426   5.138  0.5514 -0.3813  0.4815
  889THF     H413488   3.747   2.198   5.088  1.0795 -0.8044  0.7803
  889THF     H513489   3.705   2.363   5.055  1.8199  1.7884 -0.5142
  889THF     H613490   4.070   2.447   5.124  0.0897  2.7242  0.9186
  889THF     H713491   3.928   2.521   5.098  0.3231 -0.0482  1.4481
  889THF     C813492   3.911   2.406   5.278  0.3000  0.0538  0.2313
  889THF     C913493   3.778   2.328   5.259 -0.0986  0.6482 -0.4652
  889THF    H1013494   3.893   2.500   5.330  1.6190  0.7412 -0.4969
  889THF    H1113495   3.973   2.349   5.347  0.7734  0.3732  0.0731
  889THF    H1213496   3.764   2.229   5.304 -0.7701  0.1679 -1.6871
  889THF    H1313497   3.703   2.398   5.296  1.0120  1.5012  0.2474
  890THF     O113498   2.889   0.458   4.033  0.5711  0.2926 -0.0374
  890THF     C213499   2.764   0.528   4.035 -0.3792 -0.5873 -0.4762
  890THF     C313500   2.970   0.520   3.929  0.5100 -0.6583  0.4773
  890THF     H413501   2.780   0.624   4.084 -0.6139 -0.1045 -1.3321
  890THF     H513502   2.689   0.476   4.095 -0.0091  0.1522  0.6753
  890THF     H613503   3.028   0.607   3.961 -1.4481  1.9566 -2.4749
  890THF     H713504   3.038   0.450   3.880 -0.0822 -0.6887 -0.3221
  890THF     C813505   2.865   0.562   3.820  0.4486 -0.2418  0.2021
  890THF     C913506   2.733   0.561   3.891  0.3801  0.1560 -0.0140
  890THF    H1013507   2.858   0.502   3.729 -0.3516  1.4484 -0.9094
  890THF    H1113508   2.894   0.663   3.794 -0.9458  0.4898  1.3153
  890THF    H1213509   2.686   0.660   3.888  1.3242  0.6185  0.3022
  890THF    H1313510   2.666   0.481   3.858  0.4531 -0.4620  1.2961
  891THF     O113511   1.878   4.039   2.648 -0.4436  0.3208 -0.0217
  891THF     C213512   1.874   4.151   2.554  0.2100 -0.1598  0.2671
  891THF     C313513   1.909   3.922   2.573  0.8032  0.7683 -0.4265
  891THF     H413514   1.895   4.232   2.625 -1.3922 -0.8633  1.6078
  891THF     H513515   1.782   4.189   2.509  0.5849  0.3974 -0.0435
  891THF     H613516   1.972   3.861   2.638 -0.6323  0.8372  1.1025
  891THF     H713517   1.826   3.865   2.531 -0.3465  2.4802 -0.5424
  891THF     C813518   2.004   3.968   2.467 -0.3164 -0.8931  0.3334
  891THF     C913519   1.985   4.122   2.459 -0.0236 -0.3751  1.0557
  891THF    H1013520   1.988   3.928   2.367 -1.8647 -0.2064  0.2851
  891THF    H1113521   2.105   3.939   2.498 -0.1892 -1.0620 -0.2148
  891THF    H1213522   2.075   4.181   2.471  2.1222 -2.1935 -3.5416
  891THF    H1313523   1.947   4.151   2.361  2.4609 -0.2373  0.0691
  892THF     O113524   4.147   1.139   4.931 -0.2323  0.1237 -0.2013
  892THF     C213525   4.103   1.270   4.900 -0.0405  0.7918 -0.6770
  892THF     C313526   4.160   1.135   5.068 -0.4470  0.0637 -0.1776
  892THF     H413527   4.059   1.278   4.800 -2.0130 -0.7380  0.0023
  892THF     H513528   4.189   1.337   4.903  2.0548 -1.7621  0.6423
  892THF     H613529   4.165   1.032   5.106 -0.2664  0.4666  0.9484
  892THF     H713530   4.253   1.180   5.102 -0.4473 -0.9138  1.2394
  892THF     C813531   4.030   1.200   5.121 -0.0695  0.7365 -0.9153
  892THF     C913532   3.992   1.285   5.010 -0.2202 -0.4467  0.6812
  892THF    H1013533   4.047   1.243   5.219 -0.6333 -0.8504 -0.0916
  892THF    H1113534   3.948   1.130   5.136  0.1506  0.4077 -1.2304
  892THF    H1213535   3.890   1.269   4.974 -0.7580 -2.7345  2.9644
  892THF    H1313536   3.987   1.388   5.046  0.1397  0.7279 -2.3467
  893THF     O113537   4.048   4.009   4.689 -0.0051 -0.2142  0.5500
  893THF     C213538   3.918   3.948   4.717  0.2805 -0.5080 -0.1314
  893THF     C313539   4.062   4.132   4.766  0.1446 -0.3578  0.3305
  893THF     H413540   3.917   3.840   4.703  1.2566 -0.3209 -1.9429
  893THF     H513541   3.845   3.996   4.653  0.6992  1.3373  0.7200
  893THF     H613542   4.147   4.120   4.832  1.3239 -0.1870 -1.1102
  893THF     H713543   4.069   4.220   4.702 -0.1453 -1.5273 -1.3866
  893THF     C813544   3.944   4.139   4.860  0.4049  0.4741 -0.3196
  893THF     C913545   3.882   4.001   4.857  0.0808  0.4799 -0.0187
  893THF    H1013546   3.868   4.213   4.839 -1.7873 -1.7297 -0.5717
  893THF    H1113547   3.986   4.170   4.955  2.1184  1.3405 -1.3058
  893THF    H1213548   3.934   3.940   4.931 -2.7403 -1.0037  0.8704
  893THF    H1313549   3.777   3.998   4.884  0.9881 -0.1272  3.9947
  894THF     O113550   3.855   3.558   0.567 -0.0090  0.3752 -0.3225
  894THF     C213551   3.928   3.442   0.597 -0.0226  0.3256 -0.0174
  894THF     C313552   3.838   3.552   0.424 -0.2442  0.8774  0.2988
  894THF     H413553   3.852   3.365   0.611 -1.1581  1.5116  0.6467
  894THF     H513554   3.975   3.444   0.695 -0.7696  0.5944  0.3474
  894THF     H613555   3.756   3.494   0.382 -0.3017  0.6556  0.7153
  894THF     H713556   3.816   3.655   0.395  1.3391  1.0454 -0.4153
  894THF     C813557   3.969   3.502   0.369 -0.9343 -0.2288  0.1102
  894THF     C913558   4.020   3.414   0.476 -0.0099 -0.3804 -0.1102
  894THF    H1013559   4.047   3.577   0.353 -1.2303 -0.0503 -0.5192
  894THF    H1113560   3.951   3.461   0.270 -0.4913 -1.1761  0.4137
  894THF    H1213561   4.012   3.306   0.461  0.9083 -0.9126  2.6400
  894THF    H1313562   4.126   3.425   0.498 -0.2289 -0.0774  0.8741
  895THF     O113563   4.710   2.082   5.153  0.6772  0.2728 -0.2174
  895THF     C213564   4.810   2.114   5.249  0.4861  1.0758 -0.2964
  895THF     C313565   4.713   1.941   5.134  0.4295  0.0751 -0.1747
  895THF     H413566   4.770   2.117   5.350 -1.2964  0.8619 -0.9482
  895THF     H513567   4.844   2.215   5.223  4.1095 -0.8062 -4.0007
  895THF     H613568   4.663   1.879   5.209 -0.1212 -0.0971 -0.6664
  895THF     H713569   4.677   1.909   5.036 -0.9523 -0.2950  0.4249
  895THF     C813570   4.861   1.910   5.143 -0.2589  0.4657 -0.3157
  895THF     C913571   4.928   2.021   5.226  0.3496 -0.1465  0.5883
  895THF    H1013572   4.909   1.900   5.046  1.3891 -1.9259  0.6559
  895THF    H1113573   4.868   1.818   5.200 -1.3769  0.1229 -0.7085
  895THF    H1213574   4.959   1.994   5.327 -1.0888 -0.1626  1.0479
  895THF    H1313575   5.012   2.070   5.178 -0.2316 -0.8837 -1.2894
  896THF     O113576   3.260   1.950   2.950 -0.4041  0.1241  0.0433
  896THF     C213577   3.226   2.047   3.047  0.0709 -0.6019  0.4854
  896THF     C313578   3.377   1.988   2.880  1.3377 -0.3428  0.2140
  896THF     H413579   3.302   2.036   3.125  1.1122 -1.3516 -0.6128
  896THF     H513580   3.125   2.050   3.089  0.7255 -0.7682  2.1761
  896THF     H613581   3.468   1.962   2.934  0.6666 -0.7905  1.1485
  896THF     H713582   3.371   1.929   2.788  0.1749 -0.4742  0.3539
  896THF     C813583   3.353   2.137   2.851 -0.7056 -0.6656  0.3506
  896THF     C913584   3.250   2.174   2.958 -0.2476 -0.2634  0.3099
  896THF    H1013585   3.316   2.156   2.750  1.9031 -0.3353 -0.6343
  896THF    H1113586   3.450   2.184   2.868 -0.8834 -0.1047 -0.1285
  896THF    H1213587   3.286   2.257   3.019  0.5589 -2.3101  2.8243
  896THF    H1313588   3.162   2.205   2.901  1.4762  1.0310 -1.7924
  897THF     O113589   2.507   4.956   4.212 -0.3974 -0.4689 -0.4011
  897THF     C213590   2.379   4.995   4.260 -0.7108  0.4632  0.0095
  897THF     C313591   2.491   4.842   4.127  0.1272  0.5510 -0.1968
  897THF     H413592   2.321   5.049   4.185  0.3817 -0.0005 -1.2089
  897THF     H513593   2.390   5.061   4.346  0.7087 -0.1033  0.2894
  897THF     H613594   2.463   4.876   4.027  1.0763 -1.4884 -1.2094
  897THF     H713595   2.578   4.777   4.126 -0.8148 -0.8978  2.3712
  897THF     C813596   2.380   4.768   4.196  0.2493  0.7973  0.3650
  897THF     C913597   2.303   4.864   4.281  0.7150  0.1918  0.2650
  897THF    H1013598   2.418   4.688   4.258  1.9105  0.7554 -0.6286
  897THF    H1113599   2.324   4.721   4.115 -0.1904  3.4781 -1.0444
  897THF    H1213600   2.197   4.870   4.256  0.8772  1.8936 -0.1447
  897THF    H1313601   2.298   4.829   4.385 -2.0242  1.0765  0.5193
  898THF     O113602   3.608   1.811   5.268  0.1026 -0.2661  0.1023
  898THF     C213603   3.597   1.850   5.407 -0.6260  0.2381  0.4642
  898THF     C313604   3.487   1.842   5.191  0.1853 -0.1949  0.0070
  898THF     H413605   3.597   1.959   5.415 -0.8994  0.1540  1.6734
  898THF     H513606   3.676   1.810   5.471 -1.8814  0.9667  2.5610
  898THF     H613607   3.476   1.949   5.173 -1.5205 -0.4016 -0.3208
  898THF     H713608   3.486   1.785   5.098  1.3309 -1.2314  0.5984
  898THF     C813609   3.376   1.800   5.292 -0.5411 -0.3839  0.2517
  898THF     C913610   3.452   1.786   5.428 -0.3126 -0.7171 -0.2590
  898THF    H1013611   3.347   1.698   5.268  1.7828 -1.4379  1.6469
  898THF    H1113612   3.290   1.863   5.314  0.1832  0.0174  2.0384
  898THF    H1213613   3.395   1.839   5.504 -0.9391 -1.7326  0.0032
  898THF    H1313614   3.463   1.681   5.455 -1.1988 -0.0432  3.0194
  899THF     O113615   0.333   2.473   5.335 -0.1602  0.0966  0.6771
  899THF     C213616   0.269   2.602   5.316  0.6863 -0.3696  0.1913
  899THF     C313617   0.452   2.482   5.264  0.4433  0.3918 -0.4864
  899THF     H413618   0.304   2.676   5.388 -3.4706 -0.0373  2.1626
  899THF     H513619   0.164   2.602   5.343  0.4356  1.8943 -0.5433
  899THF     H613620   0.524   2.542   5.320 -0.8230  0.6384  0.9494
  899THF     H713621   0.500   2.384   5.259  0.0167  0.1875 -0.6797
  899THF     C813622   0.412   2.546   5.135 -0.4066 -0.1621  0.0643
  899THF     C913623   0.301   2.639   5.173 -0.2299 -0.2986  0.3501
  899THF    H1013624   0.380   2.471   5.063  0.3761 -0.2800 -0.1702
  899THF    H1113625   0.488   2.600   5.080 -0.4788 -0.5132 -0.3872
  899THF    H1213626   0.334   2.742   5.168 -0.7516 -0.1040  0.7692
  899THF    H1313627   0.214   2.624   5.109  0.6552 -0.7659 -0.7635
  900THF     O113628   2.603   2.580   1.571  0.0389 -0.1880 -1.3046
  900THF     C213629   2.605   2.693   1.487 -0.6124 -0.3671  0.1747
  900THF     C313630   2.704   2.485   1.532 -0.3458  0.2257  0.2012
  900THF     H413631   2.687   2.764   1.490  0.5787 -1.7174  0.3307
  900THF     H513632   2.514   2.754   1.494 -1.7215 -2.1071  2.8894
  900THF     H613633   2.801   2.504   1.578  0.8200 -3.4223 -0.4404
  900THF     H713634   2.698   2.380   1.562  2.0167  0.0390  0.1655
  900THF     C813635   2.707   2.500   1.379  0.2721  0.5580 -0.2747
  900THF     C913636   2.623   2.623   1.352  0.4635  0.2548  0.2409
  900THF    H1013637   2.646   2.423   1.331 -0.1935  1.9848 -2.1224
  900THF    H1113638   2.804   2.499   1.330  0.5517 -0.9593  0.2794
  900THF    H1213639   2.682   2.681   1.282  0.8297 -0.0846  0.2646
  900THF    H1313640   2.527   2.600   1.305 -0.0515 -1.1354  1.8533
  901THF     O113641   2.461   1.162   3.371 -1.2028 -0.3090  0.2716
  901THF     C213642   2.496   1.130   3.233  0.3052  0.2359  0.1391
  901THF     C313643   2.326   1.184   3.387 -0.3713 -0.1603  0.1699
  901THF     H413644   2.598   1.100   3.213  0.7932  0.8997  1.5014
  901THF     H513645   2.480   1.219   3.172  0.9453 -0.2794 -0.8004
  901THF     H613646   2.296   1.182   3.492  0.5928  2.6987  0.5784
  901THF     H713647   2.282   1.269   3.336 -2.2336 -1.4209 -0.4273
  901THF     C813648   2.284   1.051   3.321 -0.0188  0.7898 -0.7408
  901THF     C913649   2.383   1.031   3.206 -0.4007 -0.1016 -0.1530
  901THF    H1013650   2.179   1.045   3.291 -0.9786 -0.9699  2.4008
  901THF    H1113651   2.286   0.971   3.395 -0.7429 -1.2304 -2.7941
  901THF    H1213652   2.436   0.936   3.215 -0.1426 -0.2176 -2.4213
  901THF    H1313653   2.344   1.038   3.105  2.3221  1.3437 -1.2058
  902THF     O113654   2.702   1.006   2.960  0.0401  0.2515 -0.0612
  902THF     C213655   2.833   1.073   2.977 -0.0357  0.0234 -0.1899
  902THF     C313656   2.609   1.102   2.911 -0.8295 -0.3352  0.0835
  902THF     H413657   2.915   1.004   2.998  1.5150  1.5591 -1.0423
  902THF     H513658   2.817   1.144   3.058 -1.4981  1.4095 -1.6189
  902THF     H613659   2.519   1.050   2.879 -0.7812  0.0770 -0.7480
  902THF     H713660   2.578   1.170   2.990 -0.2688 -0.0071  0.0287
  902THF     C813661   2.692   1.182   2.809 -0.0015  0.1193  0.4651
  902THF     C913662   2.841   1.161   2.854  0.1311 -0.1968 -0.0983
  902THF    H1013663   2.654   1.284   2.812 -1.5437 -0.1610 -3.3663
  902THF    H1113664   2.674   1.138   2.711  0.9051  0.1734  0.2601
  902THF    H1213665   2.897   1.111   2.775 -0.3664  3.5135 -3.0891
  902THF    H1313666   2.884   1.261   2.867 -0.8952  0.4173 -1.1420
  903THF     O113667   1.479   3.936   1.821 -0.4077  0.6316 -0.7452
  903THF     C213668   1.618   3.968   1.801 -0.2174 -0.2124  0.6146
  903THF     C313669   1.417   4.046   1.767  0.5758 -0.0013 -0.2494
  903THF     H413670   1.652   3.967   1.698 -0.2936  0.7418  0.5695
  903THF     H513671   1.696   3.914   1.855 -1.3287 -1.6729  0.8289
  903THF     H613672   1.410   4.043   1.658  1.9857  0.4985 -0.3774
  903THF     H713673   1.313   4.060   1.797  1.1250  5.0057  0.1197
  903THF     C813674   1.488   4.168   1.826  0.2782 -0.0887 -0.1813
  903THF     C913675   1.627   4.113   1.846 -0.6893 -0.2051 -0.2665
  903THF    H1013676   1.438   4.192   1.920  0.7842  0.7074 -0.1056
  903THF    H1113677   1.475   4.253   1.760 -2.7795 -2.3814 -2.8218
  903THF    H1213678   1.700   4.158   1.779 -0.8045 -0.3440 -0.4858
  903THF    H1313679   1.663   4.112   1.949 -0.1013  2.7588 -0.3734
  904THF     O113680   5.306   4.905   4.332  0.2992  0.7567 -0.3246
  904THF     C213681   5.339   4.977   4.210 -0.7422 -0.3589  0.6371
  904THF     C313682   5.388   4.788   4.324  0.0657 -0.4917 -0.0445
  904THF     H413683   5.427   5.041   4.216  0.7143 -2.1728 -0.4172
  904THF     H513684   5.256   5.043   4.184 -1.0137 -0.4969  1.1359
  904THF     H613685   5.490   4.826   4.332  0.3619 -1.4773  1.1397
  904THF     H713686   5.372   4.710   4.398  1.3552  0.6882  1.5567
  904THF     C813687   5.367   4.738   4.182 -0.2182  0.0860 -0.5433
  904THF     C913688   5.367   4.864   4.106 -0.3621 -1.1086 -0.4877
  904THF    H1013689   5.271   4.688   4.166  0.3103 -0.6251 -1.6493
  904THF    H1113690   5.443   4.669   4.144 -0.0228  0.2246 -0.4031
  904THF    H1213691   5.456   4.880   4.045 -1.4783  2.0324 -1.4452
  904THF    H1313692   5.286   4.868   4.033 -1.9031 -0.3910  1.2160
  905THF     O113693   3.820   5.021   2.797  0.5001 -0.2676  0.0697
  905THF     C213694   3.716   5.080   2.722 -0.6376 -0.4461 -0.1630
  905THF     C313695   3.938   5.010   2.721 -0.2343 -0.5671 -0.0672
  905THF     H413696   3.649   5.130   2.792 -1.5075 -2.6073  0.6434
  905THF     H513697   3.654   5.014   2.661 -0.6686  0.1162 -0.7464
  905THF     H613698   4.020   5.015   2.793  1.0076  0.4481 -1.4764
  905THF     H713699   3.942   4.919   2.661  0.1139 -1.8092  1.7271
  905THF     C813700   3.935   5.140   2.628  0.5555 -0.6074 -0.5211
  905THF     C913701   3.791   5.186   2.632  0.3288  0.7490  0.5466
  905THF    H1013702   3.969   5.118   2.527  1.6833  2.6664 -0.9767
  905THF    H1113703   3.999   5.220   2.666  0.9537  0.3443 -3.0169
  905THF    H1213704   3.783   5.276   2.694  1.0339  1.0092  0.2729
  905THF    H1313705   3.752   5.193   2.530 -0.5589 -2.2457  0.5863
  906THF     O113706   3.808   3.668   5.290 -0.4351  0.1984  0.1674
  906THF     C213707   3.793   3.794   5.354  0.0410 -0.1084 -0.8872
  906THF     C313708   3.757   3.672   5.158  0.1118  0.2303 -0.0923
  906THF     H413709   3.875   3.864   5.337  0.4386 -0.4511 -0.4242
  906THF     H513710   3.794   3.772   5.461 -1.1370 -0.9915 -1.0334
  906THF     H613711   3.837   3.699   5.089  1.3673  1.1016  1.6361
  906THF     H713712   3.714   3.576   5.128  1.1623 -0.0895 -0.6467
  906THF     C813713   3.654   3.789   5.157 -0.4798  0.1894  0.2111
  906THF     C913714   3.664   3.859   5.294 -0.2545 -0.1066 -0.6680
  906THF    H1013715   3.552   3.756   5.142 -1.1291  2.6448 -1.3429
  906THF    H1113716   3.677   3.859   5.077 -1.0126 -0.8772 -0.9085
  906THF    H1213717   3.635   3.963   5.310 -0.4317 -0.1984 -0.3993
  906THF    H1313718   3.586   3.807   5.349 -0.4497  1.2800  0.4314
  907THF     O113719   3.016   4.980   3.346  0.0292  0.7314  0.6992
  907THF     C213720   3.111   5.070   3.410  0.1079 -0.5959  0.0433
  907THF     C313721   2.977   5.035   3.218 -0.2830  0.0950 -0.2635
  907THF     H413722   3.190   5.015   3.461  1.3462  0.6017 -0.5221
  907THF     H513723   3.064   5.137   3.481 -1.6592 -0.7081 -0.9645
  907THF     H613724   2.948   4.965   3.140  1.9245 -0.3356 -0.7716
  907THF     H713725   2.886   5.089   3.243 -0.8499 -1.2535  0.7501
  907THF     C813726   3.089   5.122   3.165  0.1039  0.4557 -0.9281
  907THF     C913727   3.167   5.152   3.292  0.3128  0.2335 -0.4685
  907THF    H1013728   3.041   5.213   3.126 -0.6905  2.6707  4.4070
  907THF    H1113729   3.159   5.080   3.092  0.1986  1.4400 -1.4241
  907THF    H1213730   3.267   5.114   3.271  0.3449  0.7843 -1.3317
  907THF    H1313731   3.179   5.258   3.316 -2.3353  0.1903  1.5095
  908THF     O113732   5.206   0.092   4.339  0.2868 -0.1989 -0.3712
  908THF     C213733   5.341   0.107   4.304  0.6923 -0.3493 -0.3909
  908THF     C313734   5.117   0.155   4.242 -0.4851  0.5278 -0.2756
  908THF     H413735   5.402   0.030   4.352 -0.0406 -1.3543 -1.0151
  908THF     H513736   5.373   0.196   4.358  1.2882 -1.3806  1.0273
  908THF     H613737   5.030   0.090   4.232  0.1735 -0.5931  0.9935
  908THF     H713738   5.068   0.239   4.291 -2.6158 -0.5902 -0.4042
  908THF     C813739   5.206   0.182   4.116  1.2782 -0.1829  0.0320
  908THF     C913740   5.338   0.113   4.149  0.2491 -0.2127 -0.4352
  908THF    H1013741   5.207   0.289   4.094  0.5015 -0.3252 -0.7652
  908THF    H1113742   5.154   0.129   4.036  1.3776 -0.2962  0.0418
  908THF    H1213743   5.339   0.011   4.111  1.3505 -0.4200  0.0922
  908THF    H1313744   5.426   0.155   4.100  0.3585  0.4263  0.3040
  909THF     O113745   3.454   2.513   1.073 -0.0676  0.4203  0.0385
  909THF     C213746   3.579   2.507   1.015 -0.1261  0.6749 -0.8191
  909THF     C313747   3.353   2.459   0.983 -0.3159  0.2611  0.7375
  909THF     H413748   3.620   2.406   1.021  0.3065  0.8778 -0.1770
  909THF     H513749   3.642   2.579   1.069 -0.8217  0.3039  0.5252
  909THF     H613750   3.332   2.355   1.006 -1.0982 -0.2982 -2.0757
  909THF     H713751   3.270   2.529   0.982  0.1941  0.9679 -1.9375
  909THF     C813752   3.420   2.470   0.838 -0.0288 -0.3051  0.1503
  909THF     C913753   3.543   2.550   0.870  0.2813  0.7901 -0.8154
  909THF    H1013754   3.354   2.509   0.761 -0.7677  0.5255  1.1650
  909THF    H1113755   3.447   2.369   0.808 -0.7104 -0.0322 -1.4929
  909THF    H1213756   3.622   2.542   0.795  2.1433  2.6106  0.8088
  909THF    H1313757   3.512   2.654   0.874  0.4083  0.7990  0.4184
  910THF     O113758   2.039   3.188   1.384 -0.1098  0.5205  0.5282
  910THF     C213759   1.968   3.306   1.396 -0.0830 -0.2568 -0.1099
  910THF     C313760   2.181   3.204   1.377  0.1671  0.5186 -0.0983
  910THF     H413761   1.959   3.320   1.503  1.7777  1.4557 -0.1259
  910THF     H513762   1.863   3.313   1.365 -0.1219 -0.8667 -0.1346
  910THF     H613763   2.216   3.152   1.466 -3.0963  0.0016  1.0033
  910THF     H713764   2.213   3.167   1.280 -0.5997  0.3438 -0.2868
  910THF     C813765   2.204   3.354   1.392  0.2499  0.7049 -0.3455
  910THF     C913766   2.072   3.409   1.343  0.2055  0.3909  0.3519
  910THF    H1013767   2.294   3.383   1.338  2.1760 -0.1555  2.2226
  910THF    H1113768   2.214   3.385   1.496 -1.9746 -0.4226  0.2821
  910THF    H1213769   2.043   3.503   1.390 -1.3544 -0.8850  2.0860
  910THF    H1313770   2.071   3.414   1.234 -0.0492  0.0059  0.3351
  911THF     O113771   5.447   1.110   2.564  0.9673 -0.0979 -0.0938
  911THF     C213772   5.462   1.254   2.560 -0.4593  0.2978 -0.4752
  911THF     C313773   5.487   1.040   2.446  0.8369 -0.0011 -0.2229
  911THF     H413774   5.528   1.287   2.641 -1.1159 -3.2698  1.7408
  911THF     H513775   5.361   1.291   2.574 -1.0975 -1.5344 -0.0690
  911THF     H613776   5.574   0.975   2.453  0.2972 -0.6748  0.5231
  911THF     H713777   5.410   0.969   2.417 -0.2666  0.8875  0.4218
  911THF     C813778   5.504   1.154   2.346  0.5429  1.1093  0.5058
  911THF     C913779   5.522   1.286   2.421 -0.4191 -0.1888  0.2357
  911THF    H1013780   5.414   1.163   2.284  1.1206  0.0201 -0.5425
  911THF    H1113781   5.583   1.126   2.276 -1.2484  0.5058 -1.4068
  911THF    H1213782   5.629   1.308   2.424  0.0080 -1.6264 -2.0405
  911THF    H1313783   5.468   1.371   2.379 -0.7931 -1.1159 -1.2695
  912THF     O113784   2.456   4.016   4.518  0.4551  0.0776  0.0655
  912THF     C213785   2.340   3.968   4.459 -0.3285  0.3620 -0.4785
  912THF     C313786   2.422   4.058   4.648 -0.1812  0.1880  1.1494
  912THF     H413787   2.349   3.861   4.438 -0.8855  0.3894 -0.8980
  912THF     H513788   2.335   4.026   4.366  1.5962  1.0447 -0.1994
  912THF     H613789   2.443   3.977   4.717 -0.2462 -1.2944 -0.4912
  912THF     H713790   2.477   4.148   4.674  0.3867  0.9970 -2.2811
  912THF     C813791   2.282   4.110   4.633  0.5269  0.1291  0.0211
  912THF     C913792   2.218   4.001   4.557 -0.7432  0.5403  1.0554
  912THF    H1013793   2.281   4.201   4.573  0.2960 -0.4931 -0.9237
  912THF    H1113794   2.235   4.141   4.727  0.6582  2.0288 -0.4954
  912THF    H1213795   2.198   3.918   4.624 -0.6081 -1.0677 -0.8164
  912THF    H1313796   2.126   4.031   4.507  0.0415  1.4512  0.1198
  913THF     O113797   0.936   0.179   3.409  0.1180 -0.4038  0.1227
  913THF     C213798   0.823   0.134   3.487  0.8865 -0.2920  1.0384
  913THF     C313799   0.882   0.206   3.280 -0.1457  0.5800  0.1187
  913THF     H413800   0.748   0.213   3.489  0.3061 -0.6657 -1.9653
  913THF     H513801   0.859   0.119   3.589  1.5362  0.7597  0.9786
  913THF     H613802   0.838   0.305   3.283 -0.2222  0.5357  0.5765
  913THF     H713803   0.954   0.213   3.199  0.4503  0.2225  0.6080
  913THF     C813804   0.781   0.082   3.261 -0.2203 -0.0882 -0.0172
  913THF     C913805   0.771   0.018   3.405  0.0174 -0.4926  0.5006
  913THF    H1013806   0.822   0.006   3.194 -1.5184 -0.5997 -0.2568
  913THF    H1113807   0.687   0.117   3.218  0.5112  1.5593 -0.3068
  913THF    H1213808   0.675  -0.016   3.442 -0.0379 -2.3508 -1.1986
  913THF    H1313809   0.843  -0.063   3.401 -0.4971 -1.1546  2.9974
  914THF     O113810   4.592   1.565   0.947 -0.1035  0.0326  0.6272
  914THF     C213811   4.583   1.428   0.914 -0.2596  0.2119 -0.3593
  914THF     C313812   4.589   1.574   1.085  0.5484  0.4172 -0.3738
  914THF     H413813   4.679   1.377   0.927  0.2005  1.2509  0.4466
  914THF     H513814   4.552   1.400   0.813  1.7786  0.4315 -1.0991
  914THF     H613815   4.683   1.594   1.137  0.2233 -0.3342  0.5334
  914THF     H713816   4.517   1.655   1.100 -2.2650 -1.9419 -0.4778
  914THF     C813817   4.529   1.446   1.141  0.5611 -0.3815 -0.0910
  914THF     C913818   4.484   1.376   1.016  0.3684 -0.2785 -0.2036
  914THF    H1013819   4.455   1.451   1.221 -0.0848  0.4003 -0.7189
  914THF    H1113820   4.614   1.395   1.186  1.2970  0.4526 -0.5051
  914THF    H1213821   4.497   1.268   1.021  0.3715 -0.2467  0.7034
  914THF    H1313822   4.387   1.410   0.981 -0.2941 -1.6282  0.2297
  915THF     O113823   1.872   1.294   5.419 -0.0823  0.0054  0.2200
  915THF     C213824   1.898   1.404   5.333 -0.0470  0.4772 -0.0673
  915THF     C313825   1.731   1.289   5.445 -0.1553  0.0037  0.5208
  915THF     H413826   1.858   1.384   5.234 -1.7072 -0.9404  0.8210
  915THF     H513827   2.003   1.433   5.323 -0.4034  1.4644 -1.0837
  915THF     H613828   1.675   1.274   5.353  1.9708 -0.2027 -0.8089
  915THF     H713829   1.697   1.211   5.514 -1.7057 -0.4358 -0.6897
  915THF     C813830   1.697   1.433   5.487 -0.0891  0.2422  0.2818
  915THF     C913831   1.810   1.513   5.404 -0.3098  0.3342 -0.0253
  915THF    H1013832   1.711   1.429   5.595  0.7926 -0.6841  0.1524
  915THF    H1113833   1.593   1.457   5.463  0.0381  0.2342 -0.2984
  915THF    H1213834   1.764   1.569   5.323  0.6341  0.1923 -0.6721
  915THF    H1313835   1.864   1.582   5.469  0.2919  1.1542 -1.3566
  916THF     O113836   1.416   5.128   2.788 -0.5396  0.0929 -0.1382
  916THF     C213837   1.303   5.187   2.848  0.3045  0.0462  0.3148
  916THF     C313838   1.385   5.006   2.715  0.1563  0.8179  0.3962
  916THF     H413839   1.337   5.291   2.850  1.6508 -0.3759  0.9171
  916THF     H513840   1.300   5.145   2.949  1.3071  1.1277  0.8269
  916THF     H613841   1.434   4.993   2.618 -0.6349 -2.3579  0.2915
  916THF     H713842   1.396   4.911   2.767 -2.2474 -0.4408 -1.2167
  916THF     C813843   1.238   5.021   2.691 -0.6968  0.2289  0.5721
  916THF     C913844   1.197   5.153   2.748 -0.1235 -0.5384  0.5340
  916THF    H1013845   1.179   4.943   2.740 -1.4644  0.2955 -0.2185
  916THF    H1113846   1.218   5.029   2.584  1.5167  0.7869  0.1412
  916THF    H1213847   1.182   5.221   2.664 -0.9289 -1.6632 -0.2694
  916THF    H1313848   1.100   5.156   2.796 -1.0909  0.1467 -1.3863
  917THF     O113849   3.049   0.317   2.682  0.2475 -0.5011  0.1397
  917THF     C213850   3.179   0.353   2.641 -0.4736 -0.7212 -0.1996
  917THF     C313851   3.029   0.355   2.813  0.2938 -0.4492 -0.0100
  917THF     H413852   3.165   0.438   2.574  1.8157  0.0498  0.2022
  917THF     H513853   3.214   0.280   2.568  0.5857  0.5563 -1.0216
  917THF     H613854   2.982   0.453   2.807 -3.8372 -2.1504  0.9434
  917THF     H713855   2.945   0.298   2.852 -1.9491  1.1653 -2.1790
  917THF     C813856   3.167   0.371   2.883  0.6865  0.1982 -0.2598
  917THF     C913857   3.261   0.397   2.769  0.3779  0.6098 -0.0498
  917THF    H1013858   3.199   0.278   2.928  3.2806  0.8142 -0.6639
  917THF    H1113859   3.165   0.453   2.955  0.7258  1.4237 -1.5940
  917THF    H1213860   3.285   0.503   2.773 -0.1407  0.7023  1.6026
  917THF    H1313861   3.347   0.333   2.786 -0.6997 -0.4403  1.9504
  918THF     O113862   0.028   0.874   3.024  0.2336  0.2666  0.0931
  918THF     C213863   0.162   0.919   3.040 -0.2415 -0.3506  0.1093
  918THF     C313864  -0.048   0.984   3.041  0.2705  0.6225 -0.1714
  918THF     H413865   0.228   0.846   2.993  0.5578 -0.0319  0.7108
  918THF     H513866   0.190   0.934   3.144 -2.0471 -0.0282  0.5683
  918THF     H613867  -0.152   0.971   3.011 -0.3487 -0.3020  2.1562
  918THF     H713868  -0.062   1.029   3.139 -0.3929  4.4051 -1.8159
  918THF     C813869   0.017   1.079   2.946  0.6373  0.1466  0.3638
  918THF     C913870   0.162   1.053   2.977 -0.9657 -0.8712  0.3884
  918THF    H1013871  -0.000   1.187   2.953 -0.2602 -0.0494  1.3895
  918THF    H1113872  -0.007   1.043   2.846 -0.0708 -0.3101  0.6926
  918THF    H1213873   0.216   1.059   2.882 -2.7405 -0.6336 -0.6522
  918THF    H1313874   0.209   1.124   3.044 -2.4068  1.1095 -0.6126
  919THF     O113875   0.241   5.270   2.742  0.2759 -0.1388 -0.0306
  919THF     C213876   0.298   5.163   2.672  0.1160 -0.0432  0.5035
  919THF     C313877   0.173   5.211   2.853 -0.4665  0.3384  0.3683
  919THF     H413878   0.393   5.129   2.714  1.0851  1.7854 -0.1119
  919THF     H513879   0.312   5.190   2.568 -1.9250  0.7567  0.4007
  919THF     H613880   0.237   5.201   2.940 -0.6664  3.1604  0.9064
  919THF     H713881   0.085   5.265   2.887 -0.9485 -1.0276  1.3861
  919THF     C813882   0.129   5.066   2.812  0.3255 -0.2726  0.3010
  919THF     C913883   0.195   5.051   2.682 -0.6351  0.0670 -0.2626
  919THF    H1013884   0.021   5.070   2.804  0.4681  0.3278 -1.9617
  919THF    H1113885   0.156   4.978   2.872 -0.7321  0.2497  1.5971
  919THF    H1213886   0.247   4.957   2.665  0.8746  1.1097 -1.7777
  919THF    H1313887   0.123   5.072   2.603  1.0559 -0.5497 -2.0442
  920THF     O113888   4.715   4.264   4.249 -0.4794  0.0648 -0.1485
  920THF     C213889   4.680   4.130   4.211 -0.7720 -0.8622 -0.2489
  920THF     C313890   4.666   4.348   4.147  0.7502  0.1178  0.1441
  920THF     H413891   4.577   4.117   4.245 -0.6952 -0.2956  0.2143
  920THF     H513892   4.743   4.061   4.265  0.0491 -1.2536 -1.6463
  920THF     H613893   4.577   4.407   4.166 -0.9342 -1.4812 -2.1958
  920THF     H713894   4.740   4.426   4.125  0.4560  1.0543  2.2907
  920THF     C813895   4.648   4.252   4.022  0.6055  0.4417  0.6804
  920THF     C913896   4.707   4.126   4.058  0.4980  0.2842 -0.2052
  920THF    H1013897   4.691   4.293   3.930  2.4087 -0.8532  0.8953
  920THF    H1113898   4.541   4.240   4.005  0.4476  0.8992  1.2989
  920THF    H1213899   4.648   4.041   4.022 -0.4341  1.4265 -1.4978
  920THF    H1313900   4.812   4.115   4.032 -0.0569 -1.7165 -1.9158
  921THF     O113901   3.681   4.581   4.734 -0.7767  0.0269 -0.9655
  921THF     C213902   3.779   4.585   4.628  0.0677 -0.1932  0.4435
  921THF     C313903   3.743   4.657   4.840 -0.0448  0.9187  1.3011
  921THF     H413904   3.765   4.665   4.555  4.1453  1.7641  1.5378
  921THF     H513905   3.771   4.486   4.583 -0.9743  0.0378  0.0963
  921THF     H613906   3.724   4.763   4.821 -1.0696  0.5500  0.1939
  921THF     H713907   3.691   4.629   4.932  0.0858 -0.3962  0.9825
  921THF     C813908   3.888   4.612   4.840  0.3808  0.1120  0.5440
  921THF     C913909   3.916   4.609   4.694  0.1868 -0.4465  0.0958
  921THF    H1013910   3.901   4.512   4.880 -0.0981  0.3010  1.1942
  921THF    H1113911   3.961   4.666   4.901 -2.0809  2.9954  1.2118
  921THF    H1213912   3.957   4.702   4.655  0.2107 -0.0604  1.0333
  921THF    H1313913   3.988   4.537   4.656 -0.1962 -0.0918 -1.3629
  922THF     O113914   1.991   2.096   2.755 -0.2222 -0.8169 -0.8702
  922THF     C213915   1.953   2.107   2.625 -0.3815  0.8408 -0.2787
  922THF     C313916   1.883   2.136   2.832 -0.2117  0.7596  1.2488
  922THF     H413917   2.025   2.050   2.566  2.5262  3.1614  0.7623
  922THF     H513918   1.965   2.211   2.596  1.0168  1.3249  1.7608
  922THF     H613919   1.901   2.075   2.920  2.3191 -1.2929 -0.5378
  922THF     H713920   1.899   2.242   2.851 -0.6673  1.4135 -1.5673
  922THF     C813921   1.755   2.107   2.748 -0.0541  0.4162 -0.4568
  922THF     C913922   1.807   2.054   2.614  0.3087 -0.6429 -0.6214
  922THF    H1013923   1.696   2.198   2.738  1.8131  1.7995  0.5850
  922THF    H1113924   1.697   2.024   2.790  1.5494 -0.7701 -0.4921
  922THF    H1213925   1.806   1.945   2.613  1.2581 -0.6680 -0.1034
  922THF    H1313926   1.758   2.101   2.529  1.1036  0.3752 -0.5290
  923THF     O113927   4.669   4.606   0.657  0.5987 -0.1178  0.3239
  923THF     C213928   4.531   4.639   0.662  0.6544 -0.3089  0.7130
  923THF     C313929   4.695   4.542   0.539  0.5504 -0.8366  0.1842
  923THF     H413930   4.520   4.734   0.611  3.4272 -1.4235 -2.3693
  923THF     H513931   4.501   4.662   0.764 -0.1234  1.0353  0.2065
  923THF     H613932   4.696   4.612   0.456 -1.2245 -2.9767 -1.7820
  923THF     H713933   4.795   4.501   0.552  1.2565  0.9089  0.5997
  923THF     C813934   4.587   4.436   0.528 -0.8834  0.5591  0.0626
  923THF     C913935   4.469   4.509   0.602 -0.7288 -0.1071  0.2091
  923THF    H1013936   4.623   4.350   0.584  0.5878  0.9148 -0.2940
  923THF    H1113937   4.564   4.398   0.428 -0.9425 -1.0268  0.6560
  923THF    H1213938   4.392   4.530   0.528  0.6080  0.9205 -0.9461
  923THF    H1313939   4.447   4.437   0.681  2.2945 -0.4685  0.8305
  924THF     O113940   4.401   3.596   3.892 -0.1777  0.1879  0.0051
  924THF     C213941   4.397   3.671   4.017 -0.1896  0.2401 -0.1657
  924THF     C313942   4.465   3.471   3.937 -0.2849  0.4020  0.4746
  924THF     H413943   4.322   3.750   4.021 -1.5794 -0.9047 -2.2149
  924THF     H513944   4.494   3.704   4.053  0.0775 -0.1660 -0.5128
  924THF     H613945   4.454   3.392   3.863 -2.6022 -0.5614  1.7537
  924THF     H713946   4.569   3.492   3.963 -0.1935 -0.2517  0.6475
  924THF     C813947   4.390   3.433   4.066  0.2513  0.0236  0.0063
  924THF     C913948   4.348   3.571   4.113  0.5016 -0.4851 -0.2394
  924THF    H1013949   4.458   3.391   4.140 -1.4738 -0.0394  1.6148
  924THF    H1113950   4.308   3.367   4.038  0.8561 -1.6706  2.0242
  924THF    H1213951   4.240   3.582   4.117  0.6964  1.4418  0.4516
  924THF    H1313952   4.378   3.604   4.213 -0.4777  1.0036 -0.4058
  925THF     O113953   5.333   1.219   5.162 -0.4730  0.8358  0.5590
  925THF     C213954   5.312   1.330   5.077  0.3841 -0.0876 -0.0747
  925THF     C313955   5.426   1.126   5.104 -0.3566 -0.0704  0.7177
  925THF     H413956   5.373   1.405   5.127 -2.2558 -0.0850  3.5284
  925THF     H513957   5.206   1.357   5.083  0.0862 -1.4388  1.1311
  925THF     H613958   5.493   1.088   5.180 -2.2932 -3.1422  1.0808
  925THF     H713959   5.380   1.038   5.060  1.3898 -0.4864 -0.3654
  925THF     C813960   5.494   1.217   5.000 -0.4498  0.1570 -0.8985
  925THF     C913961   5.372   1.294   4.945  0.7466 -0.9851  0.1241
  925THF    H1013962   5.541   1.159   4.920 -0.2079 -2.4022  0.9768
  925THF    H1113963   5.568   1.287   5.038 -1.3488  1.0417 -0.7044
  925THF    H1213964   5.402   1.383   4.890  1.8416  0.0670  2.3137
  925THF    H1313965   5.299   1.239   4.886 -1.7496  2.0883  0.0909
  926THF     O113966   2.432   4.763   5.094  0.3689 -0.4571 -0.0339
  926THF     C213967   2.530   4.857   5.137 -0.4960 -0.6022  0.3464
  926THF     C313968   2.307   4.809   5.136  0.0071 -0.6220 -0.2974
  926THF     H413969   2.612   4.869   5.066 -1.8876 -0.6182 -1.3068
  926THF     H513970   2.583   4.816   5.223 -0.4437  0.8722  1.0464
  926THF     H613971   2.237   4.778   5.058  1.9087  0.3763 -2.5364
  926THF     H713972   2.273   4.765   5.229  0.2095 -0.4618 -0.1462
  926THF     C813973   2.308   4.964   5.140 -0.2669  0.4310 -0.2151
  926THF     C913974   2.462   4.987   5.158  0.2896 -0.2219 -0.4857
  926THF    H1013975   2.246   4.993   5.225  0.3993  0.5050  0.2587
  926THF    H1113976   2.282   5.013   5.047  3.7738  0.2324 -1.6597
  926THF    H1213977   2.503   5.061   5.089  1.0149 -0.7601 -0.6427
  926THF    H1313978   2.471   5.016   5.263  4.1718 -2.1046 -0.1281
  927THF     O113979   4.326   0.358   5.489 -0.2579 -0.3059  0.2540
  927THF     C213980   4.432   0.286   5.558  0.6622  0.5130  0.8441
  927THF     C313981   4.209   0.284   5.500 -0.7726  0.7336 -0.0310
  927THF     H413982   4.480   0.361   5.621 -1.9004  1.1363  2.2210
  927THF     H513983   4.509   0.254   5.488 -0.9983 -0.7658 -0.5007
  927THF     H613984   4.117   0.343   5.502 -1.6167 -0.5593  1.1769
  927THF     H713985   4.204   0.220   5.412 -1.2391 -0.9542  1.1673
  927THF     C813986   4.221   0.199   5.618  0.4048  0.0304  0.4377
  927THF     C913987   4.372   0.173   5.635 -0.3204  0.3518 -0.8869
  927THF    H1013988   4.156   0.111   5.615 -1.2012  1.1840 -1.6920
  927THF    H1113989   4.182   0.253   5.704 -0.5436 -0.4561  0.3340
  927THF    H1213990   4.397   0.176   5.741 -0.9394 -0.2848 -0.7125
  927THF    H1313991   4.392   0.079   5.583  0.9135  0.6362 -0.9369
  928THF     O113992   4.792   2.599   1.361 -0.1944 -0.8922 -0.5062
  928THF     C213993   4.645   2.608   1.373 -0.3444 -0.2477  0.4036
  928THF     C313994   4.837   2.708   1.290 -0.0655  0.1279 -0.3242
  928THF     H413995   4.621   2.599   1.479 -1.3082  3.6246  0.6882
  928THF     H513996   4.601   2.527   1.315 -0.6111 -0.7631  1.2975
  928THF     H613997   4.938   2.742   1.313  0.3257 -0.0338 -1.7087
  928THF     H713998   4.838   2.698   1.182 -2.2248  0.4510 -0.4352
  928THF     C813999   4.743   2.822   1.323  0.8345 -0.1275  0.3427
  928THF     C914000   4.616   2.746   1.322  0.9227 -0.2341  0.1736
  928THF    H1014001   4.748   2.897   1.244 -1.4983 -1.3693 -1.1130
  928THF    H1114002   4.765   2.875   1.415  1.0795  2.8196 -1.2815
  928THF    H1214003   4.545   2.799   1.385  1.1161 -1.4948  1.5105
  928THF    H1314004   4.577   2.739   1.221  1.2256  1.0009 -0.0399
  929THF     O114005   3.923   5.359   3.526  0.0441  0.1411  0.5055
  929THF     C214006   4.035   5.280   3.555  0.5613 -0.5352  0.5873
  929THF     C314007   3.961   5.473   3.452 -0.3246  0.4000  0.5080
  929THF     H414008   4.071   5.218   3.474 -0.2264  0.5566 -0.6370
  929THF     H514009   4.013   5.218   3.642 -1.5337  0.8255  1.1108
  929THF     H614010   3.984   5.458   3.347  1.2995 -0.6477  0.9651
  929THF     H714011   3.887   5.552   3.452  1.0702  1.9771 -3.7416
  929THF     C814012   4.093   5.511   3.522 -0.4379  0.3757  0.5622
  929THF     C914013   4.131   5.387   3.596 -0.9242  0.3748 -0.5902
  929THF    H1014014   4.073   5.587   3.597 -2.2382  2.0370 -1.4728
  929THF    H1114015   4.174   5.552   3.462  1.3092 -1.5857  1.4544
  929THF    H1214016   4.236   5.362   3.582 -0.4957  0.8675  1.4291
  929THF    H1314017   4.126   5.411   3.702 -0.2461 -0.3316 -0.3884
  930THF     O114018   2.008   4.447   2.455  0.2381 -0.1907 -0.0366
  930THF     C214019   2.028   4.533   2.567 -0.4574 -0.0648 -0.5302
  930THF     C314020   2.096   4.499   2.357  0.5440  0.0233 -0.5343
  930THF     H414021   1.998   4.480   2.657  0.5813 -0.1744 -0.2329
  930THF     H514022   1.959   4.618   2.565  0.4569  0.7404  0.8778
  930THF     H614023   2.136   4.416   2.300  0.9057 -0.4874  0.4464
  930THF     H714024   2.039   4.557   2.284  0.5016 -1.6012 -1.8452
  930THF     C814025   2.201   4.591   2.424 -0.2291  0.3711  0.7768
  930THF     C914026   2.174   4.564   2.568  0.3182 -0.2672  0.2779
  930THF    H1014027   2.187   4.690   2.381 -1.1306  0.4626  1.2592
  930THF    H1114028   2.305   4.573   2.398 -0.5238 -0.0517 -0.1585
  930THF    H1214029   2.230   4.481   2.609 -1.0050 -1.2409  0.1796
  930THF    H1314030   2.205   4.655   2.621  1.2029  1.1208 -2.4452
  931THF     O114031   3.563   1.780   2.304  0.5029 -0.0169 -0.0611
  931THF     C214032   3.452   1.765   2.217  0.0857 -0.1346  0.5683
  931THF     C314033   3.605   1.915   2.288  0.3501 -0.1991  0.0866
  931THF     H414034   3.370   1.816   2.268  0.1281 -1.7133  2.2907
  931THF     H514035   3.426   1.661   2.199  0.5227  0.0707 -1.5656
  931THF     H614036   3.536   1.969   2.353 -0.6751 -0.5179 -0.7049
  931THF     H714037   3.702   1.940   2.332 -0.0900 -1.4324  1.8958
  931THF     C814038   3.574   1.950   2.145 -0.1146 -0.4867 -0.4351
  931THF     C914039   3.493   1.833   2.091 -0.0699 -0.2563 -0.0734
  931THF    H1014040   3.665   1.958   2.086 -0.6126 -1.6788 -1.3927
  931THF    H1114041   3.511   2.038   2.134  0.6410  0.0808 -0.3206
  931THF    H1214042   3.410   1.859   2.025  0.6115  2.0876 -0.1000
  931THF    H1314043   3.560   1.766   2.037  1.8408  3.0708 -2.1423
  932THF     O114044   4.377   4.354   4.628  0.0506 -0.7304  0.2474
  932THF     C214045   4.322   4.319   4.497 -0.5438  0.1043 -0.8366
  932THF     C314046   4.435   4.480   4.610  0.6842 -0.0128  0.3130
  932THF     H414047   4.224   4.364   4.480 -0.9268 -0.4879 -0.2564
  932THF     H514048   4.324   4.210   4.490  0.3633  0.0656 -0.0678
  932THF     H614049   4.353   4.553   4.612  0.1805 -0.5823  0.6760
  932THF     H714050   4.499   4.500   4.696  1.3438 -0.8771  0.0342
  932THF     C814051   4.505   4.489   4.476 -0.3362  0.4223 -0.1969
  932THF     C914052   4.430   4.379   4.401  0.5340 -0.4513  0.3457
  932THF    H1014053   4.604   4.456   4.506 -1.2011 -0.5002  1.8481
  932THF    H1114054   4.509   4.592   4.440  2.0086  0.8210  1.0116
  932THF    H1214055   4.382   4.420   4.312  1.9265  0.4220 -0.0183
  932THF    H1314056   4.497   4.303   4.361  2.2444  0.5581  1.1972
  933THF     O114057   2.873   2.711   2.056  0.1263 -0.2238  0.2922
  933THF     C214058   2.795   2.774   1.956 -0.7900 -0.2791  0.2950
  933THF     C314059   2.782   2.677   2.163 -0.4735 -0.2667 -0.1204
  933THF     H414060   2.748   2.686   1.913  0.3611 -0.9199  0.3051
  933THF     H514061   2.851   2.825   1.877 -1.9349  0.8551  0.1808
  933THF     H614062   2.715   2.597   2.132  0.4328 -0.7438 -0.8840
  933THF     H714063   2.851   2.649   2.242  1.7595 -0.1214 -1.8961
  933THF     C814064   2.699   2.807   2.179 -0.1892  0.1214 -0.2470
  933THF     C914065   2.696   2.855   2.034 -0.1196 -0.0754  0.3530
  933THF    H1014066   2.748   2.886   2.235  0.5770 -2.1467  2.5048
  933THF    H1114067   2.600   2.791   2.224 -0.6332 -0.1779 -1.2973
  933THF    H1214068   2.600   2.860   1.983  0.4440  0.4784 -0.6873
  933THF    H1314069   2.726   2.960   2.028 -2.5906  0.6669 -0.5580
  934THF     O114070   2.817   1.085   2.416 -0.2365  0.2388 -0.0852
  934THF     C214071   2.718   1.197   2.408  0.3827 -0.0795  0.0051
  934THF     C314072   2.878   1.053   2.291  0.4674 -0.9753  0.3510
  934THF     H414073   2.790   1.278   2.397 -0.6595  0.8453 -0.0593
  934THF     H514074   2.648   1.193   2.491  1.9428 -0.6507  1.3647
  934THF     H614075   2.952   1.122   2.251 -0.3573  0.1534  0.7251
  934THF     H714076   2.919   0.952   2.292 -0.2078 -1.2623 -0.2504
  934THF     C814077   2.750   1.057   2.207  0.1794  0.8494  0.3273
  934THF     C914078   2.646   1.142   2.283 -0.5720  0.8709  0.0673
  934THF    H1014079   2.715   0.955   2.193  0.4297  0.8220 -0.1121
  934THF    H1114080   2.774   1.084   2.104 -0.3795 -0.6167 -0.2082
  934THF    H1214081   2.608   1.230   2.230 -1.8590  0.9132  1.0303
  934THF    H1314082   2.559   1.085   2.316  1.1712 -1.9736  0.0464
  935THF     O114083   2.974   2.498   0.306 -0.0816  0.8184 -0.1362
  935THF     C214084   3.079   2.599   0.312  0.1465  0.3959  0.5025
  935THF     C314085   2.949   2.461   0.169  0.4210  0.4825  0.7315
  935THF     H414086   3.169   2.540   0.295  0.0893 -0.1736  1.9906
  935THF     H514087   3.092   2.650   0.408 -0.0169 -1.1391  1.3700
  935THF     H614088   3.036   2.399   0.148 -0.0609 -0.5857  1.8332
  935THF     H714089   2.855   2.407   0.157  1.1698 -0.5035 -1.2298
  935THF     C814090   2.972   2.593   0.100 -0.4662  0.0379  0.5521
  935THF     C914091   3.061   2.676   0.188  0.6127 -0.9002  0.0817
  935THF    H1014092   2.873   2.638   0.102 -1.7292 -2.3742 -1.4126
  935THF    H1114093   3.024   2.583   0.004  1.3083 -0.7703  1.5505
  935THF    H1214094   3.154   2.708   0.141 -1.7223  3.0176 -2.5098
  935THF    H1314095   3.010   2.770   0.209  0.2748 -0.9101 -0.6695
  936THF     O114096   3.468   2.313   5.476  0.0407 -0.0770  0.4156
  936THF     C214097   3.408   2.243   5.364  0.3332 -0.2813 -0.3213
  936THF     C314098   3.398   2.438   5.493 -0.1186  0.5023 -0.0879
  936THF     H414099   3.348   2.162   5.405 -1.6654  0.7656 -1.0813
  936THF     H514100   3.486   2.207   5.296  0.7720  1.1380 -0.6035
  936THF     H614101   3.362   2.465   5.592 -0.0372  1.0701 -0.2150
  936THF     H714102   3.469   2.515   5.464  0.5898  0.3566  1.2009
  936THF     C814103   3.280   2.433   5.399  1.0419 -0.2719  0.9006
  936THF     C914104   3.330   2.344   5.288 -0.6297  0.2333 -0.1320
  936THF    H1014105   3.252   2.528   5.354 -0.6846 -0.0360  2.3731
  936THF    H1114106   3.186   2.389   5.433 -0.9750  2.8437 -0.1512
  936THF    H1214107   3.259   2.289   5.226  1.0886 -0.9512 -1.1318
  936THF    H1314108   3.402   2.404   5.233  2.0168  0.5246  3.2774
  937THF     O114109   0.858   5.048   3.847  0.2134  0.1140  0.2293
  937THF     C214110   0.882   4.989   3.721  0.7566  0.2539 -0.3972
  937THF     C314111   0.727   5.020   3.893 -0.5054  0.4240  0.0049
  937THF     H414112   0.977   4.948   3.687  0.5741 -1.2316  0.7449
  937THF     H514113   0.840   5.052   3.643  0.9155  2.0663  0.9145
  937THF     H614114   0.720   4.985   3.996 -1.6178 -2.7278 -1.0384
  937THF     H714115   0.660   5.102   3.865  0.9114  1.5065 -0.3145
  937THF     C814116   0.683   4.892   3.813 -0.2326  0.3443  0.3240
  937THF     C914117   0.811   4.849   3.742  0.2513  0.6797 -0.6891
  937THF    H1014118   0.604   4.915   3.741  0.2059  1.0621  0.0652
  937THF    H1114119   0.633   4.816   3.873 -1.9525  1.0162 -0.1884
  937THF    H1214120   0.873   4.782   3.802 -2.4469 -1.2465  0.1661
  937THF    H1314121   0.792   4.802   3.646  0.1571 -2.0455  0.5590
  938THF     O114122   2.575   3.595   3.578 -0.1140 -0.1600  0.5144
  938THF     C214123   2.560   3.525   3.452 -0.8877 -0.0363  0.0209
  938THF     C314124   2.656   3.518   3.667  0.1054 -0.5620 -0.0286
  938THF     H414125   2.630   3.560   3.376 -1.3231 -0.2276 -0.4702
  938THF     H514126   2.456   3.541   3.423 -2.0235 -1.7245  2.6913
  938THF     H614127   2.762   3.532   3.644  0.4179 -2.3945  0.2023
  938THF     H714128   2.633   3.543   3.770  0.4128  1.8862 -0.4774
  938THF     C814129   2.613   3.377   3.632 -0.1941 -0.2408 -0.2134
  938THF     C914130   2.579   3.373   3.486 -0.1662 -0.0776 -0.3198
  938THF    H1014131   2.514   3.380   3.678 -0.7796 -0.3626 -1.4243
  938THF    H1114132   2.685   3.307   3.675  2.3018  0.5280 -2.8269
  938THF    H1214133   2.671   3.339   3.436  0.3116  0.0285  0.4691
  938THF    H1314134   2.487   3.322   3.458 -1.4427  2.0084 -0.1210
  939THF     O114135   2.034   0.771   4.650 -0.4476  0.0102 -0.5011
  939THF     C214136   2.170   0.793   4.605  0.3523 -0.3429 -0.7516
  939THF     C314137   2.015   0.875   4.753 -1.2722  0.0944 -0.2493
  939THF     H414138   2.176   0.876   4.535 -0.3034 -1.1737 -1.8365
  939THF     H514139   2.201   0.698   4.561 -1.8981 -0.9616 -1.1071
  939THF     H614140   2.021   0.968   4.696 -0.4254  0.0236 -0.2762
  939THF     H714141   1.928   0.867   4.818 -1.4427 -0.3936 -0.5291
  939THF     C814142   2.152   0.865   4.830  0.4264 -0.8325  0.7193
  939THF     C914143   2.250   0.822   4.724  0.0781 -0.1761  0.0628
  939THF    H1014144   2.133   0.783   4.899 -1.9899 -1.8709 -1.0230
  939THF    H1114145   2.178   0.962   4.873  1.1010 -1.0859  0.8933
  939THF    H1214146   2.320   0.899   4.692  1.9107 -2.5935 -2.2041
  939THF    H1314147   2.305   0.741   4.771  1.6540  2.4310  3.1571
  940THF     O114148   4.419   5.234   0.085 -0.0766 -0.7057 -0.4388
  940THF     C214149   4.466   5.141  -0.012 -0.2265 -0.2299 -0.0748
  940THF     C314150   4.304   5.178   0.147  0.3180  0.1279  0.4783
  940THF     H414151   4.512   5.058   0.041  0.7963  0.9991  1.0170
  940THF     H514152   4.539   5.199  -0.069  2.1327 -2.1181  0.8823
  940THF     H614153   4.327   5.090   0.206 -0.7883 -1.7067 -1.6466
  940THF     H714154   4.242   5.251   0.200 -1.8660 -2.6683  2.0308
  940THF     C814155   4.231   5.127   0.023 -0.1122 -0.0586  0.9808
  940THF     C914156   4.335   5.113  -0.088  0.3557 -0.4304 -0.0600
  940THF    H1014157   4.141   5.178  -0.010 -0.9562 -1.4466  1.0586
  940THF    H1114158   4.204   5.025   0.052 -0.3720 -0.0112  0.9014
  940THF    H1214159   4.325   5.020  -0.144  0.5503 -1.1502  1.0609
  940THF    H1314160   4.315   5.188  -0.164  2.0567 -0.6239 -0.7339
  941THF     O114161   4.787   4.925   5.296  0.1841 -0.2030 -0.1008
  941THF     C214162   4.758   5.047   5.225  0.5457  0.1939 -0.6555
  941THF     C314163   4.845   4.969   5.423  0.5726 -0.0618  0.3755
  941THF     H414164   4.665   5.087   5.266  0.2955 -1.3737  0.3782
  941THF     H514165   4.747   5.029   5.118  0.3409  1.7316 -0.9217
  941THF     H614166   4.762   4.990   5.491 -1.1468 -3.0214 -0.5870
  941THF     H714167   4.911   4.894   5.467  0.7934 -0.8011 -1.1387
  941THF     C814168   4.928   5.092   5.396 -0.1589  0.4646  0.5836
  941THF     C914169   4.885   5.126   5.258  0.2797  0.1507  0.8823
  941THF    H1014170   5.036   5.087   5.408 -0.0759  1.2937  0.2623
  941THF    H1114171   4.893   5.171   5.462 -1.6867 -0.6439  1.1514
  941THF    H1214172   4.871   5.234   5.243  0.0290 -0.0226 -0.2134
  941THF    H1314173   4.960   5.101   5.184  0.9989  1.8554  0.9792
  942THF     O114174   3.700   1.998   0.970  0.4327 -0.2423 -0.1713
  942THF     C214175   3.624   1.876   0.980 -0.5721 -0.3608  0.2268
  942THF     C314176   3.628   2.087   0.899  0.3864 -0.6999 -0.2976
  942THF     H414177   3.638   1.810   1.066 -0.3055  0.2376  0.6451
  942THF     H514178   3.632   1.813   0.891 -1.1886  0.9860 -0.8188
  942THF     H614179   3.640   2.192   0.929 -1.2730 -1.0265  1.7523
  942THF     H714180   3.677   2.087   0.802  0.1578 -0.1816 -0.4161
  942THF     C814181   3.479   2.046   0.897 -0.3632  0.2205  0.6232
  942THF     C914182   3.479   1.923   0.984 -0.4309  0.8362  0.1615
  942THF    H1014183   3.450   2.004   0.801 -0.4697  0.3227  0.6108
  942THF    H1114184   3.403   2.117   0.927 -0.4116 -0.8828  3.4336
  942THF    H1214185   3.466   1.954   1.088  2.2678  0.2261  0.7723
  942THF    H1314186   3.415   1.843   0.948 -1.2294  0.3692  2.4688
  943THF     O114187   3.129   2.500   2.919  0.3045 -0.4197  0.2074
  943THF     C214188   3.032   2.508   3.020  0.9184  0.8181  0.3955
  943THF     C314189   3.062   2.469   2.800  0.5362  0.6645 -0.4002
  943THF     H414190   2.984   2.606   3.027 -2.2182 -0.6956  2.1887
  943THF     H514191   3.087   2.499   3.113  1.2144 -0.7948  0.0935
  943THF     H614192   3.031   2.566   2.760 -0.2452  1.4517  1.8924
  943THF     H714193   3.119   2.412   2.728  1.6230 -0.3947  1.2224
  943THF     C814194   2.938   2.384   2.841 -0.1126 -0.3149 -0.5318
  943THF     C914195   2.940   2.391   2.991  0.2235 -0.1752  0.1185
  943THF    H1014196   2.951   2.280   2.810 -1.2340 -1.0321  1.2225
  943THF    H1114197   2.846   2.433   2.811  0.3370  1.6901  1.1016
  943THF    H1214198   2.839   2.406   3.029  0.1930  0.5592 -0.2307
  943THF    H1314199   2.995   2.303   3.026  1.8776  0.3304 -1.0670
  944THF     O114200   2.665   0.173   4.788 -0.8029  0.1635 -0.8133
  944THF     C214201   2.587   0.149   4.672  0.5936  0.3889 -0.0331
  944THF     C314202   2.659   0.059   4.870  0.1693 -0.0563  0.2628
  944THF     H414203   2.602   0.225   4.595  0.6607  1.8331  1.3514
  944THF     H514204   2.484   0.168   4.703 -0.1330 -1.7639 -0.9474
  944THF     H614205   2.758   0.038   4.910  1.0817  3.1718  0.0274
  944THF     H714206   2.584   0.082   4.946  1.0977 -0.0809  1.2160
  944THF     C814207   2.620  -0.055   4.779 -0.2460  0.4374 -0.8119
  944THF     C914208   2.607   0.001   4.639  0.4747 -0.4732 -0.2172
  944THF    H1014209   2.536  -0.111   4.822  1.0655 -0.3003  0.8904
  944THF    H1114210   2.707  -0.121   4.773 -0.0506  0.3608  1.8034
  944THF    H1214211   2.702  -0.007   4.587  0.3265 -1.3653 -0.3737
  944THF    H1314212   2.525  -0.037   4.578 -1.5234  2.2729  0.5494
  945THF     O114213   3.113   3.318   0.276  0.2736  0.4961  0.4175
  945THF     C214214   3.100   3.181   0.283 -0.3182  0.4127  0.9273
  945THF     C314215   2.984   3.373   0.273  0.3949  0.3448 -0.7707
  945THF     H414216   3.175   3.129   0.343 -0.4736 -0.6885  0.2088
  945THF     H514217   3.124   3.135   0.187 -2.3806 -1.3886  1.1966
  945THF     H614218   2.981   3.473   0.316  0.1599 -0.5962  1.5597
  945THF     H714219   2.940   3.376   0.173 -0.3482  2.3670 -0.4283
  945THF     C814220   2.903   3.284   0.358  0.3072  0.7397  0.4725
  945THF     C914221   2.959   3.148   0.320 -0.3840  0.2846  0.7381
  945THF    H1014222   2.797   3.284   0.331  0.4200  0.5536  0.0154
  945THF    H1114223   2.928   3.299   0.463  2.8950  3.1184 -0.3609
  945THF    H1214224   2.944   3.080   0.404  0.7610  0.6224  1.2348
  945THF    H1314225   2.909   3.094   0.240  1.3965 -2.1119  1.1303
  946THF     O114226   4.024   4.503   1.676 -0.4616 -0.1415  0.1224
  946THF     C214227   4.063   4.633   1.630  0.4782  0.1348 -1.1488
  946THF     C314228   4.090   4.477   1.799 -0.1963 -0.0980 -0.3223
  946THF     H414229   3.974   4.668   1.578 -1.1981 -0.8400  0.9256
  946THF     H514230   4.139   4.633   1.552  0.5665  1.3908 -1.0933
  946THF     H614231   4.010   4.474   1.873 -1.3208 -0.1356 -1.5123
  946THF     H714232   4.143   4.382   1.788  0.0813  0.2673 -2.7533
  946THF     C814233   4.175   4.600   1.832 -0.2795 -0.4519  0.9897
  946THF     C914234   4.115   4.713   1.754 -1.2831 -0.4617 -0.2096
  946THF    H1014235   4.279   4.588   1.802 -0.2026 -0.1013  1.1110
  946THF    H1114236   4.175   4.622   1.939  0.2416  0.9337  0.7196
  946THF    H1214237   4.021   4.753   1.793 -0.6141 -1.2944  2.4014
  946THF    H1314238   4.189   4.788   1.726 -1.2069 -0.3721  0.2388
  947THF     O114239   0.770   3.195   0.717 -0.9680  0.0183 -0.2954
  947THF     C214240   0.664   3.135   0.783 -0.0020  0.0000 -0.0879
  947THF     C314241   0.868   3.241   0.803  0.4174 -0.2703 -0.2284
  947THF     H414242   0.697   3.032   0.799  1.0184  0.3623  0.1811
  947THF     H514243   0.573   3.138   0.723 -1.4661 -1.8492  1.8719
  947THF     H614244   0.958   3.180   0.810 -0.0566 -0.8292  1.7797
  947THF     H714245   0.897   3.344   0.782 -0.8697  0.3371  0.8019
  947THF     C814246   0.809   3.229   0.945 -0.0407 -0.2470 -0.0459
  947THF     C914247   0.658   3.206   0.922  0.0386  0.1318 -0.1369
  947THF    H1014248   0.827   3.319   1.004 -3.1790  1.7195 -1.7765
  947THF    H1114249   0.848   3.154   1.013  0.1013 -0.6287 -0.5480
  947THF    H1214250   0.622   3.141   1.002  0.2532  0.6110  0.3580
  947THF    H1314251   0.603   3.300   0.919  3.1427  2.0566 -1.3182
  948THF     O114252   2.778   4.804   1.404 -0.1644  0.4075  0.3132
  948THF     C214253   2.872   4.830   1.515 -0.0634 -0.4221  1.3283
  948THF     C314254   2.745   4.923   1.331  0.0410 -0.2933  0.1206
  948THF     H414255   2.976   4.807   1.492 -0.3759 -0.0546 -0.6347
  948THF     H514256   2.836   4.784   1.607 -2.5072 -0.2971  0.4972
  948THF     H614257   2.755   4.926   1.222  0.8204  0.1365  0.2045
  948THF     H714258   2.637   4.939   1.342 -0.1658 -1.1673 -0.4985
  948THF     C814259   2.834   5.030   1.393  0.5327 -0.5214 -0.2091
  948THF     C914260   2.855   4.979   1.535  0.3330  0.5303 -0.9063
  948THF    H1014261   2.795   5.131   1.405  0.3468 -0.7386  1.0314
  948THF    H1114262   2.931   5.030   1.343  1.6761  1.4670  1.8415
  948THF    H1214263   2.935   5.029   1.590 -0.3657  0.1901  0.4544
  948THF    H1314264   2.764   5.001   1.592  0.6211 -0.8043  0.1135
  949THF     O114265   3.351   5.257   3.601 -0.2243 -0.0739 -0.5384
  949THF     C214266   3.381   5.375   3.524  0.9314 -0.1521 -0.0237
  949THF     C314267   3.389   5.279   3.738  0.2725  0.2916 -0.3563
  949THF     H414268   3.306   5.454   3.531  0.2821 -0.8220  0.7549
  949THF     H514269   3.384   5.364   3.416  0.5291 -0.0091 -0.0497
  949THF     H614270   3.321   5.350   3.785  0.7302  0.3152  0.2788
  949THF     H714271   3.397   5.182   3.787 -0.1051  0.2198 -0.4290
  949THF     C814272   3.520   5.344   3.718 -0.3851 -0.4094  0.1316
  949THF     C914273   3.504   5.432   3.593  0.1668 -1.1197  0.3172
  949THF    H1014274   3.597   5.270   3.696 -3.4860 -3.5019 -1.3613
  949THF    H1114275   3.554   5.403   3.803 -2.8646 -0.3833  1.1962
  949THF    H1214276   3.479   5.536   3.613  3.3834 -0.1443 -0.1228
  949THF    H1314277   3.596   5.432   3.534  1.3362 -0.2852  2.0521
  950THF     O114278   2.960   1.441   0.237 -0.1639  0.4642  0.1356
  950THF     C214279   2.947   1.572   0.195 -0.4475 -0.2182  0.0061
  950THF     C314280   2.845   1.401   0.310  0.4453  0.0471 -0.3189
  950THF     H414281   3.015   1.579   0.109 -2.7371  0.5559 -1.8382
  950THF     H514282   2.980   1.643   0.271 -0.3661  1.7315 -1.7568
  950THF     H614283   2.817   1.300   0.280 -1.0610 -0.1305  1.5042
  950THF     H714284   2.868   1.402   0.416 -0.1943 -0.2633 -0.1723
  950THF     C814285   2.733   1.492   0.261  0.1356  0.4892 -0.2886
  950THF     C914286   2.806   1.576   0.153  0.4234 -0.2890 -0.3231
  950THF    H1014287   2.694   1.557   0.340 -1.4922  1.1811 -1.5953
  950THF    H1114288   2.651   1.435   0.218  2.2151 -0.8443 -2.7309
  950THF    H1214289   2.789   1.536   0.054 -0.5717  0.5499 -0.5104
  950THF    H1314290   2.769   1.678   0.156  1.9615  0.2897  0.8834
  951THF     O114291   2.150   3.731   3.774 -0.3093  0.0958 -0.5465
  951THF     C214292   2.239   3.678   3.676  0.0756 -0.1218  0.2437
  951THF     C314293   2.050   3.629   3.771 -0.5855 -0.0162 -0.0244
  951THF     H414294   2.332   3.734   3.664  1.2350 -1.7383  1.2257
  951THF     H514295   2.185   3.670   3.582  0.2558 -2.9234  0.2916
  951THF     H614296   1.974   3.644   3.847  0.2437 -0.3305  0.8815
  951THF     H714297   1.997   3.628   3.676 -3.4026  1.1773  1.4175
  951THF     C814298   2.120   3.497   3.780  0.4651  0.7993 -0.1489
  951THF     C914299   2.246   3.525   3.706 -0.7326 -0.3339 -0.7589
  951THF    H1014300   2.064   3.415   3.735  0.4070 -0.6104  2.3039
  951THF    H1114301   2.145   3.470   3.882  0.5942 -2.0480 -0.8520
  951THF    H1214302   2.330   3.510   3.774 -1.3112  1.0639  0.3414
  951THF    H1314303   2.262   3.468   3.615  4.3992  0.4540 -0.6191
  952THF     O114304   0.381   5.181   2.163  0.0005  0.2291 -0.9986
  952THF     C214305   0.348   5.179   2.032 -0.5405  0.4089 -0.0107
  952THF     C314306   0.496   5.098   2.190  0.1336  0.2727  0.0877
  952THF     H414307   0.297   5.274   2.019 -0.6847  0.3309 -0.0169
  952THF     H514308   0.291   5.092   1.999  0.1631 -0.8752  1.9717
  952THF     H614309   0.567   5.147   2.256 -0.5115  1.2924  0.0472
  952THF     H714310   0.464   5.002   2.230  1.4387 -0.5912 -0.8691
  952THF     C814311   0.563   5.076   2.047  0.1653  0.5332 -0.6568
  952THF     C914312   0.485   5.168   1.958  0.3132  0.2697 -0.0451
  952THF    H1014313   0.532   4.977   2.015  1.4768  0.5151 -1.9707
  952THF    H1114314   0.670   5.099   2.037  0.2295 -0.0593 -1.4129
  952THF    H1214315   0.529   5.267   1.961 -0.5463  0.8347 -2.9201
  952THF    H1314316   0.493   5.132   1.856  0.7009  1.8153 -0.5878
  953THF     O114317   3.524   2.651   5.039  0.3925  0.1159 -0.1189
  953THF     C214318   3.388   2.624   5.042  1.0576  0.8482 -0.2256
  953THF     C314319   3.577   2.609   4.917  0.3871  0.5970 -0.3264
  953THF     H414320   3.326   2.660   5.124  2.0624 -1.5206  1.6996
  953THF     H514321   3.381   2.515   5.043 -1.2642  0.9457 -0.0288
  953THF     H614322   3.674   2.655   4.900  0.6603  0.7069  1.3317
  953THF     H714323   3.591   2.502   4.934 -0.9606  0.3483 -0.5988
  953THF     C814324   3.476   2.658   4.817  0.2859 -0.2844  0.4673
  953THF     C914325   3.346   2.666   4.896  0.1673  0.1689 -0.5881
  953THF    H1014326   3.471   2.597   4.727 -1.5536  1.0088 -0.3704
  953THF    H1114327   3.504   2.760   4.789  0.0820 -0.3134  0.1559
  953THF    H1214328   3.291   2.760   4.895 -0.4482 -0.1890 -1.6212
  953THF    H1314329   3.278   2.603   4.838  0.2902  0.5597 -1.1687
  954THF     O114330   4.095   2.794   2.622  0.2996 -0.4706 -0.4528
  954THF     C214331   4.217   2.769   2.563 -0.6106  0.4522  0.3737
  954THF     C314332   4.082   2.931   2.665 -0.4522  0.2598 -0.1124
  954THF     H414333   4.209   2.744   2.457 -1.4815  0.8035  0.3460
  954THF     H514334   4.254   2.679   2.611  0.6134 -0.7827 -2.6298
  954THF     H614335   3.982   2.972   2.646 -1.4217 -0.4016  2.9856
  954THF     H714336   4.105   2.918   2.770 -1.7597 -0.9306  0.0541
  954THF     C814337   4.193   3.008   2.596 -0.1824  0.4980  0.3170
  954THF     C914338   4.299   2.893   2.588  0.4078  0.0729 -0.1612
  954THF    H1014339   4.234   3.090   2.656  1.8746  1.1327 -1.8183
  954THF    H1114340   4.165   3.036   2.495  1.6937  0.4651 -0.2523
  954THF    H1214341   4.372   2.917   2.511 -0.8266 -1.0961 -1.7740
  954THF    H1314342   4.347   2.872   2.684  0.7981  0.2682 -0.3146
  955THF     O114343   4.897   1.038   3.782  1.0711 -0.3545 -0.6679
  955THF     C214344   4.807   1.109   3.704 -0.4296 -0.0222 -0.0129
  955THF     C314345   4.902   1.097   3.917  0.1059  0.4056 -0.7560
  955THF     H414346   4.769   1.038   3.631 -1.2397 -1.3630  1.6402
  955THF     H514347   4.854   1.199   3.663  0.3952 -0.5841 -0.3351
  955THF     H614348   4.890   1.012   3.984 -1.0600  0.6842 -0.5973
  955THF     H714349   5.001   1.138   3.939  0.4083 -1.5402  2.1333
  955THF     C814350   4.782   1.189   3.933 -0.1265  0.1651  0.3722
  955THF     C914351   4.702   1.151   3.803 -1.1434 -0.4213 -0.0249
  955THF    H1014352   4.810   1.294   3.922 -2.3196  0.7616  0.0770
  955THF    H1114353   4.723   1.178   4.024 -2.2757  2.8610 -0.5637
  955THF    H1214354   4.645   1.061   3.822 -1.3656 -0.3802 -0.4756
  955THF    H1314355   4.641   1.235   3.769 -0.1940 -0.6402 -2.5338
  956THF     O114356   3.232   5.276   0.515 -0.0113  0.2537  0.0824
  956THF     C214357   3.339   5.371   0.504 -0.0162  0.2083  0.9801
  956THF     C314358   3.246   5.211   0.643 -0.4637 -0.5319  0.2958
  956THF     H414359   3.314   5.450   0.434 -2.2551 -0.3461  1.0988
  956THF     H514360   3.432   5.324   0.471  0.1826  0.0528  1.7322
  956THF     H614361   3.153   5.158   0.664 -0.2208 -1.9272 -1.8939
  956THF     H714362   3.328   5.141   0.637  0.3543  0.4273 -0.0844
  956THF     C814363   3.265   5.333   0.730 -0.0442 -0.2909 -0.2858
  956THF     C914364   3.353   5.426   0.650 -0.4229  0.1952  0.7517
  956THF    H1014365   3.286   5.298   0.831 -2.6222 -3.1510 -0.5809
  956THF    H1114366   3.176   5.394   0.743  0.2016  0.0075  0.0047
  956THF    H1214367   3.326   5.530   0.670 -0.9164 -0.1571  2.0923
  956THF    H1314368   3.453   5.396   0.682 -0.8191 -3.8264 -1.1752
  957THF     O114369   1.999   3.464   2.634 -0.1364  0.0939 -0.3160
  957THF     C214370   1.856   3.474   2.653 -0.5722 -0.5562 -0.0966
  957THF     C314371   2.068   3.491   2.759 -0.7706  0.6589 -0.1699
  957THF     H414372   1.807   3.380   2.627 -0.2266 -0.4855 -1.0559
  957THF     H514373   1.807   3.550   2.593 -0.5171 -1.3604 -1.1831
  957THF     H614374   2.140   3.412   2.779 -2.2784 -0.6980  0.1287
  957THF     H714375   2.123   3.585   2.760 -1.4168  1.0642  2.4380
  957THF     C814376   1.964   3.481   2.866 -0.3097 -0.7769 -0.0519
  957THF     C914377   1.833   3.523   2.799  0.2291  0.0719 -0.0912
  957THF    H1014378   1.993   3.538   2.954 -0.6938 -0.0152 -0.4143
  957THF    H1114379   1.950   3.375   2.887  0.9015 -0.6532  1.5988
  957THF    H1214380   1.738   3.487   2.838  0.1445 -0.4378 -0.7531
  957THF    H1314381   1.820   3.631   2.812 -1.4256 -0.2925  1.7913
  958THF     O114382   1.840   1.499   2.658 -0.0948 -0.2977  0.5738
  958THF     C214383   1.897   1.601   2.740  0.1750  0.2888 -0.0746
  958THF     C314384   1.914   1.500   2.531  0.4182  0.6314  0.5081
  958THF     H414385   1.902   1.572   2.845  0.1114  0.5718  0.0081
  958THF     H514386   1.846   1.697   2.735 -0.8326 -0.2203  0.0752
  958THF     H614387   1.901   1.405   2.479 -0.2333  0.6294  0.6633
  958THF     H714388   1.884   1.580   2.463  1.7929 -1.5239 -2.8822
  958THF     C814389   2.056   1.520   2.571  0.3543 -0.5310 -0.7317
  958THF     C914390   2.038   1.612   2.687 -0.0529 -0.5818  0.1108
  958THF    H1014391   2.116   1.564   2.492  0.2725 -0.3284 -0.6841
  958THF    H1114392   2.109   1.435   2.613 -0.2961 -0.0772  1.1323
  958THF    H1214393   2.117   1.582   2.756 -0.0280  1.0047  0.8164
  958THF    H1314394   2.059   1.716   2.664 -0.8420 -0.6015 -0.7374
  959THF     O114395   3.822   4.677   0.387 -0.0023 -0.2397 -0.6046
  959THF     C214396   3.900   4.555   0.367 -0.3466 -0.3979 -0.8404
  959THF     C314397   3.780   4.724   0.254  0.4911 -0.3510 -0.3617
  959THF     H414398   3.828   4.479   0.337 -0.4374  0.1933 -2.1829
  959THF     H514399   3.952   4.533   0.460 -0.2194  1.7211 -0.3673
  959THF     H614400   3.705   4.653   0.217 -2.5865  2.7745 -0.6419
  959THF     H714401   3.746   4.827   0.253 -4.1522 -1.6136  1.2680
  959THF     C814402   3.911   4.708   0.175  0.1937  0.4816 -0.0709
  959THF     C914403   3.998   4.605   0.251  0.4352  0.6918 -0.1298
  959THF    H1014404   3.969   4.799   0.156  0.5696  0.1307 -0.6021
  959THF    H1114405   3.888   4.662   0.079 -0.7092 -0.2363  0.4715
  959THF    H1214406   4.030   4.524   0.184 -1.6658  0.4943 -0.9600
  959THF    H1314407   4.080   4.656   0.302 -0.7988  0.1943  2.5120
  960THF     O114408   2.524   5.115   1.642  0.2944 -0.2273 -0.1680
  960THF     C214409   2.450   5.096   1.762  0.5768  0.5331  0.1982
  960THF     C314410   2.587   5.246   1.659 -0.4824 -0.2849 -0.2011
  960THF     H414411   2.407   4.996   1.772 -0.4239  0.9689  0.4513
  960THF     H514412   2.371   5.171   1.773  0.1307  0.1817 -0.5303
  960THF     H614413   2.675   5.256   1.597  0.5097 -0.7244  1.0807
  960THF     H714414   2.534   5.334   1.623  1.2405  1.0733  0.4166
  960THF     C814415   2.619   5.244   1.811  0.0402 -0.1866 -0.4901
  960THF     C914416   2.555   5.117   1.868 -0.6112  0.1486  0.0632
  960THF    H1014417   2.598   5.332   1.872  0.5013  0.4547 -1.2309
  960THF    H1114418   2.727   5.241   1.826 -0.0340  1.3898  0.7038
  960THF    H1214419   2.628   5.041   1.894  0.5211  1.6127  1.3596
  960THF    H1314420   2.506   5.139   1.963  0.7067  1.1444  0.5444
  961THF     O114421   3.778   5.086   4.805 -0.4629  0.1831  0.3944
  961THF     C214422   3.666   5.045   4.729  0.0573 -0.3119 -0.1944
  961THF     C314423   3.880   5.126   4.711  0.4261 -0.7999  0.2791
  961THF     H414424   3.611   5.138   4.730  0.7924  0.1416  1.4249
  961THF     H514425   3.614   4.958   4.771 -1.0701 -0.8657 -2.5496
  961THF     H614426   3.864   5.226   4.670 -3.1717 -1.1946  0.3584
  961THF     H714427   3.974   5.115   4.765 -0.0473 -1.6715  0.9496
  961THF     C814428   3.868   5.034   4.593  0.3632  0.2352 -0.1364
  961THF     C914429   3.719   5.000   4.594 -0.2400 -0.0858  0.7973
  961THF    H1014430   3.922   4.944   4.622 -2.1497 -1.7768 -1.3252
  961THF    H1114431   3.904   5.063   4.494  2.0903 -0.5352  0.2416
  961THF    H1214432   3.671   5.046   4.508 -1.7786  1.9305  2.6360
  961THF    H1314433   3.709   4.893   4.572  2.8375 -0.6869  1.7659
  962THF     O114434   1.479   0.188   5.271 -0.7252  0.1372 -0.2759
  962THF     C214435   1.456   0.325   5.303 -1.0485 -0.2158 -0.0951
  962THF     C314436   1.606   0.150   5.317 -0.4435 -0.4654  0.7850
  962THF     H414437   1.351   0.351   5.314 -1.7311 -0.0965 -4.8559
  962THF     H514438   1.503   0.393   5.232 -0.2739  0.6911  1.2605
  962THF     H614439   1.624   0.043   5.307 -2.0017 -1.3203  5.0936
  962THF     H714440   1.685   0.191   5.254 -1.7660  0.4014 -0.3396
  962THF     C814441   1.608   0.214   5.455  0.4511  0.4898  0.5649
  962THF     C914442   1.542   0.346   5.430 -0.2740  0.2114 -0.7255
  962THF    H1014443   1.709   0.235   5.491  0.6755  0.3573  0.0237
  962THF    H1114444   1.569   0.147   5.533 -0.9373  0.0004 -0.5028
  962THF    H1214445   1.483   0.378   5.516  0.5149 -1.8380  0.6505
  962THF    H1314446   1.608   0.432   5.420  0.0693  0.0934  0.3898
  963THF     O114447   4.388   4.866   2.299 -0.4171 -0.2610  0.2473
  963THF     C214448   4.296   4.772   2.244  0.1267 -0.0001 -0.1016
  963THF     C314449   4.500   4.783   2.334  1.2653 -0.4229  0.8332
  963THF     H414450   4.209   4.823   2.203  0.5048  0.9494  0.2570
  963THF     H514451   4.247   4.700   2.311 -1.3379 -2.3064 -3.3917
  963THF     H614452   4.587   4.850   2.333  2.0493 -1.4128 -0.3743
  963THF     H714453   4.488   4.745   2.435  0.7780  0.9783  1.3255
  963THF     C814454   4.518   4.671   2.227  0.3669 -0.3032 -0.8733
  963THF     C914455   4.385   4.691   2.152  0.3785 -0.6238  0.6738
  963THF    H1014456   4.520   4.568   2.264  0.9537 -0.8430 -2.3456
  963THF    H1114457   4.590   4.694   2.150 -0.6805  0.5924 -1.6208
  963THF    H1214458   4.394   4.748   2.059  2.4362  1.2890  1.9481
  963THF    H1314459   4.351   4.593   2.118 -2.3241 -0.4307  2.4796
  964THF     O114460   0.484   0.876   2.902  0.4210 -0.1769  0.0610
  964THF     C214461   0.608   0.816   2.857 -0.2120  0.0249  0.1765
  964THF     C314462   0.507   1.011   2.949 -0.1749 -0.1668 -0.0892
  964THF     H414463   0.591   0.756   2.768  0.3438 -1.3365  0.9569
  964THF     H514464   0.627   0.738   2.931  0.9234  0.4844  0.3860
  964THF     H614465   0.471   1.090   2.883  0.4883 -0.8761 -1.3371
  964THF     H714466   0.466   1.024   3.050 -2.1058  0.3646 -0.9012
  964THF     C814467   0.653   1.013   2.960  0.4349  0.3647  0.0565
  964THF     C914468   0.711   0.925   2.852 -0.7045  0.3577 -0.1424
  964THF    H1014469   0.683   0.977   3.058 -2.1129 -0.4228  0.6217
  964THF    H1114470   0.699   1.111   2.947  0.2880  0.4643  0.2897
  964THF    H1214471   0.719   0.972   2.754  0.5361  0.9110  0.2085
  964THF    H1314472   0.810   0.885   2.874  0.5008  1.9943 -2.2373
  965THF     O114473   4.639   1.864   0.308  0.5713  0.1726 -0.3553
  965THF     C214474   4.763   1.903   0.240  1.1091 -0.2719 -0.0337
  965THF     C314475   4.571   1.774   0.213  0.1251  0.4740 -0.2756
  965THF     H414476   4.836   1.825   0.264 -0.5620 -2.2927 -1.2421
  965THF     H514477   4.781   1.999   0.289  1.3991 -0.0840 -0.4944
  965THF     H614478   4.614   1.675   0.206 -2.0991 -0.7070  1.4367
  965THF     H714479   4.463   1.769   0.227  0.0117  0.8910 -0.9277
  965THF     C814480   4.592   1.853   0.086 -0.8835  0.5128 -0.4471
  965THF     C914481   4.726   1.917   0.091  0.5234 -0.8334  0.1945
  965THF    H1014482   4.519   1.933   0.077 -0.0342  1.5531  1.3736
  965THF    H1114483   4.597   1.787  -0.001 -0.4357  1.0969 -0.8677
  965THF    H1214484   4.803   1.887   0.019  1.4224 -0.2585  0.8890
  965THF    H1314485   4.705   2.022   0.067  0.0933 -0.5068  1.8784
  966THF     O114486   0.649   0.919   0.918 -0.1851  0.3485 -0.3764
  966THF     C214487   0.703   0.787   0.910 -0.2121 -0.2440 -0.4566
  966THF     C314488   0.755   1.012   0.913  0.4456  0.1443  0.2274
  966THF     H414489   0.634   0.710   0.876  0.8904 -0.6697 -1.8294
  966THF     H514490   0.744   0.765   1.009  1.0613 -0.2046 -0.9517
  966THF     H614491   0.723   1.114   0.893 -2.1866 -0.5877  0.2589
  966THF     H714492   0.802   1.032   1.009  0.5486  0.8628  0.0349
  966THF     C814493   0.849   0.954   0.814 -0.2791  1.1943  0.9786
  966THF     C914494   0.809   0.805   0.805 -0.3937 -0.0926 -0.1164
  966THF    H1014495   0.946   0.968   0.861  0.1229  1.5428  0.0773
  966THF    H1114496   0.834   1.005   0.719 -0.9571 -0.3597  0.2063
  966THF    H1214497   0.757   0.786   0.710  0.1381  0.6303 -0.5613
  966THF    H1314498   0.889   0.733   0.821  0.9199  1.5920  1.3505
  967THF     O114499   2.713   3.388   1.721 -0.5349 -0.3589 -0.9464
  967THF     C214500   2.629   3.295   1.797 -0.2392 -0.8795  0.5352
  967THF     C314501   2.830   3.320   1.693 -0.4645  0.1519  0.0163
  967THF     H414502   2.565   3.251   1.721 -1.2428 -0.1748  0.9610
  967THF     H514503   2.571   3.362   1.859  2.8128 -0.5772  3.3780
  967THF     H614504   2.822   3.266   1.599  2.1006 -1.3274  0.5690
  967THF     H714505   2.913   3.390   1.692  0.9154 -1.3526  1.6239
  967THF     C814506   2.849   3.209   1.801  0.7592 -0.5219 -0.1353
  967THF     C914507   2.718   3.208   1.877 -0.5044  0.1291  0.6074
  967THF    H1014508   2.934   3.220   1.868  0.3323  3.1559 -0.0244
  967THF    H1114509   2.859   3.106   1.766  2.1943 -0.2848 -0.5113
  967THF    H1214510   2.671   3.111   1.863  2.7834 -1.2401 -2.4647
  967THF    H1314511   2.714   3.233   1.983 -2.8355 -0.9317  0.8337
  968THF     O114512   5.273   1.511   2.739  0.0597  0.6056 -0.4186
  968THF     C214513   5.251   1.435   2.857 -0.3105 -0.3814  0.0664
  968THF     C314514   5.393   1.582   2.747 -0.3409 -0.5397 -0.0492
  968THF     H414515   5.264   1.330   2.831 -1.7233 -0.2632 -1.2322
  968THF     H514516   5.152   1.454   2.899 -0.1296 -0.3598  0.4861
  968THF     H614517   5.452   1.590   2.656  1.3973  2.2320  1.1901
  968THF     H714518   5.374   1.688   2.767 -1.3392 -0.4630 -1.2052
  968THF     C814519   5.467   1.524   2.865 -0.4678 -0.2288 -0.1124
  968THF     C914520   5.352   1.483   2.956  1.0741 -0.5271 -1.0599
  968THF    H1014521   5.530   1.605   2.904  1.6414 -0.7908 -2.1626
  968THF    H1114522   5.539   1.443   2.857  1.1542  1.1829 -0.5143
  968THF    H1214523   5.373   1.404   3.028 -1.5977 -1.0063 -0.7017
  968THF    H1314524   5.322   1.567   3.019  0.4068 -1.8700  0.4709
  969THF     O114525   4.440   3.810   1.860 -1.1002  0.2252  0.3431
  969THF     C214526   4.312   3.769   1.913  0.1383  0.8327  0.1876
  969THF     C314527   4.418   3.856   1.729 -0.2587  0.1086 -0.0269
  969THF     H414528   4.256   3.858   1.941  0.4912  1.7091 -1.7703
  969THF     H514529   4.325   3.701   1.998 -0.5529  0.6950  0.1895
  969THF     H614530   4.393   3.962   1.724  1.4996  0.5330 -0.3783
  969THF     H714531   4.512   3.861   1.675  1.2156  2.3579  2.5312
  969THF     C814532   4.313   3.759   1.670  0.9867 -0.0627 -0.3166
  969THF     C914533   4.250   3.695   1.789 -0.7238  0.3334 -0.0523
  969THF    H1014534   4.369   3.689   1.608  0.3066 -0.9579  0.0503
  969THF    H1114535   4.238   3.814   1.614 -1.8675 -2.4679  0.8566
  969THF    H1214536   4.142   3.684   1.780 -0.9237 -0.2897  2.3841
  969THF    H1314537   4.293   3.596   1.804 -0.8806  0.3431  0.4940
  970THF     O114538   5.198   5.194   5.103 -0.2935  0.0955 -0.7688
  970THF     C214539   5.194   5.189   4.962 -0.1793  0.6403 -0.1262
  970THF     C314540   5.329   5.143   5.141  0.2839 -0.1504  0.2637
  970THF     H414541   5.240   5.278   4.920 -0.3054  0.7809  0.0367
  970THF     H514542   5.087   5.187   4.941 -0.3206 -1.6576  0.4594
  970THF     H614543   5.408   5.212   5.111 -0.3950 -0.1878 -1.7124
  970THF     H714544   5.340   5.120   5.247 -1.7672  0.5607  0.6803
  970THF     C814545   5.344   5.016   5.058  0.0845  0.4547  0.3074
  970THF     C914546   5.282   5.064   4.925 -0.3160  0.2191 -0.2193
  970THF    H1014547   5.287   4.936   5.106  1.9047  0.0627  1.9874
  970THF    H1114548   5.447   4.982   5.043  1.0529  1.6470  3.4567
  970THF    H1214549   5.360   5.089   4.853 -1.3574  1.0375 -1.0902
  970THF    H1314550   5.227   4.989   4.869  0.6079 -2.7490  2.5333
  971PF6-    P114551   3.515   4.631   4.247 -0.1119 -0.2082  0.0161
  971PF6-    F214552   3.560   4.495   4.319 -0.0605 -0.3180 -0.0788
  971PF6-    F314553   3.474   4.763   4.177 -0.1173 -0.1261  0.1756
  971PF6-    F414554   3.405   4.559   4.158  0.7022  0.0823 -0.1167
  971PF6-    F514555   3.635   4.706   4.330 -0.2865 -0.7173 -0.0558
  971PF6-    F614556   3.618   4.598   4.130 -0.5947 -0.1872  0.5451
  971PF6-    F714557   3.411   4.655   4.371  0.0506 -0.4271  0.4674
  972PF6-    P114558   3.495   4.206   4.612  0.0595 -0.1403  0.1780
  972PF6-    F214559   3.594   4.265   4.503  0.2619  0.3447 -0.4386
  972PF6-    F314560   3.393   4.137   4.711 -0.1376  0.4157 -0.5730
  972PF6-    F414561   3.367   4.277   4.539  0.0602 -0.6470 -0.9846
  972PF6-    F514562   3.614   4.138   4.693 -0.4114  0.6295 -0.2319
  972PF6-    F614563   3.505   4.334   4.708  0.3001 -0.6455 -0.1334
  972PF6-    F714564   3.479   4.082   4.523  0.3587  0.0248  0.3584
  973PF6-    P114565   4.879   4.434   3.407 -0.3122 -0.2153 -0.0064
  973PF6-    F214566   5.022   4.406   3.476  0.0829  0.1538 -0.0233
  973PF6-    F314567   4.737   4.451   3.341  0.2748 -0.6073 -0.2023
  973PF6-    F414568   4.814   4.395   3.546  0.4632  0.0828 -0.0286
  973PF6-    F514569   4.949   4.478   3.277 -0.1301  0.1528  0.1390
  973PF6-    F614570   4.883   4.281   3.359 -0.0448 -0.1396 -0.4418
  973PF6-    F714571   4.886   4.588   3.461 -0.0785  0.2908  0.1237
  974PF6-    P114572   2.165   1.310   4.670 -0.0047 -0.3476 -0.4496
  974PF6-    F214573   2.178   1.263   4.828 -0.1762 -0.1666  0.1100
  974PF6-    F314574   2.161   1.367   4.514 -0.2234  0.3098 -0.8879
  974PF6-    F414575   2.145   1.458   4.730 -0.2196  0.4449 -0.2057
  974PF6-    F514576   2.175   1.159   4.616  0.0346 -0.6235 -0.8249
  974PF6-    F614577   2.002   1.291   4.675 -0.1012 -0.0911 -0.0434
  974PF6-    F714578   2.322   1.321   4.666  0.2783 -0.5494 -0.2520
  975PF6-    P114579   1.189   0.762   1.060  0.1242 -0.0327  0.2698
  975PF6-    F214580   1.030   0.783   1.057  0.2789  0.3189 -0.7706
  975PF6-    F314581   1.349   0.747   1.074  0.5726  0.1250 -0.0814
  975PF6-    F414582   1.216   0.913   1.012 -0.2348 -0.2207 -0.4839
  975PF6-    F514583   1.172   0.608   1.109  0.7346  0.7054  0.3690
  975PF6-    F614584   1.189   0.709   0.903  0.1364 -0.1377  0.2766
  975PF6-    F714585   1.188   0.802   1.213 -0.0616  1.3165 -0.3586
  976PF6-    P114586   0.391   2.747   0.711 -0.1212  0.0582 -0.2146
  976PF6-    F214587   0.474   2.800   0.590 -0.1340 -0.4289  0.4293
  976PF6-    F314588   0.321   2.683   0.841 -0.2611 -0.0268 -0.0639
  976PF6-    F414589   0.291   2.873   0.705  0.6323  0.4879  0.3237
  976PF6-    F514590   0.489   2.618   0.713  0.4036  0.0455 -0.4711
  976PF6-    F614591   0.486   2.830   0.808 -0.4440  0.4067 -0.1338
  976PF6-    F714592   0.296   2.665   0.615 -0.1884  0.5443 -0.1732
  977PF6-    P114593   0.597   2.634   2.609 -0.2441 -0.0152  0.4580
  977PF6-    F214594   0.615   2.478   2.647  0.3609 -0.2834 -0.4184
  977PF6-    F314595   0.578   2.795   2.575 -0.4681 -0.4125 -0.1908
  977PF6-    F414596   0.563   2.596   2.458  0.3103  0.5363  0.0640
  977PF6-    F514597   0.635   2.670   2.760 -0.1942  0.0324 -0.4769
  977PF6-    F614598   0.754   2.645   2.569 -0.3339 -0.3466 -0.0572
  977PF6-    F714599   0.445   2.618   2.649 -0.4385 -0.4762  0.0872
  978PF6-    P114600   2.363   1.344   0.575  0.4844 -0.0049 -0.0375
  978PF6-    F214601   2.458   1.441   0.493  0.2876 -1.0482  0.3221
  978PF6-    F314602   2.268   1.244   0.655  0.8064  0.3448 -0.0002
  978PF6-    F414603   2.459   1.218   0.548 -0.4512 -0.3942 -0.1531
  978PF6-    F514604   2.262   1.465   0.606 -0.0803  0.2081 -0.0068
  978PF6-    F614605   2.279   1.318   0.442  0.1713 -0.5226  0.1433
  978PF6-    F714606   2.440   1.368   0.709  0.6568  0.1875  0.6590
  979PF6-    P114607   4.481   3.762   1.292 -0.0495 -0.1700  0.0270
  979PF6-    F214608   4.364   3.851   1.351 -0.0965  0.1942 -0.4770
  979PF6-    F314609   4.598   3.676   1.222 -0.9836  0.5246  0.4183
  979PF6-    F414610   4.376   3.708   1.182  0.5094  0.3016 -0.3482
  979PF6-    F514611   4.581   3.812   1.405 -0.3243 -0.8115 -0.2304
  979PF6-    F614612   4.438   3.643   1.386 -0.2203 -0.7179  0.2900
  979PF6-    F714613   4.516   3.892   1.206 -0.2515  0.4400  0.0581
  980PF6-    P114614   4.694   4.026   0.398 -0.0938  0.3063 -0.3496
  980PF6-    F214615   4.801   4.144   0.426  0.2188  0.1639 -0.8055
  980PF6-    F314616   4.594   3.899   0.379 -0.2977  0.2845  0.1314
  980PF6-    F414617   4.601   4.121   0.305 -0.1337  0.4822 -0.7643
  980PF6-    F514618   4.783   3.923   0.489  0.0774  0.0526 -0.3485
  980PF6-    F614619   4.617   4.077   0.529 -0.5798 -0.0250  0.4131
  980PF6-    F714620   4.779   3.980   0.268  0.0171 -0.1259  0.0690
  981PF6-    P114621   5.288   5.420   3.263  0.3330  0.1673 -0.4271
  981PF6-    F214622   5.217   5.496   3.137  0.1070 -0.0232 -0.2055
  981PF6-    F314623   5.356   5.358   3.397  0.0976  0.0288  0.3197
  981PF6-    F414624   5.400   5.340   3.177 -0.3534  0.1582 -0.2105
  981PF6-    F514625   5.178   5.491   3.360 -0.5581  0.0509 -0.1824
  981PF6-    F614626   5.187   5.287   3.247 -0.3335  0.0609  0.2399
  981PF6-    F714627   5.383   5.545   3.278 -0.0875  0.3627 -0.7292
  982PF6-    P114628   0.326   0.961   4.763 -0.0787 -0.5319  0.5714
  982PF6-    F214629   0.304   0.860   4.635 -0.3465 -0.2521  0.1627
  982PF6-    F314630   0.351   1.063   4.895 -0.4359  0.3817  0.1022
  982PF6-    F414631   0.207   0.887   4.842 -0.4443 -0.0018  0.9959
  982PF6-    F514632   0.450   1.036   4.686  0.6590  0.1026 -0.7781
  982PF6-    F614633   0.222   1.066   4.694 -0.4753 -0.8072 -0.2405
  982PF6-    F714634   0.425   0.853   4.821 -0.2661  0.1405  0.4417
  983PF6-    P114635   0.243   4.009   2.498 -0.2124 -0.1198  0.1475
  983PF6-    F214636   0.155   4.049   2.369 -0.3503 -0.1228 -0.1239
  983PF6-    F314637   0.325   3.967   2.622  0.4353 -0.3752 -0.3331
  983PF6-    F414638   0.118   4.044   2.586  0.0764 -0.5859 -0.7047
  983PF6-    F514639   0.366   3.972   2.405  0.0603 -0.1887  0.2092
  983PF6-    F614640   0.291   4.164   2.513 -0.2616  0.2888 -0.3359
  983PF6-    F714641   0.187   3.855   2.493  0.1332 -0.9871 -0.3604
  984PF6-    P114642   4.010   1.288   4.123  0.5370  0.0426 -0.0562
  984PF6-    F214643   3.902   1.283   4.000  0.1140 -0.3759  0.0309
  984PF6-    F314644   4.113   1.292   4.246  0.2026 -0.2542  0.5545
  984PF6-    F414645   3.987   1.450   4.129  0.5314  0.1654  0.3837
  984PF6-    F514646   4.020   1.122   4.116  0.0427 -0.1390 -0.1185
  984PF6-    F614647   4.125   1.305   4.011  0.0508 -0.1495  0.4818
  984PF6-    F714648   3.885   1.272   4.225  0.3504 -0.8670 -0.8407
  985PF6-    P114649   1.494   2.165   4.214 -0.2344  0.3734  0.1437
  985PF6-    F214650   1.594   2.044   4.237 -0.6819 -0.4825 -0.2697
  985PF6-    F314651   1.388   2.282   4.185 -0.5632  0.1659  0.4380
  985PF6-    F414652   1.421   2.122   4.344  0.3937 -0.1860 -0.0412
  985PF6-    F514653   1.569   2.198   4.078 -0.3486 -0.2681 -0.2407
  985PF6-    F614654   1.396   2.071   4.130  0.4294 -0.0242  0.2587
  985PF6-    F714655   1.589   2.262   4.299 -0.0051 -0.4816  0.2755
  986PF6-    P114656   1.583   0.503   2.915  0.0655 -0.1409 -0.1107
  986PF6-    F214657   1.556   0.623   2.812 -0.1901  0.3622  0.4777
  986PF6-    F314658   1.605   0.383   3.013 -0.0265 -0.4408 -0.2028
  986PF6-    F414659   1.427   0.464   2.901 -0.2430 -0.0185 -0.3520
  986PF6-    F514660   1.741   0.551   2.925  0.1779 -0.3370  0.7696
  986PF6-    F614661   1.548   0.594   3.043  0.7024 -0.0650 -0.1356
  986PF6-    F714662   1.618   0.403   2.794  0.1699  0.3325 -0.0853
  987PF6-    P114663   1.813   3.204   4.034  0.0730  0.2288 -0.0677
  987PF6-    F214664   1.896   3.126   4.145 -0.1433  0.3117 -0.8658
  987PF6-    F314665   1.720   3.281   3.923 -0.3193  0.9150 -0.6112
  987PF6-    F414666   1.756   3.059   3.980  0.1212  1.0010 -0.6709
  987PF6-    F514667   1.866   3.344   4.090  0.5644 -0.6309 -0.1887
  987PF6-    F614668   1.935   3.199   3.928  0.6801 -0.1809  0.6131
  987PF6-    F714669   1.686   3.212   4.136 -0.3436 -0.1062 -0.3589
  988PF6-    P114670   5.376   2.607   3.586  0.4670  0.7865  0.0895
  988PF6-    F214671   5.223   2.608   3.536 -1.0902 -0.0439  0.2457
  988PF6-    F314672   5.536   2.612   3.631 -0.3260 -0.2465 -0.4543
  988PF6-    F414673   5.330   2.633   3.740 -0.7384  0.6251  0.1641
  988PF6-    F514674   5.426   2.577   3.434  0.0830 -0.6519  0.4302
  988PF6-    F614675   5.381   2.766   3.570 -0.5625 -0.0191  0.0852
  988PF6-    F714676   5.371   2.449   3.600 -0.4385  0.0271 -0.0767
  989PF6-    P114677   2.237   5.363   2.090  0.0689  0.2458 -0.0462
  989PF6-    F214678   2.336   5.339   1.967  0.1544 -0.6835  0.0331
  989PF6-    F314679   2.148   5.369   2.223  0.1250  0.2580 -0.0539
  989PF6-    F414680   2.277   5.208   2.139  0.7175 -0.0191  0.1786
  989PF6-    F514681   2.187   5.509   2.036  0.2301  0.0458 -1.0496
  989PF6-    F614682   2.110   5.300   2.003  0.0201 -0.3244  0.0116
  989PF6-    F714683   2.364   5.431   2.170 -0.2480  0.4301  0.0994
  990PF6-    P114684   2.129   4.784   0.541 -0.1571 -0.0446  0.1137
  990PF6-    F214685   2.208   4.646   0.512  0.0250 -0.0347 -0.6504
  990PF6-    F314686   2.049   4.921   0.562 -0.1674  0.0043 -0.5214
  990PF6-    F414687   2.255   4.866   0.489  0.5536  0.1160 -0.3156
  990PF6-    F514688   1.998   4.703   0.590  0.2034  0.3635  0.3277
  990PF6-    F614689   2.184   4.789   0.693 -0.0775 -0.0125 -0.2697
  990PF6-    F714690   2.072   4.787   0.389  0.1900 -0.6511  0.0375
  991PF6-    P114691   4.632   3.265   2.606  0.1772  0.7299  0.0509
  991PF6-    F214692   4.532   3.379   2.562 -0.3855 -0.0858  0.3185
  991PF6-    F314693   4.730   3.149   2.654 -0.0537 -0.2197  0.0901
  991PF6-    F414694   4.596   3.177   2.471  0.3804  0.0448 -0.1553
  991PF6-    F514695   4.673   3.352   2.731  0.5936  0.3225 -0.0641
  991PF6-    F614696   4.514   3.199   2.680 -0.3917 -0.0083  0.1930
  991PF6-    F714697   4.749   3.328   2.516 -0.2840 -0.5282  0.0818
  992PF6-    P114698   4.193   3.755   3.379  0.1255  0.0154 -0.2011
  992PF6-    F214699   4.276   3.887   3.330 -0.4940  0.1276 -0.0149
  992PF6-    F314700   4.119   3.619   3.420  0.0636 -0.2300 -0.1548
  992PF6-    F414701   4.336   3.684   3.425  0.2353  0.2805 -0.0839
  992PF6-    F514702   4.051   3.823   3.344  0.5690 -0.5948 -0.1136
  992PF6-    F614703   4.201   3.695   3.232 -0.4073  0.4425  0.2045
  992PF6-    F714704   4.179   3.813   3.530 -0.1570 -0.0601  0.3388
  993PF6-    P114705   3.167   4.730   4.710  0.4518  0.2198  0.4870
  993PF6-    F214706   3.142   4.832   4.588 -0.0902 -0.0769 -0.0754
  993PF6-    F314707   3.205   4.633   4.832 -0.0189 -0.0055  0.3864
  993PF6-    F414708   3.217   4.615   4.617  0.0264  0.0476  0.8301
  993PF6-    F514709   3.118   4.837   4.818  0.1290  0.2651 -0.2982
  993PF6-    F614710   3.012   4.674   4.708  0.4302 -0.6396  0.3381
  993PF6-    F714711   3.325   4.786   4.714  0.0079  0.0106 -0.0298
  994PF6-    P114712   1.030   2.331   2.072  0.0965  0.5007 -0.1918
  994PF6-    F214713   1.084   2.278   1.936 -0.0726 -0.3831  0.2270
  994PF6-    F314714   0.986   2.392   2.209  1.0234 -0.1438  0.0878
  994PF6-    F414715   0.878   2.275   2.039 -0.4370  0.6021  0.2359
  994PF6-    F514716   1.174   2.383   2.110 -0.4134 -0.1995 -0.2263
  994PF6-    F614717   1.005   2.479   2.003 -0.0664 -0.4247 -0.5238
  994PF6-    F714718   1.062   2.186   2.142 -0.0448  0.0595  0.2945
  995PF6-    P114719   0.826   2.691   4.802  0.0833 -0.0874  0.0158
  995PF6-    F214720   0.715   2.576   4.814  0.6891 -0.2542  0.2831
  995PF6-    F314721   0.942   2.807   4.792  0.7879  0.1556 -0.1515
  995PF6-    F414722   0.772   2.735   4.654 -0.0641  0.6864  0.1589
  995PF6-    F514723   0.876   2.654   4.957 -0.1623 -0.0781  0.3880
  995PF6-    F614724   0.924   2.576   4.739 -0.5448  0.1076  0.0136
  995PF6-    F714725   0.724   2.805   4.863 -0.3582 -0.0159 -0.1771
  996PF6-    P114726   4.604   1.292   3.398 -0.1171  0.1162  0.2857
  996PF6-    F214727   4.656   1.425   3.327  0.2526  0.2910 -0.1200
  996PF6-    F314728   4.554   1.160   3.473 -0.1746  0.6352  0.1749
  996PF6-    F414729   4.632   1.365   3.541  0.1901  0.0354 -0.0112
  996PF6-    F514730   4.582   1.224   3.254  0.5895 -0.0222  0.1313
  996PF6-    F614731   4.755   1.229   3.394  0.0946 -0.6636 -0.0691
  996PF6-    F714732   4.452   1.339   3.395 -0.1088  0.8202  0.6031
  997PF6-    P114733   3.712   0.797   1.849 -0.4156  0.1652  0.3087
  997PF6-    F214734   3.694   0.635   1.850  0.7573  0.0155  0.2504
  997PF6-    F314735   3.740   0.955   1.857  0.0213 -0.3434 -0.0765
  997PF6-    F414736   3.638   0.812   1.701 -0.1184 -0.0201 -0.2111
  997PF6-    F514737   3.787   0.787   1.994 -0.3545  0.2392  0.4323
  997PF6-    F614738   3.857   0.779   1.777 -0.2975 -0.1955  0.5410
  997PF6-    F714739   3.570   0.813   1.924  0.2289 -0.4928 -0.2336
  998PF6-    P114740   3.216   4.528   2.472 -0.2678 -0.4107  0.0611
  998PF6-    F214741   3.059   4.488   2.456 -0.3883  0.2944  0.2935
  998PF6-    F314742   3.369   4.550   2.495 -0.0491 -0.6683 -0.3887
  998PF6-    F414743   3.248   4.375   2.441  0.0798  0.1769 -0.6919
  998PF6-    F514744   3.183   4.680   2.497  0.3878 -0.1813 -0.0325
  998PF6-    F614745   3.202   4.503   2.632 -0.1203  0.3764 -0.1812
  998PF6-    F714746   3.221   4.554   2.312 -0.0587  0.0608 -0.1251
  999PF6-    P114747   1.448   1.644   2.694  0.4372 -0.0667  0.2386
  999PF6-    F214748   1.485   1.798   2.718 -0.0314  0.1858 -0.3936
  999PF6-    F314749   1.425   1.487   2.660  0.6564  0.2949 -0.2880
  999PF6-    F414750   1.564   1.648   2.586  0.0740 -0.9741 -0.7212
  999PF6-    F514751   1.333   1.645   2.800 -0.1640 -0.0817 -0.1135
  999PF6-    F614752   1.349   1.688   2.579 -0.1027  0.3608  0.4830
  999PF6-    F714753   1.558   1.603   2.801 -0.0931  0.0393 -0.4899
 1000PF6-    P114754   1.165   4.182   2.169  0.1731 -0.2194  0.4844
 1000PF6-    F214755   1.027   4.105   2.143 -0.1743 -0.3926 -0.0316
 1000PF6-    F314756   1.304   4.260   2.193  0.1123  0.3425  0.5795
 1000PF6-    F414757   1.246   4.051   2.172  0.0188  0.6438  0.0879
 1000PF6-    F514758   1.092   4.319   2.175  0.1848 -0.4999 -0.2881
 1000PF6-    F614759   1.141   4.168   2.329 -0.3784  0.0569  0.4576
 1000PF6-    F714760   1.189   4.186   2.007 -0.5001  0.3871 -0.2495
 1001PF6-    P114761   3.661   3.392   3.919 -0.0636 -0.4894 -0.1357
 1001PF6-    F214762   3.569   3.425   4.046  0.3444  0.4364 -1.0860
 1001PF6-    F314763   3.745   3.356   3.794 -0.1951 -0.2632  0.0602
 1001PF6-    F414764   3.529   3.394   3.828 -0.5358  0.3792  0.5240
 1001PF6-    F514765   3.791   3.382   4.018 -0.2564  0.3796 -0.1544
 1001PF6-    F614766   3.635   3.236   3.941  0.4618  0.3950  0.4503
 1001PF6-    F714767   3.688   3.546   3.899 -0.2118 -0.4643 -0.2524
 1002PF6-    P114768   2.589   4.443   5.402  0.1126  0.0463  0.1709
 1002PF6-    F214769   2.433   4.418   5.380  0.1374 -0.2705 -0.4736
 1002PF6-    F314770   2.749   4.475   5.415  0.4392  0.5859  0.1748
 1002PF6-    F414771   2.611   4.286   5.444  0.7422  0.0001 -0.3885
 1002PF6-    F514772   2.564   4.593   5.346 -0.5501  0.3766 -0.3815
 1002PF6-    F614773   2.571   4.487   5.555  0.1148 -0.3209 -0.0261
 1002PF6-    F714774   2.615   4.401   5.245  0.1288 -0.2982  0.1498
 1003PF6-    P114775   5.283   5.160   0.963 -0.4421  0.3764  0.2856
 1003PF6-    F214776   5.349   5.263   0.861  0.4621  0.3355 -0.4849
 1003PF6-    F314777   5.217   5.048   1.053 -0.1227  0.2579  0.0154
 1003PF6-    F414778   5.166   5.268   0.999  0.0450  0.0921  0.0935
 1003PF6-    F514779   5.399   5.057   0.915  0.8040  0.3868 -0.2352
 1003PF6-    F614780   5.379   5.218   1.078  0.4617  0.0910  0.2893
 1003PF6-    F714781   5.187   5.103   0.844 -0.0590  0.1338 -0.2277
 1004PF6-    P114782   2.942   0.647   3.153  0.3976 -0.0145 -0.4317
 1004PF6-    F214783   2.871   0.505   3.148  0.5853  0.3503 -0.0560
 1004PF6-    F314784   3.011   0.791   3.154 -0.2949  0.2628 -0.5118
 1004PF6-    F414785   2.927   0.662   2.993  0.4587 -0.1314  0.0243
 1004PF6-    F514786   2.948   0.634   3.310 -0.0161 -0.5834  0.3265
 1004PF6-    F614787   3.085   0.579   3.137 -0.1240  0.2081  0.1651
 1004PF6-    F714788   2.793   0.706   3.169 -0.3104 -0.3007  0.1500
 1005PF6-    P114789   1.785   2.277   4.979  0.3916 -0.1889  0.0902
 1005PF6-    F214790   1.941   2.285   5.025 -0.5183  0.3184  0.9706
 1005PF6-    F314791   1.634   2.279   4.934 -0.0370  0.2922 -0.0702
 1005PF6-    F414792   1.822   2.317   4.827 -0.0988  0.8284 -0.5906
 1005PF6-    F514793   1.749   2.246   5.138  0.2538  0.0736 -0.3247
 1005PF6-    F614794   1.774   2.428   5.014 -0.5891  0.1709 -0.0225
 1005PF6-    F714795   1.797   2.122   4.949 -0.6123 -0.1037  0.0498
 1006PF6-    P114796   2.398   0.033   3.739  0.6356  0.1632 -0.3329
 1006PF6-    F214797   2.321   0.105   3.619 -0.0164 -0.6116 -0.7276
 1006PF6-    F314798   2.471  -0.046   3.867  0.3877 -0.1387 -0.1199
 1006PF6-    F414799   2.471   0.175   3.773 -0.1583  0.2331 -0.0921
 1006PF6-    F514800   2.329  -0.104   3.692 -0.0854 -0.1867 -0.1952
 1006PF6-    F614801   2.519  -0.001   3.643  0.3572  0.5100 -0.6396
 1006PF6-    F714802   2.274   0.064   3.840 -0.2065  0.3822 -0.3688
 1007PF6-    P114803   1.951   2.527   0.905  0.0987 -0.1605  0.4500
 1007PF6-    F214804   1.835   2.643   0.900 -0.1861 -0.5591  0.2049
 1007PF6-    F314805   2.067   2.415   0.910 -0.1016  0.0671  0.3380
 1007PF6-    F414806   1.845   2.421   0.964  0.2756  0.4043  0.1175
 1007PF6-    F514807   2.050   2.631   0.845  1.0631 -0.1585 -0.1912
 1007PF6-    F614808   1.994   2.578   1.054  0.4918 -0.2176  0.1276
 1007PF6-    F714809   1.905   2.484   0.755  0.4001 -0.1119 -0.0580
 1008PF6-    P114810   1.824   0.657   2.074 -0.1392  0.2112 -0.0305
 1008PF6-    F214811   1.744   0.742   1.963  0.0523  0.2864  0.1866
 1008PF6-    F314812   1.908   0.572   2.187 -0.1305  0.6231  0.4180
 1008PF6-    F414813   1.839   0.792   2.164  0.0237  0.3526 -0.0754
 1008PF6-    F514814   1.798   0.526   1.992  0.0794  0.0191  0.2709
 1008PF6-    F614815   1.960   0.688   1.994  0.4278 -0.8040  0.4811
 1008PF6-    F714816   1.691   0.626   2.152 -0.1086  0.2709 -0.0979
 1009PF6-    P114817   1.738   3.596   0.066  0.2046 -0.2445  0.0413
 1009PF6-    F214818   1.600   3.652   0.009 -0.1455  0.2952  0.2267
 1009PF6-    F314819   1.874   3.542   0.124  0.2374  0.0294 -0.4037
 1009PF6-    F414820   1.667   3.467   0.132  0.5074 -0.5715 -0.0307
 1009PF6-    F514821   1.817   3.722   0.002 -0.8042  0.0472  0.0995
 1009PF6-    F614822   1.717   3.674   0.201  0.1137 -0.7119 -0.6824
 1009PF6-    F714823   1.755   3.514  -0.073 -0.3774  0.0246  0.2619
 1010PF6-    P114824   5.424   0.542   0.772  0.0808  0.0809  0.1008
 1010PF6-    F214825   5.527   0.478   0.671 -0.1975  0.0192 -0.3116
 1010PF6-    F314826   5.325   0.603   0.881  0.2823  0.1476 -0.2245
 1010PF6-    F414827   5.432   0.688   0.707 -0.2452 -0.4333 -0.5088
 1010PF6-    F514828   5.410   0.398   0.845  0.2781 -0.4384  0.0569
 1010PF6-    F614829   5.545   0.583   0.867  0.2349 -0.8455  0.4191
 1010PF6-    F714830   5.293   0.502   0.680  0.1977  0.1606 -0.7876
 1011PF6-    P114831   1.350   5.021   1.122  0.2982  0.0482 -0.1801
 1011PF6-    F214832   1.219   5.120   1.125 -0.0032  0.0444 -0.0977
 1011PF6-    F314833   1.475   4.923   1.120 -0.1485  0.5941  0.1582
 1011PF6-    F414834   1.386   5.073   1.270 -0.3258  0.2773  0.2203
 1011PF6-    F514835   1.307   4.977   0.975 -0.3577 -0.2335 -0.6085
 1011PF6-    F614836   1.444   5.134   1.064 -0.3606 -0.3792  0.3050
 1011PF6-    F714837   1.266   4.904   1.192  0.2027  0.7690  0.3569
 1012PF6-    P114838   1.406   1.051   0.023  0.3587  0.6914  0.0736
 1012PF6-    F214839   1.263   1.037   0.088  0.2257  0.0332 -0.1647
 1012PF6-    F314840   1.549   1.056  -0.057 -0.0217  0.0231  0.1683
 1012PF6-    F414841   1.384   1.205   0.010  0.4824 -0.1334 -0.8223
 1012PF6-    F514842   1.425   0.893   0.030 -0.0960 -0.0352 -0.6778
 1012PF6-    F614843   1.341   1.033  -0.116  1.0951 -0.1945 -0.1736
 1012PF6-    F714844   1.480   1.067   0.161 -0.0142 -0.1554 -0.5089
 1013PF6-    P114845   1.973   0.103   1.190  0.1650  0.1297  0.6131
 1013PF6-    F214846   2.128   0.125   1.186 -0.2081  0.4356  0.1383
 1013PF6-    F314847   1.814   0.085   1.196 -0.7286 -0.1853  0.3494
 1013PF6-    F414848   1.969   0.192   1.320  0.3757 -0.2485  0.3132
 1013PF6-    F514849   1.980   0.018   1.054  0.3466  0.4456  0.0709
 1013PF6-    F614850   1.988  -0.024   1.275 -0.5899 -0.1475  0.1290
 1013PF6-    F714851   1.953   0.236   1.094 -0.3683  0.6319 -0.2526
 1014PF6-    P114852   3.730   4.371   1.065  0.0272  0.3728 -0.3411
 1014PF6-    F214853   3.618   4.334   0.961  0.0224  0.0040  0.3009
 1014PF6-    F314854   3.845   4.406   1.176 -0.6784  0.1675 -0.4068
 1014PF6-    F414855   3.804   4.231   1.030 -0.4497 -0.0775 -0.3341
 1014PF6-    F514856   3.657   4.508   1.085  0.2421 -0.7551 -0.3035
 1014PF6-    F614857   3.637   4.300   1.168  0.3419  0.2974 -0.8074
 1014PF6-    F714858   3.815   4.437   0.952 -0.5589 -0.2933 -0.0181
 1015PF6-    P114859   3.728   2.957   0.950  0.4104  0.4172  0.0874
 1015PF6-    F214860   3.790   2.825   0.884  0.5261 -0.0758  0.4747
 1015PF6-    F314861   3.665   3.090   1.007  0.1093  0.1607 -0.5127
 1015PF6-    F414862   3.592   2.892   0.980 -0.2060 -0.2312 -0.4300
 1015PF6-    F514863   3.865   3.026   0.920 -0.0946  0.2487 -0.3444
 1015PF6-    F614864   3.672   3.002   0.808 -0.2210  0.2694 -0.3012
 1015PF6-    F714865   3.782   2.911   1.097  0.1262 -0.6040 -0.5520
 1016PF6-    P114866   3.020   0.798   0.442  0.0257  0.2532  0.4432
 1016PF6-    F214867   3.004   0.754   0.595  0.1662  0.2333  0.8508
 1016PF6-    F314868   3.044   0.843   0.293 -0.7388  0.1584  0.0721
 1016PF6-    F414869   2.899   0.901   0.453 -0.4054 -0.1608  0.0327
 1016PF6-    F514870   3.142   0.700   0.427 -0.4966  0.0387  0.1718
 1016PF6-    F614871   2.918   0.682   0.394 -0.1717 -0.5973  0.2139
 1016PF6-    F714872   3.119   0.912   0.489  0.2888 -0.0256  0.2232
 1017PF6-    P114873   2.106   0.135   0.027 -0.1785  0.0585 -0.1809
 1017PF6-    F214874   2.176   0.068  -0.100 -0.3741  0.3818 -0.3115
 1017PF6-    F314875   2.045   0.203   0.159  0.0621 -0.3430  0.0118
 1017PF6-    F414876   2.250   0.185   0.073 -0.9468 -0.2626  0.1987
 1017PF6-    F514877   1.963   0.088  -0.032 -0.0564 -0.0640 -0.3448
 1017PF6-    F614878   2.127  -0.004   0.106  0.1492 -0.4543 -0.2223
 1017PF6-    F714879   2.087   0.272  -0.048 -0.2673  0.1625  0.7131
 1018PF6-    P114880   0.796   1.681   1.019  0.1350 -0.0401  0.0338
 1018PF6-    F214881   0.886   1.792   0.955 -0.2399  0.0825  0.1509
 1018PF6-    F314882   0.700   1.573   1.090 -0.1327 -0.1496 -0.0447
 1018PF6-    F414883   0.936   1.602   1.075 -0.0753 -0.0782  0.3511
 1018PF6-    F514884   0.665   1.759   0.980 -0.5369  0.3538 -0.3450
 1018PF6-    F614885   0.803   1.595   0.882  0.0517  0.5270 -0.5120
 1018PF6-    F714886   0.794   1.768   1.154 -0.1130 -0.3418 -0.3424
 1019PF6-    P114887   3.738   3.060   2.365  0.1462 -0.5361 -0.0898
 1019PF6-    F214888   3.585   3.063   2.320 -0.2955  0.0910  0.3552
 1019PF6-    F314889   3.884   3.063   2.402 -0.4329 -0.1555 -0.0216
 1019PF6-    F414890   3.779   3.110   2.221  0.5920 -0.1644  0.6975
 1019PF6-    F514891   3.696   3.009   2.514 -0.3880 -0.1709  0.3237
 1019PF6-    F614892   3.743   2.908   2.319  0.4951 -0.7258  0.3110
 1019PF6-    F714893   3.729   3.213   2.405 -0.0021  0.3292 -0.2663
 1020PF6-    P114894   0.643   2.022   3.835  0.3049 -0.0826 -0.0371
 1020PF6-    F214895   0.606   2.135   3.943 -0.1331 -0.0809  0.4239
 1020PF6-    F314896   0.680   1.909   3.727  0.1891  0.3268 -0.3224
 1020PF6-    F414897   0.578   2.109   3.721  0.4389  0.0519 -0.3727
 1020PF6-    F514898   0.712   1.929   3.946  0.1438  0.2576  0.1582
 1020PF6-    F614899   0.499   1.952   3.852  0.2256 -0.2632  0.4724
 1020PF6-    F714900   0.785   2.099   3.813  0.2829 -0.2442  0.1292
 1021PF6-    P114901   4.774   1.488   5.426 -0.0400 -0.2994  0.3350
 1021PF6-    F214902   4.635   1.519   5.494  0.5031 -0.3158 -0.1611
 1021PF6-    F314903   4.920   1.457   5.362  0.1698 -0.4909 -0.0965
 1021PF6-    F414904   4.816   1.395   5.548  0.0255  0.6163 -0.3624
 1021PF6-    F514905   4.735   1.585   5.306  0.0257 -0.0775 -0.3106
 1021PF6-    F614906   4.832   1.612   5.508  0.0976  0.5185  0.4405
 1021PF6-    F714907   4.716   1.362   5.341 -0.0624 -0.0771 -0.2663
 1022PF6-    P114908   1.125   3.644   3.724 -0.2090 -0.0904  0.0220
 1022PF6-    F214909   0.984   3.606   3.794 -0.0771 -0.0818  0.5358
 1022PF6-    F314910   1.272   3.687   3.670 -0.1691 -0.2127  0.0944
 1022PF6-    F414911   1.189   3.522   3.811  0.0017 -0.3554  0.0765
 1022PF6-    F514912   1.058   3.752   3.635  0.3506  0.4271 -0.2634
 1022PF6-    F614913   1.150   3.747   3.846  0.3319  0.0748 -0.0227
 1022PF6-    F714914   1.102   3.535   3.609 -0.4276 -0.1482  0.1021
 1023PF6-    P114915   1.744   2.971   2.020 -0.0948 -0.5443  0.2657
 1023PF6-    F214916   1.780   2.972   1.860  0.0992  0.2785 -0.0556
 1023PF6-    F314917   1.707   2.963   2.176 -0.0783  0.8543  0.0589
 1023PF6-    F414918   1.588   2.949   1.980  0.3750 -0.0912 -0.0535
 1023PF6-    F514919   1.900   2.980   2.056 -0.1079  0.3741  0.3027
 1023PF6-    F614920   1.736   3.129   2.014  0.5153  0.3482  0.5151
 1023PF6-    F714921   1.756   2.808   2.012  0.1828 -0.7029 -0.5814
 1024PF6-    P114922   5.228   1.827   1.381 -0.2958 -0.3304  0.0164
 1024PF6-    F214923   5.238   1.671   1.401  0.5123 -0.2210 -0.0134
 1024PF6-    F314924   5.228   1.982   1.359 -0.3534  0.6781 -0.5434
 1024PF6-    F414925   5.211   1.812   1.226  0.1549  0.1098  0.2653
 1024PF6-    F514926   5.243   1.844   1.538  0.1769 -0.0499  0.1220
 1024PF6-    F614927   5.391   1.830   1.374  0.5361 -0.3578  0.1792
 1024PF6-    F714928   5.071   1.830   1.400 -0.8507  0.0870 -0.0988
 1025PF6-    P114929   2.949   2.439   5.052  0.5355  0.0978  0.4388
 1025PF6-    F214930   2.978   2.467   4.894  0.7189  0.6473 -0.1824
 1025PF6-    F314931   2.920   2.405   5.208  0.3157 -0.0945 -0.3199
 1025PF6-    F414932   2.845   2.325   5.010 -0.0559  0.1191  0.5360
 1025PF6-    F514933   3.062   2.546   5.096 -0.1296  0.0175  0.2156
 1025PF6-    F614934   2.841   2.558   5.054 -0.3839 -0.2021 -0.1874
 1025PF6-    F714935   3.061   2.324   5.051 -0.3709 -0.3718 -0.3411
 1026PF6-    P114936   5.122   3.552   3.354 -0.0788  0.2658  0.3729
 1026PF6-    F214937   5.207   3.597   3.227 -0.1954  0.1931  0.1854
 1026PF6-    F314938   5.027   3.497   3.475  0.4268  0.1101  0.6492
 1026PF6-    F414939   5.054   3.697   3.364  0.5235  0.1318 -0.0477
 1026PF6-    F514940   5.192   3.409   3.347 -0.0532  0.3145 -0.4092
 1026PF6-    F614941   5.237   3.605   3.460 -0.1301  0.8123  0.0452
 1026PF6-    F714942   5.003   3.511   3.249  0.2856 -0.7692  0.1864
 1027PF6-    P114943   4.940   4.490   1.775  0.0140 -0.0728  0.0751
 1027PF6-    F214944   4.956   4.330   1.777  0.0020 -0.1596  0.0011
 1027PF6-    F314945   4.922   4.652   1.763  0.6983  0.3809 -0.7550
 1027PF6-    F414946   5.092   4.502   1.777 -0.2561 -0.0413 -0.3950
 1027PF6-    F514947   4.784   4.470   1.777  0.0266 -0.2563  0.4562
 1027PF6-    F614948   4.939   4.491   1.936 -0.1846 -0.4882  0.4498
 1027PF6-    F714949   4.938   4.482   1.617  0.4069  0.0791 -0.5085
 1028PF6-    P114950   1.552   4.660   3.367  0.4230  0.5696 -0.2607
 1028PF6-    F214951   1.510   4.767   3.487 -0.3110 -0.2112 -0.2653
 1028PF6-    F314952   1.592   4.557   3.255 -0.0123 -0.1250  0.6670
 1028PF6-    F414953   1.563   4.547   3.484 -0.1148 -0.2444  0.6325
 1028PF6-    F514954   1.552   4.773   3.251  0.0576 -0.0862 -0.3894
 1028PF6-    F614955   1.708   4.697   3.395 -0.4357  0.1561 -0.8705
 1028PF6-    F714956   1.401   4.629   3.341  0.9904  0.5627  0.1194
 1029PF6-    P114957   0.293   4.645   4.016  0.1590 -0.2309  0.1553
 1029PF6-    F214958   0.201   4.774   4.016  0.4236  0.0938 -0.1976
 1029PF6-    F314959   0.393   4.519   4.018 -0.1905 -0.0533  0.1863
 1029PF6-    F414960   0.298   4.652   3.859  0.2979  0.5771  0.6152
 1029PF6-    F514961   0.283   4.644   4.181  0.4578 -0.2522 -0.2546
 1029PF6-    F614962   0.163   4.559   4.014  0.0158 -1.2080  0.2070
 1029PF6-    F714963   0.424   4.740   4.025 -0.0216 -0.7273  0.4757
 1030PF6-    P114964   2.615   3.454   4.472 -0.4936  0.0219 -0.3421
 1030PF6-    F214965   2.762   3.527   4.514 -0.2782 -0.0751  0.4160
 1030PF6-    F314966   2.474   3.379   4.436 -0.2506  0.5109  0.3035
 1030PF6-    F414967   2.655   3.458   4.317  0.1023 -0.3988 -0.0907
 1030PF6-    F514968   2.589   3.453   4.634 -0.0744 -0.4547  0.0844
 1030PF6-    F614969   2.552   3.596   4.455  0.3561  0.6034 -0.2824
 1030PF6-    F714970   2.695   3.315   4.484  0.4676 -0.3578  0.1356
 1031PF6-    P114971   0.864   0.354   4.305  0.0350  0.1069 -0.3241
 1031PF6-    F214972   0.888   0.195   4.287 -0.0810 -0.1535 -0.2600
 1031PF6-    F314973   0.845   0.516   4.311  0.7039 -0.0664 -0.5137
 1031PF6-    F414974   0.789   0.360   4.167 -0.5846 -0.1943  0.6283
 1031PF6-    F514975   0.948   0.356   4.446 -0.2652  0.2297  0.0119
 1031PF6-    F614976   1.002   0.378   4.232 -0.5751 -0.0957 -0.2661
 1031PF6-    F714977   0.724   0.334   4.374  0.4151  0.0115 -0.3667
 1032PF6-    P114978   2.303   3.618   2.446 -0.0719 -0.0214 -0.0195
 1032PF6-    F214979   2.463   3.636   2.458  0.0746 -0.1808  0.1562
 1032PF6-    F314980   2.144   3.592   2.429 -0.1015 -0.8189 -0.2771
 1032PF6-    F414981   2.299   3.719   2.328 -0.0465 -0.5809 -0.5401
 1032PF6-    F514982   2.305   3.498   2.560 -0.2603 -0.2860 -0.4364
 1032PF6-    F614983   2.278   3.732   2.552  0.3466  0.2397 -0.4683
 1032PF6-    F714984   2.325   3.508   2.333  0.4245  0.7133  0.1823
 1033PF6-    P114985   2.104   1.127   2.781 -0.1465 -0.6013 -0.1098
 1033PF6-    F214986   1.981   1.143   2.680 -0.0343  0.0329  0.1711
 1033PF6-    F314987   2.225   1.102   2.880 -0.3825  0.1307 -0.2396
 1033PF6-    F414988   2.005   1.080   2.894  0.0673  0.9623  0.3180
 1033PF6-    F514989   2.201   1.176   2.668 -0.1423  0.0474  0.1014
 1033PF6-    F614990   2.085   1.278   2.835  0.2640 -0.5940 -0.0363
 1033PF6-    F714991   2.116   0.980   2.734 -0.6347 -0.2103  0.1412
 1034PF6-    P114992   5.456   3.324   1.294  0.1892 -0.2316  0.2733
 1034PF6-    F214993   5.350   3.436   1.271 -0.1241  0.0770  0.4599
 1034PF6-    F314994   5.567   3.208   1.313 -0.2009 -0.0235 -0.0840
 1034PF6-    F414995   5.485   3.379   1.442  0.1771 -0.7214 -0.2485
 1034PF6-    F514996   5.427   3.274   1.147  0.5776  0.7697 -0.1211
 1034PF6-    F614997   5.565   3.425   1.237 -0.2540  0.1922  0.6348
 1034PF6-    F714998   5.342   3.225   1.351  0.1828  0.0441 -0.0867
 1035PF6-    P114999   0.272   1.615   2.062 -0.2539 -0.2579 -0.2534
 1035PF6-    F215000   0.171   1.586   1.944 -0.0861  0.0154  0.3446
 1035PF6-    F315001   0.376   1.646   2.180 -0.4645  0.3302 -0.1812
 1035PF6-    F415002   0.327   1.463   2.052 -0.4913 -0.4169 -0.2244
 1035PF6-    F515003   0.218   1.767   2.071  0.0533 -0.4317  0.1209
 1035PF6-    F615004   0.158   1.571   2.161 -0.3574 -0.0891 -0.4800
 1035PF6-    F715005   0.381   1.664   1.951  0.5483  0.1982  0.0481
 1036PF6-    P115006   1.840   4.477   1.553 -0.3809  0.1860 -0.0861
 1036PF6-    F215007   1.888   4.533   1.410 -0.4923  0.2036  0.1018
 1036PF6-    F315008   1.805   4.423   1.698 -0.1028 -0.0689 -0.1301
 1036PF6-    F415009   1.710   4.565   1.551  0.2021 -0.2464  0.3484
 1036PF6-    F515010   1.970   4.385   1.557 -0.1712  0.5832 -0.1033
 1036PF6-    F615011   1.924   4.594   1.622  0.0518  0.0527  0.1501
 1036PF6-    F715012   1.762   4.361   1.476  0.6743 -0.1017 -0.2054
 1037PF6-    P115013   2.710   2.834   0.860  0.2498 -0.0314  0.5484
 1037PF6-    F215014   2.780   2.689   0.817 -0.0705  0.4815  0.3338
 1037PF6-    F315015   2.643   2.976   0.896 -1.0777  0.6231 -0.2445
 1037PF6-    F415016   2.606   2.818   0.737 -0.0368 -0.1363  0.0104
 1037PF6-    F515017   2.811   2.846   0.981  0.3942 -0.1935 -0.2415
 1037PF6-    F615018   2.817   2.908   0.764  0.0867 -0.1320  0.4306
 1037PF6-    F715019   2.603   2.763   0.954 -0.2821  0.0290  0.2137
 1038PF6-    P115020   4.306   1.236   2.593 -0.3896  0.0585 -0.1764
 1038PF6-    F215021   4.399   1.267   2.467  0.4939 -0.3742  0.1342
 1038PF6-    F315022   4.219   1.196   2.718  0.1039  0.2713 -0.1312
 1038PF6-    F415023   4.341   1.083   2.567 -0.4534 -0.0155 -0.0696
 1038PF6-    F515024   4.265   1.392   2.615  0.0882 -0.4156 -0.0330
 1038PF6-    F615025   4.176   1.225   2.496 -0.2265  0.1162 -0.4204
 1038PF6-    F715026   4.436   1.252   2.686 -0.2982  0.3533 -0.4730
 1039PF6-    P115027   4.550   2.180   3.919 -0.0396 -0.2781  0.2043
 1039PF6-    F215028   4.411   2.259   3.953 -1.0267 -0.7123 -0.0488
 1039PF6-    F315029   4.692   2.112   3.886 -0.0449  0.2460  0.3975
 1039PF6-    F415030   4.469   2.058   3.865 -0.1824  0.2762 -0.1565
 1039PF6-    F515031   4.644   2.296   3.982 -0.3589  0.1807 -0.2699
 1039PF6-    F615032   4.547   2.114   4.064  0.3106 -0.1222  0.2621
 1039PF6-    F715033   4.558   2.248   3.773 -0.1299 -0.6484  0.3121
 1040PF6-    P115034   0.185   2.397   4.509  0.1097 -0.1555 -0.0678
 1040PF6-    F215035   0.025   2.385   4.498 -0.1229 -0.9705  0.7755
 1040PF6-    F315036   0.341   2.407   4.522  0.1673  0.3391  0.3123
 1040PF6-    F415037   0.175   2.561   4.495 -0.5190 -0.0840 -0.5474
 1040PF6-    F515038   0.191   2.241   4.522  0.3155 -0.1643 -0.1652
 1040PF6-    F615039   0.197   2.386   4.350  0.2550 -0.1500 -0.1714
 1040PF6-    F715040   0.161   2.410   4.673 -0.2283 -0.6140  0.2547
 1041PF6-    P115041   2.492   1.899   1.119 -0.3681 -0.6437  0.4345
 1041PF6-    F215042   2.478   1.820   1.258  0.0615 -0.2858  0.5629
 1041PF6-    F315043   2.498   1.978   0.979 -0.1049  0.1070  0.0749
 1041PF6-    F415044   2.503   2.035   1.204  0.1765  0.0920 -0.0890
 1041PF6-    F515045   2.480   1.766   1.035 -0.4679 -0.5959 -0.2230
 1041PF6-    F615046   2.334   1.918   1.110 -0.2365  0.3076  0.4127
 1041PF6-    F715047   2.652   1.887   1.120 -0.0156  0.4187  0.0979
 1042PF6-    P115048   2.184   4.979   4.668  0.3656 -0.0734 -0.1960
 1042PF6-    F215049   2.139   5.013   4.525 -0.1056 -0.2155  0.5065
 1042PF6-    F315050   2.226   4.964   4.818 -0.0943  0.6020 -0.1584
 1042PF6-    F415051   2.316   5.071   4.655 -0.3815  0.0337  0.1152
 1042PF6-    F515052   2.057   4.895   4.690 -0.2516 -0.0044 -0.1589
 1042PF6-    F615053   2.267   4.859   4.621  0.3117 -0.6566 -0.4566
 1042PF6-    F715054   2.098   5.105   4.717 -0.1776 -0.3099 -0.6427
 1043PF6-    P115055   3.403   4.940   0.287  0.2549  0.6199  0.1096
 1043PF6-    F215056   3.433   4.787   0.338  0.6651 -0.7127  0.3615
 1043PF6-    F315057   3.381   5.092   0.236  0.3697 -0.4026 -0.0029
 1043PF6-    F415058   3.435   4.899   0.135  0.2891  0.4032 -0.2127
 1043PF6-    F515059   3.369   4.985   0.445  0.4065 -0.4419 -0.5624
 1043PF6-    F615060   3.556   4.967   0.314 -0.2451  0.1974 -0.0672
 1043PF6-    F715061   3.250   4.899   0.256 -0.0884  0.2663 -0.6245
 1044PF6-    P115062   4.818   0.350   1.616 -0.5862  0.2805  0.0152
 1044PF6-    F215063   4.744   0.436   1.497  0.1920 -0.3951  0.1101
 1044PF6-    F315064   4.886   0.266   1.738  0.0709  0.3065 -0.1988
 1044PF6-    F415065   4.803   0.213   1.526  0.4780  0.3867 -0.1040
 1044PF6-    F515066   4.836   0.485   1.699  0.2264 -0.0409  0.1586
 1044PF6-    F615067   4.678   0.324   1.683  0.2959 -0.0014 -0.8978
 1044PF6-    F715068   4.963   0.375   1.549 -0.3269  0.1708  0.2360
 1045PF6-    P115069   2.940   3.378   3.170  0.1341  0.1095 -0.2938
 1045PF6-    F215070   3.053   3.351   3.278 -0.3418  0.1262  0.0955
 1045PF6-    F315071   2.817   3.409   3.063 -0.1394 -0.4580  0.0079
 1045PF6-    F415072   2.971   3.237   3.097  0.2854 -0.1454  0.3760
 1045PF6-    F515073   2.903   3.516   3.246  0.5457  0.2732  0.3849
 1045PF6-    F615074   3.040   3.459   3.079  0.4734 -0.5565 -0.2760
 1045PF6-    F715075   2.836   3.296   3.264 -0.4059  0.4673  0.4574
 1046PF6-    P115076   4.978   1.198   2.090  0.2822  0.0882  0.1902
 1046PF6-    F215077   4.901   1.338   2.133 -0.2148  0.5739  0.2423
 1046PF6-    F315078   5.054   1.064   2.057  0.3422  0.6724 -0.0407
 1046PF6-    F415079   4.867   1.166   1.982 -0.2944 -0.2451 -0.5898
 1046PF6-    F515080   5.101   1.233   2.193  0.1160  0.4694  0.3533
 1046PF6-    F615081   4.894   1.124   2.199  0.3164  0.0780  0.1287
 1046PF6-    F715082   5.064   1.274   1.980 -0.0136  0.7395 -0.5125
 1047PF6-    P115083   3.866   0.770   0.776  0.1938 -0.5115  0.0283
 1047PF6-    F215084   3.901   0.852   0.905 -0.3841 -0.5445  0.3033
 1047PF6-    F315085   3.819   0.673   0.661 -0.3567  0.0890  0.0547
 1047PF6-    F415086   3.835   0.902   0.685 -0.4069 -0.1256  0.1160
 1047PF6-    F515087   3.899   0.635   0.858  0.5267 -0.2412  0.1095
 1047PF6-    F615088   3.714   0.773   0.823 -0.3646  0.6360  0.6193
 1047PF6-    F715089   4.019   0.776   0.719 -0.4936 -0.1237 -0.3759
 1048PF6-    P115090   4.518   5.268   0.662 -0.1372 -0.2340 -0.0140
 1048PF6-    F215091   4.635   5.157   0.688  0.2652 -0.1761 -0.5100
 1048PF6-    F315092   4.396   5.380   0.641  0.1445  0.1069 -0.7458
 1048PF6-    F415093   4.564   5.346   0.801  0.0410  0.3895 -0.1018
 1048PF6-    F515094   4.469   5.193   0.535 -0.5367  0.1100 -0.4806
 1048PF6-    F615095   4.413   5.183   0.747 -0.0553  0.0780 -0.4501
 1048PF6-    F715096   4.618   5.354   0.572  0.4042 -0.8110  0.0306
 1049PF6-    P115097   0.389   0.554   1.557 -0.0384 -0.4415 -0.1505
 1049PF6-    F215098   0.493   0.670   1.604 -0.7444  0.2578 -0.0190
 1049PF6-    F315099   0.288   0.439   1.506 -0.1494  0.4097 -0.0806
 1049PF6-    F415100   0.351   0.645   1.434  0.1918 -0.2737 -0.1125
 1049PF6-    F515101   0.423   0.471   1.683  0.1673  0.4247  0.2875
 1049PF6-    F615102   0.269   0.625   1.638  0.2547  0.0603  0.0993
 1049PF6-    F715103   0.505   0.480   1.476 -0.3006  0.0243  0.3045
 1050PF6-    P115104   1.096   5.178   1.838  0.3745 -0.3475 -0.3854
 1050PF6-    F215105   0.978   5.184   1.735 -0.4349 -0.2769 -0.2155
 1050PF6-    F315106   1.222   5.170   1.943  0.3748 -0.7967 -0.4316
 1050PF6-    F415107   1.181   5.099   1.725  0.0708  0.1968 -0.1982
 1050PF6-    F515108   1.014   5.265   1.948  0.3668  0.2265 -0.1073
 1050PF6-    F615109   1.039   5.041   1.892 -0.1263 -0.4593 -0.1717
 1050PF6-    F715110   1.148   5.320   1.781 -0.2330  0.2459 -0.4623
 1051PF6-    P115111   1.129   4.106   0.915  0.1403 -0.3224 -0.1842
 1051PF6-    F215112   1.175   4.150   1.062 -0.1806 -0.3388 -0.6903
 1051PF6-    F315113   1.082   4.057   0.777 -0.1195 -0.1178 -0.5465
 1051PF6-    F415114   1.074   4.251   0.886  0.2546 -0.6331 -0.4684
 1051PF6-    F515115   1.183   3.960   0.937 -0.1079 -0.6087  0.0476
 1051PF6-    F615116   0.991   4.057   0.972  0.3764 -0.5272 -0.1967
 1051PF6-    F715117   1.271   4.141   0.849 -0.5537  0.6472 -0.6175
 1052PF6-    P115118   5.494   3.180   1.906 -0.0780 -0.1754  0.4630
 1052PF6-    F215119   5.451   3.138   2.057 -0.2640  0.3974  0.7196
 1052PF6-    F315120   5.534   3.228   1.764 -0.0585  0.5257  0.4644
 1052PF6-    F415121   5.629   3.089   1.922  0.2375  0.3398 -0.6803
 1052PF6-    F515122   5.362   3.269   1.895 -0.8740 -0.0047  0.3334
 1052PF6-    F615123   5.576   3.305   1.963  0.0203 -0.4515  0.3846
 1052PF6-    F715124   5.411   3.057   1.850  0.4884  0.2719 -0.7084
 1053PF6-    P115125   4.224   3.243   1.810 -0.1166 -0.0562  0.7065
 1053PF6-    F215126   4.278   3.327   1.934  0.4952 -0.1940 -0.3181
 1053PF6-    F315127   4.164   3.160   1.686 -0.3020  0.5746  0.2246
 1053PF6-    F415128   4.325   3.124   1.837  0.0360 -0.0617 -0.4017
 1053PF6-    F515129   4.122   3.363   1.781 -0.7740 -0.4027  0.1508
 1053PF6-    F615130   4.339   3.315   1.723  0.5204  0.1376 -0.1161
 1053PF6-    F715131   4.117   3.179   1.914  0.0812 -0.1995  0.2718
 1054PF6-    P115132   3.530   0.068   2.627 -0.0840  0.3514  0.3840
 1054PF6-    F215133   3.691   0.061   2.618 -0.4733  0.7009 -0.1986
 1054PF6-    F315134   3.372   0.076   2.641  0.2827 -0.4548  0.7292
 1054PF6-    F415135   3.540   0.084   2.779 -0.5164 -0.2658 -0.4756
 1054PF6-    F515136   3.512   0.049   2.468  0.1483  0.2615  0.5224
 1054PF6-    F615137   3.521  -0.089   2.646  0.1606  0.4377 -0.0678
 1054PF6-    F715138   3.535   0.227   2.612 -0.1425 -0.5330  0.1231
 1055PF6-    P115139   2.089   3.468   3.282  0.0639  0.0636  0.1486
 1055PF6-    F215140   2.134   3.357   3.172 -0.0408 -0.2548  0.0631
 1055PF6-    F315141   2.048   3.577   3.388  0.1930 -0.1939 -0.4813
 1055PF6-    F415142   2.148   3.582   3.182  0.2175 -0.7796 -0.0091
 1055PF6-    F515143   2.032   3.342   3.369  0.2205 -0.5895  0.0435
 1055PF6-    F615144   2.236   3.453   3.347 -0.1883 -0.4281 -0.5421
 1055PF6-    F715145   1.943   3.476   3.219  0.1824  0.1653  0.4104
 1056PF6-    P115146   1.800   0.025   4.607 -0.0210 -0.0769 -0.3252
 1056PF6-    F215147   1.774  -0.068   4.736  0.1062 -0.7189 -0.0956
 1056PF6-    F315148   1.828   0.112   4.473  0.0815  0.3027  0.0718
 1056PF6-    F415149   1.889  -0.092   4.545  0.1980 -0.2601  0.1568
 1056PF6-    F515150   1.714   0.143   4.676 -0.2357 -0.0555  0.3686
 1056PF6-    F615151   1.930   0.092   4.675  0.3769 -0.2961 -0.0185
 1056PF6-    F715152   1.672  -0.027   4.540  0.1593  0.7044  0.0311
 1057PF6-    P115153   2.985   5.187   1.006  0.2554 -0.3283  0.2391
 1057PF6-    F215154   3.007   5.320   0.922  0.8401 -0.0832 -0.0008
 1057PF6-    F315155   2.955   5.050   1.083  0.0111 -0.2852  0.0000
 1057PF6-    F415156   3.092   5.229   1.117  0.6308  0.1563 -0.1471
 1057PF6-    F515157   2.880   5.149   0.886 -0.0999 -0.3538  0.1223
 1057PF6-    F615158   3.103   5.114   0.919  0.2815 -0.3925 -0.2111
 1057PF6-    F715159   2.868   5.254   1.092  0.5229  0.0018  0.2150
 1058PF6-    P115160   0.815   0.582   0.113 -0.1855 -0.0887  0.0040
 1058PF6-    F215161   0.657   0.608   0.120  0.0443  0.3223  0.1630
 1058PF6-    F315162   0.972   0.558   0.112  0.5209 -0.3545  0.4858
 1058PF6-    F415163   0.828   0.638   0.266  0.1015 -0.4445 -0.1497
 1058PF6-    F515164   0.797   0.528  -0.039  0.1503 -0.1523 -0.5933
 1058PF6-    F615165   0.841   0.737   0.056  0.1401 -0.3517  0.0784
 1058PF6-    F715166   0.792   0.436   0.169  0.2276 -0.2037 -0.3034
 1059PF6-    P115167   2.946   3.857   0.303 -0.3645 -0.4149 -0.2866
 1059PF6-    F215168   2.950   4.006   0.233  0.0821 -0.4613 -0.1375
 1059PF6-    F315169   2.939   3.715   0.378 -0.5958 -0.6680  0.4057
 1059PF6-    F415170   3.016   3.793   0.179  0.2207 -0.4247 -0.4376
 1059PF6-    F515171   2.872   3.928   0.429  0.1286  0.2086 -0.1356
 1059PF6-    F615172   2.807   3.825   0.238 -0.2964 -0.1349  0.2101
 1059PF6-    F715173   3.088   3.889   0.364 -0.0315 -0.2372  0.5269
 1060PF6-    P115174   5.436   3.628   4.970  0.3878 -0.0835  0.1164
 1060PF6-    F215175   5.494   3.775   4.932  0.1237 -0.6658  0.0659
 1060PF6-    F315176   5.382   3.481   5.004  0.4510  0.5721 -0.0767
 1060PF6-    F415177   5.396   3.603   4.816  0.2501 -0.2993 -0.1818
 1060PF6-    F515178   5.473   3.652   5.122 -0.5775  0.2623 -0.1011
 1060PF6-    F615179   5.290   3.690   5.002 -0.4913  0.4680  0.0255
 1060PF6-    F715180   5.582   3.567   4.939 -0.1958 -0.1740  0.1547
 1061PF6-    P115181   1.733   2.064   1.666  0.1306 -0.2494  0.0740
 1061PF6-    F215182   1.788   2.117   1.812  0.0673  0.3583 -0.2198
 1061PF6-    F315183   1.682   2.019   1.523 -0.0279  0.4314  0.1419
 1061PF6-    F415184   1.631   1.970   1.738 -0.1131  0.1090  0.1519
 1061PF6-    F515185   1.835   2.167   1.588  0.1094 -0.2085 -0.1954
 1061PF6-    F615186   1.843   1.945   1.669 -0.2319  0.1464  0.2072
 1061PF6-    F715187   1.623   2.187   1.666  0.5315  0.6070  0.4884
 1062PF6-    P115188   4.086   5.166   1.700  0.1431 -0.4661 -0.1750
 1062PF6-    F215189   3.984   5.268   1.766  0.0248 -0.5584  0.1346
 1062PF6-    F315190   4.193   5.063   1.636 -0.3204 -0.3959  0.1351
 1062PF6-    F415191   4.150   5.134   1.847  1.0322 -0.3060  1.1679
 1062PF6-    F515192   4.022   5.203   1.551  0.1682 -0.1207 -0.4973
 1062PF6-    F615193   4.197   5.286   1.679  0.2272  0.1755 -0.3953
 1062PF6-    F715194   3.976   5.045   1.716  0.2091  0.2261  0.2659
 1063PF6-    P115195   5.012   2.888   5.134  0.3342 -0.3737 -0.0269
 1063PF6-    F215196   4.901   3.001   5.182 -0.2619  0.2081  0.4033
 1063PF6-    F315197   5.129   2.789   5.090 -0.2745 -0.5077  0.2365
 1063PF6-    F415198   4.902   2.768   5.127  0.0677 -0.1335  0.0089
 1063PF6-    F515199   5.127   3.003   5.147  0.2370 -0.9309  0.4190
 1063PF6-    F615200   5.029   2.846   5.290 -0.1168 -0.4030  0.3313
 1063PF6-    F715201   4.989   2.926   4.981 -0.5052 -0.0850 -0.0809
 1064PF6-    P115202   0.208   3.454   4.135  0.2302  0.0214 -0.2876
 1064PF6-    F215203   0.178   3.301   4.111 -0.0900 -0.4257  0.7051
 1064PF6-    F315204   0.238   3.607   4.160 -0.0067  0.1780 -0.5520
 1064PF6-    F415205   0.161   3.492   3.982  0.0910 -0.1087 -0.1298
 1064PF6-    F515206   0.250   3.431   4.292  0.0086  0.0671 -0.4017
 1064PF6-    F615207   0.360   3.430   4.081  0.3802  0.4157  0.0303
 1064PF6-    F715208   0.055   3.471   4.191  0.1604  0.1611 -0.2252
 1065PF6-    P115209   2.521   4.545   2.854 -0.1373 -0.4337 -0.2039
 1065PF6-    F215210   2.677   4.559   2.798  0.0032 -0.2140  0.0939
 1065PF6-    F315211   2.369   4.540   2.902  0.1503  0.3828  0.4367
 1065PF6-    F415212   2.533   4.685   2.931 -0.0049  0.2029  0.6897
 1065PF6-    F515213   2.503   4.406   2.781  0.3691 -0.0557  0.1276
 1065PF6-    F615214   2.581   4.471   2.985 -0.2720  0.1745  0.1865
 1065PF6-    F715215   2.463   4.614   2.726 -0.1385  0.0769  0.1512
 1066PF6-    P115216   0.683   5.427   2.772  0.0701 -0.6464  0.0915
 1066PF6-    F215217   0.646   5.273   2.802  0.0426 -0.1177 -0.3444
 1066PF6-    F315218   0.731   5.579   2.733 -0.6465  0.0966  0.3461
 1066PF6-    F415219   0.525   5.474   2.781  0.0692  0.1377  0.4425
 1066PF6-    F515220   0.833   5.385   2.765  0.6375 -0.3396 -0.3118
 1066PF6-    F615221   0.664   5.399   2.615 -0.4758 -0.0908 -0.0606
 1066PF6-    F715222   0.705   5.467   2.925  0.0009 -0.0888  0.0261
 1067PF6-    P115223   3.799   4.208   0.142  0.2866 -0.1090 -0.3340
 1067PF6-    F215224   3.723   4.337   0.092 -0.2471 -0.3207  0.4780
 1067PF6-    F315225   3.868   4.074   0.188  0.0288  0.0649 -0.5190
 1067PF6-    F415226   3.735   4.226   0.291  0.1424  0.2773 -0.7402
 1067PF6-    F515227   3.859   4.198  -0.004 -0.6285 -0.1863 -0.2299
 1067PF6-    F615228   3.923   4.304   0.184  0.1179  0.1115  0.3869
 1067PF6-    F715229   3.672   4.121   0.093 -0.1865 -0.6365  0.2299
 1068PF6-    P115230   4.407   2.665   3.834  0.1142  0.2247 -0.0197
 1068PF6-    F215231   4.422   2.671   3.993 -0.3819 -0.3937 -0.0274
 1068PF6-    F315232   4.400   2.658   3.674  0.2234 -0.3238 -0.5722
 1068PF6-    F415233   4.560   2.717   3.822  0.0995  0.6141 -0.1373
 1068PF6-    F515234   4.254   2.617   3.849  0.4940  0.7417  0.3934
 1068PF6-    F615235   4.359   2.814   3.835 -0.3631  0.0180  0.2719
 1068PF6-    F715236   4.456   2.511   3.837  0.0246 -0.0136  0.3516
 1069PF6-    P115237   1.079   1.936   0.154  0.3991  0.2667  0.0739
 1069PF6-    F215238   1.212   1.936   0.070 -0.1704  0.0213 -0.0450
 1069PF6-    F315239   0.945   1.930   0.235 -0.3157  0.4727 -0.3141
 1069PF6-    F415240   1.002   1.968   0.019 -0.1033 -0.0625 -0.3706
 1069PF6-    F515241   1.160   1.902   0.293 -0.0380 -0.4319 -0.4571
 1069PF6-    F615242   1.096   2.094   0.186  0.6685  0.3037  0.0241
 1069PF6-    F715243   1.063   1.779   0.132 -0.1590 -0.2426  0.6050
 1070PF6-    P115244   0.883   3.273   2.037 -0.3492 -0.5999  0.4472
 1070PF6-    F215245   0.985   3.289   2.161 -0.5692  0.4212 -0.0609
 1070PF6-    F315246   0.782   3.268   1.917 -0.1654  0.3574 -0.1196
 1070PF6-    F415247   0.981   3.367   1.948  0.6489  0.1068  0.1414
 1070PF6-    F515248   0.785   3.190   2.127 -0.0026 -0.3704  0.1416
 1070PF6-    F615249   0.813   3.410   2.088 -0.1216 -0.1740 -0.4092
 1070PF6-    F715250   0.956   3.142   1.984 -0.2330  0.0450  0.1718
 1071Na+     N115251   0.240   3.706   3.056  0.2616  0.0909 -0.6045
 1072Na+     N115252   1.599   4.700   2.230  0.0755  0.1147  0.0598
 1073Na+     N115253   0.161   1.252   1.373 -0.1775  0.3488 -0.0018
 1074Na+     N115254   2.046   0.444   4.097 -0.2060  0.0066  0.2098
 1075Na+     N115255   3.652   3.311   3.118  0.3116  0.3122  0.3210
 1076Na+     N115256   5.454   4.724   3.343 -0.2249  0.6128 -0.3080
 1077Na+     N115257   1.782   3.580   4.208  0.3578 -0.1749 -0.4284
 1078Na+     N115258   1.109   2.635   2.242  0.0479 -0.5099  0.7955
 1079Na+     N115259   3.477   3.774   0.669  0.1074  0.0169  0.0334
 1080Na+     N115260   5.098   5.142   2.161  0.1295  0.1325  0.2549
 1081Na+     N115261   2.255   2.057   1.301  0.1113  0.5747  0.2990
 1082Na+     N115262   1.990   5.278   4.824  0.9546  0.2451 -0.1818
 1083Na+     N115263   2.644   0.772   2.947  0.2676 -0.1276  0.0850
 1084Na+     N115264   5.105   2.635   4.913 -0.5317  0.0722 -0.3196
 1085Na+     N115265   1.058   3.536   1.788 -0.1628 -0.1272 -0.0544
 1086Na+     N115266   2.088   4.153   0.358 -0.2784 -0.3504  0.1855
 1087Na+     N115267   4.778   3.943   3.007 -0.3107 -0.3100 -0.1775
 1088Na+     N115268   5.289   4.095   3.936 -0.7401  0.0112  0.1361
 1089Na+     N115269   4.803   2.965   2.073  0.0095 -0.3772  0.3770
 1090Na+     N115270   1.699   5.220   3.655 -0.2133 -0.0366  0.0746
 1091Na+     N115271   4.039   0.930   3.480  0.1167 -0.1903 -0.1036
 1092Na+     N115272   5.219   2.691   3.953  0.3862 -0.6273  0.1463
 1093Na+     N115273   3.716   0.673   2.183 -0.1987 -0.2783  0.2897
 1094Na+     N115274   2.377   2.361   4.557 -0.2910 -0.6319 -0.3845
 1095Na+     N115275   1.752   1.871   4.358 -0.1671  0.4406  0.0450
 1096Na+     N115276   5.219   3.946   0.903 -0.1015 -0.4934 -0.4749
 1097Na+     N115277   0.768   2.070   4.385  0.0352 -0.1055 -0.1218
 1098Na+     N115278   2.042   5.178   1.340 -0.0137  0.0381 -0.4029
 1099Na+     N115279   3.270   0.965   0.264 -0.3475 -0.3154 -0.4779
 1100Na+     N115280   4.007   3.133   2.170  0.2350 -0.2116 -0.2225
 1101Na+     N115281   2.704   3.615   3.033  0.0584  0.4946 -0.1656
 1102Na+     N115282   1.292   1.639   5.080  0.5108  0.2681  0.1630
 1103Na+     N115283   0.488   2.910   4.052  0.1227  0.3686 -0.2371
 1104Na+     N115284   0.798   0.577   5.217 -0.1396  0.0119 -0.2837
 1105Na+     N115285   1.288   0.142   2.366  0.0128 -0.1645 -0.0324
 1106Na+     N115286   3.010   3.770   2.132 -0.5520 -0.3479  0.4195
 1107Na+     N115287   2.807   4.592   0.546 -0.0219 -0.4689 -0.2006
 1108Na+     N115288   1.736   2.408   1.741  0.0835  0.2495  0.5172
 1109Na+     N115289   4.876   0.088   0.485  0.2880  0.2555  0.4551
 1110Na+     N115290   4.655   5.076   1.314  0.0089 -0.2169  0.0519
 1111Na+     N115291   0.903   1.300   0.467  0.2173  0.7889 -0.0523
 1112Na+     N115292   2.915   3.503   4.724  0.0838 -0.1609  0.0065
 1113Na+     N115293   2.721   5.485   3.475  0.0673  0.7489 -0.3204
 1114Na+     N115294   0.291   0.019   2.766 -0.2561  0.4976 -0.1472
 1115Na+     N115295   1.381   0.086   0.699  0.1486  0.0439  0.0924
 1116Na+     N115296   3.108   3.912   4.071 -0.4279  0.3240  0.3155
 1117Na+     N115297   4.950   3.595   5.477 -0.4000  0.1379  0.4667
 1118Na+     N115298   1.371   0.390   1.551 -0.0463  0.2603  0.1391
 1119Na+     N115299   3.629   4.811   0.526 -0.1724 -0.3758  0.0730
 1120Na+     N115300   0.645   0.369   0.853 -0.1359 -0.0897 -0.1329
 1121Na+     N115301   1.308   4.743   1.385  0.2680 -0.0475 -0.3898
 1122Na+     N115302   0.187   3.231   1.578 -0.4364  0.0551  0.4215
 1123Na+     N115303   5.174   0.415   1.441 -0.1570 -0.7365 -0.1928
 1124Na+     N115304   1.457   2.826   4.603 -0.0100  0.2698  0.0585
 1125Na+     N115305   2.465   4.529   5.065 -0.0262  0.3705  0.0176
 1126Na+     N115306   4.144   3.607   1.137  0.2717 -0.5632  0.3922
 1127Na+     N115307   4.377   4.218   5.184  0.1379 -0.4789 -0.3233
 1128Na+     N115308   3.476   4.294   5.366 -0.5400 -0.0765 -0.0783
 1129Na+     N115309   4.062   0.361   1.401  0.0428 -0.2893 -0.1489
 1130Na+     N115310   1.137   5.317   4.239 -0.4683 -0.2651 -0.2586
 1131Na+     N115311   1.792   1.308   2.782 -0.3930  0.0381  0.1464
 1132Na+     N115312   4.865   2.238   0.803  0.1038 -0.1255 -0.0942
 1133Na+     N115313   4.308   1.910   3.708 -0.3450  0.2456 -0.2282
 1134Na+     N115314   3.827   0.418   0.554  0.6696  0.4069  0.0151
 1135Na+     N115315   0.569   0.692   4.087 -0.0025  0.1527 -0.3419
 1136Na+     N115316   3.073   4.981   4.407  0.0365 -0.0198 -0.0496
 1137Na+     N115317   1.837   1.003   1.429 -0.1201 -0.0586 -0.1286
 1138Na+     N115318   0.951   2.812   0.158  0.0359 -0.4494  0.0250
 1139Na+     N115319   2.520   5.355   0.644 -0.1207  0.1533 -0.5797
 1140Na+     N115320   0.965   4.480   0.671 -0.0497  0.1051 -0.0351
 1141Na+     N115321   4.511   4.130   1.170 -0.1851  0.3190 -0.4693
 1142Na+     N115322   3.463   4.547   4.612 -0.3233  0.0048  0.1451
 1143Na+     N115323   1.069   2.190   1.272 -0.2665 -0.2958  0.1218
 1144Na+     N115324   4.292   1.296   1.885 -0.9179  0.7383 -0.4023
 1145Na+     N115325   2.669   2.477   0.735  0.1510  0.5008 -0.3109
 1146Na+     N115326   3.191   2.760   1.484 -0.2286  0.0212 -0.1647
 1147Na+     N115327   2.223   3.075   0.419 -0.1286 -0.1804 -0.0752
 1148Na+     N115328   1.713   1.657   0.633 -0.2099 -0.3422 -0.3162
 1149Na+     N115329   0.818   2.023   2.213 -0.1936  0.1908 -0.0675
 1150Na+     N115330   0.905   4.182   2.368  0.2999 -0.6444  0.7205
 1151Na+     N115331   2.069   1.118   5.378 -0.3402 -0.5941  0.1666
 1152Na+     N115332   5.026   1.531   2.023  0.7435  0.3221  0.4058
 1153Na+     N115333   4.253   2.467   4.032 -0.0802 -0.3569  0.0396
 1154Na+     N115334   2.145   3.323   2.494  0.2314 -0.4840 -0.3582
 1155Na+     N115335   0.328   2.792   2.535 -0.2668 -0.1866  0.1318
 1156Na+     N115336   5.426   1.074   0.245 -0.1217 -0.6427  0.1313
 1157Na+     N115337   4.884   0.961   2.779 -0.0901 -0.2352  0.2628
 1158Na+     N115338   4.984   3.666   1.754 -0.4682 -0.0580 -0.2464
 1159Na+     N115339   3.016   0.269   1.531  0.0010 -0.2821 -0.1096
 1160Na+     N115340   2.743   4.770   2.162 -0.3258 -0.5405  0.2555
 1161Na+     N115341   4.470   3.108   3.258  0.2791 -0.1401 -0.2316
 1162Na+     N115342   0.318   2.046   3.654  0.1320  0.5591 -0.0025
 1163Na+     N115343   2.093   4.153   3.232  0.3830  0.1304  0.1581
 1164Na+     N115344   0.152   3.076   0.658  0.0592  0.5847 -0.3509
 1165Na+     N115345   4.821   1.232   5.149  0.6053  0.0056 -0.1116
 1166Na+     N115346   2.013   0.475   2.421  0.6721 -0.1950 -0.3769
 1167Na+     N115347   0.567   3.481   4.670 -0.2599 -0.2439  0.1682
 1168Na+     N115348   3.299   4.815   2.727  0.2783  0.2815 -0.6680
 1169Na+     N115349   1.551   3.118   3.695 -0.6495 -0.7166  0.0446
 1170Na+     N115350   4.336   3.586   3.660 -0.0041 -0.0974  0.0118
   5.49792   5.49792   5.49792
