DG-THF-PF6-Na    Amber RESP
15370
    1DG      C1    1   3.088   5.392   3.630  0.5910 -0.6756 -0.1889
    1DG      C2    2   2.772   5.504   4.208 -0.4764  0.7599 -0.8337
    1DG      H3    3   3.190   5.355   3.646  0.1968 -2.1088 -0.8388
    1DG      H4    4   3.074   5.421   3.526  0.5868 -1.0914 -0.3053
    1DG      H5    5   3.026   5.306   3.653  1.1231 -0.6632  1.4660
    1DG      H6    6   2.671   5.541   4.221 -1.2570 -1.5965  0.5704
    1DG      H7    7   2.759   5.399   4.180 -1.6206  0.9972 -1.2226
    1DG      H8    8   2.823   5.519   4.304 -0.1085  0.6582 -1.0094
    1DG      O9    9   3.055   5.496   3.730  0.5839  0.3185 -0.4833
    1DG     O10   10   2.854   5.570   4.107 -0.1910 -0.0183  0.1954
    1DG     C11   11   3.146   5.608   3.743  0.2557  0.0988  0.3003
    1DG     C12   12   2.903   5.699   4.155 -0.3017  0.9612  0.1239
    1DG     H13   13   3.173   5.654   3.647 -0.3177 -2.7823 -1.3554
    1DG     H14   14   3.235   5.566   3.791  0.3481  0.7358  0.7017
    1DG     H15   15   2.980   5.676   4.229 -1.6942 -0.3147  1.2401
    1DG     H16   16   2.823   5.759   4.198 -0.8287  0.3681 -0.0313
    1DG     C17   17   3.087   5.720   3.836  0.4214  0.0696 -0.0424
    1DG     C18   18   2.965   5.766   4.029  0.0804  0.1343  0.0557
    1DG     O19   19   3.020   5.671   3.946 -0.1355 -0.3813  0.5270
    1DG     H20   20   3.017   5.782   3.779  0.2477  1.1003  1.2283
    1DG     H21   21   3.165   5.791   3.863  0.2815  0.1718  0.0953
    1DG     H22   22   2.877   5.816   3.987 -0.3262 -0.1717  0.5239
    1DG     H23   23   3.033   5.847   4.056  0.9952 -0.6763  0.2450
    2DG      C1   24   3.091   1.703   5.255 -0.9210  0.6710  0.1561
    2DG      C2   25   2.877   1.360   5.291 -0.4124  0.2115  0.3209
    2DG      H3   26   3.048   1.621   5.198 -0.8757  0.1142  0.9126
    2DG      H4   27   3.154   1.672   5.338 -1.1017 -0.4741 -0.1196
    2DG      H5   28   3.161   1.751   5.186 -0.6396  0.0951  0.0358
    2DG      H6   29   2.867   1.266   5.346 -1.3219  0.9597  1.4792
    2DG      H7   30   2.974   1.358   5.241  0.0737  0.9770  1.2145
    2DG      H8   31   2.844   1.440   5.357 -1.7222  0.3242 -0.4160
    2DG      O9   32   2.999   1.788   5.310  0.4450 -0.9041 -0.3964
    2DG     O10   33   2.774   1.332   5.200 -0.8839 -0.6687  0.0199
    2DG     C11   34   2.897   1.824   5.216  0.3227 -0.1787 -0.2336
    2DG     C12   35   2.758   1.418   5.084 -0.3456 -0.1903 -0.0909
    2DG     H13   36   2.929   1.809   5.113  0.7093  1.2653 -0.3397
    2DG     H14   37   2.879   1.931   5.224  1.0066 -0.1380  0.9639
    2DG     H15   38   2.683   1.370   5.020 -1.4101 -0.5212  1.3388
    2DG     H16   39   2.856   1.426   5.037 -0.6385 -0.3505 -0.7497
    2DG     C17   40   2.767   1.759   5.240 -0.0931  1.0365  0.2676
    2DG     C18   41   2.710   1.562   5.116  0.3876 -0.2799  0.0231
    2DG     O19   42   2.796   1.622   5.211  0.1334 -0.0894 -0.2820
    2DG     H20   43   2.685   1.790   5.175 -1.3577 -2.8067 -0.2258
    2DG     H21   44   2.734   1.781   5.341 -1.1138  1.2397 -0.0968
    2DG     H22   45   2.701   1.609   5.018 -0.0871 -1.5644 -0.5727
    2DG     H23   46   2.612   1.573   5.163 -0.5340  0.7167 -2.0099
    3DG      C1   47   4.619   0.113   0.950  0.2677 -0.4280 -0.6495
    3DG      C2   48   5.172  -0.284   0.946  0.4718 -0.3525 -0.0172
    3DG      H3   49   4.662   0.211   0.930  0.2472 -0.0284  1.1305
    3DG      H4   50   4.632   0.090   1.056  1.2697  0.8015 -0.4878
    3DG      H5   51   4.511   0.119   0.934  0.2826  0.3770 -0.4619
    3DG      H6   52   5.257  -0.215   0.941 -0.9257  1.4279 -0.1406
    3DG      H7   53   5.151  -0.301   1.051  1.1699  0.7851  0.3248
    3DG      H8   54   5.204  -0.382   0.910 -2.4538 -1.8901  1.3055
    3DG      O9   55   4.679   0.015   0.870 -0.4923 -0.3354 -0.2282
    3DG     O10   56   5.060  -0.241   0.871  0.2295 -0.4542  0.0144
    3DG     C11   57   4.678   0.040   0.728  0.7029  0.4575  0.9615
    3DG     C12   58   5.089  -0.185   0.743 -0.3308 -0.2610  0.1301
    3DG     H13   59   4.737   0.127   0.701  1.4872 -0.4271 -0.2599
    3DG     H14   60   4.577   0.051   0.689 -0.9367 -1.0050  4.2945
    3DG     H15   61   5.159  -0.259   0.703 -1.2064 -1.6512  1.0968
    3DG     H16   62   5.128  -0.083   0.740 -0.5286 -0.1936 -0.3129
    3DG     C17   63   4.758  -0.066   0.659  0.4466  0.2365 -0.1422
    3DG     C18   64   4.963  -0.177   0.648  0.4575  0.3985  0.0361
    3DG     O19   65   4.882  -0.074   0.709 -0.4963 -0.3195 -0.2889
    3DG     H20   66   4.764  -0.051   0.551  2.1705 -0.7901 -0.2375
    3DG     H21   67   4.703  -0.160   0.665 -0.2335  0.7143  1.5828
    3DG     H22   68   4.988  -0.135   0.550  0.0327  0.0118 -0.2467
    3DG     H23   69   4.913  -0.273   0.632  0.8057  0.4376 -1.5101
    4DG      C1   70   2.864   0.972   0.804  0.4706 -0.6165  0.3661
    4DG      C2   71   2.890   1.582   1.078 -0.2165 -0.6819 -0.6436
    4DG      H3   72   2.845   0.910   0.717 -2.0782 -0.8689  1.0260
    4DG      H4   73   2.766   1.017   0.817  0.7685  0.1354  0.0563
    4DG      H5   74   2.893   0.905   0.886 -0.4459 -1.8761 -0.3195
    4DG      H6   75   2.859   1.537   1.172  1.9470 -1.1320 -0.0765
    4DG      H7   76   2.954   1.664   1.110 -0.8293  1.1791 -3.8092
    4DG      H8   77   2.800   1.623   1.033 -0.8429  0.9734  1.9263
    4DG      O9   78   2.949   1.081   0.780 -0.1367  0.0704 -0.1551
    4DG     O10   79   2.964   1.491   0.999 -0.6379 -0.1030 -0.0508
    4DG     C11   80   2.929   1.153   0.656 -0.1852  1.0206  0.3490
    4DG     C12   81   3.016   1.568   0.889  0.0242  0.1423  0.0317
    4DG     H13   82   2.826   1.184   0.640  0.0858  0.9859 -1.6478
    4DG     H14   83   2.955   1.100   0.565 -0.7286  1.7050 -0.2194
    4DG     H15   84   3.083   1.651   0.915 -1.3902  0.6518  2.2839
    4DG     H16   85   2.929   1.620   0.849 -0.5099  0.5359  1.6122
    4DG     C17   86   3.022   1.278   0.657 -0.1558 -0.4339  0.0626
    4DG     C18   87   3.080   1.483   0.779 -0.1563  1.2397 -0.1709
    4DG     O19   88   3.005   1.363   0.778  0.5731  0.4341  0.4635
    4DG     H20   89   2.991   1.339   0.573  0.3065 -0.2726  0.0016
    4DG     H21   90   3.126   1.254   0.631  0.0180 -0.3569  0.6639
    4DG     H22   91   3.088   1.537   0.685 -0.1885  3.2639  0.9209
    4DG     H23   92   3.182   1.454   0.804 -0.5488  0.2245  0.3215
    5DG      C1   93   0.021   1.310   2.073 -0.8602  0.8057 -0.0703
    5DG      C2   94  -0.220   1.894   2.277  0.4349 -0.0051  0.4000
    5DG      H3   95   0.055   1.296   1.971 -1.9588 -0.3415 -0.2973
    5DG      H4   96  -0.025   1.220   2.114  0.4463 -0.6622 -1.7025
    5DG      H5   97   0.105   1.333   2.138  1.1579 -0.0407 -2.2472
    5DG      H6   98  -0.264   1.993   2.280  0.5674  0.0507  0.4740
    5DG      H7   99  -0.216   1.859   2.380 -1.8501  1.5021  1.0761
    5DG      H8  100  -0.118   1.892   2.239 -0.0379  0.6293 -1.0015
    5DG      O9  101  -0.084   1.409   2.078 -0.6958  0.2670 -0.6654
    5DG     O10  102  -0.300   1.793   2.214  0.1775 -0.1654 -0.3797
    5DG     C11  103  -0.176   1.389   1.974  0.4298  0.1944 -0.0825
    5DG     C12  104  -0.318   1.809   2.071 -0.7909  0.0998  0.2726
    5DG     H13  105  -0.241   1.308   2.008  0.5354  0.0375 -0.2556
    5DG     H14  106  -0.128   1.347   1.885  1.7755  0.7967  0.3309
    5DG     H15  107  -0.227   1.824   2.012 -0.6732  0.7294  0.6101
    5DG     H16  108  -0.379   1.898   2.060 -0.5948  0.2169  0.1113
    5DG     C17  109  -0.256   1.514   1.936  0.7796  0.4715 -0.6274
    5DG     C18  110  -0.400   1.685   2.021  0.0013 -0.3020 -0.1511
    5DG     O19  111  -0.333   1.563   2.044 -0.0560  0.2292  0.1923
    5DG     H20  112  -0.318   1.487   1.850 -1.0410  0.8822  0.5064
    5DG     H21  113  -0.189   1.590   1.895  1.2937 -0.7934 -2.2527
    5DG     H22  114  -0.490   1.692   2.082 -0.8156 -0.5159 -1.2947
    5DG     H23  115  -0.430   1.696   1.917 -0.8941 -1.2558 -0.0156
    6DG      C1  116   3.709   5.276   4.751  0.4226  0.5640  0.2879
    6DG      C2  117   4.345   5.104   4.573 -0.4194 -0.6006 -0.2216
    6DG      H3  118   3.669   5.321   4.841  0.5634  2.0586 -0.3792
    6DG      H4  119   3.690   5.168   4.754  0.2451  0.6137  2.0456
    6DG      H5  120   3.650   5.317   4.670  1.6020 -1.5372 -1.7724
    6DG      H6  121   4.424   5.133   4.504  0.6945  2.0283  1.9596
    6DG      H7  122   4.366   5.016   4.635  1.6365 -0.3938 -0.5525
    6DG      H8  123   4.268   5.074   4.503 -2.6416  2.7669  0.5734
    6DG      O9  124   3.846   5.286   4.734 -0.2642 -0.4287  0.6465
    6DG     O10  125   4.295   5.208   4.650  0.2542  0.4517 -0.2786
    6DG     C11  126   3.893   5.423   4.747  0.1140  0.0835 -0.2462
    6DG     C12  127   4.172   5.162   4.702  0.0021 -0.1129 -0.3309
    6DG     H13  128   3.879   5.462   4.848 -3.3215  0.5953 -0.7861
    6DG     H14  129   3.829   5.489   4.688 -2.7240 -0.2284  2.2469
    6DG     H15  130   4.187   5.064   4.746 -0.1367  0.7257  1.6993
    6DG     H16  131   4.089   5.154   4.632 -1.5858  1.8172  1.1819
    6DG     C17  132   4.037   5.428   4.697 -0.7460 -0.1555 -0.3917
    6DG     C18  133   4.143   5.254   4.823  0.5971  1.1723  0.7407
    6DG     O19  134   4.132   5.392   4.796 -0.5280  0.1718  0.1107
    6DG     H20  135   4.060   5.533   4.679 -1.5844 -0.1300 -1.3693
    6DG     H21  136   4.046   5.376   4.602 -1.6367 -1.6945  0.3277
    6DG     H22  137   4.049   5.219   4.865  0.5370  2.1812  1.4726
    6DG     H23  138   4.209   5.241   4.909  1.5508 -0.8829 -0.2104
    7DG      C1  139   3.201   0.375   0.806  0.2599 -0.6683  0.2708
    7DG      C2  140   3.627   0.708   0.510  0.2184 -0.5719 -0.2588
    7DG      H3  141   3.220   0.306   0.724  0.7907 -0.4806  0.2269
    7DG      H4  142   3.097   0.406   0.806  0.3581 -0.3164  1.3682
    7DG      H5  143   3.221   0.312   0.892 -0.3927 -1.0272  0.1640
    7DG      H6  144   3.520   0.729   0.511  0.1497 -0.6051 -2.5921
    7DG      H7  145   3.692   0.783   0.466  2.8254 -2.2934  0.4123
    7DG      H8  146   3.637   0.626   0.439 -0.8448 -0.0697 -1.0158
    7DG      O9  147   3.286   0.493   0.789  0.3763 -0.6135 -0.2764
    7DG     O10  148   3.679   0.670   0.630  0.2851  0.4397 -0.2907
    7DG     C11  149   3.265   0.592   0.893 -0.3995  0.3912  0.9833
    7DG     C12  150   3.698   0.765   0.741  0.7585  0.4123 -0.0198
    7DG     H13  151   3.287   0.549   0.991 -1.0941 -0.2155  0.8832
    7DG     H14  152   3.160   0.619   0.898 -0.1601  1.8811 -0.8933
    7DG     H15  153   3.745   0.856   0.703  0.2229  1.0627  0.8091
    7DG     H16  154   3.767   0.729   0.817  0.0803 -1.2014 -0.1275
    7DG     C17  155   3.343   0.714   0.861  0.0063 -0.0371 -0.5344
    7DG     C18  156   3.557   0.796   0.813 -0.4712  0.6325 -0.1537
    7DG     O19  157   3.474   0.679   0.823  0.1928 -0.0737  0.0570
    7DG     H20  158   3.347   0.779   0.948  1.7666 -2.1463  1.1023
    7DG     H21  159   3.290   0.778   0.791  2.0624  3.2269  0.6499
    7DG     H22  160   3.574   0.831   0.914  0.7216 -2.3820  0.7974
    7DG     H23  161   3.501   0.863   0.747 -0.4587 -0.8604 -1.7733
    8DG      C1  162   1.041   3.155   3.737  0.0979 -0.3711 -0.1061
    8DG      C2  163   0.931   3.252   2.852 -0.4270 -0.7522 -0.2043
    8DG      H3  164   1.150   3.151   3.732  0.2201  1.6474  0.2336
    8DG      H4  165   1.019   3.088   3.821  0.0279 -0.5285 -0.2511
    8DG      H5  166   1.021   3.258   3.764  0.4770 -0.0791 -0.9281
    8DG      H6  167   0.863   3.338   2.853 -1.2575 -1.3915  0.9937
    8DG      H7  168   1.020   3.276   2.794 -0.1390  0.1149  0.5589
    8DG      H8  169   0.877   3.178   2.793  0.5399 -1.6390 -0.0131
    8DG      O9  170   0.985   3.100   3.615  0.4181 -0.4046 -0.2273
    8DG     O10  171   0.976   3.203   2.978  0.0913  0.1903  0.0746
    8DG     C11  172   1.028   3.171   3.503  0.7668 -0.1232 -0.2659
    8DG     C12  173   0.867   3.142   3.045  1.0196  0.2561  0.1118
    8DG     H13  174   1.135   3.184   3.511  0.9912 -1.7435 -0.3395
    8DG     H14  175   0.980   3.269   3.505 -1.0166 -0.9407 -0.5359
    8DG     H15  176   0.803   3.075   2.988  1.8464 -0.3130 -0.1636
    8DG     H16  177   0.798   3.220   3.077  0.4442  0.4059 -1.4197
    8DG     C17  178   0.970   3.101   3.386  0.0134  0.9177 -0.9836
    8DG     C18  179   0.912   3.057   3.160 -0.1293  0.2741 -0.7229
    8DG     O19  180   0.958   3.158   3.255 -0.3793  0.6726 -0.4215
    8DG     H20  181   0.874   3.057   3.415  0.7596 -0.0267  0.1034
    8DG     H21  182   1.031   3.011   3.381  1.2898  1.5874  1.4263
    8DG     H22  183   0.836   2.989   3.200  0.0367 -0.3321 -1.4239
    8DG     H23  184   0.992   2.987   3.137 -2.2369 -1.8792 -2.0585
    9DG      C1  185   4.767   2.694   0.240  0.3453  0.1001  0.3599
    9DG      C2  186   4.691   2.691   0.945  0.3418  0.6040  0.1190
    9DG      H3  187   4.721   2.688   0.142  1.4929 -0.7113 -0.1660
    9DG      H4  188   4.854   2.631   0.218 -0.1712 -0.0790 -1.2420
    9DG      H5  189   4.790   2.800   0.249  0.8149 -0.0582  1.2028
    9DG      H6  190   4.779   2.628   0.960 -1.6371 -1.8779  2.5067
    9DG      H7  191   4.725   2.793   0.928 -0.6020  0.9623  0.3395
    9DG      H8  192   4.616   2.681   1.023 -1.6097 -0.3443 -1.7706
    9DG      O9  193   4.688   2.669   0.354  0.7489  0.2240  0.0131
    9DG     O10  194   4.631   2.648   0.830 -0.1615 -0.5561 -0.2822
    9DG     C11  195   4.654   2.524   0.358 -0.6489  0.5451 -0.5237
    9DG     C12  196   4.586   2.514   0.834  0.3933 -0.1443  0.3686
    9DG     H13  197   4.744   2.467   0.379 -1.1289 -0.0164  0.0500
    9DG     H14  198   4.597   2.499   0.268 -1.2456 -0.0523  0.0157
    9DG     H15  199   4.508   2.509   0.909 -0.8096  1.8855 -0.6694
    9DG     H16  200   4.667   2.442   0.848 -0.6355 -0.7531  4.0488
    9DG     C17  201   4.557   2.491   0.473 -0.2921  0.0083 -0.9250
    9DG     C18  202   4.513   2.495   0.705 -0.3018  0.1265 -0.0871
    9DG     O19  203   4.615   2.519   0.604  0.2300 -0.5275 -0.1150
    9DG     H20  204   4.540   2.383   0.465  0.9895 -0.3489  0.7052
    9DG     H21  205   4.460   2.539   0.460 -0.2911 -0.0318 -1.0798
    9DG     H22  206   4.460   2.400   0.698 -1.4363  0.7404 -0.1100
    9DG     H23  207   4.431   2.566   0.697 -2.1194 -1.7288  1.1890
   10DG      C1  208   3.418   4.272   1.998  0.0200 -0.4851 -0.1798
   10DG      C2  209   3.241   4.592   2.526 -0.7923  0.4611  0.8022
   10DG      H3  210   3.405   4.192   2.071  1.8823 -1.1186 -0.5045
   10DG      H4  211   3.475   4.240   1.911 -0.6013  1.4672 -1.3432
   10DG      H5  212   3.322   4.294   1.951  0.9715  0.3252 -1.8095
   10DG      H6  213   3.222   4.691   2.486  0.2557 -0.0224 -1.0090
   10DG      H7  214   3.156   4.528   2.504  0.6798 -2.7941  3.5878
   10DG      H8  215   3.243   4.601   2.635 -0.3931 -4.3491  1.4337
   10DG      O9  216   3.474   4.390   2.059 -0.4766  0.2781  0.1495
   10DG     O10  217   3.367   4.550   2.480 -0.5026  0.2151  0.3313
   10DG     C11  218   3.604   4.374   2.121  0.0691  0.3004 -0.1310
   10DG     C12  219   3.396   4.427   2.547  0.8202 -0.0673  0.5179
   10DG     H13  220   3.651   4.471   2.139 -0.3052  0.1888  1.6301
   10DG     H14  221   3.667   4.321   2.050 -2.7419 -2.1214 -1.0045
   10DG     H15  222   3.314   4.360   2.523  3.0056 -2.2329 -1.3708
   10DG     H16  223   3.404   4.446   2.654 -0.5089 -0.3830  0.6902
   10DG     C17  224   3.606   4.307   2.258 -0.6012 -0.0483 -0.0110
   10DG     C18  225   3.515   4.368   2.480 -1.4507 -0.1480 -0.2956
   10DG     O19  226   3.513   4.379   2.338  0.5728  0.1484 -0.2218
   10DG     H20  227   3.704   4.311   2.306 -0.1310  0.4439 -0.9940
   10DG     H21  228   3.580   4.203   2.237  0.9295 -0.5290  0.3276
   10DG     H22  229   3.607   4.404   2.525 -2.4765 -0.4568  2.1826
   10DG     H23  230   3.522   4.262   2.505 -0.4365 -0.9893 -3.6477
   11DG      C1  231   2.474   3.413   1.309 -0.9596  0.5666  0.1940
   11DG      C2  232   2.452   4.041   1.410 -0.0396 -0.0947 -0.2811
   11DG      H3  233   2.455   3.307   1.289  2.4979 -0.2783  0.8124
   11DG      H4  234   2.500   3.425   1.414  0.7536  1.3380 -0.2899
   11DG      H5  235   2.559   3.432   1.244  0.2794 -0.6803  1.3893
   11DG      H6  236   2.409   4.127   1.359 -0.4694  0.8179  1.5334
   11DG      H7  237   2.451   4.056   1.518 -0.2625  0.6589 -0.3850
   11DG      H8  238   2.542   4.005   1.359  0.1921  0.8645 -0.5705
   11DG      O9  239   2.368   3.499   1.286  0.2383 -0.0112 -0.3048
   11DG     O10  240   2.372   3.933   1.376 -0.3623  0.0448 -0.5851
   11DG     C11  241   2.248   3.449   1.356 -0.0562  0.2403  0.0826
   11DG     C12  242   2.254   3.912   1.436 -0.3993  0.0430  0.2316
   11DG     H13  243   2.274   3.438   1.461  1.8260  1.9952 -0.1385
   11DG     H14  244   2.204   3.361   1.309 -1.6166  1.3132 -0.5846
   11DG     H15  245   2.201   4.007   1.441 -0.6904 -0.1284  0.4794
   11DG     H16  246   2.267   3.869   1.536 -1.1925  0.5091  0.5395
   11DG     C17  247   2.157   3.575   1.342 -0.3597 -0.3319  0.9333
   11DG     C18  248   2.172   3.811   1.354  0.4125  0.2961 -0.8086
   11DG     O19  249   2.232   3.689   1.392  0.0019 -0.0626 -0.4945
   11DG     H20  250   2.077   3.565   1.415  0.5227 -0.6580  1.8644
   11DG     H21  251   2.124   3.594   1.240  3.0435  2.2449  0.1208
   11DG     H22  252   2.067   3.816   1.382  0.6153  2.6533 -0.2951
   11DG     H23  253   2.179   3.811   1.245  2.2811 -2.7309 -0.8162
   12DG      C1  254   3.970   5.442   3.810 -0.2626  0.2854  0.0177
   12DG      C2  255   4.512   5.842   3.877 -0.0083  0.4644 -0.0034
   12DG      H3  256   3.890   5.483   3.748 -0.6582  0.4789  0.6480
   12DG      H4  257   3.938   5.361   3.876  1.8039  0.7147  1.6543
   12DG      H5  258   4.038   5.402   3.735  0.9707  0.0382  1.2250
   12DG      H6  259   4.506   5.814   3.772 -0.9854  1.1521 -0.1485
   12DG      H7  260   4.541   5.947   3.879  2.1168 -0.0708 -0.6099
   12DG      H8  261   4.583   5.771   3.920  0.8346 -0.1542 -2.2560
   12DG      O9  262   4.030   5.532   3.900 -0.0556  0.2016  0.3732
   12DG     O10  263   4.379   5.845   3.931 -0.5893  0.5437 -0.2782
   12DG     C11  264   3.957   5.640   3.955 -0.3561  0.0881 -0.2628
   12DG     C12  265   4.375   5.856   4.075  0.1846  0.3010  0.1100
   12DG     H13  266   3.864   5.586   3.976  0.8048 -2.1594 -0.5846
   12DG     H14  267   3.940   5.715   3.878 -0.6348  0.3501  0.0539
   12DG     H15  268   4.411   5.955   4.104  0.8201  0.9200 -2.5170
   12DG     H16  269   4.443   5.786   4.124  0.8875  2.0297  1.7458
   12DG     C17  270   4.032   5.693   4.077  0.0486 -0.5010 -0.3901
   12DG     C18  271   4.227   5.831   4.116 -0.1983  0.5180  0.0918
   12DG     O19  272   4.161   5.728   4.035 -0.9592  0.3002  0.3696
   12DG     H20  273   4.030   5.616   4.155  1.3507 -1.2299 -1.0327
   12DG     H21  274   3.979   5.776   4.124 -0.2897 -1.0570  0.2440
   12DG     H22  275   4.229   5.812   4.223  1.4535  0.7787  0.1277
   12DG     H23  276   4.175   5.924   4.094  0.4608  0.9390  0.2751
   13DG      C1  277   0.589   4.587   3.029  0.0625  0.1020  0.2441
   13DG      C2  278   0.338   4.467   2.572  0.9837  0.0126  0.1358
   13DG      H3  279   0.635   4.564   3.125 -1.9814 -1.0595  1.0145
   13DG      H4  280   0.483   4.575   3.050 -0.3341  1.1634 -1.0744
   13DG      H5  281   0.598   4.695   3.019  0.2418 -0.1378 -3.0415
   13DG      H6  282   0.405   4.552   2.563  2.0984 -0.8677 -0.1055
   13DG      H7  283   0.244   4.497   2.525  0.5842  0.3043  1.0937
   13DG      H8  284   0.319   4.442   2.676 -0.4604 -0.1304 -0.1402
   13DG      O9  285   0.640   4.499   2.935 -0.4252  0.6901  0.0997
   13DG     O10  286   0.383   4.355   2.492 -0.1526  0.0190  0.2448
   13DG     C11  287   0.581   4.366   2.940 -0.0074  0.1775 -0.3054
   13DG     C12  288   0.524   4.348   2.474  0.2624  0.5995  0.1618
   13DG     H13  289   0.472   4.372   2.941 -0.1340 -1.0886 -1.9467
   13DG     H14  290   0.605   4.325   3.038 -1.3842  0.2212  0.0627
   13DG     H15  291   0.576   4.441   2.449  2.2765 -0.4251  0.3461
   13DG     H16  292   0.535   4.296   2.379 -0.3438  1.4250 -0.3729
   13DG     C17  293   0.625   4.279   2.818  0.1514  0.7155 -0.0839
   13DG     C18  294   0.593   4.260   2.582 -0.6767  0.1656  0.1252
   13DG     O19  295   0.587   4.338   2.701  0.1662 -1.0758  0.1454
   13DG     H20  296   0.578   4.181   2.820 -0.6250  1.0841  0.0982
   13DG     H21  297   0.733   4.263   2.818 -0.1116 -1.1857  0.2615
   13DG     H22  298   0.562   4.157   2.602  0.7389 -1.0204 -3.0019
   13DG     H23  299   0.699   4.255   2.557 -0.2572  0.2189  1.7761
   14DG      C1  300   3.171   1.886   0.622 -0.1167  0.0112 -0.4425
   14DG      C2  301   3.385   2.380   0.182 -0.1083 -0.1899  0.2734
   14DG      H3  302   3.279   1.888   0.635 -0.0799 -1.0079 -0.5289
   14DG      H4  303   3.150   1.808   0.549 -3.1385 -0.6804  0.9922
   14DG      H5  304   3.126   1.871   0.720  0.6678 -1.2108 -0.2397
   14DG      H6  305   3.480   2.334   0.208 -0.7498 -1.1662  0.9373
   14DG      H7  306   3.352   2.327   0.092  2.6203 -1.9439  0.2073
   14DG      H8  307   3.391   2.488   0.167  1.1783 -0.4132 -1.0367
   14DG      O9  308   3.132   2.009   0.563 -0.4795  0.3175  0.6756
   14DG     O10  309   3.291   2.344   0.283  0.1228 -0.0325 -0.6600
   14DG     C11  310   3.129   2.118   0.655 -0.1572  0.2825  0.8179
   14DG     C12  311   3.160   2.393   0.273  0.3865  0.6566 -0.1381
   14DG     H13  312   3.231   2.135   0.689  0.1040 -1.4820  1.0454
   14DG     H14  313   3.068   2.082   0.739 -0.0815 -0.3625  0.6031
   14DG     H15  314   3.103   2.326   0.208 -1.6757  0.9963  1.2245
   14DG     H16  315   3.145   2.486   0.219 -1.7742  0.7421  0.4818
   14DG     C17  316   3.054   2.237   0.595 -0.0683 -0.2920  0.5002
   14DG     C18  317   3.085   2.385   0.404 -0.1758 -0.3577 -0.3748
   14DG     O19  318   3.106   2.255   0.462 -0.1061 -0.2538 -0.2477
   14DG     H20  319   3.070   2.326   0.656  1.1345  0.4258 -0.8128
   14DG     H21  320   2.945   2.224   0.596 -0.1359  0.2238  0.5238
   14DG     H22  321   3.118   2.464   0.470 -1.0379  0.5232 -0.9798
   14DG     H23  322   2.979   2.404   0.389  0.0171  1.5941  0.4036
   15DG      C1  323   2.647   3.835   0.691 -0.2698 -1.5882  0.5990
   15DG      C2  324   1.937   3.646   0.300 -0.5809  0.2506  0.0374
   15DG      H3  325   2.607   3.935   0.711 -1.0311 -1.6594 -0.4753
   15DG      H4  326   2.683   3.835   0.589 -1.1232 -1.3845  0.2855
   15DG      H5  327   2.736   3.829   0.753  0.9163  1.8571 -0.5318
   15DG      H6  328   2.008   3.702   0.239 -0.6201 -0.2492 -0.4707
   15DG      H7  329   1.900   3.574   0.227 -0.0378  0.0819 -0.0828
   15DG      H8  330   1.857   3.712   0.332  0.1446  1.0973  0.1407
   15DG      O9  331   2.547   3.736   0.711  0.1496  0.0829 -0.3692
   15DG     O10  332   2.014   3.589   0.402 -0.1271  0.8115 -0.2368
   15DG     C11  333   2.437   3.754   0.621 -0.0019 -0.2412 -0.4700
   15DG     C12  334   2.122   3.505   0.359 -0.6897 -0.1303 -0.3993
   15DG     H13  335   2.464   3.797   0.525 -0.0808 -0.6117 -0.6592
   15DG     H14  336   2.363   3.829   0.649  1.1941  0.7244  0.2104
   15DG     H15  337   2.175   3.553   0.277 -0.2623  1.7150  0.8927
   15DG     H16  338   2.081   3.413   0.319  2.5877 -1.1945 -1.6701
   15DG     C17  339   2.368   3.618   0.613 -0.4038 -0.6846 -0.0260
   15DG     C18  340   2.220   3.482   0.472 -0.3207  0.0458 -0.4784
   15DG     O19  341   2.302   3.600   0.488  0.2168 -0.0175 -0.4934
   15DG     H20  342   2.306   3.619   0.702 -0.7818 -0.4539 -0.2904
   15DG     H21  343   2.449   3.546   0.627  0.4673 -0.3062 -2.5046
   15DG     H22  344   2.172   3.457   0.567 -0.9374  2.3145 -0.1393
   15DG     H23  345   2.283   3.397   0.445 -0.0146  0.0508  0.2045
   16DG      C1  346   0.647   1.301   4.424 -0.0462 -0.0507  0.3418
   16DG      C2  347  -0.072   1.159   4.546  0.3215  0.7628 -0.2993
   16DG      H3  348   0.573   1.348   4.360 -0.6539 -2.8056 -1.1278
   16DG      H4  349   0.716   1.248   4.358 -0.7112 -0.0089 -0.4017
   16DG      H5  350   0.688   1.383   4.483  0.2250  0.5584 -0.6683
   16DG      H6  351  -0.081   1.261   4.586  1.6737  0.4446  0.8937
   16DG      H7  352  -0.117   1.150   4.447 -1.4789  0.8298  0.4844
   16DG      H8  353  -0.128   1.086   4.604  1.8151 -1.7634 -1.8488
   16DG      O9  354   0.568   1.220   4.514  0.2467 -0.1224 -0.5002
   16DG     O10  355   0.058   1.112   4.544  0.4576 -0.1538 -0.4521
   16DG     C11  356   0.542   1.087   4.464 -0.1113 -0.5307 -0.2428
   16DG     C12  357   0.111   1.104   4.678 -0.8421  0.1793  0.7458
   16DG     H13  358   0.625   1.016   4.459  0.9241  0.4766  1.5510
   16DG     H14  359   0.504   1.093   4.362 -1.2931  0.9233  0.2493
   16DG     H15  360   0.042   1.054   4.746 -1.9460  0.7593  0.0807
   16DG     H16  361   0.142   1.197   4.727 -0.6664 -0.2043  1.3867
   16DG     C17  362   0.439   1.019   4.551 -0.0646  0.1669 -0.0132
   16DG     C18  363   0.239   1.027   4.662  0.5348  0.5248  0.4866
   16DG     O19  364   0.313   1.090   4.561  0.3314  0.0715  0.0138
   16DG     H20  365   0.488   1.016   4.648  2.9182 -1.8875 -1.4245
   16DG     H21  366   0.420   0.915   4.526 -1.8065  0.1788  1.1220
   16DG     H22  367   0.286   1.015   4.760 -0.5970 -0.7719  0.9006
   16DG     H23  368   0.225   0.925   4.624 -1.9285  0.9997 -0.0007
   17DG      C1  369   2.110   3.105   5.436  0.6838 -0.4100  0.1218
   17DG      C2  370   2.626   3.513   5.475 -0.1296  0.2886  0.1583
   17DG      H3  371   2.006   3.086   5.463 -0.3073  0.4396 -2.7204
   17DG      H4  372   2.169   3.040   5.500  0.0517 -2.6909 -1.5089
   17DG      H5  373   2.129   3.059   5.339  0.0925 -1.6398  0.5724
   17DG      H6  374   2.677   3.417   5.469 -0.4649  0.1824 -2.0719
   17DG      H7  375   2.685   3.598   5.439  0.4128 -0.1262  0.0628
   17DG      H8  376   2.613   3.535   5.581  0.9304  0.7369  0.2016
   17DG      O9  377   2.149   3.243   5.428  0.5398  0.2203  0.2831
   17DG     O10  378   2.494   3.505   5.422  0.2884  0.5252  0.7653
   17DG     C11  379   2.064   3.318   5.340 -0.1064  0.3161 -0.3578
   17DG     C12  380   2.419   3.623   5.424  0.1248  0.1740 -0.5880
   17DG     H13  381   1.957   3.297   5.350  0.1438 -0.8841 -0.1290
   17DG     H14  382   2.093   3.273   5.245  1.3128 -1.3452  0.8132
   17DG     H15  383   2.466   3.715   5.390  0.7530  0.2069  0.3410
   17DG     H16  384   2.393   3.635   5.529 -0.3571 -0.4304 -0.6290
   17DG     C17  385   2.107   3.464   5.347  0.1279  0.4265  0.2479
   17DG     C18  386   2.287   3.614   5.347  0.7360 -0.7995  0.4974
   17DG     O19  387   2.240   3.482   5.378 -0.3183 -0.3158  0.6056
   17DG     H20  388   2.033   3.512   5.412 -2.7834 -0.3861 -2.2348
   17DG     H21  389   2.081   3.504   5.249 -0.0685  0.4507  0.3100
   17DG     H22  390   2.213   3.688   5.379 -0.3050 -1.4391 -0.3568
   17DG     H23  391   2.307   3.626   5.241 -0.3891 -0.7377  0.2808
   18DG      C1  392   1.835   2.362   1.232  0.5102  0.1999 -0.3070
   18DG      C2  393   1.617   2.844   1.614  0.8230  0.1583 -0.4094
   18DG      H3  394   1.763   2.380   1.152 -0.0374  1.0908  0.3738
   18DG      H4  395   1.880   2.265   1.211 -0.3477 -0.3710  0.4171
   18DG      H5  396   1.910   2.439   1.216  0.1610  0.1940 -2.2184
   18DG      H6  397   1.517   2.869   1.578  0.6189  1.5581  1.0352
   18DG      H7  398   1.625   2.914   1.698  1.2039 -0.1289 -0.2045
   18DG      H8  399   1.694   2.871   1.541 -0.8087  3.7478 -1.0327
   18DG      O9  400   1.769   2.366   1.364  0.1070 -0.2861  0.0616
   18DG     O10  401   1.615   2.703   1.636  0.3561 -0.0306  0.0924
   18DG     C11  402   1.843   2.301   1.464  0.0411 -0.1190 -0.4255
   18DG     C12  403   1.711   2.666   1.734  0.1277  0.4083  0.3708
   18DG     H13  404   1.946   2.335   1.462  0.1219 -0.0538  1.9226
   18DG     H14  405   1.855   2.195   1.439  2.3488 -0.0030  0.0339
   18DG     H15  406   1.675   2.695   1.833 -2.9991  1.3692 -0.9145
   18DG     H16  407   1.809   2.712   1.723 -1.0799  3.0370 -0.2205
   18DG     C17  408   1.783   2.330   1.604  0.0096 -0.0362  0.3761
   18DG     C18  409   1.731   2.507   1.745  0.0250  0.2325  0.1385
   18DG     O19  410   1.764   2.467   1.615 -0.9402  0.5533  0.8090
   18DG     H20  411   1.852   2.298   1.682 -1.4567 -1.5322  1.1139
   18DG     H21  412   1.691   2.274   1.621  0.1514 -0.2583  0.4144
   18DG     H22  413   1.817   2.480   1.806 -0.1472 -2.0349 -0.5462
   18DG     H23  414   1.640   2.455   1.777 -0.1026  0.7820  0.6791
   19DG      C1  415   4.803   0.656   4.795  0.2591 -0.1382 -0.1691
   19DG      C2  416   5.058  -0.014   4.948 -0.5219  0.0096 -0.0143
   19DG      H3  417   4.855   0.595   4.869  0.1713 -1.7950 -1.3990
   19DG      H4  418   4.758   0.734   4.856 -1.0852 -1.3939  0.5194
   19DG      H5  419   4.874   0.708   4.731  1.2240  1.1544  1.8555
   19DG      H6  420   5.135   0.052   4.909 -0.1455 -0.7319 -0.5533
   19DG      H7  421   5.110  -0.068   5.027 -0.6484 -1.3833 -0.8373
   19DG      H8  422   5.045  -0.098   4.880 -1.0859  0.7945 -0.9059
   19DG      O9  423   4.718   0.574   4.716 -0.0135 -0.4022  0.8327
   19DG     O10  424   4.942   0.071   4.992  0.5091 -0.5117  0.2316
   19DG     C11  425   4.610   0.510   4.786 -0.6521 -0.1460 -0.6965
   19DG     C12  426   4.879   0.134   4.884 -0.4452  0.7007 -0.5901
   19DG     H13  427   4.564   0.442   4.715 -1.4079  0.1407 -0.4957
   19DG     H14  428   4.539   0.584   4.825  1.4720  2.5661 -1.6882
   19DG     H15  429   4.824   0.060   4.824  0.1009 -0.9005  0.8052
   19DG     H16  430   4.956   0.190   4.830  1.3371 -0.1934  0.9304
   19DG     C17  431   4.651   0.422   4.907  0.1257 -0.6868  0.2163
   19DG     C18  432   4.773   0.235   4.944  0.2355  0.1584 -0.1407
   19DG     O19  433   4.733   0.324   4.849 -0.3659  0.1574  0.2517
   19DG     H20  434   4.568   0.370   4.957  0.2879  0.9369  2.3128
   19DG     H21  435   4.714   0.472   4.980  0.0409 -2.5369  1.6137
   19DG     H22  436   4.680   0.191   4.981 -0.4459  0.4627 -1.4396
   19DG     H23  437   4.815   0.288   5.029  0.2147 -2.0612  1.3442
   20DG      C1  438   4.112   0.933   3.148  0.2558  0.0615  0.2835
   20DG      C2  439   3.577   1.127   3.493 -0.3837 -0.2919 -0.0478
   20DG      H3  440   4.219   0.916   3.136  0.2862  1.3691 -1.6236
   20DG      H4  441   4.096   1.023   3.089 -1.8284 -0.7265 -0.4283
   20DG      H5  442   4.041   0.869   3.096  2.0048 -1.7220 -0.0397
   20DG      H6  443   3.505   1.103   3.571 -1.1170  0.4066 -0.4866
   20DG      H7  444   3.637   1.215   3.517  0.2157 -0.2317 -1.6467
   20DG      H8  445   3.515   1.137   3.404 -0.0935  1.3843 -0.1011
   20DG      O9  446   4.069   0.957   3.282 -0.3730 -0.2024  0.1841
   20DG     O10  447   3.665   1.017   3.482  0.0866 -0.1029 -0.0765
   20DG     C11  448   4.105   0.842   3.355  0.5359 -0.0724 -0.9391
   20DG     C12  449   3.739   0.997   3.601  0.5895  0.4036 -0.2774
   20DG     H13  450   4.214   0.841   3.358  0.5580  1.6380 -0.6408
   20DG     H14  451   4.073   0.749   3.307 -0.5667 -1.9291  2.9243
   20DG     H15  452   3.668   0.995   3.684 -1.5311 -0.4753 -2.0019
   20DG     H16  453   3.811   1.078   3.606  1.0096 -0.0349  1.8428
   20DG     C17  454   4.034   0.852   3.491  0.4941 -0.2707 -1.3113
   20DG     C18  455   3.820   0.863   3.595  0.2644 -0.4181  0.9615
   20DG     O19  456   3.896   0.868   3.470  0.0022  0.0746  0.4119
   20DG     H20  457   4.072   0.941   3.542 -1.1074 -0.2196 -0.1074
   20DG     H21  458   4.055   0.769   3.559  0.3831  0.9038  0.2355
   20DG     H22  459   3.888   0.852   3.679  1.3584 -0.7061  0.0804
   20DG     H23  460   3.740   0.791   3.579 -0.3450  0.4757 -0.1858
   21DG      C1  461   2.557   0.024   3.891 -0.0145 -0.5106  0.3432
   21DG      C2  462   3.117  -0.099   4.147 -0.3144  0.8458 -0.2776
   21DG      H3  463   2.501   0.009   3.983 -1.2030 -2.1721 -0.5815
   21DG      H4  464   2.481   0.016   3.813  0.3644 -1.5657  0.0539
   21DG      H5  465   2.609   0.120   3.890  0.6754 -0.8694 -0.7190
   21DG      H6  466   3.211  -0.150   4.167 -0.2489  1.0531 -0.0586
   21DG      H7  467   3.133   0.006   4.124  0.1996  1.7971  3.6600
   21DG      H8  468   3.065  -0.093   4.243  0.3737 -0.9024  0.2581
   21DG      O9  469   2.656  -0.078   3.861 -0.1715 -0.6053  0.5390
   21DG     O10  470   3.053  -0.165   4.040 -0.0914 -0.8373  0.4420
   21DG     C11  471   2.610  -0.211   3.864 -0.4815  0.3396  0.2999
   21DG     C12  472   3.021  -0.299   4.077  0.3899 -0.5979  0.1158
   21DG     H13  473   2.538  -0.218   3.783 -0.7722  1.0482  0.4855
   21DG     H14  474   2.569  -0.232   3.963 -0.4167 -2.0432 -0.1219
   21DG     H15  475   2.962  -0.290   4.168 -1.3466  1.5324 -1.1502
   21DG     H16  476   3.104  -0.369   4.090 -0.1097 -1.2745 -0.3013
   21DG     C17  477   2.731  -0.308   3.847 -0.0563 -0.2801 -0.0125
   21DG     C18  478   2.930  -0.356   3.970  0.4345 -0.0204 -0.1037
   21DG     O19  479   2.812  -0.281   3.963  0.1680 -0.4432 -0.3734
   21DG     H20  480   2.796  -0.291   3.761 -0.0743  1.2598  0.2468
   21DG     H21  481   2.710  -0.414   3.857  1.6346 -0.5562  1.0320
   21DG     H22  482   2.989  -0.356   3.879  1.6171  0.5013  0.6358
   21DG     H23  483   2.887  -0.455   3.988 -0.1559 -0.0802 -1.7127
   22DG      C1  484   2.133   1.006   0.920  1.1631 -0.1392  0.4215
   22DG      C2  485   2.647   0.597   0.811 -0.3357  0.1400 -0.1680
   22DG      H3  486   2.125   1.113   0.899  1.4341 -0.2464 -0.2522
   22DG      H4  487   2.047   0.968   0.975  0.8479  0.5825  0.4386
   22DG      H5  488   2.118   0.966   0.820  1.2235 -0.5710  0.5826
   22DG      H6  489   2.673   0.493   0.831 -1.3146  0.2046  1.6490
   22DG      H7  490   2.600   0.591   0.713 -2.2779 -1.1715  0.8010
   22DG      H8  491   2.748   0.632   0.789 -1.0633  2.5064 -0.0246
   22DG      O9  492   2.258   0.968   0.979  0.4117 -0.4880 -0.0445
   22DG     O10  493   2.566   0.662   0.904  0.0176 -0.2442 -0.6120
   22DG     C11  494   2.255   0.955   1.121 -0.2474  0.8475  0.6010
   22DG     C12  495   2.649   0.698   1.016  0.4355 -0.0217  0.2108
   22DG     H13  496   2.199   0.866   1.152  1.8351 -0.0341  2.1705
   22DG     H14  497   2.202   1.042   1.159  0.4642  1.1101  1.0176
   22DG     H15  498   2.754   0.695   0.986 -0.4410 -0.0115 -3.2722
   22DG     H16  499   2.636   0.626   1.098 -0.7493  0.2101  0.2510
   22DG     C17  500   2.402   0.936   1.164 -0.1664  0.1253  0.2332
   22DG     C18  501   2.598   0.829   1.081  0.3728 -0.6243 -0.7141
   22DG     O19  502   2.456   0.824   1.098  0.2693  0.3434  0.3414
   22DG     H20  503   2.411   0.913   1.270  0.5552  0.8403  0.3323
   22DG     H21  504   2.460   1.026   1.144  2.2725 -1.2403  0.8903
   22DG     H22  505   2.662   0.849   1.168 -1.0640 -2.1603  0.7845
   22DG     H23  506   2.620   0.904   1.006  2.0444 -0.1548  0.1905
   23DG      C1  507   3.157   2.416   4.829 -0.4805 -0.7015  0.3521
   23DG      C2  508   2.725   2.524   5.321  0.1582  0.5833  0.1145
   23DG      H3  509   3.099   2.501   4.794  1.5276 -0.1205 -1.8073
   23DG      H4  510   3.172   2.338   4.754  0.9398  0.0909 -0.2202
   23DG      H5  511   3.255   2.462   4.839  0.5667 -1.7962 -3.2910
   23DG      H6  512   2.633   2.486   5.278 -0.2983 -0.7705  2.1445
   23DG      H7  513   2.707   2.521   5.429  1.1101 -1.7022  0.2845
   23DG      H8  514   2.746   2.623   5.280  0.1320  1.2813  1.7180
   23DG      O9  515   3.105   2.357   4.949  0.7735 -0.2277  0.0022
   23DG     O10  516   2.830   2.433   5.288 -0.3373 -0.5870  0.5411
   23DG     C11  517   3.207   2.288   5.024  0.4099 -0.0965 -0.0762
   23DG     C12  518   2.949   2.466   5.362 -0.0150 -0.6242 -0.1874
   23DG     H13  519   3.291   2.356   5.036  0.4499 -0.1414 -0.1016
   23DG     H14  520   3.241   2.205   4.962 -1.6873 -0.1508 -1.2672
   23DG     H15  521   2.932   2.502   5.463 -0.1228  1.1381 -0.7960
   23DG     H16  522   2.984   2.558   5.315 -2.2266  0.0299 -0.6920
   23DG     C17  523   3.150   2.242   5.161  0.1722  0.0602  0.3509
   23DG     C18  524   3.052   2.354   5.353  0.4125 -0.4880  0.1740
   23DG     O19  525   3.106   2.362   5.222 -0.0447 -0.1485  0.2088
   23DG     H20  526   3.231   2.202   5.222  0.1552 -0.0421  0.3084
   23DG     H21  527   3.069   2.170   5.144  0.3479  0.0034 -0.2959
   23DG     H22  528   3.135   2.377   5.419  1.0367 -0.9107 -0.4524
   23DG     H23  529   3.004   2.259   5.377 -0.1956  0.2009  1.8771
   24DG      C1  530   2.061   3.711   2.943 -0.2940  0.0744  0.1493
   24DG      C2  531   2.567   2.995   3.078  0.1133 -0.3269  0.0268
   24DG      H3  532   1.967   3.669   2.979 -0.3640  1.1664  1.3183
   24DG      H4  533   2.060   3.748   2.841  0.5988  0.5271  0.2903
   24DG      H5  534   2.071   3.801   3.004 -1.0945 -0.7166  1.4831
   24DG      H6  535   2.479   2.947   3.035 -0.6963  1.2026 -0.1303
   24DG      H7  536   2.632   2.971   2.994 -0.5008  1.5328 -1.0490
   24DG      H8  537   2.608   2.951   3.168  0.6136  0.7211  0.3307
   24DG      O9  538   2.168   3.615   2.971 -0.4937 -0.0538  0.3336
   24DG     O10  539   2.539   3.130   3.103 -0.0614  0.0556  0.5828
   24DG     C11  540   2.302   3.655   2.940 -0.2083 -0.4673 -0.3629
   24DG     C12  541   2.445   3.193   3.015  0.2867  0.8057 -0.2604
   24DG     H13  542   2.317   3.755   2.981 -1.7258 -0.1467 -0.5336
   24DG     H14  543   2.313   3.661   2.831  2.2726  1.3014 -0.1149
   24DG     H15  544   2.344   3.165   3.046  1.5977 -0.2611  3.6586
   24DG     H16  545   2.459   3.167   2.910 -1.6209 -0.5234 -0.2464
   24DG     C17  546   2.409   3.561   3.005 -0.6772 -0.8171  0.1192
   24DG     C18  547   2.473   3.339   3.039 -0.0976 -0.3080 -0.0068
   24DG     O19  548   2.378   3.421   2.978 -0.3897 -0.5394 -0.1106
   24DG     H20  549   2.404   3.580   3.112  0.8860 -0.3019  0.1312
   24DG     H21  550   2.506   3.587   2.963  0.1182 -0.2494  2.1997
   24DG     H22  551   2.477   3.361   3.146 -0.0639  0.3056 -0.1316
   24DG     H23  552   2.571   3.361   2.996 -0.3715  1.5950  0.2818
   25DG      C1  553   0.183   1.927   4.951  0.9383 -0.0392  0.0362
   25DG      C2  554   0.490   2.496   4.849 -0.3347 -0.4768  0.2507
   25DG      H3  555   0.150   1.828   4.981  0.6358 -0.2632 -0.9868
   25DG      H4  556   0.171   1.939   4.843  2.4356  0.4918 -0.0996
   25DG      H5  557   0.110   1.997   4.992 -0.0314 -1.9979  1.8697
   25DG      H6  558   0.558   2.573   4.885  1.3888 -1.0732 -1.5826
   25DG      H7  559   0.494   2.503   4.741 -0.9031 -0.2124  0.2419
   25DG      H8  560   0.387   2.518   4.880  0.2331  4.6762 -0.6873
   25DG      O9  561   0.319   1.962   4.990 -0.0783 -0.1860 -0.1990
   25DG     O10  562   0.520   2.370   4.900 -0.5692 -0.1494  0.4840
   25DG     C11  563   0.415   1.908   4.902  0.2939  0.1461  0.1347
   25DG     C12  564   0.646   2.325   4.861 -0.3273  0.1543 -0.1644
   25DG     H13  565   0.399   1.939   4.799 -0.8347 -2.3492 -0.5215
   25DG     H14  566   0.415   1.799   4.904 -0.4132 -0.0006 -2.6126
   25DG     H15  567   0.724   2.385   4.908 -0.3653 -1.0137  1.4638
   25DG     H16  568   0.656   2.326   4.752  0.6376  0.7670 -0.0825
   25DG     C17  569   0.555   1.962   4.937 -0.2667 -0.5553  0.2048
   25DG     C18  570   0.659   2.183   4.919  0.8537  0.1165 -0.2940
   25DG     O19  571   0.552   2.096   4.885 -0.6708 -0.6118  0.0837
   25DG     H20  572   0.635   1.903   4.893 -0.2295 -3.5953  3.8358
   25DG     H21  573   0.568   1.964   5.046  0.9723  0.4004  0.0629
   25DG     H22  574   0.752   2.129   4.903 -0.6896 -2.3704 -1.4257
   25DG     H23  575   0.658   2.202   5.027 -2.6664  2.2964 -0.5309
   26DG      C1  576   0.599   4.058   5.094 -0.4284  0.0395  0.2615
   26DG      C2  577   0.752   4.646   5.398  0.1474 -0.7474 -0.2846
   26DG      H3  578   0.517   4.035   5.162 -1.9314  2.7606 -0.4924
   26DG      H4  579   0.699   4.056   5.138  1.0351  1.2935 -2.7087
   26DG      H5  580   0.600   3.987   5.011  0.9295  1.3692 -0.9217
   26DG      H6  581   0.786   4.742   5.359  0.1564 -0.2288  0.9625
   26DG      H7  582   0.674   4.661   5.473 -0.5536  1.8366 -1.4082
   26DG      H8  583   0.833   4.595   5.451 -0.9782 -2.6792 -0.3499
   26DG      O9  584   0.587   4.188   5.035  0.5781  0.4213 -0.5437
   26DG     O10  585   0.720   4.560   5.288 -0.0707 -0.6927 -0.2468
   26DG     C11  586   0.708   4.225   4.965  0.8792 -0.2329  0.0053
   26DG     C12  587   0.601   4.591   5.217  0.2535  0.6952  0.2228
   26DG     H13  588   0.718   4.158   4.880 -0.5495  0.2340 -0.5592
   26DG     H14  589   0.802   4.207   5.017  0.2150 -2.6222  0.4679
   26DG     H15  590   0.617   4.691   5.175 -3.1845  2.6937  3.0820
   26DG     H16  591   0.508   4.589   5.273 -0.3376 -3.3140 -0.6273
   26DG     C17  592   0.703   4.372   4.932  0.2027 -0.3186 -0.3009
   26DG     C18  593   0.595   4.479   5.119 -0.5308 -0.1262  0.4939
   26DG     O19  594   0.717   4.464   5.047 -0.0271 -0.5881  0.1216
   26DG     H20  595   0.616   4.398   4.872  2.1912  2.1200 -2.3458
   26DG     H21  596   0.784   4.383   4.861  2.3563  2.1613  2.3225
   26DG     H22  597   0.582   4.379   5.162  1.3527  0.9185  3.8421
   26DG     H23  598   0.514   4.501   5.051  0.5297  0.9273 -0.4571
   27DG      C1  599   1.163   2.818   4.923 -0.3183  0.4024  0.2288
   27DG      C2  600   1.149   3.381   5.260  0.4795 -0.1989 -0.3352
   27DG      H3  601   1.244   2.746   4.915 -2.5579 -2.2850 -0.0226
   27DG      H4  602   1.088   2.781   4.853  0.1595  1.4384 -0.8752
   27DG      H5  603   1.130   2.794   5.024  1.4050 -1.3886  0.4280
   27DG      H6  604   1.238   3.374   5.323  1.5025 -2.0475 -1.8965
   27DG      H7  605   1.122   3.487   5.251  0.0567 -0.2471  0.2674
   27DG      H8  606   1.060   3.332   5.299 -1.7686  1.3522 -3.1779
   27DG      O9  607   1.201   2.954   4.907 -0.3486  0.3771  0.0357
   27DG     O10  608   1.179   3.329   5.135  0.3604  0.3301  0.3539
   27DG     C11  609   1.255   2.993   4.780  0.3753 -0.2054 -0.1087
   27DG     C12  610   1.300   3.369   5.077 -0.2675  0.3122 -0.0195
   27DG     H13  611   1.201   2.941   4.700  0.1321 -1.9263  1.1180
   27DG     H14  612   1.360   2.967   4.773  1.2467  3.1053 -0.7573
   27DG     H15  613   1.374   3.299   5.117 -0.1057  0.5914  0.1689
   27DG     H16  614   1.337   3.471   5.085  1.8689 -0.3041 -1.2245
   27DG     C17  615   1.250   3.148   4.788  0.0062 -0.2876 -0.5037
   27DG     C18  616   1.293   3.325   4.931  0.1957  0.4214  0.7069
   27DG     O19  617   1.277   3.186   4.915 -0.1480  0.0648 -0.1801
   27DG     H20  618   1.145   3.169   4.768 -0.2215 -0.9088  0.0006
   27DG     H21  619   1.310   3.187   4.706  0.5290  0.8372  0.3809
   27DG     H22  620   1.207   3.375   4.888  0.1719 -0.4937 -0.3481
   27DG     H23  621   1.382   3.359   4.879 -0.0745  0.1106  0.0298
   28DG      C1  622   0.161   4.130   3.751  0.2516 -0.1476  0.3686
   28DG      C2  623  -0.471   4.133   3.475  0.8095  0.0974 -0.0930
   28DG      H3  624   0.214   4.174   3.667 -0.3021  0.2111  0.2018
   28DG      H4  625   0.230   4.079   3.819  0.2007  1.4144  1.6504
   28DG      H5  626   0.112   4.203   3.815 -0.6526  0.9473 -1.4893
   28DG      H6  627  -0.525   4.096   3.388  1.1554 -0.0656 -0.2374
   28DG      H7  628  -0.533   4.166   3.559 -0.1911  3.7251 -2.0439
   28DG      H8  629  -0.418   4.221   3.439 -2.3152  0.6868 -3.9489
   28DG      O9  630   0.067   4.045   3.697  0.4263 -0.3231  0.2292
   28DG     O10  631  -0.370   4.049   3.526 -0.2744 -0.1374  0.3599
   28DG     C11  632   0.017   3.948   3.790 -0.2059  0.2991  0.0308
   28DG     C12  633  -0.424   3.931   3.585  0.0678 -0.1486 -0.6184
   28DG     H13  634  -0.032   4.004   3.869 -0.2139 -1.5982  1.4206
   28DG     H14  635   0.106   3.897   3.827 -0.4474 -1.0475 -1.1700
   28DG     H15  636  -0.484   3.875   3.515 -1.2792  0.1665  0.2555
   28DG     H16  637  -0.488   3.951   3.671  3.3758  0.7122  1.8876
   28DG     C17  638  -0.085   3.850   3.733 -0.0953 -0.1577  0.6114
   28DG     C18  639  -0.293   3.850   3.627  0.4533  0.8490  0.3110
   28DG     O19  640  -0.193   3.931   3.685  0.0732  0.2173  0.4689
   28DG     H20  641  -0.128   3.789   3.813 -0.6153 -0.8575 -0.1915
   28DG     H21  642  -0.044   3.782   3.659 -3.6366 -1.2984 -0.4951
   28DG     H22  643  -0.327   3.767   3.689 -0.5619  0.5953 -0.5581
   28DG     H23  644  -0.240   3.802   3.544  1.7190 -0.6099  1.9024
   29DG      C1  645   0.878   0.009   4.743  0.0596 -0.2191  0.2875
   29DG      C2  646   0.446  -0.427   5.206  0.6591 -0.2461  0.1153
   29DG      H3  647   0.868   0.077   4.659  2.1750  0.0430  0.1907
   29DG      H4  648   0.956  -0.063   4.716 -0.9772 -1.6386  0.9654
   29DG      H5  649   0.923   0.066   4.824  0.7135 -0.6902  0.2728
   29DG      H6  650   0.351  -0.420   5.152  0.1179 -2.1580  0.7421
   29DG      H7  651   0.456  -0.519   5.263  0.3017  0.7067  1.7823
   29DG      H8  652   0.436  -0.366   5.295  0.0712 -2.7063  1.8572
   29DG      O9  653   0.772  -0.077   4.773  0.2506 -0.5118 -0.1359
   29DG     O10  654   0.564  -0.386   5.141 -0.0768  0.4114  0.0654
   29DG     C11  655   0.657  -0.006   4.804 -0.1975 -0.0595 -0.5245
   29DG     C12  656   0.575  -0.427   5.003  0.3509 -0.0842  0.2786
   29DG     H13  657   0.634   0.065   4.724 -2.0092  1.1194  0.9459
   29DG     H14  658   0.670   0.052   4.895 -0.1279  0.9476 -1.1629
   29DG     H15  659   0.535  -0.528   4.995 -0.0727  0.0257  0.9671
   29DG     H16  660   0.679  -0.444   4.973  0.5508  0.3925  0.6726
   29DG     C17  661   0.550  -0.106   4.822  0.1470 -0.8876  0.2236
   29DG     C18  662   0.523  -0.321   4.911 -0.1430 -0.6299 -0.6324
   29DG     O19  663   0.596  -0.201   4.917 -0.0256 -0.4565 -0.6891
   29DG     H20  664   0.522  -0.138   4.722 -1.3893  1.6860 -0.2838
   29DG     H21  665   0.462  -0.054   4.862  0.9027  0.9826 -0.4398
   29DG     H22  666   0.508  -0.358   4.810 -1.1018 -0.2946 -0.6190
   29DG     H23  667   0.424  -0.294   4.948  0.3209  0.4563 -0.1509
   30DG      C1  668   0.355   4.485   4.844 -0.2136 -0.3208  1.2480
   30DG      C2  669   0.348   4.505   4.102  0.2734  0.1456 -0.6255
   30DG      H3  670   0.387   4.388   4.882 -1.4142 -2.7364 -3.1254
   30DG      H4  671   0.249   4.468   4.826  0.2045 -1.7940 -0.0549
   30DG      H5  672   0.351   4.556   4.927 -0.3334 -1.2993  2.0918
   30DG      H6  673   0.264   4.573   4.085 -0.5498 -0.6693  0.0559
   30DG      H7  674   0.420   4.508   4.020 -1.5545  1.4650 -2.2790
   30DG      H8  675   0.310   4.403   4.106  1.1659 -0.2647 -1.9179
   30DG      O9  676   0.434   4.532   4.739  0.3115 -0.0083  0.0992
   30DG     O10  677   0.415   4.543   4.223 -0.2210  0.1915  0.2472
   30DG     C11  678   0.376   4.653   4.697 -0.5390  0.5982  0.1006
   30DG     C12  679   0.452   4.676   4.224 -0.3247 -0.0485 -0.6283
   30DG     H13  680   0.365   4.724   4.779 -2.6028  0.4348  0.0216
   30DG     H14  681   0.273   4.642   4.664  0.3283 -0.9923 -2.3796
   30DG     H15  682   0.371   4.750   4.225  1.1828  1.6786 -0.3444
   30DG     H16  683   0.520   4.693   4.141 -1.0925 -0.6967 -1.3989
   30DG     C17  684   0.473   4.715   4.588  0.1693 -0.1304 -0.6754
   30DG     C18  685   0.523   4.702   4.354 -0.4264 -0.1352 -0.1396
   30DG     O19  686   0.449   4.652   4.467  0.2256  0.0531 -0.0805
   30DG     H20  687   0.576   4.688   4.611  0.4116  0.6684 -0.8139
   30DG     H21  688   0.455   4.822   4.587  1.3056  0.2131  2.7973
   30DG     H22  689   0.622   4.655   4.363  0.4686  1.6433 -0.2723
   30DG     H23  690   0.543   4.809   4.363 -0.5446 -0.0624 -0.7193
   31DG      C1  691   0.478   1.284   2.115  0.7357  0.0048 -0.0908
   31DG      C2  692   0.716   1.309   1.422 -0.2962  0.4637  0.2791
   31DG      H3  693   0.570   1.229   2.138  1.6244  1.4770  0.0335
   31DG      H4  694   0.387   1.232   2.145  0.7974  0.9048  1.8089
   31DG      H5  695   0.475   1.365   2.188 -1.1600  0.1653 -0.3016
   31DG      H6  696   0.757   1.390   1.361  0.0822  2.5556  3.1252
   31DG      H7  697   0.772   1.319   1.514  0.4169  0.2495 -0.1232
   31DG      H8  698   0.734   1.208   1.385 -0.1552  0.0515  1.4289
   31DG      O9  699   0.477   1.340   1.983 -0.0833 -0.5768 -0.0469
   31DG     O10  700   0.572   1.301   1.449  0.1763  0.3525  0.0977
   31DG     C11  701   0.556   1.453   1.964  0.3438 -0.4004  0.1452
   31DG     C12  702   0.510   1.427   1.469 -0.3472  0.5977 -0.0441
   31DG     H13  703   0.660   1.419   1.962 -0.7234 -4.2248 -2.3306
   31DG     H14  704   0.537   1.531   2.037  0.1304 -1.5117  1.3246
   31DG     H15  705   0.402   1.418   1.479 -0.1030 -0.2861  2.4695
   31DG     H16  706   0.513   1.488   1.379 -0.3825 -1.2160 -1.3206
   31DG     C17  707   0.523   1.521   1.826 -0.5903 -0.7771 -0.0971
   31DG     C18  708   0.554   1.501   1.591 -0.1279 -0.0998  0.8019
   31DG     O19  709   0.535   1.436   1.710 -0.2509 -0.9571  0.0651
   31DG     H20  710   0.592   1.604   1.807 -2.3332  0.1286 -3.1919
   31DG     H21  711   0.421   1.558   1.813 -0.0021  0.8318 -0.3553
   31DG     H22  712   0.659   1.525   1.574 -0.3747  0.4697  0.0779
   31DG     H23  713   0.492   1.591   1.585  0.6486  0.3166 -1.8669
   32DG      C1  714   2.635   1.209   0.968  0.8040  0.8463  0.5312
   32DG      C2  715   3.277   1.072   1.021 -1.1401  0.0018  0.3266
   32DG      H3  716   2.574   1.119   0.978 -0.1273  1.5278  1.1290
   32DG      H4  717   2.664   1.231   0.866  2.3563 -3.3541 -0.1044
   32DG      H5  718   2.577   1.297   0.996  1.8387  1.6245  0.2670
   32DG      H6  719   3.246   1.049   0.919  2.4095 -3.5814 -0.1855
   32DG      H7  720   3.360   1.142   1.026 -0.7705 -0.4902  1.3250
   32DG      H8  721   3.313   0.979   1.066 -0.8732  0.5043  1.1743
   32DG      O9  722   2.753   1.190   1.040 -0.5634 -0.6329  0.1078
   32DG     O10  723   3.160   1.117   1.095 -0.7161  0.4592 -0.3837
   32DG     C11  724   2.733   1.202   1.183  0.9810  0.6675 -0.1310
   32DG     C12  725   3.197   1.180   1.218  0.0207 -0.0991  0.6368
   32DG     H13  726   2.655   1.131   1.210  0.3354  1.2968 -0.2868
   32DG     H14  727   2.684   1.298   1.201  0.5797  0.7379 -1.4399
   32DG     H15  728   3.237   1.279   1.196  0.9789 -0.5561  0.2522
   32DG     H16  729   3.277   1.120   1.262  0.9654  0.2375 -0.5371
   32DG     C17  730   2.849   1.161   1.273 -1.1038  0.2946 -0.2777
   32DG     C18  731   3.079   1.186   1.317  0.6984 -0.3442  0.2776
   32DG     O19  732   2.969   1.225   1.241 -0.1428  0.2095 -0.8387
   32DG     H20  733   2.870   1.055   1.264 -1.8560 -0.3412  3.5318
   32DG     H21  734   2.828   1.174   1.379  0.1828  0.3449 -0.0073
   32DG     H22  735   3.066   1.082   1.349  0.0596  0.0385  1.3101
   32DG     H23  736   3.090   1.246   1.408  0.5994 -0.1726  0.1757
   33DG      C1  737   4.354   5.259   0.716  0.3355 -0.0509  0.3078
   33DG      C2  738   4.180   5.898   0.737  0.6561  0.1020  0.4659
   33DG      H3  739   4.257   5.238   0.672  0.6289  0.6027 -0.6793
   33DG      H4  740   4.406   5.178   0.768 -1.8482 -0.6410  1.7092
   33DG      H5  741   4.415   5.290   0.631  2.3831 -1.4166  1.1736
   33DG      H6  742   4.168   6.002   0.770  1.8065  1.2128 -2.3871
   33DG      H7  743   4.281   5.883   0.700  1.3475 -1.9573  2.8612
   33DG      H8  744   4.120   5.874   0.650  0.1427  0.6636  0.6524
   33DG      O9  745   4.362   5.365   0.811  0.0749  0.0650  0.0122
   33DG     O10  746   4.156   5.804   0.832  0.2751 -0.3148 -0.2186
   33DG     C11  747   4.261   5.337   0.908  1.0324  0.1405 -0.2244
   33DG     C12  748   4.229   5.818   0.955  0.1189  0.1057  0.5023
   33DG     H13  749   4.292   5.244   0.957  2.9434  0.6920 -0.3156
   33DG     H14  750   4.162   5.322   0.864  0.0886 -0.3721  1.9165
   33DG     H15  751   4.187   5.906   1.002  1.9803  1.4557 -0.2389
   33DG     H16  752   4.337   5.831   0.947 -0.2269  2.9645 -0.6435
   33DG     C17  753   4.247   5.453   1.012  0.4213 -0.3674 -0.2578
   33DG     C18  754   4.213   5.682   1.036  0.3374 -0.6377 -0.4970
   33DG     O19  755   4.255   5.580   0.945 -0.2359  0.1524 -0.3558
   33DG     H20  756   4.335   5.451   1.077 -0.7784 -0.1028  1.4476
   33DG     H21  757   4.165   5.441   1.083 -0.5837 -0.4334 -1.4004
   33DG     H22  758   4.272   5.688   1.127 -1.4462  2.7792  0.6405
   33DG     H23  759   4.109   5.658   1.057  0.2488  0.4410  0.3870
   34DG      C1  760   4.402   1.679   4.881 -0.7432 -0.2088  0.0495
   34DG      C2  761   3.832   2.011   4.641  0.3945 -0.6633  0.7493
   34DG      H3  762   4.450   1.640   4.971 -3.6281 -0.1286  1.7651
   34DG      H4  763   4.463   1.756   4.836 -1.6156  0.2107 -0.4462
   34DG      H5  764   4.389   1.606   4.801 -0.7689  0.0229 -0.1569
   34DG      H6  765   3.896   2.098   4.659 -1.5662  1.0560 -0.0838
   34DG      H7  766   3.840   1.979   4.537 -1.1349 -0.3243  0.5102
   34DG      H8  767   3.729   2.046   4.651  0.7705  1.1749 -1.1602
   34DG      O9  768   4.272   1.726   4.913  0.2386  0.2663  0.5670
   34DG     O10  769   3.879   1.910   4.722  0.5410  0.1294 -0.4392
   34DG     C11  770   4.184   1.628   4.965  0.2695 -0.1773  0.3563
   34DG     C12  771   3.831   1.929   4.857  1.0159 -0.5779  0.2055
   34DG     H13  772   4.230   1.564   5.041 -1.0118 -1.4254  0.1290
   34DG     H14  773   4.166   1.564   4.878  1.6066 -2.9442  1.9601
   34DG     H15  774   3.722   1.922   4.861  1.0678 -0.9735  1.2016
   34DG     H16  775   3.881   2.019   4.893 -1.0569  2.1759 -3.0921
   34DG     C17  776   4.064   1.694   5.026 -0.3493 -0.5110 -0.2668
   34DG     C18  777   3.866   1.798   4.936 -0.7890 -0.3142  0.2820
   34DG     O19  778   4.010   1.783   4.933 -0.3436  0.3030 -0.6295
   34DG     H20  779   4.079   1.742   5.123  0.1147 -0.9725 -0.1048
   34DG     H21  780   3.989   1.615   5.040 -1.4533  0.5931  0.2431
   34DG     H22  781   3.825   1.804   5.037 -1.4932  0.7470 -0.0554
   34DG     H23  782   3.833   1.718   4.870  0.8262 -1.2219  0.5264
   35DG      C1  783   3.182   1.178   3.914 -1.3498  0.3041  0.0544
   35DG      C2  784   3.976   1.079   3.905  0.0641 -0.3761 -0.1488
   35DG      H3  785   3.121   1.131   3.991 -0.8068 -1.9740 -0.8066
   35DG      H4  786   3.187   1.092   3.846  0.6916  0.0853  0.4254
   35DG      H5  787   3.142   1.262   3.857  1.3727  0.5138 -1.7723
   35DG      H6  788   3.948   1.061   4.009  0.5659 -0.0120  0.0530
   35DG      H7  789   3.979   0.981   3.857  1.8195 -0.1736 -0.5078
   35DG      H8  790   4.077   1.116   3.891 -0.0071  0.5128  1.4346
   35DG      O9  791   3.310   1.193   3.971  0.0323  0.2457  0.4713
   35DG     O10  792   3.878   1.158   3.838 -0.2390 -0.0487 -0.0603
   35DG     C11  793   3.411   1.206   3.875  0.0996  0.0285  0.4220
   35DG     C12  794   3.841   1.263   3.921  0.2531  0.2115 -0.2079
   35DG     H13  795   3.384   1.290   3.810  2.1567  1.1831  0.9660
   35DG     H14  796   3.426   1.119   3.811 -2.5334  0.5909 -1.1252
   35DG     H15  797   3.927   1.317   3.959 -0.5463 -0.4171  2.7709
   35DG     H16  798   3.815   1.235   4.024  0.9605 -0.3506 -0.1731
   35DG     C17  799   3.546   1.252   3.928  0.2888  0.2437 -1.0751
   35DG     C18  800   3.744   1.344   3.845 -0.0264  0.2408  0.6557
   35DG     O19  801   3.623   1.273   3.815 -0.2284  0.3557  0.9849
   35DG     H20  802   3.588   1.178   3.996 -1.4290  0.6440  0.5176
   35DG     H21  803   3.522   1.342   3.985 -0.9985 -0.1455 -0.9660
   35DG     H22  804   3.722   1.437   3.898 -0.7012  2.0344 -2.5138
   35DG     H23  805   3.800   1.364   3.754 -2.6205 -0.1907 -1.1387
   36DG      C1  806   2.949   1.136   4.258  0.5739  0.0319 -0.0668
   36DG      C2  807   2.310   0.828   4.469  0.5623  0.4281 -0.1792
   36DG      H3  808   3.013   1.163   4.174  3.3319 -3.2254  0.7291
   36DG      H4  809   2.977   1.034   4.286 -0.3104  0.4861  2.6821
   36DG      H5  810   2.955   1.197   4.347 -1.0156 -1.3568  1.0390
   36DG      H6  811   2.380   0.837   4.551  0.0885  0.7027  0.2048
   36DG      H7  812   2.239   0.909   4.487 -0.0045  0.3110 -1.7019
   36DG      H8  813   2.260   0.731   4.475  0.9809  0.2799  1.0033
   36DG      O9  814   2.816   1.119   4.215  0.8953 -0.0807  0.2723
   36DG     O10  815   2.373   0.859   4.344 -0.4830 -0.2454  0.5370
   36DG     C11  816   2.794   1.025   4.116 -1.2734  0.1093  0.4033
   36DG     C12  817   2.493   0.783   4.332 -0.8037 -0.1014 -0.3384
   36DG     H13  818   2.853   0.936   4.137 -0.1692  0.8934  0.7125
   36DG     H14  819   2.832   1.062   4.021 -4.0927  0.0979 -0.8431
   36DG     H15  820   2.463   0.678   4.329 -1.4751  0.0463  0.9018
   36DG     H16  821   2.563   0.793   4.415 -0.9654 -0.4215 -0.1620
   36DG     C17  822   2.647   1.011   4.090 -0.3383  0.2498 -0.3468
   36DG     C18  823   2.566   0.818   4.201  0.0517  0.4787 -0.4192
   36DG     O19  824   2.579   0.962   4.210 -0.6018  0.3616  0.3439
   36DG     H20  825   2.632   0.947   4.003  1.3494 -3.7143  1.9960
   36DG     H21  826   2.599   1.109   4.081  2.1842  1.5860 -0.0737
   36DG     H22  827   2.667   0.777   4.213 -0.2230 -0.4519 -1.1990
   36DG     H23  828   2.519   0.787   4.108  0.8618  1.3359 -1.1439
   37DG      C1  829   1.836   1.403   2.413  0.3173  0.0346 -0.3708
   37DG      C2  830   1.455   1.624   2.903 -0.5147  0.1106  0.1850
   37DG      H3  831   1.944   1.413   2.425  0.3245  0.8024 -1.0542
   37DG      H4  832   1.781   1.494   2.390 -0.1335 -0.2911 -0.5948
   37DG      H5  833   1.818   1.340   2.325 -2.8651  0.5229 -0.1807
   37DG      H6  834   1.425   1.699   2.831  0.2465  0.0050 -0.2501
   37DG      H7  835   1.360   1.593   2.948 -1.2662 -0.7857 -1.9053
   37DG      H8  836   1.507   1.684   2.977  0.4802  1.0527 -1.2444
   37DG      O9  837   1.767   1.346   2.524 -0.2751  0.6255  0.4994
   37DG     O10  838   1.529   1.519   2.846 -0.1528  0.0643 -0.5179
   37DG     C11  839   1.824   1.222   2.564 -0.0242  0.2483 -0.2394
   37DG     C12  840   1.606   1.440   2.938 -0.0904 -0.4820  0.4620
   37DG     H13  841   1.929   1.225   2.591 -0.2957  0.0348  0.9054
   37DG     H14  842   1.805   1.139   2.495 -0.8761  0.0067  0.2773
   37DG     H15  843   1.559   1.425   3.035 -1.3170  0.8494  0.1179
   37DG     H16  844   1.701   1.490   2.956  0.0595  0.2313 -1.9612
   37DG     C17  845   1.735   1.182   2.684 -0.1524 -0.3239 -0.4337
   37DG     C18  846   1.638   1.301   2.886  0.0611 -0.5787 -0.2316
   37DG     O19  847   1.715   1.306   2.766  0.3903 -0.4067 -0.0741
   37DG     H20  848   1.784   1.102   2.738 -0.8272  0.1607  0.9414
   37DG     H21  849   1.642   1.140   2.646  0.5711 -1.6532 -0.7863
   37DG     H22  850   1.693   1.242   2.960  2.1236 -0.0425 -1.2643
   37DG     H23  851   1.543   1.250   2.873 -1.5549  1.6476  2.0131
   38DG      C1  852   3.640   3.953   2.846  0.5772  0.1162 -0.6134
   38DG      C2  853   4.117   3.659   2.499  0.4164  0.0434 -0.0491
   38DG      H3  854   3.636   4.006   2.941  1.7898  1.3567 -1.2214
   38DG      H4  855   3.595   3.855   2.858 -0.2888  0.7587  1.9371
   38DG      H5  856   3.583   4.016   2.778 -2.3841 -1.2270  0.4726
   38DG      H6  857   4.040   3.588   2.529  0.2439  0.4502  0.4940
   38DG      H7  858   4.104   3.681   2.393  0.1367  1.2606  0.2241
   38DG      H8  859   4.217   3.618   2.511  0.5579 -0.0273 -1.2990
   38DG      O9  860   3.776   3.945   2.819  0.2535 -0.2735 -0.4874
   38DG     O10  861   4.079   3.769   2.577  0.2682 -0.7080  0.2983
   38DG     C11  862   3.846   4.070   2.831 -0.6231 -0.3655 -1.0696
   38DG     C12  863   4.130   3.889   2.515 -0.1028  0.0391  0.2462
   38DG     H13  864   3.848   4.103   2.935  0.0771 -0.0069 -1.1904
   38DG     H14  865   3.797   4.147   2.771 -0.1834  0.7579 -0.0407
   38DG     H15  866   4.075   3.921   2.427  0.9804 -0.9162 -0.8164
   38DG     H16  867   4.231   3.878   2.476 -0.5357 -0.4841 -0.7595
   38DG     C17  868   3.993   4.061   2.790 -0.3790 -0.4355 -0.7846
   38DG     C18  869   4.140   3.996   2.620  0.3698  0.7790  0.5385
   38DG     O19  870   4.006   3.994   2.670 -0.5612  0.1305  0.3658
   38DG     H20  871   4.048   4.014   2.872  2.4182  1.6596 -1.3045
   38DG     H21  872   4.034   4.161   2.783 -1.4648  0.2223  1.3527
   38DG     H22  873   4.214   3.965   2.693  0.2065 -1.5082 -0.1668
   38DG     H23  874   4.174   4.092   2.580 -0.9021  0.8215 -0.5025
   39DG      C1  875   4.361   1.170   3.167 -0.8802 -0.1919 -0.3710
   39DG      C2  876   5.078   0.883   3.413 -0.1761 -0.6190  0.1545
   39DG      H3  877   4.404   1.270   3.167 -0.0066 -0.5535 -0.0177
   39DG      H4  878   4.294   1.173   3.253 -0.4255  0.2492 -0.0215
   39DG      H5  879   4.299   1.145   3.081 -0.9544  0.8208 -0.6295
   39DG      H6  880   5.016   0.952   3.469 -0.9904 -1.7106  0.6420
   39DG      H7  881   5.096   0.796   3.476 -0.8798  0.1685  1.5057
   39DG      H8  882   5.176   0.926   3.395  0.2101 -0.8897  1.4958
   39DG      O9  883   4.460   1.069   3.183  0.1888 -0.2966  0.1336
   39DG     O10  884   5.003   0.856   3.295 -0.4217 -0.4243 -0.0506
   39DG     C11  885   4.562   1.074   3.079  0.1363  0.2724 -0.2414
   39DG     C12  886   4.876   0.812   3.335  0.0423  0.5779 -0.0220
   39DG     H13  887   4.632   1.157   3.086  2.1224 -1.4708  1.9398
   39DG     H14  888   4.513   1.079   2.981 -1.0149 -0.2627  0.2837
   39DG     H15  889   4.826   0.884   3.400 -0.5842 -0.0766  0.2307
   39DG     H16  890   4.892   0.717   3.386 -0.2637  0.2597 -0.5034
   39DG     C17  891   4.642   0.945   3.073  0.0867 -0.5655 -0.0343
   39DG     C18  892   4.779   0.801   3.210  0.5289 -0.1157  0.2582
   39DG     O19  893   4.717   0.933   3.190 -0.0431  0.4588 -0.2230
   39DG     H20  894   4.705   0.949   2.984 -0.9484 -0.1969 -0.7680
   39DG     H21  895   4.562   0.872   3.064  0.7489 -1.2988 -0.1272
   39DG     H22  896   4.830   0.767   3.120 -1.6137 -0.2248 -0.9846
   39DG     H23  897   4.703   0.729   3.240 -1.7409  1.1161 -2.0878
   40DG      C1  898   0.336   2.913   4.359  0.6469 -0.0428 -0.0674
   40DG      C2  899   1.108   2.627   4.607 -1.0795 -0.3047 -0.1997
   40DG      H3  900   0.292   2.823   4.316  0.4987  0.5342 -1.1429
   40DG      H4  901   0.391   2.957   4.276 -1.2897  2.9374  0.1131
   40DG      H5  902   0.250   2.976   4.379  0.0348 -0.9595  0.2557
   40DG      H6  903   1.162   2.561   4.674  2.4398  2.1490 -0.3440
   40DG      H7  904   1.132   2.590   4.507  1.9182  1.4833 -0.2513
   40DG      H8  905   1.154   2.726   4.610  0.6271 -1.0281 -0.8312
   40DG      O9  906   0.409   2.882   4.474  0.9774 -0.2567  0.4924
   40DG     O10  907   0.978   2.638   4.653  0.0655  0.4014  0.4774
   40DG     C11  908   0.484   2.984   4.537  0.2347  0.1154 -0.4527
   40DG     C12  909   0.896   2.728   4.581 -0.2139  0.1396  0.6609
   40DG     H13  910   0.415   3.044   4.596  0.8654  0.3959  0.0048
   40DG     H14  911   0.545   3.048   4.473  1.9526 -1.2408 -0.2339
   40DG     H15  912   0.874   2.692   4.480  1.4087  0.1936  0.2593
   40DG     H16  913   0.948   2.820   4.556 -0.5471  0.1147 -0.1751
   40DG     C17  914   0.586   2.914   4.627  0.1921 -0.4265  0.6601
   40DG     C18  915   0.766   2.760   4.647  0.8244 -0.6595 -0.8008
   40DG     O19  916   0.677   2.825   4.564  0.4413 -0.3227  0.6184
   40DG     H20  917   0.532   2.865   4.708 -0.8725 -1.3283 -0.5642
   40DG     H21  918   0.639   2.997   4.674  1.5723  1.1433 -3.2603
   40DG     H22  919   0.714   2.672   4.683 -1.9421  0.3422 -2.0251
   40DG     H23  920   0.783   2.823   4.734 -0.2432 -0.8779 -0.4270
   41DG      C1  921   4.795   2.698   2.341 -0.6466  0.3808 -0.1116
   41DG      C2  922   5.338   2.505   1.930 -0.3086 -0.4179  0.4783
   41DG      H3  923   4.746   2.602   2.357  2.8935 -1.4433  0.7952
   41DG      H4  924   4.775   2.710   2.235 -2.2843 -0.5524  0.0479
   41DG      H5  925   4.754   2.774   2.408 -1.8893 -0.9968  0.7598
   41DG      H6  926   5.307   2.404   1.903  0.8602 -1.1374  1.6811
   41DG      H7  927   5.302   2.575   1.855  2.2422 -0.2693 -0.7158
   41DG      H8  928   5.445   2.502   1.909 -0.1624  2.4756  0.4729
   41DG      O9  929   4.933   2.676   2.359 -0.1917 -0.4363  0.1031
   41DG     O10  930   5.308   2.544   2.064  0.3720 -0.0005  0.0185
   41DG     C11  931   5.000   2.797   2.394  0.1463 -0.0818 -0.4255
   41DG     C12  932   5.357   2.675   2.090 -0.8920 -0.1445 -0.3292
   41DG     H13  933   4.968   2.833   2.492  0.1433  2.0692 -1.1568
   41DG     H14  934   4.967   2.877   2.328  1.3640  0.5520 -0.2936
   41DG     H15  935   5.325   2.750   2.018 -2.2947  0.0375  0.4690
   41DG     H16  936   5.465   2.670   2.073 -1.2946 -0.1216 -3.5785
   41DG     C17  937   5.150   2.798   2.375  0.4004  1.1178 -0.2751
   41DG     C18  938   5.323   2.724   2.234 -0.3403 -0.0188 -0.0530
   41DG     O19  939   5.179   2.731   2.246 -0.1911  0.1947 -0.6811
   41DG     H20  940   5.195   2.735   2.452  1.2065  0.0242 -1.5966
   41DG     H21  941   5.183   2.900   2.392 -0.9039  1.2563  1.6506
   41DG     H22  942   5.372   2.655   2.303 -0.6674  0.4635  0.6714
   41DG     H23  943   5.378   2.817   2.246 -0.8153  0.1178  1.2072
   42DG      C1  944   3.359   5.164   3.434  0.0902  0.3194  0.3027
   42DG      C2  945   3.669   5.648   3.165  0.6618 -1.1343 -0.1548
   42DG      H3  946   3.356   5.214   3.531 -0.5259  0.2533  0.3256
   42DG      H4  947   3.448   5.102   3.438  0.4689  0.8470  0.0465
   42DG      H5  948   3.274   5.095   3.439 -0.9469  1.2294 -2.5950
   42DG      H6  949   3.761   5.607   3.121  0.7631 -0.0377 -0.9895
   42DG      H7  950   3.661   5.750   3.128  0.2403 -0.8892  0.5965
   42DG      H8  951   3.676   5.658   3.274 -1.7309 -1.0757  0.0420
   42DG      O9  952   3.336   5.239   3.317 -0.0831  0.2072  0.5064
   42DG     O10  953   3.564   5.562   3.135  0.2408 -0.1407 -0.0964
   42DG     C11  954   3.299   5.169   3.202 -0.3221 -0.8806 -0.3339
   42DG     C12  955   3.549   5.526   3.002 -0.8106  0.0240 -0.7206
   42DG     H13  956   3.199   5.127   3.210 -0.8835  0.3399 -0.7457
   42DG     H14  957   3.367   5.086   3.182  0.1280 -0.2664 -1.4360
   42DG     H15  958   3.635   5.470   2.968  0.2941 -0.1949  2.2202
   42DG     H16  959   3.529   5.615   2.942  0.4384 -0.7234 -2.3377
   42DG     C17  960   3.288   5.271   3.094 -0.1608 -0.0823 -0.2660
   42DG     C18  961   3.419   5.443   2.998 -0.1192 -0.2093  0.0146
   42DG     O19  962   3.420   5.341   3.090 -0.1715  0.0030 -0.2719
   42DG     H20  963   3.211   5.341   3.126  0.6328  0.3771  0.7018
   42DG     H21  964   3.262   5.217   3.003  1.5587 -0.0590 -0.8096
   42DG     H22  965   3.338   5.516   3.002  1.2697  1.3778  0.1293
   42DG     H23  966   3.418   5.402   2.897  1.5200  0.6329 -0.3851
   43DG      C1  967   0.606   1.144   0.573 -0.0713 -0.3019 -0.1819
   43DG      C2  968   0.233   0.609   0.481  0.0784 -0.9180 -0.7886
   43DG      H3  969   0.648   1.055   0.619  0.9398  0.4995  0.4719
   43DG      H4  970   0.625   1.233   0.633 -0.0014 -0.0140 -0.6193
   43DG      H5  971   0.665   1.161   0.483  1.3194  3.1857  1.2176
   43DG      H6  972   0.239   0.540   0.397 -2.1183 -2.8393  0.5366
   43DG      H7  973   0.323   0.586   0.539 -0.5811 -3.0832 -0.5335
   43DG      H8  974   0.142   0.586   0.536 -0.1696 -1.2982 -1.3555
   43DG      O9  975   0.466   1.118   0.540  0.0231  0.4766 -0.0394
   43DG     O10  976   0.236   0.754   0.453 -0.0419  0.7231 -0.1285
   43DG     C11  977   0.395   1.204   0.459 -0.2255 -0.3666 -0.2753
   43DG     C12  978   0.149   0.800   0.353 -0.1153 -0.0539  0.2586
   43DG     H13  979   0.443   1.225   0.363 -1.2944  1.5912 -0.4385
   43DG     H14  980   0.392   1.301   0.508 -0.4371  0.9647 -2.7233
   43DG     H15  981   0.050   0.756   0.370 -0.6659  0.6506 -0.9748
   43DG     H16  982   0.182   0.764   0.255  1.1766  0.7131  0.3982
   43DG     C17  983   0.253   1.156   0.422 -0.0856  0.4581  0.4206
   43DG     C18  984   0.133   0.951   0.340 -0.1381  0.3388 -0.4531
   43DG     O19  985   0.260   1.016   0.371  0.0059  0.0701  0.0610
   43DG     H20  986   0.228   1.221   0.338  0.7610 -0.4972 -0.6224
   43DG     H21  987   0.180   1.141   0.501 -0.7299 -1.2270 -0.4220
   43DG     H22  988   0.105   0.987   0.241  3.5386  1.7649 -1.1083
   43DG     H23  989   0.053   0.976   0.410 -0.5405  2.2545 -1.5350
   44DG      C1  990   3.245   5.464   1.286  0.0041  0.1786 -0.5584
   44DG      C2  991   3.500   6.006   1.694  0.5504  0.9758 -0.1694
   44DG      H3  992   3.203   5.445   1.187  1.4854  2.3765 -1.6839
   44DG      H4  993   3.193   5.407   1.363 -1.0274  2.2230  0.3206
   44DG      H5  994   3.352   5.442   1.290 -0.4121 -1.8401  1.1339
   44DG      H6  995   3.442   6.090   1.731 -2.0934 -1.1975  0.9906
   44DG      H7  996   3.455   5.909   1.716  2.7598 -0.0737  0.0408
   44DG      H8  997   3.605   6.001   1.723  0.6703 -2.0691 -0.7551
   44DG      O9  998   3.230   5.604   1.303 -0.0525  0.4701 -0.0583
   44DG     O10  999   3.498   5.991   1.558  0.3117 -0.0906  0.3954
   44DG     C11 1000   3.301   5.677   1.205  0.6888 -0.5805 -0.7251
   44DG     C12 1001   3.572   5.891   1.496 -0.3014  0.3660  0.0490
   44DG     H13 1002   3.244   5.664   1.114 -1.1073 -1.5542  0.4888
   44DG     H14 1003   3.404   5.642   1.193  2.1330  3.0286 -0.3257
   44DG     H15 1004   3.554   5.795   1.546  1.1697 -0.8914 -1.6835
   44DG     H16 1005   3.678   5.912   1.507 -0.3810 -0.3709  3.3814
   44DG     C17 1006   3.311   5.830   1.234  0.2217  0.8078 -0.6963
   44DG     C18 1007   3.516   5.867   1.349  0.5977 -0.2662 -0.0558
   44DG     O19 1008   3.368   5.854   1.358 -0.1981  0.0430  0.1328
   44DG     H20 1009   3.208   5.865   1.236  0.0155  0.2648 -1.4488
   44DG     H21 1010   3.356   5.884   1.151  0.9818  1.1496 -0.0862
   44DG     H22 1011   3.546   5.956   1.293 -0.6754  0.9653  1.1382
   44DG     H23 1012   3.563   5.779   1.305 -1.5527 -1.6340  0.2388
   45DG      C1 1013   1.687   0.290   1.965 -0.6318 -0.4678  0.0887
   45DG      C2 1014   1.090   0.064   2.189  0.2809 -0.3544  0.7654
   45DG      H3 1015   1.795   0.292   1.973 -0.7433  0.1505  1.7387
   45DG      H4 1016   1.638   0.381   2.000 -0.5529 -1.4211  2.8725
   45DG      H5 1017   1.654   0.288   1.861 -0.3308 -0.4516 -0.0083
   45DG      H6 1018   1.078   0.078   2.082  1.2081  1.8333  0.8722
   45DG      H7 1019   1.018  -0.011   2.222  0.8922 -1.1536  0.3074
   45DG      H8 1020   1.070   0.161   2.236  2.6245 -0.3354  1.8964
   45DG      O9 1021   1.635   0.187   2.045  0.3403  0.1954 -0.1129
   45DG     O10 1022   1.223   0.024   2.198 -0.4183  0.0673  0.3525
   45DG     C11 1023   1.678   0.193   2.183  0.1705  0.3238 -0.4615
   45DG     C12 1024   1.265   0.009   2.335 -0.0578  0.2026  0.1733
   45DG     H13 1025   1.641   0.289   2.221  0.1089  0.4340 -0.7978
   45DG     H14 1026   1.785   0.212   2.190  0.0502  0.6212  1.3014
   45DG     H15 1027   1.205  -0.071   2.379 -0.2131 -0.2885 -0.8747
   45DG     H16 1028   1.239   0.099   2.390 -0.0876 -0.0771  0.6191
   45DG     C17 1029   1.617   0.079   2.263 -0.0873 -0.1643  0.1296
   45DG     C18 1030   1.414  -0.011   2.332  0.1280 -1.1663 -0.4988
   45DG     O19 1031   1.476   0.091   2.256 -0.3746  0.2650 -0.6705
   45DG     H20 1032   1.661   0.070   2.362 -1.3901 -0.9944  0.6420
   45DG     H21 1033   1.656  -0.016   2.225 -0.6377  0.3774 -1.9428
   45DG     H22 1034   1.459  -0.018   2.431 -1.3176 -0.9763  0.2045
   45DG     H23 1035   1.425  -0.109   2.285 -2.3579 -1.9054  0.3120
   46DG      C1 1036   2.011   2.062   0.106 -0.4135 -0.5396 -0.5110
   46DG      C2 1037   1.921   1.757  -0.504 -0.1992 -0.4922  0.2149
   46DG      H3 1038   2.092   2.125   0.070 -0.8060  1.3160  1.6212
   46DG      H4 1039   2.019   2.068   0.215  1.9543 -0.1942 -0.6536
   46DG      H5 1040   1.922   2.108   0.063 -0.5006 -1.8656 -1.8241
   46DG      H6 1041   1.941   1.854  -0.550 -4.6415  2.2583  3.3116
   46DG      H7 1042   1.983   1.684  -0.557  0.1150  2.1957 -3.5082
   46DG      H8 1043   1.818   1.737  -0.534 -0.8898 -0.5286  2.4627
   46DG      O9 1044   2.028   1.939   0.055  0.2275  0.7330 -0.4234
   46DG     O10 1045   1.932   1.761  -0.360  0.5008 -0.2954 -0.1854
   46DG     C11 1046   1.923   1.849   0.079  0.0850  0.3530  0.5968
   46DG     C12 1047   1.868   1.648  -0.299  0.2700 -0.4122  0.3393
   46DG     H13 1048   1.825   1.891   0.058 -0.0552  1.2467  2.8014
   46DG     H14 1049   1.916   1.836   0.187  1.1084 -0.9263  0.5346
   46DG     H15 1050   1.850   1.564  -0.366 -0.8098  1.4389 -1.8389
   46DG     H16 1051   1.778   1.676  -0.245 -0.8033 -0.9805 -1.0902
   46DG     C17 1052   1.936   1.697   0.023  0.0603 -0.5509 -0.1226
   46DG     C18 1053   1.966   1.599  -0.192 -0.0390 -0.5584  1.1174
   46DG     O19 1054   2.008   1.698  -0.099  0.1585 -0.5154 -0.2266
   46DG     H20 1055   1.829   1.676   0.015 -0.5630  1.1962  2.3204
   46DG     H21 1056   1.979   1.622   0.089  0.3731 -0.9569 -0.7774
   46DG     H22 1057   1.941   1.501  -0.152 -0.4717 -1.0035 -0.1750
   46DG     H23 1058   2.058   1.575  -0.245 -0.3058 -1.4871  1.0526
   47DG      C1 1059   0.731   1.672   0.528 -0.1361  0.3500  0.1175
   47DG      C2 1060   0.656   1.395  -0.019 -0.7067  0.1727 -0.4787
   47DG      H3 1061   0.642   1.622   0.567  0.2217  0.7948  1.5373
   47DG      H4 1062   0.767   1.760   0.581  3.8416 -0.9651 -0.1455
   47DG      H5 1063   0.804   1.592   0.532 -1.2916 -0.7108  1.0829
   47DG      H6 1064   0.718   1.313   0.017 -1.8723 -0.5585 -0.0847
   47DG      H7 1065   0.623   1.450   0.069 -1.1417 -0.9550  0.0827
   47DG      H8 1066   0.570   1.347  -0.066  0.0793 -1.4333 -0.3628
   47DG      O9 1067   0.694   1.689   0.396  0.3567 -0.3153 -0.3391
   47DG     O10 1068   0.737   1.461  -0.110 -0.1897  0.4533 -0.1002
   47DG     C11 1069   0.769   1.794   0.338  0.0291 -0.0493 -0.1061
   47DG     C12 1070   0.859   1.510  -0.064 -0.3759 -0.2776 -0.8085
   47DG     H13 1071   0.875   1.791   0.364  0.0105 -1.4637 -0.1150
   47DG     H14 1072   0.719   1.888   0.361 -2.0129 -1.2313  0.4432
   47DG     H15 1073   0.924   1.521  -0.151 -0.1929 -0.7068 -0.7266
   47DG     H16 1074   0.906   1.439   0.004  1.3787  0.5668 -1.0742
   47DG     C17 1075   0.764   1.778   0.185 -0.0774  0.9644 -0.4902
   47DG     C18 1076   0.854   1.648   0.006  0.1453 -0.0058 -0.3632
   47DG     O19 1077   0.811   1.650   0.144 -0.0806 -0.0670  0.2552
   47DG     H20 1078   0.816   1.865   0.145  0.1192  0.8404 -0.5017
   47DG     H21 1079   0.662   1.802   0.156  0.1127  2.3798 -0.0485
   47DG     H22 1080   0.955   1.690   0.007 -0.3412  1.2203 -1.1268
   47DG     H23 1081   0.786   1.718  -0.043  0.0947 -0.2556 -0.6532
   48DG      C1 1082   3.298   3.100   3.336  0.0290  0.1245 -0.2116
   48DG      C2 1083   2.912   3.124   2.806  0.1993  0.1546  0.0908
   48DG      H3 1084   3.221   3.153   3.393  0.8168  1.3151 -0.2324
   48DG      H4 1085   3.380   3.104   3.407 -1.4374 -0.4484  1.6127
   48DG      H5 1086   3.259   2.998   3.330  1.5136 -0.4319 -0.8689
   48DG      H6 1087   2.942   3.130   2.702  1.5420 -0.5044  0.4219
   48DG      H7 1088   2.912   3.021   2.843  0.9313  0.7580  1.8883
   48DG      H8 1089   2.807   3.153   2.808  0.5709  1.5982 -0.7199
   48DG      O9 1090   3.323   3.150   3.201  0.1455  0.2180 -0.2725
   48DG     O10 1091   3.005   3.186   2.895 -0.2633  0.2872  0.3917
   48DG     C11 1092   3.314   3.293   3.200 -0.0717  0.1934 -0.0047
   48DG     C12 1093   3.036   3.322   2.854 -0.6127  0.3449 -0.5632
   48DG     H13 1094   3.384   3.341   3.268 -0.2741  0.5872 -0.0669
   48DG     H14 1095   3.216   3.320   3.240  0.2270 -0.2775  1.0982
   48DG     H15 1096   2.947   3.381   2.832 -0.0451  0.6699 -2.0721
   48DG     H16 1097   3.097   3.324   2.764  1.3706  1.5273  0.7195
   48DG     C17 1098   3.343   3.346   3.059  0.2961  0.4648 -0.0559
   48DG     C18 1099   3.131   3.381   2.958  0.3754 -0.1138  0.5875
   48DG     O19 1100   3.242   3.287   2.972  0.3283 -0.4770 -0.3316
   48DG     H20 1101   3.440   3.313   3.021  0.3581 -0.4181  0.8341
   48DG     H21 1102   3.355   3.454   3.057  2.6457  0.3086  1.5164
   48DG     H22 1103   3.166   3.476   2.919 -2.5538  1.0601  0.5831
   48DG     H23 1104   3.091   3.397   3.058  0.5880  1.6000  0.4199
   49DG      C1 1105   4.304   4.272   4.222 -0.5952  0.4751 -0.1243
   49DG      C2 1106   4.742   3.565   4.544  0.2517 -0.1514  0.0884
   49DG      H3 1107   4.363   4.345   4.278  2.4929 -0.4734 -1.8923
   49DG      H4 1108   4.227   4.225   4.283  0.3356 -2.5473 -1.0837
   49DG      H5 1109   4.252   4.319   4.138  0.6621  0.6611 -0.8257
   49DG      H6 1110   4.702   3.561   4.443 -1.2142 -0.5889  0.6489
   49DG      H7 1111   4.808   3.479   4.555 -1.0621 -1.5391 -2.0475
   49DG      H8 1112   4.662   3.553   4.618 -2.0484 -1.3232 -2.4023
   49DG      O9 1113   4.374   4.148   4.198 -0.5596 -0.0581  0.0229
   49DG     O10 1114   4.809   3.686   4.574  0.7073 -0.1902 -0.3132
   49DG     C11 1115   4.427   4.086   4.318 -0.4061 -0.4013  0.4546
   49DG     C12 1116   4.718   3.798   4.550  0.4621 -0.9313 -0.2683
   49DG     H13 1117   4.345   4.037   4.370 -1.4600 -1.1156 -1.7535
   49DG     H14 1118   4.467   4.172   4.372 -1.2134  0.3851 -0.1589
   49DG     H15 1119   4.756   3.889   4.596 -0.8533 -2.2795  4.0091
   49DG     H16 1120   4.629   3.787   4.612 -1.2889 -0.1997 -2.5056
   49DG     C17 1121   4.548   3.998   4.289  0.1329  0.8315  0.5921
   49DG     C18 1122   4.690   3.840   4.407  0.0152 -0.0055 -0.1123
   49DG     O19 1123   4.609   3.963   4.413 -0.1921 -0.1728 -0.3356
   49DG     H20 1124   4.625   4.048   4.230 -0.9097 -0.1773 -1.7482
   49DG     H21 1125   4.514   3.910   4.235 -2.1366  1.8684  0.2485
   49DG     H22 1126   4.773   3.848   4.337 -0.7445 -0.8001 -1.1520
   49DG     H23 1127   4.621   3.762   4.374  1.9578 -2.8991  2.1773
   50DG      C1 1128   1.650   3.124   0.577 -0.2725 -0.1358  0.5158
   50DG      C2 1129   1.023   2.976   0.683  0.0030  0.1372  0.2337
   50DG      H3 1130   1.619   3.215   0.526  0.4577  0.5859  1.3141
   50DG      H4 1131   1.755   3.101   0.555 -0.4799  0.3002 -1.0798
   50DG      H5 1132   1.636   3.149   0.682 -0.7604  1.6099  0.0607
   50DG      H6 1133   0.974   2.898   0.624 -1.2541 -0.6466  2.2141
   50DG      H7 1134   0.969   2.983   0.778 -1.7470  0.4844 -0.7416
   50DG      H8 1135   0.999   3.060   0.618 -2.4115 -2.6647 -2.9124
   50DG      O9 1136   1.577   3.009   0.530  0.2490 -0.6637  0.9714
   50DG     O10 1137   1.162   2.966   0.711  0.5946  0.0546  0.4936
   50DG     C11 1138   1.624   2.887   0.601 -0.3854 -0.4513 -0.6377
   50DG     C12 1139   1.182   2.833   0.753 -0.1962  0.5585 -0.5593
   50DG     H13 1140   1.730   2.900   0.624 -0.8949  1.7017  0.7607
   50DG     H14 1141   1.626   2.807   0.528 -1.4830 -0.2056 -0.9571
   50DG     H15 1142   1.165   2.748   0.687  1.9837  0.3693 -0.9686
   50DG     H16 1143   1.107   2.810   0.829  1.2806 -0.3229  0.7007
   50DG     C17 1144   1.544   2.857   0.727  0.3647  0.0770  0.0546
   50DG     C18 1145   1.322   2.826   0.809  0.5586 -0.0128 -0.9312
   50DG     O19 1146   1.405   2.862   0.704 -0.4310  0.2016  0.2264
   50DG     H20 1147   1.565   2.938   0.797  1.8306  0.1288 -0.4019
   50DG     H21 1148   1.574   2.757   0.758 -0.0696 -1.3533 -3.6682
   50DG     H22 1149   1.325   2.906   0.883  1.4661  0.7487 -1.7643
   50DG     H23 1150   1.344   2.728   0.851  0.9853 -1.0407 -3.3578
   51DG      C1 1151   4.812   2.259   2.346 -0.2333  0.1968 -0.3368
   51DG      C2 1152   4.934   2.644   1.847  0.6087  0.5906  0.0602
   51DG      H3 1153   4.840   2.179   2.414  0.0492 -1.2353 -2.0412
   51DG      H4 1154   4.727   2.224   2.288  1.4739 -1.6789 -1.8657
   51DG      H5 1155   4.805   2.346   2.411 -1.1525  0.5757 -0.9150
   51DG      H6 1156   4.929   2.724   1.921  0.8455 -0.0942  0.8308
   51DG      H7 1157   4.978   2.659   1.749 -2.8127 -0.3738 -1.7930
   51DG      H8 1158   4.830   2.627   1.819  0.4643 -0.0053  0.9208
   51DG      O9 1159   4.926   2.288   2.262 -0.0580 -0.1058 -0.1168
   51DG     O10 1160   4.963   2.520   1.917  0.6945  0.1138  0.2194
   51DG     C11 1161   4.962   2.165   2.199 -0.3970  0.0954 -0.3213
   51DG     C12 1162   4.980   2.408   1.837  0.2595 -0.3741 -0.1280
   51DG     H13 1163   4.885   2.116   2.140 -0.2959 -0.7969  0.2734
   51DG     H14 1164   4.998   2.103   2.281  3.5577  1.8301 -0.5124
   51DG     H15 1165   5.064   2.417   1.768 -0.3144  0.6803 -0.7207
   51DG     H16 1166   4.886   2.403   1.782 -0.8656 -1.1865  1.7691
   51DG     C17 1167   5.085   2.189   2.120 -0.0145 -0.0642  0.4411
   51DG     C18 1168   5.001   2.290   1.933  0.2744  0.1980 -0.0250
   51DG     O19 1169   5.085   2.306   2.047  0.1631 -0.3841  0.0309
   51DG     H20 1170   5.106   2.103   2.057 -0.1049  1.1174 -1.2488
   51DG     H21 1171   5.163   2.209   2.194  0.2746 -0.3163  0.2040
   51DG     H22 1172   4.899   2.271   1.966  1.0827 -1.7684  1.5284
   51DG     H23 1173   5.030   2.206   1.871 -1.4252 -0.3190 -0.1668
   52DG      C1 1174   1.086   4.472   4.952 -0.3837  0.1235 -0.2019
   52DG      C2 1175   1.030   5.073   4.613 -0.3786 -0.1956  0.5941
   52DG      H3 1176   0.986   4.429   4.943 -1.0049  1.5129 -0.2241
   52DG      H4 1177   1.132   4.414   5.033  1.3247 -0.9580 -1.8428
   52DG      H5 1178   1.156   4.444   4.873 -0.8130 -2.4451  0.2246
   52DG      H6 1179   0.925   5.081   4.584 -0.4413 -1.7239  0.2853
   52DG      H7 1180   1.058   5.178   4.612 -2.2303  0.4135 -2.7111
   52DG      H8 1181   1.091   5.022   4.539 -0.7958  0.1083  0.0333
   52DG      O9 1182   1.077   4.619   4.965 -0.1955  0.5066 -0.0537
   52DG     O10 1183   1.038   5.011   4.741  0.1614  0.0001  0.1172
   52DG     C11 1184   1.015   4.662   5.090  0.3231  0.1136  0.8015
   52DG     C12 1185   0.949   5.073   4.834 -0.4499  0.2128 -0.3380
   52DG     H13 1186   1.057   4.614   5.178  2.1808  1.2278  0.5637
   52DG     H14 1187   0.907   4.648   5.081 -0.2449  3.6088  0.7581
   52DG     H15 1188   0.846   5.061   4.801 -0.0519  2.3976 -2.7850
   52DG     H16 1189   0.961   5.182   4.831  0.2536  0.1918 -4.0622
   52DG     C17 1190   1.013   4.814   5.101 -0.3083  0.0205 -1.2850
   52DG     C18 1191   0.982   5.018   4.974 -0.0435  0.0114  0.2341
   52DG     O19 1192   0.958   4.878   4.978 -0.4618  0.4768  0.3855
   52DG     H20 1193   1.115   4.843   5.124 -0.4150  1.0440 -2.0456
   52DG     H21 1194   0.952   4.843   5.186 -0.5542 -1.5431 -0.8892
   52DG     H22 1195   1.087   5.032   5.001 -0.4090 -0.1185  1.8114
   52DG     H23 1196   0.902   5.059   5.036 -2.5354 -1.5006 -1.7924
   53DG      C1 1197   0.497   0.957   0.187  0.4557  0.1485  0.4307
   53DG      C2 1198   0.454   0.848   0.916 -0.3118 -0.0833 -0.1116
   53DG      H3 1199   0.486   1.064   0.204  0.3445  0.1851  0.1463
   53DG      H4 1200   0.405   0.918   0.144  0.7499  0.5935 -0.6375
   53DG      H5 1201   0.576   0.930   0.117  0.5801  2.1042 -0.2277
   53DG      H6 1202   0.469   0.952   0.945 -0.0860 -0.6766  2.1363
   53DG      H7 1203   0.349   0.822   0.924  0.0366 -1.0906  2.1540
   53DG      H8 1204   0.501   0.793   0.998  0.8785 -0.8334 -1.2739
   53DG      O9 1205   0.516   0.886   0.309 -0.0669  0.1727  0.5127
   53DG     O10 1206   0.497   0.821   0.780  0.2577 -0.9092 -0.0790
   53DG     C11 1207   0.533   0.743   0.300 -0.0203 -0.2176 -0.2840
   53DG     C12 1208   0.507   0.678   0.764  0.3713 -0.6721  0.8160
   53DG     H13 1209   0.592   0.727   0.210  0.4676 -2.3048  0.3732
   53DG     H14 1210   0.437   0.691   0.296 -1.8477  2.9306 -3.8453
   53DG     H15 1211   0.407   0.644   0.734  0.9968 -1.6189 -0.2781
   53DG     H16 1212   0.542   0.622   0.850  1.0835 -1.9233 -0.2510
   53DG     C17 1213   0.626   0.694   0.410 -0.0065 -0.8401  0.2723
   53DG     C18 1214   0.602   0.652   0.644  0.0513 -0.0215 -0.3536
   53DG     O19 1215   0.552   0.722   0.529 -0.2207 -0.6116 -0.4497
   53DG     H20 1216   0.723   0.744   0.403 -0.1343  0.1089  3.6586
   53DG     H21 1217   0.633   0.586   0.396 -1.9451 -0.9093 -0.4978
   53DG     H22 1218   0.696   0.696   0.678 -0.7812  1.0001  0.7325
   53DG     H23 1219   0.618   0.547   0.623  0.4985 -0.1714  0.6659
   54DG      C1 1220   3.174   4.325   2.230  0.7140  0.3190 -0.3232
   54DG      C2 1221   3.593   4.674   1.909  0.7563  0.4126  0.1183
   54DG      H3 1222   3.254   4.254   2.253 -1.6682 -1.5619  3.2153
   54DG      H4 1223   3.107   4.284   2.155 -0.7269  0.7631  0.6774
   54DG      H5 1224   3.118   4.317   2.323 -0.9961  2.0933 -1.1556
   54DG      H6 1225   3.656   4.733   1.976  0.9643  0.0599  0.2375
   54DG      H7 1226   3.624   4.570   1.916  0.6282  0.3080 -0.7218
   54DG      H8 1227   3.588   4.726   1.814  0.5773  1.1339  0.5177
   54DG      O9 1228   3.196   4.461   2.205  0.0534 -0.7445 -0.4512
   54DG     O10 1229   3.464   4.677   1.957 -0.3467 -0.1906  0.3746
   54DG     C11 1230   3.080   4.518   2.153 -0.8638 -0.2277  0.1233
   54DG     C12 1231   3.419   4.809   1.972 -0.3257 -0.3034 -0.2694
   54DG     H13 1232   2.986   4.508   2.207 -1.4241  1.7620 -0.3844
   54DG     H14 1233   3.054   4.467   2.060 -4.0280 -2.4990  2.0343
   54DG     H15 1234   3.442   4.869   1.884  1.1282 -0.5872 -0.1030
   54DG     H16 1235   3.475   4.845   2.059  0.2305  0.1371 -0.8049
   54DG     C17 1236   3.114   4.666   2.135  0.2160  0.0752 -0.5889
   54DG     C18 1237   3.272   4.801   2.018  0.1107 -0.1306 -0.6900
   54DG     O19 1238   3.251   4.690   2.098  0.4220  0.1611 -0.0261
   54DG     H20 1239   3.106   4.723   2.228  2.4838  1.7677 -1.3607
   54DG     H21 1240   3.054   4.712   2.056 -0.1838  1.3218  0.3995
   54DG     H22 1241   3.244   4.895   2.066  1.6508  0.2000 -0.3730
   54DG     H23 1242   3.203   4.793   1.934  1.1794 -0.6555 -1.5517
   55DG      C1 1243   0.436   0.936   4.987 -0.2082 -0.9227  0.2397
   55DG      C2 1244   0.008   1.269   5.596 -0.3204 -0.2827  0.2503
   55DG      H3 1245   0.501   0.949   4.901 -0.8730  0.1628 -0.1122
   55DG      H4 1246   0.335   0.962   4.956  0.0332 -0.5937 -0.2932
   55DG      H5 1247   0.446   0.832   5.019 -1.3541 -1.8589 -2.1244
   55DG      H6 1248  -0.061   1.184   5.591  0.2920 -0.7769 -0.0764
   55DG      H7 1249   0.015   1.295   5.701 -1.0583 -0.5643  0.3811
   55DG      H8 1250  -0.030   1.349   5.533 -2.1782 -0.8432  0.5878
   55DG      O9 1251   0.483   1.031   5.079  0.3039  0.5388  0.1078
   55DG     O10 1252   0.146   1.256   5.558 -0.2611  0.7073  0.0405
   55DG     C11 1253   0.436   1.163   5.065  0.2147 -0.8278 -0.2833
   55DG     C12 1254   0.161   1.189   5.435 -0.8941  0.0150  0.0313
   55DG     H13 1255   0.342   1.158   5.010  0.1302  0.2202 -0.2564
   55DG     H14 1256   0.509   1.213   5.001  0.3939  0.9859  1.2339
   55DG     H15 1257   0.080   1.211   5.366 -2.6026 -1.5651  1.4040
   55DG     H16 1258   0.153   1.081   5.454  1.1000 -0.0948  0.5488
   55DG     C17 1259   0.431   1.238   5.197  0.0648  0.0798  0.4820
   55DG     C18 1260   0.296   1.234   5.381 -0.6229  0.3365  0.7139
   55DG     O19 1261   0.323   1.171   5.260 -0.1322  0.0913  0.1864
   55DG     H20 1262   0.399   1.336   5.163  1.0966  0.9753  1.9714
   55DG     H21 1263   0.524   1.246   5.253 -0.0726 -1.1442  0.9230
   55DG     H22 1264   0.279   1.341   5.368  0.4650  0.5703  1.0994
   55DG     H23 1265   0.380   1.216   5.448 -0.1598  0.0338  0.0646
   56DG      C1 1266   3.991   4.992   1.203  0.5070 -0.0191 -0.5040
   56DG      C2 1267   3.280   4.938   1.245 -0.5382 -0.4394  0.1666
   56DG      H3 1268   4.050   4.960   1.118  0.0954 -0.9957 -0.4407
   56DG      H4 1269   3.998   4.912   1.277 -0.4625  1.7013  1.5692
   56DG      H5 1270   4.045   5.081   1.235  2.4130 -0.4308 -2.3284
   56DG      H6 1271   3.239   4.925   1.145 -0.0654 -2.7379  0.2114
   56DG      H7 1272   3.288   4.839   1.290  0.6354 -0.9630 -1.1102
   56DG      H8 1273   3.218   4.996   1.313 -0.7165  0.5619 -0.8131
   56DG      O9 1274   3.855   5.020   1.182 -0.5779  1.0189 -0.2766
   56DG     O10 1275   3.404   5.001   1.223 -0.4974  0.3239  0.3888
   56DG     C11 1276   3.844   5.105   1.064  0.2564  0.8634  0.7779
   56DG     C12 1277   3.390   5.132   1.166  0.3671 -1.2023  0.9808
   56DG     H13 1278   3.912   5.070   0.987  1.5605  0.4752  2.0714
   56DG     H14 1279   3.877   5.207   1.087  0.3599  1.1182 -0.4091
   56DG     H15 1280   3.406   5.216   1.234  0.9337 -0.5666  0.0994
   56DG     H16 1281   3.292   5.148   1.121  2.0919  2.1083 -2.1556
   56DG     C17 1282   3.704   5.121   1.008  0.7416 -0.0354  0.3130
   56DG     C18 1283   3.477   5.154   1.043  0.0527  0.4177  0.4604
   56DG     O19 1284   3.606   5.148   1.106 -0.6944 -0.2471  0.0577
   56DG     H20 1285   3.674   5.025   0.965  0.9865 -0.4861  1.1078
   56DG     H21 1286   3.706   5.188   0.923 -0.2954  0.9256  1.0182
   56DG     H22 1287   3.468   5.079   0.964  2.0213  2.5703 -1.9817
   56DG     H23 1288   3.449   5.252   1.005 -0.7124 -0.7542 -2.2715
   57DG      C1 1289   4.218   4.762   2.127 -0.0482  0.6535 -0.5880
   57DG      C2 1290   4.786   5.077   2.117  0.4659  0.0194 -0.3138
   57DG      H3 1291   4.232   4.814   2.032  1.5126 -0.3905 -0.9748
   57DG      H4 1292   4.112   4.738   2.136  0.2962 -0.6179  0.4112
   57DG      H5 1293   4.270   4.669   2.105  1.6104  1.8920 -2.2254
   57DG      H6 1294   4.843   5.158   2.164  1.5149 -0.9354  0.1317
   57DG      H7 1295   4.856   4.993   2.123 -1.8640 -1.9406  2.8649
   57DG      H8 1296   4.765   5.096   2.012 -1.0050 -0.5100 -0.1396
   57DG      O9 1297   4.271   4.835   2.236  0.1861  0.3114  0.3072
   57DG     O10 1298   4.673   5.045   2.195  0.5629 -0.4071  0.2200
   57DG     C11 1299   4.296   4.781   2.363 -0.3483  0.5674  0.2055
   57DG     C12 1300   4.709   5.005   2.324 -0.2428  0.3021  0.2339
   57DG     H13 1301   4.348   4.688   2.338 -3.0823 -1.3238  1.0773
   57DG     H14 1302   4.211   4.747   2.421 -0.0875 -1.9369 -0.7445
   57DG     H15 1303   4.784   5.076   2.360 -0.5086  0.5495  0.2998
   57DG     H16 1304   4.768   4.914   2.315  0.0460  0.6413 -1.5238
   57DG     C17 1305   4.387   4.881   2.439 -0.1232  0.2583 -0.0336
   57DG     C18 1306   4.594   4.983   2.424 -0.7165  0.2193  0.3749
   57DG     O19 1307   4.495   4.911   2.358  0.3522  0.0216  0.1340
   57DG     H20 1308   4.416   4.833   2.532  0.3715  0.2910 -0.1653
   57DG     H21 1309   4.331   4.968   2.473  1.0435  0.0377  2.7199
   57DG     H22 1310   4.640   4.921   2.501  1.1964 -0.1857 -1.0430
   57DG     H23 1311   4.559   5.080   2.461  2.3744  1.3145  0.7279
   58DG      C1 1312   3.325   3.160   0.875 -0.0642  0.7583 -0.1790
   58DG      C2 1313   2.681   3.070   0.822 -0.0919 -0.1861  0.2494
   58DG      H3 1314   3.300   3.265   0.890 -2.9045  0.1751 -0.3658
   58DG      H4 1315   3.339   3.145   0.768 -0.1113  1.0531 -0.2264
   58DG      H5 1316   3.421   3.134   0.920 -0.7810 -1.6923  0.0755
   58DG      H6 1317   2.644   3.172   0.829  0.3177  0.2617 -2.8829
   58DG      H7 1318   2.755   3.064   0.742  1.5620 -3.4602  1.8097
   58DG      H8 1319   2.592   3.008   0.807 -1.0316  1.4443 -1.2872
   58DG      O9 1320   3.233   3.072   0.942  0.2859  0.1532 -0.4040
   58DG     O10 1321   2.740   3.042   0.950  0.7597 -0.2256 -0.6374
   58DG     C11 1322   3.217   3.093   1.082  0.2204  0.1725  0.0229
   58DG     C12 1323   2.788   2.907   0.969 -0.4090  0.0333 -0.3797
   58DG     H13 1324   3.204   3.201   1.090  2.0493  0.3997  0.3883
   58DG     H14 1325   3.316   3.074   1.123  0.8779 -1.2636 -2.0573
   58DG     H15 1326   2.823   2.874   0.871 -2.6753  1.3082 -1.7202
   58DG     H16 1327   2.707   2.839   0.995 -0.2522 -0.3128 -0.7913
   58DG     C17 1328   3.106   2.999   1.133 -0.0431 -0.6646 -0.6530
   58DG     C18 1329   2.892   2.912   1.077  0.5201  0.1946 -0.3998
   58DG     O19 1330   2.992   3.006   1.045  0.2364 -0.3344  0.0212
   58DG     H20 1331   3.073   3.041   1.228  0.7509 -1.5663  0.0346
   58DG     H21 1332   3.133   2.895   1.154  2.5816 -0.0678 -0.7566
   58DG     H22 1333   2.847   2.954   1.167 -0.2742  2.2548 -1.6945
   58DG     H23 1334   2.938   2.815   1.091 -1.7345 -0.9256 -0.2878
   59DG      C1 1335   0.112   2.420   2.243 -0.3026 -0.7614 -0.1892
   59DG      C2 1336   0.181   1.688   2.077 -0.4721  0.1705  0.1372
   59DG      H3 1337   0.025   2.458   2.296 -0.4911 -1.7681  0.2408
   59DG      H4 1338   0.178   2.504   2.222  1.2339 -1.2658  2.2545
   59DG      H5 1339   0.167   2.371   2.323  0.2787 -0.0424 -0.1314
   59DG      H6 1340   0.234   1.611   2.020 -3.0538 -1.4458 -0.2327
   59DG      H7 1341   0.177   1.650   2.179 -1.0498  5.6013  2.4703
   59DG      H8 1342   0.078   1.695   2.042 -0.8384  1.7711  1.4353
   59DG      O9 1343   0.094   2.335   2.129 -0.4220  0.3013 -0.1057
   59DG     O10 1344   0.244   1.816   2.069  0.1807 -0.0538 -0.0095
   59DG     C11 1345   0.019   2.221   2.166 -0.0546 -0.4409 -0.9892
   59DG     C12 1346   0.244   1.860   1.929 -0.0168  0.0180 -0.1156
   59DG     H13 1347  -0.084   2.244   2.192  0.5522  0.5163  0.6729
   59DG     H14 1348   0.062   2.162   2.246  0.0955 -1.0960 -1.5392
   59DG     H15 1349   0.261   1.778   1.858  1.6901 -1.3456  1.7769
   59DG     H16 1350   0.334   1.922   1.928 -0.0605  0.1033  0.9474
   59DG     C17 1351   0.003   2.127   2.043 -0.2821 -0.4105  1.0755
   59DG     C18 1352   0.126   1.958   1.908 -0.7723  0.1668  0.1636
   59DG     O19 1353   0.131   2.066   2.005  0.1400 -0.3707  0.2212
   59DG     H20 1354  -0.050   2.180   1.964  1.4803  0.7898  0.6531
   59DG     H21 1355  -0.071   2.052   2.072 -0.1152 -0.7279  0.7050
   59DG     H22 1356   0.127   1.990   1.804  0.7735 -0.8203 -0.1689
   59DG     H23 1357   0.043   1.891   1.928  0.2227 -0.9790  0.5898
   60DG      C1 1358   1.022   4.308   2.483 -0.0375 -0.0533  0.0425
   60DG      C2 1359   1.283   4.133   3.200  0.5881 -0.0735  0.0462
   60DG      H3 1360   0.973   4.260   2.398 -0.5428 -0.7547  0.7086
   60DG      H4 1361   1.064   4.403   2.450  0.5727 -0.4009 -0.1877
   60DG      H5 1362   0.952   4.347   2.557  1.5779 -0.0971  1.6853
   60DG      H6 1363   1.385   4.168   3.198  1.4720 -2.3056 -3.2348
   60DG      H7 1364   1.234   4.159   3.293  0.1431 -2.6110  0.6115
   60DG      H8 1365   1.288   4.024   3.207 -0.5032 -0.0741  1.1061
   60DG      O9 1366   1.117   4.225   2.553 -0.1655  0.1961  0.0232
   60DG     O10 1367   1.209   4.157   3.077  0.3905  0.5089  0.2572
   60DG     C11 1368   1.068   4.097   2.587  0.1539  0.2948 -0.0039
   60DG     C12 1369   1.075   4.104   3.069 -0.0813  0.1871 -0.3983
   60DG     H13 1370   1.153   4.028   2.586  0.1061  0.2299 -0.7709
   60DG     H14 1371   0.997   4.059   2.513  0.5675 -0.6688  0.0702
   60DG     H15 1372   1.008   4.141   3.146 -0.3721 -2.8758  0.9403
   60DG     H16 1373   1.079   3.998   3.094 -0.7028  0.7292  2.2979
   60DG     C17 1374   0.998   4.093   2.719  0.5131  0.1391  0.9537
   60DG     C18 1375   1.002   4.154   2.947  0.5446 -0.1683 -0.1228
   60DG     O19 1376   1.071   4.147   2.823  0.2339  0.0652 -0.4012
   60DG     H20 1377   0.958   3.995   2.746 -2.8632  1.7125  2.2169
   60DG     H21 1378   0.912   4.161   2.715  0.0768 -0.4823 -1.4559
   60DG     H22 1379   0.908   4.099   2.945 -0.1393  0.9264  0.6565
   60DG     H23 1380   0.983   4.260   2.963 -1.1861 -0.1992 -1.5845
   61DG      C1 1381   3.312   0.412   3.604 -0.1814 -0.1111 -0.3199
   61DG      C2 1382   3.928   0.714   4.090  0.2055  0.4509  0.1119
   61DG      H3 1383   3.221   0.473   3.609 -0.3194 -0.3658  0.2844
   61DG      H4 1384   3.292   0.328   3.670 -0.1394  0.2659  0.1801
   61DG      H5 1385   3.305   0.367   3.505 -1.2786 -1.8564  0.5192
   61DG      H6 1386   3.867   0.803   4.097  0.7268  0.7479  1.1991
   61DG      H7 1387   3.918   0.642   4.172 -1.9709  0.3538 -0.2004
   61DG      H8 1388   4.025   0.763   4.104 -0.3428  1.2333  1.3404
   61DG      O9 1389   3.444   0.459   3.639 -0.2791 -0.5653  0.4424
   61DG     O10 1390   3.931   0.650   3.962 -0.4686  0.1811 -0.2279
   61DG     C11 1391   3.540   0.356   3.620  0.0148  0.0977  0.8993
   61DG     C12 1392   3.807   0.597   3.926  0.3778  0.1400  0.4562
   61DG     H13 1393   3.525   0.302   3.527  0.7954  0.5615  0.5013
   61DG     H14 1394   3.532   0.272   3.689 -0.8842  1.2058  2.2162
   61DG     H15 1395   3.741   0.681   3.908  2.4426  1.7687  0.1769
   61DG     H16 1396   3.760   0.535   4.003  0.5510  0.9004  1.1908
   61DG     C17 1397   3.681   0.416   3.627  0.3802 -0.1919 -0.6334
   61DG     C18 1398   3.815   0.517   3.795 -0.3530 -0.4980  0.7085
   61DG     O19 1399   3.687   0.503   3.741 -0.1787  0.0268 -0.0629
   61DG     H20 1400   3.695   0.471   3.534  1.2891  1.1392  0.2370
   61DG     H21 1401   3.751   0.333   3.637  0.6938 -0.0012 -1.2088
   61DG     H22 1402   3.890   0.550   3.723 -2.7310  2.1683 -0.7710
   61DG     H23 1403   3.845   0.418   3.828 -0.2923 -0.9295 -0.5952
   62DG      C1 1404   2.074   1.759   4.199 -1.0406 -0.5901 -0.5389
   62DG      C2 1405   1.964   2.307   4.262 -0.2020  0.1167 -0.6733
   62DG      H3 1406   2.073   1.657   4.238  0.3458  0.3799  2.3016
   62DG      H4 1407   2.028   1.772   4.101  1.3156 -0.2183 -1.6823
   62DG      H5 1408   2.013   1.821   4.265 -0.7771 -0.4871 -0.3879
   62DG      H6 1409   1.862   2.313   4.301 -0.4857 -0.2602 -1.3507
   62DG      H7 1410   2.018   2.401   4.277 -0.4624  0.4928 -1.9548
   62DG      H8 1411   1.954   2.284   4.156  1.8206 -0.4074 -0.8025
   62DG      O9 1412   2.204   1.817   4.210  0.7853 -0.0170  0.4465
   62DG     O10 1413   2.038   2.197   4.318  0.2267  0.5463 -0.0340
   62DG     C11 1414   2.254   1.783   4.334  0.6725  0.4492 -0.2569
   62DG     C12 1415   2.070   2.203   4.457 -0.4106  0.3019  0.3768
   62DG     H13 1416   2.358   1.818   4.335  0.5890  0.8951 -2.6701
   62DG     H14 1417   2.254   1.675   4.348  2.8171  0.3811 -0.4048
   62DG     H15 1418   1.985   2.246   4.509 -1.9640 -1.4799 -0.5602
   62DG     H16 1419   2.158   2.265   4.471 -0.9916  0.7225  2.3749
   62DG     C17 1420   2.197   1.852   4.460 -0.1708  0.3671 -0.1210
   62DG     C18 1421   2.093   2.052   4.518  0.5509  0.0754  0.2028
   62DG     O19 1422   2.189   1.987   4.429  0.0788 -0.3253 -0.3263
   62DG     H20 1423   2.242   1.816   4.553 -1.8494  1.6486  1.2781
   62DG     H21 1424   2.095   1.813   4.460 -0.8600  2.0573 -1.1384
   62DG     H22 1425   2.129   2.048   4.621 -0.2615  1.1767  0.5511
   62DG     H23 1426   1.996   2.003   4.515 -0.0181  1.2231 -2.0351
   63DG      C1 1427   4.943   3.792   0.392  0.0518  0.4365 -0.4877
   63DG      C2 1428   4.523   4.411   0.670 -0.1027 -0.6824  0.1244
   63DG      H3 1429   4.945   3.775   0.284  0.7338  1.6298 -0.6870
   63DG      H4 1430   4.917   3.696   0.435  1.8726  0.6648  1.2669
   63DG      H5 1431   5.044   3.828   0.415 -0.5259  1.8618 -0.0546
   63DG      H6 1432   4.572   4.508   0.679 -0.2681 -0.4696 -1.1632
   63DG      H7 1433   4.454   4.427   0.588  3.2458  1.0574 -2.6255
   63DG      H8 1434   4.472   4.408   0.767 -1.0018  2.7435 -0.1126
   63DG      O9 1435   4.837   3.884   0.432 -0.1247  0.1057  0.3918
   63DG     O10 1436   4.622   4.309   0.645 -0.1060  0.3199 -0.4639
   63DG     C11 1437   4.823   3.996   0.348  0.1148  0.5274 -0.0059
   63DG     C12 1438   4.571   4.179   0.659  0.2855 -0.6764  0.1055
   63DG     H13 1439   4.794   3.969   0.246  1.1890  1.2014 -0.5120
   63DG     H14 1440   4.920   4.045   0.345 -0.2180  1.1375 -2.0562
   63DG     H15 1441   4.496   4.152   0.585 -1.2266 -1.6560  1.9000
   63DG     H16 1442   4.524   4.169   0.757  2.0667  0.9629  1.1988
   63DG     C17 1443   4.723   4.099   0.410 -0.6512 -0.0437  0.0707
   63DG     C18 1444   4.682   4.080   0.649  0.1178 -0.8323  0.7848
   63DG     O19 1445   4.772   4.121   0.539  0.2645 -0.0421  0.2261
   63DG     H20 1446   4.634   4.036   0.412  0.5699 -1.9576 -1.1536
   63DG     H21 1447   4.702   4.177   0.337  0.9353  0.5809  0.2446
   63DG     H22 1448   4.743   4.080   0.740  3.7414  0.1974 -1.4446
   63DG     H23 1449   4.642   3.979   0.641 -3.5516  0.5561 -1.0838
   64DG      C1 1450   4.567   3.012   0.797  0.3491 -0.3372 -0.8207
   64DG      C2 1451   4.956   2.583   0.733  0.3029  0.1339 -0.6795
   64DG      H3 1452   4.635   3.030   0.880  0.8993  0.4486 -1.4305
   64DG      H4 1453   4.502   2.929   0.824  0.0725 -1.3612 -4.1705
   64DG      H5 1454   4.504   3.100   0.785 -0.3231 -0.4695  1.3406
   64DG      H6 1455   4.870   2.529   0.771  0.1988  1.8585  1.7198
   64DG      H7 1456   5.007   2.528   0.654 -0.1796 -0.4639 -0.5820
   64DG      H8 1457   5.023   2.589   0.819  0.7003 -2.6327 -0.7029
   64DG      O9 1458   4.646   2.977   0.686 -0.4271 -0.4512  0.2250
   64DG     O10 1459   4.926   2.720   0.691  0.0298  0.4657 -0.0259
   64DG     C11 1460   4.706   3.100   0.624 -1.0505  0.4471  0.6074
   64DG     C12 1461   5.035   2.804   0.670 -0.2882  0.3919  0.3531
   64DG     H13 1462   4.754   3.155   0.704 -1.3131  0.7958  0.5269
   64DG     H14 1463   4.630   3.163   0.580 -0.4543  0.9668  0.3090
   64DG     H15 1464   5.089   2.769   0.582 -1.9047  0.3769 -0.6629
   64DG     H16 1465   5.096   2.808   0.761  0.2325 -1.0031  0.0863
   64DG     C17 1466   4.800   3.048   0.517  0.5379  0.0575 -0.2249
   64DG     C18 1467   4.972   2.946   0.645  0.7081 -0.4549  0.1101
   64DG     O19 1468   4.866   2.927   0.549 -0.3754  0.5800  0.5020
   64DG     H20 1469   4.869   3.125   0.482  1.9210 -2.1019 -2.6531
   64DG     H21 1470   4.756   3.015   0.423  4.6441 -1.1322 -1.9595
   64DG     H22 1471   4.931   2.977   0.741 -0.5623  0.2158 -0.6312
   64DG     H23 1472   5.047   3.025   0.635 -1.5734  2.0453  1.4428
   65DG      C1 1473   3.674   3.918   1.284  0.3423  0.1394  0.0751
   65DG      C2 1474   3.460   3.375   1.604  0.4026  0.5252  0.0018
   65DG      H3 1475   3.766   3.923   1.343 -0.1019  0.5351  0.7435
   65DG      H4 1476   3.590   3.973   1.326 -0.0142 -0.9307  0.7934
   65DG      H5 1477   3.688   3.974   1.191 -0.6232  0.3733  0.0617
   65DG      H6 1478   3.416   3.442   1.677 -2.2730 -0.7153 -0.3224
   65DG      H7 1479   3.405   3.280   1.605  0.8225  0.2898  0.5792
   65DG      H8 1480   3.559   3.341   1.633 -0.2559 -2.0244 -0.4375
   65DG      O9 1481   3.636   3.788   1.253  0.3089  0.0637 -0.2469
   65DG     O10 1482   3.461   3.429   1.475 -0.8310  0.3909 -0.2697
   65DG     C11 1483   3.524   3.777   1.157  0.3342 -0.0703 -0.5131
   65DG     C12 1484   3.505   3.345   1.370 -0.2554  0.2378  0.4492
   65DG     H13 1485   3.541   3.833   1.065 -0.9455  0.7763 -0.2548
   65DG     H14 1486   3.433   3.830   1.186  0.1924 -0.0804 -0.9366
   65DG     H15 1487   3.446   3.254   1.375  1.9906 -1.3461 -0.1115
   65DG     H16 1488   3.610   3.317   1.377  0.0690  1.3356  0.0816
   65DG     C17 1489   3.494   3.630   1.130 -0.1787 -0.0782 -0.1195
   65DG     C18 1490   3.485   3.425   1.243 -0.3527  0.1402 -0.8178
   65DG     O19 1491   3.514   3.564   1.254  0.3791 -0.0813  0.4724
   65DG     H20 1492   3.573   3.609   1.058  0.0462 -0.3050  0.1901
   65DG     H21 1493   3.393   3.617   1.092 -1.2382  3.4722  1.0614
   65DG     H22 1494   3.534   3.379   1.157  2.8954  1.0564  0.4014
   65DG     H23 1495   3.377   3.416   1.232 -0.6897  0.8447  1.3521
   66DG      C1 1496   1.210   0.435   3.424 -0.4220  0.6534  0.5701
   66DG      C2 1497   1.307  -0.049   2.876 -0.6463  0.4909 -0.2454
   66DG      H3 1498   1.316   0.422   3.441 -0.4540 -2.9603 -0.9765
   66DG      H4 1499   1.160   0.440   3.521 -0.4501 -2.6715  0.8517
   66DG      H5 1500   1.186   0.524   3.366 -0.7091 -1.3173 -2.6442
   66DG      H6 1501   1.256  -0.087   2.788  0.9492 -0.0217 -0.9837
   66DG      H7 1502   1.351   0.048   2.852 -3.1000  2.2567  1.8155
   66DG      H8 1503   1.386  -0.119   2.901 -0.5191  0.5738 -0.4112
   66DG      O9 1504   1.169   0.313   3.362 -0.0635  0.0869  0.0271
   66DG     O10 1505   1.225  -0.016   2.989  0.3901 -0.2559  0.2502
   66DG     C11 1506   1.022   0.315   3.339  0.2736 -0.7412  0.5925
   66DG     C12 1507   1.099   0.034   2.942 -0.8651  0.3721  0.7910
   66DG     H13 1508   1.001   0.406   3.283 -0.2821 -1.0986  0.2064
   66DG     H14 1509   0.961   0.324   3.430 -4.4424  0.2464 -2.3078
   66DG     H15 1510   1.060  -0.029   2.862  2.3013 -1.0210  0.2261
   66DG     H16 1511   1.131   0.126   2.893  1.1134 -0.2527  0.8629
   66DG     C17 1512   0.967   0.197   3.250  0.5991  0.2557  0.4018
   66DG     C18 1513   0.999   0.070   3.052  0.5838 -0.6404  0.4027
   66DG     O19 1514   1.054   0.179   3.134  0.1677  0.5002 -0.3392
   66DG     H20 1515   0.867   0.212   3.208  0.3074  0.3349  1.1088
   66DG     H21 1516   0.968   0.101   3.302  0.5111  0.0788  0.0819
   66DG     H22 1517   0.912   0.111   3.001  1.3942  1.9835  0.9667
   66DG     H23 1518   0.959  -0.009   3.115  3.4115  0.9726  4.6676
   67DG      C1 1519   2.863   3.349   4.183  0.0870 -0.1003  0.4006
   67DG      C2 1520   2.251   3.720   4.005 -0.2504 -0.0998  0.3419
   67DG      H3 1521   2.889   3.257   4.237  0.3034 -0.2912 -0.0211
   67DG      H4 1522   2.906   3.436   4.232 -2.5540  1.6047 -0.1068
   67DG      H5 1523   2.910   3.345   4.085  2.6320  1.8323  1.4190
   67DG      H6 1524   2.250   3.689   3.901 -1.8650  1.1931 -0.0762
   67DG      H7 1525   2.149   3.729   4.043  0.4883  2.8477  1.9350
   67DG      H8 1526   2.314   3.808   4.010  0.2609 -0.4502  0.1343
   67DG      O9 1527   2.718   3.367   4.167 -0.8864 -0.0347  0.2411
   67DG     O10 1528   2.319   3.613   4.074 -0.3322 -0.7110  0.4350
   67DG     C11 1529   2.658   3.271   4.097  0.8543  0.0448  0.0127
   67DG     C12 1530   2.263   3.491   4.048  0.0641 -0.3499 -0.3149
   67DG     H13 1531   2.689   3.167   4.109  1.8534 -0.0204 -2.4978
   67DG     H14 1532   2.659   3.291   3.990 -1.0577  1.1330  0.1670
   67DG     H15 1533   2.260   3.453   3.946  2.9417 -0.6177 -0.3816
   67DG     H16 1534   2.157   3.483   4.075 -0.3824  2.1150 -1.1274
   67DG     C17 1535   2.512   3.265   4.149 -0.1268  0.2035  0.4440
   67DG     C18 1536   2.323   3.394   4.143  1.1688  0.3702  0.1242
   67DG     O19 1537   2.451   3.380   4.097  0.0522  0.2352  0.1280
   67DG     H20 1538   2.510   3.267   4.258  1.2751  2.1928  0.4775
   67DG     H21 1539   2.454   3.178   4.118 -1.3053  1.3131 -0.5967
   67DG     H22 1540   2.322   3.440   4.242 -2.2830  1.4799 -0.2940
   67DG     H23 1541   2.259   3.306   4.142 -1.1191  1.9358  0.2817
   68DG      C1 1542   4.038   2.923   2.747  0.2958 -0.1420 -0.1404
   68DG      C2 1543   4.231   2.834   2.194  0.3617 -0.0410 -0.3039
   68DG      H3 1544   4.137   2.914   2.790 -0.3725  2.2266  2.2053
   68DG      H4 1545   4.014   2.832   2.693  0.5086  0.5218 -1.4095
   68DG      H5 1546   3.956   2.917   2.819  1.1784 -0.8695  0.8195
   68DG      H6 1547   4.176   2.755   2.143  0.8781 -1.9952  1.9811
   68DG      H7 1548   4.261   2.915   2.127 -0.1289 -0.5818 -1.1923
   68DG      H8 1549   4.318   2.797   2.248  0.6359  1.3915  0.2839
   68DG      O9 1550   4.032   3.029   2.652 -0.0574 -0.3722 -0.8652
   68DG     O10 1551   4.138   2.898   2.284 -0.2873  0.0369  0.0478
   68DG     C11 1552   3.894   3.059   2.624  0.2629 -0.2840  0.0573
   68DG     C12 1553   4.027   2.958   2.218 -0.4456 -0.1052  0.0231
   68DG     H13 1554   3.843   3.098   2.712 -1.8198 -1.6259 -0.4917
   68DG     H14 1555   3.831   2.974   2.599 -0.0248 -0.3398  0.9422
   68DG     H15 1556   3.984   2.893   2.142 -2.5433  0.6710  0.4554
   68DG     H16 1557   4.061   3.048   2.165 -1.6779  0.5315  0.2662
   68DG     C17 1558   3.878   3.154   2.508 -0.2845  0.2691 -0.4375
   68DG     C18 1559   3.927   3.016   2.315  0.2271 -0.1302 -0.2445
   68DG     O19 1560   3.981   3.100   2.417 -0.2016 -0.2035 -0.3263
   68DG     H20 1561   3.923   3.252   2.526  2.0192 -0.4730 -1.6507
   68DG     H21 1562   3.775   3.146   2.474  0.2430 -2.8871 -1.6344
   68DG     H22 1563   3.846   3.069   2.265  0.6352  0.3199 -0.4405
   68DG     H23 1564   3.885   2.926   2.359 -1.0213  1.0512  1.0595
   69DG      C1 1565   5.057   1.462   1.523  0.6638 -0.5954  0.6161
   69DG      C2 1566   4.773   0.975   1.144  0.3745 -0.9098 -0.4428
   69DG      H3 1567   5.054   1.544   1.451  1.7318 -2.7741 -2.0434
   69DG      H4 1568   5.145   1.406   1.495  1.3339  0.3975  0.6831
   69DG      H5 1569   5.076   1.482   1.629 -0.5124  0.1150  0.7167
   69DG      H6 1570   4.872   0.937   1.119  0.7215  0.8457 -2.0001
   69DG      H7 1571   4.708   0.888   1.136  0.3218 -0.7760 -1.7117
   69DG      H8 1572   4.749   1.050   1.068 -1.9024 -1.6190 -0.5032
   69DG      O9 1573   4.938   1.384   1.514  0.0881  0.0955 -0.4282
   69DG     O10 1574   4.766   1.040   1.267  0.1307 -0.0215  0.1094
   69DG     C11 1575   4.814   1.433   1.552  0.7696 -0.3203 -0.2349
   69DG     C12 1576   4.627   1.080   1.288 -1.1382  0.1255 -0.7355
   69DG     H13 1577   4.775   1.513   1.489  1.1577 -0.6564 -0.9168
   69DG     H14 1578   4.808   1.474   1.653 -1.3159 -2.3654  0.5745
   69DG     H15 1579   4.546   1.008   1.279 -0.4442 -1.0247  1.4278
   69DG     H16 1580   4.613   1.164   1.220  0.9233  0.9575 -0.2148
   69DG     C17 1581   4.719   1.314   1.563  0.5439  0.2611 -0.0682
   69DG     C18 1582   4.619   1.142   1.433 -0.0266  0.3374  0.4768
   69DG     O19 1583   4.709   1.251   1.433  0.1596  0.2769 -0.2697
   69DG     H20 1584   4.615   1.338   1.586  0.1839 -0.7113 -0.5955
   69DG     H21 1585   4.754   1.238   1.633  1.9773 -0.2563 -1.2955
   69DG     H22 1586   4.515   1.175   1.442  0.2675  0.8200  2.6721
   69DG     H23 1587   4.656   1.076   1.511  0.3602 -0.5876 -0.4661
   70DG      C1 1588   2.819   4.146   0.811  0.0363  0.4012  0.3252
   70DG      C2 1589   2.023   3.834   0.893  0.5848 -0.6384 -0.0205
   70DG      H3 1590   2.869   4.242   0.825 -2.6315  2.0525 -0.8543
   70DG      H4 1591   2.861   4.104   0.719 -0.2388 -0.4877  0.5983
   70DG      H5 1592   2.854   4.078   0.889 -3.4243  0.1975  1.8831
   70DG      H6 1593   2.052   3.801   0.793 -0.7114 -2.1129  0.0483
   70DG      H7 1594   2.052   3.761   0.969 -0.2800  0.5244  1.4784
   70DG      H8 1595   1.916   3.856   0.896  0.7823  0.2318  1.0925
   70DG      O9 1596   2.679   4.174   0.814  0.0042  0.1410 -0.2283
   70DG     O10 1597   2.086   3.959   0.927  0.1754  0.1660  0.2570
   70DG     C11 1598   2.615   4.201   0.936 -0.2498  0.0478 -0.4823
   70DG     C12 1599   2.229   3.964   0.902 -0.3719 -0.3472  0.3466
   70DG     H13 1600   2.655   4.291   0.983 -1.0342 -1.2911  3.1157
   70DG     H14 1601   2.625   4.120   1.009  0.3063  1.4186  1.0110
   70DG     H15 1602   2.242   3.951   0.795  2.1365  1.6207  0.3149
   70DG     H16 1603   2.283   3.893   0.964  0.1905  1.9203  2.6317
   70DG     C17 1604   2.468   4.232   0.928 -0.0790 -0.2536 -0.3203
   70DG     C18 1605   2.279   4.101   0.939 -0.2048  0.4813  0.0583
   70DG     O19 1606   2.409   4.108   0.893 -0.4169  0.0585  0.3447
   70DG     H20 1607   2.449   4.314   0.859  2.1269  1.1607  0.6274
   70DG     H21 1608   2.436   4.266   1.027 -1.7230 -0.7649 -0.6464
   70DG     H22 1609   2.210   4.174   0.897 -1.4599 -1.5278 -1.5225
   70DG     H23 1610   2.276   4.115   1.047 -0.9879  2.0431 -0.1429
   71DG      C1 1611   3.254   3.482   3.507 -0.5254  0.2731  0.1794
   71DG      C2 1612   2.627   3.697   3.402  0.5082 -0.0989 -0.3299
   71DG      H3 1613   3.360   3.484   3.478 -0.7305 -0.0447 -0.6222
   71DG      H4 1614   3.216   3.380   3.516 -1.5734  0.2407 -3.2651
   71DG      H5 1615   3.243   3.532   3.603  1.4366 -0.5889  0.9145
   71DG      H6 1616   2.629   3.749   3.306  0.1819 -1.2489 -0.9787
   71DG      H7 1617   2.603   3.594   3.375 -0.8273 -0.1420  0.9235
   71DG      H8 1618   2.547   3.728   3.470  0.6137 -2.5569  1.0405
   71DG      O9 1619   3.181   3.540   3.402 -0.7842 -0.9361  0.3663
   71DG     O10 1620   2.754   3.713   3.465 -0.0641 -0.2045 -0.5185
   71DG     C11 1621   3.216   3.680   3.382 -0.1777 -0.3139 -0.3552
   71DG     C12 1622   2.791   3.845   3.510  0.3489 -0.1666 -0.2663
   71DG     H13 1623   3.186   3.701   3.279  2.4066 -0.1733 -1.1568
   71DG     H14 1624   3.324   3.693   3.388 -0.4077  2.5049 -0.8385
   71DG     H15 1625   2.726   3.874   3.593  0.9593 -1.0253  0.5308
   71DG     H16 1626   2.793   3.908   3.421  1.7010 -1.4569 -1.1978
   71DG     C17 1627   3.152   3.781   3.486  0.0312 -0.1713 -0.6489
   71DG     C18 1628   2.934   3.838   3.559  0.9858  0.2824  0.0304
   71DG     O19 1629   3.009   3.782   3.456  0.2883  0.2670  0.8086
   71DG     H20 1630   3.202   3.877   3.472 -0.7046  0.5665  1.3195
   71DG     H21 1631   3.179   3.749   3.587  1.8134 -2.7790 -1.8428
   71DG     H22 1632   2.991   3.921   3.601  1.3197  0.1206 -0.1078
   71DG     H23 1633   2.930   3.761   3.635 -0.6317 -0.1617 -0.4484
   72DG      C1 1634   1.685   2.063   0.524  0.2202 -0.6099  0.0931
   72DG      C2 1635   1.124   2.442   0.753  0.1673  0.7854 -0.7591
   72DG      H3 1636   1.652   2.074   0.420 -1.7441  0.6181  0.7668
   72DG      H4 1637   1.781   2.015   0.535 -0.3643 -2.5083 -2.3331
   72DG      H5 1638   1.687   2.167   0.558  0.6595 -0.8465  0.7965
   72DG      H6 1639   1.032   2.431   0.811 -0.4871 -0.6515 -2.0271
   72DG      H7 1640   1.181   2.520   0.803 -1.0807  0.8443  0.6645
   72DG      H8 1641   1.078   2.466   0.657  1.1040  3.2844 -0.6498
   72DG      O9 1642   1.567   2.012   0.596 -0.4669  0.0120 -0.6885
   72DG     O10 1643   1.194   2.318   0.758  0.0723 -0.8969  0.4194
   72DG     C11 1644   1.592   2.010   0.736 -0.3383  0.0480  0.0544
   72DG     C12 1645   1.218   2.277   0.894 -0.3405 -0.0464  0.2823
   72DG     H13 1646   1.649   2.098   0.766 -0.1102  0.0939 -0.5034
   72DG     H14 1647   1.661   1.926   0.743 -1.7159 -0.9691  3.4304
   72DG     H15 1648   1.125   2.269   0.950 -0.9026  1.3017 -0.4096
   72DG     H16 1649   1.273   2.361   0.937 -2.2309  1.2498  0.3135
   72DG     C17 1650   1.473   2.000   0.827  0.1478  0.2596 -0.1483
   72DG     C18 1651   1.278   2.141   0.894  0.7041  0.0602 -0.7027
   72DG     O19 1652   1.395   2.127   0.817 -0.1066  0.2668 -0.0352
   72DG     H20 1653   1.496   1.980   0.931 -2.7081 -1.4054  0.2952
   72DG     H21 1654   1.405   1.917   0.806  0.2805 -0.7346  2.9349
   72DG     H22 1655   1.310   2.111   0.994 -1.0631 -3.1076 -0.9635
   72DG     H23 1656   1.206   2.067   0.859  3.1834 -3.6967  1.3575
   73DG      C1 1657   3.185   0.849   2.806  0.2723  1.1843  0.1122
   73DG      C2 1658   2.539   1.247   2.994  0.0393  0.0426  0.2880
   73DG      H3 1659   3.193   0.837   2.914  0.0445  0.8382  0.0919
   73DG      H4 1660   3.285   0.859   2.765  0.5784 -0.6615  0.3077
   73DG      H5 1661   3.141   0.762   2.758  1.7847  0.5802 -0.2412
   73DG      H6 1662   2.537   1.189   3.087  1.2125 -0.8523 -0.2268
   73DG      H7 1663   2.514   1.353   3.003  2.1950  0.8946 -2.5146
   73DG      H8 1664   2.451   1.209   2.942 -0.4940 -0.4786  1.5031
   73DG      O9 1665   3.094   0.957   2.779 -0.3616 -0.5738 -0.5786
   73DG     O10 1666   2.651   1.240   2.908 -0.3348  0.0531  0.1220
   73DG     C11 1667   3.154   1.087   2.793 -0.7910  0.2575 -0.0685
   73DG     C12 1668   2.699   1.111   2.893  0.1515 -0.0023 -0.6019
   73DG     H13 1669   3.251   1.102   2.745 -0.1523 -1.5156  0.5874
   73DG     H14 1670   3.174   1.111   2.897 -2.8513  1.4909  0.0912
   73DG     H15 1671   2.618   1.054   2.847 -0.9286  0.4152  0.7379
   73DG     H16 1672   2.715   1.081   2.996 -0.4911  0.7537 -0.2747
   73DG     C17 1673   3.050   1.190   2.740  0.2198  0.0295  0.4210
   73DG     C18 1674   2.824   1.097   2.797 -0.6116  0.3131 -0.2802
   73DG     O19 1675   2.937   1.188   2.831 -0.0180 -0.1702 -0.3259
   73DG     H20 1676   3.034   1.152   2.639 -1.2369 -1.4345  1.1604
   73DG     H21 1677   3.086   1.292   2.733 -2.0613  0.7895 -3.6676
   73DG     H22 1678   2.856   0.993   2.795 -2.1552 -0.1826 -1.8702
   73DG     H23 1679   2.802   1.110   2.691  0.8557  0.5791 -0.5748
   74DG      C1 1680   2.196   4.421   4.825  0.2742  0.2618  0.0170
   74DG      C2 1681   2.794   4.129   5.077  0.2073 -0.8357 -0.2500
   74DG      H3 1682   2.137   4.511   4.810  2.3066  1.4610 -1.1212
   74DG      H4 1683   2.143   4.331   4.857  1.4370 -0.5648 -0.3173
   74DG      H5 1684   2.240   4.400   4.728 -0.7431  0.1810 -0.4373
   74DG      H6 1685   2.887   4.136   5.134  2.5744  0.2188 -3.8968
   74DG      H7 1686   2.748   4.032   5.097 -0.7207 -0.6040 -1.1355
   74DG      H8 1687   2.830   4.144   4.975  0.4084 -1.1591 -0.2301
   74DG      O9 1688   2.292   4.446   4.928  0.8712 -0.6348 -0.1283
   74DG     O10 1689   2.698   4.230   5.099  0.0604  0.1216  0.2786
   74DG     C11 1690   2.245   4.429   5.060 -0.0473  0.6678 -0.1209
   74DG     C12 1691   2.650   4.240   5.233 -0.4792  0.2864 -0.5437
   74DG     H13 1692   2.212   4.325   5.063 -1.6061  1.1208 -0.5798
   74DG     H14 1693   2.156   4.493   5.063  0.5718  1.5335  0.0369
   74DG     H15 1694   2.735   4.247   5.300 -0.8555  0.1968 -0.0511
   74DG     H16 1695   2.595   4.152   5.266  3.2087 -1.2943  2.0520
   74DG     C17 1696   2.355   4.458   5.168 -0.1637 -0.3514  0.3713
   74DG     C18 1697   2.558   4.361   5.255  0.2963 -0.9756 -0.0325
   74DG     O19 1698   2.456   4.353   5.157 -0.0271 -0.1818  0.0707
   74DG     H20 1699   2.309   4.453   5.266 -2.3767  0.2219 -0.5745
   74DG     H21 1700   2.406   4.553   5.150 -0.1894 -0.4440 -0.2144
   74DG     H22 1701   2.520   4.366   5.357  0.3377 -0.1254 -0.0498
   74DG     H23 1702   2.621   4.447   5.233  1.0407 -2.0878 -2.5424
   75DG      C1 1703   3.019   3.108   2.400 -0.0365  0.8974 -0.2683
   75DG      C2 1704   2.918   3.653   1.987 -0.3413  0.3847  0.4413
   75DG      H3 1705   3.060   3.011   2.431  0.6600  1.4590  0.6369
   75DG      H4 1706   2.928   3.132   2.454 -0.5801  1.3426 -1.3630
   75DG      H5 1707   3.095   3.180   2.431 -0.5907  0.7668  1.5237
   75DG      H6 1708   2.848   3.700   1.918 -0.3313  0.5529  0.5450
   75DG      H7 1709   2.931   3.703   2.083  2.6277  1.1568 -0.2547
   75DG      H8 1710   3.015   3.664   1.939  0.1932  2.6166  1.8836
   75DG      O9 1711   3.007   3.118   2.257  0.0062 -0.3708  0.0352
   75DG     O10 1712   2.889   3.516   2.010  0.0238 -0.2356 -0.0948
   75DG     C11 1713   2.885   3.069   2.202 -1.1846 -0.0711 -0.1198
   75DG     C12 1714   2.879   3.433   1.898 -0.0868  0.7790  0.4607
   75DG     H13 1715   2.806   3.118   2.259 -0.3395  0.2823  0.7627
   75DG     H14 1716   2.868   2.963   2.220 -0.8009 -0.6772 -2.7889
   75DG     H15 1717   2.978   3.417   1.856  1.4690  3.1410  2.8981
   75DG     H16 1718   2.812   3.478   1.824 -0.9974 -1.2493 -0.0017
   75DG     C17 1719   2.869   3.094   2.054  0.0145  0.0558 -0.1618
   75DG     C18 1720   2.822   3.293   1.927 -0.0686  0.4871  0.7936
   75DG     O19 1721   2.896   3.232   2.031 -0.5707 -0.1964 -0.0738
   75DG     H20 1722   2.770   3.062   2.023  0.4082  1.1319 -2.7597
   75DG     H21 1723   2.940   3.037   1.994 -1.3366 -1.3664 -0.4632
   75DG     H22 1724   2.716   3.302   1.950 -0.0091  0.2195  1.1767
   75DG     H23 1725   2.815   3.234   1.836 -0.0482  1.3719  0.2093
   76DG      C1 1726   2.751   1.601   2.980 -0.1416  0.0255  0.7874
   76DG      C2 1727   3.099   1.615   3.505  0.5785 -0.0573  0.2658
   76DG      H3 1728   2.792   1.510   2.938 -0.5311  0.5584 -0.7949
   76DG      H4 1729   2.699   1.653   2.900  1.9450 -1.2289 -1.4859
   76DG      H5 1730   2.671   1.574   3.050 -1.6929 -0.9955 -1.2826
   76DG      H6 1731   3.169   1.644   3.583  0.9738 -0.9603  0.2600
   76DG      H7 1732   3.004   1.593   3.554  1.5520  1.9937  3.3897
   76DG      H8 1733   3.137   1.532   3.446  1.4254 -0.1259  0.9005
   76DG      O9 1734   2.842   1.695   3.034 -0.2179 -0.3046 -1.1221
   76DG     O10 1735   3.080   1.715   3.418  0.0473  0.1619  0.4306
   76DG     C11 1736   2.934   1.757   2.936  0.0325  0.1527  0.3118
   76DG     C12 1737   3.197   1.758   3.348  0.2742 -0.1561 -0.2413
   76DG     H13 1738   2.893   1.827   2.863  0.6861 -1.8485 -2.1215
   76DG     H14 1739   2.976   1.675   2.878 -1.0893 -0.1571 -0.0897
   76DG     H15 1740   3.253   1.682   3.294 -0.6868  0.3123 -1.9912
   76DG     H16 1741   3.261   1.810   3.419 -2.0531  1.8891  0.4998
   76DG     C17 1742   3.039   1.826   3.018  0.4665 -0.7270  0.2213
   76DG     C18 1743   3.154   1.850   3.236  0.5621  0.5883  0.9114
   76DG     O19 1744   3.088   1.759   3.136 -0.0524  0.0546 -0.2113
   76DG     H20 1745   3.002   1.921   3.057 -0.0962 -1.1414  0.6946
   76DG     H21 1746   3.116   1.866   2.952  0.9616 -1.8460  0.1040
   76DG     H22 1747   3.085   1.923   3.275  0.4828  0.0281  1.8458
   76DG     H23 1748   3.237   1.906   3.194  0.7502 -1.2154 -1.3307
   77DG      C1 1749   4.753   5.308   4.572 -0.6307  0.3434 -0.3605
   77DG      C2 1750   5.036   5.734   4.212  0.0858  0.3446  0.9169
   77DG      H3 1751   4.859   5.283   4.581 -0.5870  0.6361 -0.0466
   77DG      H4 1752   4.720   5.290   4.469 -5.6154 -0.5047  1.0991
   77DG      H5 1753   4.688   5.257   4.643  2.2547 -1.0823  1.4411
   77DG      H6 1754   5.060   5.834   4.175 -0.6784  1.6257  3.6243
   77DG      H7 1755   5.130   5.688   4.238 -0.2879 -1.1415 -0.2294
   77DG      H8 1756   4.990   5.671   4.136  0.8860 -1.8581  2.1922
   77DG      O9 1757   4.745   5.449   4.590  0.0240  0.3213 -0.1256
   77DG     O10 1758   4.945   5.744   4.320  0.2729 -0.1401 -0.4733
   77DG     C11 1759   4.620   5.513   4.593  0.6063  0.6453  0.1763
   77DG     C12 1760   4.823   5.807   4.276 -0.2096 -0.1595 -0.2361
   77DG     H13 1761   4.566   5.489   4.685 -1.6123  1.1627 -0.9105
   77DG     H14 1762   4.566   5.470   4.508 -1.9938  0.9997  1.5346
   77DG     H15 1763   4.778   5.754   4.192  1.7787 -0.1764 -1.3643
   77DG     H16 1764   4.840   5.910   4.244  0.2248  0.2416  1.2007
   77DG     C17 1765   4.632   5.659   4.552  0.2356 -0.2790  0.0561
   77DG     C18 1766   4.720   5.805   4.397 -0.1422 -0.2419 -0.3536
   77DG     O19 1767   4.722   5.670   4.444  0.0471  0.0044 -0.4630
   77DG     H20 1768   4.678   5.708   4.637  0.4928 -0.4268  0.0025
   77DG     H21 1769   4.532   5.697   4.527  0.8140  0.6640 -0.9032
   77DG     H22 1770   4.748   5.887   4.464  2.9823  0.0360 -1.8099
   77DG     H23 1771   4.619   5.836   4.372  0.0473 -0.7352 -1.8665
   78DG      C1 1772   0.686   3.802   3.100  0.0504 -0.5519 -0.1496
   78DG      C2 1773   1.254   3.518   2.769  0.0827 -0.6576  0.2389
   78DG      H3 1774   0.715   3.884   3.165 -1.7551  0.7033 -0.8531
   78DG      H4 1775   0.722   3.709   3.145  1.6336  0.4617  0.7415
   78DG      H5 1776   0.577   3.806   3.097  0.1032  0.9056 -0.8047
   78DG      H6 1777   1.212   3.428   2.815 -1.1998 -0.0364  0.3571
   78DG      H7 1778   1.298   3.497   2.672 -0.7843 -1.1341 -0.0626
   78DG      H8 1779   1.333   3.559   2.831  0.2048  0.0435 -0.3686
   78DG      O9 1780   0.721   3.825   2.969 -0.7011  0.2145  0.2324
   78DG     O10 1781   1.139   3.602   2.755  0.2281 -0.1138 -0.2083
   78DG     C11 1782   0.674   3.729   2.881  0.1381  0.5878 -0.4729
   78DG     C12 1783   1.054   3.584   2.641 -0.0859 -0.4098 -0.5029
   78DG     H13 1784   0.567   3.748   2.876  0.5036  2.9681 -0.4471
   78DG     H14 1785   0.688   3.628   2.919 -0.6313  0.8521  0.5567
   78DG     H15 1786   1.019   3.481   2.652  1.3607 -0.7604  1.3323
   78DG     H16 1787   1.107   3.601   2.547 -1.2890  5.1651 -0.5121
   78DG     C17 1788   0.732   3.745   2.745  0.0391  0.5430  0.0423
   78DG     C18 1789   0.935   3.678   2.648  0.2846 -0.2953  0.8489
   78DG     O19 1790   0.854   3.666   2.757 -0.1269  0.2831 -0.1535
   78DG     H20 1791   0.753   3.848   2.715 -0.2243  0.2459 -1.2318
   78DG     H21 1792   0.662   3.695   2.678  0.1290  0.3165  0.1171
   78DG     H22 1793   0.969   3.781   2.636  0.7742 -0.5030  0.3809
   78DG     H23 1794   0.872   3.665   2.560 -0.0744  1.5195  0.8137
   79DG      C1 1795   1.562   2.229   3.418 -0.5324  0.2955  0.2569
   79DG      C2 1796   1.694   2.023   4.086  0.5357 -0.0424  0.5913
   79DG      H3 1797   1.504   2.185   3.337 -0.2873  1.8933 -0.8432
   79DG      H4 1798   1.646   2.268   3.360 -2.5285  3.1998 -0.9212
   79DG      H5 1799   1.507   2.313   3.460  0.3116  1.3583 -0.6732
   79DG      H6 1800   1.616   1.974   4.144 -0.9761 -0.0955 -1.3805
   79DG      H7 1801   1.790   1.997   4.131  0.3834 -0.5156  0.6519
   79DG      H8 1802   1.685   2.130   4.105  0.1471 -0.4323  2.8774
   79DG      O9 1803   1.602   2.137   3.516  0.0672 -0.3833 -0.3270
   79DG     O10 1804   1.682   1.995   3.948 -0.2142 -0.1168  0.2148
   79DG     C11 1805   1.655   2.017   3.464  0.5747  0.0784 -0.1792
   79DG     C12 1806   1.658   1.861   3.922 -0.5896 -0.0856  0.2910
   79DG     H13 1807   1.718   2.036   3.378 -0.8770 -0.9806 -1.5173
   79DG     H14 1808   1.578   1.953   3.422 -0.5445  1.6469 -0.5977
   79DG     H15 1809   1.553   1.837   3.938 -0.9974  1.3423 -0.0697
   79DG     H16 1810   1.709   1.799   3.995 -0.0814 -0.4564 -0.3685
   79DG     C17 1811   1.727   1.945   3.578 -0.2953 -0.3884 -0.8860
   79DG     C18 1812   1.706   1.827   3.785 -0.2683 -0.1378  0.1199
   79DG     O19 1813   1.640   1.908   3.686 -0.1204  0.8056 -0.5492
   79DG     H20 1814   1.812   2.008   3.604  1.8980 -2.0848 -3.3653
   79DG     H21 1815   1.767   1.857   3.528  1.9966  0.4998 -0.7327
   79DG     H22 1816   1.814   1.836   3.782 -0.2268  0.4862  1.9736
   79DG     H23 1817   1.675   1.725   3.761 -0.3351  0.1211 -0.9744
   80DG      C1 1818   2.360   1.676   3.902  0.7178  0.0905 -0.4883
   80DG      C2 1819   1.770   1.574   3.338 -0.1800  0.0386  0.2443
   80DG      H3 1820   2.436   1.603   3.930  0.9849 -0.7928 -3.2063
   80DG      H4 1821   2.297   1.713   3.983 -0.8184 -3.6770  0.2479
   80DG      H5 1822   2.416   1.763   3.869 -1.8824  1.0761 -2.7068
   80DG      H6 1823   1.690   1.532   3.277 -0.8101  1.1755  0.2670
   80DG      H7 1824   1.736   1.651   3.407 -1.6373 -2.1830  2.1080
   80DG      H8 1825   1.836   1.629   3.270 -1.1075  0.6246 -0.2014
   80DG      O9 1826   2.283   1.616   3.805  0.7637  0.2322 -0.5551
   80DG     O10 1827   1.841   1.477   3.404 -0.0866 -0.0281 -0.0733
   80DG     C11 1828   2.362   1.542   3.711 -0.1274  0.1669  0.0269
   80DG     C12 1829   1.938   1.531   3.497  0.5107 -0.0904 -0.0231
   80DG     H13 1830   2.428   1.473   3.763  0.1936  0.1521 -0.3929
   80DG     H14 1831   2.421   1.606   3.646  0.1243 -1.1318 -1.0693
   80DG     H15 1832   1.897   1.546   3.597  0.9252 -1.1402  0.3185
   80DG     H16 1833   1.979   1.624   3.458  1.7340 -1.3559 -1.9549
   80DG     C17 1834   2.268   1.448   3.631 -0.2671 -0.1758 -0.1718
   80DG     C18 1835   2.059   1.439   3.514 -0.3327 -0.0368  0.4897
   80DG     O19 1836   2.147   1.516   3.589 -0.0106 -0.1266 -0.0575
   80DG     H20 1837   2.245   1.353   3.678  0.1655  0.1232  0.6769
   80DG     H21 1838   2.314   1.413   3.538 -0.3582 -1.4383  0.2488
   80DG     H22 1839   2.036   1.341   3.556 -0.4513 -1.2661 -2.2324
   80DG     H23 1840   2.104   1.413   3.418  1.3333 -0.5284  1.3592
   81DG      C1 1841   0.795   2.680   0.415  0.1358  0.0012  0.4029
   81DG      C2 1842   0.446   2.046   0.900 -0.1496  0.4357  0.4211
   81DG      H3 1843   0.699   2.676   0.364  1.7809 -1.3605 -2.8616
   81DG      H4 1844   0.866   2.623   0.354 -2.1713 -0.4346 -2.0333
   81DG      H5 1845   0.815   2.786   0.431  1.4857 -0.2366  0.4113
   81DG      H6 1846   0.397   2.024   0.806 -0.6129  1.7110  0.3498
   81DG      H7 1847   0.538   1.990   0.919 -0.4718 -0.0088  0.6775
   81DG      H8 1848   0.368   2.013   0.968 -1.7224 -1.2158 -2.0291
   81DG      O9 1849   0.793   2.605   0.532 -0.5881 -0.4478  0.0112
   81DG     O10 1850   0.471   2.184   0.910  0.2696 -0.2976  0.4858
   81DG     C11 1851   0.709   2.666   0.629  0.6804  0.3080  0.4987
   81DG     C12 1852   0.534   2.240   0.791 -0.4117 -0.7129 -0.3185
   81DG     H13 1853   0.605   2.666   0.598  1.0828  1.9940 -1.0127
   81DG     H14 1854   0.737   2.770   0.646  1.0026  0.6316 -1.6882
   81DG     H15 1855   0.464   2.263   0.710  0.6092  1.5106 -0.6467
   81DG     H16 1856   0.614   2.174   0.758  0.8384 -0.3302  1.7939
   81DG     C17 1857   0.717   2.576   0.757  0.2868 -0.1632  0.1149
   81DG     C18 1858   0.601   2.375   0.835 -0.3748 -0.2748  0.1891
   81DG     O19 1859   0.642   2.454   0.731  0.7079 -0.0381  0.6514
   81DG     H20 1860   0.670   2.636   0.835 -0.9225  2.1216 -2.2464
   81DG     H21 1861   0.820   2.560   0.791 -0.7011 -1.3798  2.9136
   81DG     H22 1862   0.533   2.424   0.904 -2.1739 -1.8667 -0.3376
   81DG     H23 1863   0.691   2.352   0.891  0.3526  1.4208 -0.2300
   82DG      C1 1864   2.177   2.292   1.323 -0.3015 -1.2450  0.6041
   82DG      C2 1865   2.226   2.200   1.995  0.5555 -0.6916 -0.1021
   82DG      H3 1866   2.142   2.379   1.267  1.0805 -1.8174 -1.2568
   82DG      H4 1867   2.110   2.208   1.305 -0.7781 -0.8557  0.5385
   82DG      H5 1868   2.273   2.275   1.275 -0.2685  0.3279  0.0228
   82DG      H6 1869   2.133   2.149   1.970  0.1865 -0.1046  0.0729
   82DG      H7 1870   2.268   2.139   2.075  1.6476  0.5777  0.3313
   82DG      H8 1871   2.207   2.302   2.025  2.5564 -0.8215  1.8872
   82DG      O9 1872   2.204   2.296   1.463 -0.0621  0.1851  0.0087
   82DG     O10 1873   2.299   2.193   1.874  0.2913 -0.1611  0.4850
   82DG     C11 1874   2.277   2.408   1.507  0.0386  0.1347  0.1232
   82DG     C12 1875   2.424   2.249   1.892  0.2521 -0.1399  0.4792
   82DG     H13 1876   2.207   2.491   1.495 -0.3479  0.0125  1.4021
   82DG     H14 1877   2.359   2.439   1.442 -0.1257 -0.1013 -0.1987
   82DG     H15 1878   2.485   2.186   1.957  1.2294  1.1801  0.8972
   82DG     H16 1879   2.418   2.345   1.943  1.1589  0.5589 -0.6820
   82DG     C17 1880   2.325   2.393   1.653 -0.0527  0.2003  0.7595
   82DG     C18 1881   2.491   2.265   1.754  0.3387 -0.0299  0.0465
   82DG     O19 1882   2.395   2.273   1.651  0.2145 -0.2915  0.5925
   82DG     H20 1883   2.236   2.389   1.715 -0.2014 -1.5182  0.4761
   82DG     H21 1884   2.380   2.479   1.693 -0.0449  0.2392  0.6662
   82DG     H22 1885   2.556   2.352   1.753  0.2280  0.0517 -0.1596
   82DG     H23 1886   2.536   2.170   1.728 -4.2524 -2.5649  0.2987
   83DG      C1 1887   2.776   4.584   1.989  0.0592  0.2413 -0.0665
   83DG      C2 1888   2.235   4.241   1.821  0.1681 -0.0116 -0.1830
   83DG      H3 1889   2.812   4.504   2.054  0.1568 -0.4185 -0.9195
   83DG      H4 1890   2.754   4.668   2.054 -2.0981 -0.9365  0.8559
   83DG      H5 1891   2.860   4.603   1.923  1.4920 -4.0077  0.2054
   83DG      H6 1892   2.250   4.164   1.897  0.0442 -0.3341 -0.4823
   83DG      H7 1893   2.178   4.318   1.874  0.6107 -1.0442  1.9162
   83DG      H8 1894   2.172   4.188   1.749  1.1229 -2.0587  0.4323
   83DG      O9 1895   2.658   4.546   1.910  0.4226  0.0461  0.0987
   83DG     O10 1896   2.360   4.286   1.761 -0.4249  0.6924  0.0872
   83DG     C11 1897   2.620   4.644   1.810 -0.2340 -1.0848  0.4710
   83DG     C12 1898   2.334   4.337   1.640  0.7644 -0.3784  0.8249
   83DG     H13 1899   2.700   4.716   1.795 -3.4352  2.6121 -0.4248
   83DG     H14 1900   2.522   4.685   1.835 -0.4381 -2.8582  3.0585
   83DG     H15 1901   2.252   4.409   1.637  0.5755 -0.6453 -1.0477
   83DG     H16 1902   2.313   4.265   1.561 -0.4707 -0.2153  0.9875
   83DG     C17 1903   2.609   4.577   1.675 -0.5518 -0.4435 -0.8342
   83DG     C18 1904   2.453   4.422   1.589  0.2463  0.7043  0.6367
   83DG     O19 1905   2.511   4.483   1.708  0.2304 -0.4060 -0.2236
   83DG     H20 1906   2.707   4.533   1.656  0.0749 -0.0672  1.2311
   83DG     H21 1907   2.581   4.645   1.596 -1.5235  1.2790  0.9023
   83DG     H22 1908   2.528   4.362   1.538 -1.7925 -0.0814 -1.6347
   83DG     H23 1909   2.422   4.500   1.519  2.0638  1.5242  0.6797
   84DG      C1 1910   0.496   2.508   1.828 -0.3898 -0.2498  0.0950
   84DG      C2 1911   0.996   2.127   2.019  0.2364 -0.5224 -0.3133
   84DG      H3 1912   0.424   2.519   1.747  1.9387 -2.4482 -2.5047
   84DG      H4 1913   0.586   2.556   1.788 -2.2017  2.4561 -0.9888
   84DG      H5 1914   0.465   2.566   1.915  0.0121 -0.2978  0.2739
   84DG      H6 1915   1.032   2.167   1.924 -1.9218  1.0589 -0.5427
   84DG      H7 1916   1.057   2.161   2.102 -1.0892  0.8531  0.1566
   84DG      H8 1917   1.000   2.018   2.014  0.2546 -0.5820  0.8998
   84DG      O9 1918   0.528   2.374   1.859  0.1053  0.2588 -0.2264
   84DG     O10 1919   0.860   2.174   2.022  0.4344 -0.0562  0.1000
   84DG     C11 1920   0.424   2.306   1.930 -0.5063  0.0492  0.1606
   84DG     C12 1921   0.785   2.161   2.138 -0.4970 -0.4417 -0.4726
   84DG     H13 1922   0.340   2.305   1.860 -0.1448  0.9317 -0.3003
   84DG     H14 1923   0.391   2.355   2.021  1.0247  2.4891 -0.5264
   84DG     H15 1924   0.821   2.228   2.216 -1.8537  1.8372 -1.7047
   84DG     H16 1925   0.793   2.059   2.176 -0.8666 -0.0326  0.7652
   84DG     C17 1926   0.468   2.156   1.957 -0.2967 -0.1865  0.2210
   84DG     C18 1927   0.646   2.208   2.103 -0.1467  0.2107  0.4068
   84DG     O19 1928   0.610   2.150   1.974  0.1546  0.0535 -0.7942
   84DG     H20 1929   0.467   2.080   1.879 -0.5082  0.5074 -0.4650
   84DG     H21 1930   0.419   2.107   2.041  2.4909 -1.1098  1.4548
   84DG     H22 1931   0.585   2.173   2.187 -0.7274  0.0203 -0.0833
   84DG     H23 1932   0.642   2.317   2.094  0.6486  0.1608 -0.8246
   85DG      C1 1933   3.844   3.924   4.232 -0.3927  0.8453  0.1712
   85DG      C2 1934   4.255   3.803   3.726 -0.1934 -0.2095  0.4629
   85DG      H3 1935   3.783   3.925   4.141  0.8691  0.2148 -0.7117
   85DG      H4 1936   3.845   4.026   4.271  2.2780  1.1780 -0.5751
   85DG      H5 1937   3.803   3.858   4.309 -2.2747  0.6015 -0.9485
   85DG      H6 1938   4.359   3.826   3.705  0.0223 -0.9990  0.6663
   85DG      H7 1939   4.232   3.705   3.685  0.0698 -0.6974  1.4733
   85DG      H8 1940   4.200   3.887   3.681  1.9634  0.2152 -1.6274
   85DG      O9 1941   3.970   3.887   4.195  0.1450  0.6355  0.2313
   85DG     O10 1942   4.234   3.799   3.865 -0.2692  0.2608 -0.3331
   85DG     C11 1943   4.061   3.876   4.307 -0.2727 -0.5539 -0.1693
   85DG     C12 1944   4.351   3.764   3.938  0.1033  0.0616  0.0982
   85DG     H13 1945   4.008   3.825   4.388 -1.1532  1.0833  0.3239
   85DG     H14 1946   4.088   3.976   4.342 -1.5493 -0.6915  1.3561
   85DG     H15 1947   4.410   3.855   3.931  0.3189 -0.1964 -2.2899
   85DG     H16 1948   4.389   3.674   3.889  1.0949  1.2882 -1.4674
   85DG     C17 1949   4.191   3.796   4.272  0.3171 -0.4564  0.6817
   85DG     C18 1950   4.322   3.735   4.092  0.4784 -0.0358  0.9167
   85DG     O19 1951   4.234   3.832   4.144 -0.9785  0.6144  0.1791
   85DG     H20 1952   4.169   3.691   4.293 -2.1674  0.0638  0.9707
   85DG     H21 1953   4.275   3.816   4.338  0.6642  0.5202 -0.0316
   85DG     H22 1954   4.267   3.642   4.104  1.0192 -0.4642  0.1882
   85DG     H23 1955   4.417   3.724   4.145  0.0348  0.9611  1.9467
   86DG      C1 1956   4.129   4.359   0.597 -0.6635 -0.2587 -0.4897
   86DG      C2 1957   3.826   3.888   0.873  0.2063  0.5470  0.3226
   86DG      H3 1958   4.212   4.295   0.625  1.0426  1.2860 -1.7785
   86DG      H4 1959   4.156   4.451   0.546  0.7103  0.1983  0.9783
   86DG      H5 1960   4.067   4.298   0.531 -0.7098 -2.1414  1.1817
   86DG      H6 1961   3.925   3.847   0.894  0.3939  1.1969  0.7463
   86DG      H7 1962   3.760   3.833   0.941  1.1028 -0.7871  0.1533
   86DG      H8 1963   3.784   3.861   0.776 -0.4631 -1.0621  1.0263
   86DG      O9 1964   4.050   4.383   0.710 -0.4328 -0.5626 -0.1442
   86DG     O10 1965   3.829   4.025   0.886  0.1826  0.3437 -0.1897
   86DG     C11 1966   3.935   4.456   0.690 -0.2811 -0.7451  0.0010
   86DG     C12 1967   3.699   4.084   0.879  0.1588  0.6082 -0.0482
   86DG     H13 1968   3.885   4.448   0.593 -0.3672 -0.9223  0.0588
   86DG     H14 1969   3.956   4.562   0.699 -3.0459 -0.2678  2.2957
   86DG     H15 1970   3.627   4.046   0.952 -1.0338  1.5129 -0.7090
   86DG     H16 1971   3.664   4.069   0.777 -1.9540 -2.1086  0.9400
   86DG     C17 1972   3.827   4.423   0.802 -0.9719 -0.2920 -0.1886
   86DG     C18 1973   3.712   4.240   0.903 -0.2632  1.0057 -0.3378
   86DG     O19 1974   3.801   4.287   0.802  0.4274  0.4742  0.4898
   86DG     H20 1975   3.739   4.485   0.786 -0.1728  1.1399  0.6880
   86DG     H21 1976   3.875   4.456   0.894  0.7021  1.6116 -1.6471
   86DG     H22 1977   3.611   4.280   0.903 -0.7558 -0.1759 -0.8921
   86DG     H23 1978   3.755   4.262   1.001  0.6566 -4.5233  0.8832
   87DG      C1 1979   5.214   3.914   4.088 -0.1741 -0.4377 -0.2719
   87DG      C2 1980   5.229   4.075   4.683 -0.4933 -0.4782  0.4907
   87DG      H3 1981   5.166   3.869   4.001 -0.7912 -0.6959  0.1930
   87DG      H4 1982   5.317   3.934   4.057 -0.3173  0.1628 -0.3852
   87DG      H5 1983   5.173   4.015   4.096  0.0514 -0.2339 -1.4109
   87DG      H6 1984   5.295   4.151   4.642 -2.8046  1.5642  0.2616
   87DG      H7 1985   5.137   4.133   4.692  0.1529  0.5258  0.8145
   87DG      H8 1986   5.265   4.069   4.785  0.4076  1.0581  0.2962
   87DG      O9 1987   5.210   3.832   4.200  0.4195  0.2097  0.2374
   87DG     O10 1988   5.234   3.950   4.627  0.6226  0.1748  0.3626
   87DG     C11 1989   5.082   3.776   4.226 -0.1526  0.5226  0.7367
   87DG     C12 1990   5.130   3.863   4.681 -0.6368  0.1503 -0.1239
   87DG     H13 1991   5.040   3.708   4.152  0.2058  2.2849 -1.1495
   87DG     H14 1992   5.008   3.856   4.231 -2.5827 -1.2020 -2.9777
   87DG     H15 1993   5.032   3.909   4.689  0.0809  1.8898 -0.7666
   87DG     H16 1994   5.162   3.835   4.781  0.0675 -1.7558 -0.8500
   87DG     C17 1995   5.079   3.703   4.350 -0.3771 -0.1303  0.5745
   87DG     C18 1996   5.127   3.750   4.576  0.2810 -0.0165 -1.0304
   87DG     O19 1997   5.106   3.805   4.449  0.6135  0.2662  0.9500
   87DG     H20 1998   5.158   3.627   4.349  1.0704  1.3085  0.5829
   87DG     H21 1999   4.991   3.640   4.361 -1.1367  1.0806  1.6904
   87DG     H22 2000   5.219   3.692   4.567  0.1663 -0.5274  0.6180
   87DG     H23 2001   5.048   3.679   4.600 -0.4840  1.3239  0.7140
   88DG      C1 2002   5.311   4.010   3.152 -0.4784 -0.3497  0.5516
   88DG      C2 2003   5.221   4.213   3.798 -0.0845 -0.4077 -0.5128
   88DG      H3 2004   5.271   3.925   3.209  1.3129 -0.7135  1.3221
   88DG      H4 2005   5.407   3.971   3.118 -0.7881 -0.6142 -0.0271
   88DG      H5 2006   5.252   4.048   3.069  0.9055 -0.0686 -0.3354
   88DG      H6 2007   5.117   4.209   3.766 -1.0754  1.5747  2.0744
   88DG      H7 2008   5.250   4.112   3.829  0.1729  0.0028  0.6247
   88DG      H8 2009   5.222   4.269   3.891 -1.3840 -0.8496 -0.2077
   88DG      O9 2010   5.327   4.095   3.273 -0.0162 -0.1052  0.2514
   88DG     O10 2011   5.303   4.263   3.701  0.1457 -0.2975  0.0869
   88DG     C11 2012   5.431   4.187   3.242  0.2556  0.0392  0.5078
   88DG     C12 2013   5.265   4.391   3.632  0.0832 -0.1674 -0.0913
   88DG     H13 2014   5.467   4.188   3.139 -0.1845 -0.8396  0.3327
   88DG     H14 2015   5.520   4.175   3.304 -1.5606  2.0429  3.7903
   88DG     H15 2016   5.271   4.471   3.706 -2.1093 -0.7482  0.8028
   88DG     H16 2017   5.160   4.396   3.603 -0.2799  0.4371  1.2448
   88DG     C17 2018   5.389   4.324   3.295  0.3782 -0.3101  0.6158
   88DG     C18 2019   5.367   4.417   3.522  0.2713 -0.2019  0.0668
   88DG     O19 2020   5.346   4.309   3.431 -0.3466 -0.2561  0.0644
   88DG     H20 2021   5.309   4.359   3.229  2.3388 -1.1628 -2.4088
   88DG     H21 2022   5.478   4.385   3.284  0.1829 -0.0923  0.2028
   88DG     H22 2023   5.350   4.511   3.469  3.0063  1.6752  2.2544
   88DG     H23 2024   5.464   4.423   3.570  0.2827 -0.7669  0.1095
   89DG      C1 2025   4.556   0.857   5.110 -0.5011  0.3164 -0.6577
   89DG      C2 2026   5.264   0.718   5.623 -0.0210 -0.2597  0.2713
   89DG      H3 2027   4.594   0.953   5.075  0.7424  1.2945  2.9094
   89DG      H4 2028   4.495   0.886   5.195 -2.5041 -0.4278 -1.7765
   89DG      H5 2029   4.488   0.827   5.031  1.3425 -0.9275 -1.8499
   89DG      H6 2030   5.270   0.815   5.671 -2.7673  0.2421 -0.2279
   89DG      H7 2031   5.226   0.647   5.696 -2.3623  0.6671  0.0443
   89DG      H8 2032   5.366   0.691   5.594  0.3066  0.0551  1.1136
   89DG      O9 2033   4.656   0.759   5.116 -0.4066 -0.0677  0.1629
   89DG     O10 2034   5.172   0.716   5.518  0.0715  0.6273 -0.3884
   89DG     C11 2035   4.729   0.758   5.235 -0.0215  0.5040  0.2706
   89DG     C12 2036   5.159   0.593   5.448  0.8019 -0.3608  0.2823
   89DG     H13 2037   4.663   0.717   5.312  1.2605 -2.5364 -0.1010
   89DG     H14 2038   4.747   0.860   5.268 -1.2400  0.9328 -0.3113
   89DG     H15 2039   5.118   0.512   5.507  1.8380 -0.1720  1.2977
   89DG     H16 2040   5.257   0.562   5.414 -0.2055 -3.3134 -0.2359
   89DG     C17 2041   4.857   0.670   5.221  0.8641  0.3341  0.7340
   89DG     C18 2042   5.067   0.602   5.318 -0.2466  0.1259  0.2122
   89DG     O19 2043   4.937   0.657   5.332 -0.6205 -0.2814 -0.3608
   89DG     H20 2044   4.907   0.711   5.134  0.2780 -1.5452 -0.5334
   89DG     H21 2045   4.824   0.568   5.201  1.3591  0.2200  0.4948
   89DG     H22 2046   5.119   0.659   5.241 -0.4857  0.8322  0.5705
   89DG     H23 2047   5.048   0.503   5.275  1.6136 -0.1126 -0.1541
   90DG      C1 2048   2.177   0.047   3.963 -0.0034  0.1135 -0.4257
   90DG      C2 2049   1.612   0.110   4.234 -0.2742 -0.1564 -0.0048
   90DG      H3 2050   2.096   0.063   3.893 -0.7738  1.7512  0.7627
   90DG      H4 2051   2.222  -0.048   3.936 -1.7225 -2.7126  5.2020
   90DG      H5 2052   2.251   0.127   3.955 -0.4222  0.3826 -1.8351
   90DG      H6 2053   1.519   0.091   4.288 -1.9550 -0.4027 -2.8320
   90DG      H7 2054   1.597   0.195   4.168 -0.8231 -1.4180 -1.5707
   90DG      H8 2055   1.629   0.027   4.165 -1.4033  0.9741 -1.6974
   90DG      O9 2056   2.121   0.061   4.096 -0.3340 -0.4771  0.8012
   90DG     O10 2057   1.728   0.112   4.313  0.4261  0.3156  0.2905
   90DG     C11 2058   2.185  -0.007   4.201 -0.1860  0.4026 -0.0699
   90DG     C12 2059   1.757   0.000   4.389 -0.1388  0.7003  0.2260
   90DG     H13 2060   2.292   0.012   4.214  0.2642 -1.9276  0.1077
   90DG     H14 2061   2.168  -0.112   4.176  2.9862 -0.3887  0.6647
   90DG     H15 2062   1.752  -0.096   4.338  3.3360 -0.5522  1.9118
   90DG     H16 2063   1.694   0.011   4.477 -0.6499  1.4282 -0.2218
   90DG     C17 2064   2.120   0.022   4.325 -0.1848 -0.1309 -0.4187
   90DG     C18 2065   1.912   0.011   4.425  0.0671 -0.0110 -0.7382
   90DG     O19 2066   1.988  -0.019   4.312  0.2745 -0.0283 -0.5231
   90DG     H20 2067   2.131   0.125   4.357  0.3755 -0.2522 -0.1999
   90DG     H21 2068   2.176  -0.040   4.396 -0.2922  1.4213  1.0937
   90DG     H22 2069   1.929   0.110   4.467 -3.2905  0.1211  0.5875
   90DG     H23 2070   1.944  -0.064   4.497 -0.2400 -0.2787 -0.8752
   91DG      C1 2071   4.455   1.691   2.686 -0.1782 -0.3461 -0.4961
   91DG      C2 2072   4.163   1.797   3.347 -0.2080  0.1549 -0.4629
   91DG      H3 2073   4.544   1.660   2.742  0.7047  2.7265  0.0074
   91DG      H4 2074   4.482   1.748   2.597 -1.2182 -1.0162 -1.2514
   91DG      H5 2075   4.418   1.593   2.656  0.1025 -1.7151  3.1022
   91DG      H6 2076   4.107   1.879   3.393 -1.9575 -1.1701 -0.1173
   91DG      H7 2077   4.126   1.703   3.388  2.7146 -0.8498  0.1442
   91DG      H8 2078   4.267   1.791   3.380  0.0301 -1.2743 -1.3784
   91DG      O9 2079   4.365   1.756   2.767 -0.7021  0.3234 -0.4951
   91DG     O10 2080   4.170   1.814   3.204  0.1256  0.0763  0.4226
   91DG     C11 2081   4.246   1.802   2.710  0.1704 -0.0451 -0.0155
   91DG     C12 2082   4.045   1.820   3.152 -0.0755  0.1733 -0.3060
   91DG     H13 2083   4.170   1.728   2.685 -1.2376  0.9622  1.1350
   91DG     H14 2084   4.263   1.858   2.619 -1.7187  0.8110  0.1161
   91DG     H15 2085   3.969   1.860   3.219  1.0054  0.7975  0.5755
   91DG     H16 2086   3.993   1.727   3.132 -0.8459  0.3267  0.9082
   91DG     C17 2087   4.165   1.901   2.802 -0.4512 -0.0775 -0.0374
   91DG     C18 2088   4.055   1.900   3.022  0.5771 -0.7174 -0.5970
   91DG     O19 2089   4.151   1.842   2.926  0.3966 -0.0632 -0.0089
   91DG     H20 2090   4.071   1.922   2.750 -1.1030  0.0693  1.1422
   91DG     H21 2091   4.222   1.993   2.816 -0.8205 -0.1148  2.2215
   91DG     H22 2092   3.953   1.913   2.984 -0.2498  0.2391  1.7309
   91DG     H23 2093   4.092   2.000   3.047  2.1344 -1.1284 -1.1564
   92DG      C1 2094   0.375   3.788   4.019 -0.1155  0.0660 -0.1467
   92DG      C2 2095   0.093   3.335   4.459  0.0956  0.4647  0.0065
   92DG      H3 2096   0.289   3.754   3.961  0.9630  1.3109 -2.6394
   92DG      H4 2097   0.444   3.805   3.937 -0.1377 -0.4927 -0.2880
   92DG      H5 2098   0.349   3.885   4.062  0.6108 -0.1209  0.7286
   92DG      H6 2099   0.124   3.420   4.519  1.3212  0.9707 -1.2939
   92DG      H7 2100  -0.002   3.366   4.415  1.0553  3.5161 -0.1109
   92DG      H8 2101   0.085   3.245   4.519 -1.7143 -0.7247 -1.8654
   92DG      O9 2102   0.426   3.683   4.114 -0.6613  0.9596 -0.8144
   92DG     O10 2103   0.190   3.309   4.361 -0.1155  0.1009 -0.3331
   92DG     C11 2104   0.451   3.552   4.061  0.3916 -0.0489 -0.2138
   92DG     C12 2105   0.321   3.292   4.419 -0.2883  0.1580  0.1176
   92DG     H13 2106   0.527   3.555   3.983  2.5445 -1.3209  1.7104
   92DG     H14 2107   0.353   3.524   4.022  0.3070 -1.7346  1.0681
   92DG     H15 2108   0.339   3.202   4.479  2.6925  0.3015 -0.3811
   92DG     H16 2109   0.331   3.387   4.471  0.3238  0.2776 -0.2025
   92DG     C17 2110   0.508   3.450   4.159 -0.2468  0.5915 -0.1752
   92DG     C18 2111   0.427   3.289   4.312 -0.6606 -0.4824 -0.3820
   92DG     O19 2112   0.406   3.412   4.240 -0.7613 -0.5540 -0.1661
   92DG     H20 2113   0.591   3.487   4.220  1.6187 -0.0533 -2.1910
   92DG     H21 2114   0.548   3.366   4.102 -2.1146 -0.6893  0.2909
   92DG     H22 2115   0.527   3.283   4.356 -0.2757 -2.0322 -1.4001
   92DG     H23 2116   0.409   3.200   4.252 -0.1941 -0.7407 -0.1464
   93DG      C1 2117   1.328   0.371   2.195  0.1348 -0.0031 -0.4953
   93DG      C2 2118   1.237  -0.149   1.877 -0.2897 -0.9234 -0.2219
   93DG      H3 2119   1.372   0.468   2.215 -0.5266 -0.3149  3.2418
   93DG      H4 2120   1.356   0.301   2.274  1.0629  0.4645 -0.3999
   93DG      H5 2121   1.219   0.373   2.206  0.3389  1.1046  1.9663
   93DG      H6 2122   1.201  -0.219   1.802 -0.4339 -0.1823 -0.8525
   93DG      H7 2123   1.274  -0.207   1.962  2.1261  0.0567 -0.5177
   93DG      H8 2124   1.161  -0.080   1.913  2.2970  2.1677 -0.1689
   93DG      O9 2125   1.349   0.307   2.066 -0.0359 -0.2503 -0.4390
   93DG     O10 2126   1.346  -0.073   1.830  0.0988 -0.3296  0.0093
   93DG     C11 2127   1.293   0.378   1.953 -0.8428 -0.2350 -0.1852
   93DG     C12 2128   1.319  -0.017   1.706  0.0497 -0.4535  0.1515
   93DG     H13 2129   1.311   0.483   1.971 -2.7102  0.4122 -1.7719
   93DG     H14 2130   1.185   0.373   1.955 -0.8748  0.6463  1.3547
   93DG     H15 2131   1.213  -0.028   1.682 -0.6921 -0.1458  2.9928
   93DG     H16 2132   1.369  -0.088   1.640 -0.3657 -0.6569  0.0502
   93DG     C17 2133   1.336   0.330   1.807  0.3970  0.0369  0.0778
   93DG     C18 2134   1.377   0.123   1.702  0.1096 -0.0808  0.3057
   93DG     O19 2135   1.307   0.190   1.808 -0.6258 -0.2361  0.5160
   93DG     H20 2136   1.445   0.340   1.800  0.3974  1.8942  1.7782
   93DG     H21 2137   1.279   0.383   1.730 -0.7815  0.6442  1.3222
   93DG     H22 2138   1.484   0.112   1.721  0.0693 -0.5597  0.2849
   93DG     H23 2139   1.367   0.168   1.603  1.1021 -0.5298 -0.0200
   94DG      C1 2140   5.376   3.001   3.256 -0.3146 -0.5250 -0.6235
   94DG      C2 2141   4.941   2.713   3.669 -0.1315  0.4714 -0.4478
   94DG      H3 2142   5.466   3.063   3.252 -0.0773 -0.7616  0.8307
   94DG      H4 2143   5.294   3.026   3.188  0.0982 -1.8229 -1.6552
   94DG      H5 2144   5.392   2.894   3.240 -0.1359 -0.2474 -2.6510
   94DG      H6 2145   4.881   2.704   3.760  0.2267  2.3933  0.0263
   94DG      H7 2146   4.886   2.768   3.593  0.8677 -0.3542 -1.8240
   94DG      H8 2147   4.965   2.617   3.622  1.0020  1.6711 -2.4404
   94DG      O9 2148   5.328   3.034   3.390  0.5513 -0.1185  0.2514
   94DG     O10 2149   5.067   2.779   3.688  0.4620 -0.1444  0.2522
   94DG     C11 2150   5.430   3.023   3.490  0.4722  0.1131 -0.4807
   94DG     C12 2151   5.052   2.899   3.762 -0.6392  0.2385  0.6816
   94DG     H13 2152   5.508   3.098   3.494  0.9980 -0.4605  3.2418
   94DG     H14 2153   5.485   2.929   3.477 -0.7579 -0.5837 -0.8840
   94DG     H15 2154   5.012   2.889   3.863 -3.3010  0.9258 -0.2210
   94DG     H16 2155   5.000   2.976   3.706  0.8175 -0.0140 -1.0925
   94DG     C17 2156   5.365   3.027   3.620 -0.1532 -0.4198 -0.2319
   94DG     C18 2157   5.193   2.965   3.760 -0.4514  0.5028  0.3950
   94DG     O19 2158   5.248   2.954   3.631  0.0907  0.3313 -0.5790
   94DG     H20 2159   5.345   3.130   3.647 -0.5653 -0.5724  0.0561
   94DG     H21 2160   5.436   2.982   3.689 -0.5812 -1.1455 -0.2555
   94DG     H22 2161   5.185   3.067   3.796 -0.4594  0.5505  0.2566
   94DG     H23 2162   5.256   2.914   3.833 -1.2501 -0.0962  0.6862
   95DG      C1 2163   2.100   2.985   3.828  0.4422  0.0411 -0.7444
   95DG      C2 2164   2.370   3.273   3.656 -0.1785 -0.0724  0.4110
   95DG      H3 2165   2.018   3.048   3.795 -1.1986 -0.5883  1.8426
   95DG      H4 2166   2.156   3.030   3.910 -1.7188  1.8299 -0.1500
   95DG      H5 2167   2.056   2.898   3.877 -0.0841  1.1145  0.7668
   95DG      H6 2168   2.299   3.191   3.653  0.6056 -0.7661  0.6373
   95DG      H7 2169   2.464   3.233   3.693 -0.6713 -0.2865  1.4478
   95DG      H8 2170   2.327   3.347   3.724 -1.7285  0.1375 -0.7309
   95DG      O9 2171   2.186   2.942   3.717  0.2054  0.2777 -0.1843
   95DG     O10 2172   2.391   3.341   3.529 -0.3540  0.2114 -0.4280
   95DG     C11 2173   2.120   2.938   3.587  0.3201 -0.4260  0.0936
   95DG     C12 2174   2.407   3.256   3.421 -0.3982  0.4786  0.2330
   95DG     H13 2175   2.059   3.028   3.580  1.6204  0.4373 -0.4472
   95DG     H14 2176   2.048   2.857   3.598 -2.6479  1.7872 -1.5866
   95DG     H15 2177   2.503   3.204   3.419 -1.7718 -2.2216 -1.5729
   95DG     H16 2178   2.420   3.327   3.339 -0.1471  0.4162  0.2193
   95DG     C17 2179   2.209   2.928   3.456 -0.2007  0.2552  0.1088
   95DG     C18 2180   2.297   3.152   3.393  0.3551 -0.0985 -0.2942
   95DG     O19 2181   2.311   3.031   3.470 -0.5988  0.1338 -0.4280
   95DG     H20 2182   2.151   2.937   3.364 -0.1867  0.7895  0.1510
   95DG     H21 2183   2.267   2.835   3.451 -1.3677 -0.4786 -0.2198
   95DG     H22 2184   2.199   3.192   3.419 -0.4063 -2.2830  0.4847
   95DG     H23 2185   2.285   3.119   3.290 -0.2197 -1.3381  0.1391
   96DG      C1 2186   3.845   4.968   0.069  0.4102 -0.2798 -0.2025
   96DG      C2 2187   4.236   5.343  -0.298 -1.0883  0.5615  0.1077
   96DG      H3 2188   3.810   4.891   0.138 -0.1543  1.3051  1.3410
   96DG      H4 2189   3.781   4.969  -0.020 -0.0576 -1.7267  0.0840
   96DG      H5 2190   3.839   5.063   0.122 -2.3611  0.1742 -1.1724
   96DG      H6 2191   4.170   5.312  -0.380  1.3579  0.1380 -1.8480
   96DG      H7 2192   4.259   5.448  -0.311  0.2689  0.1137 -1.5060
   96DG      H8 2193   4.340   5.311  -0.303 -0.2086  3.3436 -1.0051
   96DG      O9 2194   3.983   4.953   0.047  0.3992  0.6584  0.0349
   96DG     O10 2195   4.178   5.307  -0.176 -0.0683 -0.2911 -0.4982
   96DG     C11 2196   4.064   4.960   0.164 -0.3408 -0.1965  0.2103
   96DG     C12 2197   4.249   5.333  -0.057 -0.0588  0.2435  0.1630
   96DG     H13 2198   4.150   4.900   0.134 -1.4495 -2.4642  1.3402
   96DG     H14 2199   4.011   4.916   0.249 -0.7110  1.3022  0.7813
   96DG     H15 2200   4.260   5.440  -0.041  0.5527  0.2483 -0.2286
   96DG     H16 2201   4.348   5.288  -0.052 -0.2436 -0.2933 -0.7234
   96DG     C17 2202   4.114   5.096   0.181  0.5399 -0.0435  0.2425
   96DG     C18 2203   4.169   5.285   0.058  0.7622  0.5344 -0.1473
   96DG     O19 2204   4.173   5.142   0.057 -0.4445 -0.0171  0.4125
   96DG     H20 2205   4.189   5.088   0.260  0.5562 -2.4373  0.0418
   96DG     H21 2206   4.023   5.148   0.212 -1.1622 -2.3070 -0.6909
   96DG     H22 2207   4.199   5.326   0.154 -0.6265  0.5241  0.3215
   96DG     H23 2208   4.065   5.319   0.052  0.6545  0.1154 -0.7796
   97DG      C1 2209   3.905   0.657   5.197 -0.0887  0.1757  0.5556
   97DG      C2 2210   3.336   0.739   5.557  0.1790 -0.3552  0.3764
   97DG      H3 2211   3.904   0.548   5.203  0.0683  0.0791 -0.8810
   97DG      H4 2212   3.959   0.695   5.283  1.1607 -1.4068  0.5223
   97DG      H5 2213   3.961   0.699   5.114 -0.1448 -1.3740 -0.3075
   97DG      H6 2214   3.244   0.682   5.546 -0.5981  1.3137 -3.0566
   97DG      H7 2215   3.401   0.681   5.623 -2.3345 -2.6676  1.0175
   97DG      H8 2216   3.315   0.836   5.602 -1.0338 -0.5520  0.2435
   97DG      O9 2217   3.773   0.703   5.203  0.5741  0.4395  0.2606
   97DG     O10 2218   3.405   0.757   5.436  0.0155  0.1447  0.1575
   97DG     C11 2219   3.696   0.670   5.086  0.2428  0.0775  1.1395
   97DG     C12 2220   3.317   0.806   5.340  0.1677 -0.1403 -0.5702
   97DG     H13 2221   3.676   0.563   5.080  0.1068  0.1901 -1.4555
   97DG     H14 2222   3.755   0.701   5.000 -0.9003  0.3851  0.4346
   97DG     H15 2223   3.266   0.901   5.360  0.8360  0.2230 -0.5750
   97DG     H16 2224   3.240   0.734   5.314 -0.1068  0.3665 -1.2020
   97DG     C17 2225   3.566   0.748   5.074  0.2627  0.5003  0.3243
   97DG     C18 2226   3.394   0.830   5.214  0.2348 -0.1051  0.4660
   97DG     O19 2227   3.485   0.727   5.190  0.1073  0.2844  0.4848
   97DG     H20 2228   3.510   0.734   4.982  0.4629  1.3048  0.0653
   97DG     H21 2229   3.593   0.854   5.069 -1.2370  0.9117  0.3472
   97DG     H22 2230   3.330   0.843   5.127 -1.6787  0.4558  1.8807
   97DG     H23 2231   3.449   0.925   5.221 -1.3450  0.7929  1.2282
   98DG      C1 2232   2.965   0.426   1.799  0.4431 -0.1200 -0.2560
   98DG      C2 2233   3.281  -0.140   2.077  0.6230  0.0069  1.3324
   98DG      H3 2234   2.979   0.502   1.722 -0.9608 -0.4804 -0.8961
   98DG      H4 2235   3.009   0.492   1.874 -1.4505  0.0252  0.7914
   98DG      H5 2236   2.861   0.412   1.827 -0.3894  1.3635 -2.3136
   98DG      H6 2237   3.184  -0.146   2.125  0.1555 -0.5877  0.3436
   98DG      H7 2238   3.326  -0.239   2.080 -0.0913 -0.3004  2.7891
   98DG      H8 2239   3.346  -0.077   2.138 -0.7312  2.4329  0.3856
   98DG      O9 2240   3.042   0.309   1.787  0.3121  0.1505 -0.0398
   98DG     O10 2241   3.260  -0.084   1.946 -0.1051 -0.5874  0.0714
   98DG     C11 2242   3.150   0.328   1.696  0.1219  0.2324 -0.3776
   98DG     C12 2243   3.383  -0.045   1.886 -0.0916 -0.9361  0.3256
   98DG     H13 2244   3.224   0.391   1.745  0.1822  0.0919 -0.2884
   98DG     H14 2245   3.115   0.381   1.607 -0.1755 -1.8028 -1.5257
   98DG     H15 2246   3.449  -0.123   1.849 -1.1783 -1.2600 -1.0401
   98DG     H16 2247   3.438   0.027   1.946 -0.4055 -0.5333  0.1333
   98DG     C17 2248   3.226   0.205   1.660  0.4069 -0.1535 -0.3361
   98DG     C18 2249   3.348   0.024   1.755 -0.3533 -0.1074  0.0237
   98DG     O19 2250   3.287   0.148   1.774 -0.4296  0.2846  0.0821
   98DG     H20 2251   3.302   0.240   1.590  2.7331  0.6192  2.4006
   98DG     H21 2252   3.163   0.134   1.606  0.0559 -1.7105  2.0011
   98DG     H22 2253   3.447   0.048   1.716  0.1702 -0.1014  1.3154
   98DG     H23 2254   3.298  -0.026   1.673  2.1108 -0.7816 -1.1714
   99DG      C1 2255   1.513   2.470   0.532  0.1546 -0.2285 -0.3464
   99DG      C2 2256   1.210   1.860   0.517  0.5945 -0.3136  0.4611
   99DG      H3 2257   1.557   2.389   0.590  0.5088  0.0276 -0.2568
   99DG      H4 2258   1.454   2.523   0.607 -0.7332 -0.5738 -0.7793
   99DG      H5 2259   1.586   2.543   0.496  0.0106  0.4585  0.7156
   99DG      H6 2260   1.222   1.851   0.625 -0.4578 -0.4362  0.5852
   99DG      H7 2261   1.108   1.899   0.505  0.3517 -0.5429  1.6949
   99DG      H8 2262   1.213   1.759   0.476 -0.7423 -1.3933  2.8258
   99DG      O9 2263   1.441   2.395   0.437 -0.1807 -0.1570  0.1288
   99DG     O10 2264   1.311   1.940   0.461 -0.2951  0.1076 -0.1043
   99DG     C11 2265   1.521   2.354   0.327 -0.4959  0.2188  0.2521
   99DG     C12 2266   1.294   1.945   0.321  0.4685  1.1361  0.0926
   99DG     H13 2267   1.620   2.317   0.355 -0.6526  1.8879  3.4810
   99DG     H14 2268   1.528   2.446   0.269 -0.6535  1.7147  2.4726
   99DG     H15 2269   1.196   1.987   0.300  0.2383  2.7368  3.6667
   99DG     H16 2270   1.298   1.845   0.276 -1.3278  0.6796  0.8580
   99DG     C17 2271   1.452   2.251   0.232  0.4149  0.2780 -0.1426
   99DG     C18 2272   1.401   2.027   0.247  0.1016  0.0818  0.0876
   99DG     O19 2273   1.411   2.146   0.319 -0.0573  0.2942  0.1066
   99DG     H20 2274   1.515   2.225   0.147 -0.7452  1.8312 -1.5572
   99DG     H21 2275   1.363   2.299   0.191 -0.5196  0.2001  1.6595
   99DG     H22 2276   1.497   1.978   0.259  0.2431  0.4516  0.4985
   99DG     H23 2277   1.384   2.046   0.141  2.3002  0.8467 -0.1828
  100DG      C1 2278   3.307   3.987   1.452 -0.0042  0.2054 -0.1021
  100DG      C2 2279   3.818   3.538   1.529  1.2931 -0.3491 -0.1508
  100DG      H3 2280   3.304   3.944   1.352  0.7947 -0.0076 -0.0428
  100DG      H4 2281   3.305   4.095   1.438  0.7494  0.2967  0.4084
  100DG      H5 2282   3.219   3.963   1.513 -1.6744  3.1791 -1.1385
  100DG      H6 2283   3.840   3.448   1.586  0.8930 -0.4292 -0.1189
  100DG      H7 2284   3.783   3.505   1.432  2.7602 -0.9900 -0.4978
  100DG      H8 2285   3.915   3.586   1.512  0.1954  2.4642  0.8409
  100DG      O9 2286   3.412   3.929   1.519  0.1358  0.1253 -0.7342
  100DG     O10 2287   3.720   3.619   1.590 -0.4718 -0.3376 -0.3576
  100DG     C11 2288   3.438   3.982   1.645  0.4059 -0.0237 -0.6395
  100DG     C12 2289   3.731   3.648   1.726 -0.4002 -0.2149 -0.0742
  100DG     H13 2290   3.368   4.053   1.689 -0.7598 -1.1080 -0.6976
  100DG     H14 2291   3.532   4.033   1.624  0.7814 -0.6014 -0.3519
  100DG     H15 2292   3.837   3.656   1.750 -0.4315 -2.7113  1.2926
  100DG     H16 2293   3.687   3.575   1.794 -0.7066  0.3122  0.3112
  100DG     C17 2294   3.444   3.878   1.760 -0.0741 -0.2440 -0.4323
  100DG     C18 2295   3.660   3.780   1.771 -0.2171  0.3052  0.3606
  100DG     O19 2296   3.522   3.768   1.731  0.4653 -0.1774  0.2708
  100DG     H20 2297   3.345   3.842   1.787  0.3148 -0.2342  1.0700
  100DG     H21 2298   3.481   3.932   1.847  0.0940 -0.9194 -0.0809
  100DG     H22 2299   3.663   3.792   1.879  1.0939 -3.1027  0.8487
  100DG     H23 2300   3.705   3.863   1.717 -2.3451  0.1866 -1.7477
  101DG      C1 2301   1.334   2.168   5.391 -0.3317  0.2325 -1.0063
  101DG      C2 2302   1.465   2.567   4.728 -0.0935 -0.1844 -0.4971
  101DG      H3 2303   1.276   2.164   5.483 -2.4062  0.9601 -2.2255
  101DG      H4 2304   1.427   2.111   5.399  1.1459  2.3228 -2.1858
  101DG      H5 2305   1.272   2.119   5.316 -2.2416 -2.4454  2.0593
  101DG      H6 2306   1.466   2.674   4.707 -0.8004 -0.3893 -1.6946
  101DG      H7 2307   1.561   2.521   4.707 -0.9658 -1.3866 -2.1647
  101DG      H8 2308   1.394   2.533   4.652  0.4886 -0.4147 -0.9489
  101DG      O9 2309   1.383   2.300   5.367 -0.4714 -0.2096 -0.0638
  101DG     O10 2310   1.426   2.530   4.860  0.1033 -0.4729  0.2962
  101DG     C11 2311   1.274   2.390   5.338 -0.4411 -0.7164  0.0512
  101DG     C12 2312   1.525   2.549   4.959 -0.2680  0.4190 -0.8167
  101DG     H13 2313   1.221   2.396   5.433  2.7722 -0.4531  1.9731
  101DG     H14 2314   1.198   2.346   5.272  0.8051  0.4248 -2.2766
  101DG     H15 2315   1.581   2.636   4.924  2.3413 -0.7603  0.1092
  101DG     H16 2316   1.598   2.467   4.956 -2.1106 -1.4044  1.1210
  101DG     C17 2317   1.330   2.521   5.278  0.2276  0.0327  0.2164
  101DG     C18 2318   1.465   2.588   5.098 -0.9205 -0.1071  0.7110
  101DG     O19 2319   1.374   2.491   5.139  0.4402 -0.1727  0.1823
  101DG     H20 2320   1.407   2.550   5.349  0.5408  0.7888 -0.4189
  101DG     H21 2321   1.255   2.600   5.271  0.1213 -0.1552 -1.2875
  101DG     H22 2322   1.544   2.609   5.169 -0.3692  0.8550 -0.1597
  101DG     H23 2323   1.415   2.683   5.081  1.7834  1.0737 -1.4044
  102DG      C1 2324   4.913   4.207   2.936  0.1019  0.4720  0.4722
  102DG      C2 2325   5.212   3.650   3.295 -1.0358 -0.5883 -0.0885
  102DG      H3 2326   5.021   4.202   2.952 -0.1186 -0.5405  1.7969
  102DG      H4 2327   4.891   4.314   2.943  1.4349  0.8381 -0.4755
  102DG      H5 2328   4.893   4.168   2.836 -1.4809 -1.6714  1.5590
  102DG      H6 2329   5.158   3.561   3.326  0.2993 -1.2057  0.5776
  102DG      H7 2330   5.253   3.618   3.200  0.4329 -1.3604  0.7560
  102DG      H8 2331   5.297   3.683   3.356 -0.4591 -2.3326  0.1164
  102DG      O9 2332   4.860   4.118   3.022  0.0746  0.0366 -0.0384
  102DG     O10 2333   5.130   3.766   3.284 -0.0162  0.2988  0.2455
  102DG     C11 2334   4.747   4.043   2.977  0.0557 -0.5136  0.0340
  102DG     C12 2335   5.020   3.752   3.188  0.0364  0.5108 -0.8876
  102DG     H13 2336   4.769   3.991   2.884 -0.2041 -3.9513  1.7138
  102DG     H14 2337   4.671   4.120   2.966  0.1718 -0.3491  0.3540
  102DG     H15 2338   4.977   3.653   3.200  0.5465  0.5980  2.9492
  102DG     H16 2339   5.060   3.761   3.087  0.7652  1.8543 -0.5102
  102DG     C17 2340   4.714   3.954   3.086  1.1832  0.5348 -0.1029
  102DG     C18 2341   4.918   3.860   3.201 -0.2324 -0.6779  0.2990
  102DG     O19 2342   4.801   3.842   3.117  0.6028 -0.1346  0.7399
  102DG     H20 2343   4.620   3.908   3.057  0.1628  1.1940  1.9556
  102DG     H21 2344   4.689   4.017   3.171 -2.6284  3.3872 -3.0129
  102DG     H22 2345   4.877   3.864   3.302  0.9991 -3.2051  0.9775
  102DG     H23 2346   4.960   3.960   3.194 -1.9922  0.2342  1.6968
  103DG      C1 2347   2.705   1.038   2.158 -0.2315  0.3741 -0.6108
  103DG      C2 2348   3.060   1.491   2.003 -0.2119 -0.1590 -0.7599
  103DG      H3 2349   2.647   0.958   2.204  0.2009  1.3167  1.7290
  103DG      H4 2350   2.717   1.013   2.052  2.6672 -0.4979 -0.1701
  103DG      H5 2351   2.644   1.128   2.150 -0.4119  0.4276  1.0605
  103DG      H6 2352   2.964   1.542   2.014  0.5964  1.1856  0.4649
  103DG      H7 2353   3.135   1.569   2.007 -0.3412 -0.0608  0.0794
  103DG      H8 2354   3.063   1.446   1.904 -2.2867  1.1422 -1.4750
  103DG      O9 2355   2.824   1.070   2.228 -0.1580  0.3691 -0.0402
  103DG     O10 2356   3.082   1.404   2.113  0.5284 -0.1356  0.6681
  103DG     C11 2357   2.914   0.965   2.247  0.0583  0.0912 -0.7685
  103DG     C12 2358   3.193   1.319   2.100  0.3213 -0.2514  0.6263
  103DG     H13 2359   2.951   0.919   2.156  0.3731 -0.1381 -0.5265
  103DG     H14 2360   2.875   0.896   2.321 -0.3854 -0.1372 -1.2102
  103DG     H15 2361   3.287   1.374   2.107  0.2936 -0.2150  0.7123
  103DG     H16 2362   3.205   1.273   2.002 -0.9205 -1.2140  0.9025
  103DG     C17 2363   3.046   1.034   2.295  0.6332 -0.1137  0.4160
  103DG     C18 2364   3.181   1.219   2.221  0.0668  0.0207 -0.4074
  103DG     O19 2365   3.077   1.132   2.190  0.2522 -0.0610 -0.5531
  103DG     H20 2366   3.120   0.955   2.311  2.0880  1.5168  2.2782
  103DG     H21 2367   3.028   1.086   2.389 -2.8254 -1.2942  0.5316
  103DG     H22 2368   3.272   1.162   2.239 -0.3934 -0.0096  2.2013
  103DG     H23 2369   3.170   1.275   2.313 -0.2330 -0.9199  0.1414
  104DG      C1 2370   3.986   3.583   3.978  0.3986 -0.2753 -0.5960
  104DG      C2 2371   3.592   3.015   4.279  0.5886 -0.5606  0.0704
  104DG      H3 2372   3.983   3.692   3.973  0.2979 -0.2612 -0.2812
  104DG      H4 2373   3.907   3.528   3.927  0.9117  0.0308 -1.7397
  104DG      H5 2374   4.075   3.549   3.925  1.2995 -0.9217  1.2246
  104DG      H6 2375   3.624   2.967   4.186 -0.6417  0.8197 -1.1267
  104DG      H7 2376   3.604   2.954   4.368 -1.9305  1.1780  1.7297
  104DG      H8 2377   3.484   3.010   4.263  0.4733 -0.3195  0.7531
  104DG      O9 2378   4.004   3.529   4.110 -0.4767  0.6623  0.2177
  104DG     O10 2379   3.659   3.133   4.309  0.0689  0.3886  0.8148
  104DG     C11 2380   3.895   3.563   4.195  0.6021 -0.6640 -0.0992
  104DG     C12 2381   3.798   3.117   4.302 -0.1750 -0.1452 -0.8927
  104DG     H13 2382   3.801   3.563   4.140  1.6094 -1.6807 -1.9052
  104DG     H14 2383   3.901   3.668   4.223  1.3635 -0.7630  0.1271
  104DG     H15 2384   3.836   3.087   4.203 -0.5901 -1.6738 -0.6188
  104DG     H16 2385   3.825   3.031   4.363 -0.3390 -0.2410 -0.9551
  104DG     C17 2386   3.900   3.463   4.311 -0.3069 -0.0959  0.3808
  104DG     C18 2387   3.853   3.240   4.365 -0.5855  0.0996  0.1013
  104DG     O19 2388   3.875   3.330   4.259 -0.6037  0.3878 -0.1054
  104DG     H20 2389   3.820   3.495   4.378 -0.7580 -0.0204 -0.1801
  104DG     H21 2390   3.999   3.478   4.352  1.8140  0.5955 -4.3179
  104DG     H22 2391   3.789   3.284   4.441 -2.3985  2.2916 -2.4848
  104DG     H23 2392   3.953   3.221   4.406 -0.5222  1.1118  0.4548
  105DG      C1 2393   4.910   2.998   3.354  0.4905 -0.1126 -0.3589
  105DG      C2 2394   5.357   2.490   3.573  0.1427  0.1362 -0.6003
  105DG      H3 2395   4.809   2.960   3.372  0.7182 -1.1461 -1.1949
  105DG      H4 2396   4.903   3.065   3.269  0.0232 -0.9297 -0.9809
  105DG      H5 2397   4.944   3.050   3.444  0.1298 -0.5807  0.0559
  105DG      H6 2398   5.284   2.418   3.607  0.1104  0.8923  1.0192
  105DG      H7 2399   5.454   2.442   3.558 -0.7087 -1.7793 -0.1749
  105DG      H8 2400   5.362   2.553   3.662  0.0569 -0.6248 -0.0535
  105DG      O9 2401   4.999   2.889   3.321  0.7373  0.5962 -0.2164
  105DG     O10 2402   5.305   2.566   3.465 -0.7487  0.3535 -0.6662
  105DG     C11 2403   4.957   2.818   3.208 -0.0467  0.3146 -0.0445
  105DG     C12 2404   5.286   2.493   3.343 -0.5630  0.4845 -0.1618
  105DG     H13 2405   4.928   2.895   3.137 -0.0755  0.7024  0.3791
  105DG     H14 2406   4.872   2.760   3.245  0.5287  0.4926  1.6737
  105DG     H15 2407   5.209   2.417   3.357 -0.9356  0.8765 -0.0425
  105DG     H16 2408   5.376   2.435   3.323 -1.6800 -1.5695  0.5028
  105DG     C17 2409   5.081   2.740   3.159  0.5314  0.7298  0.0583
  105DG     C18 2410   5.262   2.593   3.237  0.1699  0.9341  0.2066
  105DG     O19 2411   5.141   2.660   3.270 -0.2510 -0.6644  0.5903
  105DG     H20 2412   5.147   2.818   3.122  1.9507 -0.3219  0.3020
  105DG     H21 2413   5.051   2.674   3.077  0.4751 -0.1998  0.8102
  105DG     H22 2414   5.348   2.658   3.224  1.7816 -1.0468  0.3680
  105DG     H23 2415   5.258   2.549   3.137  0.9793  0.5131  0.3464
  106DG      C1 2416   2.997   5.133   4.430 -0.5300 -0.5260 -0.3797
  106DG      C2 2417   3.640   4.814   4.281 -0.0364 -0.5316 -0.9291
  106DG      H3 2418   2.993   5.229   4.379  1.1128  0.4411  1.1773
  106DG      H4 2419   2.974   5.143   4.536  0.8088 -0.2733 -0.0921
  106DG      H5 2420   2.912   5.082   4.385 -0.2769  0.8985 -2.5745
  106DG      H6 2421   3.614   4.880   4.198  1.8892  0.8224 -0.5297
  106DG      H7 2422   3.749   4.810   4.281 -0.0534 -1.4754  0.3169
  106DG      H8 2423   3.597   4.717   4.258 -1.1220 -0.2897 -0.0213
  106DG      O9 2424   3.120   5.062   4.409  0.0972 -0.0678  0.1746
  106DG     O10 2425   3.585   4.871   4.400 -0.0795 -0.3972  0.4332
  106DG     C11 2426   3.227   5.137   4.453 -0.0598  0.3101 -0.8998
  106DG     C12 2427   3.498   4.784   4.464 -0.3668  0.8677  0.6008
  106DG     H13 2428   3.208   5.178   4.552  0.3947  1.2488 -1.1911
  106DG     H14 2429   3.247   5.226   4.393  0.5196  1.3495  0.7543
  106DG     H15 2430   3.553   4.708   4.519 -0.4202  0.5923  0.2767
  106DG     H16 2431   3.425   4.736   4.399 -0.1740 -0.0812  1.0669
  106DG     C17 2432   3.351   5.046   4.457 -0.1613 -0.5758  0.9219
  106DG     C18 2433   3.413   4.849   4.576 -0.0833  0.2416 -0.3537
  106DG     O19 2434   3.310   4.940   4.533 -0.0690  0.3862 -0.2545
  106DG     H20 2435   3.435   5.086   4.513  0.6286 -0.2607 -0.4659
  106DG     H21 2436   3.377   5.015   4.356  1.3715  1.2797  0.7096
  106DG     H22 2437   3.358   4.774   4.633 -0.7851  1.1234  0.1448
  106DG     H23 2438   3.486   4.891   4.645 -0.8985 -0.2234  0.8170
  107DG      C1 2439   3.660   0.549   2.419 -0.4620  0.0724  0.3636
  107DG      C2 2440   3.823  -0.081   2.665  0.3832 -0.2238 -1.0901
  107DG      H3 2441   3.709   0.609   2.497  1.5836  0.6098 -1.2407
  107DG      H4 2442   3.560   0.519   2.449 -0.9182 -0.1130 -1.2911
  107DG      H5 2443   3.656   0.620   2.337 -2.8040 -1.4049 -0.8894
  107DG      H6 2444   3.862  -0.023   2.749 -2.8478  0.7985 -0.1632
  107DG      H7 2445   3.758  -0.156   2.709  1.0260 -0.1603  0.0167
  107DG      H8 2446   3.903  -0.130   2.609  1.8914 -1.0334  1.5881
  107DG      O9 2447   3.744   0.432   2.404 -0.3214  0.3324  0.0132
  107DG     O10 2448   3.743   0.008   2.594 -0.3914 -0.0800 -0.0134
  107DG     C11 2449   3.711   0.363   2.282 -0.4791  0.2456  0.2717
  107DG     C12 2450   3.687  -0.060   2.478  0.0230 -0.3330 -0.0477
  107DG     H13 2451   3.803   0.319   2.244  0.0563  1.2100  0.4259
  107DG     H14 2452   3.679   0.433   2.206  2.1859 -1.0749 -2.2815
  107DG     H15 2453   3.638  -0.157   2.489 -0.3190 -0.2243 -0.5893
  107DG     H16 2454   3.773  -0.088   2.416 -0.0293  2.1893 -1.3759
  107DG     C17 2455   3.612   0.249   2.316 -0.8809 -0.4563 -0.1588
  107DG     C18 2456   3.592   0.051   2.423 -0.7236  0.1253 -0.6139
  107DG     O19 2457   3.677   0.161   2.403 -0.6635  0.8408  0.5403
  107DG     H20 2458   3.589   0.190   2.227 -2.3213  1.3731 -1.0910
  107DG     H21 2459   3.524   0.292   2.364  0.0250 -0.7751  1.8734
  107DG     H22 2460   3.542   0.015   2.333  0.8340 -1.0597 -1.0527
  107DG     H23 2461   3.505   0.078   2.482 -0.4715  0.1846 -0.2668
  108DG      C1 2462   2.138   2.005   3.910  0.3634  0.5606 -0.4993
  108DG      C2 2463   2.409   2.196   4.544  0.6244 -0.0232 -0.2573
  108DG      H3 2464   2.239   1.964   3.898  0.6138  0.5646  1.2741
  108DG      H4 2465   2.091   2.022   3.813  0.8744  0.2791 -0.8046
  108DG      H5 2466   2.085   1.936   3.976  1.2233 -1.5941 -1.9138
  108DG      H6 2467   2.515   2.196   4.573  0.6757 -3.4333  0.0649
  108DG      H7 2468   2.359   2.280   4.592  0.6750 -0.2546  0.2082
  108DG      H8 2469   2.358   2.108   4.584  1.9913 -1.5145 -1.6478
  108DG      O9 2470   2.151   2.131   3.982 -0.2746 -1.0273 -0.0405
  108DG     O10 2471   2.387   2.199   4.400 -0.1130 -0.1447 -0.3931
  108DG     C11 2472   2.221   2.226   3.908  0.6257  0.3259  0.1037
  108DG     C12 2473   2.447   2.316   4.338 -0.7622 -0.3178 -0.0470
  108DG     H13 2474   2.182   2.271   3.817  0.5966  2.0280  0.9138
  108DG     H14 2475   2.322   2.196   3.881  0.8088 -0.1752  1.2736
  108DG     H15 2476   2.550   2.304   4.307 -0.6945  0.5727 -0.1953
  108DG     H16 2477   2.449   2.403   4.404 -2.3979 -0.0458 -0.2974
  108DG     C17 2478   2.258   2.337   4.015  0.0568  0.1701 -0.4716
  108DG     C18 2479   2.353   2.374   4.225 -0.6670 -0.1484  0.3660
  108DG     O19 2480   2.331   2.278   4.123  0.1478 -0.0958  0.1718
  108DG     H20 2481   2.165   2.377   4.056  0.3204 -0.1813  0.4970
  108DG     H21 2482   2.315   2.398   3.945 -0.4946 -0.7408 -1.7682
  108DG     H22 2483   2.260   2.417   4.263 -0.1821 -0.1212  1.5748
  108DG     H23 2484   2.414   2.457   4.188  0.7299 -0.5889  1.5453
  109DG      C1 2485   1.847   2.786   4.432  0.3169 -0.2186 -0.0458
  109DG      C2 2486   1.863   3.397   4.182  0.2537  0.4831  0.1238
  109DG      H3 2487   1.809   2.685   4.439 -0.1253  0.0315  1.7319
  109DG      H4 2488   1.819   2.834   4.526 -3.0199  1.7402 -1.8537
  109DG      H5 2489   1.955   2.782   4.420  0.2438 -1.6583 -0.4027
  109DG      H6 2490   1.963   3.384   4.141  0.8958  3.4470  0.5794
  109DG      H7 2491   1.825   3.484   4.129  1.0565 -0.0068 -1.3178
  109DG      H8 2492   1.877   3.420   4.287  1.6092  0.3595 -0.0165
  109DG      O9 2493   1.776   2.857   4.333  0.2324 -0.3090 -0.2773
  109DG     O10 2494   1.798   3.277   4.162  0.8025  0.2223 -0.2260
  109DG     C11 2495   1.790   2.804   4.201 -0.6241  0.3650 -0.4082
  109DG     C12 2496   1.761   3.258   4.031  0.1984 -0.5310  0.3343
  109DG     H13 2497   1.744   2.705   4.204  2.1425 -1.0047  1.2836
  109DG     H14 2498   1.893   2.782   4.175 -0.2016  0.0801  1.3831
  109DG     H15 2499   1.853   3.270   3.974  0.0692  1.2641  0.4332
  109DG     H16 2500   1.684   3.326   3.994  0.3861 -0.9232 -0.8326
  109DG     C17 2501   1.727   2.893   4.101 -0.2979 -0.1980  0.2141
  109DG     C18 2502   1.705   3.118   4.015  0.0945  0.3308 -1.3666
  109DG     O19 2503   1.780   3.032   4.107  0.1156  0.7614  0.1039
  109DG     H20 2504   1.618   2.902   4.102 -0.5663 -2.7188  1.5461
  109DG     H21 2505   1.760   2.856   4.005  2.9102 -2.8735  2.1396
  109DG     H22 2506   1.601   3.113   4.050  1.0985 -1.7572  1.7321
  109DG     H23 2507   1.712   3.077   3.915 -1.7066 -2.1177 -0.5862
  110DG      C1 2508   4.253   1.237   1.051 -0.3205  0.4275 -0.7856
  110DG      C2 2509   3.734   0.770   1.142  0.3124  0.2979 -0.2217
  110DG      H3 2510   4.212   1.336   1.074  0.7902  0.3310  1.9875
  110DG      H4 2511   4.228   1.219   0.946 -0.5299 -2.6806 -0.3042
  110DG      H5 2512   4.361   1.230   1.056 -0.5041 -3.4045  0.7333
  110DG      H6 2513   3.766   0.743   1.041 -1.0540  0.5441 -0.7409
  110DG      H7 2514   3.692   0.681   1.188  1.1602 -0.2086 -0.3962
  110DG      H8 2515   3.654   0.843   1.141  1.2395  1.3503  0.2597
  110DG      O9 2516   4.181   1.141   1.134  0.0788  0.1267  0.1571
  110DG     O10 2517   3.843   0.818   1.217  0.0211  0.1538  0.3760
  110DG     C11 2518   4.174   1.174   1.275 -0.2593  0.7734  0.0818
  110DG     C12 2519   3.804   0.865   1.342  0.0676  0.6263 -0.2392
  110DG     H13 2520   4.112   1.262   1.291  0.4054  1.2773 -0.0722
  110DG     H14 2521   4.276   1.194   1.309  0.1612 -0.3405 -0.4817
  110DG     H15 2522   3.781   0.782   1.410  2.6166 -0.6937 -0.8640
  110DG     H16 2523   3.726   0.940   1.331 -0.3166  0.3604  0.5884
  110DG     C17 2524   4.114   1.060   1.356 -0.0613 -0.1905 -0.0700
  110DG     C18 2525   3.923   0.931   1.404  0.4383 -0.0948  0.0755
  110DG     O19 2526   3.985   1.019   1.308 -0.1566 -0.7392  0.1064
  110DG     H20 2527   4.117   1.082   1.462 -0.0207 -2.1021  0.3688
  110DG     H21 2528   4.181   0.973   1.348 -0.2343 -0.2713 -0.7272
  110DG     H22 2529   3.892   0.991   1.490  0.9842  2.8643 -1.6577
  110DG     H23 2530   3.989   0.849   1.431 -1.5453 -1.4818  0.9937
  111DG      C1 2531   3.846   4.456   3.713 -0.3953 -0.1406 -0.7036
  111DG      C2 2532   3.711   5.050   3.607 -0.5096 -0.6253 -0.4123
  111DG      H3 2533   3.742   4.437   3.742 -0.5998 -0.6070 -1.6711
  111DG      H4 2534   3.910   4.449   3.801  0.7327  1.8283 -1.3177
  111DG      H5 2535   3.874   4.365   3.660  0.9898 -2.2931  3.3079
  111DG      H6 2536   3.676   5.114   3.526  1.1291 -1.1067 -1.5570
  111DG      H7 2537   3.645   4.999   3.677  1.1843 -0.5820  1.2797
  111DG      H8 2538   3.768   5.116   3.671 -0.4951  0.0727 -1.1304
  111DG      O9 2539   3.867   4.582   3.645  0.2604  0.0121  0.7179
  111DG     O10 2540   3.802   4.966   3.545  0.2768 -0.2037  0.3138
  111DG     C11 2541   3.998   4.588   3.585 -1.1353  0.1664  0.0740
  111DG     C12 2542   3.921   5.019   3.488  0.1252  0.5670 -0.0663
  111DG     H13 2543   4.008   4.528   3.495  0.1452  0.2202  0.1674
  111DG     H14 2544   4.069   4.537   3.650  2.9234  3.0348 -1.7085
  111DG     H15 2545   3.988   5.030   3.573 -0.9338 -0.1649  0.8907
  111DG     H16 2546   3.912   5.121   3.451  1.3404  0.4379 -0.7937
  111DG     C17 2547   4.043   4.734   3.550 -0.1147 -0.6082  0.1053
  111DG     C18 2548   3.977   4.915   3.393 -0.3540 -0.2363  0.6093
  111DG     O19 2549   3.959   4.783   3.449  0.2610 -0.3268  0.0866
  111DG     H20 2550   4.148   4.742   3.521 -0.5277 -0.0293 -1.3169
  111DG     H21 2551   4.040   4.794   3.642  1.8874  1.9766 -1.3666
  111DG     H22 2552   3.913   4.925   3.305 -1.7799  2.9055  1.8414
  111DG     H23 2553   4.077   4.942   3.359 -1.7623  1.4464 -2.6804
  112DG      C1 2554   4.020   4.366   0.047 -0.1883 -0.0655  0.2896
  112DG      C2 2555   3.375   4.635   0.024 -0.3578  0.1094  0.1116
  112DG      H3 2556   4.071   4.438  -0.017 -1.0654 -0.0517 -0.4114
  112DG      H4 2557   3.974   4.303  -0.029  1.8472 -0.2898 -0.8476
  112DG      H5 2558   4.082   4.296   0.103 -0.3033 -0.2458  0.1904
  112DG      H6 2559   3.360   4.597  -0.077 -1.7528 -1.3927  0.8276
  112DG      H7 2560   3.279   4.628   0.075 -0.8527 -0.8484 -0.9129
  112DG      H8 2561   3.396   4.739  -0.000 -1.8257  0.2933 -0.4571
  112DG      O9 2562   3.916   4.420   0.122  0.5049 -0.2556 -0.3254
  112DG     O10 2563   3.479   4.570   0.094  0.3421  0.3690  0.6424
  112DG     C11 2564   3.962   4.525   0.213  0.1332 -0.1064 -0.5706
  112DG     C12 2565   3.496   4.637   0.220  0.3121 -0.6287 -0.2474
  112DG     H13 2566   3.984   4.610   0.149 -0.1500  0.3856 -0.0209
  112DG     H14 2567   4.046   4.506   0.279 -0.1725  0.6414  0.0402
  112DG     H15 2568   3.406   4.646   0.281 -0.0482 -0.4402 -0.7938
  112DG     H16 2569   3.517   4.742   0.202 -1.0184 -0.1752  0.6373
  112DG     C17 2570   3.845   4.556   0.306  0.4989 -0.5429  0.1611
  112DG     C18 2571   3.604   4.573   0.302  0.3221  0.4375 -0.1668
  112DG     O19 2572   3.726   4.580   0.226  0.0532  1.0008  0.1792
  112DG     H20 2573   3.860   4.646   0.366  0.8336 -0.6206  0.1901
  112DG     H21 2574   3.821   4.474   0.374 -1.1673 -0.0849  0.1712
  112DG     H22 2575   3.605   4.632   0.394  1.1860 -0.0919  0.1725
  112DG     H23 2576   3.591   4.466   0.316  0.2026  0.1598 -2.1727
  113DG      C1 2577   2.710   2.581   3.931 -0.3334  0.5143  0.0181
  113DG      C2 2578   2.930   2.652   4.528 -0.3756  0.1891  0.0597
  113DG      H3 2579   2.765   2.537   3.848 -0.5045  1.6767 -0.7457
  113DG      H4 2580   2.743   2.685   3.931  2.3338 -0.1618  3.0976
  113DG      H5 2581   2.605   2.590   3.903 -0.1427  1.1161 -0.5498
  113DG      H6 2582   2.924   2.759   4.514  0.4783  0.1021 -1.1095
  113DG      H7 2583   2.976   2.640   4.627  2.2140  0.8183 -0.9759
  113DG      H8 2584   3.002   2.608   4.459 -0.8185  0.7246 -0.7511
  113DG      O9 2585   2.735   2.525   4.056  0.3724 -0.2570  0.1317
  113DG     O10 2586   2.807   2.594   4.506  0.5539 -0.3877 -0.1995
  113DG     C11 2587   2.747   2.385   4.056 -0.4408  1.0283 -0.6196
  113DG     C12 2588   2.806   2.454   4.532  0.5592  0.5357 -0.2278
  113DG     H13 2589   2.800   2.361   3.964  1.1656  0.7499  0.3296
  113DG     H14 2590   2.647   2.345   4.043  0.1050 -0.5037 -0.2594
  113DG     H15 2591   2.702   2.424   4.549  0.7517 -1.3024 -1.9263
  113DG     H16 2592   2.845   2.425   4.630 -0.6114 -1.6394 -0.3398
  113DG     C17 2593   2.830   2.338   4.179 -0.0173 -0.0419 -0.2621
  113DG     C18 2594   2.860   2.367   4.417  0.1649  1.0616  0.0868
  113DG     O19 2595   2.777   2.386   4.304  0.4501 -0.0225  0.6615
  113DG     H20 2596   2.932   2.371   4.158  0.0810 -1.0265 -1.4392
  113DG     H21 2597   2.849   2.232   4.167  0.0096  0.2742 -4.8576
  113DG     H22 2598   2.961   2.398   4.393 -0.2272  2.9313  0.6565
  113DG     H23 2599   2.878   2.263   4.445 -0.7013  0.3741 -1.7709
  114DG      C1 2600   1.991   0.410   4.241 -0.1382  0.0815 -0.2710
  114DG      C2 2601   1.799  -0.158   3.951 -0.8955 -0.4738 -0.0796
  114DG      H3 2602   1.975   0.513   4.270 -0.8385 -0.5513  1.7525
  114DG      H4 2603   2.092   0.387   4.209  0.8441  0.9240  2.0660
  114DG      H5 2604   1.983   0.343   4.327 -1.3909  0.8084  0.2104
  114DG      H6 2605   1.774  -0.200   4.048 -2.5601 -0.6837 -0.5700
  114DG      H7 2606   1.737  -0.205   3.875 -0.3321 -2.5014  0.6495
  114DG      H8 2607   1.902  -0.178   3.920 -0.9628 -0.0709 -0.5694
  114DG      O9 2608   1.898   0.378   4.149  0.2970 -0.3510 -0.1680
  114DG     O10 2609   1.782  -0.019   3.955  0.6401  0.4182  0.2519
  114DG     C11 2610   1.929   0.430   4.025  0.1815  0.5281  0.6124
  114DG     C12 2611   1.747   0.041   3.826  0.8156  0.2234  0.5653
  114DG     H13 2612   2.016   0.375   3.987  1.2699 -1.1621  4.9663
  114DG     H14 2613   1.942   0.538   4.022 -0.0599  0.5400 -0.4629
  114DG     H15 2614   1.665  -0.018   3.786 -0.5226  1.4324  1.4286
  114DG     H16 2615   1.837   0.024   3.767  1.2847 -0.1249  1.3526
  114DG     C17 2616   1.815   0.392   3.930  0.1382  0.5653 -0.2179
  114DG     C18 2617   1.713   0.182   3.838  0.2464  0.4513 -0.8221
  114DG     O19 2618   1.818   0.245   3.914 -0.4445  0.3856 -0.2989
  114DG     H20 2619   1.819   0.445   3.835  0.9911  0.7880 -0.0654
  114DG     H21 2620   1.724   0.410   3.986  0.2087  2.6391 -0.6801
  114DG     H22 2621   1.714   0.225   3.738  0.2978 -1.7755 -1.8290
  114DG     H23 2622   1.621   0.204   3.892  0.4708 -0.5503 -0.0149
  115DG      C1 2623   5.437   5.338   2.320  0.5746 -0.3234 -0.9316
  115DG      C2 2624   5.540   4.534   2.771  0.4634 -0.2289  0.3227
  115DG      H3 2625   5.410   5.379   2.417  1.4597 -0.5257 -0.5949
  115DG      H4 2626   5.359   5.366   2.248 -1.2369 -1.5311  0.4785
  115DG      H5 2627   5.532   5.384   2.293 -0.3525  1.1456 -1.8297
  115DG      H6 2628   5.641   4.510   2.806  1.2109  0.6690 -1.1215
  115DG      H7 2629   5.491   4.584   2.854 -1.4304 -0.2170 -0.7510
  115DG      H8 2630   5.506   4.431   2.761  1.4825 -0.5382 -0.1512
  115DG      O9 2631   5.445   5.192   2.320 -0.2610  0.1926 -0.1405
  115DG     O10 2632   5.540   4.605   2.652  0.1007 -0.7953  0.2917
  115DG     C11 2633   5.535   5.148   2.423 -0.6548 -1.0862 -0.0676
  115DG     C12 2634   5.559   4.747   2.663 -0.3883 -0.1236  0.8701
  115DG     H13 2635   5.479   5.162   2.516 -0.6947 -2.9658  0.2237
  115DG     H14 2636   5.623   5.208   2.445  1.0302 -3.4051 -0.1173
  115DG     H15 2637   5.663   4.758   2.692 -0.3551  1.3680  0.2690
  115DG     H16 2638   5.497   4.799   2.736 -0.0892  0.1245  0.9496
  115DG     C17 2639   5.564   5.001   2.401  0.2376  0.2804 -0.3654
  115DG     C18 2640   5.546   4.809   2.523  0.7857 -0.1934  0.2752
  115DG     O19 2641   5.575   4.943   2.531 -0.2619 -0.3198  0.7556
  115DG     H20 2642   5.639   4.988   2.324  0.4397  1.0774 -0.3064
  115DG     H21 2643   5.474   4.966   2.350 -0.9987  0.3696  1.6444
  115DG     H22 2644   5.615   4.766   2.449 -0.0636 -2.3584  0.6563
  115DG     H23 2645   5.446   4.784   2.487  1.5924 -0.1562 -2.2087
  116DG      C1 2646   4.157   2.104   4.939 -0.1718 -0.6035  0.0545
  116DG      C2 2647   4.064   1.587   4.546  0.4757 -0.2951  0.4207
  116DG      H3 2648   4.065   2.079   4.991  0.2446 -2.7157 -0.1378
  116DG      H4 2649   4.178   2.207   4.969 -1.6229 -0.3311  0.2055
  116DG      H5 2650   4.238   2.047   4.985 -0.8789 -0.1644  1.9244
  116DG      H6 2651   4.152   1.523   4.553  1.2124  0.7275  0.6685
  116DG      H7 2652   4.018   1.566   4.643  1.8474  0.8887  1.3590
  116DG      H8 2653   3.994   1.550   4.471  1.2926  0.4576 -0.7363
  116DG      O9 2654   4.156   2.083   4.799  0.0442  0.1424  0.6210
  116DG     O10 2655   4.097   1.729   4.531 -0.3707  0.7677 -0.5350
  116DG     C11 2656   4.283   2.123   4.736  0.4673 -0.5811 -0.5862
  116DG     C12 2657   4.201   1.753   4.442  0.3496 -0.2550 -0.1343
  116DG     H13 2658   4.359   2.062   4.786  1.5776 -0.3315 -1.9111
  116DG     H14 2659   4.310   2.226   4.760 -0.9387 -0.5631  1.0881
  116DG     H15 2660   4.165   1.728   4.342  1.0525 -0.0342 -0.4470
  116DG     H16 2661   4.288   1.691   4.464  1.7030  1.2375 -1.0289
  116DG     C17 2662   4.281   2.089   4.585  0.8442  0.2126  0.2108
  116DG     C18 2663   4.232   1.903   4.435  0.0590 -0.2590 -0.9245
  116DG     O19 2664   4.268   1.947   4.567 -0.7387 -0.7772 -0.2026
  116DG     H20 2665   4.378   2.115   4.542 -0.7033  2.9514 -1.9772
  116DG     H21 2666   4.199   2.145   4.541 -0.0174 -0.8229  0.4731
  116DG     H22 2667   4.311   1.917   4.361 -0.3153 -0.5210 -1.3765
  116DG     H23 2668   4.148   1.960   4.394 -1.5583 -0.1895  2.2306
  117DG      C1 2669   3.875   3.472   5.298 -0.2511  0.7399 -0.2325
  117DG      C2 2670   4.206   4.015   5.442 -0.2118 -0.2800 -0.1984
  117DG      H3 2671   3.822   3.484   5.393 -1.4643  1.0204 -0.9146
  117DG      H4 2672   3.932   3.380   5.305  1.0139  1.4884 -0.3961
  117DG      H5 2673   3.812   3.451   5.212 -0.7881  0.7007  0.1606
  117DG      H6 2674   4.174   4.054   5.538  1.9216  2.2108 -0.4074
  117DG      H7 2675   4.229   4.111   5.395 -1.4987  0.2324  0.1676
  117DG      H8 2676   4.119   3.975   5.389 -0.8419 -0.5246  0.9945
  117DG      O9 2677   3.980   3.565   5.276  0.0832  0.0050 -0.0957
  117DG     O10 2678   4.304   3.915   5.438 -0.6036  0.0785 -0.7263
  117DG     C11 2679   4.057   3.547   5.151  0.3252  0.4154  0.2253
  117DG     C12 2680   4.361   3.902   5.311  0.5449 -0.8906  0.8039
  117DG     H13 2681   3.993   3.513   5.070 -1.3762 -0.9708  2.0233
  117DG     H14 2682   4.125   3.464   5.174 -1.9735 -1.1051  2.0502
  117DG     H15 2683   4.445   3.833   5.319 -0.1179 -1.8825 -0.3416
  117DG     H16 2684   4.409   3.992   5.273 -0.4098 -0.7400 -0.1040
  117DG     C17 2685   4.130   3.674   5.114 -0.0302  0.3373 -0.0333
  117DG     C18 2686   4.267   3.844   5.203  0.5207 -0.1918  0.3030
  117DG     O19 2687   4.203   3.723   5.223  0.0174  0.1754 -0.0616
  117DG     H20 2688   4.063   3.752   5.078 -2.7608 -1.1891  1.4397
  117DG     H21 2689   4.189   3.663   5.023 -0.1725 -1.7434  0.0963
  117DG     H22 2690   4.189   3.909   5.162  0.4271  0.4572  1.4656
  117DG     H23 2691   4.335   3.832   5.118  0.6428  1.5594  0.1147
  118DG      C1 2692   2.045   3.112   4.250 -0.2811 -0.2403  0.4803
  118DG      C2 2693   1.524   3.406   4.380  0.1490  0.1709 -0.8705
  118DG      H3 2694   2.020   3.167   4.160 -1.5529 -0.6434  0.5679
  118DG      H4 2695   2.005   3.011   4.241 -2.6479  0.4875  1.7725
  118DG      H5 2696   2.152   3.120   4.265 -0.5721 -0.2415  3.0788
  118DG      H6 2697   1.543   3.512   4.393  1.3547  0.0256 -1.3335
  118DG      H7 2698   1.553   3.384   4.278 -0.6447 -0.7816 -0.9134
  118DG      H8 2699   1.420   3.373   4.390  0.3658 -0.8078 -1.7601
  118DG      O9 2700   1.978   3.175   4.367  0.0807 -0.0063  0.7153
  118DG     O10 2701   1.628   3.341   4.453  0.4723 -0.8524  0.2072
  118DG     C11 2702   2.005   3.114   4.487 -0.7707  0.1449 -0.2125
  118DG     C12 2703   1.588   3.297   4.578  0.1903  0.6162  0.8636
  118DG     H13 2704   2.113   3.124   4.495 -0.7835  1.1155 -1.0538
  118DG     H14 2705   1.990   3.006   4.491 -2.2191  0.3494  0.3138
  118DG     H15 2706   1.515   3.216   4.577 -0.6026  1.3027  0.9926
  118DG     H16 2707   1.522   3.372   4.623  1.1040  2.2208 -0.3618
  118DG     C17 2708   1.929   3.183   4.593  0.7265 -0.3174  0.0913
  118DG     C18 2709   1.717   3.255   4.651  0.0457  0.8476  0.2433
  118DG     O19 2710   1.793   3.174   4.560 -0.1792 -0.6228  0.0159
  118DG     H20 2711   1.953   3.290   4.597 -0.5458 -0.0369  0.9553
  118DG     H21 2712   1.953   3.147   4.693  0.5808 -0.3358  0.1202
  118DG     H22 2713   1.767   3.344   4.689  0.1341  0.6058  0.6952
  118DG     H23 2714   1.690   3.195   4.737  1.2067  0.9764  0.7167
  119DG      C1 2715   2.908   1.720   4.439  0.0000  0.5584 -0.7849
  119DG      C2 2716   3.531   1.754   4.737  0.6339 -0.2026  0.2410
  119DG      H3 2717   2.844   1.673   4.364 -0.7818 -1.2445  0.9234
  119DG      H4 2718   2.888   1.823   4.468 -2.1733 -0.2306  0.7330
  119DG      H5 2719   2.904   1.661   4.530 -0.1661  1.3393 -0.2772
  119DG      H6 2720   3.635   1.784   4.721  0.6227  0.3720  1.1831
  119DG      H7 2721   3.500   1.841   4.796  2.6702  0.9293 -0.2592
  119DG      H8 2722   3.520   1.663   4.796 -0.0653  0.5534  1.3221
  119DG      O9 2723   3.044   1.727   4.392  0.2696 -0.5346  0.1290
  119DG     O10 2724   3.471   1.741   4.608  0.5204 -0.2832 -0.0106
  119DG     C11 2725   3.088   1.609   4.326 -0.5403  0.0353 -0.0938
  119DG     C12 2726   3.515   1.627   4.537  0.3212  0.5506 -0.1595
  119DG     H13 2727   3.039   1.603   4.229  0.4191  0.9017 -0.6492
  119DG     H14 2728   3.070   1.515   4.378 -1.5875  0.2329 -0.0634
  119DG     H15 2729   3.481   1.537   4.588  1.0716  0.1495 -0.3433
  119DG     H16 2730   3.620   1.601   4.549 -0.2081 -1.1747  1.1456
  119DG     C17 2731   3.239   1.622   4.287 -0.1879 -1.0446  0.7074
  119DG     C18 2732   3.446   1.637   4.400  0.2870  0.2516 -0.3646
  119DG     O19 2733   3.306   1.621   4.417 -0.0715 -0.0650 -0.4620
  119DG     H20 2734   3.245   1.719   4.238 -1.0335 -2.1950 -1.8688
  119DG     H21 2735   3.277   1.564   4.202 -0.4803  0.9250 -0.8618
  119DG     H22 2736   3.475   1.734   4.359  3.3999 -0.8497 -1.0971
  119DG     H23 2737   3.482   1.556   4.335 -0.9411  0.6557 -1.6018
  120DG      C1 2738   5.153   3.968   1.690  0.5399 -0.1474  0.2321
  120DG      C2 2739   5.518   3.489   2.009  0.1040  0.0956  0.2357
  120DG      H3 2740   5.181   4.062   1.738  1.3342 -0.1436 -0.2246
  120DG      H4 2741   5.081   3.985   1.611  0.6298  1.8127  0.5117
  120DG      H5 2742   5.246   3.959   1.633  0.7521 -0.2725  0.5924
  120DG      H6 2743   5.552   3.397   1.960  4.9904  0.9208  1.5432
  120DG      H7 2744   5.593   3.567   1.996  1.2749 -1.0605 -0.1860
  120DG      H8 2745   5.533   3.473   2.116 -1.0462 -0.9422  0.2606
  120DG      O9 2746   5.123   3.856   1.776  0.4276 -0.2555 -0.2648
  120DG     O10 2747   5.388   3.542   1.991 -0.0024 -0.3806  1.1502
  120DG     C11 2748   5.059   3.749   1.703 -0.3127  0.4513 -0.0848
  120DG     C12 2749   5.294   3.440   1.985  0.0562  0.2135 -0.0911
  120DG     H13 2750   5.134   3.712   1.633 -0.3099  1.5834 -0.6870
  120DG     H14 2751   4.959   3.771   1.666 -0.5464 -1.2497 -0.5454
  120DG     H15 2752   5.293   3.382   2.077 -1.4473 -0.4714 -0.5015
  120DG     H16 2753   5.336   3.368   1.916 -0.7073  1.4878 -1.9795
  120DG     C17 2754   5.043   3.648   1.818 -0.8900 -0.0502 -0.5193
  120DG     C18 2755   5.154   3.505   1.965  0.0349  1.0548  0.3223
  120DG     O19 2756   5.166   3.593   1.856  0.6631 -0.0868 -0.4421
  120DG     H20 2757   4.986   3.564   1.777 -1.1484 -0.5610  0.8214
  120DG     H21 2758   4.983   3.689   1.899 -0.2231 -0.1572  0.0375
  120DG     H22 2759   5.094   3.414   1.954 -0.0059  0.6445  3.1524
  120DG     H23 2760   5.105   3.564   2.042 -0.9886  0.3955  0.2076
  121DG      C1 2761   2.520   5.354   2.335  0.0783  0.0770 -0.9428
  121DG      C2 2762   2.045   5.010   2.050  0.4952  0.2977  0.5686
  121DG      H3 2763   2.573   5.441   2.375  0.4399 -0.3951 -0.3841
  121DG      H4 2764   2.570   5.313   2.247 -2.3001 -0.0410 -2.3040
  121DG      H5 2765   2.509   5.280   2.414 -3.7836  2.5863  1.1660
  121DG      H6 2766   1.973   4.983   1.973  0.4423 -1.1631  1.1095
  121DG      H7 2767   2.144   4.977   2.019 -0.1125 -0.7255 -0.3820
  121DG      H8 2768   2.015   4.962   2.143  1.2013  0.6569  0.9887
  121DG      O9 2769   2.388   5.394   2.288  0.2051  0.5341 -0.6021
  121DG     O10 2770   2.055   5.146   2.066 -0.0263 -0.3790  0.6880
  121DG     C11 2771   2.395   5.486   2.181  0.4954 -0.5592 -0.1652
  121DG     C12 2772   2.099   5.211   1.946 -0.0906  0.4385 -0.1496
  121DG     H13 2773   2.484   5.468   2.121  0.3214 -0.5580 -0.4275
  121DG     H14 2774   2.408   5.586   2.221 -1.4275 -1.2714  2.5201
  121DG     H15 2775   2.026   5.198   1.865 -0.2450  0.3000  0.0126
  121DG     H16 2776   2.195   5.172   1.911  0.2867 -0.2539  1.5816
  121DG     C17 2777   2.262   5.493   2.100 -0.3230 -0.0119 -0.6579
  121DG     C18 2778   2.118   5.359   1.973  0.1796 -0.2044  0.7629
  121DG     O19 2779   2.221   5.364   2.065  0.0694 -0.9651  0.2132
  121DG     H20 2780   2.272   5.565   2.019  1.1765  0.8120  0.2205
  121DG     H21 2781   2.186   5.542   2.162  1.8397  1.5777  0.9203
  121DG     H22 2782   2.150   5.414   1.884  0.1223  1.4696  1.7562
  121DG     H23 2783   2.023   5.401   2.006  0.1205  0.6251 -0.4042
  122DG      C1 2784   5.081   0.306   3.095  0.2129 -0.4534  0.1357
  122DG      C2 2785   4.818  -0.190   3.576  0.4173  0.1974 -0.1097
  122DG      H3 2786   4.982   0.331   3.056  0.5487  0.1890 -0.3297
  122DG      H4 2787   5.155   0.306   3.015  0.6547  0.0244  0.5332
  122DG      H5 2788   5.108   0.394   3.154  0.0481  0.3996 -1.0084
  122DG      H6 2789   4.773  -0.281   3.535  0.5390 -0.2034  0.6269
  122DG      H7 2790   4.853  -0.225   3.673  0.4794  1.2741  0.2616
  122DG      H8 2791   4.734  -0.121   3.587 -0.1666 -0.4582 -0.3369
  122DG      O9 2792   5.085   0.187   3.168 -0.7649  0.2607  0.0126
  122DG     O10 2793   4.923  -0.134   3.487  0.4330 -0.1017 -0.4942
  122DG     C11 2794   5.215   0.160   3.221 -0.1549  0.4085 -0.7018
  122DG     C12 2795   5.040  -0.216   3.485  0.4788  1.0099  0.5618
  122DG     H13 2796   5.236   0.223   3.307 -2.7825 -0.1858  0.4626
  122DG     H14 2797   5.290   0.189   3.147 -0.1552  3.7414  0.4299
  122DG     H15 2798   5.006  -0.319   3.475 -0.3162  1.4069 -1.1958
  122DG     H16 2799   5.095  -0.214   3.579  2.2081 -1.2499 -0.2998
  122DG     C17 2800   5.242   0.017   3.265 -0.2201  0.4266  0.1435
  122DG     C18 2801   5.127  -0.171   3.368 -0.6479 -0.7717  0.5564
  122DG     O19 2802   5.146  -0.027   3.362 -0.0197  0.0992  0.0783
  122DG     H20 2803   5.338   0.002   3.314 -0.8794 -0.2199  1.2774
  122DG     H21 2804   5.231  -0.048   3.179 -1.3870  1.5784 -0.6143
  122DG     H22 2805   5.227  -0.214   3.368 -0.1754  0.2863  0.4638
  122DG     H23 2806   5.083  -0.211   3.277  1.7886 -3.4426  0.4226
  123DG      C1 2807   0.037   2.174   0.795  0.1182  0.5485 -1.3333
  123DG      C2 2808   0.012   2.269   1.677  0.2248  0.5544  0.1186
  123DG      H3 2809   0.140   2.200   0.768  1.2367 -2.7429 -0.5961
  123DG      H4 2810  -0.039   2.228   0.738  0.7761 -0.2818 -3.0716
  123DG      H5 2811   0.031   2.068   0.770 -1.6409  0.3572 -0.2990
  123DG      H6 2812   0.031   2.328   1.767  0.8680  0.2018  0.2170
  123DG      H7 2813  -0.095   2.255   1.661  0.4352  0.2551 -1.0836
  123DG      H8 2814   0.049   2.170   1.703 -1.3850 -0.7181 -2.1784
  123DG      O9 2815   0.031   2.188   0.939 -0.2130  0.0949 -0.3053
  123DG     O10 2816   0.070   2.316   1.559 -0.6464  0.2288  0.5365
  123DG     C11 2817   0.088   2.306   0.989 -0.3537 -0.4167 -0.3949
  123DG     C12 2818   0.042   2.236   1.447  0.9137 -0.5002 -0.3834
  123DG     H13 2819   0.112   2.385   0.917 -0.3533 -1.3037 -1.3965
  123DG     H14 2820   0.184   2.272   1.027 -0.2924 -0.3122 -0.4526
  123DG     H15 2821  -0.064   2.211   1.448  0.4760  1.2512 -0.6367
  123DG     H16 2822   0.109   2.150   1.436  0.3411 -1.0304  0.1764
  123DG     C17 2823   0.001   2.359   1.101  0.0705 -0.7954 -0.6809
  123DG     C18 2824   0.061   2.330   1.328  0.2850 -1.0341  0.0247
  123DG     O19 2825  -0.018   2.285   1.218  0.0091 -0.6766  0.0190
  123DG     H20 2826  -0.099   2.363   1.060 -0.2706 -0.8121  0.1395
  123DG     H21 2827   0.026   2.463   1.118 -0.4135 -0.8008  0.1007
  123DG     H22 2828   0.043   2.435   1.350  0.8851 -0.4321 -2.0984
  123DG     H23 2829   0.166   2.321   1.303  0.6497 -3.3484  2.0010
  124DG      C1 2830   1.994   2.656   1.403  0.0225  0.3133  0.0731
  124DG      C2 2831   1.464   2.438   1.149 -0.2952  0.4021  0.0386
  124DG      H3 2832   1.994   2.550   1.426  1.3809  0.5724  1.5234
  124DG      H4 2833   2.022   2.714   1.492 -0.1188  0.4345  0.0394
  124DG      H5 2834   2.071   2.675   1.328 -0.3781 -2.5226 -1.1808
  124DG      H6 2835   1.356   2.433   1.132 -0.4507  2.4279  0.2248
  124DG      H7 2836   1.517   2.416   1.056 -1.8088  0.4416 -0.8804
  124DG      H8 2837   1.496   2.361   1.219  1.1477  0.4244 -0.5709
  124DG      O9 2838   1.870   2.690   1.355 -0.1233 -0.0565 -0.1894
  124DG     O10 2839   1.507   2.554   1.213 -0.5107 -0.0450  0.3525
  124DG     C11 2840   1.875   2.808   1.270  0.5736 -1.1880 -0.7721
  124DG     C12 2841   1.482   2.663   1.125  0.2809 -0.6974 -0.0249
  124DG     H13 2842   1.965   2.816   1.209 -0.0475  0.7548 -1.5082
  124DG     H14 2843   1.872   2.891   1.341  0.3861 -3.0668  1.5359
  124DG     H15 2844   1.377   2.663   1.095  0.4833 -0.6798 -0.7547
  124DG     H16 2845   1.535   2.651   1.031  1.7379  1.7589  0.3760
  124DG     C17 2846   1.760   2.798   1.173  0.3636 -0.1016 -0.4924
  124DG     C18 2847   1.516   2.794   1.191 -0.3692  0.8795 -0.1760
  124DG     O19 2848   1.644   2.783   1.256 -0.0128  0.3142  0.2213
  124DG     H20 2849   1.778   2.712   1.109  0.3320 -2.3153  2.3005
  124DG     H21 2850   1.756   2.887   1.110 -1.2008 -0.0465 -0.3512
  124DG     H22 2851   1.501   2.880   1.125  0.2194  1.7488  0.8060
  124DG     H23 2852   1.448   2.826   1.270 -0.1776  2.6648 -0.6799
  125DG      C1 2853   4.952   2.194   4.292  0.2300 -0.4739  0.9561
  125DG      C2 2854   4.962   1.540   4.749 -0.1057 -0.8760  0.4226
  125DG      H3 2855   5.049   2.164   4.252 -0.8810 -2.3785 -0.5367
  125DG      H4 2856   4.964   2.290   4.340  2.2528 -0.4243  0.4081
  125DG      H5 2857   4.894   2.206   4.200  3.1701  0.1701 -0.9439
  125DG      H6 2858   4.920   1.539   4.849 -0.2530 -1.0387  0.3575
  125DG      H7 2859   4.949   1.449   4.692 -0.6395 -0.0029 -0.9058
  125DG      H8 2860   5.071   1.548   4.759  0.2773 -2.9209 -1.3271
  125DG      O9 2861   4.915   2.100   4.396  0.7048  0.2594 -0.2475
  125DG     O10 2862   4.915   1.658   4.679  1.1106  0.1845  0.2462
  125DG     C11 2863   4.774   2.097   4.418 -0.1693 -0.1869  0.7623
  125DG     C12 2864   4.780   1.703   4.712 -0.5314 -0.1442  0.2649
  125DG     H13 2865   4.717   2.032   4.351  0.1701  0.2935 -0.0031
  125DG     H14 2866   4.741   2.199   4.404  2.0411  0.3151 -1.8677
  125DG     H15 2867   4.755   1.659   4.808  1.4079  0.9214  1.3201
  125DG     H16 2868   4.702   1.666   4.646 -1.7686  1.7302  0.6000
  125DG     C17 2869   4.763   2.049   4.565  0.5279 -0.2602  0.0450
  125DG     C18 2870   4.769   1.862   4.711 -0.0626  0.4845  0.1214
  125DG     O19 2871   4.796   1.912   4.578  0.6654 -0.1100  0.2034
  125DG     H20 2872   4.663   2.062   4.608  0.8469 -1.7663  1.3403
  125DG     H21 2873   4.826   2.108   4.631 -0.1212 -1.4841  1.8065
  125DG     H22 2874   4.665   1.889   4.723 -1.4160 -3.6851 -0.5160
  125DG     H23 2875   4.832   1.909   4.787 -0.0180 -2.5705  2.1949
  126DG      C1 2876   1.978   1.562   2.770  0.4721 -0.3667 -0.6138
  126DG      C2 2877   1.447   1.469   2.514  0.2235  0.5569 -0.3034
  126DG      H3 2878   1.923   1.573   2.863 -0.5748 -1.2055 -1.1038
  126DG      H4 2879   2.081   1.588   2.795  0.1330  0.0768  0.3443
  126DG      H5 2880   1.977   1.454   2.754 -0.3536 -0.4542 -0.0247
  126DG      H6 2881   1.466   1.379   2.572  0.5725  0.3476 -0.7359
  126DG      H7 2882   1.341   1.487   2.528  0.2066  0.1663  0.0881
  126DG      H8 2883   1.480   1.451   2.411 -0.8115  1.6295 -0.8498
  126DG      O9 2884   1.929   1.624   2.656  0.7131 -0.0348 -0.0335
  126DG     O10 2885   1.516   1.587   2.552 -0.1176 -0.2217  0.3650
  126DG     C11 2886   1.915   1.762   2.670 -0.5976 -0.4588 -0.1826
  126DG     C12 2887   1.473   1.709   2.489  0.4188 -0.0435 -0.0682
  126DG     H13 2888   2.013   1.810   2.672 -0.2753 -1.1310  1.7385
  126DG     H14 2889   1.869   1.797   2.762 -0.4535  0.3752 -0.4216
  126DG     H15 2890   1.400   1.754   2.556 -0.2597  0.2232 -0.9749
  126DG     H16 2891   1.424   1.698   2.393 -0.1101  1.2899  0.0249
  126DG     C17 2892   1.832   1.826   2.553 -0.0102 -0.8114 -1.2532
  126DG     C18 2893   1.598   1.797   2.471  0.5025 -0.3850  0.0303
  126DG     O19 2894   1.708   1.755   2.562  0.5563 -0.4426 -0.1101
  126DG     H20 2895   1.880   1.799   2.459 -1.5534 -1.4576 -1.8883
  126DG     H21 2896   1.827   1.934   2.563  2.1590 -0.7992  0.5065
  126DG     H22 2897   1.636   1.783   2.370 -0.5810 -2.3048 -0.1562
  126DG     H23 2898   1.586   1.904   2.490 -0.5536 -0.5587  0.3960
  127DG      C1 2899   1.484   4.637   1.811 -0.6326  0.2607 -0.1025
  127DG      C2 2900   0.829   4.430   1.635  0.0989  0.7366  0.4427
  127DG      H3 2901   1.530   4.659   1.715 -3.2169  2.2580 -0.9929
  127DG      H4 2902   1.495   4.531   1.836  2.4497  0.0011 -1.9552
  127DG      H5 2903   1.534   4.690   1.892  1.4897 -0.2800 -0.9825
  127DG      H6 2904   0.892   4.375   1.564  0.6933  1.9900 -0.0463
  127DG      H7 2905   0.798   4.372   1.721 -0.1972 -1.1682 -0.8785
  127DG      H8 2906   0.738   4.459   1.584  0.2886 -2.1884 -1.8668
  127DG      O9 2907   1.348   4.667   1.791 -0.0681  0.4533  0.2653
  127DG     O10 2908   0.902   4.544   1.676  0.0822  0.3136  0.3456
  127DG     C11 2909   1.327   4.804   1.771  0.1815 -0.2901  0.1832
  127DG     C12 2910   0.938   4.638   1.577 -0.4895 -0.4363  0.2681
  127DG     H13 2911   1.381   4.843   1.685 -0.6065  1.0059  0.2516
  127DG     H14 2912   1.352   4.865   1.858 -1.1787 -1.9647  1.8133
  127DG     H15 2913   0.848   4.661   1.520  0.5867  0.7147 -1.0208
  127DG     H16 2914   1.012   4.598   1.507 -0.0200  1.5671 -0.4431
  127DG     C17 2915   1.177   4.833   1.767 -0.6277 -0.7162 -0.8818
  127DG     C18 2916   0.985   4.756   1.655 -0.5343  0.6218  0.4445
  127DG     O19 2917   1.123   4.731   1.690 -0.3763  0.4203  0.3178
  127DG     H20 2918   1.173   4.933   1.724  0.1920  0.0569  0.7741
  127DG     H21 2919   1.127   4.841   1.863 -3.7657 -0.6802 -2.3721
  127DG     H22 2920   0.993   4.820   1.567 -0.3435 -1.3075 -1.0175
  127DG     H23 2921   0.920   4.793   1.733  1.2677 -0.2237  2.4407
  128DG      C1 2922   4.033   0.015   2.275 -0.0996 -0.2148 -0.4009
  128DG      C2 2923   3.885   0.311   2.853 -0.1608 -0.4368  0.1989
  128DG      H3 2924   4.104  -0.045   2.332 -2.1627 -2.1703  0.2699
  128DG      H4 2925   4.068   0.030   2.173  2.1398 -0.7372  0.2235
  128DG      H5 2926   3.936  -0.033   2.266 -0.5373  0.9460 -2.4606
  128DG      H6 2927   3.796   0.253   2.826 -0.7299  0.9694 -1.1057
  128DG      H7 2928   3.962   0.237   2.873 -0.0256 -0.6878 -1.1395
  128DG      H8 2929   3.870   0.385   2.931  1.1163  0.5840 -0.4898
  128DG      O9 2930   4.012   0.143   2.332 -0.0185  0.2917  0.0023
  128DG     O10 2931   3.913   0.373   2.725  0.0088 -0.2445  0.2613
  128DG     C11 2932   4.127   0.227   2.311  0.0965 -0.4958 -0.2530
  128DG     C12 2933   4.049   0.428   2.732 -0.2251  0.4584  0.1542
  128DG     H13 2934   4.159   0.237   2.207 -1.0835  2.7114 -0.4147
  128DG     H14 2935   4.208   0.179   2.366 -0.5594 -0.1428  1.0594
  128DG     H15 2936   4.125   0.361   2.770  0.3668  0.5664 -0.8023
  128DG     H16 2937   4.061   0.510   2.803  0.0498  0.3967  0.1791
  128DG     C17 2938   4.113   0.365   2.377  0.3160 -0.7385 -0.5002
  128DG     C18 2939   4.082   0.463   2.592  0.1338  0.3322  0.7503
  128DG     O19 2940   4.059   0.345   2.512  0.6190  0.2981  0.8212
  128DG     H20 2941   4.050   0.422   2.308  0.2765  1.5941  1.3316
  128DG     H21 2942   4.208   0.418   2.380  1.5584 -2.9035  1.6211
  128DG     H22 2943   4.019   0.545   2.558  1.1158  0.7197 -0.2050
  128DG     H23 2944   4.187   0.491   2.577 -0.1481  0.1512 -2.3057
  129DG      C1 2945   4.150   0.450   3.765  0.1420 -0.2505 -0.8214
  129DG      C2 2946   4.460  -0.105   3.877  0.4481 -0.3575  0.9347
  129DG      H3 2947   4.254   0.482   3.769 -0.4764  1.7847  1.6527
  129DG      H4 2948   4.121   0.448   3.870  2.4101  0.3461 -0.1217
  129DG      H5 2949   4.104   0.538   3.719  1.0651  1.3711  1.2297
  129DG      H6 2950   4.428  -0.208   3.898  0.0737 -0.4608 -0.0800
  129DG      H7 2951   4.566  -0.109   3.852  0.4714 -1.8522  1.1363
  129DG      H8 2952   4.473  -0.044   3.966  2.0512  1.1842 -0.2851
  129DG      O9 2953   4.138   0.327   3.698  0.5495 -0.9484  0.5599
  129DG     O10 2954   4.393  -0.030   3.777 -0.0506 -0.4344  0.0393
  129DG     C11 2955   4.177   0.334   3.560  0.2861  0.4906  0.2721
  129DG     C12 2956   4.415  -0.074   3.642  0.1639  0.5652  0.4270
  129DG     H13 2957   4.267   0.396   3.558 -0.9246  2.3677 -1.4819
  129DG     H14 2958   4.098   0.391   3.511  0.4815 -1.2303 -2.2066
  129DG     H15 2959   4.412  -0.182   3.633 -2.6141  0.5385  0.7376
  129DG     H16 2960   4.512  -0.039   3.607  0.1007  0.6403  0.3267
  129DG     C17 2961   4.190   0.195   3.507 -0.1139  0.0196  0.5498
  129DG     C18 2962   4.306  -0.006   3.560  0.9658  0.1545 -0.1586
  129DG     O19 2963   4.296   0.130   3.586 -0.1929 -0.1370 -0.3639
  129DG     H20 2964   4.217   0.199   3.402  0.6651  0.3655  0.7540
  129DG     H21 2965   4.096   0.141   3.507 -0.0483 -0.0979  0.1048
  129DG     H22 2966   4.334  -0.025   3.456 -0.5596  2.2210 -1.0194
  129DG     H23 2967   4.208  -0.052   3.573 -0.3833  2.5823 -1.1881
  130DG      C1 2968   3.956   1.404   5.287  0.1516  0.6612  0.0953
  130DG      C2 2969   3.799   1.026   5.814 -0.2809 -0.5380 -0.1218
  130DG      H3 2970   3.872   1.341   5.256  0.3773  0.7176 -0.6334
  130DG      H4 2971   4.043   1.364   5.236  0.2042  2.4210 -1.2542
  130DG      H5 2972   3.927   1.500   5.245  0.0710 -0.2030 -1.9699
  130DG      H6 2973   3.861   0.937   5.806 -0.2570 -0.4425 -1.1515
  130DG      H7 2974   3.766   1.044   5.916 -1.2875 -1.9381 -0.1748
  130DG      H8 2975   3.707   1.003   5.761 -1.7329 -0.6009  2.2840
  130DG      O9 2976   3.961   1.411   5.430 -0.5819  0.4842 -0.1523
  130DG     O10 2977   3.872   1.151   5.777 -0.1828 -0.2234 -0.4794
  130DG     C11 2978   4.088   1.460   5.478  0.3655  0.3797 -0.6498
  130DG     C12 2979   3.997   1.160   5.850  0.8231 -0.4263  0.0878
  130DG     H13 2980   4.115   1.559   5.441  0.9720  0.4746  0.0303
  130DG     H14 2981   4.165   1.395   5.438 -0.9647 -1.2464 -0.6600
  130DG     H15 2982   4.061   1.086   5.804  0.3383  1.1810 -3.4927
  130DG     H16 2983   3.983   1.150   5.958  1.2392 -2.1286  0.0103
  130DG     C17 2984   4.076   1.455   5.631 -0.1376  0.3259  0.4206
  130DG     C18 2985   4.062   1.298   5.813  0.9597 -0.8266  0.4417
  130DG     O19 2986   4.053   1.318   5.671 -0.2887  0.0596  0.1961
  130DG     H20 2987   3.981   1.503   5.657 -0.4810  0.1305 -0.4428
  130DG     H21 2988   4.165   1.498   5.677  0.0106 -0.8907  1.3139
  130DG     H22 2989   4.021   1.384   5.866  0.5705 -0.5131 -0.3520
  130DG     H23 2990   4.166   1.297   5.845  0.4340  0.5755  2.3991
  131DG      C1 2991   2.749   1.706   3.498  0.0817  0.0396  0.1720
  131DG      C2 2992   3.180   1.411   3.125  0.2125 -0.2743  0.7836
  131DG      H3 2993   2.761   1.783   3.422 -1.8451 -1.5142 -1.8494
  131DG      H4 2994   2.823   1.726   3.576 -0.2855  3.2863 -0.1915
  131DG      H5 2995   2.661   1.729   3.558  0.4634 -0.0486  0.7855
  131DG      H6 2996   3.238   1.320   3.113 -1.0060 -0.9259 -0.4756
  131DG      H7 2997   3.155   1.450   3.026  0.0064 -1.3310  0.4088
  131DG      H8 2998   3.241   1.476   3.188 -1.0244  0.6158  1.1160
  131DG      O9 2999   2.747   1.572   3.453  0.1563  0.1724 -0.0523
  131DG     O10 3000   3.056   1.391   3.199  0.4509 -0.2049  0.0898
  131DG     C11 3001   2.638   1.540   3.372  0.3890 -0.4100  0.5864
  131DG     C12 3002   2.975   1.305   3.124 -0.3221  0.7325  0.1050
  131DG     H13 3003   2.641   1.599   3.280  1.8735 -3.0636 -1.2148
  131DG     H14 3004   2.539   1.547   3.415  0.5719 -0.3947  1.0033
  131DG     H15 3005   3.024   1.215   3.088  0.6391  2.3173 -2.8358
  131DG     H16 3006   2.939   1.352   3.033 -1.7518 -1.7812 -0.7234
  131DG     C17 3007   2.670   1.396   3.319  0.1113  0.4675 -0.0019
  131DG     C18 3008   2.838   1.278   3.199 -0.3133  0.1918  0.2964
  131DG     O19 3009   2.788   1.404   3.237 -0.3263 -0.7197 -0.6377
  131DG     H20 3010   2.594   1.349   3.258 -0.5545  1.3885  0.0873
  131DG     H21 3011   2.684   1.338   3.410 -0.6025 -2.3027 -1.5608
  131DG     H22 3012   2.771   1.216   3.139 -0.7440 -0.6026  1.5477
  131DG     H23 3013   2.860   1.213   3.284  1.1392 -0.9494 -0.9028
  132DG      C1 3014   5.001   0.352   1.394 -0.2798 -0.3254  0.1907
  132DG      C2 3015   5.599   0.554   1.182  0.1715  0.3696  0.1342
  132DG      H3 3016   4.932   0.288   1.338 -2.6018  3.1051 -1.1800
  132DG      H4 3017   4.941   0.409   1.465 -1.6308 -1.2776 -0.1444
  132DG      H5 3018   5.068   0.296   1.459  1.6015  1.4276 -0.1461
  132DG      H6 3019   5.654   0.621   1.117 -0.9865 -0.7014 -2.0703
  132DG      H7 3020   5.573   0.603   1.276  1.1216  0.2291  0.4833
  132DG      H8 3021   5.653   0.465   1.215  0.3457  0.7495  0.9080
  132DG      O9 3022   5.069   0.429   1.295 -0.9607  0.3466  0.2118
  132DG     O10 3023   5.481   0.518   1.117  0.0593 -0.8986  0.7216
  132DG     C11 3024   4.989   0.519   1.222  0.1131 -0.5055 -0.2581
  132DG     C12 3025   5.419   0.640   1.060 -0.2770  0.7990 -0.1522
  132DG     H13 3026   4.957   0.597   1.291 -2.0819  0.6233 -2.4143
  132DG     H14 3027   4.898   0.467   1.193 -0.5653 -1.4972  3.2265
  132DG     H15 3028   5.485   0.663   0.976  1.6244  0.6688  1.2379
  132DG     H16 3029   5.417   0.728   1.124 -1.5239  0.2772  0.5536
  132DG     C17 3030   5.061   0.581   1.102  0.7745 -0.1555  0.4873
  132DG     C18 3031   5.275   0.622   1.014  0.5864  0.0400 -0.0848
  132DG     O19 3032   5.195   0.580   1.127 -0.6388  0.4607  0.6791
  132DG     H20 3033   5.021   0.675   1.064  1.1429 -0.4480 -0.6605
  132DG     H21 3034   5.041   0.519   1.015  1.6160  0.8024 -0.4225
  132DG     H22 3035   5.225   0.711   0.975 -0.5252 -1.3684 -2.0940
  132DG     H23 3036   5.265   0.536   0.947  1.1150 -1.6110  1.8416
  133DG      C1 3037   5.422   4.360   0.178  0.3876  0.0700  0.4912
  133DG      C2 3038   5.637   3.911   0.561  0.3147  0.0707 -0.2394
  133DG      H3 3039   5.444   4.399   0.078  0.2532 -1.1590 -0.0301
  133DG      H4 3040   5.479   4.424   0.246 -1.9384  2.1148  0.6545
  133DG      H5 3041   5.316   4.379   0.194  0.1621 -1.5783  1.0720
  133DG      H6 3042   5.622   3.834   0.638  1.5342 -1.4618 -1.4668
  133DG      H7 3043   5.671   3.848   0.479 -0.8760 -2.0828  0.8158
  133DG      H8 3044   5.707   3.991   0.587 -0.2101  0.1677  0.9541
  133DG      O9 3045   5.448   4.221   0.181 -0.4084  0.3838 -0.0489
  133DG     O10 3046   5.513   3.965   0.531  0.1431 -0.4529  0.1184
  133DG     C11 3047   5.354   4.140   0.118  0.1393  0.5055  0.4800
  133DG     C12 3048   5.419   3.865   0.506  0.1020  0.1923  0.2758
  133DG     H13 3049   5.409   4.069   0.057  0.5962  0.4707  0.9300
  133DG     H14 3050   5.291   4.205   0.056 -1.3976 -0.4769  0.9623
  133DG     H15 3051   5.376   3.825   0.598 -0.3261 -0.9915 -0.4134
  133DG     H16 3052   5.469   3.787   0.448 -0.1137  0.2945 -0.0473
  133DG     C17 3053   5.274   4.060   0.215 -0.1179 -0.1854  0.2920
  133DG     C18 3054   5.311   3.927   0.414  0.2988  0.3966  0.5361
  133DG     O19 3055   5.369   4.005   0.302  0.3456  0.7957 -0.3263
  133DG     H20 3056   5.225   3.988   0.150  0.1708  0.5614 -0.7744
  133DG     H21 3057   5.197   4.123   0.260 -0.1001  0.9001 -1.1559
  133DG     H22 3058   5.257   3.843   0.371  1.2309 -0.6371  1.3224
  133DG     H23 3059   5.236   3.975   0.476  0.1133  1.0791 -0.1918
  134DG      C1 3060   4.312   2.040   1.872 -0.5009  0.2554  0.1033
  134DG      C2 3061   4.303   1.855   1.008  0.2044  0.0248  0.3739
  134DG      H3 3062   4.290   1.933   1.871 -0.3402  0.1845  1.6264
  134DG      H4 3063   4.255   2.086   1.954 -1.6931 -2.2122  0.7723
  134DG      H5 3064   4.419   2.060   1.878 -0.0147 -0.1385 -4.1759
  134DG      H6 3065   4.265   1.755   0.985 -0.6529  0.5085 -0.3495
  134DG      H7 3066   4.239   1.923   0.953  0.3237 -0.7104 -0.7198
  134DG      H8 3067   4.402   1.868   0.964 -1.2094  1.2599 -2.7566
  134DG      O9 3068   4.266   2.091   1.755 -0.1106 -0.5063  0.3502
  134DG     O10 3069   4.304   1.891   1.140  0.3811  0.4892  0.4609
  134DG     C11 3070   4.310   2.017   1.641  0.6384 -0.4482  0.0733
  134DG     C12 3071   4.369   2.013   1.162  0.1647 -0.1406 -0.2904
  134DG     H13 3072   4.273   1.914   1.644 -0.7281  0.0472  1.8167
  134DG     H14 3073   4.418   2.015   1.626  0.8934 -2.0287  1.7909
  134DG     H15 3074   4.363   2.076   1.073  2.3068  0.2047 -0.2329
  134DG     H16 3075   4.477   2.006   1.169  0.1054 -2.2089 -0.7369
  134DG     C17 3076   4.257   2.075   1.509 -0.0914 -0.7535  0.2944
  134DG     C18 3077   4.301   2.086   1.267  0.3920 -0.3620 -0.1159
  134DG     O19 3078   4.340   2.032   1.392 -0.2696 -0.3426 -0.9461
  134DG     H20 3079   4.278   2.182   1.511 -2.2600 -0.2900  1.8888
  134DG     H21 3080   4.151   2.052   1.502 -0.1313 -0.4708 -0.0544
  134DG     H22 3081   4.324   2.193   1.266 -0.3753 -0.1829  0.7245
  134DG     H23 3082   4.195   2.075   1.245 -0.2212  2.1957  1.2058
  135DG      C1 3083   4.712   1.944   2.636 -0.5753  0.1851 -0.4107
  135DG      C2 3084   4.321   2.142   2.518  0.5036 -0.2750 -0.0076
  135DG      H3 3085   4.734   2.014   2.717 -0.0311  1.3559 -1.5269
  135DG      H4 3086   4.684   1.848   2.679  0.5575 -0.5464 -1.2377
  135DG      H5 3087   4.626   1.977   2.579 -0.1368 -1.7424 -2.3400
  135DG      H6 3088   4.359   2.183   2.612 -0.2734  2.7616 -0.9029
  135DG      H7 3089   4.264   2.229   2.483 -1.9708 -1.4775  0.8137
  135DG      H8 3090   4.232   2.079   2.526  0.2954 -0.1181 -1.0136
  135DG      O9 3091   4.825   1.919   2.554 -0.0300  0.3345 -0.4931
  135DG     O10 3092   4.425   2.106   2.431  0.2510  0.7585  0.6857
  135DG     C11 3093   4.816   1.815   2.455 -0.1517 -0.8395  0.2418
  135DG     C12 3094   4.394   2.006   2.335 -0.0811 -0.1718  0.0091
  135DG     H13 3095   4.764   1.729   2.496 -1.6854 -1.6536 -3.0926
  135DG     H14 3096   4.912   1.778   2.420 -0.7452 -0.1153 -2.3953
  135DG     H15 3097   4.326   2.049   2.261  0.4204  0.2294 -0.2148
  135DG     H16 3098   4.348   1.919   2.383 -0.6917 -1.2428 -2.3421
  135DG     C17 3099   4.731   1.863   2.332  0.4603 -0.7100  0.6813
  135DG     C18 3100   4.518   1.949   2.261  0.4610 -0.7416  0.3186
  135DG     O19 3101   4.594   1.893   2.364  0.0541  1.3017  0.3643
  135DG     H20 3102   4.721   1.781   2.261 -1.8070  1.5757 -1.8546
  135DG     H21 3103   4.782   1.946   2.284 -0.7190  0.0628  0.7212
  135DG     H22 3104   4.491   1.872   2.189  0.5363  0.3132 -0.8785
  135DG     H23 3105   4.579   2.028   2.215 -1.8665  0.1289 -1.4655
  136DG      C1 3106   1.897   4.342   2.685  0.0041 -0.1590 -0.9166
  136DG      C2 3107   1.842   4.997   2.558 -1.3698 -0.0578  0.3438
  136DG      H3 3108   1.794   4.357   2.718  0.1530 -1.2377  0.0953
  136DG      H4 3109   1.936   4.257   2.740 -0.6946  2.0342  3.3449
  136DG      H5 3110   1.888   4.333   2.576 -3.7614  0.0793 -0.7707
  136DG      H6 3111   1.859   5.098   2.597  1.4720  0.0017 -0.7970
  136DG      H7 3112   1.861   5.000   2.451 -3.2450  2.4448  0.0024
  136DG      H8 3113   1.739   4.961   2.564 -1.3350 -0.6903 -1.8915
  136DG      O9 3114   1.983   4.448   2.706 -0.3126 -0.4467 -0.0632
  136DG     O10 3115   1.919   4.906   2.623 -1.2496  0.6855  0.2273
  136DG     C11 3116   2.003   4.466   2.846 -0.0306  0.7804  0.2872
  136DG     C12 3117   1.934   4.917   2.767 -0.3124 -0.6795 -0.5328
  136DG     H13 3118   2.056   4.374   2.873 -0.1528  0.3990 -0.7060
  136DG     H14 3119   1.903   4.467   2.888 -1.2671  0.6740 -2.4266
  136DG     H15 3120   1.839   4.892   2.813  0.2830 -1.8924  0.0833
  136DG     H16 3121   1.977   5.016   2.782  0.6853 -0.9491 -1.4628
  136DG     C17 3122   2.077   4.598   2.875  0.2268 -0.1107 -0.0556
  136DG     C18 3123   2.039   4.821   2.818  0.3029  0.0851 -0.1343
  136DG     O19 3124   1.990   4.688   2.814 -0.5384  0.0569 -0.1270
  136DG     H20 3125   2.172   4.609   2.822 -0.8761  1.1792 -1.8800
  136DG     H21 3126   2.085   4.615   2.983 -2.0447  0.8507  0.0013
  136DG     H22 3127   2.132   4.832   2.762  0.3713  0.0044 -0.0368
  136DG     H23 3128   2.065   4.846   2.921  3.2755  0.7424 -0.9553
  137DG      C1 3129   3.653   1.866   3.266  0.5115  0.2100  0.1235
  137DG      C2 3130   3.474   1.847   3.889 -0.7233  0.4089 -0.3943
  137DG      H3 3131   3.678   1.959   3.317  1.1192  0.4612 -0.6237
  137DG      H4 3132   3.553   1.888   3.228  1.3622  1.3992 -1.4898
  137DG      H5 3133   3.717   1.849   3.180  1.8230 -0.5340  1.1968
  137DG      H6 3134   3.382   1.896   3.860  0.0405  2.5381  0.5780
  137DG      H7 3135   3.469   1.830   3.996  1.7639  0.8816 -0.1283
  137DG      H8 3136   3.560   1.913   3.875 -0.4776  0.4759  1.2770
  137DG      O9 3137   3.668   1.764   3.360  0.6030  0.4408 -0.4556
  137DG     O10 3138   3.493   1.717   3.835 -0.2906 -0.0093 -0.6432
  137DG     C11 3139   3.635   1.635   3.311  0.0222 -0.8962  0.4575
  137DG     C12 3140   3.492   1.710   3.692  0.1443  0.0812 -0.6721
  137DG     H13 3141   3.702   1.592   3.236 -2.4792  1.3336 -3.3782
  137DG     H14 3142   3.537   1.641   3.263  0.2979 -2.2179 -0.3490
  137DG     H15 3143   3.573   1.772   3.654  1.2583 -0.9469 -0.0618
  137DG     H16 3144   3.400   1.745   3.645  0.4888  1.2862 -0.4894
  137DG     C17 3145   3.634   1.544   3.430 -0.0183  0.2586  0.0248
  137DG     C18 3146   3.534   1.566   3.643 -0.3181 -0.1414 -0.1132
  137DG     O19 3147   3.516   1.575   3.503 -0.0148 -0.3469 -0.2041
  137DG     H20 3148   3.728   1.557   3.483  0.6030  1.2932 -1.2606
  137DG     H21 3149   3.637   1.439   3.399  0.7715 -0.0276  1.0342
  137DG     H22 3150   3.637   1.546   3.673 -0.5601 -0.1486  0.7144
  137DG     H23 3151   3.470   1.488   3.684  1.3203 -1.9505 -0.8246
  138DG      C1 3152   3.566   1.304   2.351  0.3593  0.5726  0.1765
  138DG      C2 3153   4.094   1.677   2.211  0.3590 -0.0725 -0.0574
  138DG      H3 3154   3.499   1.256   2.421  0.4792 -0.9940 -0.7526
  138DG      H4 3155   3.620   1.216   2.318  0.3605  0.6520 -0.0376
  138DG      H5 3156   3.492   1.343   2.281 -0.4022  1.5671  1.4890
  138DG      H6 3157   4.185   1.619   2.228  0.6575  0.7896  1.5612
  138DG      H7 3158   4.059   1.654   2.111  0.2526 -3.1251  0.5794
  138DG      H8 3159   4.122   1.782   2.219  0.4103  0.1894 -2.9157
  138DG      O9 3160   3.652   1.397   2.417  0.3852 -0.2792 -0.0904
  138DG     O10 3161   3.991   1.652   2.311  0.2261 -0.4278 -0.3783
  138DG     C11 3162   3.719   1.340   2.533  0.2870  0.3731 -0.4877
  138DG     C12 3163   4.036   1.673   2.443 -0.0922 -0.0579  0.4206
  138DG     H13 3164   3.797   1.269   2.504 -0.4741 -1.9124  2.5215
  138DG     H14 3165   3.658   1.283   2.603  0.6011 -0.5055 -0.9096
  138DG     H15 3166   4.065   1.777   2.457 -3.0530  0.9718 -0.2843
  138DG     H16 3167   4.124   1.609   2.455 -1.6492 -2.1279  1.4514
  138DG     C17 3168   3.803   1.454   2.606  0.8989 -0.5782  0.2888
  138DG     C18 3169   3.928   1.635   2.549 -0.3617 -0.3274  0.6356
  138DG     O19 3170   3.887   1.510   2.504 -0.2737  0.3761 -0.7044
  138DG     H20 3171   3.870   1.417   2.683 -0.7047 -0.1882  1.9520
  138DG     H21 3172   3.742   1.530   2.656  2.3747  0.0305  1.2204
  138DG     H22 3173   3.973   1.629   2.648 -1.1590  0.2035  1.0443
  138DG     H23 3174   3.847   1.707   2.540 -0.2620 -0.3906 -1.0765
  139DG      C1 3175   0.298   2.170   5.334  0.3697  0.6285 -0.7711
  139DG      C2 3176   0.276   2.195   4.661  0.2571 -0.6099 -0.0854
  139DG      H3 3177   0.227   2.140   5.411  0.6942 -1.0698 -1.0803
  139DG      H4 3178   0.370   2.234   5.384  0.3056 -0.1038  0.2793
  139DG      H5 3179   0.344   2.081   5.290  1.5067 -0.4515  2.3750
  139DG      H6 3180   0.338   2.106   4.672  1.3235  0.2604  1.2869
  139DG      H7 3181   0.221   2.170   4.571  1.5325  0.8451 -1.3287
  139DG      H8 3182   0.344   2.277   4.637 -2.7471  1.0992 -3.7542
  139DG      O9 3183   0.229   2.234   5.226 -0.1609  0.5565  0.1727
  139DG     O10 3184   0.207   2.216   4.780  0.3910 -0.2393  0.5533
  139DG     C11 3185   0.197   2.369   5.241  0.9478  0.6088  0.2265
  139DG     C12 3186   0.126   2.332   4.766  0.0289  0.2897 -0.4807
  139DG     H13 3187   0.285   2.433   5.231  1.7661 -0.4708  0.2423
  139DG     H14 3188   0.141   2.386   5.332  0.8364 -1.2881  0.5580
  139DG     H15 3189   0.054   2.331   4.685 -2.1004 -1.5320  1.3329
  139DG     H16 3190   0.178   2.426   4.747 -1.8067  1.9770  2.0947
  139DG     C17 3191   0.093   2.391   5.124 -0.0334 -0.6231  0.5415
  139DG     C18 3192   0.045   2.356   4.896  0.0107 -0.3981  0.0101
  139DG     O19 3193   0.144   2.348   5.001 -0.4573  0.1042  0.4633
  139DG     H20 3194   0.065   2.496   5.114  2.2313 -0.1123 -1.0492
  139DG     H21 3195  -0.001   2.342   5.151  0.1633 -0.7031  1.1081
  139DG     H22 3196  -0.006   2.452   4.894 -0.6353 -0.7410 -0.3329
  139DG     H23 3197  -0.040   2.294   4.928 -0.3867  0.5754  0.9113
  140DG      C1 3198   0.807   4.249   5.366 -0.5575  0.4070 -0.0242
  140DG      C2 3199   0.588   3.679   5.112 -0.4365  0.5069 -0.1952
  140DG      H3 3200   0.700   4.266   5.358 -0.4877  1.0020  0.2939
  140DG      H4 3201   0.871   4.314   5.306  0.7336 -0.7143  0.0828
  140DG      H5 3202   0.831   4.271   5.470 -2.0348  0.1691  0.3809
  140DG      H6 3203   0.588   3.771   5.169 -2.5484  0.4917 -0.0825
  140DG      H7 3204   0.578   3.708   5.007  2.0932 -0.5893 -0.8155
  140DG      H8 3205   0.500   3.616   5.129  0.3747 -1.4339 -2.4910
  140DG      O9 3206   0.839   4.120   5.329 -0.1427  0.0902  0.3226
  140DG     O10 3207   0.706   3.613   5.121  0.7240  0.3787  0.0103
  140DG     C11 3208   0.776   4.024   5.421  1.0382  0.7534  0.1504
  140DG     C12 3209   0.823   3.682   5.083  0.2327 -0.2028 -0.2527
  140DG     H13 3210   0.668   4.018   5.404  0.9928  2.2980 -0.2501
  140DG     H14 3211   0.795   4.053   5.524 -2.5088  1.4489  0.7427
  140DG     H15 3212   0.808   3.762   5.011 -1.7300 -0.6238 -0.3596
  140DG     H16 3213   0.887   3.609   5.032 -0.2154 -1.3752  0.7891
  140DG     C17 3214   0.833   3.885   5.384  0.1840  1.2428  0.3047
  140DG     C18 3215   0.901   3.744   5.201  0.2810  0.2629  0.0277
  140DG     O19 3216   0.822   3.849   5.246  0.4539 -0.3480 -0.1429
  140DG     H20 3217   0.790   3.803   5.441  4.0755 -0.1822  1.5338
  140DG     H21 3218   0.934   3.894   5.425 -1.2563  2.2823  4.0975
  140DG     H22 3219   0.909   3.673   5.284 -2.1311  2.1073  2.0343
  140DG     H23 3220   0.994   3.795   5.177  0.0357  0.7906  0.1612
  141DG      C1 3221   3.244   2.641   0.645 -0.1226 -0.1229 -0.4396
  141DG      C2 3222   3.848   2.994   0.660 -0.2104  0.3760  0.8377
  141DG      H3 3223   3.285   2.568   0.576 -2.0491 -1.6092 -0.1190
  141DG      H4 3224   3.226   2.735   0.592  0.8080  0.0241 -0.5016
  141DG      H5 3225   3.150   2.605   0.687  0.2802 -1.8751 -0.9853
  141DG      H6 3226   3.868   2.980   0.554 -1.8258  0.9411  0.4321
  141DG      H7 3227   3.928   3.065   0.684  0.3215 -0.1844  0.7466
  141DG      H8 3228   3.873   2.903   0.715  0.1356  1.4002  2.4629
  141DG      O9 3229   3.345   2.672   0.742 -0.2982 -0.5980  0.2695
  141DG     O10 3230   3.717   3.040   0.691  0.7099 -0.6391 -0.4790
  141DG     C11 3231   3.311   2.780   0.836 -0.1347  0.4659  0.4873
  141DG     C12 3232   3.691   3.083   0.818 -0.6505 -0.0826 -0.6236
  141DG     H13 3233   3.225   2.761   0.899 -2.3504  1.7904 -1.9248
  141DG     H14 3234   3.270   2.857   0.770 -2.7294 -0.6174  0.7485
  141DG     H15 3235   3.625   3.169   0.809 -1.7108 -0.8641 -0.4346
  141DG     H16 3236   3.783   3.120   0.864 -0.4707  0.5045 -1.4277
  141DG     C17 3237   3.437   2.826   0.909 -0.6679  0.7899 -0.0330
  141DG     C18 3238   3.622   2.970   0.897 -0.4838 -0.1497  0.1769
  141DG     O19 3239   3.507   2.923   0.831  0.0928 -0.2085  0.3089
  141DG     H20 3240   3.500   2.738   0.918  0.7063  1.7377 -0.0473
  141DG     H21 3241   3.405   2.882   0.996 -1.4067 -0.0231  0.2305
  141DG     H22 3242   3.695   2.890   0.908  0.0240 -0.0117 -1.8169
  141DG     H23 3243   3.602   3.007   0.997 -0.7212 -0.7161  0.3404
  142DG      C1 3244   4.430   2.746   5.413  0.5054  0.5090  0.1831
  142DG      C2 3245   4.751   2.640   4.767 -0.0925  0.4739 -0.2604
  142DG      H3 3246   4.495   2.697   5.486  1.3108  0.1411 -0.7480
  142DG      H4 3247   4.341   2.767   5.471  0.2181  0.4720 -0.2415
  142DG      H5 3248   4.464   2.847   5.387  1.3685  0.0679 -0.4567
  142DG      H6 3249   4.758   2.583   4.674  0.6297 -1.2895  0.8313
  142DG      H7 3250   4.758   2.746   4.741  1.8813  0.7197  1.0237
  142DG      H8 3251   4.841   2.624   4.827  0.7027  0.7085 -1.3425
  142DG      O9 3252   4.418   2.687   5.282  0.1714  1.2401 -0.3995
  142DG     O10 3253   4.634   2.613   4.847  0.5210  0.2461  0.4109
  142DG     C11 3254   4.369   2.553   5.286 -0.3616 -0.1313 -0.0234
  142DG     C12 3255   4.623   2.475   4.882  0.5418  0.7692  0.0139
  142DG     H13 3256   4.279   2.541   5.347 -0.6272  0.8295 -0.2241
  142DG     H14 3257   4.453   2.500   5.330  1.8967  1.0111 -2.6792
  142DG     H15 3258   4.705   2.444   4.946 -0.6792  0.0181  1.2798
  142DG     H16 3259   4.619   2.412   4.793 -1.5199  0.3836  0.3265
  142DG     C17 3260   4.346   2.495   5.146 -0.8596 -0.3484 -0.1493
  142DG     C18 3261   4.484   2.442   4.951 -0.3573 -0.3688 -0.8167
  142DG     O19 3262   4.471   2.519   5.067 -0.1343 -0.4266  0.0671
  142DG     H20 3263   4.258   2.549   5.113 -1.9804 -0.9803  1.6648
  142DG     H21 3264   4.318   2.390   5.156  2.2198 -1.1653  1.2792
  142DG     H22 3265   4.405   2.469   4.881  0.6874  1.3495 -1.4024
  142DG     H23 3266   4.493   2.337   4.979  0.1837  0.3734  2.1404
  143DG      C1 3267   2.720   4.788   4.147  0.5977 -0.4449  0.5860
  143DG      C2 3268   3.012   4.165   4.059  0.2627  0.2386  0.0478
  143DG      H3 3269   2.733   4.890   4.111  0.5012 -1.0540 -1.2978
  143DG      H4 3270   2.776   4.775   4.239  1.2335 -0.5368  0.1940
  143DG      H5 3271   2.612   4.786   4.164  0.2329  0.4456 -1.3680
  143DG      H6 3272   3.098   4.172   4.125  1.5638 -0.6016 -1.4903
  143DG      H7 3273   2.924   4.147   4.121 -1.5115  0.9919 -2.0819
  143DG      H8 3274   3.026   4.072   4.004 -1.9245  0.8746 -1.7744
  143DG      O9 3275   2.767   4.690   4.055  0.3001  0.7500  0.8047
  143DG     O10 3276   2.993   4.277   3.976 -0.0084 -0.0939 -0.1653
  143DG     C11 3277   2.716   4.714   3.926  0.5807 -0.6008  0.3177
  143DG     C12 3278   2.885   4.266   3.881  0.0302 -0.3461 -0.3941
  143DG     H13 3279   2.732   4.815   3.889  0.5421 -0.8886 -0.5042
  143DG     H14 3280   2.608   4.716   3.940  0.4995  3.3103  0.2545
  143DG     H15 3281   2.792   4.218   3.911 -1.1172  0.8320 -1.8858
  143DG     H16 3282   2.919   4.196   3.805 -0.8527 -0.5225 -0.6425
  143DG     C17 3283   2.760   4.616   3.822 -0.1102 -0.1065  0.2110
  143DG     C18 3284   2.855   4.400   3.805  0.2130  0.5590  0.2911
  143DG     O19 3285   2.803   4.499   3.895  0.0703  0.7038  0.1392
  143DG     H20 3286   2.846   4.654   3.768  1.0241 -3.3049 -0.4708
  143DG     H21 3287   2.684   4.592   3.748 -1.8851 -0.9268  2.1625
  143DG     H22 3288   2.948   4.429   3.757  0.9341  0.3651  1.5508
  143DG     H23 3289   2.777   4.389   3.729  1.6213 -0.6800 -1.0533
  144DG      C1 3290   4.281   3.354   2.330  0.0849 -0.3986  0.0644
  144DG      C2 3291   4.198   2.672   2.482  0.2893 -0.0270 -0.8380
  144DG      H3 3292   4.325   3.383   2.235 -4.0844 -0.1189 -2.0392
  144DG      H4 3293   4.295   3.447   2.385  1.9338 -0.8541  0.4078
  144DG      H5 3294   4.176   3.344   2.300  0.6193 -0.5113 -1.9094
  144DG      H6 3295   4.092   2.695   2.470 -0.3452 -2.1067  0.3551
  144DG      H7 3296   4.235   2.639   2.385  1.7631 -1.5325  0.1893
  144DG      H8 3297   4.206   2.593   2.556  0.2851  0.7115 -0.0283
  144DG      O9 3298   4.341   3.239   2.386  0.2625 -0.0096  0.4121
  144DG     O10 3299   4.254   2.790   2.539 -0.0662 -1.0716 -0.0969
  144DG     C11 3300   4.483   3.236   2.399 -0.8581  0.1575  0.2252
  144DG     C12 3301   4.401   2.788   2.558  0.1718  0.9195  0.2460
  144DG     H13 3302   4.519   3.338   2.413 -1.1286  0.4927 -1.3150
  144DG     H14 3303   4.524   3.218   2.299 -0.0325  1.0452  0.3971
  144DG     H15 3304   4.450   2.751   2.468 -1.0175 -2.0742  0.7214
  144DG     H16 3305   4.427   2.717   2.635 -0.2939  0.7461  0.2476
  144DG     C17 3306   4.527   3.136   2.502 -0.6909 -0.7537 -0.2882
  144DG     C18 3307   4.462   2.924   2.591  0.6484 -0.5102 -0.3046
  144DG     O19 3308   4.457   3.013   2.477 -0.2179 -0.6707  0.0122
  144DG     H20 3309   4.506   3.187   2.596  1.8097  1.4777 -0.8105
  144DG     H21 3310   4.634   3.119   2.516 -0.6096 -0.1361 -0.1225
  144DG     H22 3311   4.420   2.970   2.680 -0.4896  0.4737 -1.3169
  144DG     H23 3312   4.563   2.897   2.619  0.6808  0.7566  0.8497
  145DG      C1 3313   0.838   4.670   4.629 -0.2354 -0.0004 -0.1977
  145DG      C2 3314   1.354   5.029   4.845  0.3842 -0.5035  0.1206
  145DG      H3 3315   0.795   4.664   4.729  0.2524 -1.6747 -0.0555
  145DG      H4 3316   0.796   4.577   4.591  0.3758 -0.6348  0.6412
  145DG      H5 3317   0.802   4.757   4.574 -1.9500 -1.1420 -0.9852
  145DG      H6 3318   1.457   5.061   4.859 -0.4533  2.4261  0.0659
  145DG      H7 3319   1.295   5.099   4.786 -1.8438  0.4222  3.1701
  145DG      H8 3320   1.305   5.023   4.943  2.5452 -1.8934  1.2041
  145DG      O9 3321   0.980   4.653   4.640 -0.2830 -0.0725  0.1386
  145DG     O10 3322   1.352   4.895   4.782  0.0642  0.4817  0.4590
  145DG     C11 3323   1.046   4.594   4.533 -0.0633  0.1111  0.7081
  145DG     C12 3324   1.399   4.899   4.650  0.2907  0.0422 -0.1091
  145DG     H13 3325   0.998   4.626   4.441 -0.7137 -0.7869  0.7199
  145DG     H14 3326   1.009   4.492   4.529 -1.4252  0.6313 -0.6276
  145DG     H15 3327   1.504   4.928   4.647 -0.1790  1.8970  0.0069
  145DG     H16 3328   1.341   4.974   4.596 -2.5644 -1.7386  0.2713
  145DG     C17 3329   1.196   4.610   4.529  0.1284  0.0840  0.7091
  145DG     C18 3330   1.372   4.760   4.589  0.0300  0.6434 -0.4138
  145DG     O19 3331   1.237   4.743   4.570 -0.1065  0.2012  0.7600
  145DG     H20 3332   1.232   4.576   4.432 -2.0181 -0.2203 -0.0406
  145DG     H21 3333   1.231   4.540   4.605  0.6655  0.5841  0.9219
  145DG     H22 3334   1.421   4.749   4.492  0.5337  0.0512 -0.1025
  145DG     H23 3335   1.410   4.687   4.661 -2.7420  1.4764  2.1005
  146DG      C1 3336   4.337   0.724   4.035 -0.8957  0.0417  0.1805
  146DG      C2 3337   4.933   0.672   4.245 -0.0633  0.0861 -0.4878
  146DG      H3 3338   4.261   0.646   4.038  0.1356 -0.9708  0.6305
  146DG      H4 3339   4.409   0.710   3.955  0.4961  0.4767  1.3018
  146DG      H5 3340   4.285   0.813   3.999 -0.9330 -0.7698 -1.8630
  146DG      H6 3341   4.955   0.593   4.317  0.0637 -0.1287 -0.7641
  146DG      H7 3342   4.932   0.623   4.148  1.7055 -1.6675  0.3041
  146DG      H8 3343   5.000   0.757   4.241 -2.0951  1.9213  1.5011
  146DG      O9 3344   4.417   0.736   4.155  0.3663  0.2201  0.0866
  146DG     O10 3345   4.801   0.716   4.284 -0.3875  0.1274  0.2940
  146DG     C11 3346   4.342   0.783   4.264 -0.3898 -0.2644  0.0859
  146DG     C12 3347   4.791   0.757   4.420  0.6309 -0.3818  0.2371
  146DG     H13 3348   4.250   0.726   4.266  0.3640 -1.7475 -2.5361
  146DG     H14 3349   4.320   0.889   4.250  0.5955 -0.2229 -1.4639
  146DG     H15 3350   4.811   0.862   4.440  0.1046 -0.2835  0.2814
  146DG     H16 3351   4.852   0.690   4.480  1.3233  0.5271  0.5555
  146DG     C17 3352   4.424   0.745   4.385 -0.1759  0.6275 -0.4656
  146DG     C18 3353   4.649   0.743   4.464 -0.2841  0.3590 -0.5150
  146DG     O19 3354   4.560   0.787   4.365 -0.5804  0.9597 -0.5197
  146DG     H20 3355   4.427   0.637   4.397 -0.0732  0.7292  0.4844
  146DG     H21 3356   4.389   0.787   4.479 -1.2097  0.5208 -0.7981
  146DG     H22 3357   4.630   0.639   4.488 -1.8271  0.8598  0.6450
  146DG     H23 3358   4.638   0.790   4.562 -0.8911 -0.2960 -0.2611
  147DG      C1 3359   4.823   0.015   2.952  0.7897 -0.1595 -0.1995
  147DG      C2 3360   4.757   0.444   3.283 -0.2040  0.2929 -0.2453
  147DG      H3 3361   4.721   0.049   2.932  2.1543  2.4314 -3.7127
  147DG      H4 3362   4.858  -0.065   2.888  1.8953 -1.1992  1.6159
  147DG      H5 3363   4.889   0.098   2.926  0.2128 -0.7330 -3.9645
  147DG      H6 3364   4.851   0.459   3.336 -1.0397 -0.4883  1.5440
  147DG      H7 3365   4.746   0.511   3.198  2.4772  0.3072 -0.6531
  147DG      H8 3366   4.673   0.469   3.348 -1.7940 -2.1076 -1.2360
  147DG      O9 3367   4.857  -0.026   3.087 -0.5389  0.5318 -0.6523
  147DG     O10 3368   4.750   0.308   3.237 -0.3684  0.0543 -0.1605
  147DG     C11 3369   4.769  -0.123   3.140 -0.4843 -0.5195  0.7356
  147DG     C12 3370   4.620   0.260   3.202  0.3623 -0.7098 -0.4533
  147DG     H13 3371   4.820  -0.174   3.221  2.0183  1.7943  0.7124
  147DG     H14 3372   4.744  -0.198   3.064  0.5593 -0.5817  0.4348
  147DG     H15 3373   4.622   0.211   3.104  2.2946 -1.3569 -0.1323
  147DG     H16 3374   4.555   0.347   3.194  1.7844  0.3000 -1.6568
  147DG     C17 3375   4.644  -0.059   3.204 -0.1699  0.2038  0.9304
  147DG     C18 3376   4.581   0.148   3.301 -0.0339 -0.4632 -0.6463
  147DG     O19 3377   4.685   0.050   3.284  0.9622  0.2298 -0.0957
  147DG     H20 3378   4.570  -0.117   3.259 -0.7058 -1.7838 -1.7466
  147DG     H21 3379   4.576  -0.036   3.122 -0.1193  0.3799  0.9371
  147DG     H22 3380   4.590   0.189   3.401  2.6863  1.2126 -1.4793
  147DG     H23 3381   4.475   0.123   3.294 -0.7024  1.4601  1.2646
  148DG      C1 3382   3.926   1.268   2.179  0.1389 -0.1247 -0.2255
  148DG      C2 3383   3.504   1.680   2.392 -0.8758 -0.0779  0.4690
  148DG      H3 3384   3.866   1.177   2.183  1.7444 -1.2030  0.1140
  148DG      H4 3385   3.975   1.277   2.276  0.4659  0.5700 -0.4426
  148DG      H5 3386   4.009   1.256   2.109  0.5101  0.5951  0.0822
  148DG      H6 3387   3.428   1.759   2.392 -2.3152 -1.4251  0.9385
  148DG      H7 3388   3.467   1.594   2.447 -0.3272  0.5229  1.8629
  148DG      H8 3389   3.578   1.712   2.466 -0.6038 -1.2280  0.7021
  148DG      O9 3390   3.850   1.381   2.127 -0.1098  0.2601 -0.4375
  148DG     O10 3391   3.553   1.657   2.266 -0.1839 -0.3201  0.2884
  148DG     C11 3392   3.789   1.373   1.995 -0.0128  0.4297 -0.3044
  148DG     C12 3393   3.446   1.620   2.175  0.8539 -1.0898  0.4071
  148DG     H13 3394   3.732   1.280   1.988 -0.3689  0.4167  1.9942
  148DG     H14 3395   3.866   1.354   1.921 -0.6037  1.1437 -1.1183
  148DG     H15 3396   3.367   1.695   2.174 -1.6905 -3.5539  0.0555
  148DG     H16 3397   3.392   1.529   2.202  1.3750 -1.2055  1.0851
  148DG     C17 3398   3.710   1.499   1.962 -0.0755 -0.1081  0.1567
  148DG     C18 3399   3.520   1.605   2.043  0.5797 -0.4274 -0.3950
  148DG     O19 3400   3.612   1.501   2.062  0.5239 -0.3074  0.1274
  148DG     H20 3401   3.672   1.500   1.860  1.9475 -0.9133 -0.6465
  148DG     H21 3402   3.774   1.587   1.966  0.4172 -0.3996 -1.0094
  148DG     H22 3403   3.444   1.589   1.966 -0.4904 -1.3720  0.8211
  148DG     H23 3404   3.573   1.693   2.007  0.6551 -0.8976 -1.4581
  149DG      C1 3405   5.459   3.488   0.575 -0.2132 -1.0363  0.6831
  149DG      C2 3406   5.975   2.983   0.489  0.2072  0.2264 -1.0093
  149DG      H3 3407   5.467   3.592   0.608  0.2750 -0.9971  0.4581
  149DG      H4 3408   5.379   3.436   0.627 -1.5476  1.1707  0.9666
  149DG      H5 3409   5.449   3.487   0.466 -1.4512 -0.3550  0.7706
  149DG      H6 3410   6.018   2.882   0.491  3.0226  1.2585 -2.5823
  149DG      H7 3411   5.931   3.002   0.391 -1.3023 -0.1759 -0.4341
  149DG      H8 3412   6.056   3.052   0.513 -0.6857  0.5589  1.3009
  149DG      O9 3413   5.587   3.423   0.599  0.1428  0.2816 -0.2226
  149DG     O10 3414   5.858   2.982   0.564 -0.1362 -0.7402  0.0018
  149DG     C11 3415   5.633   3.426   0.728 -0.0157  0.1154  0.2048
  149DG     C12 3416   5.890   3.007   0.700  0.0472  0.2090  0.2526
  149DG     H13 3417   5.555   3.379   0.788 -0.3377 -1.8208 -1.6117
  149DG     H14 3418   5.644   3.529   0.762 -0.3628 -0.3720  1.8974
  149DG     H15 3419   5.977   2.954   0.739 -0.7629  0.0819  1.9776
  149DG     H16 3420   5.814   2.969   0.769 -0.1263 -0.6047 -0.3822
  149DG     C17 3421   5.767   3.351   0.753 -0.0276  0.6487  1.1229
  149DG     C18 3422   5.896   3.158   0.739  0.4992 -0.5155  0.0358
  149DG     O19 3423   5.781   3.221   0.686  0.6048  0.0083  0.4157
  149DG     H20 3424   5.771   3.326   0.859 -1.5125 -1.5513  0.7256
  149DG     H21 3425   5.850   3.415   0.723  0.3802 -0.4049 -0.1324
  149DG     H22 3426   5.901   3.163   0.848  1.0631  3.7708 -0.0452
  149DG     H23 3427   5.993   3.204   0.725  0.1868  0.3178  0.5654
  150DG      C1 3428   3.925   4.728   5.288  0.2856  1.1032  0.5509
  150DG      C2 3429   3.762   5.377   5.472 -0.0662  0.1596  0.2036
  150DG      H3 3430   3.935   4.662   5.202 -3.2020  3.1295 -1.6494
  150DG      H4 3431   3.842   4.700   5.353  1.1204  1.8487  1.9984
  150DG      H5 3432   4.014   4.732   5.350 -0.4195  0.1126  1.6699
  150DG      H6 3433   3.655   5.400   5.473 -0.0718  0.1754  1.7635
  150DG      H7 3434   3.779   5.343   5.574  1.1415  0.1099 -0.0064
  150DG      H8 3435   3.802   5.479   5.468 -0.7501  0.3945 -1.8493
  150DG      O9 3436   3.917   4.860   5.228 -0.0419 -0.7498  0.5466
  150DG     O10 3437   3.813   5.296   5.368  0.4156 -0.9277  0.2942
  150DG     C11 3438   3.795   4.876   5.152  0.6742  0.1682 -0.3094
  150DG     C12 3439   3.779   5.340   5.242  0.3220  0.4291  0.0848
  150DG     H13 3440   3.711   4.863   5.220  1.8365 -1.5653  0.8816
  150DG     H14 3441   3.791   4.797   5.078  1.7529 -0.6772  0.5108
  150DG     H15 3442   3.808   5.445   5.230  1.7193  0.0839  0.2914
  150DG     H16 3443   3.671   5.336   5.235  0.4534  0.4338 -2.7183
  150DG     C17 3444   3.801   5.020   5.085 -0.3621  0.3756  0.1540
  150DG     C18 3445   3.849   5.257   5.132  0.5402 -0.2293 -0.5225
  150DG     O19 3446   3.852   5.115   5.173 -0.1221 -0.2082 -0.1872
  150DG     H20 3447   3.699   5.044   5.056 -0.2170 -0.8832 -1.5325
  150DG     H21 3448   3.864   5.021   4.996  1.6305  1.0230  1.5079
  150DG     H22 3449   3.814   5.275   5.031 -0.3200  0.7767 -0.0583
  150DG     H23 3450   3.955   5.282   5.127  0.7458 -0.9865 -0.2432
  151DG      C1 3451   0.937   2.437   1.834 -0.1602 -0.7329 -0.1030
  151DG      C2 3452   0.350   2.098   1.627  0.3687  0.4315  0.5946
  151DG      H3 3453   0.967   2.541   1.845  3.1975 -1.2115 -2.7536
  151DG      H4 3454   1.023   2.372   1.817 -1.9128 -3.4358  0.7403
  151DG      H5 3455   0.884   2.400   1.922  0.2961 -1.7204 -0.2263
  151DG      H6 3456   0.297   2.106   1.722 -3.5155  0.6921 -1.4067
  151DG      H7 3457   0.260   2.083   1.568 -0.0087 -1.1048  1.5219
  151DG      H8 3458   0.414   2.010   1.623  0.7582  0.7603 -1.7790
  151DG      O9 3459   0.839   2.409   1.736 -0.3216  0.5392  0.5974
  151DG     O10 3460   0.416   2.213   1.587  0.0060  0.0142  0.0942
  151DG     C11 3461   0.855   2.458   1.601 -0.4290 -0.0847 -0.1123
  151DG     C12 3462   0.473   2.207   1.464 -0.0279 -1.0640  0.4696
  151DG     H13 3463   0.931   2.408   1.541 -0.5164 -1.8476  1.1665
  151DG     H14 3464   0.871   2.566   1.604 -3.6990  0.4772  0.8244
  151DG     H15 3465   0.399   2.194   1.385 -0.7260  3.0538  0.2067
  151DG     H16 3466   0.556   2.137   1.453  1.4069  0.6700 -0.4574
  151DG     C17 3467   0.729   2.461   1.521  0.5048  0.0018  0.4091
  151DG     C18 3468   0.544   2.338   1.442 -0.2252 -0.0358  0.1802
  151DG     O19 3469   0.659   2.339   1.525  0.1567 -0.4297 -0.3569
  151DG     H20 3470   0.751   2.501   1.422  0.0235  2.3303  1.1764
  151DG     H21 3471   0.655   2.530   1.562  0.4583  1.8248 -2.4747
  151DG     H22 3472   0.579   2.363   1.342  1.1894  0.0143  0.6584
  151DG     H23 3473   0.481   2.420   1.475  0.8555  1.0257 -0.2846
  152DG      C1 3474   2.586   1.340   4.366 -0.1129  0.4284 -1.1851
  152DG      C2 3475   2.103   0.857   4.154  0.4866  0.1587  0.1691
  152DG      H3 3476   2.599   1.447   4.354  1.5411  0.1299 -2.2381
  152DG      H4 3477   2.677   1.281   4.375  0.7197  1.5562 -1.9673
  152DG      H5 3478   2.539   1.317   4.462 -0.6882 -0.2922 -1.6233
  152DG      H6 3479   2.151   0.807   4.239 -2.0841 -1.2574  0.8805
  152DG      H7 3480   2.007   0.892   4.191 -0.2994  0.3782 -1.9702
  152DG      H8 3481   2.084   0.788   4.072 -0.0639 -2.0482  2.0732
  152DG      O9 3482   2.508   1.287   4.259  0.7190  0.9167 -0.1680
  152DG     O10 3483   2.182   0.967   4.121 -0.4588 -0.3381  0.3269
  152DG     C11 3484   2.412   1.377   4.202  0.1583  0.0074 -0.5357
  152DG     C12 3485   2.135   1.048   4.012 -0.8579  0.2525  0.5299
  152DG     H13 3486   2.459   1.473   4.179  0.8143 -0.2259 -0.1815
  152DG     H14 3487   2.327   1.401   4.266  0.8127 -0.5815  0.5723
  152DG     H15 3488   2.055   1.108   4.056 -0.2426  0.3485  1.5710
  152DG     H16 3489   2.102   0.991   3.925 -1.1950  1.3342 -0.0662
  152DG     C17 3490   2.356   1.336   4.066 -0.1338 -0.4270  0.7221
  152DG     C18 3491   2.256   1.134   3.972 -0.9637 -0.0981  0.0429
  152DG     O19 3492   2.260   1.233   4.076 -0.3420 -0.1339 -0.1716
  152DG     H20 3493   2.442   1.291   4.017  0.6287  0.4437  1.2276
  152DG     H21 3494   2.313   1.421   4.013  1.7407  0.0111 -0.1697
  152DG     H22 3495   2.350   1.080   3.959 -0.2331  0.9878  0.6810
  152DG     H23 3496   2.245   1.178   3.872  0.4639 -0.1226 -0.1398
  153DG      C1 3497   3.877   3.690   2.977  0.1413 -0.7137  0.4465
  153DG      C2 3498   3.679   3.983   2.458 -0.0876 -0.8692 -0.2138
  153DG      H3 3499   3.887   3.610   3.050 -1.9676 -0.4776  1.0518
  153DG      H4 3500   3.797   3.760   3.002  1.2646  1.1224 -0.8275
  153DG      H5 3501   3.964   3.753   2.963 -0.8045  0.6419  0.4715
  153DG      H6 3502   3.574   4.008   2.446  0.3718  0.3913 -2.0953
  153DG      H7 3503   3.711   4.075   2.506  1.5503 -0.7106 -1.5336
  153DG      H8 3504   3.705   3.978   2.352 -1.4010  0.2710 -0.6229
  153DG      O9 3505   3.854   3.618   2.852  0.4452  0.0780 -0.1938
  153DG     O10 3506   3.697   3.864   2.537 -0.1186 -0.1363  0.5944
  153DG     C11 3507   3.728   3.548   2.841  0.4533  0.4616 -0.3286
  153DG     C12 3508   3.612   3.757   2.485  0.4583  0.7668  0.0903
  153DG     H13 3509   3.640   3.612   2.848  0.1030  0.0467 -0.8612
  153DG     H14 3510   3.715   3.474   2.920 -1.5855  1.6205  0.5149
  153DG     H15 3511   3.657   3.705   2.401  2.8710 -0.1906  1.8421
  153DG     H16 3512   3.514   3.799   2.462 -0.8348 -1.0474  1.8879
  153DG     C17 3513   3.720   3.483   2.700  0.0010  0.6104  0.4022
  153DG     C18 3514   3.590   3.647   2.584  0.1644 -0.2023  0.1093
  153DG     O19 3515   3.720   3.587   2.608  0.0505 -0.0735  0.9612
  153DG     H20 3516   3.628   3.427   2.682 -0.0480  0.8484 -0.1193
  153DG     H21 3517   3.796   3.411   2.671 -2.0792 -0.7183 -2.3455
  153DG     H22 3518   3.546   3.672   2.680 -1.0400  0.0429 -0.4875
  153DG     H23 3519   3.524   3.568   2.548  1.0746 -1.1998  0.5621
  154DG      C1 3520   3.455   4.729   1.000  0.4186 -0.5262 -0.6977
  154DG      C2 3521   3.528   4.825   1.526 -0.0503 -0.1060  0.3532
  154DG      H3 3522   3.479   4.801   0.922 -0.1272  0.6568  0.1792
  154DG      H4 3523   3.364   4.764   1.049  0.8428 -1.5334  0.8877
  154DG      H5 3524   3.425   4.638   0.948  2.5805 -0.3181 -2.4419
  154DG      H6 3525   3.539   4.808   1.633 -1.6188  0.0318  0.5555
  154DG      H7 3526   3.487   4.924   1.507 -0.9454 -0.4493  0.4507
  154DG      H8 3527   3.456   4.757   1.480 -0.3363  0.3474  0.1225
  154DG      O9 3528   3.548   4.705   1.100  0.1827 -0.3419 -0.2675
  154DG     O10 3529   3.645   4.820   1.453 -0.1480  0.5176 -0.0095
  154DG     C11 3530   3.672   4.660   1.056  0.0481  0.5303 -0.0057
  154DG     C12 3531   3.713   4.688   1.467 -0.3117 -0.3849 -0.8136
  154DG     H13 3532   3.723   4.746   1.013  1.7390 -0.7556 -0.6962
  154DG     H14 3533   3.663   4.577   0.986 -0.1351  1.7016 -1.4123
  154DG     H15 3534   3.647   4.605   1.440  0.3956 -1.9090  1.7245
  154DG     H16 3535   3.733   4.683   1.574 -0.1039  1.0249 -0.7713
  154DG     C17 3536   3.767   4.622   1.175 -0.4733 -0.8539 -0.1216
  154DG     C18 3537   3.842   4.697   1.388 -0.2100  0.2790  0.1880
  154DG     O19 3538   3.798   4.733   1.254 -0.8954 -0.4923 -0.1757
  154DG     H20 3539   3.858   4.581   1.131  0.3554  1.0549 -0.2847
  154DG     H21 3540   3.712   4.543   1.227  0.3530 -0.9688  0.5968
  154DG     H22 3541   3.911   4.774   1.422 -0.1953  0.7928 -0.9585
  154DG     H23 3542   3.896   4.602   1.390  0.0590  0.4338  0.2594
  155DG      C1 3543   5.190   5.188   4.655 -0.3547  0.1662 -0.5136
  155DG      C2 3544   4.977   5.892   4.607 -0.1448 -0.6397  0.4901
  155DG      H3 3545   5.231   5.233   4.745 -0.9819  1.3768 -0.8280
  155DG      H4 3546   5.266   5.115   4.626 -1.1252 -1.3256  1.0247
  155DG      H5 3547   5.101   5.136   4.689  0.9193  0.2228  3.4275
  155DG      H6 3548   5.029   5.950   4.683  2.2460  1.0558 -2.2220
  155DG      H7 3549   4.960   5.941   4.511 -0.7165  0.9408  1.3596
  155DG      H8 3550   4.881   5.879   4.656 -1.1593  1.6200 -0.7711
  155DG      O9 3551   5.155   5.291   4.565  0.7793 -0.0994  0.0606
  155DG     O10 3552   5.032   5.763   4.595  0.4519  0.3507 -0.5037
  155DG     C11 3553   5.267   5.343   4.500 -0.5060 -1.3560 -0.4595
  155DG     C12 3554   5.167   5.770   4.536 -0.1639  0.1507 -0.0212
  155DG     H13 3555   5.311   5.257   4.448 -0.2627 -1.2521 -0.4288
  155DG     H14 3556   5.337   5.378   4.576 -1.0624 -0.2613 -0.4325
  155DG     H15 3557   5.225   5.843   4.593  1.2722 -0.5520 -0.5300
  155DG     H16 3558   5.164   5.804   4.432 -1.8683 -1.0854 -0.4215
  155DG     C17 3559   5.228   5.451   4.392  0.6719 -0.3592 -0.5432
  155DG     C18 3560   5.242   5.641   4.537  0.1612 -0.5410 -0.4362
  155DG     O19 3561   5.161   5.555   4.455  0.3668 -0.3813 -0.9618
  155DG     H20 3562   5.147   5.422   4.325  1.4473  1.7024 -2.4959
  155DG     H21 3563   5.305   5.478   4.321  1.1876  1.0579  0.5134
  155DG     H22 3564   5.340   5.674   4.503  0.0289 -0.4089 -0.6901
  155DG     H23 3565   5.249   5.588   4.632  3.2327 -0.7866 -0.7205
  156DG      C1 3566   3.824   1.197   3.238  0.4890 -0.3678 -0.1915
  156DG      C2 3567   3.811   0.576   3.241 -0.1057  0.1471  0.0445
  156DG      H3 3568   3.840   1.175   3.343 -1.2702  1.2470  0.4713
  156DG      H4 3569   3.790   1.300   3.239 -1.3974 -0.8884  3.2892
  156DG      H5 3570   3.925   1.197   3.197  0.4994 -0.4555 -0.1673
  156DG      H6 3571   3.793   0.602   3.345 -3.3981 -0.3019 -0.3037
  156DG      H7 3572   3.747   0.491   3.216 -1.2196  0.4068  1.8040
  156DG      H8 3573   3.906   0.522   3.240 -1.2875 -2.0730 -0.9142
  156DG      O9 3574   3.737   1.112   3.167  0.8369  0.0194 -0.3556
  156DG     O10 3575   3.785   0.687   3.155 -0.8672  0.6205  0.1059
  156DG     C11 3576   3.738   1.129   3.030 -0.2899 -0.5899 -0.4590
  156DG     C12 3577   3.790   0.656   3.021  0.4631  0.1367  0.0853
  156DG     H13 3578   3.839   1.139   2.991 -0.6451  3.6191 -0.7009
  156DG     H14 3579   3.687   1.220   3.001 -0.9003 -1.6561 -2.9725
  156DG     H15 3580   3.741   0.562   2.995 -1.7825  0.7332  1.8154
  156DG     H16 3581   3.894   0.655   2.988  0.9808 -0.9974  1.6352
  156DG     C17 3582   3.679   1.005   2.958 -0.2160  0.5044  0.6689
  156DG     C18 3583   3.719   0.773   2.946 -0.0744  0.7512  0.0408
  156DG     O19 3584   3.752   0.896   3.012 -0.0162 -0.0304 -0.3736
  156DG     H20 3585   3.689   1.004   2.849 -0.9977  0.6311  0.5914
  156DG     H21 3586   3.575   1.005   2.989  0.1939  0.6385  2.0811
  156DG     H22 3587   3.754   0.787   2.843  0.9988  0.6856  0.3908
  156DG     H23 3588   3.613   0.748   2.941  0.2161 -0.3107 -1.7631
  157DG      C1 3589   2.349   1.706   1.640  0.4076 -0.3527  0.6422
  157DG      C2 3590   1.930   1.940   1.556 -0.2807 -0.0866  0.4065
  157DG      H3 3591   2.260   1.664   1.687 -0.4028 -1.9730 -2.1483
  157DG      H4 3592   2.439   1.646   1.656 -0.2544 -1.5421  0.0950
  157DG      H5 3593   2.320   1.707   1.535  1.1125 -2.3314  0.3885
  157DG      H6 3594   1.973   1.844   1.587  0.3161 -0.0726 -0.3378
  157DG      H7 3595   1.822   1.932   1.542 -0.4869  0.1947  1.7465
  157DG      H8 3596   1.965   1.978   1.460 -2.0315  3.2371  0.9385
  157DG      O9 3597   2.365   1.842   1.677  0.0615  0.0387  0.4752
  157DG     O10 3598   1.959   2.050   1.643  0.2136  0.3065 -0.1827
  157DG     C11 3599   2.369   1.851   1.822 -0.2692 -0.3302 -0.5167
  157DG     C12 3600   1.917   2.023   1.774 -0.6993 -0.2149 -0.2655
  157DG     H13 3601   2.400   1.952   1.848 -0.5866 -0.5379  0.7768
  157DG     H14 3602   2.445   1.784   1.862 -1.0566 -0.7423  0.3208
  157DG     H15 3603   1.810   2.001   1.777 -0.6297 -0.5797 -0.3945
  157DG     H16 3604   1.935   2.115   1.829 -1.8366 -0.5887  0.8055
  157DG     C17 3605   2.228   1.835   1.879 -0.5260 -0.6547  0.3719
  157DG     C18 3606   2.007   1.924   1.855  0.0642  0.3000 -0.4678
  157DG     O19 3607   2.142   1.936   1.823 -0.2500  0.0099  0.0030
  157DG     H20 3608   2.222   1.843   1.987 -1.8973 -0.1986  0.2840
  157DG     H21 3609   2.186   1.735   1.868 -0.8808 -0.5867  1.0592
  157DG     H22 3610   1.984   1.936   1.961 -0.4028  1.6992 -0.6992
  157DG     H23 3611   1.976   1.828   1.815  0.4639  0.4942 -1.2644
  158DG      C1 3612   4.253   4.516   3.887  0.3670 -0.7393 -0.4889
  158DG      C2 3613   3.869   3.858   3.680 -0.1470 -0.1584  0.3726
  158DG      H3 3614   4.351   4.513   3.935  1.5158 -2.6063 -2.7672
  158DG      H4 3615   4.187   4.561   3.962  2.0212 -0.7230  1.0249
  158DG      H5 3616   4.236   4.570   3.794 -0.5998 -1.5153 -0.7840
  158DG      H6 3617   3.950   3.835   3.610 -0.1462  0.7309  0.0790
  158DG      H7 3618   3.845   3.770   3.740 -1.4321  0.5433  0.8986
  158DG      H8 3619   3.782   3.883   3.620 -1.2066 -1.2551  1.3900
  158DG      O9 3620   4.214   4.380   3.875  0.1152 -0.6182 -0.1156
  158DG     O10 3621   3.919   3.958   3.767  0.2538  0.0611 -0.2797
  158DG     C11 3622   4.291   4.309   3.777  0.2830  0.0714 -0.2462
  158DG     C12 3623   3.922   4.091   3.718 -0.0551  0.1615 -0.2492
  158DG     H13 3624   4.398   4.329   3.779  0.3920 -0.5290  0.5027
  158DG     H14 3625   4.255   4.336   3.678 -0.3409 -1.8684 -0.5901
  158DG     H15 3626   3.861   4.148   3.788 -1.6999 -0.5896 -1.0246
  158DG     H16 3627   3.859   4.089   3.629 -0.0564 -2.4689 -0.2515
  158DG     C17 3628   4.270   4.159   3.814 -0.1523 -0.3420  0.4162
  158DG     C18 3629   4.063   4.149   3.690 -0.2742  0.3046  0.3373
  158DG     O19 3630   4.132   4.139   3.811 -0.4482  0.6319  0.1572
  158DG     H20 3631   4.320   4.138   3.909  1.5553 -0.4758 -0.4882
  158DG     H21 3632   4.317   4.095   3.740  0.7704  0.7546  0.0368
  158DG     H22 3633   4.118   4.093   3.615  1.2002  0.4869  1.2461
  158DG     H23 3634   4.051   4.251   3.654  3.3958  0.2008 -1.6707
  159DG      C1 3635   2.631   4.717   5.439  0.2180 -0.0471  0.7755
  159DG      C2 3636   1.976   4.696   5.197  0.1463  0.4089  0.5431
  159DG      H3 3637   2.595   4.715   5.337  0.3341  0.8379  0.7059
  159DG      H4 3638   2.731   4.673   5.441 -0.1086 -0.8447  0.2696
  159DG      H5 3639   2.633   4.821   5.472 -0.0694  1.0723 -2.4085
  159DG      H6 3640   1.992   4.766   5.116 -1.6524 -0.0552 -0.2603
  159DG      H7 3641   1.973   4.596   5.153 -1.0069  1.8095 -2.8569
  159DG      H8 3642   1.879   4.716   5.243 -0.7219 -0.9550 -0.5904
  159DG      O9 3643   2.551   4.633   5.514  0.6829 -0.2547  0.0876
  159DG     O10 3644   2.076   4.695   5.298 -0.0607 -0.0624  0.6898
  159DG     C11 3645   2.480   4.697   5.628 -0.4091  0.2802 -0.4148
  159DG     C12 3646   2.104   4.833   5.326  0.0007 -0.3048  0.1392
  159DG     H13 3647   2.559   4.736   5.692 -0.2292  0.9932 -1.0502
  159DG     H14 3648   2.439   4.619   5.692 -1.3904  1.7318  0.8008
  159DG     H15 3649   2.016   4.895   5.338 -1.3487 -1.9025 -1.1295
  159DG     H16 3650   2.168   4.870   5.246 -0.0446 -1.1914 -0.3293
  159DG     C17 3651   2.378   4.809   5.587  0.0054  0.5951  0.2848
  159DG     C18 3652   2.181   4.845   5.459 -0.6614  0.2568 -0.2365
  159DG     O19 3653   2.298   4.767   5.475 -0.0020  0.4948  0.1552
  159DG     H20 3654   2.420   4.904   5.554  0.8893 -0.0589 -0.5275
  159DG     H21 3655   2.308   4.820   5.670  0.2304  0.8260  0.4464
  159DG     H22 3656   2.203   4.952   5.462 -0.3302  0.1900 -0.2586
  159DG     H23 3657   2.111   4.815   5.536 -0.3481  1.1240  0.4055
  160DG      C1 3658   1.376   4.551   2.146 -0.4979 -0.3193 -0.0087
  160DG      C2 3659   0.936   4.239   1.964 -0.0643  0.1887 -0.3066
  160DG      H3 3660   1.429   4.589   2.059 -1.9809  0.2048 -0.7059
  160DG      H4 3661   1.401   4.446   2.162 -0.9961 -0.4929 -0.3615
  160DG      H5 3662   1.409   4.610   2.232  0.4942  0.7859 -1.1141
  160DG      H6 3663   0.831   4.214   1.954  0.2684 -0.6488 -2.1118
  160DG      H7 3664   0.984   4.206   1.872  3.1366  1.1246  0.8693
  160DG      H8 3665   0.980   4.185   2.048  2.9677 -1.1018 -2.5284
  160DG      O9 3666   1.239   4.569   2.137  0.0973 -0.2297  0.0747
  160DG     O10 3667   0.971   4.374   1.963 -0.2340 -0.0445  0.7078
  160DG     C11 3668   1.206   4.709   2.134 -0.1184  0.5594 -0.2109
  160DG     C12 3669   0.889   4.453   2.053  0.2906  0.0547 -0.1328
  160DG     H13 3670   1.239   4.757   2.042  0.4436 -0.7877 -0.7400
  160DG     H14 3671   1.233   4.764   2.224 -0.8253  0.7859 -0.1272
  160DG     H15 3672   0.920   4.453   2.157  0.8139  1.4922 -0.2593
  160DG     H16 3673   0.784   4.428   2.049  0.3337 -0.1083 -0.2612
  160DG     C17 3674   1.055   4.711   2.134  0.2874  0.0296 -0.0108
  160DG     C18 3675   0.888   4.600   2.021  0.5625  0.5614  0.2622
  160DG     O19 3676   1.013   4.649   2.013  0.1464 -0.0128  0.3407
  160DG     H20 3677   1.011   4.811   2.137  0.9240  0.3929 -1.8380
  160DG     H21 3678   1.021   4.660   2.224  1.7619  0.4338  0.7975
  160DG     H22 3679   0.841   4.610   1.924  1.5632 -0.3501 -0.3411
  160DG     H23 3680   0.832   4.653   2.098  1.7143  0.7180  1.0237
  161DG      C1 3681   0.822   3.203   2.409 -0.6149  0.4890 -0.0094
  161DG      C2 3682   0.602   2.850   2.121  0.0905 -0.8786  0.2304
  161DG      H3 3683   0.908   3.223   2.344  0.8052 -2.0311  0.9530
  161DG      H4 3684   0.825   3.245   2.509  1.2007  1.0036 -0.2438
  161DG      H5 3685   0.746   3.270   2.368  0.9532  2.0411 -0.4732
  161DG      H6 3686   0.613   2.889   2.222  1.3382 -0.4604 -0.0477
  161DG      H7 3687   0.678   2.889   2.054  0.1569 -0.2163  0.6886
  161DG      H8 3688   0.507   2.891   2.087  0.1476  0.4160  1.5744
  161DG      O9 3689   0.789   3.062   2.423 -0.2653 -0.1494  0.0467
  161DG     O10 3690   0.608   2.711   2.119 -1.0104 -0.1638  0.3830
  161DG     C11 3691   0.891   2.980   2.477  0.5082 -0.0161 -0.1777
  161DG     C12 3692   0.728   2.648   2.153 -0.0229 -0.1317 -1.0452
  161DG     H13 3693   0.917   2.993   2.582 -1.8147 -4.0669  1.1239
  161DG     H14 3694   0.987   2.993   2.428  0.5033  0.6841 -0.0094
  161DG     H15 3695   0.818   2.686   2.103  1.6119  1.8558  2.9780
  161DG     H16 3696   0.707   2.542   2.138  0.9988 -0.9288  2.3780
  161DG     C17 3697   0.837   2.836   2.458  0.4440 -0.0002 -0.5505
  161DG     C18 3698   0.755   2.672   2.311  0.0533  0.6414 -0.0848
  161DG     O19 3699   0.815   2.796   2.326 -0.5575 -0.6139 -0.6562
  161DG     H20 3700   0.741   2.833   2.510 -0.7263 -0.5492 -2.6623
  161DG     H21 3701   0.907   2.763   2.499  0.2499 -0.9878 -1.9448
  161DG     H22 3702   0.661   2.680   2.365 -0.3256  1.3143 -0.8408
  161DG     H23 3703   0.817   2.588   2.345  0.8583  1.1909 -0.1693
  162DG      C1 3704   3.787   2.062   2.810 -0.0189  0.5239  0.1665
  162DG      C2 3705   3.354   1.460   2.675  0.0405  0.1956 -0.1577
  162DG      H3 3706   3.876   2.034   2.754 -1.2822  0.1692 -1.7637
  162DG      H4 3707   3.823   2.131   2.886  0.2757 -0.8230  1.2915
  162DG      H5 3708   3.714   2.111   2.746 -0.7212 -1.0078 -0.2730
  162DG      H6 3709   3.414   1.551   2.665 -0.1926  0.1910 -1.8306
  162DG      H7 3710   3.386   1.365   2.633  0.4211  0.6626 -0.9465
  162DG      H8 3711   3.252   1.476   2.640 -0.3579 -0.1327  0.8256
  162DG      O9 3712   3.734   1.948   2.878 -0.1955  0.7031 -0.2631
  162DG     O10 3713   3.342   1.437   2.815 -0.1204  0.1536 -0.5915
  162DG     C11 3714   3.670   1.839   2.805  0.0353  0.1844  1.0305
  162DG     C12 3715   3.461   1.410   2.879  0.2124 -0.1964  0.5483
  162DG     H13 3716   3.731   1.787   2.732  0.8324 -0.3757  2.0554
  162DG     H14 3717   3.573   1.865   2.764 -0.0808 -2.2576 -0.4304
  162DG     H15 3718   3.524   1.376   2.797 -1.4141  1.3950 -1.4666
  162DG     H16 3719   3.448   1.329   2.951 -0.9267 -0.4182  0.1234
  162DG     C17 3720   3.646   1.733   2.915  0.6218  0.2909  0.4169
  162DG     C18 3721   3.525   1.527   2.946  0.3465 -0.5321  0.0772
  162DG     O19 3722   3.542   1.643   2.862  0.0687  0.3992 -0.3465
  162DG     H20 3723   3.592   1.787   2.993 -1.3320  1.6213 -1.7306
  162DG     H21 3724   3.744   1.690   2.934  1.1866  0.8026 -1.2046
  162DG     H22 3725   3.469   1.561   3.033 -1.0613  0.0029 -1.0139
  162DG     H23 3726   3.621   1.490   2.982  0.4007  0.4151  0.9466
  163DG      C1 3727   4.167   5.151   2.406 -0.2125  0.0997  0.1037
  163DG      C2 3728   4.570   4.849   1.890  0.0583  0.2481 -0.5771
  163DG      H3 3729   4.245   5.161   2.481  0.2507 -4.1701  0.4385
  163DG      H4 3730   4.136   5.048   2.422  1.2110 -0.1456  1.5422
  163DG      H5 3731   4.086   5.215   2.441  1.1597  2.9086 -1.4378
  163DG      H6 3732   4.644   4.825   1.966 -0.3911 -1.6395 -0.6864
  163DG      H7 3733   4.492   4.773   1.893  1.7475 -1.5413 -0.2777
  163DG      H8 3734   4.611   4.846   1.789  2.6283 -1.0845  0.4175
  163DG      O9 3735   4.212   5.176   2.276 -0.2256 -0.3602  0.0663
  163DG     O10 3736   4.517   4.973   1.922  0.6172  0.2285 -0.1003
  163DG     C11 3737   4.112   5.173   2.176  0.4132 -0.0687 -0.9145
  163DG     C12 3738   4.420   5.025   1.825 -0.9071 -0.3809  0.5545
  163DG     H13 3739   4.031   5.239   2.207  1.2263  0.0860  1.0070
  163DG     H14 3740   4.073   5.072   2.165 -1.1148  0.1913  1.3212
  163DG     H15 3741   4.343   4.950   1.802  1.2900 -2.4348 -0.5975
  163DG     H16 3742   4.476   5.053   1.736 -1.8282  3.1314  0.9445
  163DG     C17 3743   4.162   5.202   2.036 -0.3186  0.0601 -0.1425
  163DG     C18 3744   4.341   5.150   1.871 -0.0053  0.2771  0.1633
  163DG     O19 3745   4.280   5.128   1.995 -0.5448  0.1120 -0.2672
  163DG     H20 3746   4.188   5.308   2.032  0.9447 -0.2138  0.2988
  163DG     H21 3747   4.081   5.168   1.972  0.4128  1.3886 -1.8532
  163DG     H22 3748   4.395   5.245   1.871  0.2745  0.1378  1.5911
  163DG     H23 3749   4.266   5.173   1.796  0.0017 -0.7453 -0.1724
  164DG      C1 3750   3.846   2.876   3.952  0.2843 -0.3026  0.1785
  164DG      C2 3751   4.007   2.771   3.134  0.4083 -0.3037 -1.2892
  164DG      H3 3752   3.879   2.827   4.043 -0.4540 -1.2147 -0.0232
  164DG      H4 3753   3.738   2.876   3.940  0.2073  1.4411  0.7238
  164DG      H5 3754   3.888   2.976   3.947 -0.1969 -0.0336  1.3728
  164DG      H6 3755   3.907   2.750   3.095 -0.1034 -1.4613  0.4897
  164DG      H7 3756   4.013   2.876   3.162  0.0865 -1.1855  2.6752
  164DG      H8 3757   4.075   2.753   3.051 -0.5246 -2.2170 -1.7012
  164DG      O9 3758   3.909   2.814   3.850 -0.1137 -0.0216  0.2530
  164DG     O10 3759   4.026   2.682   3.245 -0.2945  0.5596 -0.1574
  164DG     C11 3760   3.879   2.676   3.833  0.1266  0.0397 -0.0271
  164DG     C12 3761   3.937   2.713   3.352  0.1299 -0.8311  0.6137
  164DG     H13 3762   3.771   2.662   3.830 -0.2237  0.7835  3.9918
  164DG     H14 3763   3.901   2.633   3.930 -1.4100 -0.3278  0.1897
  164DG     H15 3764   3.834   2.701   3.321  0.2364 -1.1143  0.3655
  164DG     H16 3765   3.948   2.820   3.372  1.8351 -1.0005  0.8015
  164DG     C17 3766   3.955   2.617   3.712  0.6487  0.1842  0.2962
  164DG     C18 3767   3.961   2.624   3.473 -0.3733  0.4591  0.4278
  164DG     O19 3768   3.919   2.690   3.595 -0.3291  0.2768  0.5263
  164DG     H20 3769   3.922   2.513   3.716  1.8271 -0.2420 -0.5599
  164DG     H21 3770   4.064   2.613   3.723  0.8449 -1.2271 -1.5649
  164DG     H22 3771   3.913   2.529   3.452  1.8071 -0.4372 -0.8362
  164DG     H23 3772   4.067   2.601   3.488 -0.0657  1.0210 -0.7420
  165DG      C1 3773   3.140   4.053   3.201  0.1815  0.2289  0.2456
  165DG      C2 3774   2.547   4.510   3.380 -0.5177  1.0302  0.8523
  165DG      H3 3775   3.157   3.975   3.275 -0.1449  0.2609  0.3552
  165DG      H4 3776   3.237   4.064   3.152  1.6293 -0.7622  2.7152
  165DG      H5 3777   3.070   4.014   3.127  1.3554  0.9792 -1.3182
  165DG      H6 3778   2.460   4.471   3.433  0.1980 -0.9321  0.6471
  165DG      H7 3779   2.536   4.618   3.381 -0.6469  1.0602 -0.8980
  165DG      H8 3780   2.546   4.485   3.273  0.0767  1.9375  0.6263
  165DG      O9 3781   3.089   4.164   3.272  0.4209  0.1660 -0.3322
  165DG     O10 3782   2.673   4.486   3.440 -0.0748  0.2086  0.0033
  165DG     C11 3783   2.958   4.143   3.316  0.1687 -0.5193  0.6165
  165DG     C12 3784   2.782   4.558   3.390 -0.2203 -0.9193  0.1989
  165DG     H13 3785   2.955   4.050   3.372  0.3976 -0.4211  0.7973
  165DG     H14 3786   2.883   4.150   3.237  0.5080 -2.1649  0.1225
  165DG     H15 3787   2.800   4.649   3.447  0.5370  0.2497 -1.7925
  165DG     H16 3788   2.764   4.580   3.285 -3.6236  0.9338  1.0104
  165DG     C17 3789   2.921   4.267   3.401  0.0911  0.6906 -0.4852
  165DG     C18 3790   2.925   4.495   3.405  0.1511 -0.2180 -0.1346
  165DG     O19 3791   2.953   4.384   3.328  0.7118  0.3457 -0.1080
  165DG     H20 3792   2.982   4.257   3.491 -2.0702 -0.9442  0.9164
  165DG     H21 3793   2.815   4.256   3.427  0.1024 -1.4769 -1.1251
  165DG     H22 3794   2.994   4.573   3.372 -2.2991  2.2698  0.2964
  165DG     H23 3795   2.946   4.484   3.511  1.2681  0.4322 -0.2675
  166DG      C1 3796   4.216   0.798   1.159 -0.2573 -0.7336  0.2024
  166DG      C2 3797   3.933   1.348   0.798 -0.2287 -0.2054  0.8707
  166DG      H3 3798   4.279   0.709   1.158  1.0992  0.2098 -0.2624
  166DG      H4 3799   4.150   0.796   1.246 -0.8379  1.0602 -0.1631
  166DG      H5 3800   4.292   0.876   1.160  0.2172 -1.0462 -2.8257
  166DG      H6 3801   3.896   1.397   0.708 -0.1967 -0.1813  0.8706
  166DG      H7 3802   3.852   1.330   0.869  0.7477 -0.4651  1.9586
  166DG      H8 3803   3.998   1.421   0.846  1.4523 -0.5178 -0.8007
  166DG      O9 3804   4.133   0.807   1.039 -0.0554  0.2165 -0.0772
  166DG     O10 3805   3.997   1.219   0.790 -0.0546 -0.1139 -0.0885
  166DG     C11 3806   4.214   0.794   0.921 -0.6493 -0.5070  0.2204
  166DG     C12 3807   3.905   1.132   0.726 -0.4537  0.0832 -0.5074
  166DG     H13 3808   4.245   0.691   0.906  0.7572  0.1084 -1.5320
  166DG     H14 3809   4.303   0.854   0.939 -1.4785  0.9686 -0.4139
  166DG     H15 3810   3.869   1.168   0.629  3.1660  0.5257 -1.8629
  166DG     H16 3811   3.828   1.105   0.798  1.7238 -0.9134  1.5961
  166DG     C17 3812   4.134   0.836   0.797 -0.3987  0.6434  0.3395
  166DG     C18 3813   4.001   1.010   0.703  0.0440  0.5285 -0.2742
  166DG     O19 3814   4.063   0.962   0.824 -0.1293  0.6107 -0.1614
  166DG     H20 3815   4.056   0.762   0.783  0.6097 -0.2710 -0.5692
  166DG     H21 3816   4.195   0.829   0.707 -1.6557  2.2372 -0.7082
  166DG     H22 3817   3.946   0.929   0.654  2.2201  1.1336 -4.0831
  166DG     H23 3818   4.075   1.025   0.625 -2.2731 -1.6461 -3.1286
  167DG      C1 3819   2.542   3.712   1.061  0.0507  0.1249 -0.3003
  167DG      C2 3820   2.500   3.620   1.691  0.2882  0.1863 -0.1012
  167DG      H3 3821   2.585   3.655   0.978  2.5997  2.1216 -0.5057
  167DG      H4 3822   2.531   3.816   1.029 -0.6884  0.5524  1.2467
  167DG      H5 3823   2.441   3.675   1.072 -0.0289  0.5541  0.4613
  167DG      H6 3824   2.543   3.520   1.696  0.3292  0.2543  1.4040
  167DG      H7 3825   2.509   3.674   1.785  0.7029 -2.0053  1.1899
  167DG      H8 3826   2.392   3.608   1.685  0.2549  0.7475 -0.7841
  167DG      O9 3827   2.614   3.692   1.180  0.6036  0.5538  0.2434
  167DG     O10 3828   2.555   3.704   1.593 -0.0317  0.0672  0.1086
  167DG     C11 3829   2.746   3.738   1.168 -0.0078  0.1518 -0.2745
  167DG     C12 3830   2.697   3.716   1.604 -0.0638  0.5062  0.2458
  167DG     H13 3831   2.759   3.842   1.138  3.3686  0.3246  1.2813
  167DG     H14 3832   2.794   3.674   1.094 -0.2713  1.4926 -1.6613
  167DG     H15 3833   2.754   3.627   1.576 -2.7110 -0.5760 -2.1272
  167DG     H16 3834   2.722   3.726   1.710 -2.5891 -1.3679  1.1246
  167DG     C17 3835   2.810   3.743   1.311  0.1405 -0.5372  0.4774
  167DG     C18 3836   2.747   3.839   1.523  0.1684  0.1082 -0.3811
  167DG     O19 3837   2.709   3.815   1.386 -0.1896 -0.5685  0.5965
  167DG     H20 3838   2.898   3.807   1.314 -0.2119  0.0627 -0.9353
  167DG     H21 3839   2.825   3.646   1.357  3.8947 -0.8112 -0.9929
  167DG     H22 3840   2.694   3.931   1.548 -3.1906 -1.3972 -1.4584
  167DG     H23 3841   2.854   3.857   1.538  0.0551  0.3296  0.1564
  168DG      C1 3842   1.709   4.818   3.123 -0.0520 -0.3896 -0.2931
  168DG      C2 3843   1.664   4.625   3.709  0.3290  0.4173 -0.2732
  168DG      H3 3844   1.615   4.763   3.115 -1.9991  2.6853 -0.5199
  168DG      H4 3845   1.748   4.808   3.021  0.8006  2.1455 -0.2819
  168DG      H5 3846   1.698   4.925   3.139  2.1144  0.0736 -1.5169
  168DG      H6 3847   1.574   4.616   3.647 -0.3444 -1.6534  0.9164
  168DG      H7 3848   1.695   4.524   3.737 -0.1011 -0.1289 -1.6336
  168DG      H8 3849   1.635   4.680   3.798  0.1337  2.1024 -1.3274
  168DG      O9 3850   1.791   4.771   3.224  0.7410 -0.4594  0.0329
  168DG     O10 3851   1.758   4.685   3.621 -0.0956 -0.4715 -0.5039
  168DG     C11 3852   1.917   4.838   3.230  0.2029 -0.0561  0.2208
  168DG     C12 3853   1.886   4.709   3.680  0.3859 -0.9222  0.8922
  168DG     H13 3854   1.906   4.944   3.253 -0.9689 -0.0807 -0.1632
  168DG     H14 3855   1.979   4.848   3.140  2.3867  2.0791  1.8113
  168DG     H15 3856   1.899   4.655   3.774 -1.1235 -1.0192  1.0709
  168DG     H16 3857   1.882   4.815   3.702 -2.4666 -0.9778  1.0377
  168DG     C17 3858   2.005   4.772   3.335  0.2070 -0.1477  0.0526
  168DG     C18 3859   1.987   4.688   3.563 -0.6689  0.1080  0.3078
  168DG     O19 3860   1.922   4.751   3.455  0.2295  0.7807  0.8515
  168DG     H20 3861   2.090   4.834   3.362 -2.6526  2.7897  3.3498
  168DG     H21 3862   2.056   4.682   3.301  2.9364  0.5832  1.7973
  168DG     H22 3863   2.082   4.740   3.579 -1.0288  0.8344  0.1054
  168DG     H23 3864   2.016   4.585   3.539  1.5032  1.0897 -1.7341
  169DG      C1 3865   3.003   0.528   2.908 -0.3011 -0.1280  0.2220
  169DG      C2 3866   2.427   0.502   3.292 -0.1377 -0.0246  0.0412
  169DG      H3 3867   3.049   0.535   2.810  0.2114 -0.9264  0.4012
  169DG      H4 3868   3.034   0.436   2.957  0.3199 -0.6980 -1.2095
  169DG      H5 3869   3.055   0.608   2.962  0.3847  0.3058 -1.0286
  169DG      H6 3870   2.502   0.517   3.369  0.8544 -1.9974 -0.4841
  169DG      H7 3871   2.329   0.547   3.308 -0.7356 -0.2720 -2.5292
  169DG      H8 3872   2.423   0.393   3.282  2.1099 -0.3757  2.0420
  169DG      O9 3873   2.858   0.548   2.912 -0.1154 -0.2396  0.5025
  169DG     O10 3874   2.492   0.562   3.180 -0.1926  0.0031  0.4061
  169DG     C11 3875   2.830   0.670   2.840 -0.4851  0.6474 -0.5547
  169DG     C12 3876   2.414   0.575   3.061 -0.0957 -0.1399 -0.4700
  169DG     H13 3877   2.863   0.670   2.736  1.1606  1.3264 -0.0696
  169DG     H14 3878   2.885   0.752   2.886 -1.9670  1.0440  0.5842
  169DG     H15 3879   2.311   0.604   3.082  0.0698 -0.2306  0.5575
  169DG     H16 3880   2.388   0.475   3.027 -0.0545  0.0501 -1.0566
  169DG     C17 3881   2.681   0.694   2.841 -0.0869 -1.0130  0.4701
  169DG     C18 3882   2.480   0.676   2.960  0.5053  0.3195  0.6676
  169DG     O19 3883   2.618   0.651   2.957 -0.4756 -0.1929 -0.7471
  169DG     H20 3884   2.638   0.638   2.758 -1.8671 -0.6119  1.0907
  169DG     H21 3885   2.659   0.798   2.817  0.4176 -0.8165  0.8286
  169DG     H22 3886   2.444   0.663   2.858  1.3438 -1.0197  0.5210
  169DG     H23 3887   2.458   0.779   2.989 -0.8700  0.4079 -0.5837
  170DG      C1 3888   0.939   2.442   2.845 -0.5674  0.0998 -0.2466
  170DG      C2 3889   0.761   2.795   3.631  0.0176 -0.1302 -0.2600
  170DG      H3 3890   0.921   2.335   2.842  0.9488 -0.2046  0.3802
  170DG      H4 3891   1.046   2.465   2.852  0.2313 -2.8677 -1.3714
  170DG      H5 3892   0.904   2.465   2.745  0.0392  0.3755 -0.4006
  170DG      H6 3893   0.803   2.895   3.625 -1.5366  0.5222 -0.7611
  170DG      H7 3894   0.673   2.793   3.695  1.2630 -0.6424  1.5100
  170DG      H8 3895   0.833   2.719   3.659  0.2090  0.3791  0.6759
  170DG      O9 3896   0.858   2.509   2.936 -0.2790 -0.2045  0.3325
  170DG     O10 3897   0.721   2.760   3.501 -0.1188 -0.3741  1.0601
  170DG     C11 3898   0.873   2.646   2.933 -0.1966 -0.6426  0.3751
  170DG     C12 3899   0.817   2.728   3.413 -0.0797  0.1888  0.0104
  170DG     H13 3900   0.840   2.679   2.835 -1.5020  1.6758  1.5118
  170DG     H14 3901   0.976   2.675   2.951 -1.0085  1.4288  2.2662
  170DG     H15 3902   0.867   2.634   3.441 -0.0130  0.6744  1.5950
  170DG     H16 3903   0.887   2.811   3.404 -0.8061  0.7319 -0.7763
  170DG     C17 3904   0.779   2.712   3.039  0.2251  0.4735  0.0575
  170DG     C18 3905   0.740   2.721   3.278 -0.8905  0.1036  0.5758
  170DG     O19 3906   0.835   2.695   3.172  0.4650  0.2405  0.4778
  170DG     H20 3907   0.679   2.671   3.025  0.9078 -0.6767 -1.7237
  170DG     H21 3908   0.769   2.819   3.018 -0.3284  0.4341  0.1183
  170DG     H22 3909   0.672   2.636   3.274  0.9927 -1.4390 -0.8289
  170DG     H23 3910   0.685   2.811   3.250  1.0153  1.3184  0.5157
  171DG      C1 3911   3.619   0.445   1.014 -0.2477  0.1313  0.1040
  171DG      C2 3912   3.436   0.327   0.385 -0.9414  0.1867  0.0121
  171DG      H3 3913   3.570   0.538   1.045 -0.3492  0.2599 -0.4307
  171DG      H4 3914   3.681   0.416   1.099 -1.9113 -0.9041  1.0061
  171DG      H5 3915   3.538   0.373   1.003  0.4340 -1.1489  2.6506
  171DG      H6 3916   3.349   0.392   0.399 -0.2811  1.3933 -1.2347
  171DG      H7 3917   3.459   0.326   0.279  0.5600  1.7502  0.2837
  171DG      H8 3918   3.419   0.222   0.410  1.8675 -0.6055 -1.0739
  171DG      O9 3919   3.697   0.470   0.902 -0.1580 -0.1337 -0.1359
  171DG     O10 3920   3.543   0.381   0.451 -1.1690 -0.1807  0.0577
  171DG     C11 3921   3.810   0.390   0.878 -0.5679 -0.4994  0.3361
  171DG     C12 3922   3.659   0.302   0.446 -0.5052  0.5454  0.4359
  171DG     H13 3923   3.789   0.284   0.896 -0.3435 -0.4472  0.9414
  171DG     H14 3924   3.897   0.400   0.943  0.0988 -2.1524 -0.2333
  171DG     H15 3925   3.681   0.258   0.349  0.0717  0.1710  0.7271
  171DG     H16 3926   3.643   0.208   0.499 -1.5517 -0.6051 -1.7937
  171DG     C17 3927   3.848   0.415   0.732  0.0384  0.2708  0.0914
  171DG     C18 3928   3.784   0.368   0.506 -0.1940 -0.4429 -0.2064
  171DG     O19 3929   3.743   0.381   0.644 -0.2054  0.7048  0.4183
  171DG     H20 3930   3.919   0.335   0.712  0.9329  0.6868  1.4273
  171DG     H21 3931   3.892   0.514   0.716  0.5830 -0.1082 -0.7920
  171DG     H22 3932   3.871   0.305   0.490 -0.5392 -0.6080 -1.5401
  171DG     H23 3933   3.808   0.467   0.468 -0.4851 -0.3817 -0.2337
  172DG      C1 3934   0.013   4.719   0.687  0.1692 -0.3370 -0.7063
  172DG      C2 3935   0.071   5.343   0.417  0.0662  0.4001  0.7274
  172DG      H3 3936   0.068   4.636   0.731  3.7054  1.2070 -1.8736
  172DG      H4 3937   0.072   4.761   0.606 -1.0020  1.5716 -0.6383
  172DG      H5 3938  -0.077   4.670   0.650 -1.9971  1.0462  2.2957
  172DG      H6 3939   0.145   5.277   0.372 -0.3484  0.1127  0.4554
  172DG      H7 3940  -0.028   5.324   0.374 -1.3564 -0.6045  4.0805
  172DG      H8 3941   0.101   5.447   0.410  0.4953  0.2639  0.4455
  172DG      O9 3942  -0.015   4.830   0.772 -0.0108  0.0543 -0.1879
  172DG     O10 3943   0.045   5.319   0.557 -0.4981  0.1584 -0.2119
  172DG     C11 3944  -0.080   4.942   0.704  0.2642 -0.2845 -0.1990
  172DG     C12 3945   0.170   5.299   0.629  0.3702  0.6056 -0.7733
  172DG     H13 3946  -0.135   5.000   0.778  2.7856  0.5582  1.1544
  172DG     H14 3947  -0.152   4.902   0.634 -0.7810  1.0648  0.0661
  172DG     H15 3948   0.148   5.332   0.730 -2.3795  1.3681 -1.5403
  172DG     H16 3949   0.251   5.361   0.591 -0.5104  2.5573  0.3806
  172DG     C17 3950   0.021   5.025   0.624 -0.1979 -0.1685 -0.4757
  172DG     C18 3951   0.218   5.150   0.640 -0.0768  0.5319 -0.0677
  172DG     O19 3952   0.120   5.078   0.714 -0.6919  0.1356 -0.0628
  172DG     H20 3953  -0.038   5.103   0.577 -0.4371 -1.2629 -2.0502
  172DG     H21 3954   0.060   4.952   0.554  0.0624 -0.3792 -0.1166
  172DG     H22 3955   0.233   5.108   0.541  0.3192  2.0787 -0.6961
  172DG     H23 3956   0.310   5.155   0.699 -0.8939 -0.4678  1.3616
  173DG      C1 3957   4.156   4.173   5.099 -0.3474  0.7367  0.2472
  173DG      C2 3958   4.708   4.173   4.719  0.1495 -0.4956  0.1818
  173DG      H3 3959   4.140   4.094   5.025  0.4187 -0.6751  1.5206
  173DG      H4 3960   4.122   4.268   5.060  0.6698  1.1673  0.3756
  173DG      H5 3961   4.106   4.149   5.193  0.2249  2.0215  0.8964
  173DG      H6 3962   4.763   4.266   4.711 -0.2354  0.1082  3.3426
  173DG      H7 3963   4.764   4.080   4.710  0.6442 -0.0736 -1.6057
  173DG      H8 3964   4.637   4.166   4.636 -0.1105  1.4608  0.1782
  173DG      O9 3965   4.293   4.171   5.121  0.2097 -0.1944  0.4956
  173DG     O10 3966   4.649   4.191   4.853  0.1670 -0.0424  0.0639
  173DG     C11 3967   4.332   4.289   5.184  0.3587 -0.0902 -0.3531
  173DG     C12 3968   4.747   4.228   4.950  0.3579  0.7772 -0.5538
  173DG     H13 3969   4.280   4.285   5.279  0.0514 -1.7241 -0.5577
  173DG     H14 3970   4.303   4.377   5.128 -2.6127 -1.4868 -1.2254
  173DG     H15 3971   4.771   4.333   4.933  1.3462  0.6675  0.1174
  173DG     H16 3972   4.844   4.181   4.943 -0.2532 -0.3332 -2.1140
  173DG     C17 3973   4.483   4.271   5.209 -0.0335  0.1969 -0.0815
  173DG     C18 3974   4.688   4.209   5.092  0.8877 -0.4764 -0.4629
  173DG     O19 3975   4.556   4.262   5.089 -0.3183 -0.0403 -0.2170
  173DG     H20 3976   4.502   4.179   5.266 -0.8118  0.6009  0.8613
  173DG     H21 3977   4.528   4.359   5.255  0.9452  1.0090 -2.4638
  173DG     H22 3978   4.700   4.105   5.121  2.5735 -0.6401 -1.6013
  173DG     H23 3979   4.732   4.267   5.173  1.0730  0.5121 -1.2603
  174DG      C1 3980   0.157   4.181   4.681 -0.4283 -0.7162  0.5592
  174DG      C2 3981   0.551   4.220   4.220  0.4718 -0.0627  0.4574
  174DG      H3 3982   0.092   4.266   4.699 -0.5836 -0.6818 -0.1207
  174DG      H4 3983   0.137   4.097   4.748 -0.0022 -2.1696 -1.0552
  174DG      H5 3984   0.138   4.145   4.580  0.2597 -1.0560  0.5447
  174DG      H6 3985   0.523   4.269   4.127 -2.2506 -1.4342  0.4574
  174DG      H7 3986   0.608   4.133   4.189  3.1332  1.7183  0.0008
  174DG      H8 3987   0.465   4.202   4.284  0.4527  0.7501  0.6730
  174DG      O9 3988   0.292   4.220   4.686  0.5450 -0.6977 -0.1664
  174DG     O10 3989   0.647   4.306   4.287  0.1036 -0.4909 -0.2100
  174DG     C11 3990   0.376   4.115   4.636  0.4187 -0.3189 -0.2925
  174DG     C12 3991   0.695   4.248   4.405 -0.9643 -0.5601 -0.1902
  174DG     H13 3992   0.345   4.070   4.542 -2.2073 -1.4196  1.0019
  174DG     H14 3993   0.363   4.033   4.706 -1.0067  2.4051  2.8877
  174DG     H15 3994   0.803   4.260   4.400 -1.2769  4.6415  0.6906
  174DG     H16 3995   0.671   4.141   4.410  0.0012 -0.8514 -1.3307
  174DG     C17 3996   0.517   4.169   4.641  0.7530 -0.2624  0.3504
  174DG     C18 3997   0.641   4.328   4.520 -0.0324 -0.1106  0.0789
  174DG     O19 3998   0.515   4.277   4.550 -0.4286  0.2242 -0.4002
  174DG     H20 3999   0.597   4.098   4.618  2.8191  1.6622  1.2720
  174DG     H21 4000   0.539   4.213   4.739  1.7678  1.7066 -0.7043
  174DG     H22 4001   0.708   4.326   4.606 -1.6170 -2.8165  1.3708
  174DG     H23 4002   0.624   4.431   4.490  0.0587 -0.2130 -0.3296
  175DG      C1 4003   4.991   0.205   0.881  0.1974 -0.0893  0.0014
  175DG      C2 4004   4.600  -0.293   1.164  0.0712  0.6263  0.1327
  175DG      H3 4005   4.958   0.174   0.782  0.0043 -0.9493  0.3176
  175DG      H4 4006   5.075   0.274   0.882 -0.3641  0.5944  0.3356
  175DG      H5 4007   4.905   0.255   0.925  1.7212  2.8773 -0.2066
  175DG      H6 4008   4.539  -0.211   1.124 -0.1348  1.2152  1.6117
  175DG      H7 4009   4.589  -0.379   1.098 -0.0680 -0.6242  1.7563
  175DG      H8 4010   4.550  -0.321   1.256 -2.1257  1.2149 -0.8200
  175DG      O9 4011   5.008   0.081   0.955 -0.7853 -0.0547  0.1740
  175DG     O10 4012   4.736  -0.257   1.181  0.7788  0.0258 -0.6949
  175DG     C11 4013   5.051   0.115   1.091 -0.6983 -0.5946  0.5516
  175DG     C12 4014   4.750  -0.171   1.288  0.5058 -0.7095  0.0123
  175DG     H13 4015   4.973   0.175   1.139 -0.0772 -0.5364  1.5282
  175DG     H14 4016   5.143   0.173   1.089 -1.0061 -0.1109  0.3574
  175DG     H15 4017   4.723  -0.228   1.377 -0.4847  0.4728  0.4908
  175DG     H16 4018   4.686  -0.083   1.294 -2.0232 -2.3081 -1.4089
  175DG     C17 4019   5.054  -0.002   1.189 -0.3839  0.0627 -0.0918
  175DG     C18 4020   4.902  -0.137   1.304 -0.0258  0.2764 -0.6861
  175DG     O19 4021   4.930  -0.053   1.193  0.1215  0.1855  0.2377
  175DG     H20 4022   5.099   0.017   1.286 -0.1796 -1.4782  0.1431
  175DG     H21 4023   5.118  -0.081   1.149 -0.6272 -0.8464  1.2334
  175DG     H22 4024   4.920  -0.074   1.391 -0.2924  0.5871 -0.8551
  175DG     H23 4025   4.969  -0.223   1.308  0.8662  1.0052  0.5234
  176DG      C1 4026   1.046   0.258   1.345  0.5846  0.4044 -0.4642
  176DG      C2 4027   1.131   0.854   1.705 -0.7212 -0.2821  0.6224
  176DG      H3 4028   0.988   0.167   1.328 -0.0194  0.8481 -0.8702
  176DG      H4 4029   1.151   0.236   1.363  0.2104 -1.1107  0.0045
  176DG      H5 4030   1.027   0.322   1.258 -2.7994 -0.5307 -0.5554
  176DG      H6 4031   1.088   0.941   1.755 -2.1552  0.1416 -1.2231
  176DG      H7 4032   1.240   0.860   1.701 -0.7002  3.0375  2.0725
  176DG      H8 4033   1.098   0.858   1.601  0.8392 -1.4061  0.0415
  176DG      O9 4034   1.012   0.336   1.458 -1.2127  0.1850  0.3244
  176DG     O10 4035   1.091   0.726   1.749  0.3835 -0.2854 -0.5071
  176DG     C11 4036   1.021   0.264   1.580 -0.0280  0.6747  0.5558
  176DG     C12 4037   0.952   0.718   1.748  0.6609  0.5253  0.6208
  176DG     H13 4038   1.124   0.233   1.594  0.0824  1.5198  1.8022
  176DG     H14 4039   0.977   0.167   1.557  3.1970 -0.6257 -0.7725
  176DG     H15 4040   0.925   0.758   1.649 -1.0502 -2.1758 -0.1171
  176DG     H16 4041   0.914   0.777   1.831  1.0884  0.9817  0.5006
  176DG     C17 4042   0.956   0.346   1.694 -0.6220 -0.1608  0.0616
  176DG     C18 4043   0.900   0.571   1.768 -0.0501  0.2774  0.1724
  176DG     O19 4044   0.990   0.486   1.698 -0.1023 -0.0390 -0.4511
  176DG     H20 4045   0.971   0.313   1.796  0.1446  1.8703  0.6576
  176DG     H21 4046   0.850   0.333   1.675 -0.7126 -0.8275  0.9530
  176DG     H22 4047   0.903   0.548   1.874  1.8147 -0.0788  0.0792
  176DG     H23 4048   0.799   0.566   1.726 -0.1525  1.2561  0.2898
  177DG      C1 4049   1.881   3.940   0.023 -0.1062  0.2633  0.6182
  177DG      C2 4050   1.770   4.557  -0.078 -0.2736 -0.2531 -0.5758
  177DG      H3 4051   1.863   3.853   0.086  0.7809  1.0270  1.9755
  177DG      H4 4052   1.975   3.977   0.064 -0.4684 -0.1208  1.8376
  177DG      H5 4053   1.902   3.921  -0.082 -1.8400  3.5826 -0.4975
  177DG      H6 4054   1.819   4.509  -0.163 -0.7668 -1.3761 -0.2434
  177DG      H7 4055   1.721   4.643  -0.125 -0.5406 -0.1428 -0.0979
  177DG      H8 4056   1.852   4.593  -0.016 -1.0445  1.0118 -0.2397
  177DG      O9 4057   1.775   4.028   0.029 -0.3248 -0.6091  0.0243
  177DG     O10 4058   1.678   4.479  -0.009 -0.0958  0.5552 -0.3181
  177DG     C11 4059   1.653   3.985  -0.035 -0.0810  0.7709 -0.0276
  177DG     C12 4060   1.580   4.430  -0.095 -0.0863 -0.6030 -0.1372
  177DG     H13 4061   1.621   3.893   0.014  0.9217 -0.1750 -1.0843
  177DG     H14 4062   1.667   3.971  -0.142 -3.4757 -2.2336 -0.2518
  177DG     H15 4063   1.625   4.403  -0.190 -2.4376 -0.9435 -1.2221
  177DG     H16 4064   1.510   4.514  -0.097 -0.1371 -0.5104  2.4407
  177DG     C17 4065   1.542   4.090  -0.015  0.1795 -0.4907 -0.4540
  177DG     C18 4066   1.499   4.310  -0.044 -0.2984 -0.3969 -0.0801
  177DG     O19 4067   1.598   4.215  -0.031  0.1055  0.0606 -0.1769
  177DG     H20 4068   1.524   4.081   0.092  0.7002 -1.3653 -0.4272
  177DG     H21 4069   1.446   4.066  -0.061 -0.1222  2.0433 -1.3387
  177DG     H22 4070   1.432   4.331   0.040  1.5026 -0.5476  1.4739
  177DG     H23 4071   1.431   4.288  -0.126  0.4474 -2.0575 -0.2966
  178DG      C1 4072   3.882   3.914   5.190  1.1421  0.3863  0.4695
  178DG      C2 4073   4.145   3.804   5.751 -0.3766  0.8015  0.1175
  178DG      H3 4074   3.872   3.828   5.123 -0.3840 -0.2832  1.5109
  178DG      H4 4075   3.980   3.961   5.180  1.4058 -0.0167  1.1099
  178DG      H5 4076   3.808   3.988   5.162  1.0779  0.0190 -0.3702
  178DG      H6 4077   4.161   3.767   5.853  3.2535  1.8762  0.0874
  178DG      H7 4078   4.234   3.858   5.717 -0.2404  1.3787  1.3236
  178DG      H8 4079   4.064   3.876   5.756 -1.9670 -0.8351 -1.0384
  178DG      O9 4080   3.876   3.868   5.324  0.3656 -0.1514  0.4732
  178DG     O10 4081   4.108   3.687   5.676  0.4563 -0.4543 -0.0660
  178DG     C11 4082   3.756   3.797   5.353 -0.2783  0.2169 -0.2813
  178DG     C12 4083   3.995   3.617   5.725  0.8191  0.0530 -0.3226
  178DG     H13 4084   3.761   3.701   5.303 -0.2668  0.3800 -0.5955
  178DG     H14 4085   3.667   3.853   5.323 -0.5716  0.4115  0.8912
  178DG     H15 4086   3.994   3.600   5.833 -0.1496 -0.2544 -0.3701
  178DG     H16 4087   4.001   3.517   5.683 -2.0825 -0.6355  0.6442
  178DG     C17 4088   3.754   3.783   5.507 -0.1381  0.3545 -0.0297
  178DG     C18 4089   3.861   3.689   5.692  0.9437  0.4495 -0.1132
  178DG     O19 4090   3.870   3.708   5.547  0.0603 -0.1925  0.0814
  178DG     H20 4091   3.664   3.734   5.545  0.5656 -0.6141  0.4030
  178DG     H21 4092   3.759   3.881   5.555  0.1277  0.3191  0.0167
  178DG     H22 4093   3.778   3.623   5.719 -0.8021  2.0947 -1.2295
  178DG     H23 4094   3.840   3.781   5.748 -1.5506  0.4501 -0.9255
  179DG      C1 4095   2.804   3.718   4.378  0.9880 -0.7404  0.1266
  179DG      C2 4096   2.514   3.650   3.763 -0.3092 -0.3835 -0.6014
  179DG      H3 4097   2.809   3.727   4.487  1.0299  0.0375  0.0631
  179DG      H4 4098   2.833   3.813   4.332 -2.3175 -0.3633 -1.4727
  179DG      H5 4099   2.864   3.634   4.343  1.3534  0.3398 -1.9664
  179DG      H6 4100   2.433   3.579   3.782 -0.2927  0.1245  1.6808
  179DG      H7 4101   2.467   3.727   3.702  1.6012 -0.1323 -1.8309
  179DG      H8 4102   2.594   3.605   3.704  1.7596 -1.6001  2.8236
  179DG      O9 4103   2.667   3.675   4.348  0.2133  0.0004 -0.0767
  179DG     O10 4104   2.554   3.691   3.889  0.3377 -0.0703 -0.5481
  179DG     C11 4105   2.578   3.785   4.364  0.0182 -0.0118  0.9972
  179DG     C12 4106   2.626   3.811   3.889 -0.2341 -0.0398 -0.3775
  179DG     H13 4107   2.594   3.845   4.454  2.4276  0.3070  0.4292
  179DG     H14 4108   2.484   3.729   4.368  0.2868 -1.2664 -3.8006
  179DG     H15 4109   2.617   3.876   3.802  0.6561 -0.1409 -0.5513
  179DG     H16 4110   2.730   3.777   3.886 -0.0007  0.6232  0.1016
  179DG     C17 4111   2.578   3.883   4.244 -0.7036  0.2702 -0.0771
  179DG     C18 4112   2.610   3.901   4.010  0.3159 -0.4397  0.0961
  179DG     O19 4113   2.592   3.815   4.121 -0.4139  0.6094  0.0627
  179DG     H20 4114   2.656   3.956   4.263 -0.9403  0.4626  0.1886
  179DG     H21 4115   2.485   3.940   4.249 -0.3011  1.0128 -1.0127
  179DG     H22 4116   2.702   3.958   4.029  0.5062 -1.1924  1.6513
  179DG     H23 4117   2.521   3.962   4.000  0.5246  0.6551  3.4931
  180DG      C1 4118   4.512   1.440   2.922  0.2744  0.0610  0.1260
  180DG      C2 4119   4.474   2.062   2.915  0.5263 -0.2547  0.3162
  180DG      H3 4120   4.557   1.452   2.823  0.9919 -1.5832  0.2161
  180DG      H4 4121   4.406   1.443   2.900  0.1323 -1.1348  0.5882
  180DG      H5 4122   4.543   1.341   2.955 -1.6798  0.0245  2.0375
  180DG      H6 4123   4.469   2.022   2.814  0.1811 -0.8872  0.5758
  180DG      H7 4124   4.382   2.099   2.962  0.3099 -1.6652  1.0687
  180DG      H8 4125   4.542   2.147   2.912 -0.2114  0.3119 -0.9658
  180DG      O9 4126   4.532   1.552   3.005 -0.0707  0.2157 -0.0232
  180DG     O10 4127   4.520   1.964   3.001 -0.3507  0.3699 -0.1113
  180DG     C11 4128   4.530   1.517   3.144  0.2616 -0.0022 -0.0530
  180DG     C12 4129   4.531   2.002   3.132 -0.5006 -0.4085 -0.1416
  180DG     H13 4130   4.596   1.432   3.160  1.4006  0.4437 -2.0631
  180DG     H14 4131   4.425   1.509   3.175  0.4570  0.2221  0.6894
  180DG     H15 4132   4.436   2.033   3.175 -0.7946  0.3891 -1.3215
  180DG     H16 4133   4.596   2.089   3.139 -1.3520  0.6341 -3.3986
  180DG     C17 4134   4.586   1.635   3.223 -0.6014 -0.7498 -0.6425
  180DG     C18 4135   4.594   1.876   3.197  0.2973  0.4943  0.5585
  180DG     O19 4136   4.518   1.757   3.186 -0.5146  0.7281  0.1817
  180DG     H20 4137   4.693   1.648   3.208 -0.0691  1.1532  3.4382
  180DG     H21 4138   4.579   1.630   3.331  0.8933  1.5851 -0.3664
  180DG     H22 4139   4.686   1.868   3.139 -0.0031  2.3862 -0.2282
  180DG     H23 4140   4.629   1.879   3.300  0.2156 -2.8555  0.7916
  181DG      C1 4141   2.643   2.431   2.305 -0.3206  0.5963 -0.0193
  181DG      C2 4142   3.355   2.398   2.316 -0.2976 -0.1786 -0.1000
  181DG      H3 4143   2.598   2.477   2.393 -0.6513  0.1380  0.0594
  181DG      H4 4144   2.568   2.361   2.268  1.5302 -2.5280  1.6877
  181DG      H5 4145   2.672   2.513   2.240  0.9716  1.8111  1.9778
  181DG      H6 4146   3.383   2.485   2.374 -0.1083 -0.6306  0.4980
  181DG      H7 4147   3.426   2.316   2.330  1.5287  1.0220 -1.8678
  181DG      H8 4148   3.350   2.425   2.210 -2.0145 -0.9699 -0.2622
  181DG      O9 4149   2.761   2.361   2.334 -0.0810  0.1834 -0.3832
  181DG     O10 4150   3.237   2.340   2.349  0.6417 -0.2339  0.1869
  181DG     C11 4151   2.747   2.284   2.456 -0.1988  0.2949  0.3113
  181DG     C12 4152   3.229   2.254   2.464 -0.0582 -0.0030 -0.3267
  181DG     H13 4153   2.652   2.233   2.472 -0.1921  0.1907  0.0301
  181DG     H14 4154   2.748   2.361   2.533 -0.2131  0.6804 -0.0695
  181DG     H15 4155   3.232   2.321   2.550  1.2872 -0.8373  0.3071
  181DG     H16 4156   3.314   2.186   2.461 -1.2123 -1.5076 -0.2236
  181DG     C17 4157   2.868   2.189   2.466  0.3552  0.0241 -0.7110
  181DG     C18 4158   3.099   2.173   2.469  0.4009  0.1697  0.2468
  181DG     O19 4159   2.984   2.262   2.454 -0.8948 -0.6020 -0.3729
  181DG     H20 4160   2.857   2.113   2.388 -0.1456 -1.4172  0.7046
  181DG     H21 4161   2.871   2.136   2.562  4.3746  1.1744 -0.0096
  181DG     H22 4162   3.099   2.103   2.386 -0.7997  0.3439  0.0741
  181DG     H23 4163   3.097   2.119   2.564  1.3207 -0.1766  0.0758
  182DG      C1 4164   1.712   4.479   3.365 -0.0850 -0.1218  0.6951
  182DG      C2 4165   1.578   5.022   3.722 -0.3108  0.4347  0.3576
  182DG      H3 4166   1.762   4.475   3.462  0.1313 -1.5822  0.5433
  182DG      H4 4167   1.791   4.474   3.290 -0.0922 -0.4772  0.7077
  182DG      H5 4168   1.649   4.390   3.357  0.3434 -0.3592 -0.1801
  182DG      H6 4169   1.685   5.009   3.741 -0.9540 -0.8747  3.6222
  182DG      H7 4170   1.562   5.128   3.702 -0.7345  0.1728 -0.7757
  182DG      H8 4171   1.532   4.997   3.817 -0.9132 -1.3974 -0.3637
  182DG      O9 4172   1.622   4.589   3.365 -0.2556 -0.1108  0.2483
  182DG     O10 4173   1.531   4.942   3.617 -0.0670  0.3151 -0.0263
  182DG     C11 4174   1.483   4.561   3.363 -0.2260 -0.0483 -0.0732
  182DG     C12 4175   1.393   4.959   3.602  1.3455  0.4535  0.0232
  182DG     H13 4176   1.452   4.511   3.454  0.4059  0.8939  0.6734
  182DG     H14 4177   1.475   4.494   3.277  0.7197 -1.2872  0.7614
  182DG     H15 4178   1.355   5.061   3.605 -0.8932 -0.2012 -2.6590
  182DG     H16 4179   1.346   4.911   3.688  1.8011  2.0414  1.2230
  182DG     C17 4180   1.394   4.688   3.350 -0.3798  0.0013  0.1217
  182DG     C18 4181   1.338   4.889   3.473  0.4354  0.1197  1.2642
  182DG     O19 4182   1.414   4.768   3.468  0.5406 -0.3729  0.1554
  182DG     H20 4183   1.287   4.667   3.340  0.0042 -1.3857 -1.6265
  182DG     H21 4184   1.423   4.746   3.262  0.7789  0.4522  0.7838
  182DG     H22 4185   1.231   4.867   3.471  0.4350  0.1470  0.7586
  182DG     H23 4186   1.366   4.942   3.382  1.6848 -0.4071  1.3254
  183DG      C1 4187   4.776   2.495   5.308 -0.3278  0.6388 -0.5442
  183DG      C2 4188   4.452   2.904   4.896 -0.3597 -0.3722 -0.7916
  183DG      H3 4189   4.783   2.463   5.204 -1.9949 -1.0019 -0.2054
  183DG      H4 4190   4.694   2.436   5.350 -0.5067 -0.1604 -1.9522
  183DG      H5 4191   4.863   2.469   5.368 -2.2320 -0.0551  2.1053
  183DG      H6 4192   4.442   3.004   4.856  1.3660  0.8761  1.6524
  183DG      H7 4193   4.471   2.833   4.815 -0.3431 -1.4410  0.1238
  183DG      H8 4194   4.356   2.872   4.936  0.0868 -0.4877  0.2108
  183DG      O9 4195   4.742   2.634   5.316 -0.0429 -0.0523 -0.4170
  183DG     O10 4196   4.563   2.906   4.984 -0.5321  0.4363 -0.0736
  183DG     C11 4197   4.860   2.717   5.313  0.5489 -0.1292  0.5839
  183DG     C12 4198   4.550   3.010   5.088 -0.5247  0.1773 -0.8031
  183DG     H13 4199   4.917   2.701   5.222 -1.6717 -2.8288 -0.5003
  183DG     H14 4200   4.925   2.686   5.395  1.7883 -0.9015 -0.6588
  183DG     H15 4201   4.460   2.994   5.147 -0.8626  0.5762 -1.2039
  183DG     H16 4202   4.543   3.108   5.041 -0.6661  1.1051  1.0884
  183DG     C17 4203   4.805   2.858   5.311  0.5217 -0.9874 -0.2890
  183DG     C18 4204   4.673   3.001   5.183  0.3293  0.3052 -0.2836
  183DG     O19 4205   4.710   2.864   5.204 -0.1147 -0.2248  0.2998
  183DG     H20 4206   4.874   2.941   5.300 -0.0791 -0.3524  0.5708
  183DG     H21 4207   4.742   2.871   5.399 -0.3135  0.4808 -1.0584
  183DG     H22 4208   4.756   3.054   5.137  1.5103 -0.1662  1.2028
  183DG     H23 4209   4.640   3.041   5.280 -1.0940  0.1460 -0.6718
  184DG      C1 4210   1.207   0.676   0.218 -0.6608  0.0648  0.0709
  184DG      C2 4211   1.978   0.851   0.224  0.2027  0.4949  0.2171
  184DG      H3 4212   1.213   0.627   0.315 -1.5870 -1.9580 -0.8412
  184DG      H4 4213   1.151   0.617   0.146 -2.8032  2.7739 -0.6489
  184DG      H5 4214   1.142   0.763   0.212 -0.4783  0.1349 -0.9826
  184DG      H6 4215   2.074   0.806   0.200  0.4289 -0.5576  2.7740
  184DG      H7 4216   1.979   0.958   0.202 -2.0783  0.1512 -2.1522
  184DG      H8 4217   1.956   0.840   0.330 -1.3265 -1.6331 -0.2495
  184DG      O9 4218   1.335   0.691   0.152  0.3159  0.2031  0.0540
  184DG     O10 4219   1.876   0.787   0.152  0.1382  0.0038  0.7467
  184DG     C11 4220   1.399   0.573   0.111 -0.0590  0.4753  0.5420
  184DG     C12 4221   1.754   0.836   0.184  0.3396  0.3569  0.0297
  184DG     H13 4222   1.326   0.519   0.051  2.1279 -0.0027 -1.8249
  184DG     H14 4223   1.435   0.501   0.185 -0.0926  0.4982  0.5807
  184DG     H15 4224   1.747   0.944   0.197 -1.7015  0.0812  1.8109
  184DG     H16 4225   1.711   0.795   0.275 -1.1565  0.1487 -0.7468
  184DG     C17 4226   1.517   0.612   0.020  0.0925  0.2538 -0.7683
  184DG     C18 4227   1.658   0.790   0.074  0.1248 -0.2237  0.4988
  184DG     O19 4228   1.614   0.662   0.109  0.3087 -0.1607  0.2885
  184DG     H20 4229   1.476   0.684  -0.051 -0.0481  1.7938  0.8077
  184DG     H21 4230   1.559   0.528  -0.035 -1.4275 -2.2886  1.6558
  184DG     H22 4231   1.577   0.862   0.087  0.5986  0.0261  2.4315
  184DG     H23 4232   1.700   0.785  -0.027 -0.9654 -1.2423  0.0769
  185DG      C1 4233   0.601   0.097   4.199 -0.5954 -0.2721  0.2994
  185DG      C2 4234   0.033   0.338   4.267  0.3762 -0.5039 -0.4665
  185DG      H3 4235   0.547   0.071   4.290  0.0503 -1.3514  0.3993
  185DG      H4 4236   0.661   0.186   4.216  0.2086 -0.4495 -1.3802
  185DG      H5 4237   0.680   0.022   4.195 -1.0693 -0.7748  0.2287
  185DG      H6 4238  -0.047   0.410   4.251  2.1256  2.3472  2.4542
  185DG      H7 4239  -0.008   0.256   4.326  1.9246  0.9024  2.8548
  185DG      H8 4240   0.084   0.392   4.347 -4.5530  1.6948  1.5464
  185DG      O9 4241   0.520   0.107   4.086 -0.0797  0.3907  0.4251
  185DG     O10 4242   0.107   0.298   4.157  0.7368  0.3548  0.1864
  185DG     C11 4243   0.436  -0.006   4.055 -0.6482  0.0449  0.0176
  185DG     C12 4244   0.033   0.196   4.081  0.1973  0.6236 -0.5581
  185DG     H13 4245   0.392  -0.057   4.140 -0.2903 -1.1282 -0.4841
  185DG     H14 4246   0.504  -0.082   4.016 -1.5194 -0.5810 -0.3064
  185DG     H15 4247  -0.062   0.227   4.038 -1.2561 -0.6557  1.5643
  185DG     H16 4248   0.017   0.119   4.156  0.7969  1.0548  0.0237
  185DG     C17 4249   0.321   0.011   3.957  0.0936  0.0504  0.2126
  185DG     C18 4250   0.119   0.117   3.970  0.5721 -0.3010 -0.3204
  185DG     O19 4251   0.246   0.107   4.023 -0.2866 -0.3411  0.3004
  185DG     H20 4252   0.261  -0.080   3.948 -1.2048  0.9969 -1.1596
  185DG     H21 4253   0.344   0.044   3.856 -1.6061  0.8875  0.0639
  185DG     H22 4254   0.068   0.023   3.950 -0.1883 -0.6401  2.6948
  185DG     H23 4255   0.105   0.172   3.878 -0.2057 -0.2115 -0.1589
  186DG      C1 4256   0.933   4.141   4.059 -0.3559 -0.4969  0.3268
  186DG      C2 4257   1.560   4.235   3.856 -0.2823  0.2942 -0.9837
  186DG      H3 4258   0.880   4.133   4.154  1.1776 -1.9888  1.1220
  186DG      H4 4259   0.993   4.051   4.041 -0.1834 -0.3765  0.2944
  186DG      H5 4260   0.863   4.146   3.976  2.0891 -0.2518 -1.8631
  186DG      H6 4261   1.601   4.165   3.928 -3.5628 -0.6334  0.1665
  186DG      H7 4262   1.517   4.182   3.771 -0.7934 -1.8659  0.5582
  186DG      H8 4263   1.641   4.302   3.828 -0.7683  0.2053 -2.7669
  186DG      O9 4264   1.023   4.253   4.079  0.2095  0.1170  0.1129
  186DG     O10 4265   1.453   4.310   3.910  0.2972 -0.1177 -0.6245
  186DG     C11 4266   1.100   4.233   4.199 -0.0596 -0.5969  0.8240
  186DG     C12 4267   1.487   4.390   4.027  0.0332 -0.0158  0.6968
  186DG     H13 4268   1.172   4.151   4.206  2.5673  1.6919  3.6257
  186DG     H14 4269   1.038   4.218   4.287  1.8931  1.0489  2.5997
  186DG     H15 4270   1.564   4.461   3.997  2.5708 -1.8465  2.4931
  186DG     H16 4271   1.540   4.337   4.106  1.1168  1.1349  0.7855
  186DG     C17 4272   1.185   4.367   4.217  0.0208 -0.0935  0.1705
  186DG     C18 4273   1.367   4.462   4.097  0.0667  0.3075 -0.2838
  186DG     O19 4274   1.274   4.350   4.111  0.0013 -0.2633  0.0353
  186DG     H20 4275   1.230   4.375   4.316  1.4111 -0.1704 -0.4434
  186DG     H21 4276   1.116   4.446   4.188 -0.0835 -0.3387 -0.2634
  186DG     H22 4277   1.385   4.517   4.189 -0.5721  1.0224 -0.5736
  186DG     H23 4278   1.327   4.539   4.031  1.4645 -0.2923 -1.8882
  187DG      C1 4279   1.819   4.294   0.428  0.3206 -0.2838  0.5828
  187DG      C2 4280   1.892   4.212  -0.251 -0.0598 -0.2088  0.3944
  187DG      H3 4281   1.738   4.230   0.394 -1.0285  2.1389 -1.0461
  187DG      H4 4282   1.776   4.364   0.500  1.0886  1.2284 -0.3794
  187DG      H5 4283   1.905   4.248   0.477  0.2711 -0.5285  0.4385
  187DG      H6 4284   1.925   4.109  -0.257 -0.5619 -0.3258 -0.6435
  187DG      H7 4285   1.785   4.207  -0.275  0.0181 -0.1934  0.0350
  187DG      H8 4286   1.933   4.276  -0.329  0.5157 -0.1189  0.7616
  187DG      O9 4287   1.863   4.373   0.310  0.3979  0.8001 -0.2967
  187DG     O10 4288   1.931   4.269  -0.130  0.6171 -0.3257  0.1223
  187DG     C11 4289   1.997   4.431   0.327  0.0760 -0.1734  0.0263
  187DG     C12 4290   2.068   4.288  -0.114 -0.0096  0.1580 -0.0647
  187DG     H13 4291   2.077   4.367   0.364 -0.3636 -0.6945  0.0842
  187DG     H14 4292   1.985   4.512   0.399 -0.5865  0.3819 -0.6874
  187DG     H15 4293   2.123   4.310  -0.206 -0.0666 -0.7249 -0.3198
  187DG     H16 4294   2.113   4.192  -0.090  0.4909 -0.1390 -2.0317
  187DG     C17 4295   2.036   4.486   0.189 -0.5428 -0.3173  0.1149
  187DG     C18 4296   2.098   4.406  -0.019  0.2105  0.1242  0.5280
  187DG     O19 4297   2.014   4.382   0.093 -0.0482  0.1530 -0.3893
  187DG     H20 4298   2.141   4.514   0.192  0.0609 -2.0083 -2.4525
  187DG     H21 4299   1.973   4.574   0.178 -0.8258 -0.4418  0.6739
  187DG     H22 4300   2.206   4.401  -0.002  0.3631 -0.4970 -0.5412
  187DG     H23 4301   2.078   4.495  -0.078 -0.6684 -0.9723 -0.8955
  188DG      C1 4302   4.890   3.392   3.246 -0.9954 -0.1120  0.2724
  188DG      C2 4303   5.448   3.574   2.721  0.1212  0.2455  0.2873
  188DG      H3 4304   4.834   3.442   3.166  0.3989  2.6290  0.8781
  188DG      H4 4305   4.889   3.474   3.318 -2.0353  0.7949 -0.7183
  188DG      H5 4306   4.837   3.310   3.294  1.3087 -1.1289  1.1819
  188DG      H6 4307   5.386   3.611   2.639 -0.0099 -0.3423  0.1127
  188DG      H7 4308   5.488   3.659   2.776  0.8275 -1.4183  2.4506
  188DG      H8 4309   5.531   3.518   2.678 -1.3717 -1.7583 -0.1176
  188DG      O9 4310   5.026   3.383   3.208  0.0270 -0.2461  0.0867
  188DG     O10 4311   5.374   3.494   2.816 -0.1405  0.5846 -0.7832
  188DG     C11 4312   5.044   3.282   3.107 -1.1573  0.2773 -0.5787
  188DG     C12 4313   5.270   3.565   2.875 -0.1672  0.1386 -0.0266
  188DG     H13 4314   4.995   3.307   3.012 -0.0988  3.0703 -0.4751
  188DG     H14 4315   5.025   3.177   3.130 -0.6509 -0.2363 -2.3060
  188DG     H15 4316   5.213   3.632   2.811  0.6548  1.3231  0.4578
  188DG     H16 4317   5.324   3.615   2.955  2.6899 -2.9383  0.2396
  188DG     C17 4318   5.198   3.269   3.082  0.0478 -0.3590 -0.3645
  188DG     C18 4319   5.183   3.463   2.932 -0.0131 -0.8242 -0.3713
  188DG     O19 4320   5.252   3.392   3.037 -0.3564  0.1067 -0.2791
  188DG     H20 4321   5.216   3.203   2.998 -0.9150 -0.0977 -0.7902
  188DG     H21 4322   5.242   3.235   3.176 -1.4828 -1.8071 -0.1187
  188DG     H22 4323   5.103   3.521   2.978  1.5403  3.1207 -2.1905
  188DG     H23 4324   5.139   3.394   2.859 -0.5370 -3.3290  2.1154
  189DG      C1 4325   1.721   2.286   3.783  0.5364 -0.5194  0.1041
  189DG      C2 4326   1.329   1.866   3.527 -0.4959 -0.0951  0.6255
  189DG      H3 4327   1.755   2.364   3.850 -0.3020 -0.0876  0.0320
  189DG      H4 4328   1.755   2.292   3.679 -1.0590  3.9863 -0.3808
  189DG      H5 4329   1.769   2.196   3.822 -0.0957  0.9020  4.7111
  189DG      H6 4330   1.239   1.806   3.513 -1.4418  1.2731  0.6007
  189DG      H7 4331   1.352   1.896   3.425 -2.4297 -0.1478  0.1202
  189DG      H8 4332   1.412   1.806   3.564  1.7265  0.7957 -2.5774
  189DG      O9 4333   1.579   2.278   3.791  0.0061 -0.3559 -0.2857
  189DG     O10 4334   1.298   1.978   3.609 -0.8984 -0.4021  0.2903
  189DG     C11 4335   1.511   2.399   3.762 -0.5618  0.4182  0.5351
  189DG     C12 4336   1.212   2.080   3.545 -0.2851 -0.3625 -0.4615
  189DG     H13 4337   1.548   2.448   3.672 -1.3914  2.0373  1.0428
  189DG     H14 4338   1.519   2.470   3.844 -0.4547 -1.4659  2.2270
  189DG     H15 4339   1.111   2.041   3.530  0.2928 -2.5774  0.9484
  189DG     H16 4340   1.246   2.123   3.451 -0.5825  0.5359 -0.1722
  189DG     C17 4341   1.358   2.367   3.735 -0.3453 -0.2936 -0.5088
  189DG     C18 4342   1.206   2.195   3.651  0.8989 -0.1121  0.2552
  189DG     O19 4343   1.342   2.238   3.676  0.2657 -0.1379  0.1271
  189DG     H20 4344   1.309   2.454   3.692 -2.4605 -1.2900 -0.2343
  189DG     H21 4345   1.310   2.367   3.833  1.0053  1.9338  0.2228
  189DG     H22 4346   1.151   2.279   3.608 -0.5137 -1.9328 -1.7218
  189DG     H23 4347   1.158   2.164   3.744 -0.1453 -3.0531 -1.1383
  190DG      C1 4348   3.301   5.456   5.083  0.5159 -0.2683  0.3077
  190DG      C2 4349   2.846   4.897   5.152 -0.0432 -0.0578 -0.2319
  190DG      H3 4350   3.307   5.514   5.175  2.1577  0.9738 -0.5309
  190DG      H4 4351   3.297   5.528   5.000 -0.8786 -1.3412 -0.6055
  190DG      H5 4352   3.391   5.395   5.080  0.3606 -0.8768  3.7998
  190DG      H6 4353   2.931   4.890   5.219  0.7088 -1.0000 -1.2334
  190DG      H7 4354   2.757   4.897   5.214 -0.9228  0.4469 -1.4449
  190DG      H8 4355   2.840   4.811   5.085 -3.0933  0.5384 -0.8539
  190DG      O9 4356   3.187   5.373   5.088 -0.5830 -0.0671 -0.3580
  190DG     O10 4357   2.838   5.010   5.080 -0.1726  0.4633  0.4335
  190DG     C11 4358   3.069   5.442   5.128  1.0022  0.0823  0.0597
  190DG     C12 4359   2.958   5.038   5.007  0.3457  0.7368 -0.5860
  190DG     H13 4360   3.077   5.550   5.135  0.9259 -0.0260  3.1052
  190DG     H14 4361   3.045   5.407   5.228 -1.2727  0.5345 -0.2563
  190DG     H15 4362   2.965   4.967   4.925  0.0809 -1.5255  1.2667
  190DG     H16 4363   3.044   5.035   5.073 -0.1082 -0.1390 -0.0118
  190DG     C17 4364   2.946   5.408   5.044 -0.2840  0.1848 -0.0370
  190DG     C18 4365   2.963   5.185   4.956 -0.3462  0.2182  0.5623
  190DG     O19 4366   2.909   5.272   5.059 -0.1715  0.7501  0.1528
  190DG     H20 4367   2.968   5.434   4.941  0.1029  1.6595  0.3996
  190DG     H21 4368   2.862   5.475   5.064 -0.1855  0.4181 -0.4030
  190DG     H22 4369   3.070   5.198   4.939 -0.2783  2.1383  2.0942
  190DG     H23 4370   2.914   5.194   4.859 -0.3389 -1.2072  0.4127
  191DG      C1 4371   3.020   2.667   2.438  0.0095 -0.0611  0.3137
  191DG      C2 4372   2.821   2.256   2.010 -0.2099 -0.5563 -0.0072
  191DG      H3 4373   2.924   2.717   2.446  0.6110  0.9605  1.4942
  191DG      H4 4374   3.094   2.730   2.487  0.3599 -0.6668  0.5777
  191DG      H5 4375   3.022   2.592   2.517 -0.9928  1.0764  1.4682
  191DG      H6 4376   2.743   2.332   2.000  0.1961 -0.2056 -0.5978
  191DG      H7 4377   2.804   2.190   1.925  1.6062 -0.1668 -0.7047
  191DG      H8 4378   2.793   2.200   2.099 -0.9902 -0.1692  0.0063
  191DG      O9 4379   3.057   2.618   2.313  0.2752 -0.0522 -0.1447
  191DG     O10 4380   2.946   2.319   2.014 -0.0700  0.7690 -0.7511
  191DG     C11 4381   3.067   2.722   2.216 -0.1171  0.7624 -0.7657
  191DG     C12 4382   2.966   2.397   1.902 -0.7945  0.1827  0.1742
  191DG     H13 4383   3.124   2.805   2.257  1.9785 -0.6638 -0.6339
  191DG     H14 4384   2.967   2.765   2.212 -0.6076 -0.3205 -0.4584
  191DG     H15 4385   2.869   2.442   1.878 -0.9121 -0.3691 -0.4073
  191DG     H16 4386   2.986   2.331   1.818 -1.4545  0.8293 -0.5092
  191DG     C17 4387   3.114   2.685   2.077 -0.8690  0.7975  0.4827
  191DG     C18 4388   3.085   2.491   1.926  0.7647  0.3770 -0.0396
  191DG     O19 4389   3.041   2.562   2.043 -0.3569 -0.3342  0.5802
  191DG     H20 4390   3.221   2.667   2.081 -1.1535 -1.5131 -0.7924
  191DG     H21 4391   3.101   2.768   2.007  0.7362 -0.2448 -1.1009
  191DG     H22 4392   3.174   2.430   1.940 -0.3304 -1.0492  1.0418
  191DG     H23 4393   3.107   2.565   1.849 -0.0537  0.6982  0.0256
  192DG      C1 4394   1.204   4.499   2.891  0.6942  0.4602  0.2979
  192DG      C2 4395   1.318   3.888   2.819 -0.5079  0.1137 -0.3508
  192DG      H3 4396   1.144   4.466   2.976  0.5803 -0.4530 -0.1212
  192DG      H4 4397   1.147   4.493   2.799  0.6403 -0.0278  0.3577
  192DG      H5 4398   1.234   4.603   2.903 -0.5057  0.7392  1.0663
  192DG      H6 4399   1.269   3.889   2.917 -0.8521 -0.6224 -0.5081
  192DG      H7 4400   1.242   3.895   2.741  0.6905  1.0543 -1.4614
  192DG      H8 4401   1.367   3.791   2.811  0.7624  0.6860  0.1378
  192DG      O9 4402   1.320   4.423   2.855 -0.1454 -0.0005  0.4223
  192DG     O10 4403   1.408   3.997   2.814  0.1699 -0.0420  0.3963
  192DG     C11 4404   1.421   4.438   2.955 -0.3273 -0.2452 -0.7945
  192DG     C12 4405   1.505   3.986   2.914 -0.6676 -0.2922 -0.4863
  192DG     H13 4406   1.393   4.414   3.058  3.2862 -0.2289  0.3156
  192DG     H14 4407   1.445   4.540   2.984  0.2404 -0.7126  0.4379
  192DG     H15 4408   1.582   3.914   2.884  2.3590  1.5436  2.1554
  192DG     H16 4409   1.464   3.960   3.012  0.7119 -0.6944  0.0204
  192DG     C17 4410   1.551   4.360   2.937  0.7434 -0.1459 -0.3747
  192DG     C18 4411   1.580   4.121   2.917 -0.0575 -0.7187 -0.6925
  192DG     O19 4412   1.502   4.235   2.886 -0.2821  0.5801 -0.2111
  192DG     H20 4413   1.609   4.352   3.029  0.1331  0.3603  0.0608
  192DG     H21 4414   1.619   4.394   2.858  1.9615 -0.9542  0.2844
  192DG     H22 4415   1.618   4.138   3.018 -0.4968  2.8990 -0.9860
  192DG     H23 4416   1.674   4.128   2.863  0.5317 -0.2737  0.3520
  193DG      C1 4417   4.172   3.018   3.893  0.3464  0.0500  0.3246
  193DG      C2 4418   4.250   3.369   3.847 -0.2098  0.5065  0.2417
  193DG      H3 4419   4.273   3.060   3.889  3.0204 -5.3700  0.5853
  193DG      H4 4420   4.120   3.066   3.811  2.1118 -0.7741 -1.3468
  193DG      H5 4421   4.168   2.910   3.874  2.6173 -0.5058  2.3524
  193DG      H6 4422   4.285   3.470   3.829  1.0794  0.4041  1.8806
  193DG      H7 4423   4.323   3.299   3.807 -0.2582  0.8776 -0.5070
  193DG      H8 4424   4.156   3.357   3.794 -0.1945  2.5472 -0.3240
  193DG      O9 4425   4.097   3.047   4.003  0.0779  0.3369  0.0970
  193DG     O10 4426   4.233   3.350   3.982  0.1327  0.8751 -0.2008
  193DG     C11 4427   4.140   2.989   4.122 -0.5564 -0.8124 -0.0996
  193DG     C12 4428   4.358   3.351   4.053  0.2020 -0.1304  0.8046
  193DG     H13 4429   4.161   2.884   4.101 -3.1298 -1.2820 -0.7933
  193DG     H14 4430   4.058   2.978   4.193  0.0954 -1.9991  0.4975
  193DG     H15 4431   4.398   3.452   4.059  0.1504 -0.1288  1.1119
  193DG     H16 4432   4.428   3.285   4.002 -2.7539 -0.2968 -3.6278
  193DG     C17 4433   4.265   3.070   4.167 -0.0066 -0.3945  0.1751
  193DG     C18 4434   4.331   3.295   4.194 -0.9084  0.4044 -0.3864
  193DG     O19 4435   4.225   3.208   4.186  0.2017  0.3376 -0.3220
  193DG     H20 4436   4.334   3.071   4.083 -0.6301 -1.1193 -0.3673
  193DG     H21 4437   4.325   3.033   4.251  0.9728 -0.7408 -0.6634
  193DG     H22 4438   4.420   3.247   4.236  0.8908  0.7690 -3.4934
  193DG     H23 4439   4.306   3.379   4.258 -1.3690 -0.4221  0.5438
  194DG      C1 4440   5.195   3.154   1.459  0.4865 -1.1421 -0.1788
  194DG      C2 4441   4.669   3.506   1.318  0.0137 -0.1729 -0.5193
  194DG      H3 4442   5.258   3.110   1.536  1.9472 -0.3549 -0.8872
  194DG      H4 4443   5.244   3.138   1.362 -0.5309  0.7887 -1.0508
  194DG      H5 4444   5.098   3.105   1.453 -1.1190  1.8312  0.1060
  194DG      H6 4445   4.687   3.608   1.352 -3.3522  1.3933 -2.8070
  194DG      H7 4446   4.702   3.498   1.214  0.1776  2.6358 -0.7581
  194DG      H8 4447   4.560   3.500   1.328 -0.0197  2.3138  1.3433
  194DG      O9 4448   5.182   3.294   1.483 -0.3105 -0.7221 -0.2687
  194DG     O10 4449   4.735   3.405   1.398  0.4874 -0.6324 -0.5681
  194DG     C11 4450   5.150   3.336   1.617 -0.0096  0.4131  0.3243
  194DG     C12 4451   4.696   3.420   1.536 -0.1621 -0.2681 -0.5940
  194DG     H13 4452   5.145   3.445   1.624 -0.9407  0.3350  1.1573
  194DG     H14 4453   5.233   3.325   1.686  0.6887  1.0307 -0.3952
  194DG     H15 4454   4.593   3.390   1.559 -0.0922  1.8549  3.2177
  194DG     H16 4455   4.708   3.520   1.577 -1.8593 -0.5398  0.6924
  194DG     C17 4456   5.018   3.286   1.663 -0.3802  0.1641  0.1088
  194DG     C18 4457   4.787   3.322   1.617  0.3607 -0.3768  0.5661
  194DG     O19 4458   4.915   3.365   1.600 -0.2649  0.4786 -0.1362
  194DG     H20 4459   5.001   3.294   1.770  0.9357 -0.3634  0.3757
  194DG     H21 4460   5.012   3.178   1.650 -1.2833  0.4216 -2.1357
  194DG     H22 4461   4.755   3.321   1.721  1.4517  1.2816  0.9657
  194DG     H23 4462   4.785   3.222   1.574 -0.0205 -0.0449 -0.2083
  195DG      C1 4463   4.921   1.428   1.211 -0.2905 -0.9095  1.0061
  195DG      C2 4464   4.969   0.828   1.476  0.1969 -0.0739  0.0726
  195DG      H3 4465   4.958   1.528   1.230 -0.2532 -0.6379 -0.4397
  195DG      H4 4466   4.819   1.423   1.250 -0.4055  0.0679  0.8352
  195DG      H5 4467   4.923   1.427   1.102 -0.8841  0.3493  0.9679
  195DG      H6 4468   4.948   0.861   1.578 -1.0234  1.1586 -0.5439
  195DG      H7 4469   4.880   0.837   1.415  0.4756  1.8160 -0.1120
  195DG      H8 4470   5.002   0.724   1.471 -0.6235 -0.3058 -0.6356
  195DG      O9 4471   5.017   1.335   1.253  0.4202  0.3694 -0.0823
  195DG     O10 4472   5.079   0.907   1.423 -0.2597  0.6690  0.1772
  195DG     C11 4473   5.131   1.342   1.175 -0.0573  0.2455 -0.0583
  195DG     C12 4474   5.123   0.865   1.295 -0.1836  0.1769  0.2152
  195DG     H13 4475   5.190   1.431   1.196  2.3625 -1.0880 -0.7760
  195DG     H14 4476   5.103   1.337   1.069  0.4037  1.6012 -0.2684
  195DG     H15 4477   5.042   0.822   1.235 -0.7420  0.1705  0.9542
  195DG     H16 4478   5.180   0.774   1.312 -1.9816 -1.0737 -0.1740
  195DG     C17 4479   5.212   1.215   1.213  0.5308  0.0546  0.8031
  195DG     C18 4480   5.206   0.980   1.246 -0.1020 -1.1071  0.2390
  195DG     O19 4481   5.129   1.102   1.239 -0.4735  0.0671  0.0274
  195DG     H20 4482   5.272   1.239   1.301  0.9237  1.5281  0.1524
  195DG     H21 4483   5.280   1.191   1.131 -1.0920  0.7972 -0.8273
  195DG     H22 4484   5.290   0.986   1.315  0.8127 -1.0594 -0.8467
  195DG     H23 4485   5.245   0.964   1.145 -0.2454  1.4147 -0.2845
  196DG      C1 4486   5.307   3.832   2.135  0.5228 -0.1082 -0.1636
  196DG      C2 4487   5.489   3.595   1.499 -1.1157  0.6436 -0.1669
  196DG      H3 4488   5.214   3.852   2.083  0.7668  3.8322  0.6453
  196DG      H4 4489   5.315   3.895   2.223  1.4564 -0.7773  0.2535
  196DG      H5 4490   5.297   3.729   2.169 -2.2941  0.6914  1.7729
  196DG      H6 4491   5.482   3.664   1.415 -0.2226  1.3268  0.2992
  196DG      H7 4492   5.572   3.532   1.469  0.6064  3.0224 -0.6909
  196DG      H8 4493   5.397   3.541   1.521 -0.1133  0.3942  4.5783
  196DG      O9 4494   5.407   3.832   2.040 -0.3683 -0.7568 -0.2787
  196DG     O10 4495   5.528   3.662   1.614 -0.7231 -0.9834 -0.7087
  196DG     C11 4496   5.455   3.960   2.007  0.4459  0.1808  0.6028
  196DG     C12 4497   5.621   3.771   1.586  0.1137  0.2751  0.7300
  196DG     H13 4498   5.473   4.030   2.088 -0.9213  2.2290 -0.7530
  196DG     H14 4499   5.376   3.985   1.935  1.3311 -3.2364 -1.8165
  196DG     H15 4500   5.588   3.843   1.511  2.1469  0.5807  0.0644
  196DG     H16 4501   5.705   3.718   1.540 -1.1424 -1.3379  0.1972
  196DG     C17 4502   5.578   3.949   1.916 -0.5556 -0.2529 -0.3594
  196DG     C18 4503   5.664   3.836   1.714  0.1747 -0.0231  0.1133
  196DG     O19 4504   5.550   3.862   1.800  0.6096  0.4498  0.2750
  196DG     H20 4505   5.666   3.909   1.967 -1.3914 -1.1333  0.4249
  196DG     H21 4506   5.589   4.055   1.891  0.4932  0.3767  2.4457
  196DG     H22 4507   5.744   3.775   1.755  2.5157  1.4715 -1.9220
  196DG     H23 4508   5.725   3.924   1.692  2.0240 -0.7980  1.8560
  197DG      C1 4509   2.810   3.400   2.537 -0.8886  0.1966  0.7250
  197DG      C2 4510   3.247   3.350   1.931  0.3289 -0.3423  0.2500
  197DG      H3 4511   2.772   3.502   2.526 -1.0010 -0.0626 -1.9800
  197DG      H4 4512   2.826   3.375   2.642 -1.1473 -1.4029  0.3958
  197DG      H5 4513   2.728   3.348   2.488 -0.5094  0.7193 -0.4870
  197DG      H6 4514   3.346   3.311   1.906 -0.1135 -0.9606 -0.5895
  197DG      H7 4515   3.175   3.269   1.920 -1.1536  0.9711  0.0173
  197DG      H8 4516   3.218   3.433   1.867 -0.5461 -0.1462  0.8915
  197DG      O9 4517   2.933   3.387   2.468 -0.1864  0.1307  0.3508
  197DG     O10 4518   3.243   3.397   2.065  0.0157 -1.0655  0.5002
  197DG     C11 4519   3.019   3.498   2.511 -0.1505 -0.3535  0.3408
  197DG     C12 4520   3.289   3.308   2.163 -0.4098 -0.3533 -0.4228
  197DG     H13 4521   3.000   3.523   2.615 -2.0143  1.0033 -0.2516
  197DG     H14 4522   2.992   3.588   2.454 -0.2554 -0.2278  0.5852
  197DG     H15 4523   3.394   3.283   2.148 -0.5809 -1.7852  0.5922
  197DG     H16 4524   3.239   3.212   2.163 -1.3271  0.0886  1.5071
  197DG     C17 4525   3.156   3.454   2.473 -0.3606 -0.1536 -0.4628
  197DG     C18 4526   3.294   3.385   2.296  0.4166  0.2007 -0.2924
  197DG     O19 4527   3.161   3.423   2.334 -0.1498 -0.3127 -0.1021
  197DG     H20 4528   3.180   3.362   2.526  0.0761 -0.8476 -1.8245
  197DG     H21 4529   3.233   3.530   2.484 -0.2120 -0.4813  0.8777
  197DG     H22 4530   3.344   3.318   2.366  3.1974  2.6712  0.2993
  197DG     H23 4531   3.364   3.468   2.287  2.0552 -0.9430  1.0955
  198DG      C1 4532   2.377   3.291   0.162  0.1649  0.6899 -0.9657
  198DG      C2 4533   2.770   3.349  -0.329  0.0893 -0.1674  0.0958
  198DG      H3 4534   2.478   3.329   0.146  1.0067 -1.1198 -0.2022
  198DG      H4 4535   2.366   3.283   0.270  1.1028  0.6626 -0.8654
  198DG      H5 4536   2.291   3.348   0.126 -0.8991 -0.0144  0.3495
  198DG      H6 4537   2.822   3.304  -0.414 -0.9012 -0.8893 -0.1436
  198DG      H7 4538   2.712   3.435  -0.360  1.0331  0.6293  0.4942
  198DG      H8 4539   2.856   3.379  -0.269 -0.0534 -0.7758  0.6173
  198DG      O9 4540   2.379   3.171   0.080 -0.9285 -0.4122 -0.1877
  198DG     O10 4541   2.698   3.255  -0.247 -0.1834  0.0641  0.0755
  198DG     C11 4542   2.485   3.081   0.116  0.0880 -0.2385  0.5671
  198DG     C12 4543   2.743   3.121  -0.254  0.5033 -0.0136 -0.6591
  198DG     H13 4544   2.464   3.024   0.206  0.1480  0.7923  1.2494
  198DG     H14 4545   2.579   3.133   0.134 -0.9096  1.4510  1.0680
  198DG     H15 4546   2.851   3.113  -0.246  0.5426  0.1990 -0.9473
  198DG     H16 4547   2.708   3.084  -0.350  0.2024  0.4029 -0.7169
  198DG     C17 4548   2.513   2.986  -0.003 -0.4503  0.0191  0.1317
  198DG     C18 4549   2.691   3.026  -0.148 -0.3107  0.3008 -0.0580
  198DG     O19 4550   2.561   3.058  -0.109  0.1418  0.2364 -0.0904
  198DG     H20 4551   2.420   2.943  -0.040 -0.8836  0.9555  0.1060
  198DG     H21 4552   2.583   2.906   0.020  1.3030  1.1089 -1.1779
  198DG     H22 4553   2.685   2.921  -0.178 -1.4205  0.8750 -2.0793
  198DG     H23 4554   2.754   3.028  -0.060  0.4837  1.4954 -0.6303
  199DG      C1 4555   1.386   3.235   0.977 -0.0310  0.2184 -0.1598
  199DG      C2 4556   1.393   3.092   0.226  0.2216  0.4556 -0.3583
  199DG      H3 4557   1.360   3.307   1.055  0.2586 -0.8588  0.9644
  199DG      H4 4558   1.495   3.236   0.981  0.0005  2.1063 -0.6335
  199DG      H5 4559   1.351   3.138   1.012 -3.1562  1.7103  1.2943
  199DG      H6 4560   1.483   3.044   0.263  1.2523  1.0410 -1.9977
  199DG      H7 4561   1.315   3.019   0.205  0.0390 -0.3517  2.6129
  199DG      H8 4562   1.421   3.147   0.136 -0.1316 -1.8669 -1.9676
  199DG      O9 4563   1.343   3.268   0.848 -0.0147 -0.3452 -0.2124
  199DG     O10 4564   1.363   3.178   0.332  0.0130  0.9124  0.8598
  199DG     C11 4565   1.208   3.251   0.826  0.1439  0.3945 -0.0573
  199DG     C12 4566   1.246   3.256   0.322 -0.4020 -0.7142  0.0288
  199DG     H13 4567   1.154   3.306   0.903 -0.9847 -1.8373  0.8564
  199DG     H14 4568   1.188   3.145   0.840  1.3429  0.1996  0.2605
  199DG     H15 4569   1.160   3.191   0.302 -0.8013 -0.3621  0.5965
  199DG     H16 4570   1.241   3.336   0.248 -1.1606 -0.7785 -0.0001
  199DG     C17 4571   1.171   3.318   0.690  0.6298 -0.2377 -0.6494
  199DG     C18 4572   1.220   3.333   0.450 -0.1288  0.5513 -0.2968
  199DG     O19 4573   1.220   3.248   0.574  0.2315 -0.0197 -0.3536
  199DG     H20 4574   1.205   3.422   0.684 -0.3991  0.3907  2.6306
  199DG     H21 4575   1.063   3.313   0.694  0.6471 -2.4384 -1.4415
  199DG     H22 4576   1.282   3.421   0.468  2.7000 -1.2304 -0.7734
  199DG     H23 4577   1.114   3.359   0.439  0.1250  1.2782 -1.2182
  200DG      C1 4578   2.802   5.466   1.850 -0.2876  0.0369 -0.1184
  200DG      C2 4579   3.365   5.829   2.026  0.0050  0.4281  0.3931
  200DG      H3 4580   2.831   5.375   1.902 -0.5232 -0.8460 -1.4791
  200DG      H4 4581   2.847   5.485   1.753  0.5516  2.2156  0.6437
  200DG      H5 4582   2.695   5.484   1.845 -0.4296  0.3403  2.5396
  200DG      H6 4583   3.415   5.881   2.108 -2.8054  1.5500  1.5378
  200DG      H7 4584   3.429   5.801   1.942 -1.2317  1.2598 -0.8698
  200DG      H8 4585   3.295   5.904   1.989 -0.1405  0.5797  0.9631
  200DG      O9 4586   2.859   5.572   1.922  0.5202  0.2343 -0.2035
  200DG     O10 4587   3.295   5.726   2.089  0.1674  0.4365  0.3337
  200DG     C11 4588   2.814   5.585   2.062 -0.1822 -0.2911  0.3107
  200DG     C12 4589   3.247   5.755   2.218  0.5732 -0.5611 -0.3885
  200DG     H13 4590   2.738   5.510   2.085  0.7348 -1.1134  0.7226
  200DG     H14 4591   2.756   5.677   2.064  0.7887  0.3381 -0.0634
  200DG     H15 4592   3.225   5.862   2.226  3.5785  0.1625 -0.3841
  200DG     H16 4593   3.326   5.736   2.291  0.8728  0.3838 -0.4422
  200DG     C17 4594   2.921   5.574   2.173 -0.1162 -0.1756  0.2168
  200DG     C18 4595   3.129   5.661   2.255 -0.0879 -0.1998  0.0412
  200DG     O19 4596   3.027   5.668   2.151 -0.4440  0.5776 -0.9287
  200DG     H20 4597   2.964   5.475   2.176  0.4081  0.0589  0.4371
  200DG     H21 4598   2.867   5.587   2.267 -2.0622 -0.9312 -0.7420
  200DG     H22 4599   3.156   5.556   2.267  2.0185  0.5717  3.6194
  200DG     H23 4600   3.093   5.678   2.357 -1.1285  0.1107 -0.3646
  201DG      C1 4601   2.111   4.025   4.754  0.4326 -0.7673  0.1012
  201DG      C2 4602   2.650   4.511   4.941  0.7273  0.2859  0.0651
  201DG      H3 4603   2.023   4.069   4.801  1.2791  0.9514  0.1319
  201DG      H4 4604   2.150   3.945   4.818  1.1610 -0.1119  0.4829
  201DG      H5 4605   2.077   3.967   4.669  0.2861 -0.5138 -0.0134
  201DG      H6 4606   2.577   4.551   5.011  0.9557 -0.5004  0.7728
  201DG      H7 4607   2.716   4.452   5.005  1.4195  1.8661  0.8581
  201DG      H8 4608   2.723   4.579   4.897 -0.0752  0.4270 -1.1024
  201DG      O9 4609   2.214   4.118   4.721 -0.0055 -0.2331 -0.1533
  201DG     O10 4610   2.576   4.439   4.846 -0.2638 -0.6816  1.0974
  201DG     C11 4611   2.321   4.058   4.644  0.9030  0.1492 -0.2898
  201DG     C12 4612   2.665   4.362   4.762  1.0395  0.1699  0.1779
  201DG     H13 4613   2.278   4.002   4.561  3.3936 -0.1088 -1.5085
  201DG     H14 4614   2.367   3.984   4.711 -0.0651 -0.4013 -0.2169
  201DG     H15 4615   2.708   4.280   4.818 -1.4946 -1.4468 -0.1133
  201DG     H16 4616   2.746   4.427   4.726 -0.6667  1.7549 -1.0213
  201DG     C17 4617   2.427   4.148   4.599 -0.0527 -0.7407  0.3360
  201DG     C18 4618   2.598   4.292   4.648 -0.1189 -0.0426  0.0643
  201DG     O19 4619   2.484   4.226   4.707 -0.0611 -0.1624  0.3278
  201DG     H20 4620   2.397   4.215   4.519 -0.7085 -0.0841  1.1059
  201DG     H21 4621   2.496   4.075   4.556  1.5943  0.3415  1.0439
  201DG     H22 4622   2.561   4.363   4.574 -1.6716 -0.2242  0.6306
  201DG     H23 4623   2.667   4.213   4.617  1.9725  0.8306  2.1748
  202DG      C1 4624   5.043   2.933   0.098  0.5363  0.2296 -0.0850
  202DG      C2 4625   5.297   2.525   0.847 -0.1907 -0.0965 -0.2176
  202DG      H3 4626   4.955   2.970   0.152  1.0657 -0.3409  1.1894
  202DG      H4 4627   5.009   2.902  -0.001 -0.7349 -0.6712  0.6023
  202DG      H5 4628   5.121   3.009   0.090 -0.8399  1.5980 -1.4274
  202DG      H6 4629   5.297   2.416   0.855  3.4948 -0.1613  0.4110
  202DG      H7 4630   5.385   2.577   0.885  0.7660 -2.0683  0.3830
  202DG      H8 4631   5.213   2.552   0.911 -0.5386 -1.2723 -0.1608
  202DG      O9 4632   5.092   2.815   0.157 -0.0374 -0.4601  0.6121
  202DG     O10 4633   5.273   2.584   0.715 -0.2172  0.3540 -0.8263
  202DG     C11 4634   5.145   2.830   0.282  0.5605  0.4364 -0.3036
  202DG     C12 4635   5.365   2.555   0.617 -0.1659 -0.0471 -0.4849
  202DG     H13 4636   5.068   2.862   0.352 -2.9035 -0.8051 -3.2094
  202DG     H14 4637   5.219   2.910   0.279  1.6892 -0.3821  2.6919
  202DG     H15 4638   5.402   2.454   0.631 -0.1263 -0.0328 -0.4891
  202DG     H16 4639   5.440   2.632   0.634 -0.2196  0.9953 -4.0789
  202DG     C17 4640   5.211   2.701   0.323 -0.5833  0.3561  0.2562
  202DG     C18 4641   5.295   2.569   0.490  0.4375  0.1174  0.0434
  202DG     O19 4642   5.278   2.707   0.444 -0.4421  0.4123 -0.2281
  202DG     H20 4643   5.274   2.664   0.242 -0.7925  0.0254  0.2434
  202DG     H21 4644   5.132   2.627   0.314 -1.0492  0.7948  0.7305
  202DG     H22 4645   5.350   2.510   0.417  1.2207  1.2122 -0.2731
  202DG     H23 4646   5.202   2.513   0.494  1.5206 -1.6814  1.5638
  203DG      C1 4647   1.369   0.351   3.049  0.2198  0.3791 -0.2002
  203DG      C2 4648   1.232   0.175   3.670 -0.1010  0.1390 -0.3169
  203DG      H3 4649   1.459   0.413   3.037  0.6104 -0.2997 -0.8582
  203DG      H4 4650   1.291   0.423   3.073 -1.0448  1.3162 -5.7525
  203DG      H5 4651   1.356   0.307   2.950 -1.6128 -2.2613  1.1033
  203DG      H6 4652   1.242   0.116   3.761 -1.0418 -1.5541 -1.2636
  203DG      H7 4653   1.267   0.276   3.691 -1.2289  0.2974  0.9236
  203DG      H8 4654   1.125   0.178   3.651 -1.3026 -3.3665  4.1801
  203DG      O9 4655   1.392   0.247   3.141  0.7867  0.5020  0.1078
  203DG     O10 4656   1.295   0.106   3.566  0.0943  0.4632 -0.6540
  203DG     C11 4657   1.524   0.191   3.142  0.7879 -0.7068 -0.0771
  203DG     C12 4658   1.436   0.096   3.587  0.2212 -0.1438  0.0256
  203DG     H13 4659   1.583   0.275   3.180 -0.6253 -0.9771  3.0092
  203DG     H14 4660   1.552   0.172   3.039 -1.7482  0.0863 -0.9681
  203DG     H15 4661   1.446   0.028   3.672 -0.3459 -1.5278 -0.9840
  203DG     H16 4662   1.480   0.194   3.604 -0.2354  0.1863 -0.6183
  203DG     C17 4663   1.546   0.074   3.243  0.1576  0.5972  0.2875
  203DG     C18 4664   1.514   0.033   3.471 -0.2215  0.5457  0.3774
  203DG     O19 4665   1.486   0.113   3.358  0.0093 -0.5431  0.1676
  203DG     H20 4666   1.653   0.063   3.261  0.2634  1.2621  0.1158
  203DG     H21 4667   1.514  -0.025   3.211  3.0347 -1.1376  2.2524
  203DG     H22 4668   1.621   0.024   3.491 -0.2842  0.9959  0.9378
  203DG     H23 4669   1.482  -0.067   3.442  1.0411  0.0717  0.5450
  204DG      C1 4670   0.561   3.055   2.793  0.3160  0.2917 -0.0067
  204DG      C2 4671   0.482   2.253   3.012  0.4732  0.0860  0.0771
  204DG      H3 4672   0.667   3.080   2.797  0.4793 -0.4541  0.8031
  204DG      H4 4673   0.523   3.156   2.808 -0.4596  0.0563 -0.3595
  204DG      H5 4674   0.529   3.022   2.694  0.9013 -0.9215  0.1854
  204DG      H6 4675   0.588   2.257   2.988  0.1893  0.4574 -1.2016
  204DG      H7 4676   0.468   2.259   3.120  0.0483 -0.6925  0.0699
  204DG      H8 4677   0.452   2.155   2.976 -1.8294  0.7769 -0.0385
  204DG      O9 4678   0.516   2.968   2.892  0.0324  0.2753  0.4033
  204DG     O10 4679   0.405   2.338   2.941 -0.4443 -0.5664  0.3790
  204DG     C11 4680   0.374   2.935   2.876 -0.4547  0.2669 -0.0689
  204DG     C12 4681   0.462   2.467   2.956 -0.2121  0.1260 -0.7750
  204DG     H13 4682   0.318   3.009   2.820 -1.1210  0.1173  0.3819
  204DG     H14 4683   0.316   2.936   2.968 -0.8467  1.1438 -0.3182
  204DG     H15 4684   0.567   2.476   2.928 -0.2487  1.2256 -0.5805
  204DG     H16 4685   0.449   2.494   3.061  3.3132 -0.3227 -0.0791
  204DG     C17 4686   0.351   2.793   2.825 -0.5027  0.2149  0.0027
  204DG     C18 4687   0.375   2.569   2.883  0.0687  0.2291 -0.6834
  204DG     O19 4688   0.418   2.702   2.910 -0.7131 -0.3678 -0.1311
  204DG     H20 4689   0.399   2.797   2.727  0.3693  1.4701  0.4542
  204DG     H21 4690   0.244   2.778   2.817 -0.7551  1.8161  0.1299
  204DG     H22 4691   0.370   2.565   2.774  0.2704  1.5300 -0.7580
  204DG     H23 4692   0.272   2.554   2.914 -0.5316  1.7866 -1.8091
  205DG      C1 4693   0.719   4.750   0.961  0.5551 -0.1018  0.0030
  205DG      C2 4694   0.314   4.832   1.361  0.2698 -0.1380  0.1454
  205DG      H3 4695   0.813   4.696   0.972 -0.5510 -1.9751  0.6003
  205DG      H4 4696   0.727   4.820   0.877  0.4111 -0.4887 -0.3353
  205DG      H5 4697   0.645   4.675   0.934  1.0813 -0.6398  0.0222
  205DG      H6 4698   0.265   4.868   1.270 -0.9297 -0.5808  0.5938
  205DG      H7 4699   0.315   4.723   1.364 -1.6981 -0.4419 -3.5485
  205DG      H8 4700   0.255   4.867   1.445 -1.4382  1.8733 -1.7743
  205DG      O9 4701   0.691   4.803   1.089 -0.3144  0.0633 -0.3718
  205DG     O10 4702   0.455   4.874   1.372  0.0302 -0.3879 -0.0930
  205DG     C11 4703   0.798   4.887   1.134 -0.0326  0.6370  0.1593
  205DG     C12 4704   0.469   5.012   1.409  0.4677 -0.1156  0.2612
  205DG     H13 4705   0.820   4.965   1.062  1.6354  2.0635  2.0902
  205DG     H14 4706   0.889   4.827   1.144 -0.2530  0.1529 -0.6248
  205DG     H15 4707   0.441   5.017   1.515 -2.4441  1.6036 -0.4640
  205DG     H16 4708   0.401   5.073   1.349  0.7333 -0.7710 -0.7174
  205DG     C17 4709   0.775   4.936   1.276  0.3552  0.0412  1.0201
  205DG     C18 4710   0.613   5.063   1.397 -0.4770 -0.6274  0.8725
  205DG     O19 4711   0.662   5.031   1.267  0.1702  0.5642 -0.9448
  205DG     H20 4712   0.867   4.982   1.313  1.7734  0.3405 -2.4622
  205DG     H21 4713   0.753   4.847   1.335 -3.2418 -1.2632 -1.8778
  205DG     H22 4714   0.617   5.171   1.406  1.1087 -0.6176  0.3053
  205DG     H23 4715   0.670   5.016   1.477  0.2367 -0.4309  0.4834
  206DG      C1 4716   3.748   0.734   0.037 -0.1554 -0.5066 -0.0109
  206DG      C2 4717   3.197   0.283  -0.125 -0.4034 -0.4365  0.4441
  206DG      H3 4718   3.853   0.760   0.018  0.4476 -0.5982  2.7719
  206DG      H4 4719   3.745   0.738   0.146 -1.5623  1.2674 -0.0610
  206DG      H5 4720   3.688   0.818   0.001  1.3002  0.2763 -0.7130
  206DG      H6 4721   3.176   0.182  -0.161 -1.2801  0.2042 -0.8917
  206DG      H7 4722   3.144   0.295  -0.031 -0.4330  2.4224  0.1459
  206DG      H8 4723   3.152   0.359  -0.189 -1.5129 -1.2662  0.2059
  206DG      O9 4724   3.706   0.604  -0.008 -0.4781 -0.4027 -0.2099
  206DG     O10 4725   3.335   0.297  -0.104 -0.0434 -0.1840  0.4474
  206DG     C11 4726   3.796   0.506   0.046  0.1236  0.6987  0.4858
  206DG     C12 4727   3.405   0.214  -0.022 -0.7465  0.0746  0.3489
  206DG     H13 4728   3.797   0.510   0.155  1.3921 -0.0112  0.5285
  206DG     H14 4729   3.899   0.528   0.017  0.4252  0.1780  1.1131
  206DG     H15 4730   3.380   0.111  -0.047  0.2822 -0.7262  2.3410
  206DG     H16 4731   3.373   0.224   0.082 -0.4670  1.7302  0.3071
  206DG     C17 4732   3.742   0.371  -0.007 -0.7793  0.9195  0.4826
  206DG     C18 4733   3.558   0.240  -0.038 -0.4116  0.0559 -0.0794
  206DG     O19 4734   3.602   0.370  -0.002 -0.3620 -0.1834 -0.0018
  206DG     H20 4735   3.785   0.286   0.044 -1.3160 -0.1604 -0.8156
  206DG     H21 4736   3.765   0.369  -0.113 -3.0127  1.1453 -0.0707
  206DG     H22 4737   3.598   0.157   0.021 -1.3591 -1.3615 -1.3422
  206DG     H23 4738   3.592   0.201  -0.134  0.6087 -1.7357  0.9355
  207DG      C1 4739   0.201   3.094   2.063  0.6371  0.3240  0.4164
  207DG      C2 4740   0.168   3.097   1.254  1.0395 -0.4674  0.4864
  207DG      H3 4741   0.105   3.064   2.106  0.1280 -0.0170 -0.8897
  207DG      H4 4742   0.257   3.153   2.135  3.5231 -0.3591 -1.1036
  207DG      H5 4743   0.250   2.999   2.040  0.2048 -0.0086  0.8658
  207DG      H6 4744   0.239   3.040   1.195 -0.8114 -1.6770 -0.7090
  207DG      H7 4745   0.087   3.034   1.292  0.1808  1.0069  1.1834
  207DG      H8 4746   0.119   3.170   1.190 -0.2120 -1.0708  0.7186
  207DG      O9 4747   0.199   3.164   1.939 -0.3031  0.2162  0.3243
  207DG     O10 4748   0.234   3.150   1.365  0.0159 -0.1577 -0.4243
  207DG     C11 4749   0.335   3.175   1.886  0.0029 -0.8164 -0.3614
  207DG     C12 4750   0.164   3.235   1.443 -0.9819  0.1923 -0.3763
  207DG     H13 4751   0.378   3.079   1.857  1.0936  0.2890 -2.6791
  207DG     H14 4752   0.397   3.220   1.963 -0.0721 -2.2502  0.5835
  207DG     H15 4753   0.087   3.175   1.491  1.0875 -1.4053  1.1991
  207DG     H16 4754   0.120   3.312   1.380 -2.7549  1.1957  1.9323
  207DG     C17 4755   0.332   3.276   1.772 -0.3698 -0.2929  0.8779
  207DG     C18 4756   0.251   3.304   1.553  0.2965  0.1349  0.3891
  207DG     O19 4757   0.275   3.213   1.659 -0.3244  0.1456  0.1662
  207DG     H20 4758   0.437   3.303   1.755 -0.7336  1.3649  1.0506
  207DG     H21 4759   0.284   3.369   1.803 -0.4482  0.5225 -1.4713
  207DG     H22 4760   0.339   3.353   1.510  0.3183 -0.3474 -0.1170
  207DG     H23 4761   0.187   3.382   1.594 -0.1486  1.5236 -2.6622
  208DG      C1 4762   3.716   4.684   3.211 -0.3939  0.3990  0.0886
  208DG      C2 4763   3.733   4.770   3.854  0.4966  0.3876  0.4133
  208DG      H3 4764   3.663   4.667   3.117 -1.0961 -0.5520  0.6441
  208DG      H4 4765   3.742   4.582   3.238 -0.6482  0.1874 -0.4482
  208DG      H5 4766   3.810   4.735   3.186 -0.1547 -0.9439 -1.9442
  208DG      H6 4767   3.730   4.677   3.911  2.5583 -0.5605 -0.9187
  208DG      H7 4768   3.837   4.794   3.835  0.8571 -0.4428  1.2328
  208DG      H8 4769   3.696   4.844   3.925  0.8885 -0.8758  2.0012
  208DG      O9 4770   3.633   4.754   3.295  0.6326  0.2285 -0.2941
  208DG     O10 4771   3.646   4.765   3.745  0.5388  0.1465 -0.1152
  208DG     C11 4772   3.497   4.715   3.288  0.4523 -0.3458  0.3862
  208DG     C12 4773   3.504   4.756   3.767  1.0497 -0.0565 -0.5081
  208DG     H13 4774   3.490   4.606   3.284  1.5587 -0.4617  1.2399
  208DG     H14 4775   3.459   4.752   3.193 -1.0348  0.1338  1.1309
  208DG     H15 4776   3.483   4.818   3.855  0.4100  0.2140 -0.8437
  208DG     H16 4777   3.469   4.657   3.795 -0.1658 -0.1183 -2.1287
  208DG     C17 4778   3.421   4.782   3.407  0.0069 -0.5764  0.4226
  208DG     C18 4779   3.421   4.797   3.649 -0.2805 -0.3100  0.0883
  208DG     O19 4780   3.476   4.738   3.531 -0.4545  0.0688  0.6966
  208DG     H20 4781   3.315   4.755   3.406 -0.2729  0.4775 -0.7604
  208DG     H21 4782   3.421   4.890   3.395  1.2471 -0.6022  0.0699
  208DG     H22 4783   3.314   4.782   3.668 -0.5998  0.1218 -1.2681
  208DG     H23 4784   3.426   4.906   3.639  2.7011 -0.4263 -0.6139
  209DG      C1 4785   2.869   1.405   4.628 -0.5694 -0.5365  0.2482
  209DG      C2 4786   3.012   1.966   4.794  0.5353 -0.3830  0.4950
  209DG      H3 4787   2.902   1.320   4.568  0.2202  1.1817 -1.8916
  209DG      H4 4788   2.809   1.468   4.563 -0.2135  1.8755  2.1444
  209DG      H5 4789   2.813   1.388   4.720  1.1983 -1.3365  1.2402
  209DG      H6 4790   2.983   2.012   4.699  0.1392 -1.0120  0.3100
  209DG      H7 4791   2.934   1.898   4.827 -0.5199  0.2929 -0.5131
  209DG      H8 4792   3.019   2.042   4.872 -1.6167  0.2709  0.1405
  209DG      O9 4793   2.989   1.477   4.666  0.2812 -0.1510 -0.3616
  209DG     O10 4794   3.133   1.910   4.778  0.0373  0.3291 -0.6006
  209DG     C11 4795   3.062   1.434   4.781  0.1902  0.4694  0.2721
  209DG     C12 4796   3.178   1.846   4.893 -0.2259 -0.0704 -0.3676
  209DG     H13 4797   3.077   1.327   4.767 -2.4113 -0.0060  0.5559
  209DG     H14 4798   3.008   1.447   4.875 -1.0697 -0.9154 -0.2192
  209DG     H15 4799   3.133   1.896   4.979  0.8852  0.2189  0.0652
  209DG     H16 4800   3.283   1.873   4.903 -0.2468 -0.4930  1.1291
  209DG     C17 4801   3.196   1.500   4.771 -0.4345 -0.5168 -0.6889
  209DG     C18 4802   3.163   1.702   4.899 -0.2295 -0.7148 -0.1696
  209DG     O19 4803   3.185   1.643   4.772 -0.1509  0.4928 -0.4502
  209DG     H20 4804   3.229   1.482   4.669 -0.0057  0.5542 -0.7584
  209DG     H21 4805   3.276   1.462   4.835  0.3497 -0.0333 -1.3603
  209DG     H22 4806   3.239   1.670   4.971  1.5675  1.2081 -1.1175
  209DG     H23 4807   3.065   1.665   4.930 -1.2930  2.5747  0.7683
  210DG      C1 4808   4.542   0.322   0.592  0.8786  0.2837  0.8930
  210DG      C2 4809   3.944   0.025   0.787 -0.6054  0.6706  0.3365
  210DG      H3 4810   4.640   0.293   0.552  0.9265  0.7655  0.6531
  210DG      H4 4811   4.542   0.326   0.701  0.2804 -1.2202  0.9737
  210DG      H5 4812   4.511   0.417   0.548  1.3741 -0.5904 -1.4784
  210DG      H6 4813   3.852   0.007   0.732  0.7535  2.7293 -2.8957
  210DG      H7 4814   3.975  -0.053   0.857  1.8847 -0.8372 -2.2267
  210DG      H8 4815   3.937   0.117   0.845 -1.1036  0.4381  0.6477
  210DG      O9 4816   4.453   0.224   0.540 -0.6908  0.5187 -0.1587
  210DG     O10 4817   4.050   0.038   0.697  0.6681 -0.9793 -0.7553
  210DG     C11 4818   4.439   0.205   0.402  0.0529  1.0444 -0.1187
  210DG     C12 4819   4.027  -0.001   0.564  0.2778  0.1368  0.3203
  210DG     H13 4820   4.529   0.183   0.344 -1.5141 -1.6411 -1.7626
  210DG     H14 4821   4.393   0.298   0.368 -1.6466  1.3033  2.6487
  210DG     H15 4822   3.973   0.085   0.523  1.3188  0.7627  0.2158
  210DG     H16 4823   3.966  -0.091   0.566  1.7385 -1.1644 -3.6103
  210DG     C17 4824   4.344   0.081   0.387 -0.4386  0.4506  1.3282
  210DG     C18 4825   4.151  -0.035   0.476 -0.2158  1.2380 -0.3260
  210DG     O19 4826   4.229   0.089   0.473 -0.1485  0.0658  0.0907
  210DG     H20 4827   4.397  -0.013   0.401 -2.0114 -0.4537  1.5232
  210DG     H21 4828   4.304   0.066   0.286  3.2280  1.6233 -0.4815
  210DG     H22 4829   4.215  -0.121   0.496  1.3454  2.0296 -1.5888
  210DG     H23 4830   4.119  -0.048   0.373 -1.6142  0.7764  0.1448
  211DG      C1 4831   2.063   5.075   4.123 -0.5176 -0.0936  0.2229
  211DG      C2 4832   2.073   4.401   3.965  0.2036  0.2813  0.0820
  211DG      H3 4833   1.957   5.070   4.098 -0.1876  1.6301 -1.7856
  211DG      H4 4834   2.093   5.179   4.114  2.9759 -0.8817  1.0064
  211DG      H5 4835   2.080   5.044   4.227  1.5018 -0.7642 -0.2590
  211DG      H6 4836   1.964   4.394   3.966  0.2142 -0.0868 -0.4477
  211DG      H7 4837   2.113   4.312   3.916 -0.3021  0.6140 -0.9619
  211DG      H8 4838   2.113   4.392   4.066 -0.5589 -1.9391  0.2412
  211DG      O9 4839   2.130   4.978   4.041  0.4190  0.7244 -0.0338
  211DG     O10 4840   2.118   4.517   3.901 -0.1218 -0.1856 -0.0975
  211DG     C11 4841   2.099   5.005   3.903  0.8081 -0.8400  0.6595
  211DG     C12 4842   2.253   4.547   3.897  0.5021  0.6536 -0.4115
  211DG     H13 4843   2.122   5.105   3.867  1.8578 -1.0427  0.7133
  211DG     H14 4844   1.993   4.994   3.885  0.7993 -1.4553  1.0681
  211DG     H15 4845   2.307   4.460   3.860 -2.1531 -0.7688 -1.1796
  211DG     H16 4846   2.287   4.555   4.000  2.5926  1.3924 -1.0886
  211DG     C17 4847   2.187   4.910   3.818  0.1948 -0.2989 -0.2538
  211DG     C18 4848   2.280   4.680   3.829  0.0940 -0.4798  0.7669
  211DG     O19 4849   2.181   4.775   3.874  0.4543 -0.2083  0.1751
  211DG     H20 4850   2.286   4.952   3.833  0.0633 -0.3291  0.8261
  211DG     H21 4851   2.160   4.916   3.713 -0.1339  0.6913 -0.1253
  211DG     H22 4852   2.380   4.714   3.853 -0.6179  1.4943  1.0758
  211DG     H23 4853   2.277   4.664   3.721 -0.3779 -0.6517  0.8011
  212DG      C1 4854   1.087   1.532   0.348 -0.2692  0.4784 -0.7583
  212DG      C2 4855   1.223   0.844   0.550  0.3004 -0.4523 -0.4409
  212DG      H3 4856   1.075   1.578   0.250  0.0230 -1.9481 -2.0150
  212DG      H4 4857   1.191   1.548   0.374  0.9746 -2.9660 -2.8118
  212DG      H5 4858   1.021   1.581   0.420 -0.9081  0.2783 -1.1913
  212DG      H6 4859   1.252   0.752   0.499 -0.0649 -0.5480 -0.4779
  212DG      H7 4860   1.300   0.895   0.607 -0.9474  0.2757  0.6486
  212DG      H8 4861   1.158   0.811   0.630  1.1039  2.3015  1.4784
  212DG      O9 4862   1.049   1.395   0.343 -0.6894  0.4585 -0.0346
  212DG     O10 4863   1.145   0.930   0.467 -0.3883 -0.2474 -0.1431
  212DG     C11 4864   0.909   1.362   0.328 -0.4918  0.9015  1.0348
  212DG     C12 4865   1.011   0.892   0.439 -0.5388 -0.0841 -0.1062
  212DG     H13 4866   0.839   1.419   0.267 -0.2085 -0.5220 -0.7006
  212DG     H14 4867   0.867   1.356   0.429 -1.8593 -1.5937  0.4062
  212DG     H15 4868   0.942   0.879   0.523 -0.2039 -3.6163 -0.2112
  212DG     H16 4869   1.026   0.795   0.390 -0.3302 -0.3402  0.4603
  212DG     C17 4870   0.899   1.216   0.280  0.4856  0.2097  0.4502
  212DG     C18 4871   0.950   0.985   0.332  0.9144  0.0790  0.0494
  212DG     O19 4872   0.962   1.124   0.368 -0.2554  0.0326 -0.2686
  212DG     H20 4873   0.945   1.204   0.182  0.5415  4.6032 -0.2958
  212DG     H21 4874   0.794   1.184   0.280  0.9273 -1.4704 -1.7012
  212DG     H22 4875   0.983   0.973   0.228  0.6073 -0.3538 -0.0036
  212DG     H23 4876   0.844   0.961   0.338  1.0226 -0.4424 -0.0898
  213DG      C1 4877   4.507   3.912   4.863  0.1131 -1.1878 -0.6421
  213DG      C2 4878   4.156   4.539   4.915  0.3055 -0.1980  0.4115
  213DG      H3 4879   4.587   3.911   4.789  0.1444 -0.2313 -0.6316
  213DG      H4 4880   4.466   3.813   4.883 -0.5973 -1.0706 -1.4590
  213DG      H5 4881   4.543   3.933   4.964 -0.7319 -0.1131 -0.5527
  213DG      H6 4882   4.221   4.589   4.987 -0.3109 -0.2344  0.9987
  213DG      H7 4883   4.111   4.622   4.860 -0.0161  1.6942  3.3008
  213DG      H8 4884   4.075   4.480   4.957  2.4616 -3.2683  0.5961
  213DG      O9 4885   4.407   4.009   4.835  0.5485  0.1892 -0.1618
  213DG     O10 4886   4.235   4.454   4.837  0.3864  0.3556  0.1036
  213DG     C11 4887   4.357   3.984   4.705 -0.1180  0.0631  0.2424
  213DG     C12 4888   4.170   4.411   4.718 -0.4444 -0.1338  0.5137
  213DG     H13 4889   4.304   3.889   4.700 -0.1859  0.1439 -1.0365
  213DG     H14 4890   4.431   3.982   4.625  0.7662 -0.1795  1.0440
  213DG     H15 4891   4.154   4.500   4.657 -0.8101 -0.7413 -0.2809
  213DG     H16 4892   4.067   4.376   4.725  0.1226 -1.8753  0.6416
  213DG     C17 4893   4.258   4.094   4.672  0.4666 -0.6143  0.5147
  213DG     C18 4894   4.267   4.333   4.627  0.1943 -0.4773  0.3049
  213DG     O19 4895   4.325   4.218   4.690 -0.3357  0.2657 -0.0284
  213DG     H20 4896   4.164   4.085   4.726 -0.3729  4.3586  0.3236
  213DG     H21 4897   4.241   4.087   4.565  0.4122 -1.8601  0.5851
  213DG     H22 4898   4.219   4.307   4.533 -0.8735 -0.9795  0.9613
  213DG     H23 4899   4.340   4.397   4.578 -1.2435  0.1704 -1.0530
  214DG      C1 4900   1.795   0.393   1.325 -0.5186 -0.2460 -0.3394
  214DG      C2 4901   1.316   0.745   1.256  0.0358  0.2554 -0.0240
  214DG      H3 4902   1.823   0.493   1.292 -1.5171  0.9957  2.2420
  214DG      H4 4903   1.880   0.325   1.334  0.8978  1.2896 -1.5070
  214DG      H5 4904   1.762   0.404   1.428 -0.4565 -0.1130 -0.3336
  214DG      H6 4905   1.388   0.803   1.197  2.3745  1.9545  4.0797
  214DG      H7 4906   1.225   0.720   1.201  0.3950 -0.0165 -0.5107
  214DG      H8 4907   1.290   0.795   1.349  1.6520  2.1263 -0.4940
  214DG      O9 4908   1.677   0.351   1.252 -0.0418 -0.0597  0.2443
  214DG     O10 4909   1.385   0.622   1.285  0.0484 -0.2434 -0.4559
  214DG     C11 4910   1.611   0.232   1.302 -0.9635  0.0729  0.1649
  214DG     C12 4911   1.309   0.543   1.376  0.9813 -0.6059 -0.1303
  214DG     H13 4912   1.602   0.245   1.409 -0.6604  2.6318 -0.0439
  214DG     H14 4913   1.663   0.139   1.279 -1.7996 -0.6005  0.9649
  214DG     H15 4914   1.207   0.522   1.343  0.2265  0.9097  1.0805
  214DG     H16 4915   1.297   0.590   1.474  0.3649 -0.6588 -0.1802
  214DG     C17 4916   1.469   0.236   1.249 -0.6479 -0.7314 -0.6019
  214DG     C18 4917   1.387   0.413   1.394  0.1420 -0.6195  0.1829
  214DG     O19 4918   1.414   0.367   1.264 -0.5065  0.8144 -0.4441
  214DG     H20 4919   1.412   0.154   1.293 -0.4545 -1.3274 -1.4290
  214DG     H21 4920   1.476   0.213   1.142  0.3909  1.2501 -1.0089
  214DG     H22 4921   1.478   0.421   1.453  0.4130  0.6504 -0.3725
  214DG     H23 4922   1.327   0.339   1.447  0.8943 -0.9182  0.6336
  215DG      C1 4923   1.440   1.130   0.243  0.2525 -0.8657 -0.2910
  215DG      C2 4924   1.027   1.047   0.797 -0.1318  0.5558 -0.5576
  215DG      H3 4925   1.427   1.024   0.217  2.5858 -1.1584 -0.4166
  215DG      H4 4926   1.546   1.141   0.224  0.6187 -1.4382  1.2566
  215DG      H5 4927   1.381   1.193   0.177  0.2007  0.9234  1.3649
  215DG      H6 4928   1.051   0.947   0.831 -0.5245  1.0088  1.1492
  215DG      H7 4929   0.985   1.111   0.875  0.0063 -0.1210  0.0798
  215DG      H8 4930   0.940   1.037   0.732  0.9875  3.2107 -2.6642
  215DG      O9 4931   1.421   1.155   0.380  0.3837  0.1446 -0.2652
  215DG     O10 4932   1.134   1.107   0.728 -0.0293  0.0860  0.7730
  215DG     C11 4933   1.460   1.293   0.411 -0.4187 -0.1454  0.3279
  215DG     C12 4934   1.225   1.175   0.816  0.0958  0.3207  0.0516
  215DG     H13 4935   1.391   1.369   0.372 -0.4919 -0.9269 -1.1229
  215DG     H14 4936   1.565   1.304   0.385 -0.6040 -0.9693 -0.8149
  215DG     H15 4937   1.244   1.107   0.899  0.1990 -0.7417 -0.8103
  215DG     H16 4938   1.178   1.267   0.850  1.3657  1.3386 -0.8233
  215DG     C17 4939   1.453   1.293   0.559  0.2518 -0.8249  0.1309
  215DG     C18 4940   1.358   1.210   0.741  1.1789  0.2953  0.5896
  215DG     O19 4941   1.330   1.257   0.617 -1.0548  0.5116  0.5166
  215DG     H20 4942   1.494   1.385   0.601 -1.0198  0.4036 -1.2196
  215DG     H21 4943   1.529   1.219   0.587  0.6864 -0.4297  0.0087
  215DG     H22 4944   1.409   1.286   0.800 -0.2828  0.6565  1.4428
  215DG     H23 4945   1.413   1.116   0.729  2.3546  0.8921  1.1737
  216DG      C1 4946   2.520   3.988   1.941  0.0684 -0.2738 -0.3187
  216DG      C2 4947   2.350   4.562   2.026  0.6346 -0.2817  0.0992
  216DG      H3 4948   2.455   4.024   1.862  0.5164 -1.5930 -1.3248
  216DG      H4 4949   2.458   3.943   2.019 -3.7479  3.1783 -1.0427
  216DG      H5 4950   2.601   3.928   1.898  0.5724  1.3353 -1.7222
  216DG      H6 4951   2.262   4.594   2.082  0.3247 -1.6292  0.4284
  216DG      H7 4952   2.399   4.657   2.006 -0.8224  0.3360 -0.7390
  216DG      H8 4953   2.313   4.528   1.929  0.9195  0.7330 -0.3803
  216DG      O9 4954   2.587   4.108   1.987 -0.0423 -0.1394 -0.3630
  216DG     O10 4955   2.422   4.455   2.084  0.0547  0.3637  0.1719
  216DG     C11 4956   2.665   4.079   2.107  0.8779 -0.7026  0.0499
  216DG     C12 4957   2.498   4.488   2.199  0.3370  0.3751  0.8012
  216DG     H13 4958   2.739   4.000   2.096  0.5724 -0.9531 -0.2507
  216DG     H14 4959   2.602   4.042   2.187  0.3760  1.5001  0.7391
  216DG     H15 4960   2.429   4.508   2.281  0.4384 -0.7042  1.1733
  216DG     H16 4961   2.542   4.585   2.179  1.3649 -0.0774  0.8190
  216DG     C17 4962   2.742   4.211   2.132  0.4732 -0.5834  0.3316
  216DG     C18 4963   2.598   4.379   2.227  1.1838 -0.6011 -0.2859
  216DG     O19 4964   2.659   4.326   2.108  0.7264  0.2973  0.0558
  216DG     H20 4965   2.816   4.221   2.052  0.3686  0.7811  0.3838
  216DG     H21 4966   2.794   4.213   2.228  0.8206 -1.0776  0.1584
  216DG     H22 4967   2.660   4.399   2.313 -1.2235 -0.3277  1.4925
  216DG     H23 4968   2.540   4.294   2.265  0.7559  0.9807  2.8796
  217DG      C1 4969   3.004   2.679   4.140 -0.4863 -0.5164 -0.4431
  217DG      C2 4970   2.455   2.665   4.643  0.1753  0.0436  0.1351
  217DG      H3 4971   3.001   2.577   4.101 -0.9940 -0.5622 -0.2850
  217DG      H4 4972   3.063   2.680   4.231 -0.9000  0.1046 -0.1734
  217DG      H5 4973   3.062   2.740   4.070 -0.5476 -2.1157 -1.9733
  217DG      H6 4974   2.365   2.719   4.670  1.5899  1.9897  1.2295
  217DG      H7 4975   2.439   2.563   4.608  1.8373 -0.2255  0.0824
  217DG      H8 4976   2.508   2.654   4.738 -1.6930  0.2570  1.2421
  217DG      O9 4977   2.876   2.732   4.173 -0.3842 -0.3392  0.3922
  217DG     O10 4978   2.519   2.731   4.535 -0.3836  0.2203 -0.4558
  217DG     C11 4979   2.906   2.864   4.208  0.7600 -0.3575 -0.0919
  217DG     C12 4980   2.601   2.838   4.574  0.0620 -0.1039 -0.9109
  217DG     H13 4981   2.933   2.923   4.120  0.8443  2.2477  1.5997
  217DG     H14 4982   2.986   2.876   4.281  0.0059  0.6651  0.5890
  217DG     H15 4983   2.683   2.803   4.636 -1.4352  1.1733  2.0280
  217DG     H16 4984   2.550   2.904   4.645  2.2354  0.5641  0.1082
  217DG     C17 4985   2.782   2.928   4.271  0.3365 -0.4024  0.1089
  217DG     C18 4986   2.644   2.925   4.461 -0.4749 -0.3385 -0.2526
  217DG     O19 4987   2.736   2.853   4.375  0.3843 -0.0494 -0.3319
  217DG     H20 4988   2.714   2.945   4.187  1.5778 -0.3981 -0.9379
  217DG     H21 4989   2.800   3.031   4.302  0.1466  0.6509 -2.9528
  217DG     H22 4990   2.563   2.977   4.411 -0.0841  0.7390  0.2088
  217DG     H23 4991   2.698   3.012   4.500 -1.6593  0.0599  0.5361
  218DG      C1 4992   2.434   0.801   1.955 -0.6387  0.0527  0.4839
  218DG      C2 4993   2.055   1.014   1.438 -0.4089  0.5864  0.2773
  218DG      H3 4994   2.520   0.770   1.895 -1.8667 -1.7908 -0.4271
  218DG      H4 4995   2.362   0.719   1.952 -1.4343  0.7380  0.7438
  218DG      H5 4996   2.465   0.812   2.059 -0.3741  0.6060  0.3507
  218DG      H6 4997   1.967   0.951   1.449 -0.0919 -0.0188 -0.5138
  218DG      H7 4998   2.013   1.091   1.374 -0.9133 -2.3683 -3.2427
  218DG      H8 4999   2.131   0.954   1.387 -1.5525 -0.7267  0.0484
  218DG      O9 5000   2.398   0.930   1.915 -0.0037 -0.3559  0.1073
  218DG     O10 5001   2.111   1.067   1.553  0.7975  0.5340 -0.2362
  218DG     C11 5002   2.300   0.967   2.015 -0.0391 -0.7242 -0.5531
  218DG     C12 5003   2.011   1.097   1.652 -0.3741  0.4319  0.0976
  218DG     H13 5004   2.342   0.991   2.113  3.3512 -0.0723 -2.0267
  218DG     H14 5005   2.227   0.892   2.046  0.5160 -0.4105  1.6930
  218DG     H15 5006   1.948   1.010   1.671 -0.8684  1.2594  2.5206
  218DG     H16 5007   1.943   1.164   1.599 -1.0260 -0.1076  0.2431
  218DG     C17 5008   2.228   1.091   1.957 -0.4901  0.5904  0.1151
  218DG     C18 5009   2.076   1.155   1.778 -0.2449 -0.0085 -0.6981
  218DG     O19 5010   2.159   1.054   1.832  0.3537 -0.0239 -0.3100
  218DG     H20 5011   2.298   1.174   1.946  1.0674 -0.7252 -0.1628
  218DG     H21 5012   2.156   1.130   2.029  0.7907 -0.4813  2.0662
  218DG     H22 5013   2.147   1.235   1.757  1.1382 -0.5109  1.7179
  218DG     H23 5014   2.005   1.191   1.852 -1.0770 -1.9711 -0.4744
  219DG      C1 5015   3.029   2.986   0.594 -0.1300 -0.4091 -0.0446
  219DG      C2 5016   2.921   3.357   1.100 -0.2011  0.3912 -0.0546
  219DG      H3 5017   3.114   2.954   0.533 -0.3515 -0.2790 -0.4220
  219DG      H4 5018   2.948   3.012   0.526 -0.5792  1.4038  1.1164
  219DG      H5 5019   2.999   2.914   0.670 -0.8790  0.9591  1.0015
  219DG      H6 5020   2.968   3.273   1.149 -0.2322  0.6171  0.3700
  219DG      H7 5021   2.949   3.444   1.160  1.3722  0.8671 -1.3931
  219DG      H8 5022   2.818   3.339   1.067 -0.1183  1.9944 -1.3325
  219DG      O9 5023   3.057   3.108   0.648 -0.1072 -0.1804  0.3044
  219DG     O10 5024   2.996   3.374   0.987  0.3476  0.0302  0.6583
  219DG     C11 5025   3.104   3.198   0.550  0.2481 -1.0264  0.4971
  219DG     C12 5026   2.969   3.497   0.916 -0.9335  0.3470  0.8767
  219DG     H13 5027   3.029   3.207   0.471 -0.4214 -3.8472  0.6930
  219DG     H14 5028   3.196   3.165   0.500  0.4626  0.3274 -0.0411
  219DG     H15 5029   2.998   3.585   0.973  1.6214  0.2762 -0.1899
  219DG     H16 5030   2.862   3.513   0.905 -0.8497  0.4097  0.0349
  219DG     C17 5031   3.127   3.342   0.604 -0.3819 -0.4939 -0.0860
  219DG     C18 5032   3.059   3.496   0.782  0.0247 -0.5822  0.0321
  219DG     O19 5033   3.032   3.379   0.707 -0.3160 -0.2324  0.9799
  219DG     H20 5034   3.124   3.417   0.525 -2.0104  0.8611  1.1848
  219DG     H21 5035   3.225   3.339   0.651 -0.6499 -2.3943  0.4196
  219DG     H22 5036   3.057   3.583   0.716  0.6489 -0.2540  0.4457
  219DG     H23 5037   3.164   3.496   0.810 -0.0768 -0.5640  0.4149
  220DG      C1 5038   4.178   1.065   0.005  0.0860 -0.3046 -0.3470
  220DG      C2 5039   3.459   1.213   0.093  0.6012  0.1965 -0.1562
  220DG      H3 5040   4.149   1.019   0.099  0.0410  0.5616  0.0727
  220DG      H4 5041   4.228   1.158   0.033 -0.1728 -0.4043  0.4745
  220DG      H5 5042   4.242   0.989  -0.041 -0.7977 -0.1284 -1.9426
  220DG      H6 5043   3.407   1.299   0.051  0.7314 -0.7714 -2.4536
  220DG      H7 5044   3.395   1.127   0.111  0.3488  0.3815 -0.1559
  220DG      H8 5045   3.501   1.238   0.191 -1.4965  0.0359  0.8334
  220DG      O9 5046   4.059   1.089  -0.067  0.5908  0.5118 -0.1583
  220DG     O10 5047   3.574   1.173   0.020  0.4323 -0.1908 -0.0023
  220DG     C11 5048   4.006   0.986  -0.151  0.2285  0.1802 -0.7501
  220DG     C12 5049   3.540   1.117  -0.108  0.8266  0.2132  0.4399
  220DG     H13 5050   3.994   0.891  -0.098 -0.8343  1.3666  1.2752
  220DG     H14 5051   4.078   0.958  -0.228  0.7226  2.1327 -1.0443
  220DG     H15 5052   3.460   1.171  -0.159 -0.8902 -0.9625  1.7404
  220DG     H16 5053   3.492   1.023  -0.081 -1.2311  0.3310 -2.3803
  220DG     C17 5054   3.884   1.036  -0.229  0.2896  0.1056 -0.0028
  220DG     C18 5055   3.660   1.115  -0.200 -0.0854 -0.1133 -0.1755
  220DG     O19 5056   3.780   1.073  -0.136  0.0422 -0.2550  0.5659
  220DG     H20 5057   3.859   0.963  -0.307  2.1290  1.2778 -1.7861
  220DG     H21 5058   3.921   1.120  -0.288 -0.5535 -0.7129 -1.8062
  220DG     H22 5059   3.627   1.045  -0.277 -0.0559 -1.0352  0.6296
  220DG     H23 5060   3.673   1.218  -0.232 -0.6123  0.0151  0.0144
  221DG      C1 5061   1.235   2.042   4.538 -0.1130 -0.2258  0.2858
  221DG      C2 5062   0.976   1.819   5.159 -0.4149  0.0092 -0.2178
  221DG      H3 5063   1.225   2.148   4.557 -1.5939 -0.2789 -0.0813
  221DG      H4 5064   1.152   2.002   4.479  0.4787 -2.5607  0.9029
  221DG      H5 5065   1.322   2.035   4.473  0.1016 -2.1248  0.6986
  221DG      H6 5066   0.926   1.916   5.157  1.2567  1.1069  3.3559
  221DG      H7 5067   0.916   1.740   5.202  2.2777 -2.0498  0.0408
  221DG      H8 5068   1.061   1.835   5.225  0.0245 -0.5479 -0.6360
  221DG      O9 5069   1.258   1.947   4.642 -0.0708 -0.0275 -0.0811
  221DG     O10 5070   1.035   1.791   5.034 -0.3787 -0.2106  0.4071
  221DG     C11 5071   1.268   1.815   4.598 -0.1369 -0.3115  0.4055
  221DG     C12 5072   1.116   1.670   5.027 -0.2077  0.0788  0.7918
  221DG     H13 5073   1.344   1.809   4.520 -1.3295  0.5685 -0.8618
  221DG     H14 5074   1.174   1.793   4.548  0.0607 -1.5493  0.5567
  221DG     H15 5075   1.051   1.589   4.993  1.8717 -1.3061 -0.0680
  221DG     H16 5076   1.156   1.643   5.125  2.0856 -0.6677 -0.3014
  221DG     C17 5077   1.303   1.725   4.723 -0.0846  0.4901 -0.0280
  221DG     C18 5078   1.237   1.678   4.929  0.7637  0.0147 -0.2085
  221DG     O19 5079   1.197   1.743   4.813  0.0158  0.1166 -0.2909
  221DG     H20 5080   1.402   1.751   4.759  0.3163  0.3132 -0.9854
  221DG     H21 5081   1.320   1.621   4.695 -1.9210  0.4073 -1.0241
  221DG     H22 5082   1.325   1.727   4.970  2.5644 -3.6694  0.6933
  221DG     H23 5083   1.266   1.575   4.908  0.8916  0.2432 -1.2357
  222DG      C1 5084   1.748   2.107   5.310 -0.3678 -0.2563 -0.2665
  222DG      C2 5085   2.339   1.696   5.168  0.0189  0.5562  0.0238
  222DG      H3 5086   1.767   2.079   5.413  1.0406 -0.3277 -0.5291
  222DG      H4 5087   1.676   2.038   5.265  0.0103 -2.2691  2.0499
  222DG      H5 5088   1.699   2.204   5.312  0.6311  0.2344  1.0473
  222DG      H6 5089   2.281   1.615   5.212 -0.4276 -0.0807 -1.6562
  222DG      H7 5090   2.387   1.670   5.074 -3.1641 -1.0775 -1.2940
  222DG      H8 5091   2.417   1.731   5.236 -0.5834 -0.3980  1.2357
  222DG      O9 5092   1.879   2.112   5.257 -0.4198 -0.0899 -0.6088
  222DG     O10 5093   2.249   1.803   5.134 -0.0902 -0.4955  0.0394
  222DG     C11 5094   1.884   2.158   5.123  0.4066  0.1828  0.1719
  222DG     C12 5095   2.317   1.927   5.089 -0.2182  0.6645  0.0511
  222DG     H13 5096   1.826   2.250   5.117 -0.1575 -0.2178 -0.7255
  222DG     H14 5097   1.821   2.083   5.076  0.2565 -3.1232  4.8514
  222DG     H15 5098   2.388   1.908   5.009 -0.9326  0.5831 -0.5796
  222DG     H16 5099   2.391   1.961   5.161 -0.1826 -0.6304  0.6439
  222DG     C17 5100   2.025   2.177   5.075 -0.4748 -0.0233  0.2568
  222DG     C18 5101   2.222   2.035   5.035  0.3833 -0.4539  0.2475
  222DG     O19 5102   2.103   2.059   5.112  0.5048 -0.1002  0.8907
  222DG     H20 5103   2.077   2.257   5.129  1.1121 -1.0726  0.3404
  222DG     H21 5104   2.029   2.200   4.969 -0.5977  0.0710  0.2731
  222DG     H22 5105   2.268   2.133   5.027  0.4782 -0.4362  0.9545
  222DG     H23 5106   2.185   2.011   4.936  0.8429 -2.2434  0.4737
  223DG      C1 5107   2.754   1.330   2.462 -0.4505 -0.4274  0.1894
  223DG      C2 5108   2.930   1.153   1.810 -0.2914  0.0504 -0.5513
  223DG      H3 5109   2.752   1.412   2.534  2.4447  1.0366 -1.2390
  223DG      H4 5110   2.846   1.275   2.483 -0.7325 -1.8935 -2.0906
  223DG      H5 5111   2.681   1.254   2.490  0.7200 -0.5110  3.4596
  223DG      H6 5112   3.025   1.126   1.856 -1.0427 -0.9851  0.4381
  223DG      H7 5113   2.872   1.061   1.803 -1.2045  0.6304 -0.7389
  223DG      H8 5114   2.959   1.167   1.706 -0.8922  0.2136 -0.7023
  223DG      O9 5115   2.762   1.378   2.333 -0.1665 -0.2436  0.1733
  223DG     O10 5116   2.864   1.258   1.881  0.2602  0.0024 -0.3439
  223DG     C11 5117   2.642   1.425   2.280 -0.0001 -0.4734  0.3669
  223DG     C12 5118   2.721   1.277   1.843  0.1474  0.4346  0.2550
  223DG     H13 5119   2.595   1.504   2.340 -1.2204  0.5748 -1.8363
  223DG     H14 5120   2.580   1.335   2.282  0.7444 -0.9898  0.3116
  223DG     H15 5121   2.661   1.186   1.845 -1.3884  1.3730 -0.5815
  223DG     H16 5122   2.708   1.305   1.738 -0.7738  2.3203  0.8168
  223DG     C17 5123   2.652   1.475   2.141  0.0161 -0.5261  0.0007
  223DG     C18 5124   2.658   1.396   1.914 -0.0091  0.5977 -0.2106
  223DG     O19 5125   2.692   1.371   2.052 -0.1095 -0.0097 -0.1360
  223DG     H20 5126   2.724   1.556   2.134 -1.3327  0.6910 -0.1291
  223DG     H21 5127   2.557   1.520   2.112  0.1320 -0.3521 -0.1135
  223DG     H22 5128   2.713   1.483   1.877  0.1737  0.9352  0.8305
  223DG     H23 5129   2.554   1.405   1.880  0.1525  3.3437 -0.2141
  224DG      C1 5130   1.453   0.263   4.528  0.5001  0.9133 -0.2460
  224DG      C2 5131   1.507  -0.275   4.523  0.0874  0.3147  0.6167
  224DG      H3 5132   1.509   0.170   4.542  1.6452  1.3637 -1.6437
  224DG      H4 5133   1.532   0.320   4.480 -0.5404  1.7090 -1.0607
  224DG      H5 5134   1.371   0.248   4.457 -1.8845  1.6163  2.1731
  224DG      H6 5135   1.446  -0.348   4.470  1.9224 -1.6423  1.0656
  224DG      H7 5136   1.554  -0.204   4.454 -0.7407  1.2578  0.9939
  224DG      H8 5137   1.587  -0.329   4.572  1.7057  2.0468  0.0198
  224DG      O9 5138   1.402   0.324   4.641  0.0566  0.6429  0.5237
  224DG     O10 5139   1.441  -0.197   4.623 -0.0296  0.1541 -0.1408
  224DG     C11 5140   1.285   0.268   4.698 -0.2277  0.0456  0.1204
  224DG     C12 5141   1.533  -0.131   4.713  0.7565  0.0155  0.6447
  224DG     H13 5142   1.222   0.215   4.627  0.7942 -2.3302  0.9111
  224DG     H14 5143   1.229   0.343   4.754 -0.4200 -0.6227  0.8349
  224DG     H15 5144   1.581  -0.048   4.661 -2.8137  1.4348 -0.7162
  224DG     H16 5145   1.597  -0.197   4.771  1.1420  0.9723  1.3439
  224DG     C17 5146   1.327   0.156   4.798  0.1458  0.0797  0.3388
  224DG     C18 5147   1.450  -0.045   4.807 -0.4626 -0.2494  0.4948
  224DG     O19 5148   1.387   0.052   4.723 -0.1035  0.2291 -0.2265
  224DG     H20 5149   1.248   0.120   4.864 -0.5962  0.7389 -0.1641
  224DG     H21 5150   1.401   0.192   4.869  0.1903  1.1590 -0.2412
  224DG     H22 5151   1.375  -0.105   4.859 -2.7941  1.9297 -0.1440
  224DG     H23 5152   1.512   0.007   4.880  0.1416  0.4960 -0.5278
  225DG      C1 5153   5.256   1.940   4.191  0.6637 -0.5858 -0.4325
  225DG      C2 5154   4.844   1.506   4.292  0.0179 -0.5851 -0.8684
  225DG      H3 5155   5.296   2.000   4.273 -1.5229 -0.6152  0.7237
  225DG      H4 5156   5.294   1.962   4.091 -0.8802 -1.4543 -1.2562
  225DG      H5 5157   5.310   1.853   4.229  2.2600 -0.2296 -1.7873
  225DG      H6 5158   4.910   1.448   4.357 -0.1778  0.5466  0.3934
  225DG      H7 5159   4.770   1.437   4.251  0.8790 -2.0740 -0.0197
  225DG      H8 5160   4.907   1.541   4.210  0.5329  0.5442 -0.0303
  225DG      O9 5161   5.116   1.918   4.207 -0.5117  0.3176  0.4434
  225DG     O10 5162   4.790   1.611   4.373 -0.2199  0.5649 -0.5342
  225DG     C11 5163   5.063   1.835   4.109  0.6549 -0.3942 -0.0147
  225DG     C12 5164   4.683   1.680   4.319  0.4791  0.1580 -0.4828
  225DG     H13 5165   5.086   1.736   4.148  1.0224 -0.5100 -0.5138
  225DG     H14 5166   5.104   1.844   4.008  0.8040  0.7379  0.1297
  225DG     H15 5167   4.659   1.755   4.395  3.0821  0.8989 -0.2940
  225DG     H16 5168   4.604   1.608   4.299  0.1008  0.7890 -1.3277
  225DG     C17 5169   4.918   1.867   4.105  0.8582 -0.0264  1.0873
  225DG     C18 5170   4.730   1.748   4.196  0.8664 -0.3890 -0.1072
  225DG     O19 5171   4.857   1.807   4.219 -0.0189 -0.5590 -0.6431
  225DG     H20 5172   4.881   1.824   4.012  1.1509  1.8967  0.0289
  225DG     H21 5173   4.891   1.972   4.096  0.6977 -0.2022 -0.8683
  225DG     H22 5174   4.728   1.678   4.112  0.5754 -0.0363 -0.3996
  225DG     H23 5175   4.663   1.830   4.169  0.0537  0.0401  2.8554
  226DG      C1 5176   2.881   4.335   4.405 -0.7266 -0.1211 -0.1278
  226DG      C2 5177   3.095   4.722   3.909 -0.0850  0.7677  0.1175
  226DG      H3 5178   2.852   4.257   4.335  0.9710 -2.3006  1.4004
  226DG      H4 5179   2.805   4.412   4.407  0.7775  1.6378 -3.3042
  226DG      H5 5180   2.888   4.292   4.505  1.0366  0.1117 -0.1130
  226DG      H6 5181   3.098   4.632   3.847  2.3207  0.5580  0.4304
  226DG      H7 5182   3.022   4.799   3.884  0.0962  0.6302 -0.8764
  226DG      H8 5183   3.195   4.754   3.878  0.2669 -0.5265 -0.1271
  226DG      O9 5184   2.998   4.387   4.358 -0.4936 -0.6093  0.0617
  226DG     O10 5185   3.092   4.694   4.045  0.0611 -0.4497  0.1010
  226DG     C11 5186   3.081   4.453   4.459 -0.0314  0.2250 -0.2054
  226DG     C12 5187   3.120   4.811   4.121 -0.1868  0.4821  0.3767
  226DG     H13 5188   3.129   4.370   4.511 -0.2545 -1.9371 -3.1731
  226DG     H14 5189   3.023   4.493   4.542  0.4654  3.2818 -1.1757
  226DG     H15 5190   3.036   4.868   4.161 -0.7431  0.4266 -0.6819
  226DG     H16 5191   3.193   4.879   4.078  2.2464 -2.6118 -0.7023
  226DG     C17 5192   3.173   4.561   4.406  0.1594  0.3190  0.2362
  226DG     C18 5193   3.188   4.748   4.249 -0.1518 -0.2617  0.5389
  226DG     O19 5194   3.101   4.648   4.318 -0.4596 -0.4135  0.3038
  226DG     H20 5195   3.250   4.506   4.352 -0.5657 -0.4523 -0.0398
  226DG     H21 5196   3.220   4.613   4.489  1.3034 -1.5713  0.8492
  226DG     H22 5197   3.285   4.704   4.225  0.9500  1.8186  0.9953
  226DG     H23 5198   3.213   4.828   4.318 -0.4741 -0.9284  1.4511
  227DG      C1 5199   1.257   0.476   0.993 -0.1742  0.3408  0.1964
  227DG      C2 5200   1.718   0.161   0.965  0.3425  0.6709 -0.3953
  227DG      H3 5201   1.243   0.424   1.087 -0.7406 -0.5377 -0.3563
  227DG      H4 5202   1.304   0.395   0.938  2.0497 -0.0113  2.4461
  227DG      H5 5203   1.159   0.492   0.948  0.6890  0.6601 -1.6876
  227DG      H6 5204   1.641   0.092   0.930  1.2942 -0.3414 -0.5582
  227DG      H7 5205   1.799   0.126   0.901 -0.8804 -1.7700 -0.7368
  227DG      H8 5206   1.747   0.151   1.070  1.4150 -1.7851 -0.8441
  227DG      O9 5207   1.338   0.598   0.985 -0.0281  0.0930 -0.0887
  227DG     O10 5208   1.674   0.292   0.925 -0.1415 -0.4280 -0.0303
  227DG     C11 5209   1.348   0.651   0.856 -0.2328  0.0976 -0.9639
  227DG     C12 5210   1.726   0.337   0.797  0.4306 -0.1118  0.1125
  227DG     H13 5211   1.349   0.760   0.852  0.9923  0.2712  1.9067
  227DG     H14 5212   1.266   0.607   0.799 -2.6845  0.9733  1.6664
  227DG     H15 5213   1.695   0.287   0.705  0.5230  2.1254 -1.2349
  227DG     H16 5214   1.835   0.351   0.795  0.1560  2.5033 -1.1135
  227DG     C17 5215   1.482   0.614   0.791  0.0036  0.1297  0.2443
  227DG     C18 5216   1.670   0.479   0.778 -0.0069 -1.2790 -0.0451
  227DG     O19 5217   1.530   0.480   0.819 -0.1130  0.2035  0.0917
  227DG     H20 5218   1.557   0.673   0.844 -0.0145  1.0350 -0.7065
  227DG     H21 5219   1.489   0.630   0.684 -0.6853 -0.2525  0.1340
  227DG     H22 5220   1.721   0.552   0.841 -0.7639 -0.1605 -0.6911
  227DG     H23 5221   1.679   0.508   0.674 -0.0057 -1.6053 -0.1378
  228DG      C1 5222   0.586   5.324   1.114  0.6526 -0.1271  0.3796
  228DG      C2 5223   0.274   4.687   1.003  0.5739  0.9346  0.0367
  228DG      H3 5224   0.524   5.407   1.079  0.5521  0.1865  1.2651
  228DG      H4 5225   0.690   5.354   1.118  1.0165 -1.2940 -0.0178
  228DG      H5 5226   0.550   5.307   1.216  0.3585 -1.1289  0.1193
  228DG      H6 5227   0.261   4.602   0.937 -3.1784 -0.4908  2.3174
  228DG      H7 5228   0.298   4.652   1.104 -1.3100  0.8040  0.4732
  228DG      H8 5229   0.171   4.721   1.014  0.6051  0.7949  0.8696
  228DG      O9 5230   0.567   5.202   1.040  0.5356  0.3708 -0.6820
  228DG     O10 5231   0.358   4.783   0.949 -0.3570 -0.1522  0.2381
  228DG     C11 5232   0.568   5.229   0.898  0.4007 -0.0117  0.1855
  228DG     C12 5233   0.337   4.811   0.813  0.0836  0.3761 -0.2747
  228DG     H13 5234   0.666   5.268   0.870  0.9737 -2.4474 -1.5090
  228DG     H14 5235   0.495   5.307   0.875 -0.1939 -0.0415  1.8004
  228DG     H15 5236   0.237   4.845   0.784 -0.4487 -1.5343 -0.8430
  228DG     H16 5237   0.343   4.722   0.750  0.3025  0.3605 -0.2316
  228DG     C17 5238   0.575   5.098   0.821  0.6424  0.3415 -0.4230
  228DG     C18 5239   0.450   4.903   0.764 -0.4611  0.2421  1.0975
  228DG     O19 5240   0.462   5.019   0.842  0.2432  0.1026 -0.4081
  228DG     H20 5241   0.654   5.035   0.861  0.5576  0.6560  0.2451
  228DG     H21 5242   0.598   5.110   0.715 -0.3011  1.5778 -0.5049
  228DG     H22 5243   0.541   4.844   0.751  0.5991  2.1798 -1.0018
  228DG     H23 5244   0.433   4.932   0.660 -0.2805 -1.2059  0.6428
  229DG      C1 5245   2.811   3.628   3.099  0.1048 -0.0414  0.0261
  229DG      C2 5246   2.933   3.468   3.738  0.9636  0.2351 -0.1938
  229DG      H3 5247   2.821   3.619   2.991  1.5087 -2.4452  0.2940
  229DG      H4 5248   2.858   3.724   3.118  0.2237  0.5083 -2.6595
  229DG      H5 5249   2.702   3.632   3.105  0.1607  1.5072  0.3022
  229DG      H6 5250   2.937   3.403   3.826  1.3337 -0.0445 -0.4154
  229DG      H7 5251   3.006   3.547   3.755 -1.5080  2.3305  1.4558
  229DG      H8 5252   2.836   3.517   3.743  1.1748  0.5921  0.4785
  229DG      O9 5253   2.869   3.523   3.170 -0.7190  0.1351 -0.1944
  229DG     O10 5254   2.951   3.406   3.611  0.5879 -0.1527  0.3790
  229DG     C11 5255   2.799   3.401   3.170 -0.0270  0.2441  0.7925
  229DG     C12 5256   2.861   3.291   3.596  0.1923  0.0460  0.1034
  229DG     H13 5257   2.780   3.364   3.069 -1.6282  1.7734  0.5011
  229DG     H14 5258   2.700   3.402   3.215  0.0321 -1.1162  1.0233
  229DG     H15 5259   2.760   3.330   3.599  0.6575  1.2463  2.2781
  229DG     H16 5260   2.872   3.226   3.683  0.4616  0.7056  0.5696
  229DG     C17 5261   2.881   3.302   3.245  0.4240 -0.1853  0.5965
  229DG     C18 5262   2.894   3.215   3.469 -0.1395  0.1642 -0.7745
  229DG     O19 5263   2.866   3.330   3.381  0.3628 -0.6818 -0.4582
  229DG     H20 5264   2.983   3.306   3.206 -0.2688  2.2726 -1.2380
  229DG     H21 5265   2.846   3.203   3.216  0.0777 -0.1271  0.8095
  229DG     H22 5266   2.994   3.174   3.456 -0.6751 -1.0103 -1.4346
  229DG     H23 5267   2.823   3.131   3.471  1.1448 -0.9355  0.2437
  230DG      C1 5268   2.461   4.619   0.821  0.2269  0.6314 -0.2671
  230DG      C2 5269   1.990   4.113   1.243 -0.1952 -0.1072 -0.1137
  230DG      H3 5270   2.554   4.671   0.797 -0.6883  2.5192  0.1564
  230DG      H4 5271   2.373   4.682   0.818 -0.4949 -0.3614 -2.6775
  230DG      H5 5272   2.438   4.549   0.740  0.1169 -0.9196  1.0356
  230DG      H6 5273   1.907   4.179   1.267  0.6349  1.3014 -0.9876
  230DG      H7 5274   2.008   4.090   1.138 -1.3923  1.1360 -0.6209
  230DG      H8 5275   1.987   4.018   1.296  0.7056 -0.5084 -0.7412
  230DG      O9 5276   2.479   4.540   0.941 -0.2413  0.1352 -0.0349
  230DG     O10 5277   2.090   4.199   1.299  0.3035  0.0064  0.0184
  230DG     C11 5278   2.466   4.613   1.064  0.0404 -0.4189 -0.7639
  230DG     C12 5279   2.115   4.317   1.224  0.5465  0.5178  0.2830
  230DG     H13 5280   2.404   4.701   1.047  1.0222  0.1703 -1.3944
  230DG     H14 5281   2.568   4.648   1.082 -0.9098  1.5616  1.3285
  230DG     H15 5282   2.032   4.386   1.242  0.0119 -0.6061  2.4535
  230DG     H16 5283   2.103   4.286   1.121  1.8471  0.0933  0.2395
  230DG     C17 5284   2.427   4.531   1.188 -0.1716 -0.0980  0.1107
  230DG     C18 5285   2.259   4.367   1.258  0.2710 -0.5186 -0.2697
  230DG     O19 5286   2.303   4.465   1.153 -0.1904  0.3585 -0.0136
  230DG     H20 5287   2.403   4.597   1.271 -1.0166 -0.6299  0.3050
  230DG     H21 5288   2.513   4.471   1.219  0.4827  0.8956  0.2371
  230DG     H22 5289   2.257   4.410   1.358 -0.4535 -0.5772 -0.2494
  230DG     H23 5290   2.335   4.290   1.245 -0.0425 -1.1820  1.5933
  231DG      C1 5291   1.503   5.196   2.588  0.0217 -0.5682  0.0927
  231DG      C2 5292   0.814   5.213   2.086 -0.2036 -0.6107 -0.6715
  231DG      H3 5293   1.512   5.133   2.676 -0.6886  0.9308  1.2900
  231DG      H4 5294   1.512   5.298   2.627  1.2166 -0.3516 -0.6975
  231DG      H5 5295   1.587   5.179   2.520 -0.2391  0.2261 -0.4505
  231DG      H6 5296   0.838   5.316   2.111  0.2598 -0.4231 -1.8004
  231DG      H7 5297   0.850   5.196   1.984  0.2552 -0.6056 -0.5141
  231DG      H8 5298   0.706   5.202   2.096 -0.3100  0.9070  0.2211
  231DG      O9 5299   1.378   5.171   2.509 -0.0417  0.0916 -1.0065
  231DG     O10 5300   0.879   5.121   2.173 -0.4435 -0.2985  0.5444
  231DG     C11 5301   1.266   5.175   2.590  0.6079 -0.4690 -0.0929
  231DG     C12 5302   1.015   5.149   2.198 -0.4266 -0.1277 -0.5443
  231DG     H13 5303   1.230   5.278   2.586  1.8409 -0.0460 -1.1568
  231DG     H14 5304   1.288   5.154   2.694  1.3784 -0.4188 -0.2431
  231DG     H15 5305   1.039   5.254   2.216 -1.8527 -0.2244  2.6643
  231DG     H16 5306   1.079   5.117   2.116 -0.5644 -1.2820 -0.2049
  231DG     C17 5307   1.163   5.077   2.518  0.0251 -0.0381 -0.0418
  231DG     C18 5308   1.048   5.064   2.315 -0.7083  0.4110 -0.0087
  231DG     O19 5309   1.144   5.134   2.388 -0.2817  0.6070 -0.1545
  231DG     H20 5310   1.066   5.084   2.567  0.1543  0.2834  0.1731
  231DG     H21 5311   1.199   4.974   2.512 -0.5635 -0.2328 -0.3208
  231DG     H22 5312   0.959   5.052   2.376 -0.1390  0.1536  0.7791
  231DG     H23 5313   1.079   4.960   2.299 -2.6818 -0.1721 -0.2928
  232DG      C1 5314   2.308   0.616   4.969 -0.3442  0.6503 -0.4702
  232DG      C2 5315   1.648   0.710   5.151  0.5886  0.1292 -0.4974
  232DG      H3 5316   2.412   0.644   4.987 -0.1778 -0.3604  0.2122
  232DG      H4 5317   2.297   0.671   4.875  1.0578 -1.7299 -2.1612
  232DG      H5 5318   2.282   0.510   4.961  1.4557  0.1497 -0.3077
  232DG      H6 5319   1.571   0.755   5.213 -1.8864 -2.4491 -1.4597
  232DG      H7 5320   1.645   0.744   5.048  1.8262 -0.3126 -0.6910
  232DG      H8 5321   1.625   0.603   5.148  0.5338  0.1282 -0.1610
  232DG      O9 5322   2.227   0.660   5.073 -0.0126 -0.3144  0.4556
  232DG     O10 5323   1.780   0.729   5.207 -0.3229 -0.3591 -0.1538
  232DG     C11 5324   2.271   0.782   5.131  0.2981  0.0738 -0.1454
  232DG     C12 5325   1.813   0.866   5.223 -0.0888 -0.2093 -0.2741
  232DG     H13 5326   2.282   0.863   5.058 -0.5085  0.5052  0.1930
  232DG     H14 5327   2.366   0.753   5.175  0.4091  1.3975  0.5469
  232DG     H15 5328   1.737   0.923   5.276  1.2297  0.0889  1.3839
  232DG     H16 5329   1.819   0.908   5.123 -0.9271  0.0659 -0.2126
  232DG     C17 5330   2.180   0.819   5.250 -0.6440  0.5642  0.0746
  232DG     C18 5331   1.951   0.889   5.294  0.2233  0.1496 -0.1104
  232DG     O19 5332   2.051   0.825   5.208  0.6876 -0.3647 -0.0768
  232DG     H20 5333   2.205   0.912   5.300 -1.6270  0.9182 -0.0551
  232DG     H21 5334   2.187   0.734   5.318 -1.5142  0.7559  0.4154
  232DG     H22 5335   1.974   0.994   5.309  0.3234  0.0898  0.1713
  232DG     H23 5336   1.956   0.839   5.391 -1.6196 -0.9010 -0.5084
  233DG      C1 5337   3.537   2.226   0.503  0.4581  0.2765  0.1823
  233DG      C2 5338   3.043   1.996   0.214  0.3241  0.3185  0.1750
  233DG      H3 5339   3.454   2.287   0.538  0.9843  3.1466 -3.0300
  233DG      H4 5340   3.611   2.296   0.464  1.4619 -0.8667 -0.0228
  233DG      H5 5341   3.579   2.162   0.580  2.1309  0.7288 -0.3052
  233DG      H6 5342   2.996   2.050   0.296 -1.7847  0.0523 -0.7949
  233DG      H7 5343   2.977   1.985   0.127  0.7619  0.3513 -0.1670
  233DG      H8 5344   3.078   1.899   0.248  0.7767  0.1382 -0.7586
  233DG      O9 5345   3.482   2.139   0.404 -0.3606  0.5040 -0.5281
  233DG     O10 5346   3.133   2.088   0.158 -0.4540 -0.2633 -0.0053
  233DG     C11 5347   3.574   2.062   0.333  0.4130  0.0783  0.4903
  233DG     C12 5348   3.204   2.035   0.052 -0.6104 -0.4072  0.1675
  233DG     H13 5349   3.642   2.019   0.406  0.7161  0.5447  0.4858
  233DG     H14 5350   3.619   2.144   0.277 -0.2371  1.9791  2.5989
  233DG     H15 5351   3.245   2.120  -0.001 -2.0858 -0.2714 -0.8341
  233DG     H16 5352   3.144   1.981  -0.021 -1.6083 -0.5425  1.0673
  233DG     C17 5353   3.496   1.953   0.252 -0.0819 -0.3011  0.4863
  233DG     C18 5354   3.320   1.945   0.093 -0.8881  0.2931  0.7881
  233DG     O19 5355   3.384   2.019   0.192  0.8006  0.4569 -0.1909
  233DG     H20 5356   3.463   1.869   0.312  1.2130 -2.3205 -1.4807
  233DG     H21 5357   3.562   1.912   0.175 -0.0904  0.5629 -0.0054
  233DG     H22 5358   3.278   1.852   0.131  1.4134 -1.5100 -0.8021
  233DG     H23 5359   3.384   1.921   0.008 -1.3644 -1.3479  0.8414
  234DG      C1 5360   4.381   0.085   4.923 -0.4768  0.0724 -0.4055
  234DG      C2 5361   4.251   0.662   5.388  0.3261 -0.1631 -0.3961
  234DG      H3 5362   4.359   0.008   4.997 -0.3347  1.1510  0.8046
  234DG      H4 5363   4.489   0.096   4.923 -0.3448 -1.0990  0.0474
  234DG      H5 5364   4.349   0.046   4.827 -1.5416  1.6895 -0.7564
  234DG      H6 5365   4.163   0.715   5.424 -0.8252 -2.1326 -0.1745
  234DG      H7 5366   4.279   0.588   5.463  2.3854 -0.2403 -1.1850
  234DG      H8 5367   4.322   0.744   5.381  1.0347 -0.3763  2.7400
  234DG      O9 5368   4.311   0.211   4.951 -0.0664 -0.0318  0.2986
  234DG     O10 5369   4.215   0.618   5.265 -0.7460  0.0575  0.4359
  234DG     C11 5370   4.174   0.191   4.968 -0.3764 -0.0492  0.6601
  234DG     C12 5371   4.324   0.571   5.181 -0.0354  0.7909 -0.1495
  234DG     H13 5372   4.156   0.123   5.052 -2.6350  0.8251  0.9530
  234DG     H14 5373   4.129   0.164   4.873 -0.3371 -0.2870  0.7075
  234DG     H15 5374   4.391   0.498   5.229 -1.8907 -0.6430  0.3675
  234DG     H16 5375   4.368   0.667   5.152  0.2814  0.4552 -0.8029
  234DG     C17 5376   4.099   0.321   5.004 -0.2948  0.4446  0.7035
  234DG     C18 5377   4.267   0.490   5.057  0.0167  0.1607 -0.2092
  234DG     O19 5378   4.179   0.383   5.101 -0.4809 -0.0394  0.2122
  234DG     H20 5379   3.998   0.315   5.046  0.0395 -0.9975  1.3373
  234DG     H21 5380   4.094   0.380   4.912 -0.0335  1.9972  1.6437
  234DG     H22 5381   4.216   0.564   4.995  0.3251 -0.6095 -1.4013
  234DG     H23 5382   4.351   0.457   4.996  1.5441  3.2511  0.0414
  235DG      C1 5383   0.874   1.948   4.699  0.6987 -0.6324  0.6806
  235DG      C2 5384   1.502   2.065   5.007  0.1621 -0.1272  0.4985
  235DG      H3 5385   0.913   1.906   4.607  2.8709 -0.2730  1.3774
  235DG      H4 5386   0.772   1.987   4.694 -0.3493 -3.2935 -0.4811
  235DG      H5 5387   0.866   1.866   4.770  0.4687 -3.3630 -2.2693
  235DG      H6 5388   1.476   2.048   5.112 -0.9124 -0.2433  0.2312
  235DG      H7 5389   1.555   1.982   4.961  0.6418 -0.9776  2.4531
  235DG      H8 5390   1.570   2.149   5.021  1.0606 -0.9324  1.0322
  235DG      O9 5391   0.969   2.041   4.758 -0.0763 -1.0268  0.8412
  235DG     O10 5392   1.374   2.098   4.945  0.1360 -0.3793 -0.7925
  235DG     C11 5393   0.963   2.170   4.704  0.0763  0.0255 -0.3744
  235DG     C12 5394   1.317   2.212   5.015 -0.6236  0.7373  0.4446
  235DG     H13 5395   0.864   2.206   4.677 -1.0181 -2.6350 -0.2359
  235DG     H14 5396   1.010   2.183   4.607 -0.4622 -0.9454 -0.7812
  235DG     H15 5397   1.394   2.281   5.049 -2.2876  1.3189  3.2952
  235DG     H16 5398   1.248   2.179   5.093  1.2929 -0.3871  1.7470
  235DG     C17 5399   1.029   2.266   4.797  0.1469  0.2103 -0.1595
  235DG     C18 5400   1.241   2.289   4.909  0.2754 -0.6966  0.3971
  235DG     O19 5401   1.158   2.210   4.822  0.0853 -0.3552 -0.2827
  235DG     H20 5402   0.969   2.265   4.887  1.7988  0.4125  0.9943
  235DG     H21 5403   1.035   2.373   4.774 -0.7244  0.0404 -1.2447
  235DG     H22 5404   1.192   2.378   4.949 -0.4808 -0.2075 -1.5198
  235DG     H23 5405   1.311   2.319   4.832 -0.0920 -1.7191 -0.3520
  236THF     O1 5406   4.642   4.376   1.108  0.1657  0.9176  0.4386
  236THF     C2 5407   4.592   4.500   1.156 -0.2861  0.3176 -0.5213
  236THF     C3 5408   4.740   4.401   1.005  0.0337  0.3279 -0.2855
  236THF     H4 5409   4.566   4.506   1.262  2.4330  0.2126  0.2038
  236THF     H5 5410   4.496   4.509   1.105  0.7821  3.3336 -2.2512
  236THF     H6 5411   4.836   4.360   1.037 -1.3291 -2.5828  0.4036
  236THF     H7 5412   4.727   4.341   0.916  0.2547  0.5575 -0.4741
  236THF     C8 5413   4.735   4.551   0.977 -1.0472  0.7662  0.0103
  236THF     C9 5414   4.683   4.610   1.102 -0.0106  0.0008  0.5744
  236THF    H10 5415   4.667   4.562   0.893 -0.8767 -0.4225 -0.3059
  236THF    H11 5416   4.829   4.589   0.936 -1.3660  1.1952 -0.3299
  236THF    H12 5417   4.777   4.623   1.156  1.3419  0.5198 -1.7720
  236THF    H13 5418   4.632   4.703   1.078 -3.3338 -1.0598  2.8808
  237THF     O1 5419   0.247   3.411   3.362 -0.4444 -0.0229  0.1175
  237THF     C2 5420   0.336   3.401   3.469 -0.0621 -0.0858 -0.4696
  237THF     C3 5421   0.118   3.418   3.418 -0.4736 -0.0854 -0.3357
  237THF     H4 5422   0.444   3.403   3.453  0.3483  0.0797  1.9345
  237THF     H5 5423   0.328   3.299   3.509  0.6628  0.3163  0.7395
  237THF     H6 5424   0.047   3.465   3.350 -0.4182 -0.4751 -0.6670
  237THF     H7 5425   0.094   3.312   3.432 -1.1868  0.2893  1.5129
  237THF     C8 5426   0.131   3.487   3.554  0.0654 -0.2105 -0.1798
  237THF     C9 5427   0.278   3.497   3.573 -0.0741  0.2859 -0.1100
  237THF    H10 5428   0.083   3.439   3.638 -0.4223 -0.3936 -0.5587
  237THF    H11 5429   0.094   3.590   3.550 -1.0892 -0.6028  0.1119
  237THF    H12 5430   0.315   3.599   3.568  1.3637 -0.2629 -1.3986
  237THF    H13 5431   0.304   3.463   3.673 -0.1240 -1.9559 -0.8084
  238THF     O1 5432   3.855   2.178   4.182  0.2610 -0.0105  0.6258
  238THF     C2 5433   3.720   2.241   4.158 -0.2410  0.0263 -0.6238
  238THF     C3 5434   3.955   2.262   4.117  0.6210  0.2330 -0.1123
  238THF     H4 5435   3.690   2.273   4.258 -2.8229  2.5331 -2.0222
  238THF     H5 5436   3.660   2.154   4.132 -1.6054 -0.0104  2.2414
  238THF     H6 5437   3.985   2.343   4.182 -0.4697  0.6600 -0.1068
  238THF     H7 5438   4.041   2.208   4.076  2.7043  2.7164  0.7585
  238THF     C8 5439   3.875   2.328   4.000 -0.2474 -0.1518  0.5344
  238THF     C9 5440   3.741   2.355   4.063  0.2393  0.2262  1.1637
  238THF    H10 5441   3.864   2.253   3.922 -0.5239  0.0913  0.3375
  238THF    H11 5442   3.928   2.415   3.961 -2.5505  0.4606 -1.4712
  238THF    H12 5443   3.722   2.455   4.102 -0.6152  0.7268 -0.4066
  238THF    H13 5444   3.655   2.353   3.996  0.0540 -1.7043  1.3839
  239THF     O1 5445   1.648   1.301   4.281  0.0502  0.2245 -0.1428
  239THF     C2 5446   1.537   1.237   4.228  0.2112  0.4463  0.2367
  239THF     C3 5447   1.711   1.213   4.371 -1.4581  0.2670 -0.3389
  239THF     H4 5448   1.576   1.169   4.152 -0.6302 -0.8338  0.9173
  239THF     H5 5449   1.459   1.293   4.177 -0.2553 -1.5669 -1.4210
  239THF     H6 5450   1.772   1.144   4.313 -0.0842  0.6868  0.5697
  239THF     H7 5451   1.770   1.267   4.445 -1.1454  1.6429 -1.5490
  239THF     C8 5452   1.600   1.138   4.444 -0.0174  0.4996  0.3921
  239THF     C9 5453   1.483   1.162   4.351 -0.4003  0.0540  0.1085
  239THF    H10 5454   1.597   1.186   4.542  1.7065  0.3256  0.5555
  239THF    H11 5455   1.615   1.031   4.457 -1.1000  0.0801 -1.4832
  239THF    H12 5456   1.415   1.079   4.331 -1.1164  0.8648 -0.9498
  239THF    H13 5457   1.420   1.238   4.397 -0.2400  0.4744 -0.3560
  240THF     O1 5458   0.749   0.234   0.119 -0.6031  0.2279 -0.1097
  240THF     C2 5459   0.698   0.212   0.250 -0.9090  0.1654 -0.1634
  240THF     C3 5460   0.716   0.369   0.092  0.7558  0.5995 -0.3370
  240THF     H4 5461   0.764   0.256   0.324 -0.9940 -0.4666  0.2945
  240THF     H5 5462   0.691   0.107   0.277 -2.9378  0.4850  0.7462
  240THF     H6 5463   0.780   0.436   0.151 -2.6093  2.4537  1.5042
  240THF     H7 5464   0.724   0.407  -0.009  4.9036  2.2898  0.4041
  240THF     C8 5465   0.574   0.380   0.149  0.6832  0.4191  0.1268
  240THF     C9 5466   0.565   0.274   0.257  0.2850 -0.6300  0.5171
  240THF    H10 5467   0.501   0.358   0.071  0.6127 -1.9541  0.7936
  240THF    H11 5468   0.547   0.482   0.177 -2.0640  0.5827 -2.5631
  240THF    H12 5469   0.551   0.311   0.359 -1.9656  1.3674 -0.4405
  240THF    H13 5470   0.474   0.216   0.248 -1.0014  1.5183 -1.2476
  241THF     O1 5471   4.266   0.793   4.875  0.3788 -0.8116  0.0325
  241THF     C2 5472   4.205   0.896   4.956  0.5546  0.1918 -0.4433
  241THF     C3 5473   4.179   0.776   4.765 -0.7937 -0.0719  0.1834
  241THF     H4 5474   4.266   0.916   5.044  0.3441 -2.6903  0.4607
  241THF     H5 5475   4.119   0.843   4.996  0.8509 -1.4159 -1.8140
  241THF     H6 5476   4.229   0.726   4.683  0.7793  0.0232  1.0388
  241THF     H7 5477   4.082   0.729   4.784 -0.6411  0.3603  2.3170
  241THF     C8 5478   4.150   0.922   4.725 -0.2558  0.4613  0.1858
  241THF     C9 5479   4.141   1.000   4.860 -0.3437 -0.0994  0.7551
  241THF    H10 5480   4.069   0.933   4.653 -0.9846  0.0815  0.9325
  241THF    H11 5481   4.236   0.965   4.673  0.7791 -0.2972  1.2069
  241THF    H12 5482   4.197   1.093   4.857 -0.0677 -0.0807  3.6349
  241THF    H13 5483   4.037   1.025   4.885 -0.8728  0.2066 -1.5099
  242THF     O1 5484   3.797   0.620   1.960 -0.4094 -0.5135  0.3685
  242THF     C2 5485   3.936   0.602   1.965  0.1707 -0.4345 -0.3657
  242THF     C3 5486   3.763   0.730   1.879 -0.0754 -0.3499 -0.2613
  242THF     H4 5487   3.967   0.505   2.006 -2.3147 -1.0131  0.3408
  242THF     H5 5488   3.975   0.684   2.024 -1.9088  0.1662  0.2717
  242THF     H6 5489   3.666   0.720   1.831 -0.5098 -0.4198  0.6195
  242THF     H7 5490   3.751   0.828   1.926 -2.0317 -0.8131  0.2769
  242THF     C8 5491   3.878   0.730   1.778 -0.3499  0.0623  0.0572
  242THF     C9 5492   3.971   0.625   1.822  0.0179  0.0228  0.3953
  242THF    H10 5493   3.924   0.828   1.765  1.6587 -0.8407 -0.0162
  242THF    H11 5494   3.834   0.714   1.679  1.6947  0.1301 -0.9205
  242THF    H12 5495   3.934   0.544   1.759  0.1099  0.8451 -0.7470
  242THF    H13 5496   4.076   0.647   1.802 -0.5177  0.4805 -2.1848
  243THF     O1 5497   0.659   3.541   1.394  0.2875 -0.4681 -0.2317
  243THF     C2 5498   0.648   3.420   1.458 -0.5159 -0.3296  0.5915
  243THF     C3 5499   0.775   3.552   1.319  0.5550  0.6853  0.8152
  243THF     H4 5500   0.552   3.379   1.426 -0.8860 -1.4069  2.8588
  243THF     H5 5501   0.641   3.433   1.566  1.3159  3.2023  0.4226
  243THF     H6 5502   0.746   3.522   1.218  0.4225  0.8779  0.7956
  243THF     H7 5503   0.815   3.653   1.318  0.9082  0.5609  1.5211
  243THF     C8 5504   0.862   3.440   1.375  0.3701 -0.0417  1.0932
  243THF     C9 5505   0.766   3.334   1.419 -0.0621  0.5088  0.3978
  243THF    H10 5506   0.923   3.489   1.450  0.2344 -2.3523  2.8073
  243THF    H11 5507   0.938   3.404   1.306 -0.1323  2.6714 -1.0896
  243THF    H12 5508   0.750   3.266   1.335  0.6303  1.7292 -0.7673
  243THF    H13 5509   0.813   3.272   1.496  0.6277  0.0362 -0.3764
  244THF     O1 5510   4.984   0.974   4.895 -0.2546 -0.1968  0.1689
  244THF     C2 5511   5.051   1.083   4.825 -0.3917  0.2471 -0.6276
  244THF     C3 5512   4.877   1.023   4.980 -0.1832  0.3520  0.0791
  244THF     H4 5513   5.025   1.091   4.719 -0.5746 -2.7771 -0.9080
  244THF     H5 5514   5.159   1.073   4.837 -0.6989  0.0646  3.0098
  244THF     H6 5515   4.786   0.969   4.952 -0.7001  1.3442 -0.1718
  244THF     H7 5516   4.898   1.002   5.085  1.8711 -0.3549 -0.4158
  244THF     C8 5517   4.865   1.163   4.948  0.4173 -1.1000 -0.9326
  244THF     C9 5518   4.995   1.208   4.895 -0.3084  0.2493 -0.1910
  244THF    H10 5519   4.830   1.224   5.031  0.5792 -0.0769 -1.5943
  244THF    H11 5520   4.774   1.181   4.891  0.6362  1.3275 -0.5943
  244THF    H12 5521   4.997   1.296   4.831  3.8435 -0.6541 -1.6147
  244THF    H13 5522   5.058   1.229   4.981  1.8420  0.6862 -1.7984
  245THF     O1 5523   4.703   3.014   1.738  0.1446 -0.6448  0.3321
  245THF     C2 5524   4.578   3.076   1.761  0.1458  0.0191 -0.3512
  245THF     C3 5525   4.718   2.929   1.851  0.6910 -0.2772  0.1091
  245THF     H4 5526   4.539   3.131   1.676  2.1420 -1.0177 -2.0165
  245THF     H5 5527   4.588   3.152   1.839  2.0718  0.8599 -1.3491
  245THF     H6 5528   4.779   2.842   1.827  1.1230 -0.2479  1.0339
  245THF     H7 5529   4.766   2.976   1.937  0.9740  1.4750 -0.9515
  245THF     C8 5530   4.583   2.884   1.895  0.5323  0.6481 -0.1131
  245THF     C9 5531   4.486   2.964   1.816 -0.3332  0.0123 -0.2367
  245THF    H10 5532   4.571   2.908   2.001 -0.1116  0.3290 -0.1128
  245THF    H11 5533   4.571   2.778   1.875  0.4909  0.4953  0.6880
  245THF    H12 5534   4.457   2.890   1.742  1.9663 -0.6723 -0.5349
  245THF    H13 5535   4.399   2.997   1.872 -0.7293  0.3393 -1.0317
  246THF     O1 5536   1.990   2.839   2.782 -0.4708 -0.6459  0.5186
  246THF     C2 5537   2.125   2.879   2.795 -0.9659  0.3366 -0.2679
  246THF     C3 5538   1.964   2.722   2.856 -0.7966 -0.1020  0.2395
  246THF     H4 5539   2.151   2.981   2.766  0.6547 -0.5511 -2.1554
  246THF     H5 5540   2.192   2.813   2.740  0.6090  0.8658  0.9567
  246THF     H6 5541   1.859   2.732   2.883 -0.2112  0.9324  2.3162
  246THF     H7 5542   1.984   2.637   2.791  2.7593  1.0518 -0.4284
  246THF     C8 5543   2.058   2.734   2.972 -0.0601  0.3950  0.2839
  246THF     C9 5544   2.146   2.851   2.947 -0.2441 -0.8914  0.3575
  246THF    H10 5545   2.113   2.642   2.990 -0.2691  0.0744 -0.6543
  246THF    H11 5546   2.009   2.722   3.068  0.5115 -1.0089  0.4155
  246THF    H12 5547   2.105   2.931   3.010 -0.5831 -0.3907 -0.4807
  246THF    H13 5548   2.250   2.843   2.981  0.0990  1.9940  0.3062
  247THF     O1 5549   2.579   0.439   2.146 -0.4165  0.0068 -0.2206
  247THF     C2 5550   2.664   0.455   2.040 -0.2161  0.9865 -0.4666
  247THF     C3 5551   2.571   0.554   2.235  0.0749 -0.2753 -0.1263
  247THF     H4 5552   2.604   0.521   1.978 -1.1777  1.2151  0.6743
  247THF     H5 5553   2.690   0.364   1.986  1.8065  1.2026  0.0346
  247THF     H6 5554   2.506   0.628   2.190 -1.3933 -1.8354 -0.6872
  247THF     H7 5555   2.540   0.534   2.337 -0.3964  2.7157  0.3998
  247THF     C8 5556   2.713   0.602   2.229 -0.0072 -0.0157 -0.5923
  247THF     C9 5557   2.784   0.527   2.115 -0.3909 -0.1256  0.3294
  247THF    H10 5558   2.758   0.568   2.322  2.6351  0.7384 -1.5172
  247THF    H11 5559   2.732   0.708   2.209 -0.6588  0.0595 -0.8719
  247THF    H12 5560   2.839   0.599   2.054 -0.6669  1.1530  1.5443
  247THF    H13 5561   2.861   0.461   2.157  0.7215  1.0772  0.2444
  248THF     O1 5562   5.120   0.863   2.320 -0.2834 -0.3127 -0.0467
  248THF     C2 5563   5.209   0.897   2.426 -0.5152  0.2479 -0.0953
  248THF     C3 5564   5.114   0.964   2.223 -0.2271  0.2097 -0.1700
  248THF     H4 5565   5.274   0.813   2.451  0.5149  0.8473 -0.6703
  248THF     H5 5566   5.156   0.921   2.518  0.7772  2.0628  0.2280
  248THF     H6 5567   5.095   0.916   2.127 -0.7264 -1.6844  0.8121
  248THF     H7 5568   5.032   1.027   2.256 -1.1083 -1.6238  1.3351
  248THF     C8 5569   5.250   1.025   2.224 -0.3172  0.0459  0.0131
  248THF     C9 5570   5.291   1.017   2.369 -0.2488 -0.9657 -0.0941
  248THF    H10 5571   5.240   1.126   2.186  0.3610 -1.0316 -3.3004
  248THF    H11 5572   5.317   0.970   2.158 -0.7552 -0.0575 -0.3416
  248THF    H12 5573   5.399   1.006   2.386 -0.2172  0.3837  0.7699
  248THF    H13 5574   5.260   1.111   2.416  0.7435 -0.1516 -1.0106
  249THF     O1 5575   3.455   1.758   0.623 -0.0435  0.3680 -0.3660
  249THF     C2 5576   3.511   1.627   0.634  0.5628  0.2733  0.9757
  249THF     C3 5577   3.508   1.852   0.710 -0.0386  1.1986  0.5184
  249THF     H4 5578   3.589   1.617   0.559 -0.1447 -1.0653  0.3922
  249THF     H5 5579   3.435   1.550   0.628  1.7337 -0.8296 -0.3751
  249THF     H6 5580   3.557   1.924   0.645 -1.3515 -0.6944 -2.7868
  249THF     H7 5581   3.428   1.885   0.777 -0.7972 -1.1006  0.8264
  249THF     C8 5582   3.616   1.779   0.784 -0.1049 -0.4702  0.3027
  249THF     C9 5583   3.575   1.636   0.773  0.3532 -0.2953  0.2905
  249THF    H10 5584   3.632   1.814   0.886  1.0198  2.1504 -0.6929
  249THF    H11 5585   3.710   1.781   0.729 -0.2232 -0.6627  0.0890
  249THF    H12 5586   3.659   1.566   0.773 -0.2517 -1.0722  1.7818
  249THF    H13 5587   3.506   1.606   0.851  0.1737 -1.8234 -0.4264
  250THF     O1 5588   2.695   5.108   0.395  0.1057 -0.5021 -0.0772
  250THF     C2 5589   2.832   5.145   0.409 -0.3997 -0.3964 -0.6367
  250THF     C3 5590   2.624   5.193   0.486 -0.5927  0.4672  0.1264
  250THF     H4 5591   2.873   5.211   0.333 -0.7126  0.9220  0.3020
  250THF     H5 5592   2.887   5.051   0.403 -0.8604 -0.7890  0.8457
  250THF     H6 5593   2.534   5.235   0.442 -0.2760  1.7080  0.6091
  250THF     H7 5594   2.583   5.127   0.562  0.5250 -1.5657 -0.9601
  250THF     C8 5595   2.715   5.288   0.546  0.0276 -0.2987  0.2797
  250THF     C9 5596   2.842   5.210   0.548 -0.0150 -0.6392  0.5231
  250THF    H10 5597   2.704   5.316   0.650  2.2853  1.8513  0.0361
  250THF    H11 5598   2.717   5.387   0.501 -2.9643 -0.1551  0.2719
  250THF    H12 5599   2.929   5.273   0.564 -1.5591  1.4339  1.2077
  250THF    H13 5600   2.841   5.134   0.626  1.3673 -1.1949  0.0376
  251THF     O1 5601   2.266   2.580   1.174 -0.5933 -0.5057 -0.2007
  251THF     C2 5602   2.379   2.496   1.139  0.0486  0.0955  0.2502
  251THF     C3 5603   2.216   2.637   1.063  0.1038  0.0566  0.4789
  251THF     H4 5604   2.353   2.402   1.090  0.3708  0.1608 -0.0447
  251THF     H5 5605   2.440   2.486   1.229 -2.3111  1.2813  2.1206
  251THF     H6 5606   2.182   2.561   0.994 -0.8917  0.5538  0.4136
  251THF     H7 5607   2.145   2.719   1.065 -0.2033 -0.2147  2.0322
  251THF     C8 5608   2.344   2.692   1.008  0.4813 -0.4300  0.0185
  251THF     C9 5609   2.449   2.592   1.044  0.4123 -0.0053  0.3071
  251THF    H10 5610   2.365   2.784   1.063 -0.3431  0.6384 -1.3629
  251THF    H11 5611   2.357   2.712   0.901 -0.9750 -3.0859 -0.7395
  251THF    H12 5612   2.471   2.541   0.950 -1.8211 -0.1567 -0.1919
  251THF    H13 5613   2.543   2.635   1.078  1.2169 -3.2000  2.5317
  252THF     O1 5614   0.155   0.444   1.935  0.1401 -0.0595  0.3684
  252THF     C2 5615   0.299   0.446   1.954 -0.6718 -0.0702  0.6295
  252THF     C3 5616   0.114   0.390   1.807  0.3536  0.2773  0.3287
  252THF     H4 5617   0.326   0.341   1.962  1.2121  0.3679  0.6097
  252THF     H5 5618   0.329   0.500   2.043  3.6480 -0.4351 -0.3874
  252THF     H6 5619   0.143   0.285   1.808 -1.6048 -0.3008  0.4552
  252THF     H7 5620   0.016   0.403   1.761  0.0740 -0.5994  0.6678
  252THF     C8 5621   0.219   0.467   1.719  0.0914  0.1906 -0.5942
  252THF     C9 5622   0.331   0.506   1.815  0.5372 -0.7981 -0.7448
  252THF    H10 5623   0.180   0.563   1.686 -3.1333 -0.2773  1.4110
  252THF    H11 5624   0.270   0.400   1.650  1.2316  1.5444 -1.1127
  252THF    H12 5625   0.426   0.470   1.777 -0.0771 -3.3822  0.0262
  252THF    H13 5626   0.346   0.614   1.819 -0.2833 -0.6863 -0.5617
  253THF     O1 5627   1.903   2.276   0.294 -0.0678  0.9499 -0.1925
  253THF     C2 5628   1.964   2.281   0.424  0.0755 -0.6880 -0.9744
  253THF     C3 5629   1.927   2.389   0.229 -0.7434 -1.6803  0.2027
  253THF     H4 5630   2.023   2.193   0.446 -0.4208 -0.8533 -0.2809
  253THF     H5 5631   1.890   2.278   0.504 -0.1908  1.1829 -1.0856
  253THF     H6 5632   1.940   2.380   0.121  1.6566 -0.9385  0.3680
  253THF     H7 5633   1.861   2.474   0.245  0.8083 -0.7779  2.3103
  253THF     C8 5634   2.061   2.438   0.276  0.5182  0.2559 -0.1342
  253THF     C9 5635   2.055   2.403   0.422 -0.2050 -0.4846  0.0490
  253THF    H10 5636   2.073   2.545   0.255  1.9088 -0.1711 -1.7026
  253THF    H11 5637   2.139   2.381   0.226  0.0304  1.2299 -2.1027
  253THF    H12 5638   2.159   2.390   0.451  0.7582  2.0162 -1.8445
  253THF    H13 5639   2.025   2.485   0.488 -0.6468 -0.9062  0.3796
  254THF     O1 5640   4.389   4.473   3.286 -0.0421  0.5070 -0.6265
  254THF     C2 5641   4.399   4.603   3.250 -0.3612 -0.0322 -0.3598
  254THF     C3 5642   4.257   4.425   3.298  0.4712 -0.3471  0.5621
  254THF     H4 5643   4.473   4.626   3.174 -0.9833 -1.8889 -1.6061
  254THF     H5 5644   4.405   4.673   3.333  0.5929 -0.5187 -0.0078
  254THF     H6 5645   4.231   4.319   3.295 -1.5585  0.1251 -1.1087
  254THF     H7 5646   4.214   4.456   3.393  0.9845 -0.5776  0.8753
  254THF     C8 5647   4.181   4.515   3.196 -0.5515  0.7883  0.1406
  254THF     C9 5648   4.266   4.635   3.193  0.0807 -0.6942  0.3793
  254THF    H10 5649   4.077   4.530   3.227 -0.1439  0.7771  1.5945
  254THF    H11 5650   4.189   4.465   3.100 -0.9120  1.3699 -0.1981
  254THF    H12 5651   4.286   4.659   3.088  1.7478 -2.1733  0.3198
  254THF    H13 5652   4.216   4.721   3.237 -1.6140 -1.3905 -0.0593
  255THF     O1 5653   2.261   1.574   2.618  0.0331 -0.7802  0.0470
  255THF     C2 5654   2.261   1.435   2.586  0.1086 -0.4961  0.5622
  255THF     C3 5655   2.384   1.601   2.688  0.0834 -0.9695  0.7359
  255THF     H4 5656   2.195   1.426   2.499  2.5739 -0.3492 -1.4461
  255THF     H5 5657   2.208   1.377   2.662  0.3587  0.3365  1.3920
  255THF     H6 5658   2.413   1.704   2.709 -1.2481 -0.5011  0.3434
  255THF     H7 5659   2.390   1.537   2.776 -1.8361 -1.2212  0.7231
  255THF     C8 5660   2.477   1.532   2.585  0.2208  0.2039 -0.1205
  255THF     C9 5661   2.407   1.398   2.571 -0.2742  0.1387 -0.6001
  255THF    H10 5662   2.581   1.542   2.617  0.0525  0.2083  0.4261
  255THF    H11 5663   2.466   1.592   2.494 -3.3531  3.3708  2.0860
  255THF    H12 5664   2.431   1.338   2.484 -0.8243 -1.8990  0.5809
  255THF    H13 5665   2.432   1.324   2.648  1.0256 -1.1432 -2.1873
  256THF     O1 5666   0.207   0.887   3.613 -0.4835  0.0231  0.1663
  256THF     C2 5667   0.115   0.991   3.620  0.4971  1.0158  0.6692
  256THF     C3 5668   0.300   0.899   3.711  0.5853 -0.0562  0.2290
  256THF     H4 5669   0.028   0.958   3.678 -0.5691 -1.7207 -2.2318
  256THF     H5 5670   0.076   1.004   3.519  0.7829  0.0553  0.4268
  256THF     H6 5671   0.254   0.848   3.796  1.0038 -0.8207  0.0135
  256THF     H7 5672   0.396   0.855   3.682 -0.3794 -1.0112 -1.7155
  256THF     C8 5673   0.324   1.050   3.711  0.1619 -0.7358 -1.0658
  256THF     C9 5674   0.187   1.108   3.683  0.6949 -0.1477  0.0494
  256THF    H10 5675   0.388   1.065   3.624 -1.0553  1.2442 -1.6716
  256THF    H11 5676   0.378   1.092   3.796 -0.8598  1.1593 -1.3048
  256THF    H12 5677   0.138   1.133   3.776  1.2265 -0.5696  0.4507
  256THF    H13 5678   0.186   1.184   3.605 -1.0606 -0.5800 -0.3984
  257THF     O1 5679   2.492   4.708   0.501 -0.1626 -0.1164 -0.6710
  257THF     C2 5680   2.615   4.643   0.488 -0.5126  0.2063  0.1919
  257THF     C3 5681   2.515   4.839   0.545  0.7486  0.0392 -0.3305
  257THF     H4 5682   2.613   4.589   0.394  0.8604 -1.2091  0.9439
  257THF     H5 5683   2.630   4.566   0.564 -1.0759  0.5441  0.6564
  257THF     H6 5684   2.492   4.896   0.455 -0.1262 -0.8988 -0.7270
  257THF     H7 5685   2.441   4.852   0.623  1.1322 -3.0772  0.6978
  257THF     C8 5686   2.663   4.845   0.590 -0.0784 -0.4635  0.1681
  257THF     C9 5687   2.728   4.752   0.492  0.0190  1.0464  0.3486
  257THF    H10 5688   2.677   4.814   0.694  0.7148  0.4247  0.3461
  257THF    H11 5689   2.710   4.944   0.592  1.2083 -1.0580  1.2130
  257THF    H12 5690   2.741   4.795   0.393  1.1241 -2.1664 -1.0654
  257THF    H13 5691   2.820   4.711   0.534  1.2120  1.8382 -1.4161
  258THF     O1 5692   3.800   0.716   4.608  0.1723 -0.0564 -0.1571
  258THF     C2 5693   3.756   0.779   4.725 -0.1634  0.2062  0.8341
  258THF     C3 5694   3.804   0.816   4.502 -0.2869  0.4106 -0.1808
  258THF     H4 5695   3.842   0.833   4.766  0.2557  1.0006 -0.9801
  258THF     H5 5696   3.718   0.705   4.796 -4.0686 -0.0398 -1.2567
  258THF     H6 5697   3.893   0.878   4.510 -0.1461  0.2126 -0.1805
  258THF     H7 5698   3.807   0.784   4.398 -2.1658 -0.2701 -0.0717
  258THF     C8 5699   3.684   0.893   4.528 -0.3209 -0.1192  0.3730
  258THF     C9 5700   3.654   0.885   4.677 -0.2611  0.2608 -1.0078
  258THF    H10 5701   3.603   0.849   4.470 -1.7689 -0.4369  2.5373
  258THF    H11 5702   3.717   0.988   4.485  2.5379 -0.2207  2.1377
  258THF    H12 5703   3.661   0.984   4.722  0.9465 -1.1545  2.1645
  258THF    H13 5704   3.554   0.842   4.689  0.0739  0.0089  1.2649
  259THF     O1 5705   1.819   0.302   2.683  0.0358  0.1457 -0.7731
  259THF     C2 5706   1.684   0.285   2.648  0.1209  0.2468  0.6977
  259THF     C3 5707   1.825   0.359   2.815  0.7939  0.6070  0.6034
  259THF     H4 5708   1.675   0.199   2.580  1.6511  0.2160  0.5058
  259THF     H5 5709   1.652   0.368   2.585 -1.0761  2.1358  3.6013
  259THF     H6 5710   1.855   0.278   2.882  0.8837  0.5407  0.4863
  259THF     H7 5711   1.894   0.443   2.820  2.5331 -0.6859 -0.4294
  259THF     C8 5712   1.679   0.373   2.867 -0.2431 -0.4881  0.1036
  259THF     C9 5713   1.598   0.279   2.776  0.6001 -0.0257 -0.3088
  259THF    H10 5714   1.645   0.476   2.854 -2.6109 -0.9825  1.6886
  259THF    H11 5715   1.667   0.339   2.970  1.3755 -1.6993 -0.0697
  259THF    H12 5716   1.595   0.179   2.820  0.2023 -0.4643 -1.2887
  259THF    H13 5717   1.492   0.301   2.763 -0.2428 -3.0900  0.5952
  260THF     O1 5718   2.005   4.207   4.308  0.1728 -0.2270 -0.0964
  260THF     C2 5719   2.109   4.167   4.397 -0.1649  0.6808 -0.2525
  260THF     C3 5720   2.001   4.118   4.200  0.2668 -0.6620  0.1475
  260THF     H4 5721   2.054   4.110   4.472  0.7545  0.8805  0.5832
  260THF     H5 5722   2.159   4.255   4.437  1.8344 -0.2476 -0.5951
  260THF     H6 5723   1.962   4.022   4.233  1.0579 -1.8585 -2.1882
  260THF     H7 5724   1.941   4.159   4.118  0.5330 -2.0158 -0.7590
  260THF     C8 5725   2.153   4.093   4.179  0.3757 -0.1721 -0.1794
  260THF     C9 5726   2.204   4.073   4.314  0.7473 -0.3503 -0.2940
  260THF    H10 5727   2.204   4.184   4.146  0.9903  0.3072  1.9229
  260THF    H11 5728   2.165   4.006   4.115  0.4180  0.4187 -0.9989
  260THF    H12 5729   2.187   3.970   4.348  0.7141 -0.5938 -1.0329
  260THF    H13 5730   2.312   4.089   4.312  1.0992 -2.4319 -1.6184
  261THF     O1 5731   0.413   2.019   0.307  0.1965 -0.3255 -0.5706
  261THF     C2 5732   0.479   2.103   0.212  0.1585  0.3899  0.4672
  261THF     C3 5733   0.417   2.087   0.432  0.4500  0.1000 -0.2269
  261THF     H4 5734   0.422   2.101   0.120 -0.6388 -0.2839  0.9627
  261THF     H5 5735   0.582   2.081   0.181  0.9442  3.4475  0.5999
  261THF     H6 5736   0.338   2.049   0.496  1.3937 -1.4147  0.1076
  261THF     H7 5737   0.504   2.048   0.486 -0.6772 -2.4797 -0.1181
  261THF     C8 5738   0.420   2.232   0.397  0.3241  0.3038 -0.6047
  261THF     C9 5739   0.490   2.246   0.267  0.3498  0.4160 -0.4629
  261THF    H10 5740   0.485   2.290   0.462  0.8107 -0.4855 -0.3665
  261THF    H11 5741   0.319   2.272   0.400 -0.1297 -0.8070 -0.5540
  261THF    H12 5742   0.442   2.320   0.202 -0.9095 -0.4869 -0.5966
  261THF    H13 5743   0.597   2.268   0.276  0.0737  2.1599 -1.0816
  262THF     O1 5744   3.224   1.690   1.255  0.0368 -0.3944  0.4616
  262THF     C2 5745   3.230   1.786   1.154 -0.2553 -0.1049 -0.2778
  262THF     C3 5746   3.274   1.565   1.205 -0.1508 -0.2841 -0.9691
  262THF     H4 5747   3.211   1.887   1.191  0.9239 -0.6978  2.1180
  262THF     H5 5748   3.151   1.771   1.080 -1.5005  2.8975  0.2766
  262THF     H6 5749   3.313   1.503   1.285  0.1778 -0.5247 -1.3140
  262THF     H7 5750   3.194   1.503   1.165  0.6028 -3.1582  1.5946
  262THF     C8 5751   3.369   1.608   1.100 -0.2496  0.6063 -0.1034
  262THF     C9 5752   3.369   1.758   1.095  0.2389 -0.2452 -0.0763
  262THF    H10 5753   3.337   1.580   0.999  2.0192 -0.7392 -0.5358
  262THF    H11 5754   3.474   1.583   1.119 -0.6288 -0.6534  0.4227
  262THF    H12 5755   3.452   1.800   1.151 -0.5538  1.0187  0.1989
  262THF    H13 5756   3.382   1.803   0.996 -0.3693  0.2847  0.0769
  263THF     O1 5757   1.536   2.196   2.501 -0.6968 -0.7285  0.0507
  263THF     C2 5758   1.411   2.258   2.448 -0.0586  0.2069  0.4517
  263THF     C3 5759   1.512   2.153   2.640 -0.1433 -0.6717  0.5602
  263THF     H4 5760   1.359   2.193   2.377  3.6038  0.2119 -2.4927
  263THF     H5 5761   1.428   2.348   2.389  0.3689  0.7589  1.4079
  263THF     H6 5762   1.557   2.056   2.663 -0.1601 -0.9538 -0.5573
  263THF     H7 5763   1.564   2.225   2.703  3.1793  0.1041 -2.7161
  263THF     C8 5764   1.359   2.163   2.664 -0.4532  0.0803  0.5118
  263THF     C9 5765   1.324   2.281   2.578 -0.2909  0.0145  0.1985
  263THF    H10 5766   1.334   2.195   2.765  0.3582  0.1705  0.6895
  263THF    H11 5767   1.294   2.082   2.630  1.5970 -1.3110 -0.2900
  263THF    H12 5768   1.215   2.283   2.570 -0.2899  0.2669  0.2120
  263THF    H13 5769   1.354   2.371   2.633  1.2243 -1.9430  2.7707
  264THF     O1 5770   4.352   0.708   3.634 -0.2083 -0.1140  0.0873
  264THF     C2 5771   4.445   0.622   3.564  0.5948 -0.8237 -0.2655
  264THF     C3 5772   4.406   0.839   3.666 -0.0167 -0.2800  0.2114
  264THF     H4 5773   4.378   0.594   3.483 -0.8456  0.5844  0.3815
  264THF     H5 5774   4.465   0.528   3.614 -0.7845 -1.2050 -0.3944
  264THF     H6 5775   4.320   0.907   3.660  0.0867 -0.1399  0.3022
  264THF     H7 5776   4.461   0.849   3.760  1.9298  3.4529 -1.1123
  264THF     C8 5777   4.508   0.854   3.551 -0.1879  0.5700  0.9092
  264THF     C9 5778   4.567   0.714   3.530  0.3433  0.9083 -0.4100
  264THF    H10 5779   4.567   0.943   3.574 -0.1176  1.5050 -2.4230
  264THF    H11 5780   4.457   0.882   3.459 -0.2772 -0.0630  0.7662
  264THF    H12 5781   4.594   0.698   3.425 -2.4188  0.8134 -1.1942
  264THF    H13 5782   4.645   0.676   3.595 -1.5320 -0.6441  1.0601
  265THF     O1 5783   0.208   0.706   4.803  0.2711  0.4559 -0.3749
  265THF     C2 5784   0.128   0.645   4.700  0.5035  0.3286 -0.6632
  265THF     C3 5785   0.248   0.619   4.904  0.1801 -0.6493  0.1534
  265THF     H4 5786   0.139   0.708   4.612 -2.0280 -0.1108 -1.3496
  265THF     H5 5787   0.023   0.658   4.725  0.5622  1.4097 -0.9279
  265THF     H6 5788   0.327   0.656   4.970 -0.1277 -0.3212  0.3395
  265THF     H7 5789   0.170   0.588   4.974 -0.0297 -2.2729 -0.7524
  265THF     C8 5790   0.293   0.504   4.809 -0.0336  0.3546 -0.2154
  265THF     C9 5791   0.187   0.507   4.689 -0.1542 -0.1728 -0.4325
  265THF    H10 5792   0.281   0.407   4.856 -1.7562  1.3855  1.6069
  265THF    H11 5793   0.392   0.537   4.776 -0.3206  2.5798  0.9653
  265THF    H12 5794   0.220   0.481   4.588  1.3952 -0.8987  0.2141
  265THF    H13 5795   0.102   0.441   4.707 -1.3145  1.9190  2.5161
  266THF     O1 5796   0.952   2.231   3.342 -0.2442  0.0007  0.7110
  266THF     C2 5797   0.877   2.302   3.240 -0.3444  0.2997  0.7912
  266THF     C3 5798   0.885   2.247   3.464  0.1317  0.7302 -0.1206
  266THF     H4 5799   0.905   2.261   3.142 -1.0301  2.6627 -0.4703
  266THF     H5 5800   0.887   2.410   3.241 -2.8513  0.6038  1.0411
  266THF     H6 5801   0.900   2.151   3.513  0.5750  0.9268  0.1433
  266THF     H7 5802   0.940   2.324   3.520  1.4457  0.4264 -0.9610
  266THF     C8 5803   0.735   2.282   3.439  0.1562  0.5387  0.3536
  266THF     C9 5804   0.733   2.272   3.285  0.5751  0.1485  0.2315
  266THF    H10 5805   0.721   2.387   3.462 -2.5615  0.7165 -1.6767
  266THF    H11 5806   0.658   2.227   3.494  0.8965 -0.0700  0.8149
  266THF    H12 5807   0.700   2.171   3.262 -1.8166  1.2161 -1.4498
  266THF    H13 5808   0.666   2.341   3.232 -2.4056 -1.9179  1.0866
  267THF     O1 5809   5.214   1.949   4.632 -0.0384  0.5869 -0.2485
  267THF     C2 5810   5.330   2.034   4.624 -0.4033 -0.2958  0.1459
  267THF     C3 5811   5.222   1.878   4.753 -0.4438 -0.6818  0.3118
  267THF     H4 5812   5.317   2.110   4.547  1.7952  0.6506  0.6463
  267THF     H5 5813   5.415   1.978   4.585 -0.6661  1.5318 -3.4673
  267THF     H6 5814   5.128   1.829   4.776 -0.6342 -0.2267  0.5165
  267THF     H7 5815   5.300   1.801   4.757  0.0265 -0.2143  0.2893
  267THF     C8 5816   5.272   1.982   4.852 -0.0106 -0.3291 -0.2165
  267THF     C9 5817   5.349   2.077   4.772  0.2826 -0.4371  0.8219
  267THF    H10 5818   5.345   1.936   4.920  1.5100 -0.1122 -1.6354
  267THF    H11 5819   5.191   2.034   4.903 -0.9489 -0.7649 -1.2366
  267THF    H12 5820   5.322   2.182   4.784 -0.2655 -0.4035 -0.5398
  267THF    H13 5821   5.454   2.071   4.801  0.1110  0.0880  1.5815
  268THF     O1 5822   0.641   2.274   3.800 -0.0427 -0.4325  0.5700
  268THF     C2 5823   0.733   2.266   3.903  0.7818  0.4316  0.0005
  268THF     C3 5824   0.605   2.410   3.780 -0.2397  0.4699  0.4923
  268THF     H4 5825   0.836   2.289   3.876  1.8369 -1.1153  2.3655
  268THF     H5 5826   0.731   2.166   3.945  1.0660  0.3304 -0.2214
  268THF     H6 5827   0.690   2.456   3.729 -1.0989 -0.7334 -2.1752
  268THF     H7 5828   0.517   2.413   3.716 -0.5456  1.1502  0.9335
  268THF     C8 5829   0.600   2.479   3.920 -0.2028  0.7771  0.7622
  268THF     C9 5830   0.691   2.382   3.997  0.3893  0.1465 -0.4116
  268THF    H10 5831   0.500   2.464   3.960  0.3708  0.1668  2.0194
  268THF    H11 5832   0.619   2.586   3.913  0.3350  0.5837 -1.7023
  268THF    H12 5833   0.773   2.437   4.043  0.9659  1.3049 -2.6689
  268THF    H13 5834   0.633   2.344   4.081  0.2521 -2.1498 -1.4508
  269THF     O1 5835   2.557   3.888   0.112 -0.1181  1.3965 -0.5644
  269THF     C2 5836   2.466   3.995   0.092 -0.1077 -0.1774 -0.0753
  269THF     C3 5837   2.514   3.823   0.235  0.0511  0.2431  0.0872
  269THF     H4 5838   2.479   4.043  -0.005 -1.7891 -0.1731 -0.3142
  269THF     H5 5839   2.467   4.069   0.172  0.1740  0.6409 -0.8266
  269THF     H6 5840   2.530   3.716   0.248 -1.4102  0.2053  2.0490
  269THF     H7 5841   2.562   3.884   0.312  0.0092 -0.3148  0.5560
  269THF     C8 5842   2.362   3.846   0.232 -0.7041  0.2431  0.0029
  269THF     C9 5843   2.333   3.927   0.102  0.5003 -0.4248  0.2412
  269THF    H10 5844   2.341   3.903   0.323 -0.0984 -2.5803  2.0197
  269THF    H11 5845   2.312   3.750   0.222  1.0128 -0.5248 -1.7465
  269THF    H12 5846   2.330   3.870   0.009 -0.3650  0.7932 -0.5151
  269THF    H13 5847   2.239   3.981   0.111  0.0966 -0.7882 -1.4155
  270THF     O1 5848   5.245   4.605   2.849  0.6977  0.4609  0.1727
  270THF     C2 5849   5.125   4.676   2.814  0.2880 -0.1168  0.4154
  270THF     C3 5850   5.248   4.572   2.983  0.4109 -0.2760  0.0263
  270THF     H4 5851   5.067   4.605   2.755 -1.7099  1.6758  0.0814
  270THF     H5 5852   5.164   4.762   2.761  0.8785 -0.8968 -0.4411
  270THF     H6 5853   5.205   4.474   3.000 -1.4167  0.3566 -0.6782
  270THF     H7 5854   5.349   4.585   3.020  1.3858  1.2133 -2.8465
  270THF     C8 5855   5.161   4.675   3.054 -0.1107  0.0245  0.2717
  270THF     C9 5856   5.062   4.715   2.955  0.0108  0.4419  0.2634
  270THF    H10 5857   5.215   4.766   3.083 -0.4440 -0.0014  0.9999
  270THF    H11 5858   5.111   4.647   3.146 -0.3079  0.0407  0.1691
  270THF    H12 5859   4.972   4.654   2.958  0.6930 -0.8082 -2.0823
  270THF    H13 5860   5.049   4.823   2.954  0.4676  0.4947 -0.9498
  271THF     O1 5861   0.130   0.586   3.245 -0.7587 -0.8362 -0.0195
  271THF     C2 5862   0.083   0.639   3.369  0.6532  0.5939  0.4420
  271THF     C3 5863   0.105   0.449   3.248  0.1984  0.5807  0.7229
  271THF     H4 5864   0.084   0.748   3.366  0.9944  0.5640 -1.3491
  271THF     H5 5865   0.153   0.609   3.448  2.6719  3.5980 -0.0407
  271THF     H6 5866   0.124   0.399   3.152 -0.8723 -2.9617  2.1835
  271THF     H7 5867   0.164   0.392   3.320 -0.6185 -3.1751 -1.2882
  271THF     C8 5868  -0.043   0.446   3.295 -0.2504  0.6078 -0.0507
  271THF     C9 5869  -0.055   0.571   3.380  0.1017 -0.0847  0.0485
  271THF    H10 5870  -0.057   0.352   3.348  3.2302 -0.1411 -0.2005
  271THF    H11 5871  -0.122   0.447   3.220 -2.1382  0.7367  1.8499
  271THF    H12 5872  -0.126   0.640   3.335  3.2668  2.5296 -1.3167
  271THF    H13 5873  -0.075   0.558   3.487 -1.2980  0.7083 -0.0909
  272THF     O1 5874   0.657   4.730   1.737  0.1893  0.7342 -0.1631
  272THF     C2 5875   0.561   4.759   1.639 -0.9561  0.1142  0.3311
  272THF     C3 5876   0.630   4.807   1.847  0.2249 -0.0343 -0.1935
  272THF     H4 5877   0.561   4.695   1.550 -0.5102  0.0726  0.3553
  272THF     H5 5878   0.586   4.860   1.606 -1.9299 -0.0424 -0.9807
  272THF     H6 5879   0.696   4.784   1.931  0.8889  1.8921 -0.1236
  272THF     H7 5880   0.649   4.913   1.829 -0.9239 -0.0116 -1.4186
  272THF     C8 5881   0.478   4.783   1.863  0.6941  0.2797 -0.5084
  272THF     C9 5882   0.438   4.768   1.717  0.1792  0.4390  0.9427
  272THF    H10 5883   0.413   4.858   1.909 -0.1951 -0.7227 -0.0881
  272THF    H11 5884   0.453   4.692   1.917  0.7071 -0.7370 -2.1493
  272THF    H12 5885   0.383   4.673   1.712  2.1701 -0.7110 -0.2732
  272THF    H13 5886   0.372   4.850   1.689  0.8462  0.7133  0.1591
  273THF     O1 5887   4.609   1.743   3.556  0.0712  0.2021  0.0288
  273THF     C2 5888   4.544   1.838   3.633 -0.3401 -0.1384  0.4632
  273THF     C3 5889   4.623   1.631   3.653 -0.3052 -0.1919  0.0743
  273THF     H4 5890   4.441   1.804   3.648 -1.5119  2.5729 -0.8455
  273THF     H5 5891   4.536   1.936   3.587 -3.7914 -1.1335 -1.4187
  273THF     H6 5892   4.527   1.590   3.684 -0.8254  0.3952 -0.7122
  273THF     H7 5893   4.679   1.542   3.621 -0.6560 -0.4021  0.0402
  273THF     C8 5894   4.682   1.700   3.770 -0.3797  0.1312 -0.0428
  273THF     C9 5895   4.624   1.834   3.760  0.4727  0.5816  0.2125
  273THF    H10 5896   4.791   1.694   3.772 -0.4167 -0.7623 -0.3593
  273THF    H11 5897   4.641   1.652   3.859 -0.3220 -1.1630 -0.6941
  273THF    H12 5898   4.563   1.855   3.848 -1.0210  0.4701 -0.7553
  273THF    H13 5899   4.705   1.906   3.763  0.2373  0.9469 -1.3084
  274THF     O1 5900   4.072   2.657   1.516  0.0140  0.7549 -0.0504
  274THF     C2 5901   3.972   2.749   1.473  0.0800 -0.0764  0.4317
  274THF     C3 5902   4.194   2.737   1.519  0.5371  0.5840  0.3398
  274THF     H4 5903   3.871   2.711   1.487  0.2757 -0.0592  2.0608
  274THF     H5 5904   3.977   2.772   1.367  0.5035  0.3681  0.5436
  274THF     H6 5905   4.257   2.689   1.594  2.1768 -1.1968 -2.0354
  274THF     H7 5906   4.240   2.751   1.421 -1.4165  0.3825 -0.6568
  274THF     C8 5907   4.155   2.873   1.576  0.2678  0.3312  0.7067
  274THF     C9 5908   4.001   2.878   1.552 -0.4442  0.0050 -0.0473
  274THF    H10 5909   4.219   2.955   1.546  0.7886  0.1934  1.3921
  274THF    H11 5910   4.163   2.869   1.685 -1.4123 -2.8271  0.8344
  274THF    H12 5911   3.941   2.893   1.642 -0.8811  1.0418 -0.4981
  274THF    H13 5912   3.988   2.972   1.498  0.5705 -0.3460 -0.9531
  275THF     O1 5913   4.484   1.374   0.181  0.1563  0.1934  0.2126
  275THF     C2 5914   4.525   1.465   0.284  0.5342  0.0933 -0.1772
  275THF     C3 5915   4.607   1.303   0.146 -0.0433  0.0351  0.4604
  275THF     H4 5916   4.434   1.508   0.326  0.3078 -0.7735  0.2222
  275THF     H5 5917   4.591   1.537   0.236 -2.1094  2.2454 -0.8464
  275THF     H6 5918   4.587   1.212   0.089  0.8428 -0.3728  0.7931
  275THF     H7 5919   4.674   1.367   0.089 -0.8151  1.4341  1.0876
  275THF     C8 5920   4.651   1.262   0.285 -0.4820 -0.1479  0.3082
  275THF     C9 5921   4.617   1.376   0.376  0.4182 -0.6379  0.0853
  275THF    H10 5922   4.753   1.224   0.290 -0.7508 -0.7522  1.4467
  275THF    H11 5923   4.588   1.177   0.310 -1.7249  0.0630 -1.8456
  275THF    H12 5924   4.571   1.340   0.468  2.1859  1.0091  1.7214
  275THF    H13 5925   4.709   1.425   0.407 -0.6394  1.9320 -0.5458
  276THF     O1 5926   4.884   3.538   2.738  0.0019 -0.4204 -0.0004
  276THF     C2 5927   4.787   3.439   2.756  0.1798  0.1823  0.0318
  276THF     C3 5928   4.811   3.650   2.691  0.4312  0.0308  0.5011
  276THF     H4 5929   4.814   3.363   2.829 -1.7635 -1.8076 -1.1964
  276THF     H5 5930   4.767   3.388   2.662 -2.2355  0.8353  0.1086
  276THF     H6 5931   4.876   3.737   2.702 -1.2451  1.5896 -1.1784
  276THF     H7 5932   4.793   3.647   2.583  0.9125  1.8977  0.3358
  276THF     C8 5933   4.678   3.665   2.768  0.3922  0.2456 -0.4243
  276THF     C9 5934   4.665   3.517   2.808 -0.0481 -0.0012 -0.3454
  276THF    H10 5935   4.590   3.699   2.713 -0.8757  0.1818  1.4711
  276THF    H11 5936   4.695   3.734   2.851 -4.5415  0.6933  0.4722
  276THF    H12 5937   4.636   3.502   2.912 -0.4574  1.8796 -0.1424
  276THF    H13 5938   4.574   3.490   2.753 -0.1760  1.3590 -0.8310
  277THF     O1 5939   4.737   0.653   1.555  0.4202  0.0239 -0.2994
  277THF     C2 5940   4.655   0.648   1.437 -0.5445 -0.0813 -0.4891
  277THF     C3 5941   4.659   0.609   1.667  0.4403  0.0339 -0.1866
  277THF     H4 5942   4.639   0.545   1.404 -0.7964 -0.0771 -0.3840
  277THF     H5 5943   4.702   0.699   1.354 -0.2395  1.5598  0.6465
  277THF     H6 5944   4.668   0.500   1.669  0.5047  0.0145 -1.0152
  277THF     H7 5945   4.701   0.662   1.751  1.2621 -0.5709 -0.2053
  277THF     C8 5946   4.516   0.641   1.624 -0.6600  0.3890 -0.3690
  277THF     C9 5947   4.513   0.693   1.489  0.7651  0.0694 -0.1785
  277THF    H10 5948   4.483   0.727   1.683 -1.7831  1.2693 -2.2042
  277THF    H11 5949   4.456   0.550   1.630  0.3484 -0.4575 -2.1690
  277THF    H12 5950   4.425   0.643   1.448 -0.9994  1.7362  1.3425
  277THF    H13 5951   4.499   0.801   1.482  0.0034 -0.0163 -0.1127
  278THF     O1 5952   3.953   2.678   5.060 -0.0767  0.4653 -0.1110
  278THF     C2 5953   4.041   2.715   4.963 -0.2064 -0.1982 -0.4677
  278THF     C3 5954   3.953   2.533   5.067  0.2957  0.4975 -0.1512
  278THF     H4 5955   4.142   2.695   4.999 -0.1714 -0.1501 -0.5401
  278THF     H5 5956   4.036   2.812   4.913 -0.4222 -0.4574 -0.9546
  278THF     H6 5957   4.003   2.484   5.150  2.0376  1.5740 -0.5058
  278THF     H7 5958   3.847   2.508   5.067  0.7802 -1.7020 -0.7953
  278THF     C8 5959   4.023   2.489   4.932 -0.0141  0.5454 -0.4831
  278THF     C9 5960   4.040   2.617   4.854 -0.1859  0.7832  0.3364
  278THF    H10 5961   3.967   2.411   4.880  0.3986  0.6118 -1.0391
  278THF    H11 5962   4.120   2.445   4.951 -1.1550 -1.4498  1.1462
  278THF    H12 5963   4.129   2.624   4.791 -1.8808  1.0070 -2.1875
  278THF    H13 5964   3.957   2.621   4.783  1.7247  0.2160 -2.0772
  279THF     O1 5965   3.440   2.804   2.149  0.0920 -0.2649 -0.0579
  279THF     C2 5966   3.554   2.734   2.098 -0.5067  0.9179  0.8333
  279THF     C3 5967   3.465   2.866   2.274  0.3564 -0.4905  0.0836
  279THF     H4 5968   3.585   2.766   1.998 -1.5635  0.2113  0.2525
  279THF     H5 5969   3.536   2.627   2.092  0.8303  0.6880  0.7585
  279THF     H6 5970   3.475   2.973   2.258 -1.8609 -0.3180 -0.3852
  279THF     H7 5971   3.384   2.846   2.344 -0.1615 -2.8206 -1.0445
  279THF     C8 5972   3.596   2.818   2.320 -0.5271  0.4415  0.8797
  279THF     C9 5973   3.666   2.778   2.191  0.5059 -0.1753 -0.5588
  279THF    H10 5974   3.570   2.731   2.380 -0.0947 -0.7635 -0.6230
  279THF    H11 5975   3.644   2.893   2.383 -3.2475  0.1733  3.5355
  279THF    H12 5976   3.722   2.864   2.153 -0.6313  0.3546 -1.0922
  279THF    H13 5977   3.729   2.690   2.208 -2.3888 -1.8221  2.8398
  280THF     O1 5978   2.314   5.133   3.585 -0.2084  0.0310  0.2831
  280THF     C2 5979   2.416   5.058   3.528 -0.2116 -0.5428  0.3157
  280THF     C3 5980   2.223   5.178   3.484 -0.8615  0.2491  0.1084
  280THF     H4 5981   2.387   4.955   3.509 -0.4667  0.0559 -2.9856
  280THF     H5 5982   2.492   5.062   3.606  0.1615 -0.7549 -0.0346
  280THF     H6 5983   2.152   5.096   3.471  1.5657 -1.8179 -1.2104
  280THF     H7 5984   2.169   5.268   3.511 -1.6968 -0.9151  2.6820
  280THF     C8 5985   2.295   5.163   3.348 -0.2847  0.7997 -0.0784
  280THF     C9 5986   2.440   5.142   3.395 -0.1900  0.2976 -0.9226
  280THF    H10 5987   2.289   5.247   3.279  1.7173  1.0514  0.0035
  280THF    H11 5988   2.267   5.072   3.294  0.6680  0.8093 -0.6078
  280THF    H12 5989   2.504   5.090   3.324 -1.3401 -1.1500 -0.9629
  280THF    H13 5990   2.488   5.238   3.411  1.0944 -0.2479 -1.3701
  281THF     O1 5991   2.226   0.445   4.727 -0.0973 -0.3213  0.1066
  281THF     C2 5992   2.263   0.317   4.779  0.5404 -0.5661  0.1825
  281THF     C3 5993   2.249   0.459   4.586 -0.7383  0.2791 -0.5188
  281THF     H4 5994   2.200   0.293   4.864  2.2677 -3.7976  0.7259
  281THF     H5 5995   2.365   0.309   4.817  1.0103  4.1137  0.4581
  281THF     H6 5996   2.156   0.487   4.537 -0.7452 -2.2154 -2.1026
  281THF     H7 5997   2.328   0.530   4.558 -0.2926  0.0812  0.2183
  281THF     C8 5998   2.282   0.312   4.548  0.6908  0.4676 -0.1150
  281THF     C9 5999   2.233   0.228   4.661  0.1085 -0.1275  0.3893
  281THF    H10 6000   2.389   0.299   4.535  1.3145  0.7918  3.7625
  281THF    H11 6001   2.223   0.296   4.458 -0.4156 -1.2750  0.8698
  281THF    H12 6002   2.128   0.208   4.643  0.3598  0.4868 -2.2322
  281THF    H13 6003   2.286   0.132   4.661  0.9568  0.3288  0.2319
  282THF     O1 6004   2.245   3.659   3.479 -0.8850  0.0334 -0.5772
  282THF     C2 6005   2.219   3.625   3.344  0.4016 -0.4577  0.4814
  282THF     C3 6006   2.144   3.746   3.521  0.5150  0.2075  0.2185
  282THF     H4 6007   2.153   3.539   3.350  0.8017 -0.7041  1.8516
  282THF     H5 6008   2.307   3.591   3.290 -0.2813 -2.0577  0.3385
  282THF     H6 6009   2.050   3.702   3.555  0.5874 -1.4950 -1.5800
  282THF     H7 6010   2.173   3.798   3.612  3.0932 -0.4326 -0.1513
  282THF     C8 6011   2.128   3.843   3.404  0.9583 -0.4885  0.0114
  282THF     C9 6012   2.159   3.751   3.286  0.1097  0.3774  0.2078
  282THF    H10 6013   2.202   3.923   3.413 -1.4196  1.7537  0.4823
  282THF    H11 6014   2.026   3.878   3.408  0.5975 -1.6374  2.2839
  282THF    H12 6015   2.069   3.727   3.229 -0.1848  3.0673 -0.5821
  282THF    H13 6016   2.216   3.797   3.205 -1.0365  0.5506 -0.5254
  283THF     O1 6017   2.902   5.317   2.976 -0.2772 -0.2902 -0.2223
  283THF     C2 6018   2.864   5.186   2.942  0.1805  0.3390 -0.1692
  283THF     C3 6019   2.880   5.338   3.114 -0.1607 -0.4793 -0.0085
  283THF     H4 6020   2.944   5.113   2.949 -1.0468 -1.0921 -0.6194
  283THF     H5 6021   2.838   5.189   2.836  0.2786 -0.5835 -0.2257
  283THF     H6 6022   2.970   5.299   3.162  0.8753  0.7868 -0.8478
  283THF     H7 6023   2.871   5.445   3.134 -0.3025 -0.2296 -1.3330
  283THF     C8 6024   2.750   5.261   3.138  0.3396 -0.2067  0.1916
  283THF     C9 6025   2.746   5.151   3.036 -0.5190  0.2003 -0.5078
  283THF    H10 6026   2.664   5.325   3.119 -0.9231 -1.8333  0.1561
  283THF    H11 6027   2.765   5.219   3.238  2.0966 -2.4093 -0.9261
  283THF    H12 6028   2.763   5.056   3.086  0.6668  0.9536  0.5739
  283THF    H13 6029   2.650   5.156   2.986 -0.9471 -0.7655  0.1897
  284THF     O1 6030   2.966   4.132   2.373 -0.1393  0.3311  0.4685
  284THF     C2 6031   2.984   4.161   2.512  0.2135  0.4724  0.0759
  284THF     C3 6032   2.982   3.986   2.365 -0.4026  0.0967  0.2318
  284THF     H4 6033   2.893   4.128   2.562 -0.8924  0.2552 -2.0025
  284THF     H5 6034   2.997   4.266   2.539 -0.2543  0.7009 -0.5731
  284THF     H6 6035   2.902   3.914   2.380  0.8336 -1.3930 -0.1120
  284THF     H7 6036   3.032   3.945   2.278  3.0561  1.0999  1.5492
  284THF     C8 6037   3.078   3.947   2.474  0.2622  0.6576 -0.1420
  284THF     C9 6038   3.092   4.067   2.556 -0.5826 -0.1644 -0.5376
  284THF    H10 6039   3.178   3.936   2.431  0.0008  1.7854 -1.0720
  284THF    H11 6040   3.067   3.854   2.530  3.4670 -0.4000 -1.0224
  284THF    H12 6041   3.118   4.051   2.661 -1.4412 -0.2241 -0.3249
  284THF    H13 6042   3.182   4.117   2.521 -0.6756 -0.7566 -1.6399
  285THF     O1 6043   3.037   1.840   1.662 -0.0586  0.5721 -0.1852
  285THF     C2 6044   3.035   1.766   1.785  0.2666 -0.0501 -0.3773
  285THF     C3 6045   3.058   1.974   1.699  0.3225 -0.4125 -0.1173
  285THF     H4 6046   3.131   1.751   1.834  1.6877 -0.0267 -2.9614
  285THF     H5 6047   2.995   1.671   1.749  1.5607 -1.4254  1.6132
  285THF     H6 6048   3.158   2.006   1.728  0.5118 -1.2494  0.1950
  285THF     H7 6049   3.034   2.043   1.619  0.3360 -0.2772 -0.0068
  285THF     C8 6050   2.964   1.983   1.816 -0.5346 -0.2248 -0.1470
  285THF     C9 6051   2.932   1.840   1.860 -0.3829 -0.4920  0.2521
  285THF    H10 6052   2.870   2.025   1.779 -1.1060 -0.6031  0.8266
  285THF    H11 6053   2.997   2.048   1.897  0.7087 -1.8257  0.6896
  285THF    H12 6054   2.940   1.817   1.966 -0.4516  1.1180  0.6329
  285THF    H13 6055   2.826   1.824   1.842 -0.7309  0.6819  1.1322
  286THF     O1 6056   1.176   4.007   3.746 -0.0573  0.1655  0.3823
  286THF     C2 6057   1.063   3.998   3.658  0.2015  0.4139  0.4104
  286THF     C3 6058   1.288   3.936   3.687 -0.4795 -0.6678  0.1429
  286THF     H4 6059   1.054   4.095   3.609 -0.3024  0.0613 -0.2202
  286THF     H5 6060   0.972   3.984   3.716 -1.1621  1.8929 -1.2531
  286THF     H6 6061   1.331   3.992   3.603  0.7836  2.4142  2.6379
  286THF     H7 6062   1.378   3.905   3.741  1.6462  0.9444 -2.2254
  286THF     C8 6063   1.212   3.826   3.613 -0.8528 -0.2809 -0.4902
  286THF     C9 6064   1.078   3.886   3.560  0.1919 -0.4721  0.2404
  286THF    H10 6065   1.190   3.752   3.691 -0.9277 -0.3965 -0.6204
  286THF    H11 6066   1.267   3.776   3.533 -0.5030  2.1518 -1.8711
  286THF    H12 6067   1.088   3.914   3.455 -0.6505  3.7097  1.0736
  286THF    H13 6068   1.007   3.803   3.560 -0.6007  0.1691  1.5391
  287THF     O1 6069   3.872   2.685   0.643 -0.0653  0.3350 -0.6941
  287THF     C2 6070   3.819   2.560   0.684 -0.4751  0.5869  0.3188
  287THF     C3 6071   3.849   2.695   0.503 -0.2254 -0.3668  0.2075
  287THF     H4 6072   3.711   2.576   0.675 -0.5004 -0.1425 -0.9539
  287THF     H5 6073   3.859   2.531   0.781 -0.4282 -3.4638 -0.7117
  287THF     H6 6074   3.740   2.703   0.496 -0.3033 -1.7864 -0.7706
  287THF     H7 6075   3.886   2.785   0.455  0.1026 -0.2301  0.7102
  287THF     C8 6076   3.912   2.563   0.459  0.2651  0.0792 -0.5469
  287THF     C9 6077   3.873   2.464   0.574 -0.2149  0.3687 -0.5670
  287THF    H10 6078   4.021   2.566   0.452  0.1799  1.7108 -2.2476
  287THF    H11 6079   3.867   2.529   0.366 -1.4562  0.4143  0.1218
  287THF    H12 6080   3.815   2.375   0.552  0.7653 -0.4808  0.1557
  287THF    H13 6081   3.965   2.410   0.598  0.0242  0.6296 -0.8933
  288THF     O1 6082   3.529   0.475   4.407  0.0800  0.0652  0.1278
  288THF     C2 6083   3.513   0.446   4.546 -0.0440  0.4498 -0.5903
  288THF     C3 6084   3.667   0.467   4.378  0.0766  0.3509  0.3578
  288THF     H4 6085   3.426   0.380   4.545 -0.4193  0.7301 -4.4346
  288THF     H5 6086   3.504   0.535   4.609  1.4304  0.7476 -0.7831
  288THF     H6 6087   3.667   0.440   4.273  1.7496 -1.0155  0.6570
  288THF     H7 6088   3.726   0.559   4.388 -1.1941  1.2073  0.2290
  288THF     C8 6089   3.722   0.356   4.461  1.0132  0.9460 -0.0226
  288THF     C9 6090   3.645   0.378   4.593  0.5763  0.1800  0.5914
  288THF    H10 6091   3.830   0.364   4.469  1.0820 -1.0524  1.8662
  288THF    H11 6092   3.701   0.258   4.420 -1.5978  1.4204 -0.0122
  288THF    H12 6093   3.613   0.281   4.632  2.7160 -0.9156 -0.2194
  288THF    H13 6094   3.706   0.430   4.667  0.9258 -1.6008  1.6136
  289THF     O1 6095   3.487   0.991   1.497 -0.4373 -0.7267 -0.1989
  289THF     C2 6096   3.518   0.927   1.622 -0.0859  0.2758  0.0563
  289THF     C3 6097   3.454   1.121   1.518  0.6865  0.3740 -0.4507
  289THF     H4 6098   3.577   0.837   1.612  0.5929  0.6951  0.2074
  289THF     H5 6099   3.429   0.904   1.681 -0.2051 -1.5309 -0.7861
  289THF     H6 6100   3.484   1.175   1.428  1.0763 -0.5219 -0.8716
  289THF     H7 6101   3.346   1.116   1.533  0.8147 -0.9459  0.1580
  289THF     C8 6102   3.529   1.166   1.644  0.7953 -0.1240  0.5031
  289THF     C9 6103   3.595   1.037   1.695 -0.3045  0.7428  0.3016
  289THF    H10 6104   3.451   1.194   1.714  1.1034  1.5710  0.2074
  289THF    H11 6105   3.594   1.253   1.633 -1.8989  2.0326  0.8006
  289THF    H12 6106   3.697   1.032   1.657 -0.2527  0.0677  0.5180
  289THF    H13 6107   3.604   1.025   1.803  1.1632 -0.6542  0.0498
  290THF     O1 6108   1.675   2.990   2.155  0.6829  0.0075 -0.2743
  290THF     C2 6109   1.591   2.988   2.047 -0.1103 -0.4886  0.0153
  290THF     C3 6110   1.725   3.118   2.171  0.6211 -0.5497 -0.2598
  290THF     H4 6111   1.488   2.963   2.074 -0.5726 -0.1184 -1.3402
  290THF     H5 6112   1.633   2.904   1.992 -1.3153 -1.3127  0.3062
  290THF     H6 6113   1.660   3.167   2.244 -1.0432 -2.8160 -0.1392
  290THF     H7 6114   1.824   3.115   2.217  0.4860 -0.7908  0.0211
  290THF     C8 6115   1.730   3.176   2.031 -0.2223 -0.5980 -0.7995
  290THF     C9 6116   1.600   3.123   1.980  0.6208  0.5991  0.3728
  290THF    H10 6117   1.811   3.137   1.969  1.8646 -0.6424  1.7622
  290THF    H11 6118   1.747   3.283   2.042  1.0354 -0.9934  1.8830
  290THF    H12 6119   1.520   3.189   2.015 -0.3383 -0.8970  1.0675
  290THF    H13 6120   1.610   3.122   1.872 -0.2804 -0.6228  0.2821
  291THF     O1 6121   0.609   1.778   2.973 -0.0782  0.0815 -0.0309
  291THF     C2 6122   0.617   1.649   3.041  0.5703  0.0041  0.2554
  291THF     C3 6123   0.480   1.841   2.985  0.1855  0.6621 -0.7105
  291THF     H4 6124   0.722   1.641   3.067  0.6057 -2.3636 -0.4002
  291THF     H5 6125   0.594   1.561   2.981  0.9481  0.1035 -0.0406
  291THF     H6 6126   0.493   1.934   3.041 -1.4325  0.2830  0.3699
  291THF     H7 6127   0.443   1.863   2.885 -0.5392 -1.5948 -0.9933
  291THF     C8 6128   0.405   1.732   3.071 -0.2882 -0.5499 -0.0383
  291THF     C9 6129   0.518   1.676   3.152 -0.3225  0.2301  0.2240
  291THF    H10 6130   0.378   1.645   3.011 -2.7236 -0.8850  1.4072
  291THF    H11 6131   0.315   1.777   3.112 -0.2053  0.2803 -0.7348
  291THF    H12 6132   0.549   1.742   3.233 -0.9898 -0.6810  1.2537
  291THF    H13 6133   0.483   1.586   3.203 -2.4202 -0.7124 -2.6202
  292THF     O1 6134   1.092   0.073   5.167  0.2570 -0.1468  0.3940
  292THF     C2 6135   1.023  -0.028   5.107  0.2658 -0.2044  0.5865
  292THF     C3 6136   1.219   0.043   5.204 -0.4822  1.6001  0.1302
  292THF     H4 6137   1.049  -0.027   5.001  0.8650 -1.2401  0.7064
  292THF     H5 6138   0.915  -0.012   5.116  0.2099 -0.7017  0.9084
  292THF     H6 6139   1.303   0.067   5.139  1.6995 -0.3086  2.0693
  292THF     H7 6140   1.252   0.089   5.297  0.0947  0.1658  0.6607
  292THF     C8 6141   1.215  -0.106   5.226 -0.5127 -0.4036  0.4561
  292THF     C9 6142   1.077  -0.150   5.179  0.5149 -0.0268  0.2810
  292THF    H10 6143   1.229  -0.145   5.327  0.3221  0.8457  0.8371
  292THF    H11 6144   1.282  -0.165   5.163  0.4596 -0.6509  1.6828
  292THF    H12 6145   1.082  -0.243   5.123 -1.6956  0.1374 -0.2809
  292THF    H13 6146   1.013  -0.167   5.266 -1.3125 -0.4201 -1.0792
  293THF     O1 6147   0.893   0.798   4.771  0.1607  0.2997  0.3954
  293THF     C2 6148   1.023   0.823   4.822 -0.0043  0.7502 -0.1486
  293THF     C3 6149   0.828   0.920   4.772 -0.6313 -0.4137  1.0425
  293THF     H4 6150   1.087   0.769   4.753 -0.2140 -1.6783  1.4297
  293THF     H5 6151   1.040   0.784   4.923  0.4715 -0.4172 -0.6650
  293THF     H6 6152   0.762   0.935   4.687 -0.4419  0.8077  1.0838
  293THF     H7 6153   0.775   0.914   4.867 -2.5701 -1.7816 -0.0700
  293THF     C8 6154   0.930   1.032   4.756  0.7518  0.3293 -0.2347
  293THF     C9 6155   1.051   0.969   4.821  0.5491  0.2022 -0.1010
  293THF    H10 6156   0.903   1.118   4.817 -2.0179 -0.6824  0.1360
  293THF    H11 6157   0.926   1.046   4.648 -2.7973  1.8996 -0.0238
  293THF    H12 6158   1.151   0.990   4.781  0.9071  2.7945  1.8836
  293THF    H13 6159   1.050   1.008   4.923 -0.3978  0.4756 -0.2147
  294THF     O1 6160   1.053   5.257   4.372  0.1793 -0.0546 -0.3434
  294THF     C2 6161   0.984   5.383   4.388 -0.3971  0.2821 -0.1168
  294THF     C3 6162   1.188   5.284   4.404 -0.2511  0.2806  0.2068
  294THF     H4 6163   0.910   5.377   4.468 -2.5062  1.5158 -1.8790
  294THF     H5 6164   0.929   5.405   4.297  1.6130 -1.0043 -1.7433
  294THF     H6 6165   1.233   5.196   4.451  0.6625 -1.4227 -3.4764
  294THF     H7 6166   1.246   5.300   4.313 -1.4169  1.7885 -0.3027
  294THF     C8 6167   1.191   5.408   4.490 -0.0131 -0.5598  0.3588
  294THF     C9 6168   1.081   5.489   4.436  0.4295 -0.9286  0.6715
  294THF    H10 6169   1.281   5.469   4.480 -0.5939  0.2775  0.1823
  294THF    H11 6170   1.158   5.385   4.591  0.3256 -2.2971  0.1163
  294THF    H12 6171   1.030   5.558   4.502  1.6734  0.6488  0.0439
  294THF    H13 6172   1.118   5.561   4.362 -2.5323  2.3387  2.0906
  295THF     O1 6173   2.489   5.141   0.785  0.4325  0.4340  0.5877
  295THF     C2 6174   2.470   5.029   0.869 -0.0350  0.1101 -0.4834
  295THF     C3 6175   2.426   5.255   0.840 -0.3172 -0.7413  0.1958
  295THF     H4 6176   2.560   4.968   0.855  0.2159  0.1911  0.6589
  295THF     H5 6177   2.389   4.963   0.838 -0.8477 -0.7487  2.9686
  295THF     H6 6178   2.471   5.339   0.787  0.5962 -1.6719 -0.5534
  295THF     H7 6179   2.319   5.258   0.819 -0.0734  0.1848 -0.9765
  295THF     C8 6180   2.477   5.234   0.984  0.3957  0.3916 -0.5618
  295THF     C9 6181   2.468   5.080   1.005 -0.5151  0.0490  0.5013
  295THF    H10 6182   2.418   5.293   1.053  1.2767 -0.7241  1.2334
  295THF    H11 6183   2.584   5.256   0.984  0.7136 -0.6480 -3.5827
  295THF    H12 6184   2.546   5.036   1.068 -0.3889 -0.9656 -0.3492
  295THF    H13 6185   2.382   5.043   1.061  0.8480 -1.8226  1.4790
  296THF     O1 6186   5.420   3.790   4.409 -0.0938  0.4643 -0.5043
  296THF     C2 6187   5.474   3.772   4.537  0.6189  0.1217 -0.0554
  296THF     C3 6188   5.487   3.705   4.318  0.5310 -0.0479  0.5348
  296THF     H4 6189   5.449   3.675   4.580  1.0674 -0.4264 -0.9839
  296THF     H5 6190   5.445   3.851   4.605  1.6703  0.8609 -0.4399
  296THF     H6 6191   5.441   3.607   4.326  0.9279 -0.2168  0.7372
  296THF     H7 6192   5.476   3.736   4.214 -0.4995  0.0001  0.6420
  296THF     C8 6193   5.629   3.701   4.362 -0.7871 -0.2729 -0.7639
  296THF     C9 6194   5.626   3.768   4.500  0.4737  0.2940 -0.0627
  296THF    H10 6195   5.698   3.745   4.291  2.5806 -1.1762  1.6662
  296THF    H11 6196   5.673   3.602   4.371 -0.0969  0.0862 -0.1048
  296THF    H12 6197   5.688   3.724   4.578 -1.7628 -2.7620  0.1908
  296THF    H13 6198   5.647   3.872   4.476 -2.5392  1.0619  0.1839
  297THF     O1 6199   2.218   5.080   2.857  0.2087  0.6086 -0.1814
  297THF     C2 6200   2.202   5.190   2.947 -0.2243 -0.7637 -0.1111
  297THF     C3 6201   2.263   5.138   2.741 -0.3398  0.1718 -0.2442
  297THF     H4 6202   2.214   5.150   3.048  0.3287 -1.4668 -0.4468
  297THF     H5 6203   2.117   5.258   2.943  1.2646  1.2624  0.8447
  297THF     H6 6204   2.306   5.069   2.667  2.4138  1.8190 -0.3206
  297THF     H7 6205   2.191   5.203   2.691  0.2637  0.6945 -0.4444
  297THF     C8 6206   2.376   5.225   2.797 -0.1539 -0.3913  0.4637
  297THF     C9 6207   2.325   5.277   2.923 -0.2127  0.0021  0.6943
  297THF    H10 6208   2.420   5.297   2.728  2.2058 -0.9242  1.3002
  297THF    H11 6209   2.460   5.159   2.818 -0.2257 -0.6832 -0.1319
  297THF    H12 6210   2.394   5.266   3.007  1.1424  0.5834 -0.3039
  297THF    H13 6211   2.305   5.384   2.909  1.8248  0.4039  0.4110
  298THF     O1 6212   4.470   4.596   4.433  0.1077 -0.0275 -0.9291
  298THF     C2 6213   4.389   4.680   4.356  0.0296 -0.8233  1.1005
  298THF     C3 6214   4.596   4.577   4.368  0.7955  0.0345  0.6941
  298THF     H4 6215   4.321   4.732   4.423 -1.2769 -1.8494  0.6162
  298THF     H5 6216   4.340   4.615   4.283 -0.4038  1.9019 -1.2374
  298THF     H6 6217   4.667   4.536   4.440 -0.2848 -0.9850  1.2182
  298THF     H7 6218   4.572   4.514   4.282 -0.5912  0.8400  0.4512
  298THF     C8 6219   4.623   4.724   4.332  0.8129  0.3324 -0.3595
  298THF     C9 6220   4.482   4.778   4.296  0.2409  0.7417 -0.1636
  298THF    H10 6221   4.709   4.735   4.266  2.4575  1.5330  1.8594
  298THF    H11 6222   4.645   4.783   4.421  2.1214 -0.0911 -0.3710
  298THF    H12 6223   4.464   4.876   4.340 -2.0955 -0.2749  1.3433
  298THF    H13 6224   4.474   4.801   4.189 -0.2684  0.8657 -0.1018
  299THF     O1 6225   1.610   3.658   0.649  0.3362 -0.5278 -0.0200
  299THF     C2 6226   1.746   3.641   0.614  0.0429  0.5582 -0.6821
  299THF     C3 6227   1.594   3.615   0.785 -0.3503 -0.0077  0.1719
  299THF     H4 6228   1.809   3.721   0.651 -0.1920  0.4545 -0.0443
  299THF     H5 6229   1.762   3.639   0.506  3.1870  2.4650 -0.3641
  299THF     H6 6230   1.605   3.709   0.840  0.9680  0.2206 -0.4465
  299THF     H7 6231   1.494   3.576   0.804 -0.0672 -2.1839 -2.2219
  299THF     C8 6232   1.713   3.528   0.820  0.2747 -0.4121 -0.1625
  299THF     C9 6233   1.783   3.514   0.691  0.1604 -0.2816 -0.0007
  299THF    H10 6234   1.675   3.431   0.852 -2.3720  1.0577  1.4588
  299THF    H11 6235   1.775   3.578   0.894  1.2455 -0.0068 -1.2165
  299THF    H12 6236   1.891   3.504   0.692  0.1836 -0.0829  1.4854
  299THF    H13 6237   1.752   3.429   0.631  0.7597 -0.4464 -0.0843
  300THF     O1 6238   5.033   2.960   4.998 -0.0242  0.3402 -0.5434
  300THF     C2 6239   5.020   2.822   4.964 -0.4224  0.0590 -0.1485
  300THF     C3 6240   5.030   3.019   4.866 -0.5483 -0.0437  0.0333
  300THF     H4 6241   4.919   2.789   4.938 -1.1994  2.0897  0.0952
  300THF     H5 6242   5.064   2.772   5.050  1.9923  1.2828 -0.5789
  300THF     H6 6243   4.929   3.037   4.829 -0.1844  1.5660 -0.2469
  300THF     H7 6244   5.056   3.124   4.876  0.0888 -0.3991  3.6681
  300THF     C8 6245   5.107   2.930   4.778  0.3494  0.1555  0.1644
  300THF     C9 6246   5.108   2.795   4.845  0.3471 -0.3849  0.4689
  300THF    H10 6247   5.204   2.977   4.762 -0.3753  1.7084  0.1315
  300THF    H11 6248   5.054   2.935   4.682 -1.6041 -0.8897  1.1187
  300THF    H12 6249   5.071   2.719   4.775  1.3231 -0.7831  0.3699
  300THF    H13 6250   5.210   2.770   4.873  0.6864  2.5599  2.2505
  301THF     O1 6251   1.527   2.137   1.483 -0.0052  0.4539  0.4063
  301THF     C2 6252   1.442   2.101   1.377  0.3563  0.0424  0.0281
  301THF     C3 6253   1.571   2.004   1.512  0.0469  0.0145 -0.0951
  301THF     H4 6254   1.504   2.085   1.288  0.9200  0.3619  0.3557
  301THF     H5 6255   1.378   2.177   1.333 -1.2795 -1.6013 -0.5861
  301THF     H6 6256   1.655   1.976   1.449 -0.5944 -1.5244 -0.3179
  301THF     H7 6257   1.618   2.005   1.610 -0.0331 -1.1323 -0.0261
  301THF     C8 6258   1.458   1.902   1.504 -0.1835  1.4000  0.2372
  301THF     C9 6259   1.365   1.977   1.413  0.3998  0.7521 -0.2648
  301THF    H10 6260   1.417   1.895   1.605  1.8979 -0.4959  1.0231
  301THF    H11 6261   1.491   1.804   1.469 -1.0767  0.2768  2.3511
  301THF    H12 6262   1.334   1.917   1.328  0.4221 -1.3016  1.1116
  301THF    H13 6263   1.276   2.005   1.469 -0.8844 -0.2582 -1.7155
  302THF     O1 6264   5.264   0.144   2.810 -0.4816 -0.3494  0.9833
  302THF     C2 6265   5.389   0.153   2.746 -0.1570 -0.1408  0.1224
  302THF     C3 6266   5.253   0.012   2.852  0.0381 -0.2006 -0.0170
  302THF     H4 6267   5.461   0.186   2.820 -1.9448  0.4160  1.6967
  302THF     H5 6268   5.397   0.226   2.666  0.0885  1.0068  1.1644
  302THF     H6 6269   5.285   0.016   2.956 -0.2466 -1.6879  0.1532
  302THF     H7 6270   5.147  -0.013   2.851 -0.4156  1.6204 -0.2688
  302THF     C8 6271   5.342  -0.078   2.762  0.0671  0.2298  0.9074
  302THF     C9 6272   5.419   0.027   2.682 -0.3750 -0.2578 -0.2482
  302THF    H10 6273   5.286  -0.144   2.695  1.0753  1.2493 -1.0237
  302THF    H11 6274   5.405  -0.135   2.830  0.4337  0.8254  1.0662
  302THF    H12 6275   5.525   0.002   2.679 -0.0407  1.1824 -1.1088
  302THF    H13 6276   5.378   0.033   2.581 -1.5888  1.5808  0.3148
  303THF     O1 6277   0.291   3.838   5.113 -0.5240 -0.2997  0.2679
  303THF     C2 6278   0.264   3.887   4.978 -0.1817  0.3809 -0.5713
  303THF     C3 6279   0.207   3.726   5.145  0.1840  0.1344 -0.5005
  303THF     H4 6280   0.348   3.901   4.910 -0.2267 -3.4870 -1.6206
  303THF     H5 6281   0.206   3.978   4.997 -1.0439 -0.1132 -0.7753
  303THF     H6 6282   0.257   3.634   5.115  2.8603  0.6858  1.8474
  303THF     H7 6283   0.185   3.714   5.251  1.6229  0.6979 -0.1163
  303THF     C8 6284   0.082   3.746   5.058 -0.2850  0.3263 -0.1458
  303THF     C9 6285   0.157   3.788   4.930  0.2743  0.3061  0.4171
  303THF    H10 6286   0.009   3.819   5.094 -0.6457 -0.1241  0.0506
  303THF    H11 6287   0.032   3.654   5.031  1.4646 -0.9049  0.6282
  303THF    H12 6288   0.205   3.703   4.882  0.6004  0.0549  1.1864
  303THF    H13 6289   0.094   3.819   4.846  3.3141  0.3090 -2.0425
  304THF     O1 6290   1.149   0.014   1.181  0.3483  0.5845 -0.2608
  304THF     C2 6291   1.107  -0.094   1.271  0.1241 -0.1965  0.1104
  304THF     C3 6292   1.057   0.010   1.072 -0.5633  0.7667  0.1011
  304THF     H4 6293   1.038  -0.059   1.348  1.3136  2.0825  0.2243
  304THF     H5 6294   1.197  -0.133   1.320 -0.2441 -3.8964 -1.7983
  304THF     H6 6295   0.961   0.057   1.095 -2.4112 -2.3525 -0.6670
  304THF     H7 6296   1.095   0.074   0.993  0.6872 -0.4379 -0.3024
  304THF     C8 6297   1.042  -0.141   1.041 -0.2762  0.0443  0.3466
  304THF     C9 6298   1.030  -0.196   1.185  0.5262 -0.3286  0.5644
  304THF    H10 6299   1.128  -0.177   0.984 -2.1294 -0.7697 -2.1075
  304THF    H11 6300   0.957  -0.157   0.975  0.1220 -0.1978 -0.1144
  304THF    H12 6301   0.924  -0.199   1.209  0.2473  0.1366 -0.5408
  304THF    H13 6302   1.079  -0.294   1.188  0.3361 -0.5144 -1.1854
  305THF     O1 6303   3.306   4.801   0.735  0.0813  0.0297 -0.3200
  305THF     C2 6304   3.245   4.924   0.692  0.4654  0.1787  0.1699
  305THF     C3 6305   3.402   4.762   0.645  0.5883 -0.2680 -0.0487
  305THF     H4 6306   3.210   4.977   0.780 -1.1767 -0.2711 -0.1842
  305THF     H5 6307   3.157   4.917   0.628  0.8301 -2.9354 -0.1135
  305THF     H6 6308   3.473   4.695   0.693  1.8841  1.4102  0.4441
  305THF     H7 6309   3.364   4.713   0.555 -0.2154  0.0507  0.1112
  305THF     C8 6310   3.476   4.899   0.636  0.4330  0.5114 -0.1837
  305THF     C9 6311   3.362   4.997   0.628  0.1235 -0.0521  0.2914
  305THF    H10 6312   3.548   4.906   0.555  3.3646  1.5508  2.3225
  305THF    H11 6313   3.534   4.920   0.725 -0.0113 -0.5540  0.3648
  305THF    H12 6314   3.385   5.087   0.684  0.2309  1.4513 -2.0370
  305THF    H13 6315   3.339   5.027   0.526  1.1353 -0.4682 -0.0719
  306THF     O1 6316   0.555   0.615   3.361 -0.5380 -0.5979 -0.2426
  306THF     C2 6317   0.597   0.676   3.241 -0.2302 -0.4956  0.0663
  306THF     C3 6318   0.482   0.706   3.440  0.1214 -0.2393 -0.6021
  306THF     H4 6319   0.517   0.677   3.167 -0.2810  0.7546  0.1134
  306THF     H5 6320   0.686   0.621   3.211 -0.1704 -0.1314 -0.4510
  306THF     H6 6321   0.377   0.698   3.411  0.0488  1.4954 -0.9559
  306THF     H7 6322   0.480   0.682   3.546  3.4659  0.4363 -0.2828
  306THF     C8 6323   0.545   0.845   3.396 -0.5614 -0.7818 -0.9013
  306THF     C9 6324   0.639   0.818   3.280  1.3896  0.1739  0.4185
  306THF    H10 6325   0.599   0.899   3.473 -2.4337  0.8123 -0.6378
  306THF    H11 6326   0.463   0.911   3.369 -1.0729 -0.3303  1.5606
  306THF    H12 6327   0.637   0.889   3.198  2.9342 -2.1582 -1.8081
  306THF    H13 6328   0.745   0.819   3.305  1.6397 -1.4735 -0.4353
  307THF     O1 6329   0.297   2.057   3.725  0.4340 -0.4838  0.8729
  307THF     C2 6330   0.287   1.950   3.626 -0.4689 -0.0792 -0.7103
  307THF     C3 6331   0.347   2.177   3.661  0.3424  0.7022  0.3834
  307THF     H4 6332   0.182   1.924   3.611 -0.6779  0.7666 -0.7668
  307THF     H5 6333   0.347   1.864   3.657 -1.0778 -0.2684 -0.0331
  307THF     H6 6334   0.316   2.274   3.699 -1.7926 -0.0457  0.7205
  307THF     H7 6335   0.456   2.173   3.662  0.3449 -0.0406 -0.6104
  307THF     C8 6336   0.305   2.150   3.515  1.0766 -0.0697 -0.3216
  307THF     C9 6337   0.345   2.006   3.498  0.4988  0.4271 -0.2156
  307THF    H10 6338   0.368   2.222   3.462  1.9825 -0.1313  0.6447
  307THF    H11 6339   0.198   2.161   3.497  0.4995 -0.5257  2.3744
  307THF    H12 6340   0.300   1.963   3.409  0.8250  0.2026 -0.2752
  307THF    H13 6341   0.453   1.992   3.494  0.4197  0.0599 -2.0892
  308THF     O1 6342   1.454   5.347   4.150 -0.1156 -0.2660  0.5677
  308THF     C2 6343   1.373   5.425   4.054 -0.2145  0.2007  0.2226
  308THF     C3 6344   1.457   5.207   4.119 -0.8239  0.2290  0.0221
  308THF     H4 6345   1.446   5.465   3.983 -1.0851 -3.8439 -3.4325
  308THF     H5 6346   1.314   5.498   4.108  1.3898  1.3221  0.5266
  308THF     H6 6347   1.559   5.171   4.124  0.1486  2.5022 -1.7676
  308THF     H7 6348   1.396   5.157   4.195  0.3815 -0.4759  0.5607
  308THF     C8 6349   1.393   5.203   3.986  0.7157  0.4387  1.0302
  308THF     C9 6350   1.292   5.319   3.988 -0.1585 -0.0015 -0.4302
  308THF    H10 6351   1.349   5.106   3.961  1.0044  0.9162 -1.6352
  308THF    H11 6352   1.465   5.221   3.905 -0.7757 -1.2909 -0.7868
  308THF    H12 6353   1.258   5.348   3.888 -0.1543 -0.5871 -0.6035
  308THF    H13 6354   1.195   5.294   4.032  0.2831  1.0664  1.2329
  309THF     O1 6355   1.434   1.968   1.877  0.2870  0.1516 -0.4656
  309THF     C2 6356   1.300   2.022   1.851 -0.7405  0.8309 -0.5714
  309THF     C3 6357   1.515   2.069   1.942 -0.4304 -0.0510  1.1824
  309THF     H4 6358   1.236   2.004   1.937  0.2088 -1.4657 -0.2844
  309THF     H5 6359   1.245   1.979   1.767 -0.9992  0.7729 -0.3723
  309THF     H6 6360   1.480   2.086   2.044  2.1752  0.6357  2.0210
  309THF     H7 6361   1.618   2.039   1.960  0.0115  1.6180  1.5964
  309THF     C8 6362   1.487   2.186   1.856 -0.0127  0.3124  0.5059
  309THF     C9 6363   1.335   2.168   1.827 -0.1595  0.3190 -0.2144
  309THF    H10 6364   1.537   2.185   1.759 -3.5054 -1.1649 -1.4628
  309THF    H11 6365   1.514   2.281   1.901 -1.5613  0.7644  0.5375
  309THF    H12 6366   1.280   2.234   1.894 -1.1183 -0.9344  0.2836
  309THF    H13 6367   1.309   2.194   1.724 -1.2691 -0.7810 -0.2398
  310THF     O1 6368   3.015   0.736   4.425  0.2311 -0.0180 -0.4727
  310THF     C2 6369   3.023   0.692   4.289  0.1072 -0.4211 -0.6025
  310THF     C3 6370   2.954   0.633   4.501  0.9283  0.0647 -0.6329
  310THF     H4 6371   3.114   0.740   4.254 -0.4405  0.1429 -1.2653
  310THF     H5 6372   2.945   0.730   4.224  0.8028  0.3646 -0.9908
  310THF     H6 6373   2.976   0.642   4.607  0.5657  2.3130 -0.6995
  310THF     H7 6374   2.847   0.636   4.480  1.1932  3.7117 -2.2034
  310THF     C8 6375   2.999   0.510   4.440 -0.0002  0.2192  0.1102
  310THF     C9 6376   3.029   0.544   4.293 -0.4268  0.5805  0.1583
  310THF    H10 6377   2.934   0.423   4.449  1.2101 -0.5740  1.6702
  310THF    H11 6378   3.090   0.479   4.492 -1.2934 -1.7653  1.3671
  310THF    H12 6379   3.131   0.522   4.261 -0.8267  1.8825 -2.3185
  310THF    H13 6380   2.954   0.498   4.228  0.3659 -0.9029  0.2678
  311THF     O1 6381   2.847   3.826   0.395 -0.3100 -0.1506 -0.2235
  311THF     C2 6382   2.944   3.890   0.474  0.6721 -0.2314  0.1995
  311THF     C3 6383   2.904   3.790   0.274 -0.0317 -0.3837 -0.3975
  311THF     H4 6384   2.934   3.878   0.582  0.8611  1.1735  0.3848
  311THF     H5 6385   2.940   3.993   0.440 -1.3565 -1.0234 -2.3054
  311THF     H6 6386   2.853   3.713   0.217 -0.2873  0.7344 -1.7156
  311THF     H7 6387   2.909   3.880   0.214 -1.8109 -1.6405 -2.5536
  311THF     C8 6388   3.048   3.735   0.317 -0.6117 -0.5413 -0.1492
  311THF     C9 6389   3.082   3.836   0.428  0.2794  0.5614  0.5879
  311THF    H10 6390   3.130   3.720   0.246  0.5685 -0.4188  1.1279
  311THF    H11 6391   3.025   3.635   0.354 -0.8418 -0.7128 -0.7560
  311THF    H12 6392   3.134   3.776   0.503 -1.8800 -0.8597  1.0242
  311THF    H13 6393   3.150   3.918   0.406  0.2932 -0.3928 -3.6431
  312THF     O1 6394   1.762   3.235   3.503  0.1225 -0.5646 -0.2038
  312THF     C2 6395   1.808   3.237   3.643  0.0987  0.5979  0.1325
  312THF     C3 6396   1.770   3.373   3.457  0.0170  0.1022 -0.8992
  312THF     H4 6397   1.827   3.137   3.683 -1.1757 -0.5354 -1.9455
  312THF     H5 6398   1.719   3.273   3.694  0.5407  3.2273 -0.7833
  312THF     H6 6399   1.779   3.383   3.349 -2.0837 -0.0178 -1.1310
  312THF     H7 6400   1.670   3.404   3.487  0.4561  0.5140  0.2196
  312THF     C8 6401   1.886   3.431   3.533 -0.8487 -0.4964  0.0977
  312THF     C9 6402   1.925   3.335   3.649 -0.6248  0.4960  0.1640
  312THF    H10 6403   1.869   3.534   3.565 -0.2865  0.0377 -1.2049
  312THF    H11 6404   1.970   3.439   3.463  0.5342  0.7846  1.8115
  312THF    H12 6405   2.022   3.292   3.625 -0.7687 -0.2847  0.9151
  312THF    H13 6406   1.928   3.383   3.747 -1.3594  0.4885  0.1992
  313THF     O1 6407   1.895   4.667   4.606 -0.6445 -0.5367  0.2619
  313THF     C2 6408   1.845   4.739   4.720  0.2860 -0.3529  0.4461
  313THF     C3 6409   1.838   4.723   4.486  0.3472  0.0610  0.0758
  313THF     H4 6410   1.925   4.745   4.795  1.0476  1.1307 -0.4407
  313THF     H5 6411   1.751   4.693   4.749 -0.2934  0.9968  0.7596
  313THF     H6 6412   1.902   4.694   4.403  1.0492  0.7499  0.3654
  313THF     H7 6413   1.737   4.692   4.461  0.5690  1.2652 -2.6428
  313THF     C8 6414   1.831   4.881   4.521 -0.1877 -0.2311  0.1097
  313THF     C9 6415   1.810   4.881   4.673  0.9189  0.1920 -0.3660
  313THF    H10 6416   1.750   4.937   4.474  0.3389  0.3767 -0.0843
  313THF    H11 6417   1.926   4.926   4.493 -1.6259  1.0067 -3.3301
  313THF    H12 6418   1.863   4.961   4.724  4.2005 -0.2541 -2.8039
  313THF    H13 6419   1.702   4.891   4.684  0.3245 -4.1700 -0.2057
  314THF     O1 6420   1.604   3.813   4.961  0.1480  0.6877 -0.0823
  314THF     C2 6421   1.659   3.940   4.988 -0.1197  0.1407 -0.9354
  314THF     C3 6422   1.632   3.716   5.063  0.3405  0.2381  0.4841
  314THF     H4 6423   1.603   3.996   5.064  0.0817 -0.4012 -0.3836
  314THF     H5 6424   1.669   3.989   4.891  0.9660  1.9100  0.0033
  314THF     H6 6425   1.569   3.745   5.147 -0.5351  0.8521 -0.3590
  314THF     H7 6426   1.619   3.612   5.035 -2.5454  0.8112 -0.7024
  314THF     C8 6427   1.781   3.749   5.094  0.8874 -0.5119  0.3344
  314THF     C9 6428   1.795   3.897   5.039  0.0257 -0.3557  0.1353
  314THF    H10 6429   1.852   3.680   5.049  2.5572  0.4392  1.4176
  314THF    H11 6430   1.796   3.741   5.202 -1.2590 -0.8482  0.6646
  314THF    H12 6431   1.830   3.962   5.119  0.6711 -1.5828  0.8897
  314THF    H13 6432   1.870   3.911   4.961 -0.0360  1.8790  0.4267
  315THF     O1 6433   3.961   1.815   3.886 -0.1241 -0.5015 -0.8626
  315THF     C2 6434   3.923   1.781   3.760  0.3216  0.1153  0.3910
  315THF     C3 6435   3.995   1.956   3.879 -0.1828 -0.2072  0.0180
  315THF     H4 6436   3.830   1.725   3.763  0.0650  0.4204 -0.9475
  315THF     H5 6437   3.992   1.711   3.713  1.2860 -0.4620  2.5437
  315THF     H6 6438   4.010   1.999   3.978  2.5591 -1.6345  0.3064
  315THF     H7 6439   4.096   1.957   3.838  0.7524  2.0481  2.0890
  315THF     C8 6440   3.894   2.024   3.785  0.1405  0.0984 -0.2113
  315THF     C9 6441   3.901   1.915   3.676  0.2984  0.2962 -0.4963
  315THF    H10 6442   3.917   2.124   3.748 -4.4477  1.9569  1.3368
  315THF    H11 6443   3.798   2.030   3.836  0.9050  2.9696  1.0909
  315THF    H12 6444   3.802   1.908   3.631  0.7340 -2.3529 -1.2459
  315THF    H13 6445   3.977   1.932   3.601 -0.0420 -0.7895 -1.1129
  316THF     O1 6446   1.184   4.364   3.772 -0.4235  0.2430 -0.4941
  316THF     C2 6447   1.160   4.502   3.802  0.2230 -0.7465  0.5915
  316THF     C3 6448   1.214   4.361   3.632  0.6387 -0.4302 -0.4482
  316THF     H4 6449   1.261   4.540   3.820 -0.2593  0.6075  0.5626
  316THF     H5 6450   1.091   4.504   3.887  2.6230  0.7454  2.6686
  316THF     H6 6451   1.312   4.405   3.611  0.0087  1.4021  0.2178
  316THF     H7 6452   1.197   4.258   3.603 -0.9443 -0.1874 -0.4775
  316THF     C8 6453   1.104   4.453   3.580  0.7199  0.3600  0.1455
  316THF     C9 6454   1.109   4.571   3.679 -0.3997  0.3730  0.2356
  316THF    H10 6455   0.999   4.422   3.585  0.2811  1.9186  1.2597
  316THF    H11 6456   1.125   4.469   3.474  0.0965 -1.8567 -0.3730
  316THF    H12 6457   1.169   4.655   3.645 -0.3603  0.4988  0.6091
  316THF    H13 6458   1.008   4.608   3.693  0.0882  2.4578 -1.3230
  317THF     O1 6459   1.851   1.664   1.418  0.3961  0.2425  0.2615
  317THF     C2 6460   1.941   1.633   1.312  0.0799  0.5601 -1.0711
  317THF     C3 6461   1.837   1.554   1.501 -0.1725 -0.4556  0.3523
  317THF     H4 6462   1.985   1.723   1.269  2.8267  0.6967  1.6582
  317THF     H5 6463   1.879   1.573   1.246  0.6910 -1.4509  0.1098
  317THF     H6 6464   1.779   1.571   1.591 -0.4055 -0.9320  0.2988
  317THF     H7 6465   1.777   1.486   1.440  1.9191 -1.5402 -0.6212
  317THF     C8 6466   1.974   1.488   1.518  0.4836 -0.4010  0.3867
  317THF     C9 6467   2.036   1.552   1.396 -0.2296  0.8020 -0.3575
  317THF    H10 6468   1.961   1.380   1.519  0.1771 -0.3718  2.0167
  317THF    H11 6469   2.015   1.526   1.611 -0.9537 -0.3327  1.0246
  317THF    H12 6470   2.118   1.612   1.436  1.3195  0.7475 -3.2230
  317THF    H13 6471   2.065   1.475   1.325 -1.1961 -0.3333  0.4147
  318THF     O1 6472   4.523   4.489   4.870  0.3403 -0.3235 -0.3190
  318THF     C2 6473   4.542   4.570   4.987  0.8875  0.0050 -0.0566
  318THF     C3 6474   4.552   4.561   4.755 -0.0896 -0.3559  0.3814
  318THF     H4 6475   4.616   4.516   5.046  1.3190  0.5965 -0.0435
  318THF     H5 6476   4.458   4.600   5.051 -0.9130 -0.5680 -2.0362
  318THF     H6 6477   4.630   4.508   4.701 -1.1089  0.1528 -1.6855
  318THF     H7 6478   4.467   4.562   4.686  0.2401 -0.3429 -0.0299
  318THF     C8 6479   4.592   4.706   4.796  0.1601 -0.4247  0.1782
  318THF     C9 6480   4.630   4.687   4.939 -0.5512  0.3669 -0.2667
  318THF    H10 6481   4.505   4.771   4.789  0.1668 -0.0648  2.5039
  318THF    H11 6482   4.674   4.734   4.731  0.9854 -2.6056  0.2134
  318THF    H12 6483   4.733   4.651   4.949 -0.8588  0.1105  3.9257
  318THF    H13 6484   4.619   4.776   5.001 -0.0304 -0.0455  0.4362
  319THF     O1 6485   2.592   1.896   0.859  0.4017 -0.1907  0.3924
  319THF     C2 6486   2.682   1.913   0.967  0.8159 -0.2648 -0.0518
  319THF     C3 6487   2.644   1.959   0.739 -0.4735 -0.3882  0.0911
  319THF     H4 6488   2.674   1.833   1.041 -0.4836 -0.4005 -0.3241
  319THF     H5 6489   2.666   2.003   1.026  0.8473 -0.3518  0.0899
  319THF     H6 6490   2.614   1.915   0.644 -0.9708 -0.9965  0.5221
  319THF     H7 6491   2.613   2.063   0.740 -1.5233 -0.5854  3.5027
  319THF     C8 6492   2.796   1.951   0.773  0.4243 -0.5519 -0.5173
  319THF     C9 6493   2.819   1.912   0.910 -0.2733  0.5545 -0.5138
  319THF    H10 6494   2.827   2.052   0.746 -0.4860  0.2806  1.3315
  319THF    H11 6495   2.846   1.883   0.704  1.8979  2.4410 -2.5749
  319THF    H12 6496   2.875   1.818   0.920  0.3192  1.0909  1.8148
  319THF    H13 6497   2.882   1.987   0.957 -1.2623  1.7584 -1.0610
  320THF     O1 6498   3.134   1.138   0.099  0.5083  0.0894 -0.3470
  320THF     C2 6499   3.022   1.162   0.007  0.4276  0.5292 -0.2892
  320THF     C3 6500   3.069   1.085   0.211  0.1212  0.2844 -0.3275
  320THF     H4 6501   3.060   1.187  -0.092 -0.0786  1.5070 -0.2511
  320THF     H5 6502   2.964   1.244   0.050 -0.1853  0.9937 -1.9581
  320THF     H6 6503   3.136   1.054   0.292 -0.5884  0.6910  0.4259
  320THF     H7 6504   3.025   1.175   0.254 -2.4133 -0.7709 -0.5810
  320THF     C8 6505   2.967   0.991   0.163 -0.1108  0.1139 -0.1587
  320THF     C9 6506   2.932   1.042   0.021 -0.6381 -0.7575  0.4767
  320THF    H10 6507   2.890   0.992   0.240 -1.2491 -0.0258 -1.2618
  320THF    H11 6508   3.021   0.896   0.156  1.1178  0.8327 -0.6956
  320THF    H12 6509   2.957   0.968  -0.056 -0.6314 -1.9771  1.6085
  320THF    H13 6510   2.825   1.060   0.012 -0.4966  0.3616  0.8587
  321THF     O1 6511   1.425   1.374   4.955  0.3787 -0.2437 -0.0010
  321THF     C2 6512   1.448   1.336   4.821 -0.0102  0.1538 -0.5623
  321THF     C3 6513   1.550   1.425   5.004 -0.3123 -0.3084 -0.1349
  321THF     H4 6514   1.439   1.421   4.752 -1.0948  0.9912  0.5739
  321THF     H5 6515   1.364   1.272   4.796 -0.0034 -0.1256  0.1146
  321THF     H6 6516   1.556   1.530   4.974 -0.0945  0.2912  1.8916
  321THF     H7 6517   1.554   1.429   5.113 -1.3607 -0.7022 -0.0797
  321THF     C8 6518   1.661   1.357   4.928 -0.8261 -0.1684  0.6760
  321THF     C9 6519   1.586   1.267   4.833 -0.1171 -0.4160  0.1998
  321THF    H10 6520   1.729   1.309   4.998  0.6544  2.1144  0.9140
  321THF    H11 6521   1.721   1.439   4.888 -2.0786  0.4710  0.0284
  321THF    H12 6522   1.632   1.264   4.735 -1.9023 -0.7114 -0.6732
  321THF    H13 6523   1.571   1.165   4.868 -0.6351 -0.6765 -0.7611
  322THF     O1 6524   1.066   3.430   3.963 -0.1021  0.1630 -0.1560
  322THF     C2 6525   1.104   3.380   4.098 -0.2914 -0.2976  0.5604
  322THF     C3 6526   1.178   3.449   3.882  0.0766  0.1776  0.0011
  322THF     H4 6527   1.108   3.271   4.094  2.3784 -0.2282 -1.4347
  322THF     H5 6528   1.032   3.414   4.172 -1.1234  0.2754 -0.4813
  322THF     H6 6529   1.210   3.353   3.842  2.0731  0.1225  1.5375
  322THF     H7 6530   1.173   3.526   3.805  2.0600 -0.9730 -1.3908
  322THF     C8 6531   1.287   3.495   3.982 -0.7551  0.1388 -0.0755
  322THF     C9 6532   1.253   3.416   4.115 -0.2336 -0.7493 -0.0645
  322THF    H10 6533   1.277   3.603   3.992  2.9526  0.6664 -0.6575
  322THF    H11 6534   1.382   3.480   3.932 -0.2018  2.1837  0.2814
  322THF    H12 6535   1.321   3.331   4.123 -0.2733 -0.6871  1.1332
  322THF    H13 6536   1.264   3.483   4.200 -0.9581 -0.0090 -0.5359
  323THF     O1 6537   2.444   1.741   3.087 -1.0164  0.1081  0.5721
  323THF     C2 6538   2.363   1.833   3.014 -0.4012 -0.1236 -0.3237
  323THF     C3 6539   2.367   1.615   3.092  0.3898  0.1942  0.1580
  323THF     H4 6540   2.396   1.858   2.913  1.1286 -0.8875 -0.0385
  323THF     H5 6541   2.380   1.925   3.070 -2.0079 -0.4021  0.6912
  323THF     H6 6542   2.408   1.555   3.011 -1.3230  0.4039 -0.9188
  323THF     H7 6543   2.395   1.550   3.175 -0.9868 -1.8262 -0.8845
  323THF     C8 6544   2.219   1.651   3.083  0.4111 -0.8540  1.4112
  323THF     C9 6545   2.216   1.787   3.008 -0.0887  0.1246 -0.0047
  323THF    H10 6546   2.185   1.680   3.183  2.9259  2.5634  1.4883
  323THF    H11 6547   2.153   1.578   3.038  0.4085 -0.0301  0.0257
  323THF    H12 6548   2.184   1.775   2.905  0.3323  2.0506 -0.3936
  323THF    H13 6549   2.140   1.857   3.044 -0.7402 -0.6790  0.2295
  324THF     O1 6550   2.345   1.422   5.023 -0.3434  0.4757 -0.2486
  324THF     C2 6551   2.212   1.396   4.973  0.0641 -0.2336 -0.9479
  324THF     C3 6552   2.370   1.334   5.130  0.4420 -0.5065 -0.6668
  324THF     H4 6553   2.207   1.383   4.865 -1.2775  1.3476 -1.1207
  324THF     H5 6554   2.162   1.493   4.983 -0.5810 -0.5479 -1.0766
  324THF     H6 6555   2.437   1.263   5.083 -0.6752 -0.8678 -1.7480
  324THF     H7 6556   2.417   1.394   5.208 -0.2289  0.9969 -1.3842
  324THF     C8 6557   2.233   1.277   5.177  0.5348  0.1380 -0.1225
  324THF     C9 6558   2.142   1.289   5.054  0.2026 -0.3288  0.4176
  324THF    H10 6559   2.205   1.326   5.270  2.5769  0.8124  0.1737
  324THF    H11 6560   2.236   1.172   5.207  0.8331  0.3707  0.6763
  324THF    H12 6561   2.137   1.194   5.002  2.3106  0.6761 -1.7836
  324THF    H13 6562   2.038   1.314   5.079 -0.2462  0.7201 -2.1743
  325THF     O1 6563   1.611   3.938   0.997  0.1992 -0.1567  0.4351
  325THF     C2 6564   1.479   3.977   1.048  0.4609  0.6835  0.0619
  325THF     C3 6565   1.708   4.009   1.074 -0.2955 -0.1293  0.6724
  325THF     H4 6566   1.446   3.929   1.140 -1.4020  0.9190 -0.4454
  325THF     H5 6567   1.403   3.943   0.977  0.0867 -0.2709  0.8845
  325THF     H6 6568   1.716   3.972   1.177  0.4423  0.8485  0.9837
  325THF     H7 6569   1.799   4.014   1.014 -1.7995  1.1766 -1.6456
  325THF     C8 6570   1.647   4.154   1.066  0.4666  0.3528  0.0106
  325THF     C9 6571   1.498   4.128   1.077  0.1508 -0.2585  0.1303
  325THF    H10 6572   1.672   4.203   0.971  1.2064 -0.4693 -0.2343
  325THF    H11 6573   1.678   4.206   1.156 -0.6434 -0.0753  0.6556
  325THF    H12 6574   1.463   4.139   1.180 -0.7845 -1.1678 -0.0754
  325THF    H13 6575   1.432   4.179   1.007  2.2740  0.1616 -1.6450
  326THF     O1 6576   3.142   0.554   2.572 -0.2232  0.0768 -0.1024
  326THF     C2 6577   3.061   0.517   2.460 -0.0585  0.5957  0.4390
  326THF     C3 6578   3.259   0.607   2.524 -0.2496  0.5122 -0.0698
  326THF     H4 6579   2.962   0.486   2.491  1.0669 -1.9216  1.7799
  326THF     H5 6580   3.095   0.429   2.406  1.0041  2.2343 -1.7572
  326THF     H6 6581   3.310   0.667   2.599 -0.8411 -0.4891  1.1741
  326THF     H7 6582   3.335   0.534   2.494 -0.5634  0.8979 -1.9588
  326THF     C8 6583   3.207   0.694   2.409 -0.0950  0.2516 -0.1176
  326THF     C9 6584   3.079   0.634   2.362  0.7992 -0.1532  0.2047
  326THF    H10 6585   3.274   0.689   2.323  3.7628 -0.3171  2.6460
  326THF    H11 6586   3.195   0.795   2.447 -1.3115 -0.7720  2.4452
  326THF    H12 6587   2.996   0.705   2.365 -0.4279 -1.4609 -0.9352
  326THF    H13 6588   3.079   0.594   2.261  2.4363  1.5556 -0.5335
  327THF     O1 6589   0.183   3.074   0.289 -0.4513  0.2571 -0.1514
  327THF     C2 6590   0.201   3.072   0.152 -0.1810 -0.2728 -0.5543
  327THF     C3 6591   0.151   2.938   0.316  0.5668 -1.3146 -0.0447
  327THF     H4 6592   0.300   3.036   0.122 -0.0370  0.4339 -0.9429
  327THF     H5 6593   0.198   3.175   0.118 -1.0199  0.0764  0.5332
  327THF     H6 6594   0.243   2.881   0.304  2.1042  1.3744 -2.2398
  327THF     H7 6595   0.118   2.929   0.420  1.4974 -0.5182  0.3433
  327THF     C8 6596   0.046   2.903   0.218  0.6111  0.2309  0.3678
  327THF     C9 6597   0.076   3.000   0.104  1.0223 -0.1480 -0.9375
  327THF    H10 6598  -0.055   2.896   0.259 -0.3529 -0.2463 -1.9406
  327THF    H11 6599   0.069   2.800   0.190  0.8277  1.2442 -3.7980
  327THF    H12 6600   0.101   2.937   0.018  1.3346 -0.2404 -0.7794
  327THF    H13 6601  -0.008   3.062   0.072  1.2399 -0.3755 -1.9882
  328THF     O1 6602   0.298   0.767   5.451 -0.0498 -0.5932 -0.7222
  328THF     C2 6603   0.363   0.868   5.374  0.0236 -0.0489  0.1634
  328THF     C3 6604   0.348   0.639   5.402  0.6233  0.0475 -0.4301
  328THF     H4 6605   0.369   0.955   5.440  1.4478 -0.3374  0.4273
  328THF     H5 6606   0.307   0.876   5.281 -0.8461 -1.1809  0.5564
  328THF     H6 6607   0.300   0.561   5.462 -0.6707  1.8973  1.0443
  328THF     H7 6608   0.317   0.612   5.301  1.3514 -1.7664 -0.2083
  328THF     C8 6609   0.497   0.664   5.404 -0.6219 -0.9690 -0.0529
  328THF     C9 6610   0.503   0.811   5.349 -0.1558 -0.3165  0.6340
  328THF    H10 6611   0.570   0.598   5.357 -1.2254  0.1737 -2.7812
  328THF    H11 6612   0.531   0.672   5.507 -0.3635  0.6665 -0.2391
  328THF    H12 6613   0.585   0.873   5.385 -0.7921 -0.7963  3.1171
  328THF    H13 6614   0.520   0.810   5.242 -0.0632  0.4232  0.6364
  329THF     O1 6615   5.189   5.016   3.386 -0.3182  0.2369  0.3215
  329THF     C2 6616   5.326   4.992   3.366 -0.7703 -0.0551 -0.3520
  329THF     C3 6617   5.145   4.903   3.453 -0.2642  0.7261 -0.4473
  329THF     H4 6618   5.376   5.087   3.343 -0.3549 -0.3691 -0.7673
  329THF     H5 6619   5.342   4.915   3.291 -2.0369  0.6149 -1.3473
  329THF     H6 6620   5.051   4.915   3.508  2.1504  0.8757  4.0621
  329THF     H7 6621   5.113   4.826   3.382 -0.4707  0.8803 -0.5229
  329THF     C8 6622   5.257   4.870   3.550 -0.2684 -0.5904 -0.1559
  329THF     C9 6623   5.376   4.943   3.503  0.5713 -0.0921 -0.4208
  329THF    H10 6624   5.262   4.763   3.571 -0.6064 -0.7085 -0.6493
  329THF    H11 6625   5.222   4.916   3.642 -0.2709 -2.2008  0.6810
  329THF    H12 6626   5.389   5.032   3.565  1.0522 -0.0516 -0.5712
  329THF    H13 6627   5.466   4.883   3.488  0.4143 -0.4083 -0.1180
  330THF     O1 6628   1.933   4.581   0.827  0.3869 -0.5211  0.2746
  330THF     C2 6629   2.057   4.560   0.897 -0.5057 -0.7859 -0.6576
  330THF     C3 6630   1.894   4.456   0.778 -0.2517  0.5323  0.4341
  330THF     H4 6631   2.043   4.526   0.999  2.2115  1.9088  0.8028
  330THF     H5 6632   2.115   4.650   0.917 -1.9902  0.3004 -1.1100
  330THF     H6 6633   1.840   4.390   0.846 -0.8807 -0.5024 -1.0105
  330THF     H7 6634   1.822   4.468   0.698 -0.1723 -0.2998  0.2275
  330THF     C8 6635   2.027   4.398   0.732  0.5035 -0.9878 -0.2472
  330THF     C9 6636   2.132   4.460   0.818  0.1414 -0.4613 -0.4438
  330THF    H10 6637   2.061   4.416   0.630 -2.0778  0.7367 -0.8951
  330THF    H11 6638   2.014   4.290   0.744  0.9660 -0.8910  1.3498
  330THF    H12 6639   2.181   4.386   0.882  1.4275 -0.0678 -0.9380
  330THF    H13 6640   2.217   4.504   0.765  0.3955  0.0055  0.3344
  331THF     O1 6641   2.301   2.301   2.967 -0.0546 -0.2171  0.1978
  331THF     C2 6642   2.164   2.265   2.957 -0.2099 -0.4032 -0.2706
  331THF     C3 6643   2.342   2.280   3.099 -0.0073 -0.0085 -0.8586
  331THF     H4 6644   2.163   2.157   2.950  2.1847 -0.5439  0.4414
  331THF     H5 6645   2.119   2.307   2.867  0.8590  1.0621 -0.1717
  331THF     H6 6646   2.360   2.175   3.123  1.5165 -0.0010 -1.9062
  331THF     H7 6647   2.437   2.330   3.116 -1.2867  2.5054 -0.5301
  331THF     C8 6648   2.232   2.345   3.177  0.7630  0.4075  0.7905
  331THF     C9 6649   2.106   2.309   3.090 -0.5034  0.6271 -1.1261
  331THF    H10 6650   2.243   2.454   3.178 -0.2851  0.5300  0.5082
  331THF    H11 6651   2.228   2.308   3.279 -0.4459  0.3210  0.7321
  331THF    H12 6652   2.050   2.224   3.128  1.2732 -0.8420 -1.6995
  331THF    H13 6653   2.036   2.393   3.092 -2.1864 -0.6522  2.6085
  332THF     O1 6654   1.586   1.586   4.575 -0.2206 -0.1162  0.4408
  332THF     C2 6655   1.546   1.573   4.439 -0.4879  0.0980 -0.4029
  332THF     C3 6656   1.725   1.563   4.585 -0.3069 -0.3689 -0.5286
  332THF     H4 6657   1.464   1.641   4.418  0.7420  0.9169 -3.1026
  332THF     H5 6658   1.518   1.470   4.418  1.5593 -0.1974 -2.0775
  332THF     H6 6659   1.764   1.617   4.671  1.2552 -0.5078 -1.1178
  332THF     H7 6660   1.733   1.454   4.591 -1.6546 -0.5005 -0.6489
  332THF     C8 6661   1.776   1.625   4.455 -0.3843  0.1986 -0.0152
  332THF     C9 6662   1.662   1.626   4.356 -0.1095  0.1476 -0.3660
  332THF    H10 6663   1.864   1.566   4.429  0.6480  1.0313  1.4589
  332THF    H11 6664   1.795   1.729   4.481  1.9308 -0.3175  0.6418
  332THF    H12 6665   1.647   1.722   4.306  0.3115 -0.2888 -1.3502
  332THF    H13 6666   1.669   1.548   4.281 -0.4504 -0.2844  0.0397
  333THF     O1 6667   3.446   4.356   0.671 -0.0663 -0.4233  0.3231
  333THF     C2 6668   3.305   4.398   0.693 -0.2552  0.3993  0.1921
  333THF     C3 6669   3.441   4.214   0.672  0.0204  0.0284 -0.3626
  333THF     H4 6670   3.289   4.486   0.632  1.7772 -0.7871 -2.2452
  333THF     H5 6671   3.312   4.441   0.793  2.7335 -1.0873  0.7450
  333THF     H6 6672   3.527   4.179   0.616 -0.4916  0.7714 -1.6531
  333THF     H7 6673   3.441   4.177   0.775  2.5552  0.6628 -0.0792
  333THF     C8 6674   3.315   4.175   0.604  0.5618 -0.8027 -0.4395
  333THF     C9 6675   3.223   4.273   0.668 -0.0507 -0.4590  0.0297
  333THF    H10 6676   3.281   4.073   0.622 -0.3886 -0.2577  1.0427
  333THF    H11 6677   3.320   4.203   0.499 -1.5400  0.8052 -0.1613
  333THF    H12 6678   3.132   4.276   0.608  0.5519 -0.3342 -0.8909
  333THF    H13 6679   3.201   4.230   0.766  1.5679  0.3278  0.7805
  334THF     O1 6680   0.777   5.304   2.839 -0.0591 -0.1774  0.4145
  334THF     C2 6681   0.900   5.231   2.808 -0.1638 -0.6946  0.2429
  334THF     C3 6682   0.725   5.262   2.966  0.0137  0.4105 -0.0825
  334THF     H4 6683   0.989   5.290   2.785 -0.3217 -0.2019  0.8702
  334THF     H5 6684   0.895   5.166   2.720  0.2029 -0.1378 -0.1966
  334THF     H6 6685   0.739   5.329   3.050 -0.8319 -0.4635  0.7713
  334THF     H7 6686   0.617   5.253   2.965  0.0532 -0.6322 -2.1658
  334THF     C8 6687   0.797   5.132   2.994 -0.6067  1.2476 -0.3508
  334THF     C9 6688   0.938   5.171   2.941  0.2589 -0.3900  0.2922
  334THF    H10 6689   0.762   5.046   2.937 -1.2514  1.4968 -0.3410
  334THF    H11 6690   0.807   5.098   3.097  0.3355 -0.6930 -1.0333
  334THF    H12 6691   0.974   5.247   3.011 -0.7177  1.2915 -0.9342
  334THF    H13 6692   1.005   5.086   2.949  0.3799 -0.2532  0.7807
  335THF     O1 6693   0.235   4.059   0.155  0.3951  0.5170  0.2564
  335THF     C2 6694   0.188   3.926   0.152  0.8157 -0.1753 -0.5731
  335THF     C3 6695   0.377   4.038   0.174  0.1937  0.9823 -0.5597
  335THF     H4 6696   0.083   3.913   0.126 -0.0901 -1.5591  3.0481
  335THF     H5 6697   0.188   3.895   0.257  1.0589  1.7937  0.0385
  335THF     H6 6698   0.438   4.128   0.163  1.5051  0.0468 -1.2279
  335THF     H7 6699   0.397   4.010   0.277  1.2982 -0.6863 -1.1878
  335THF     C8 6700   0.416   3.930   0.081  0.3593  0.2373 -0.4169
  335THF     C9 6701   0.289   3.840   0.066 -0.2431 -0.9104  0.2348
  335THF    H10 6702   0.503   3.873   0.115  0.8796  1.5596  0.5445
  335THF    H11 6703   0.432   3.974  -0.017 -1.1994  0.0976 -0.7547
  335THF    H12 6704   0.248   3.841  -0.035  0.6300  1.9363 -0.1791
  335THF    H13 6705   0.295   3.738   0.103 -1.3224 -1.2674 -0.5189
  336THF     O1 6706   0.554   1.486   2.478  0.2918  0.2561  0.0839
  336THF     C2 6707   0.571   1.590   2.576 -0.3445 -0.0539  0.2955
  336THF     C3 6708   0.414   1.447   2.488 -0.0999  0.4781 -0.7620
  336THF     H4 6709   0.530   1.679   2.529 -0.0524  0.1566  0.4348
  336THF     H5 6710   0.676   1.613   2.598 -0.1038 -1.2290  0.4411
  336THF     H6 6711   0.356   1.510   2.420  2.6329  0.4699 -3.3203
  336THF     H7 6712   0.397   1.342   2.465 -0.9526  0.6361 -0.8854
  336THF     C8 6713   0.377   1.459   2.639 -0.2428 -0.1027 -0.1928
  336THF     C9 6714   0.493   1.541   2.697 -0.4956  0.0818 -0.3414
  336THF    H10 6715   0.355   1.365   2.689  0.3592  0.4947  1.2677
  336THF    H11 6716   0.281   1.511   2.642 -0.3695 -0.2973 -0.7654
  336THF    H12 6717   0.477   1.619   2.772  0.4821 -0.5508  0.5448
  336THF    H13 6718   0.550   1.464   2.748 -0.5542  0.2286 -0.0513
  337THF     O1 6719   4.623   4.372   3.949 -0.2478 -0.2003 -0.3443
  337THF     C2 6720   4.694   4.337   3.832 -0.4156  0.2159  0.3646
  337THF     C3 6721   4.696   4.311   4.061 -0.6673 -0.2837  0.3487
  337THF     H4 6722   4.655   4.405   3.756  0.5473  1.9751  1.3688
  337THF     H5 6723   4.673   4.234   3.802  0.2536  0.3247 -0.5304
  337THF     H6 6724   4.647   4.339   4.154 -1.1160  1.5204 -0.3931
  337THF     H7 6725   4.694   4.202   4.064  1.3129 -0.3368  0.4507
  337THF     C8 6726   4.835   4.369   4.030  0.1091 -0.7369 -0.1041
  337THF     C9 6727   4.841   4.365   3.871 -0.0993  0.2730 -0.0122
  337THF    H10 6728   4.913   4.309   4.076  0.4000 -0.4572 -0.2314
  337THF    H11 6729   4.837   4.472   4.065  1.4236 -1.2442  1.4096
  337THF    H12 6730   4.880   4.459   3.832 -0.3167  0.8472  1.1522
  337THF    H13 6731   4.914   4.291   3.836  1.3014  1.1516  0.9328
  338THF     O1 6732   2.212   4.015   2.314 -0.0897  0.1258  0.1189
  338THF     C2 6733   2.079   4.023   2.255  0.3606 -0.2228 -0.3589
  338THF     C3 6734   2.292   4.110   2.256  0.2038 -0.3540 -0.3324
  338THF     H4 6735   2.014   3.960   2.315 -2.0168  1.2776 -1.2042
  338THF     H5 6736   2.084   3.986   2.153  1.9646 -1.0907 -0.0020
  338THF     H6 6737   2.378   4.134   2.319  0.0029 -0.8558  0.1392
  338THF     H7 6738   2.322   4.081   2.156 -1.1455  0.6139 -1.0508
  338THF     C8 6739   2.194   4.228   2.261 -0.2033  0.1584  0.1944
  338THF     C9 6740   2.056   4.174   2.280 -0.4236 -0.2419 -0.1366
  338THF    H10 6741   2.188   4.279   2.165  0.2852 -0.5070 -0.1987
  338THF    H11 6742   2.226   4.309   2.327  0.1938 -1.0852  1.6000
  338THF    H12 6743   2.027   4.198   2.382 -0.7306  1.1594 -0.5432
  338THF    H13 6744   1.982   4.221   2.216 -0.2260  1.1276  0.5951
  339THF     O1 6745   4.213   0.455   4.441  0.1597  0.0208  0.3626
  339THF     C2 6746   4.079   0.487   4.498 -0.4815  0.1410  0.2189
  339THF     C3 6747   4.293   0.381   4.527  0.4216  0.1331  0.2232
  339THF     H4 6748   4.005   0.492   4.418 -0.0862 -1.2044 -0.2535
  339THF     H5 6749   4.081   0.585   4.545  0.3475 -0.2612  1.0516
  339THF     H6 6750   4.331   0.296   4.471 -0.9290  0.6754 -1.6396
  339THF     H7 6751   4.384   0.432   4.557 -0.0594  1.3954 -0.3741
  339THF     C8 6752   4.200   0.343   4.639  0.1881 -0.2894 -0.5608
  339THF     C9 6753   4.058   0.377   4.598 -0.1095 -0.6675 -0.2115
  339THF    H10 6754   4.231   0.413   4.717 -2.9153 -0.1636  0.7316
  339THF    H11 6755   4.218   0.240   4.669 -1.3125 -1.4790 -3.4354
  339THF    H12 6756   4.029   0.298   4.528  0.1743  0.7120 -1.9584
  339THF    H13 6757   3.986   0.396   4.676  0.7296  1.3551  0.1353
  340THF     O1 6758   4.755   3.124   4.472  0.2682 -0.0497  0.4786
  340THF     C2 6759   4.640   3.204   4.494  0.3652  0.2158 -0.4618
  340THF     C3 6760   4.776   3.044   4.580 -0.3193 -0.6906 -0.3119
  340THF     H4 6761   4.598   3.259   4.410  0.6495  1.8790  0.4560
  340THF     H5 6762   4.652   3.281   4.570 -1.0120  0.3431 -0.3542
  340THF     H6 6763   4.849   2.968   4.553  1.4625  1.4330 -1.8105
  340THF     H7 6764   4.818   3.110   4.656  0.9658 -0.3396 -1.3033
  340THF     C8 6765   4.641   2.989   4.612 -0.4599 -0.2317  0.4221
  340THF     C9 6766   4.550   3.096   4.552 -0.1627  0.1122 -0.1870
  340THF    H10 6767   4.622   2.981   4.719  2.1130  1.0797  1.0618
  340THF    H11 6768   4.632   2.891   4.566 -0.5058 -0.4713  0.9346
  340THF    H12 6769   4.499   3.043   4.471 -0.3069 -0.5941  0.3448
  340THF    H13 6770   4.473   3.129   4.622  0.8640 -1.3451  1.7480
  341THF     O1 6771   1.094   1.116   2.624  0.0458  0.3076  0.0382
  341THF     C2 6772   1.178   1.119   2.516  0.3417 -0.1095  0.2550
  341THF     C3 6773   1.151   1.019   2.714 -0.4560 -0.2813 -0.3406
  341THF     H4 6774   1.178   1.215   2.466  1.4893  0.6108  1.5510
  341THF     H5 6775   1.144   1.045   2.443  0.6510 -0.8332  0.8210
  341THF     H6 6776   1.103   1.033   2.811 -2.4645  0.8299 -1.4240
  341THF     H7 6777   1.138   0.917   2.677 -0.7680 -0.8226  1.1741
  341THF     C8 6778   1.302   1.056   2.714  0.1496  0.3414 -0.3861
  341THF     C9 6779   1.319   1.090   2.567  0.0188 -0.9775 -0.5599
  341THF    H10 6780   1.368   0.978   2.752 -0.0876 -0.7539 -2.1101
  341THF    H11 6781   1.316   1.142   2.779 -0.3868 -0.5961  1.0366
  341THF    H12 6782   1.362   1.190   2.565  0.0809 -0.9857 -2.9865
  341THF    H13 6783   1.369   1.012   2.510 -2.1206 -1.2768 -2.1661
  342THF     O1 6784   4.069   4.232   1.007  0.1020  0.8587  0.1162
  342THF     C2 6785   4.008   4.246   1.133  1.1569 -0.5470 -0.0413
  342THF     C3 6786   4.188   4.307   1.014 -0.1631 -0.5918  0.1576
  342THF     H4 6787   3.966   4.148   1.155  3.1369 -0.9557  2.4138
  342THF     H5 6788   3.948   4.335   1.118  2.4348  0.6597  1.6514
  342THF     H6 6789   4.252   4.301   0.926  2.5291 -3.9973  2.0811
  342THF     H7 6790   4.169   4.414   1.020  2.1742  0.0870 -2.5301
  342THF     C8 6791   4.247   4.265   1.151  0.3187 -0.0628  0.0191
  342THF     C9 6792   4.117   4.263   1.231 -1.1878  0.5905 -0.4067
  342THF    H10 6793   4.327   4.324   1.196  0.0190  1.3471 -1.2097
  342THF    H11 6794   4.287   4.164   1.147  0.7987 -0.1428  3.3723
  342THF    H12 6795   4.119   4.188   1.309  1.5437 -0.1917 -1.1014
  342THF    H13 6796   4.093   4.358   1.280 -0.6912 -0.0149  1.0589
  343THF     O1 6797   1.681   5.058   0.795  0.1187  0.6756 -0.3312
  343THF     C2 6798   1.656   5.008   0.669 -0.0408  0.4226  0.1791
  343THF     C3 6799   1.670   4.947   0.879  0.7511  0.2937 -0.0095
  343THF     H4 6800   1.711   5.065   0.595  1.2291  0.8220  1.3923
  343THF     H5 6801   1.551   5.017   0.642 -0.5659 -2.2935  1.0600
  343THF     H6 6802   1.723   4.968   0.972  1.8465  1.3169 -0.8340
  343THF     H7 6803   1.565   4.921   0.892  0.3517  1.0007 -1.6021
  343THF     C8 6804   1.748   4.842   0.797  0.3036  0.8390 -0.2183
  343THF     C9 6805   1.683   4.862   0.663 -0.1495  0.0091 -0.4048
  343THF    H10 6806   1.735   4.744   0.842  0.8106  0.9112  0.1005
  343THF    H11 6807   1.855   4.862   0.790  0.1585  1.2796 -1.3991
  343THF    H12 6808   1.741   4.832   0.576 -0.5121  2.1301 -1.4303
  343THF    H13 6809   1.584   4.816   0.664 -1.3006  2.3473 -0.1235
  344THF     O1 6810   0.216   2.725   1.701  0.2668 -0.1541  0.0504
  344THF     C2 6811   0.192   2.865   1.668 -0.0769  0.6617 -0.5386
  344THF     C3 6812   0.166   2.641   1.595  0.0288  0.0762  0.4732
  344THF     H4 6813   0.286   2.902   1.627  0.7380 -1.0968 -0.3346
  344THF     H5 6814   0.164   2.922   1.757 -1.4335 -0.3130 -0.3049
  344THF     H6 6815   0.232   2.623   1.510 -1.1256 -2.0356 -0.0648
  344THF     H7 6816   0.139   2.544   1.637  0.3361 -0.6892 -1.0106
  344THF     C8 6817   0.043   2.720   1.558 -0.3514  0.8467 -0.3437
  344THF     C9 6818   0.091   2.858   1.555 -0.3443  0.7213 -0.0998
  344THF    H10 6819  -0.024   2.709   1.642 -0.8594  1.3646 -0.6745
  344THF    H11 6820   0.003   2.692   1.460 -1.7222  3.2993 -0.5758
  344THF    H12 6821   0.149   2.873   1.464  2.5485 -2.1675  1.0973
  344THF    H13 6822   0.015   2.936   1.565 -2.9184 -1.7073  0.3710
  345THF     O1 6823   3.765   4.392   1.527  0.4607 -0.0477 -0.1894
  345THF     C2 6824   3.895   4.333   1.520 -0.0341 -0.6136  0.6315
  345THF     C3 6825   3.680   4.321   1.620 -0.2016  0.7727  0.1174
  345THF     H4 6826   3.953   4.420   1.491 -1.7882  0.0951 -0.9709
  345THF     H5 6827   3.886   4.244   1.457 -0.7785 -1.5957  2.0633
  345THF     H6 6828   3.622   4.383   1.689 -0.4899 -0.5361  1.0886
  345THF     H7 6829   3.612   4.255   1.567  2.6395 -0.9257 -1.6839
  345THF     C8 6830   3.779   4.230   1.694 -0.3367  0.4676 -0.3077
  345THF     C9 6831   3.919   4.283   1.663  0.5612 -0.0133  0.1035
  345THF    H10 6832   3.771   4.124   1.670  3.2382 -0.8380  3.1890
  345THF    H11 6833   3.765   4.219   1.801 -1.6840 -1.5098 -0.6405
  345THF    H12 6834   3.939   4.368   1.729 -2.0103 -0.0711  1.0510
  345THF    H13 6835   4.004   4.215   1.663  0.8491  0.2692  2.5813
  346THF     O1 6836   2.843   4.613   4.627 -0.1255  0.3623  0.5888
  346THF     C2 6837   2.940   4.685   4.700  0.2593  0.0941  0.5841
  346THF     C3 6838   2.764   4.708   4.557  0.0301  0.0823 -0.2479
  346THF     H4 6839   3.023   4.626   4.738  1.9575 -0.2526 -3.2597
  346THF     H5 6840   2.893   4.728   4.788  2.8395  1.9838  1.1605
  346THF     H6 6841   2.736   4.678   4.455 -0.7217 -0.7998  0.2048
  346THF     H7 6842   2.672   4.735   4.608  1.7489  1.8671  2.0904
  346THF     C8 6843   2.846   4.828   4.544 -0.3800  0.2266  0.2664
  346THF     C9 6844   2.979   4.801   4.613 -0.9009 -0.1382 -0.1440
  346THF    H10 6845   2.791   4.910   4.591 -2.9656 -1.3510  0.1902
  346THF    H11 6846   2.866   4.852   4.440 -0.8730  0.2275  0.1679
  346THF    H12 6847   3.053   4.772   4.539 -0.3482  0.9794 -0.0511
  346THF    H13 6848   3.006   4.890   4.670  0.7659 -1.3189  0.9878
  347THF     O1 6849   1.276   3.909   5.072 -0.1642  0.3382  0.1274
  347THF     C2 6850   1.297   4.014   5.165  0.1940 -0.2896 -0.4227
  347THF     C3 6851   1.170   3.940   4.978  0.3947 -0.6799 -0.5343
  347THF     H4 6852   1.376   4.077   5.125 -1.5130  2.1300 -0.2271
  347THF     H5 6853   1.324   3.982   5.266 -2.0349  0.4604  0.4876
  347THF     H6 6854   1.192   3.943   4.871  0.2824 -0.0204 -0.5423
  347THF     H7 6855   1.077   3.883   4.980  0.5782 -1.0011 -0.9464
  347THF     C8 6856   1.127   4.079   5.018 -0.0381 -0.2558  0.2913
  347THF     C9 6857   1.160   4.083   5.164 -0.5471 -0.5419  0.2121
  347THF    H10 6858   1.025   4.096   4.986  0.4260  0.0147 -1.0823
  347THF    H11 6859   1.185   4.158   4.969 -0.3296 -0.4665 -0.4012
  347THF    H12 6860   1.168   4.186   5.199  2.8718 -1.7024  3.4922
  347THF    H13 6861   1.088   4.030   5.226 -0.7806 -2.3544 -1.4909
  348THF     O1 6862   3.210   3.625   4.835  1.1002  0.1859 -0.1274
  348THF     C2 6863   3.110   3.551   4.763  0.3625 -0.2255  0.0515
  348THF     C3 6864   3.321   3.631   4.750 -0.5935  0.3840 -0.4867
  348THF     H4 6865   3.011   3.583   4.798  1.2669  0.6901  1.9511
  348THF     H5 6866   3.137   3.449   4.791  0.1797 -0.7379 -1.5630
  348THF     H6 6867   3.402   3.693   4.788 -0.8994  0.2121  0.4666
  348THF     H7 6868   3.357   3.528   4.743 -3.0134 -0.4801 -0.9369
  348THF     C8 6869   3.265   3.655   4.612  0.0567 -0.4572 -0.1512
  348THF     C9 6870   3.129   3.585   4.614 -0.7652 -0.2979 -0.4657
  348THF    H10 6871   3.332   3.625   4.531 -0.0760 -0.3888 -0.2868
  348THF    H11 6872   3.247   3.761   4.594  1.6643 -0.3624 -1.4906
  348THF    H12 6873   3.043   3.644   4.582  1.4257  2.4667 -1.7975
  348THF    H13 6874   3.135   3.499   4.547 -0.1827 -0.7554  0.1557
  349THF     O1 6875   3.148   0.064   2.613 -0.3827  0.5060  0.0102
  349THF     C2 6876   3.034   0.118   2.688 -0.3709  0.2570  0.4216
  349THF     C3 6877   3.132  -0.078   2.620  0.5231  0.0871 -0.0818
  349THF     H4 6878   3.025   0.226   2.672 -0.5635  0.3749  1.2950
  349THF     H5 6879   3.048   0.116   2.796  0.7186  0.7861  0.3093
  349THF     H6 6880   3.190  -0.135   2.547  0.3715  1.4196 -1.2709
  349THF     H7 6881   3.158  -0.118   2.718 -0.2935 -0.0541  0.0846
  349THF     C8 6882   2.981  -0.094   2.596 -0.2093  0.2194 -0.3580
  349THF     C9 6883   2.920   0.030   2.661  0.2371  0.0078 -0.8166
  349THF    H10 6884   2.946  -0.187   2.643 -0.5666  0.9677  0.8978
  349THF    H11 6885   2.951  -0.084   2.492 -2.1650  0.3137  0.1651
  349THF    H12 6886   2.845   0.066   2.591 -0.8274  0.5541  0.5661
  349THF    H13 6887   2.864   0.006   2.752  2.6867 -0.7648  0.5799
  350THF     O1 6888   4.407   4.349   0.094 -0.2582 -0.4860 -0.1408
  350THF     C2 6889   4.391   4.270   0.213  0.0651 -0.0697  0.5464
  350THF     C3 6890   4.472   4.474   0.112 -0.1808  0.6410  0.0960
  350THF     H4 6891   4.432   4.171   0.196 -3.4879 -1.1995 -2.7589
  350THF     H5 6892   4.286   4.243   0.220 -0.1568  0.1277 -1.5202
  350THF     H6 6893   4.546   4.487   0.034 -0.4461  0.7659 -0.1385
  350THF     H7 6894   4.403   4.559   0.107 -0.4071  0.4196 -0.5591
  350THF     C8 6895   4.535   4.454   0.252 -0.2041 -0.3458 -0.2154
  350THF     C9 6896   4.438   4.359   0.329 -0.2012 -0.2277 -0.8982
  350THF    H10 6897   4.546   4.549   0.304 -1.5035  0.8499 -2.0015
  350THF    H11 6898   4.630   4.401   0.246 -0.4619 -0.9960  1.0875
  350THF    H12 6899   4.498   4.311   0.406  0.4044  2.0631  0.1595
  350THF    H13 6900   4.355   4.414   0.373  1.5367  1.5801  0.2725
  351THF     O1 6901   3.704   0.209   1.919  0.4564  0.3938  0.1265
  351THF     C2 6902   3.768   0.280   1.813  0.2620 -0.2277  0.4570
  351THF     C3 6903   3.799   0.103   1.945  0.3346  0.4488  0.5659
  351THF     H4 6904   3.783   0.384   1.842  2.8037  0.2153 -2.0407
  351THF     H5 6905   3.712   0.268   1.720 -0.3207  1.0716  0.6216
  351THF     H6 6906   3.791   0.078   2.051 -0.6004  1.1693  0.6806
  351THF     H7 6907   3.771   0.019   1.881  1.7530  0.8418 -0.6126
  351THF     C8 6908   3.932   0.155   1.908 -1.2582  0.3357  0.5232
  351THF     C9 6909   3.910   0.233   1.785  0.5229  0.1576  0.7068
  351THF    H10 6910   4.017   0.090   1.888 -0.7541  0.9751  0.5714
  351THF    H11 6911   3.972   0.215   1.989 -0.3845  1.4144 -0.6691
  351THF    H12 6912   3.982   0.314   1.772  1.5881 -1.1780 -2.6937
  351THF    H13 6913   3.913   0.156   1.709  1.5400 -0.0619  0.9598
  352THF     O1 6914   3.099   4.973   1.678  0.6239 -0.6391  0.1076
  352THF     C2 6915   3.231   5.008   1.650 -0.1134 -0.2709 -0.1043
  352THF     C3 6916   3.030   5.088   1.739 -0.1449 -0.5375 -0.3511
  352THF     H4 6917   3.274   4.942   1.574  2.7180 -0.0344  1.1841
  352THF     H5 6918   3.300   4.995   1.733  0.0891  1.6328  0.0557
  352THF     H6 6919   2.941   5.099   1.678  1.2197  0.5632 -2.2675
  352THF     H7 6920   3.011   5.088   1.846 -0.8608 -2.5914 -0.4376
  352THF     C8 6921   3.132   5.207   1.724 -0.1818  0.3506  0.2271
  352THF     C9 6922   3.230   5.154   1.622 -0.6184 -0.3855 -0.8845
  352THF    H10 6923   3.183   5.228   1.818 -0.7198  0.3469  0.5217
  352THF    H11 6924   3.084   5.296   1.685  0.8707  1.0577  0.4801
  352THF    H12 6925   3.189   5.174   1.523 -0.4762 -0.7139 -1.0078
  352THF    H13 6926   3.328   5.201   1.628 -0.0866 -1.1796 -2.7989
  353THF     O1 6927   3.564   0.366   2.792 -0.3681 -0.0740  0.1041
  353THF     C2 6928   3.481   0.308   2.696 -0.5633 -0.5091  0.4965
  353THF     C3 6929   3.488   0.468   2.858  0.0504  0.4319  0.0857
  353THF     H4 6930   3.531   0.217   2.665 -1.2754 -0.7796  0.1081
  353THF     H5 6931   3.477   0.366   2.603 -0.5059  0.7396  1.2554
  353THF     H6 6932   3.518   0.476   2.963 -0.0191  0.0659  0.1358
  353THF     H7 6933   3.495   0.565   2.809 -0.1677  0.1535 -0.5039
  353THF     C8 6934   3.345   0.413   2.859  0.1328  0.2023  0.3936
  353THF     C9 6935   3.346   0.299   2.765 -0.4123  0.6873  0.9141
  353THF    H10 6936   3.283   0.495   2.823  0.3515 -0.2822 -1.1606
  353THF    H11 6937   3.313   0.395   2.962  0.0871 -1.7871  0.0691
  353THF    H12 6938   3.337   0.208   2.825  2.1882 -0.6786 -0.5507
  353THF    H13 6939   3.276   0.311   2.682 -0.0403  1.6732  0.7323
  354THF     O1 6940   1.994   0.205   3.150 -0.2601  0.0392  0.0712
  354THF     C2 6941   2.142   0.203   3.163 -0.0058 -0.2394  0.1494
  354THF     C3 6942   1.950   0.076   3.194  0.2870 -0.3974 -0.3757
  354THF     H4 6943   2.155   0.219   3.270 -0.8637  1.5771  0.0306
  354THF     H5 6944   2.183   0.291   3.113 -2.4956  1.2469  0.5358
  354THF     H6 6945   1.910   0.066   3.295  1.1553  0.7302  0.0879
  354THF     H7 6946   1.861   0.049   3.135  1.2297 -2.2261 -1.0434
  354THF     C8 6947   2.057  -0.022   3.167 -1.0854  0.2622  0.3779
  354THF     C9 6948   2.175   0.063   3.111 -0.0331 -0.3051 -0.0775
  354THF    H10 6949   2.025  -0.105   3.104  1.5114  1.0314 -2.1998
  354THF    H11 6950   2.091  -0.063   3.263  0.7232 -0.1622 -0.3922
  354THF    H12 6951   2.273   0.027   3.142 -0.8234 -1.4151  1.2142
  354THF    H13 6952   2.168   0.054   3.002 -1.3766  0.6739 -0.0970
  355THF     O1 6953   1.506   0.712   3.613  0.0550 -0.1596  0.1609
  355THF     C2 6954   1.525   0.626   3.722 -0.2326  1.0099 -0.4538
  355THF     C3 6955   1.539   0.635   3.493  0.5244 -0.0568  0.5650
  355THF     H4 6956   1.459   0.657   3.803  3.9212  0.7317  3.5070
  355THF     H5 6957   1.629   0.630   3.757 -0.9889  0.3258  2.0337
  355THF     H6 6958   1.466   0.643   3.412  0.0441  0.4054  1.0375
  355THF     H7 6959   1.631   0.680   3.456 -0.1548 -0.0256 -1.2021
  355THF     C8 6960   1.566   0.488   3.545  0.2211 -0.4418 -0.7223
  355THF     C9 6961   1.490   0.492   3.674 -0.4895 -0.1918 -0.4093
  355THF    H10 6962   1.671   0.473   3.569 -0.1106  0.6669  1.7321
  355THF    H11 6963   1.538   0.404   3.481 -3.2473  1.1332 -1.5455
  355THF    H12 6964   1.385   0.475   3.654 -0.2161 -0.6438 -1.5496
  355THF    H13 6965   1.518   0.417   3.748 -4.0861  0.3828  1.7504
  356THF     O1 6966   3.844   2.398   0.086  0.0647 -0.4200  0.4936
  356THF     C2 6967   3.919   2.511   0.035  0.1833 -0.3647  0.8549
  356THF     C3 6968   3.739   2.375  -0.007 -1.0299 -0.3932 -0.2869
  356THF     H4 6969   3.966   2.485  -0.060 -0.0275  1.2828  0.2727
  356THF     H5 6970   3.997   2.545   0.103 -0.2511 -1.1939  1.7912
  356THF     H6 6971   3.774   2.328  -0.098  1.2609 -1.1817  0.9174
  356THF     H7 6972   3.666   2.313   0.044  0.5491  1.6758  5.2906
  356THF     C8 6973   3.687   2.518  -0.027 -0.3632 -0.3587  0.3637
  356THF     C9 6974   3.800   2.610   0.013 -0.6310  0.1877 -0.2059
  356THF    H10 6975   3.602   2.547   0.035 -0.2101  1.2974 -0.1353
  356THF    H11 6976   3.657   2.534  -0.131  1.6814  1.4496 -0.0183
  356THF    H12 6977   3.821   2.688  -0.061 -0.9890 -0.0662 -0.5738
  356THF    H13 6978   3.783   2.658   0.110  2.5332  1.3630 -0.1250
  357THF     O1 6979   4.010   4.835   4.765  0.7398 -0.5883 -0.0182
  357THF     C2 6980   3.861   4.826   4.770 -0.1052 -0.9312 -0.2613
  357THF     C3 6981   4.051   4.794   4.640  0.0394  0.4981 -0.1443
  357THF     H4 6982   3.812   4.923   4.760 -1.3962 -1.6626 -1.4602
  357THF     H5 6983   3.833   4.783   4.866  1.3254  2.7678  2.0063
  357THF     H6 6984   4.072   4.886   4.585  1.1127 -0.3471 -1.2058
  357THF     H7 6985   4.147   4.742   4.634 -0.8678 -1.1101 -4.7623
  357THF     C8 6986   3.944   4.691   4.603  0.2783  0.1468  0.7631
  357THF     C9 6987   3.822   4.747   4.644  0.0136 -0.7041 -0.0355
  357THF    H10 6988   3.968   4.600   4.657  0.5032 -1.1124 -1.3502
  357THF    H11 6989   3.953   4.659   4.499  1.0095 -1.1127  1.1944
  357THF    H12 6990   3.780   4.819   4.572 -1.4144  0.1453  1.5638
  357THF    H13 6991   3.741   4.678   4.665 -1.2087  0.5725 -0.3354
  358THF     O1 6992   0.298   2.825   4.023  0.6344  0.0790 -0.7229
  358THF     C2 6993   0.290   2.956   3.977 -0.6746 -0.5742 -0.4237
  358THF     C3 6994   0.256   2.744   3.920  0.1364  0.4282  0.4924
  358THF     H4 6995   0.394   2.985   3.961 -0.5175 -1.5580 -1.2430
  358THF     H5 6996   0.265   3.034   4.049  2.4598 -1.2335  1.5820
  358THF     H6 6997   0.341   2.718   3.856 -0.2725 -0.8808  0.4526
  358THF     H7 6998   0.207   2.655   3.958  0.7970  0.7562  2.2048
  358THF     C8 6999   0.151   2.818   3.840  0.5846 -0.6027  0.3025
  358THF     C9 7000   0.184   2.961   3.865 -0.3280 -0.2122 -0.1318
  358THF    H10 7001   0.066   2.778   3.896 -0.7377  0.5592 -0.8088
  358THF    H11 7002   0.133   2.781   3.739 -1.0275  0.2911  0.2211
  358THF    H12 7003   0.231   3.011   3.781 -0.2749  2.0685  1.1641
  358THF    H13 7004   0.102   3.032   3.881  0.2555  0.7078 -1.0865
  359THF     O1 7005   4.877   4.778   0.121  0.2329  0.6478  0.1099
  359THF     C2 7006   4.789   4.705   0.041 -0.6780  0.4424 -0.2440
  359THF     C3 7007   4.824   4.906   0.134 -1.1832 -0.8119  0.3508
  359THF     H4 7008   4.690   4.694   0.086 -0.8818  3.1357  0.1474
  359THF     H5 7009   4.839   4.612   0.015 -0.6526 -0.6579  3.2983
  359THF     H6 7010   4.751   4.906   0.216 -2.4923 -0.4323 -0.7778
  359THF     H7 7011   4.896   4.984   0.157  0.9969 -2.1595 -1.5131
  359THF     C8 7012   4.752   4.933   0.002 -0.6604 -0.4187  0.3012
  359THF     C9 7013   4.765   4.797  -0.072 -0.1348  0.2071  0.3929
  359THF    H10 7014   4.793   5.016  -0.056  0.5920 -2.1253 -1.3828
  359THF    H11 7015   4.646   4.948   0.024 -0.2006  1.0181  1.6551
  359THF    H12 7016   4.671   4.773  -0.122 -0.7253  2.9964  0.0162
  359THF    H13 7017   4.844   4.799  -0.147 -1.3766 -1.0231 -1.0014
  360THF     O1 7018   2.259   1.976   1.428 -0.3844  0.1483 -0.0948
  360THF     C2 7019   2.211   1.906   1.319 -0.2539  1.0467 -0.2674
  360THF     C3 7020   2.396   2.008   1.397  0.1174 -0.3239 -0.5728
  360THF     H4 7021   2.155   1.957   1.240 -0.4525  0.9180 -0.2114
  360THF     H5 7022   2.138   1.836   1.361  0.6290  1.8584  2.8399
  360THF     H6 7023   2.401   2.091   1.326 -3.4908  0.0198 -0.6330
  360THF     H7 7024   2.446   2.019   1.493  1.1484  2.3566 -1.3159
  360THF     C8 7025   2.455   1.890   1.312 -0.1793  0.0752 -0.0747
  360THF     C9 7026   2.329   1.821   1.265  0.1439 -0.3038  0.0307
  360THF    H10 7027   2.507   1.823   1.381  0.3599 -0.8856 -1.3736
  360THF    H11 7028   2.529   1.922   1.239 -0.4428  1.4957  0.2562
  360THF    H12 7029   2.330   1.823   1.156  1.3620 -0.6649  0.0232
  360THF    H13 7030   2.339   1.714   1.285 -0.0200 -0.7859 -2.1740
  361THF     O1 7031   3.672   3.486   2.211  0.3026  0.3833 -0.1343
  361THF     C2 7032   3.764   3.581   2.158 -0.6057  1.0294 -0.4265
  361THF     C3 7033   3.746   3.390   2.286 -0.1740  0.0677 -0.2153
  361THF     H4 7034   3.800   3.650   2.235 -0.7201  0.4795  0.1249
  361THF     H5 7035   3.714   3.633   2.077 -1.3915  1.7578  0.4988
  361THF     H6 7036   3.774   3.444   2.377 -2.5236  0.0455  0.5825
  361THF     H7 7037   3.690   3.305   2.323 -2.8498  1.3292 -1.0962
  361THF     C8 7038   3.877   3.370   2.206 -0.1860  0.0541 -0.2617
  361THF     C9 7039   3.891   3.498   2.129  0.5177 -0.1532  0.5098
  361THF    H10 7040   3.853   3.283   2.145  0.1023 -0.8965  0.9500
  361THF    H11 7041   3.964   3.337   2.263  0.7091  1.2025 -0.9290
  361THF    H12 7042   3.984   3.552   2.147  0.2074  1.5814 -2.4450
  361THF    H13 7043   3.897   3.480   2.022  2.0324 -0.7395  0.6624
  362THF     O1 7044   3.795   2.636   2.794  0.3334 -0.0663  0.3046
  362THF     C2 7045   3.842   2.557   2.688 -0.8704  0.0175  0.2608
  362THF     C3 7046   3.661   2.681   2.757  0.3126  0.4212  0.4676
  362THF     H4 7047   3.890   2.470   2.735  0.4202  0.6168  0.1093
  362THF     H5 7048   3.905   2.620   2.626  0.0482 -0.4738  0.6507
  362THF     H6 7049   3.597   2.705   2.842 -0.2915 -1.6580  0.6482
  362THF     H7 7050   3.674   2.766   2.690  1.7495 -1.3734 -1.6532
  362THF     C8 7051   3.600   2.569   2.678  0.0929 -0.8996  0.1575
  362THF     C9 7052   3.718   2.507   2.606 -0.2078  0.1984 -0.5710
  362THF    H10 7053   3.516   2.602   2.617  0.2888  2.1540  1.3378
  362THF    H11 7054   3.548   2.493   2.735 -0.9510  0.8638  1.6747
  362THF    H12 7055   3.707   2.399   2.603 -1.6476  0.2993  0.2436
  362THF    H13 7056   3.719   2.543   2.503 -1.8521 -0.1582 -0.7383
  363THF     O1 7057   0.746   0.938   4.189  0.2480  0.4873 -0.0139
  363THF     C2 7058   0.869   0.917   4.253  0.3450  0.2468 -0.0281
  363THF     C3 7059   0.699   0.815   4.120 -1.0905  0.1554 -0.3752
  363THF     H4 7060   0.879   0.975   4.345 -1.7242 -1.6082  1.4556
  363THF     H5 7061   0.946   0.942   4.180 -0.4967 -1.6529 -1.6687
  363THF     H6 7062   0.591   0.828   4.115 -0.9112  1.4229 -2.9447
  363THF     H7 7063   0.737   0.819   4.018  1.0437 -0.0346  0.3544
  363THF     C8 7064   0.761   0.696   4.195 -0.2002 -0.2584 -0.2230
  363THF     C9 7065   0.867   0.760   4.289 -0.3077  0.9006  1.0798
  363THF    H10 7066   0.797   0.620   4.125  0.1457 -0.3214  0.0274
  363THF    H11 7067   0.678   0.645   4.244  0.6397 -2.0067 -0.5390
  363THF    H12 7068   0.849   0.735   4.393  0.5872 -3.2370  0.4369
  363THF    H13 7069   0.966   0.721   4.266  0.3119  3.0941 -0.2269
  364THF     O1 7070   1.483   4.231   0.519 -0.2941  0.0465  0.3732
  364THF     C2 7071   1.506   4.271   0.652  0.5284 -0.0535 -0.4748
  364THF     C3 7072   1.450   4.094   0.519  0.4811 -0.3136  0.1580
  364THF     H4 7073   1.404   4.287   0.689  1.0849  0.3245  0.9641
  364THF     H5 7074   1.557   4.368   0.651  0.7167 -0.1366  0.3462
  364THF     H6 7075   1.349   4.073   0.555  0.2141 -1.3814 -1.1234
  364THF     H7 7076   1.461   4.054   0.418  1.1554 -0.3884  0.2594
  364THF     C8 7077   1.556   4.032   0.614 -0.2711 -0.0483  0.0592
  364THF     C9 7078   1.584   4.156   0.711 -0.0558  0.3592 -0.0420
  364THF    H10 7079   1.643   4.005   0.554  0.1544  0.8591  0.2398
  364THF    H11 7080   1.513   3.949   0.669  1.0849 -0.8606 -0.0679
  364THF    H12 7081   1.542   4.134   0.809 -1.6051  1.4561 -0.4107
  364THF    H13 7082   1.691   4.175   0.706  0.3071 -1.7137 -0.9128
  365THF     O1 7083   2.505   1.953   4.195 -0.0081 -0.2642 -0.6416
  365THF     C2 7084   2.618   1.952   4.271 -0.8549 -0.4477  0.4388
  365THF     C3 7085   2.539   1.998   4.060 -0.4513 -0.0465 -1.0722
  365THF     H4 7086   2.613   1.884   4.356 -0.1780  0.8693  1.5682
  365THF     H5 7087   2.659   2.045   4.309 -0.4680 -0.3724 -0.1528
  365THF     H6 7088   2.471   1.961   3.983 -0.0656 -0.9504 -0.9941
  365THF     H7 7089   2.544   2.106   4.073 -1.2944 -0.2765  2.1749
  365THF     C8 7090   2.676   1.953   4.030 -0.5703  0.3646 -0.1899
  365THF     C9 7091   2.725   1.904   4.164  0.9599 -0.1480 -0.8070
  365THF    H10 7092   2.725   2.040   3.987 -1.9249  1.2656  0.0319
  365THF    H11 7093   2.680   1.875   3.954 -2.7059 -0.9200  0.9040
  365THF    H12 7094   2.740   1.796   4.161  2.0379  0.0212 -1.7640
  365THF    H13 7095   2.824   1.939   4.192  1.0038  0.4892 -1.7462
  366THF     O1 7096   0.648   1.657   4.877 -0.0086 -0.2048 -0.1613
  366THF     C2 7097   0.659   1.557   4.782 -0.7061  0.1630  0.7124
  366THF     C3 7098   0.752   1.647   4.976 -0.0854  0.6875  0.3097
  366THF     H4 7099   0.719   1.596   4.700 -2.5203  0.2107 -0.6437
  366THF     H5 7100   0.565   1.520   4.742 -0.4340 -0.6380  0.8054
  366THF     H6 7101   0.846   1.688   4.939 -0.6329  2.1142  0.4448
  366THF     H7 7102   0.723   1.707   5.063 -0.7779  0.3265  0.3336
  366THF     C8 7103   0.759   1.497   5.002 -0.5600 -0.6943  0.2774
  366THF     C9 7104   0.730   1.445   4.857 -0.6523 -0.2820 -0.2411
  366THF    H10 7105   0.682   1.449   5.062  1.3621 -1.3023  2.4175
  366THF    H11 7106   0.857   1.465   5.037  0.0209  2.0838  1.4256
  366THF    H12 7107   0.822   1.417   4.804 -0.0918 -0.4250  0.7862
  366THF    H13 7108   0.663   1.360   4.859 -2.1406  0.8223 -1.0667
  367THF     O1 7109   0.358   3.646   3.020 -0.0875 -0.3362 -0.3401
  367THF     C2 7110   0.241   3.630   2.939  0.6808  0.1869 -0.4910
  367THF     C3 7111   0.402   3.518   3.060  0.2101  0.1356 -0.1341
  367THF     H4 7112   0.209   3.722   2.889  1.3627  0.9363  0.4248
  367THF     H5 7113   0.159   3.596   3.002 -0.5042  0.5888 -1.7698
  367THF     H6 7114   0.504   3.523   3.099 -0.1672 -0.0873  0.8972
  367THF     H7 7115   0.331   3.476   3.130  1.1774 -0.0253  0.7887
  367THF     C8 7116   0.392   3.450   2.925 -0.2953 -0.4981  0.3060
  367THF     C9 7117   0.283   3.524   2.844 -0.2861  0.3116  0.3276
  367THF    H10 7118   0.370   3.345   2.938  0.7040 -0.3892  3.7073
  367THF    H11 7119   0.491   3.463   2.880  0.7300  1.8438  2.9020
  367THF    H12 7120   0.321   3.576   2.756 -1.4495  1.6400  0.5839
  367THF    H13 7121   0.213   3.448   2.810 -0.4079  0.3697  0.4504
  368THF     O1 7122   2.189   4.831   0.384  0.3387 -0.4656 -0.1484
  368THF     C2 7123   2.128   4.785   0.504  0.3389  0.3068 -0.5852
  368THF     C3 7124   2.157   4.968   0.363  0.2015 -0.0703  0.2313
  368THF     H4 7125   2.184   4.705   0.553 -1.3541 -0.6450 -0.1218
  368THF     H5 7126   2.021   4.763   0.506  0.4260 -0.2251  1.5988
  368THF     H6 7127   2.209   5.013   0.278  0.6167  1.3508  1.2110
  368THF     H7 7128   2.050   4.979   0.344  0.3030  1.2729  0.3350
  368THF     C8 7129   2.175   5.027   0.503  0.1806 -0.6910 -0.3590
  368THF     C9 7130   2.144   4.906   0.592 -0.2863 -0.9404  0.0061
  368THF    H10 7131   2.099   5.103   0.520  0.2941 -0.3356 -1.3430
  368THF    H11 7132   2.277   5.065   0.516  1.2814 -3.5678  0.1991
  368THF    H12 7133   2.227   4.883   0.658 -0.0046 -1.0691 -0.3955
  368THF    H13 7134   2.055   4.926   0.652 -0.1409  0.2576 -0.1464
  369THF     O1 7135   5.367   0.225   2.339  0.4236  0.0327  0.1179
  369THF     C2 7136   5.503   0.259   2.343  0.0928 -0.2387  0.0600
  369THF     C3 7137   5.316   0.278   2.221 -0.1391 -0.3254 -0.2866
  369THF     H4 7138   5.558   0.208   2.422 -0.6522 -1.2155 -0.0193
  369THF     H5 7139   5.523   0.365   2.336  1.6343 -0.4874  0.3730
  369THF     H6 7140   5.226   0.227   2.188 -0.8214  0.5625  0.1937
  369THF     H7 7141   5.290   0.383   2.228 -0.2717 -0.2535 -1.5450
  369THF     C8 7142   5.426   0.254   2.119 -0.3853 -0.4541  0.0589
  369THF     C9 7143   5.544   0.206   2.209  0.3350 -0.4227  0.3856
  369THF    H10 7144   5.464   0.338   2.061 -1.5928 -0.4473 -0.7743
  369THF    H11 7145   5.411   0.175   2.046 -0.8260 -0.9880  0.7162
  369THF    H12 7146   5.542   0.097   2.208  0.0152 -0.4725  2.3725
  369THF    H13 7147   5.638   0.257   2.192 -0.4922  1.1259  0.2858
  370THF     O1 7148   3.212   0.565   4.974  0.0628  0.5199 -0.0795
  370THF     C2 7149   3.256   0.486   4.861 -0.1552  0.2856 -0.0552
  370THF     C3 7150   3.093   0.516   5.031 -0.2881  0.6396  0.0700
  370THF     H4 7151   3.362   0.469   4.884 -0.5932  0.8148  2.7418
  370THF     H5 7152   3.244   0.534   4.764  1.5270 -1.4751 -1.2257
  370THF     H6 7153   3.088   0.532   5.138 -0.5327 -0.6898  0.2723
  370THF     H7 7154   3.010   0.564   4.978 -0.1434  0.5023 -0.2862
  370THF     C8 7155   3.103   0.364   5.009  0.5380  0.7701 -0.2327
  370THF     C9 7156   3.178   0.360   4.875  0.4893  0.4127 -0.4710
  370THF    H10 7157   3.000   0.329   5.003  0.7289 -0.6379  2.9730
  370THF    H11 7158   3.156   0.313   5.089 -1.1877 -1.3218 -0.3429
  370THF    H12 7159   3.257   0.284   4.874  1.8585  1.7747 -1.3083
  370THF    H13 7160   3.112   0.355   4.788 -0.3835  1.3470  0.1181
  371THF     O1 7161   3.561   3.615   3.777 -0.4069 -0.0839 -0.2921
  371THF     C2 7162   3.585   3.641   3.915 -0.0375 -0.0865 -0.3752
  371THF     C3 7163   3.522   3.743   3.727  0.2131  0.8242  0.6309
  371THF     H4 7164   3.689   3.628   3.944 -0.0231 -1.1264 -0.8312
  371THF     H5 7165   3.524   3.565   3.964 -0.5815  1.0361  0.7441
  371THF     H6 7166   3.604   3.803   3.688  0.4804 -1.3908 -2.5959
  371THF     H7 7167   3.450   3.738   3.644 -1.1605  0.6268  1.7968
  371THF     C8 7168   3.453   3.822   3.837  0.1664 -0.0185  0.4914
  371THF     C9 7169   3.525   3.776   3.959  0.1570  0.0540  0.2466
  371THF    H10 7170   3.352   3.789   3.858 -1.3083  3.2328 -0.7749
  371THF    H11 7171   3.444   3.929   3.819 -2.7796 -0.2755  0.0718
  371THF    H12 7172   3.603   3.846   3.989  0.4190 -0.8101  1.6750
  371THF    H13 7173   3.452   3.785   4.039 -1.7048  1.8216 -1.5255
  372THF     O1 7174   5.300   0.602   4.455 -0.3446  0.4560  0.1817
  372THF     C2 7175   5.342   0.690   4.350  0.4015  0.3099  1.1178
  372THF     C3 7176   5.206   0.673   4.529 -0.2527 -0.2220  0.1902
  372THF     H4 7177   5.275   0.663   4.269  1.3029  0.2465  0.3706
  372THF     H5 7178   5.442   0.672   4.311 -1.1159 -2.5306 -1.9123
  372THF     H6 7179   5.112   0.620   4.514 -0.1098 -0.3990 -0.0848
  372THF     H7 7180   5.239   0.660   4.632  2.2682 -2.3145 -0.7457
  372THF     C8 7181   5.193   0.816   4.479 -0.5413 -0.2698 -0.5488
  372THF     C9 7182   5.314   0.835   4.392 -0.1991 -0.6916 -0.6642
  372THF    H10 7183   5.180   0.884   4.563 -1.2263 -1.7772  0.6118
  372THF    H11 7184   5.104   0.805   4.418 -1.2302  1.0978  0.1802
  372THF    H12 7185   5.295   0.904   4.310  0.2301 -0.1529 -0.3217
  372THF    H13 7186   5.396   0.878   4.449 -0.3195 -0.7923 -0.4142
  373THF     O1 7187   0.664   0.185   3.369  0.7231 -0.1274  0.2386
  373THF     C2 7188   0.529   0.221   3.343 -0.5327  0.1870  0.2008
  373THF     C3 7189   0.666   0.120   3.489  0.3615 -0.2458 -0.1315
  373THF     H4 7190   0.480   0.126   3.322  0.2440 -0.6877  2.0951
  373THF     H5 7191   0.524   0.285   3.255  0.0456  0.4604  0.3649
  373THF     H6 7192   0.623   0.020   3.483  0.8017 -0.4334 -0.2000
  373THF     H7 7193   0.766   0.110   3.531  1.0564  1.2589 -1.3198
  373THF     C8 7194   0.584   0.224   3.565  0.4143  0.0305  0.0263
  373THF     C9 7195   0.489   0.287   3.469 -0.8675  0.9588  0.4337
  373THF    H10 7196   0.648   0.303   3.604  2.7869 -1.3211 -0.9056
  373THF    H11 7197   0.511   0.192   3.639 -1.3449 -1.5040 -2.2448
  373THF    H12 7198   0.385   0.254   3.474 -0.4724 -0.4774 -0.1981
  373THF    H13 7199   0.485   0.396   3.463  0.6170  0.9728 -3.6345
  374THF     O1 7200   0.881   3.900   1.180 -0.5260  0.5165 -0.8785
  374THF     C2 7201   0.856   4.030   1.141  0.0917 -0.0479  0.4397
  374THF     C3 7202   1.007   3.900   1.246 -0.1213 -0.6693  0.3025
  374THF     H4 7203   0.751   4.058   1.136  0.5443  1.8602  0.7584
  374THF     H5 7204   0.894   4.070   1.047  0.6950 -0.4964  0.4823
  374THF     H6 7205   1.014   3.814   1.313  2.8331 -0.9020 -0.1813
  374THF     H7 7206   1.095   3.889   1.183  0.9337  0.3580  1.5113
  374THF     C8 7207   1.019   4.029   1.324  0.4450 -0.8645 -0.5902
  374THF     C9 7208   0.898   4.111   1.265  0.1151  0.3758  0.3702
  374THF    H10 7209   1.108   4.091   1.309 -1.5273  1.6065 -3.1429
  374THF    H11 7210   0.993   4.016   1.429 -0.5531 -0.1231 -0.7351
  374THF    H12 7211   0.822   4.106   1.343 -1.2871 -0.2920 -0.9940
  374THF    H13 7212   0.940   4.211   1.255  1.4496 -0.0808  1.1834
  375THF     O1 7213   4.831   3.864   5.226  0.0780 -0.0780  0.0912
  375THF     C2 7214   4.927   3.776   5.288  0.0176 -0.7617  0.5240
  375THF     C3 7215   4.707   3.793   5.222  0.1032  0.4106 -0.2654
  375THF     H4 7216   5.022   3.825   5.310 -0.3853  1.7461 -2.5765
  375THF     H5 7217   4.956   3.689   5.229 -0.8335  0.7619 -2.3013
  375THF     H6 7218   4.620   3.851   5.192 -1.0165 -0.1784  1.6645
  375THF     H7 7219   4.722   3.712   5.150  1.7956 -0.2340  0.7391
  375THF     C8 7220   4.704   3.743   5.368  0.0960  0.6221 -0.0884
  375THF     C9 7221   4.852   3.746   5.418  0.2750  0.0359 -0.0419
  375THF    H10 7222   4.669   3.644   5.340  0.6372  0.2180  0.6354
  375THF    H11 7223   4.639   3.796   5.438  0.4884  0.1210  0.6671
  375THF    H12 7224   4.858   3.826   5.491 -1.7490 -0.7371  1.0463
  375THF    H13 7225   4.881   3.650   5.460 -0.5468 -1.2440 -2.2244
  376THF     O1 7226   0.592   3.564   4.572  0.1234  0.2062 -0.6238
  376THF     C2 7227   0.513   3.640   4.478  0.0756 -0.6868 -0.1743
  376THF     C3 7228   0.660   3.657   4.656  0.5451  0.1639 -0.3176
  376THF     H4 7229   0.412   3.597   4.476 -0.4176  0.4646 -1.2191
  376THF     H5 7230   0.533   3.633   4.371  1.7904 -1.9718  0.1862
  376THF     H6 7231   0.698   3.605   4.744  0.9879  0.6820 -0.1982
  376THF     H7 7232   0.751   3.683   4.601 -1.5015  0.8170 -3.6905
  376THF     C8 7233   0.560   3.774   4.670 -0.6955  0.5567  0.2499
  376THF     C9 7234   0.507   3.776   4.523 -0.8022  0.6542 -1.0261
  376THF    H10 7235   0.596   3.872   4.701  0.7459  0.1554 -0.0655
  376THF    H11 7236   0.475   3.747   4.733  0.1660  0.1158  1.2523
  376THF    H12 7237   0.402   3.805   4.519 -1.6425 -1.7874  0.6580
  376THF    H13 7238   0.558   3.847   4.460 -0.2981  1.6563  0.4575
  377THF     O1 7239   0.460   0.466   4.282 -0.1872 -0.2673 -0.3418
  377THF     C2 7240   0.494   0.432   4.415 -0.9243  0.0890 -0.2415
  377THF     C3 7241   0.384   0.586   4.304 -0.2342 -0.5877 -0.4356
  377THF     H4 7242   0.566   0.350   4.407 -0.6896 -0.0371  2.4616
  377THF     H5 7243   0.419   0.369   4.462 -0.2581 -0.6162 -0.0982
  377THF     H6 7244   0.387   0.665   4.229  0.7567  0.6323  0.8168
  377THF     H7 7245   0.280   0.564   4.327  0.1233  0.4736  2.6507
  377THF     C8 7246   0.453   0.658   4.427 -0.5102 -0.4902 -0.0477
  377THF     C9 7247   0.547   0.555   4.496 -0.0054 -0.0403  0.0719
  377THF    H10 7248   0.386   0.717   4.488 -1.8045 -0.3040 -1.5772
  377THF    H11 7249   0.523   0.734   4.391  0.3632 -2.7897 -3.7303
  377THF    H12 7250   0.652   0.573   4.472 -0.1270  1.8241  0.7550
  377THF    H13 7251   0.526   0.554   4.603 -1.8431  1.8456 -0.2056
  378THF     O1 7252   1.225   4.318   1.115  0.1993 -0.0172 -0.3116
  378THF     C2 7253   1.110   4.368   1.042 -0.3364  0.2115 -0.4134
  378THF     C3 7254   1.316   4.421   1.142 -0.0078  0.4525  0.1437
  378THF     H4 7255   1.034   4.376   1.120  1.1608 -0.1144  1.1528
  378THF     H5 7256   1.063   4.294   0.978 -1.8405  1.5859 -0.9648
  378THF     H6 7257   1.267   4.476   1.222 -1.1673  1.0184 -0.9276
  378THF     H7 7258   1.416   4.383   1.167  0.3727  1.9417  1.0667
  378THF     C8 7259   1.315   4.502   1.018  0.1355  0.1555 -0.2512
  378THF     C9 7260   1.167   4.489   0.962  0.0107  0.1435  0.3032
  378THF    H10 7261   1.381   4.466   0.938  0.1734  1.1601 -0.6840
  378THF    H11 7262   1.337   4.607   1.039  0.5695  0.4520 -2.0227
  378THF    H12 7263   1.119   4.582   0.992 -0.7673 -0.4348  0.9042
  378THF    H13 7264   1.168   4.466   0.856  1.3638  0.2254  0.2838
  379THF     O1 7265   1.411   2.552   1.469 -0.0636  0.2808  0.6427
  379THF     C2 7266   1.282   2.608   1.443  0.4739 -0.6391  0.0695
  379THF     C3 7267   1.383   2.440   1.551  0.1264  0.6571 -0.0811
  379THF     H4 7268   1.228   2.541   1.376 -1.0458 -0.5553  1.1411
  379THF     H5 7269   1.282   2.706   1.396 -0.7904 -1.2839 -1.3656
  379THF     H6 7270   1.352   2.359   1.485 -0.9146  0.1308  1.0129
  379THF     H7 7271   1.473   2.404   1.600 -0.6976 -1.8444 -0.2936
  379THF     C8 7272   1.271   2.485   1.646 -0.6560 -0.0357  0.5430
  379THF     C9 7273   1.218   2.612   1.584 -0.5411 -0.5331  0.3915
  379THF    H10 7274   1.326   2.502   1.739  0.1376  0.0424  0.0705
  379THF    H11 7275   1.192   2.411   1.650  0.4962 -1.4487 -1.2424
  379THF    H12 7276   1.110   2.621   1.577 -0.4023  1.4577  0.2142
  379THF    H13 7277   1.252   2.698   1.643 -0.2923  0.5077 -1.1898
  380THF     O1 7278   3.087   2.565   3.863  0.3789  0.0269  0.5474
  380THF     C2 7279   3.025   2.605   3.743 -0.5634  0.2582  0.0977
  380THF     C3 7280   3.177   2.462   3.836 -0.0592  0.3592  0.1684
  380THF     H4 7281   3.093   2.670   3.688 -1.4647  1.8155  0.7605
  380THF     H5 7282   2.938   2.670   3.742 -1.5146 -0.9907  0.0829
  380THF     H6 7283   3.270   2.514   3.816 -1.0806  2.1151 -0.1783
  380THF     H7 7284   3.195   2.389   3.916 -1.9524  1.4491  1.6706
  380THF     C8 7285   3.123   2.393   3.712 -0.4022  0.0296  0.1323
  380THF     C9 7286   3.007   2.481   3.661  0.0491 -0.7092  0.3752
  380THF    H10 7287   3.095   2.289   3.730  1.1723 -0.6866 -1.3221
  380THF    H11 7288   3.213   2.388   3.652 -0.2506 -1.6282  0.4486
  380THF    H12 7289   3.023   2.500   3.554 -0.8461 -2.7440 -0.1820
  380THF    H13 7290   2.909   2.433   3.666  0.6613 -2.0058  0.3846
  381THF     O1 7291   0.932   3.127   5.108 -0.3589  0.3505  0.3711
  381THF     C2 7292   0.842   3.020   5.075 -0.1523  0.6635  0.0893
  381THF     C3 7293   0.904   3.239   5.021 -0.0674  0.3472 -0.4156
  381THF     H4 7294   0.797   2.975   5.164  1.0420 -2.3597 -0.6981
  381THF     H5 7295   0.891   2.939   5.021 -0.0820 -1.8488  3.5933
  381THF     H6 7296   0.925   3.337   5.066  1.6122  0.3964 -1.2165
  381THF     H7 7297   0.955   3.215   4.928  3.1235 -3.2827  1.9513
  381THF     C8 7298   0.756   3.232   4.994  0.4442 -0.3967 -0.4838
  381THF     C9 7299   0.743   3.080   4.972 -0.7537 -0.1476  0.2061
  381THF    H10 7300   0.752   3.278   4.896  1.2447 -1.4842 -1.0487
  381THF    H11 7301   0.695   3.276   5.073 -0.0826 -1.5540 -0.2299
  381THF    H12 7302   0.643   3.038   4.982 -0.9830  0.0212 -1.1421
  381THF    H13 7303   0.779   3.046   4.875 -1.5871  1.4184 -0.6866
  382THF     O1 7304   4.446   0.485   2.401 -0.1524  0.1976 -0.1791
  382THF     C2 7305   4.530   0.368   2.391 -0.0229  0.5688 -0.1231
  382THF     C3 7306   4.531   0.599   2.377  0.1758  0.2655  0.0954
  382THF     H4 7307   4.465   0.284   2.365  0.9750 -0.9175  1.9177
  382THF     H5 7308   4.572   0.342   2.488 -0.1211  1.3324  0.1288
  382THF     H6 7309   4.480   0.694   2.360  2.3345  2.0211  2.6121
  382THF     H7 7310   4.596   0.621   2.461 -0.0577  0.8550  0.1288
  382THF     C8 7311   4.613   0.556   2.261  0.2034 -0.4252 -0.0791
  382THF     C9 7312   4.645   0.419   2.306 -0.1836  0.3366  0.6378
  382THF    H10 7313   4.698   0.623   2.249  0.8846 -1.5700 -2.1630
  382THF    H11 7314   4.557   0.561   2.167  0.9269 -0.3543 -0.5194
  382THF    H12 7315   4.663   0.356   2.219 -1.1854 -2.5334  2.3827
  382THF    H13 7316   4.731   0.415   2.373 -0.3375  0.4925  0.8447
  383THF     O1 7317   1.493   5.324   0.309 -0.4361  0.6757  0.1559
  383THF     C2 7318   1.465   5.195   0.269 -0.8839  0.7278 -0.3364
  383THF     C3 7319   1.631   5.344   0.269  0.0957 -0.1354 -0.4250
  383THF     H4 7320   1.452   5.174   0.163  1.1737  1.9125 -0.8715
  383THF     H5 7321   1.376   5.159   0.320  1.6146 -1.2308  3.0640
  383THF     H6 7322   1.625   5.351   0.161 -1.0070  0.5191 -0.3319
  383THF     H7 7323   1.667   5.438   0.310  0.7504  0.1669 -1.6587
  383THF     C8 7324   1.700   5.212   0.306  0.5048 -0.0654  0.2865
  383THF     C9 7325   1.584   5.118   0.319  0.2369  0.9362  0.1472
  383THF    H10 7326   1.760   5.227   0.396  1.4250  2.3526 -0.6652
  383THF    H11 7327   1.768   5.179   0.228  0.0037  0.4458 -0.3781
  383THF    H12 7328   1.595   5.015   0.284 -2.5682  0.4230  0.5823
  383THF    H13 7329   1.572   5.103   0.426  2.7327 -0.0724  0.3631
  384THF     O1 7330   1.711   4.548   5.058  0.3254  0.3998 -0.5695
  384THF     C2 7331   1.605   4.643   5.041 -0.2060  0.4202 -0.4105
  384THF     C3 7332   1.705   4.450   4.963  0.2985  0.1724  0.1473
  384THF     H4 7333   1.615   4.700   4.949 -1.1398 -0.7166 -1.2541
  384THF     H5 7334   1.588   4.693   5.137 -1.0847 -1.3590  0.4115
  384THF     H6 7335   1.739   4.487   4.867 -1.0185  0.4566 -0.2284
  384THF     H7 7336   1.774   4.369   4.991  1.7238  1.3767  0.2156
  384THF     C8 7337   1.557   4.416   4.963  0.0719  0.6399  0.4717
  384THF     C9 7338   1.491   4.541   5.016  0.4860  0.2755  0.0040
  384THF    H10 7339   1.546   4.332   5.032  0.1146  0.7421  0.6034
  384THF    H11 7340   1.515   4.391   4.865  1.9289  0.3898 -0.2970
  384THF    H12 7341   1.409   4.592   4.965  1.3810  2.0471  0.2422
  384THF    H13 7342   1.443   4.506   5.108  1.2909  1.8268  1.0586
  385THF     O1 7343   1.056   2.168   0.525 -0.5047  0.1415 -0.2167
  385THF     C2 7344   1.060   2.256   0.413  0.4188  0.1610 -0.1051
  385THF     C3 7345   0.928   2.198   0.588  0.3494  0.5713  0.2814
  385THF     H4 7346   1.136   2.230   0.340 -0.3181 -0.1467 -0.7747
  385THF     H5 7347   1.083   2.352   0.458 -0.9882 -0.9832  3.4896
  385THF     H6 7348   0.878   2.108   0.624 -2.4102  1.6790 -0.5605
  385THF     H7 7349   0.946   2.263   0.675 -2.1032  0.1157  1.2028
  385THF     C8 7350   0.838   2.255   0.483  0.5725  0.2987  0.4152
  385THF     C9 7351   0.916   2.261   0.350  0.5945 -0.3910  0.5522
  385THF    H10 7352   0.788   2.350   0.502  1.0115  0.9883 -1.6136
  385THF    H11 7353   0.751   2.189   0.484 -0.7993  1.9994 -1.0189
  385THF    H12 7354   0.891   2.174   0.289 -0.2951 -0.1356  0.5437
  385THF    H13 7355   0.893   2.354   0.299  0.7799  0.1006  1.3404
  386THF     O1 7356   5.164   0.874   2.801 -0.1385 -0.4139 -0.3553
  386THF     C2 7357   5.232   0.997   2.818  0.0730 -0.3132 -0.0562
  386THF     C3 7358   5.044   0.878   2.881 -0.1234 -0.3451  0.5861
  386THF     H4 7359   5.299   1.025   2.737 -1.6598  2.9430 -0.5098
  386THF     H5 7360   5.294   0.999   2.907 -0.5900  1.3264  0.4016
  386THF     H6 7361   4.956   0.830   2.838 -0.7594  1.7823 -0.6360
  386THF     H7 7362   5.047   0.845   2.984 -0.9687 -0.9419  0.4266
  386THF     C8 7363   5.016   1.027   2.912 -0.2189 -0.0733  0.2288
  386THF     C9 7364   5.118   1.099   2.822 -0.0339 -0.4468 -0.3601
  386THF    H10 7365   5.037   1.056   3.015  2.1743 -0.2304 -0.1430
  386THF    H11 7366   4.915   1.054   2.881 -1.6593 -2.1891  2.6687
  386THF    H12 7367   5.084   1.113   2.719 -1.3896 -2.2742 -0.1957
  386THF    H13 7368   5.149   1.197   2.858 -1.0884  0.0881 -0.8684
  387THF     O1 7369   0.275   0.003   2.500 -0.1885 -0.1006 -0.5561
  387THF     C2 7370   0.344  -0.017   2.616  0.7042 -0.5143 -0.4814
  387THF     C3 7371   0.360  -0.027   2.393 -0.7971 -0.2066  0.2689
  387THF     H4 7372   0.342  -0.123   2.641 -0.8099 -0.4847 -0.3964
  387THF     H5 7373   0.301   0.040   2.698  0.2001  0.0495 -1.1299
  387THF     H6 7374   0.343  -0.122   2.344  1.8108 -0.1553 -0.8658
  387THF     H7 7375   0.354   0.049   2.315  0.0427 -0.0973  0.2988
  387THF     C8 7376   0.502  -0.025   2.448  0.5599  0.4216  0.2095
  387THF     C9 7377   0.488   0.040   2.578  0.3948 -0.2238  0.4658
  387THF    H10 7378   0.569   0.025   2.378 -0.7590  0.0173 -1.4088
  387THF    H11 7379   0.540  -0.126   2.462 -0.1225  0.0917 -0.2550
  387THF    H12 7380   0.560   0.004   2.651 -0.1962  2.1246  2.3762
  387THF    H13 7381   0.496   0.149   2.569 -2.4910  0.0358 -0.2495
  388THF     O1 7382   4.701   2.665   1.591 -0.1709 -0.2429  0.2040
  388THF     C2 7383   4.820   2.707   1.537  0.2044 -0.2463  0.2710
  388THF     C3 7384   4.592   2.735   1.524 -0.1116 -0.4896 -0.0230
  388THF     H4 7385   4.896   2.629   1.532 -0.2771 -0.6558 -1.1608
  388THF     H5 7386   4.854   2.792   1.595 -0.6475 -1.0402  2.0235
  388THF     H6 7387   4.492   2.693   1.526 -0.7743  1.0591  1.2743
  388THF     H7 7388   4.584   2.838   1.559 -0.8154 -0.4766 -0.2119
  388THF     C8 7389   4.638   2.737   1.384  0.0072 -0.1049  0.0942
  388THF     C9 7390   4.788   2.771   1.405 -0.2098 -0.3906 -0.6286
  388THF    H10 7391   4.593   2.818   1.326 -1.7509 -0.7145  0.5369
  388THF    H11 7392   4.626   2.638   1.341  2.7105 -0.1637 -0.7310
  388THF    H12 7393   4.848   2.737   1.320 -0.7963  0.8792 -1.5929
  388THF    H13 7394   4.796   2.879   1.399  0.3116 -0.4544 -1.2349
  389THF     O1 7395   3.715   2.029   1.717  0.2935 -0.2144 -0.5713
  389THF     C2 7396   3.798   2.094   1.812  0.4641  0.6064 -0.3598
  389THF     C3 7397   3.709   1.887   1.745  0.0717  0.7771 -0.4110
  389THF     H4 7398   3.753   2.097   1.911  0.0058  0.9431 -0.5720
  389THF     H5 7399   3.833   2.190   1.774  2.0367 -1.1954 -3.9040
  389THF     H6 7400   3.649   1.864   1.833 -0.1690 -1.0619 -0.9967
  389THF     H7 7401   3.674   1.837   1.654  3.5031 -3.3310  0.1785
  389THF     C8 7402   3.852   1.853   1.770  0.0610 -0.6128  0.1660
  389THF     C9 7403   3.912   1.989   1.802  0.2244 -1.2676  0.1816
  389THF    H10 7404   3.895   1.810   1.679 -0.2470  2.4014 -1.5302
  389THF    H11 7405   3.871   1.785   1.853  1.8087 -0.3943 -0.0245
  389THF    H12 7406   3.976   1.983   1.889  2.1277  0.0865 -1.0401
  389THF    H13 7407   3.969   2.021   1.715  0.5480 -0.6048  0.6364
  390THF     O1 7408   0.922   1.330   2.266  0.1067 -0.5001 -0.1576
  390THF     C2 7409   0.807   1.305   2.344  0.4511 -0.7271  0.3691
  390THF     C3 7410   0.986   1.447   2.314 -0.3134  0.5729  0.4258
  390THF     H4 7411   0.765   1.205   2.335 -1.7644  0.2109 -0.4245
  390THF     H5 7412   0.729   1.372   2.309  1.3554  0.3211  0.2744
  390THF     H6 7413   1.092   1.422   2.303 -1.1748 -3.0268 -0.9438
  390THF     H7 7414   0.960   1.527   2.245 -0.5914 -0.6109 -0.8820
  390THF     C8 7415   0.961   1.459   2.458  0.2510 -0.2957 -0.8947
  390THF     C9 7416   0.861   1.345   2.483  0.2034  0.5375 -0.6698
  390THF    H10 7417   0.927   1.557   2.493  0.3077 -0.0256 -1.5890
  390THF    H11 7418   1.053   1.432   2.510 -0.1681 -0.9109 -0.4525
  390THF    H12 7419   0.911   1.254   2.517 -0.6372  0.5012  0.5417
  390THF    H13 7420   0.781   1.373   2.552  1.5775 -0.5843  1.5139
  391THF     O1 7421   3.060   0.873   3.782 -0.1856 -0.4991 -0.0442
  391THF     C2 7422   3.006   0.803   3.668 -0.6890 -0.1649 -0.9196
  391THF     C3 7423   3.017   0.796   3.896 -0.1751 -0.9093  0.0708
  391THF     H4 7424   3.091   0.806   3.599 -0.5629  0.8719 -0.7425
  391THF     H5 7425   2.918   0.859   3.638  0.2712  1.0385 -1.6353
  391THF     H6 7426   3.078   0.816   3.984 -1.8786 -0.1956  1.1482
  391THF     H7 7427   2.915   0.822   3.924  0.0751 -1.6566  1.7569
  391THF     C8 7428   3.018   0.653   3.868  0.3302 -0.1172  0.1783
  391THF     C9 7429   2.964   0.662   3.721 -0.5700  0.8337  0.0839
  391THF    H10 7430   2.963   0.594   3.941  2.0383  0.0085  1.6419
  391THF    H11 7431   3.119   0.613   3.866  0.5702  0.3158  1.9730
  391THF    H12 7432   3.013   0.583   3.663 -2.0544  0.6701 -1.0153
  391THF    H13 7433   2.859   0.632   3.714 -0.3869  0.4711 -1.5117
  392THF     O1 7434   0.536   2.882   5.134  0.1142  0.2651 -0.2869
  392THF     C2 7435   0.427   2.787   5.128 -0.2301 -0.2460  0.5054
  392THF     C3 7436   0.501   2.972   5.237  0.2686  0.2195 -0.4773
  392THF     H4 7437   0.468   2.710   5.193  2.0359  2.5502  2.6683
  392THF     H5 7438   0.411   2.762   5.023 -0.1811  0.8935  0.2174
  392THF     H6 7439   0.575   2.994   5.315  0.4543  2.0424 -1.1094
  392THF     H7 7440   0.492   3.070   5.189 -0.0987 -0.2661 -1.4171
  392THF     C8 7441   0.373   2.941   5.301 -0.4991  0.3500 -0.9031
  392THF     C9 7442   0.303   2.847   5.195  0.2578 -0.2670 -0.5918
  392THF    H10 7443   0.314   3.029   5.327 -0.3754  0.1920 -0.0805
  392THF    H11 7444   0.396   2.901   5.399  0.3338  0.8944 -0.8681
  392THF    H12 7445   0.226   2.780   5.234 -1.4185  1.1938 -1.2554
  392THF    H13 7446   0.246   2.905   5.123  0.3980  0.7902  0.1242
  393THF     O1 7447   0.179   4.051   1.084  0.7003 -0.2496 -0.2471
  393THF     C2 7448   0.042   4.032   1.028  0.1287 -1.0485  0.1977
  393THF     C3 7449   0.228   4.185   1.093  0.2325  0.0154  0.4502
  393THF     H4 7450  -0.035   4.020   1.105 -1.8528  2.5177 -0.9831
  393THF     H5 7451   0.039   3.961   0.945 -1.9586 -1.0681  0.2151
  393THF     H6 7452   0.247   4.211   1.198 -0.4694  1.1810  0.3120
  393THF     H7 7453   0.307   4.208   1.021  0.4958  0.2673  0.8144
  393THF     C8 7454   0.105   4.263   1.044  0.0741 -0.0693 -0.4597
  393THF     C9 7455   0.021   4.168   0.959  0.6934  0.0901 -0.1321
  393THF    H10 7456   0.130   4.360   0.999  0.7068 -0.1677 -0.3303
  393THF    H11 7457   0.043   4.281   1.132 -0.7355 -0.3303 -0.9642
  393THF    H12 7458  -0.086   4.188   0.959  0.3602 -1.5632  0.1886
  393THF    H13 7459   0.062   4.161   0.858  0.9265 -0.0792 -0.0251
  394THF     O1 7460   3.178   5.437   4.582  0.0819 -0.3497  0.3977
  394THF     C2 7461   3.248   5.446   4.701 -0.2359  0.0732  0.1674
  394THF     C3 7462   3.227   5.535   4.495  0.1058  0.2894 -0.3635
  394THF     H4 7463   3.239   5.356   4.763  1.3582 -0.3075 -0.1072
  394THF     H5 7464   3.218   5.536   4.755 -2.3586  0.1301 -1.0088
  394THF     H6 7465   3.216   5.509   4.390 -0.6997 -0.4068 -0.1085
  394THF     H7 7466   3.181   5.632   4.513  0.9059  0.3924  1.3473
  394THF     C8 7467   3.377   5.544   4.524  0.2328  0.9112 -0.3493
  394THF     C9 7468   3.387   5.449   4.645 -0.4319 -0.1739 -0.9748
  394THF    H10 7469   3.410   5.642   4.560  1.2614  0.3520  0.2608
  394THF    H11 7470   3.442   5.514   4.441  1.3216  0.4460  0.6503
  394THF    H12 7471   3.419   5.346   4.627  0.3463 -0.3363  1.0507
  394THF    H13 7472   3.468   5.482   4.710  0.8296 -0.9141 -2.1012
  395THF     O1 7473   5.025   0.318   1.886  0.2981  0.8108 -0.0057
  395THF     C2 7474   5.008   0.382   2.010  0.1124 -0.1508 -0.3708
  395THF     C3 7475   4.898   0.266   1.845 -0.7312  0.2300  0.0532
  395THF     H4 7476   4.951   0.474   1.999  0.0011  0.1990  2.3857
  395THF     H5 7477   5.100   0.386   2.068 -0.7631 -1.6028  1.1832
  395THF     H6 7478   4.849   0.344   1.787 -1.6842 -1.4630 -1.5413
  395THF     H7 7479   4.916   0.174   1.788  0.2021 -0.4887  1.4742
  395THF     C8 7480   4.824   0.238   1.973 -0.0569  0.2650 -0.1811
  395THF     C9 7481   4.922   0.287   2.086 -0.4305  0.3732 -0.2558
  395THF    H10 7482   4.803   0.132   1.983 -2.7720  0.7899  0.4844
  395THF    H11 7483   4.728   0.289   1.981 -0.7458 -0.9259 -0.6405
  395THF    H12 7484   4.872   0.321   2.177  2.1672  2.0217  0.6713
  395THF    H13 7485   4.983   0.204   2.122 -0.9239  0.1628  0.1203
  396THF     O1 7486   0.919   1.633   1.107 -0.1738 -0.1171  0.0989
  396THF     C2 7487   1.001   1.541   1.178  0.4492  0.6749 -0.6343
  396THF     C3 7488   0.825   1.698   1.195  1.0318  0.2860 -0.2334
  396THF     H4 7489   1.100   1.524   1.137  0.3394 -1.1350 -0.2275
  396THF     H5 7490   0.960   1.440   1.175 -0.3108  0.9860 -1.6876
  396THF     H6 7491   0.813   1.799   1.155  0.3401  0.2437 -0.1439
  396THF     H7 7492   0.729   1.648   1.180 -0.2955  2.7578 -0.4564
  396THF     C8 7493   0.877   1.676   1.334  0.3829 -0.3958 -0.6877
  396THF     C9 7494   1.003   1.591   1.325  0.8199  0.0991  0.1661
  396THF    H10 7495   0.808   1.621   1.398  0.1609  0.0550 -0.5353
  396THF    H11 7496   0.893   1.762   1.399  1.9850  0.6251 -2.3333
  396THF    H12 7497   1.087   1.656   1.351 -0.1190  0.8585  1.3971
  396THF    H13 7498   0.996   1.512   1.400 -2.3381 -1.2206 -1.3506
  397THF     O1 7499   4.715   2.888   4.242  0.0795 -0.0507  0.1312
  397THF     C2 7500   4.644   2.780   4.310  0.4161 -0.2388 -0.7838
  397THF     C3 7501   4.849   2.853   4.233  0.5415 -0.1779 -0.1977
  397THF     H4 7502   4.582   2.725   4.239 -1.0379  0.6398 -0.2464
  397THF     H5 7503   4.567   2.808   4.382 -0.8636 -2.7127 -1.1016
  397THF     H6 7504   4.900   2.898   4.148  1.8244 -2.6238 -0.7927
  397THF     H7 7505   4.891   2.914   4.313 -1.6071 -0.2024  1.0370
  397THF     C8 7506   4.873   2.711   4.275  0.3395  0.4699  0.3426
  397THF     C9 7507   4.760   2.696   4.373  0.9343 -0.0365 -0.2314
  397THF    H10 7508   4.970   2.695   4.321  0.1901  1.3086  0.9900
  397THF    H11 7509   4.858   2.646   4.189  0.0469 -0.0969  0.8151
  397THF    H12 7510   4.741   2.589   4.384 -0.0706  0.1941  0.4192
  397THF    H13 7511   4.776   2.726   4.476  1.5440 -0.6340 -0.1452
  398THF     O1 7512   1.353   0.498   5.134  0.3989 -0.0532 -0.0849
  398THF     C2 7513   1.304   0.384   5.196  0.4036 -0.4564 -0.9004
  398THF     C3 7514   1.237   0.575   5.091  0.3899 -0.2256  0.1347
  398THF     H4 7515   1.373   0.350   5.273 -0.3514 -1.4638 -0.6502
  398THF     H5 7516   1.301   0.296   5.132  2.2755 -0.9324 -0.3963
  398THF     H6 7517   1.256   0.680   5.071 -2.2004  0.5287  1.3264
  398THF     H7 7518   1.193   0.532   5.001 -2.2304  1.8786  0.2960
  398THF     C8 7519   1.150   0.561   5.218  0.0219 -0.3110 -0.4018
  398THF     C9 7520   1.163   0.414   5.247 -0.3203  0.8385  0.0946
  398THF    H10 7521   1.048   0.596   5.200 -0.2768 -1.1209 -0.3329
  398THF    H11 7522   1.200   0.627   5.289 -0.6716  0.9697 -1.0663
  398THF    H12 7523   1.165   0.404   5.355 -0.6327  3.1033  0.3526
  398THF    H13 7524   1.089   0.350   5.199 -0.2462  0.8149  0.0110
  399THF     O1 7525   3.682   5.356   4.287  0.1954 -0.3533 -0.3429
  399THF     C2 7526   3.634   5.236   4.352 -0.1114 -0.8253  0.5838
  399THF     C3 7527   3.818   5.368   4.301  0.7387  0.1473 -0.1998
  399THF     H4 7528   3.543   5.193   4.311  0.6433 -1.7433 -0.1911
  399THF     H5 7529   3.613   5.257   4.457  1.1290 -1.2049  0.9218
  399THF     H6 7530   3.856   5.423   4.215  1.4917  0.7126  0.4827
  399THF     H7 7531   3.839   5.418   4.396 -0.6510  0.8566 -0.2447
  399THF     C8 7532   3.865   5.221   4.291 -0.2031  0.7113 -0.3464
  399THF     C9 7533   3.752   5.142   4.338  0.7527  1.0576 -0.3801
  399THF    H10 7534   3.956   5.213   4.350 -0.4228  0.7622  0.0054
  399THF    H11 7535   3.883   5.182   4.191 -0.3607 -0.2393 -0.0157
  399THF    H12 7536   3.731   5.071   4.258  0.1121  0.1628  0.5691
  399THF    H13 7537   3.763   5.092   4.434  0.2995 -0.6346 -1.1734
  400THF     O1 7538   5.317   2.528   3.925 -0.4340 -0.4548  0.3611
  400THF     C2 7539   5.401   2.483   4.023 -0.6668 -0.1901  0.5112
  400THF     C3 7540   5.197   2.574   3.980  0.1634 -0.0941 -0.6843
  400THF     H4 7541   5.456   2.561   4.075  1.7240 -0.5871 -1.2528
  400THF     H5 7542   5.475   2.417   3.977 -0.5911  0.1911  0.0786
  400THF     H6 7543   5.191   2.682   3.993  4.2142  0.1476  0.7019
  400THF     H7 7544   5.126   2.549   3.902  1.7314 -0.5941 -2.0116
  400THF     C8 7545   5.177   2.473   4.093 -0.0569  0.1674  0.2131
  400THF     C9 7546   5.315   2.408   4.124  0.1152  0.6430  0.3427
  400THF    H10 7547   5.104   2.403   4.053  0.5201 -0.3354  0.0320
  400THF    H11 7548   5.130   2.535   4.170  0.4550  3.1852 -1.7055
  400THF    H12 7549   5.344   2.429   4.227  0.5767  1.6696  0.0253
  400THF    H13 7550   5.316   2.303   4.098 -0.2021  0.6383  0.3452
  401THF     O1 7551   1.203   4.320   0.153 -0.2026  0.1149  0.0809
  401THF     C2 7552   1.074   4.265   0.153  0.2684 -0.0698 -0.1764
  401THF     C3 7553   1.187   4.460   0.143 -0.2804 -0.5650 -0.0786
  401THF     H4 7554   1.075   4.179   0.220 -2.2078  1.3184  1.7951
  401THF     H5 7555   1.028   4.251   0.054  0.3475  0.0779 -0.2345
  401THF     H6 7556   1.275   4.510   0.182 -1.5037  2.4894 -0.9342
  401THF     H7 7557   1.173   4.486   0.038  1.8493 -2.5347 -0.9253
  401THF     C8 7558   1.069   4.490   0.232 -0.2183  0.3171  0.1752
  401THF     C9 7559   0.980   4.368   0.227  0.4662  1.0162 -0.0018
  401THF    H10 7560   1.017   4.577   0.192 -0.1767  0.0362 -0.4995
  401THF    H11 7561   1.103   4.510   0.334 -0.5913 -1.5334  0.6917
  401THF    H12 7562   0.947   4.333   0.325 -2.3389  1.8028 -0.5859
  401THF    H13 7563   0.892   4.399   0.171 -0.5465  1.2678  1.6644
  402THF     O1 7564   1.082   4.944   4.045 -0.3845 -0.0767  0.2960
  402THF     C2 7565   1.127   5.010   4.161 -0.0828 -0.2868 -0.7539
  402THF     C3 7566   1.172   4.832   4.009  0.8485 -1.1719 -0.4020
  402THF     H4 7567   1.060   5.072   4.221 -1.3894 -1.7113 -0.6834
  402THF     H5 7568   1.212   5.070   4.128 -2.1010  0.5661 -5.2024
  402THF     H6 7569   1.115   4.746   3.974  0.6945 -0.7419 -1.2529
  402THF     H7 7570   1.250   4.862   3.938  0.8564  1.3840  0.5636
  402THF     C8 7571   1.234   4.789   4.146  0.1164 -0.4160  0.4888
  402THF     C9 7572   1.165   4.885   4.242 -0.5055  0.1811 -0.3185
  402THF    H10 7573   1.342   4.799   4.158 -0.1582  0.4956  2.8556
  402THF    H11 7574   1.204   4.687   4.167 -0.1124 -0.8438 -1.6882
  402THF    H12 7575   1.076   4.830   4.272 -0.3004 -0.2821 -0.5404
  402THF    H13 7576   1.228   4.901   4.330 -1.2410  0.8140  0.1006
  403THF     O1 7577   0.861   0.374   4.542  0.2491  0.0827  0.1589
  403THF     C2 7578   0.959   0.483   4.568  0.0865  0.3658  0.4723
  403THF     C3 7579   0.852   0.360   4.399 -0.1894  0.0988 -0.1830
  403THF     H4 7580   1.002   0.471   4.667  0.1940 -3.3318  0.0893
  403THF     H5 7581   0.911   0.581   4.558  0.4842  0.5510  0.3780
  403THF     H6 7582   0.807   0.264   4.372 -0.4218  0.4822 -1.2166
  403THF     H7 7583   0.795   0.441   4.355  0.7910  0.0849 -1.5575
  403THF     C8 7584   0.998   0.373   4.368  0.4020 -0.3150  0.8116
  403THF     C9 7585   1.059   0.471   4.461  0.7485  0.5832 -0.8826
  403THF    H10 7586   1.000   0.401   4.263 -1.7172 -0.0260  0.8124
  403THF    H11 7587   1.044   0.275   4.378  0.5226 -0.3919 -0.4286
  403THF    H12 7588   1.148   0.417   4.493 -1.9430 -3.4204  0.5767
  403THF    H13 7589   1.074   0.570   4.417  2.1690  1.5289  1.5459
  404THF     O1 7590   0.778   5.433   0.667  0.1071 -0.1552  0.5668
  404THF     C2 7591   0.880   5.521   0.699 -0.9086 -0.3488  0.0479
  404THF     C3 7592   0.773   5.427   0.526 -0.0577  0.0597  0.8165
  404THF     H4 7593   0.908   5.523   0.805  0.0031 -1.6532 -0.1410
  404THF     H5 7594   0.846   5.622   0.674  0.5902  0.6790  1.8219
  404THF     H6 7595   0.749   5.324   0.500  2.0620 -0.6934  1.5664
  404THF     H7 7596   0.691   5.489   0.490  0.2107  1.6022  2.7139
  404THF     C8 7597   0.912   5.470   0.475  0.5253 -0.0812  0.9087
  404THF     C9 7598   0.992   5.491   0.606  0.5279  1.0014  0.1681
  404THF    H10 7599   0.902   5.561   0.415  1.4912 -1.4266 -1.4579
  404THF    H11 7600   0.959   5.403   0.403  1.2512  1.5283 -0.1817
  404THF    H12 7601   1.039   5.400   0.642 -1.6576  0.1345  0.9370
  404THF    H13 7602   1.059   5.576   0.589  0.6220  1.2907  1.8058
  405THF     O1 7603   1.866   5.399   2.384 -0.6068 -0.0105 -0.4355
  405THF     C2 7604   1.935   5.300   2.313 -0.3048  0.5481  0.3889
  405THF     C3 7605   1.963   5.498   2.424  0.3332 -0.1119  0.0576
  405THF     H4 7606   1.952   5.338   2.213  0.0332 -1.6566 -0.4522
  405THF     H5 7607   1.883   5.207   2.292  0.1864  0.4394 -0.3793
  405THF     H6 7608   1.956   5.565   2.338  0.7826  1.8996  1.5360
  405THF     H7 7609   1.933   5.553   2.513 -2.9497 -1.1801 -0.2397
  405THF     C8 7610   2.096   5.425   2.435 -0.1470 -0.0579  0.2624
  405THF     C9 7611   2.064   5.280   2.391 -0.3155  0.1119  0.4419
  405THF    H10 7612   2.130   5.425   2.539  0.8785 -0.7100 -0.0634
  405THF    H11 7613   2.176   5.477   2.381  1.8639 -0.1962  2.8627
  405THF    H12 7614   2.139   5.240   2.323 -0.9987  0.5295 -0.5911
  405THF    H13 7615   2.054   5.222   2.482  0.3174  0.8292  0.9734
  406THF     O1 7616   4.129   0.782   2.671 -0.1423 -0.0817  0.6163
  406THF     C2 7617   4.010   0.817   2.736  0.7283  0.0666 -0.2827
  406THF     C3 7618   4.226   0.861   2.722  0.4307  0.7077  0.0471
  406THF     H4 7619   4.008   0.760   2.829  1.0347 -0.7097 -0.7454
  406THF     H5 7620   3.931   0.781   2.670  0.4654  0.0178  0.0497
  406THF     H6 7621   4.281   0.805   2.798  0.3937 -0.6750 -0.9179
  406THF     H7 7622   4.307   0.874   2.651  0.7737 -3.2075 -0.4966
  406THF     C8 7623   4.163   0.988   2.782 -0.7408 -0.0974  0.4693
  406THF     C9 7624   4.017   0.965   2.752 -0.0968 -0.4754 -0.4799
  406THF    H10 7625   4.204   1.079   2.739  1.1115 -0.0735  2.0995
  406THF    H11 7626   4.185   1.002   2.888 -0.9607  0.7955  0.4039
  406THF    H12 7627   3.942   1.001   2.822 -0.2902 -1.2325 -0.2864
  406THF    H13 7628   3.989   1.018   2.661  1.1746  3.1518  1.0583
  407THF     O1 7629   2.958   2.487   0.815  0.5586 -0.0251  0.0951
  407THF     C2 7630   2.902   2.444   0.940 -0.0401 -0.1610 -0.7435
  407THF     C3 7631   2.851   2.512   0.726  0.2387 -0.2000  0.0988
  407THF     H4 7632   2.930   2.517   1.017 -0.4024  0.7276 -1.4405
  407THF     H5 7633   2.940   2.353   0.987 -1.0621 -0.1476  0.1604
  407THF     H6 7634   2.816   2.615   0.721  0.0194 -0.3348 -2.3577
  407THF     H7 7635   2.882   2.488   0.625 -0.6509 -0.8405 -0.0274
  407THF     C8 7636   2.739   2.424   0.765 -0.0382 -0.4651 -0.7559
  407THF     C9 7637   2.745   2.435   0.919 -0.0784 -0.6783 -0.0865
  407THF    H10 7638   2.752   2.319   0.740 -0.4552 -0.6600 -0.1779
  407THF    H11 7639   2.643   2.460   0.727  0.0057  0.7024  0.1699
  407THF    H12 7640   2.701   2.532   0.945  1.3065  0.1808 -0.8265
  407THF    H13 7641   2.690   2.353   0.964 -1.1896 -0.4388 -0.9510
  408THF     O1 7642   4.506   2.558   3.778  0.5481  0.0039 -0.4613
  408THF     C2 7643   4.510   2.588   3.917 -0.3088  0.4682 -0.0305
  408THF     C3 7644   4.513   2.681   3.717 -0.1595  0.3102  0.1430
  408THF     H4 7645   4.603   2.625   3.962 -0.4114  0.4364  0.2125
  408THF     H5 7646   4.483   2.500   3.975  2.1391 -0.2226  0.1804
  408THF     H6 7647   4.615   2.720   3.722  1.2480 -2.7396 -1.8517
  408THF     H7 7648   4.472   2.670   3.616 -0.9088 -0.3561  0.5186
  408THF     C8 7649   4.415   2.764   3.800 -0.1242 -0.0766  0.1676
  408THF     C9 7650   4.410   2.694   3.931 -0.3901 -0.2988  0.1646
  408THF    H10 7651   4.316   2.777   3.755 -1.2206  0.8854  2.7104
  408THF    H11 7652   4.441   2.869   3.805 -0.7564  0.0914  0.0181
  408THF    H12 7653   4.433   2.769   4.007 -2.6102  2.6620 -1.8831
  408THF    H13 7654   4.310   2.658   3.954 -0.9112  0.8744 -0.2179
  409THF     O1 7655   0.538   4.548   1.193 -0.4306 -0.2153 -0.2261
  409THF     C2 7656   0.615   4.528   1.313 -0.1915 -0.2148 -0.5614
  409THF     C3 7657   0.480   4.422   1.159 -0.3382 -0.3340  0.5462
  409THF     H4 7658   0.542   4.533   1.395 -1.7895 -1.2826 -1.8415
  409THF     H5 7659   0.683   4.612   1.328  0.0757 -0.7570  1.6436
  409THF     H6 7660   0.392   4.420   1.223  1.0374 -1.3387  2.5016
  409THF     H7 7661   0.453   4.433   1.054  0.5247  3.2612  0.5760
  409THF     C8 7662   0.592   4.319   1.199  0.4926  0.0303  0.1051
  409THF     C9 7663   0.678   4.394   1.301 -0.4353 -0.8881  0.2055
  409THF    H10 7664   0.656   4.288   1.116 -0.3532  1.3203 -1.0772
  409THF    H11 7665   0.556   4.224   1.240  1.7985 -1.3044 -1.6819
  409THF    H12 7666   0.693   4.338   1.393  1.1177  3.1960  2.7095
  409THF    H13 7667   0.774   4.410   1.251 -0.8366  2.1526  0.2334
  410THF     O1 7668   5.263   2.777   4.224 -0.7120  0.8439 -0.3714
  410THF     C2 7669   5.370   2.850   4.166  0.0459  0.0173 -0.1714
  410THF     C3 7670   5.210   2.837   4.334 -0.4023 -0.9023 -0.6936
  410THF     H4 7671   5.326   2.898   4.079 -1.0010 -1.0484 -0.2595
  410THF     H5 7672   5.454   2.788   4.134  0.0175 -0.9218  1.4208
  410THF     H6 7673   5.136   2.901   4.287  0.2483  0.4346  0.0628
  410THF     H7 7674   5.153   2.768   4.397  0.3694 -0.2276  0.8006
  410THF     C8 7675   5.329   2.896   4.404 -0.0355 -0.3267  0.0652
  410THF     C9 7676   5.410   2.940   4.283  0.1175  0.2237 -0.4391
  410THF    H10 7677   5.384   2.822   4.462  1.0178 -1.5351 -2.3320
  410THF    H11 7678   5.281   2.975   4.463 -1.4204  0.2955 -1.7835
  410THF    H12 7679   5.394   3.044   4.254 -0.5498  0.3861  0.4485
  410THF    H13 7680   5.516   2.918   4.294  0.1670 -2.3382 -4.0746
  411THF     O1 7681   3.468   4.000   4.431 -0.0139  0.4887  0.0375
  411THF     C2 7682   3.417   4.131   4.430  0.2410 -0.2469 -0.4873
  411THF     C3 7683   3.441   3.952   4.305  0.8816 -0.4890 -0.2449
  411THF     H4 7684   3.484   4.191   4.370  2.4362  0.8220  2.7378
  411THF     H5 7685   3.395   4.174   4.528 -1.1135 -0.6165 -0.6071
  411THF     H6 7686   3.493   4.010   4.229 -0.8335  0.0486 -1.0760
  411THF     H7 7687   3.452   3.846   4.285  2.2738 -0.7749  1.8224
  411THF     C8 7688   3.293   3.976   4.292 -0.0129  0.6031 -0.0521
  411THF     C9 7689   3.282   4.106   4.372  0.2915  0.2101 -0.3238
  411THF    H10 7690   3.240   3.898   4.347 -3.4842  2.7597 -0.0895
  411THF    H11 7691   3.266   3.973   4.187 -1.2586 -1.4567  0.2652
  411THF    H12 7692   3.253   4.198   4.321  1.0152 -0.4709 -2.0535
  411THF    H13 7693   3.215   4.109   4.458  1.7384  3.4242  0.8505
  412THF     O1 7694   0.411   1.301   2.952 -0.2166  0.4326  0.4019
  412THF     C2 7695   0.286   1.365   2.982 -0.3217 -1.4441  0.0486
  412THF     C3 7696   0.373   1.170   2.924 -0.5830 -0.2389  0.0955
  412THF     H4 7697   0.270   1.451   2.917  0.5012 -0.9660  0.4748
  412THF     H5 7698   0.287   1.410   3.081 -1.6391 -1.2609  0.0052
  412THF     H6 7699   0.369   1.158   2.816  1.1685 -2.8738  0.2436
  412THF     H7 7700   0.448   1.099   2.959  2.1901  2.4937  0.1905
  412THF     C8 7701   0.243   1.134   2.992  0.0409 -0.1820 -0.4465
  412THF     C9 7702   0.167   1.267   2.969  0.3399  0.1690 -0.9841
  412THF    H10 7703   0.259   1.113   3.098  1.1928  0.7368 -0.4203
  412THF    H11 7704   0.192   1.045   2.955  0.3442 -0.5242 -0.0560
  412THF    H12 7705   0.126   1.264   2.868  2.1359  1.1734 -1.7976
  412THF    H13 7706   0.093   1.282   3.047  2.5306 -2.5805  1.9174
  413THF     O1 7707   4.849   5.391   2.476 -0.0200 -0.1688 -0.0453
  413THF     C2 7708   4.916   5.432   2.355 -0.2976 -0.6058  0.1852
  413THF     C3 7709   4.946   5.384   2.575 -0.3947  0.4623 -0.2831
  413THF     H4 7710   4.858   5.478   2.275 -1.5265 -0.9622  0.8494
  413THF     H5 7711   4.964   5.346   2.308 -0.0220 -0.0331 -0.6176
  413THF     H6 7712   4.912   5.442   2.661 -1.4927 -0.8354  0.1914
  413THF     H7 7713   4.951   5.277   2.595 -1.8549  0.1159 -1.5406
  413THF     C8 7714   5.079   5.440   2.518 -0.3254 -0.7933  0.5571
  413THF     C9 7715   5.037   5.514   2.402  0.0374 -0.8437 -0.7729
  413THF    H10 7716   5.147   5.362   2.482 -1.3987 -2.0378  1.1189
  413THF    H11 7717   5.123   5.505   2.594  0.3454  0.4299 -0.8402
  413THF    H12 7718   4.998   5.611   2.433  0.5718 -1.5020  2.2366
  413THF    H13 7719   5.111   5.527   2.322 -0.0957  0.8688 -0.6596
  414THF     O1 7720   0.347   2.814   1.036 -0.1384 -0.1711  0.0129
  414THF     C2 7721   0.287   2.731   1.133 -0.4946  1.4108 -0.0999
  414THF     C3 7722   0.483   2.821   1.068  0.0931  0.1531  0.2010
  414THF     H4 7723   0.191   2.686   1.108 -1.1968  0.9405  2.9434
  414THF     H5 7724   0.257   2.775   1.229 -0.3624  0.9097  0.1752
  414THF     H6 7725   0.548   2.851   0.985  2.6440 -3.5386  0.6433
  414THF     H7 7726   0.500   2.905   1.135 -1.6300 -0.3968  1.4007
  414THF     C8 7727   0.524   2.688   1.134  0.3803 -0.0944  0.5374
  414THF     C9 7728   0.391   2.623   1.163  0.1330  0.1054  0.3557
  414THF    H10 7729   0.578   2.716   1.225  2.3723 -3.4947  0.5645
  414THF    H11 7730   0.592   2.629   1.073 -1.4407 -0.1038 -1.5860
  414THF    H12 7731   0.377   2.547   1.087 -1.1463  1.3964 -0.7629
  414THF    H13 7732   0.392   2.579   1.263  3.7458 -0.5091  0.1863
  415THF     O1 7733   3.450   2.148   0.855 -0.0088  0.0929 -0.5830
  415THF     C2 7734   3.430   2.290   0.872 -0.5854 -0.3609 -0.1483
  415THF     C3 7735   3.576   2.128   0.919 -0.0295  0.0662 -0.2571
  415THF     H4 7736   3.367   2.289   0.960  0.8281 -3.0249  0.9574
  415THF     H5 7737   3.368   2.330   0.791 -0.4582 -0.5745 -0.3534
  415THF     H6 7738   3.574   2.118   1.027 -1.4683  1.1564 -0.1650
  415THF     H7 7739   3.624   2.044   0.868  0.0490 -0.0643  0.0349
  415THF     C8 7740   3.665   2.246   0.888 -0.0686  0.1593  0.1925
  415THF     C9 7741   3.565   2.362   0.875  0.6022 -0.3155  0.1198
  415THF    H10 7742   3.724   2.238   0.797 -0.2272  0.0185  0.1029
  415THF    H11 7743   3.742   2.253   0.965  1.8775 -3.2806 -1.2147
  415THF    H12 7744   3.566   2.428   0.961  0.2441 -0.5852  0.3322
  415THF    H13 7745   3.592   2.426   0.791  0.8496  0.4770  0.7947
  416THF     O1 7746   2.874   4.334   2.793  0.2852  0.6773  0.1544
  416THF     C2 7747   2.864   4.471   2.772 -0.0570 -0.1537  0.5588
  416THF     C3 7748   2.887   4.314   2.934  0.2499  1.2156  0.5047
  416THF     H4 7749   2.821   4.495   2.675  1.5595  1.7566  0.2525
  416THF     H5 7750   2.967   4.507   2.778  1.3348 -3.3190 -1.4532
  416THF     H6 7751   2.881   4.211   2.969 -1.3475  1.1000 -0.0549
  416THF     H7 7752   2.985   4.348   2.969  2.0981 -3.2691  0.3272
  416THF     C8 7753   2.785   4.405   2.986 -0.1336 -0.2338 -0.5829
  416THF     C9 7754   2.780   4.523   2.886  0.1891 -0.1346  0.1209
  416THF    H10 7755   2.810   4.434   3.088  0.7266 -2.6256 -0.0394
  416THF    H11 7756   2.688   4.357   2.985 -0.4291  0.2402  1.3596
  416THF    H12 7757   2.677   4.531   2.852  0.8169  2.5840 -1.4482
  416THF    H13 7758   2.808   4.619   2.930 -1.0781  0.8403 -1.0984
  417THF     O1 7759   2.659   3.861   4.876  0.4299 -0.2452 -0.6376
  417THF     C2 7760   2.595   3.807   4.984  0.1107  0.1861 -0.2764
  417THF     C3 7761   2.647   3.772   4.767 -0.2404  0.3653  0.4740
  417THF     H4 7762   2.489   3.818   4.964  0.1434  1.6526  0.2363
  417THF     H5 7763   2.614   3.852   5.082 -1.5611  2.4727 -0.9242
  417THF     H6 7764   2.548   3.785   4.724  0.7887  1.5737 -1.7301
  417THF     H7 7765   2.719   3.787   4.686  0.7129  1.0554  1.4182
  417THF     C8 7766   2.649   3.628   4.818 -0.4450 -0.5361  0.3229
  417THF     C9 7767   2.633   3.655   4.975  1.0508  0.3017  0.4339
  417THF    H10 7768   2.743   3.574   4.803 -0.2507 -0.8975  2.5107
  417THF    H11 7769   2.573   3.568   4.768  1.0479 -1.7697 -0.5418
  417THF    H12 7770   2.565   3.591   5.032  1.4977  0.5500  1.2640
  417THF    H13 7771   2.734   3.629   5.006  0.6829 -2.0883 -0.1415
  418THF     O1 7772   3.794   4.663   2.769  0.2073 -0.4312 -0.3006
  418THF     C2 7773   3.879   4.613   2.874 -0.5982 -0.2303 -0.2284
  418THF     C3 7774   3.675   4.587   2.778 -0.0975 -0.2764  0.4384
  418THF     H4 7775   3.845   4.640   2.974 -1.1161  0.1465 -0.5025
  418THF     H5 7776   3.984   4.638   2.862 -0.9093  1.0990 -0.2817
  418THF     H6 7777   3.620   4.623   2.865  0.0910 -0.4425  0.6264
  418THF     H7 7778   3.610   4.592   2.691  0.9057 -0.1758 -0.3277
  418THF     C8 7779   3.732   4.443   2.803  0.5589 -0.7134  0.2897
  418THF     C9 7780   3.868   4.461   2.858  0.3763  0.5340 -0.4725
  418THF    H10 7781   3.726   4.380   2.715 -1.5830 -0.0303 -0.1218
  418THF    H11 7782   3.673   4.388   2.876 -0.4972  0.2964  0.2248
  418THF    H12 7783   3.885   4.416   2.956  0.1904  0.2713 -0.5605
  418THF    H13 7784   3.937   4.411   2.790  1.3990  1.8007 -0.4088
  419THF     O1 7785   5.460   1.598   4.946  0.0534 -0.0216 -0.6471
  419THF     C2 7786   5.531   1.561   5.065 -0.1821  0.3406  0.1574
  419THF     C3 7787   5.370   1.499   4.919  0.9665  0.3470 -0.2303
  419THF     H4 7788   5.570   1.656   5.100 -1.0396  0.7989 -0.0880
  419THF     H5 7789   5.617   1.499   5.041 -0.4452  0.0113  0.0419
  419THF     H6 7790   5.304   1.517   4.834  1.9249 -0.7893 -1.2636
  419THF     H7 7791   5.426   1.418   4.870  0.8836 -1.0189  1.8267
  419THF     C8 7792   5.309   1.465   5.057 -0.0037  0.7343  0.1512
  419THF     C9 7793   5.428   1.489   5.150  0.0307 -0.3002  0.6383
  419THF    H10 7794   5.263   1.366   5.053 -3.0268  2.0228  0.4873
  419THF    H11 7795   5.227   1.535   5.073  1.2368  2.2899  0.0393
  419THF    H12 7796   5.390   1.557   5.227 -0.1311  2.1925 -1.5052
  419THF    H13 7797   5.470   1.394   5.184 -2.9339 -2.2246 -0.6417
  420THF     O1 7798   1.250   2.833   2.076 -0.1311 -0.2289  0.2719
  420THF     C2 7799   1.227   2.858   1.939 -0.5899  0.2653  0.1299
  420THF     C3 7800   1.149   2.879   2.163  0.0362 -0.6393  0.2491
  420THF     H4 7801   1.179   2.773   1.889  0.4494 -0.2025 -0.0972
  420THF     H5 7802   1.317   2.877   1.881  0.2309 -0.0327  1.2757
  420THF     H6 7803   1.099   2.794   2.209 -0.3888 -1.5389 -1.7647
  420THF     H7 7804   1.201   2.942   2.235 -0.7718 -0.1178  0.3832
  420THF     C8 7805   1.057   2.950   2.069  0.4882 -0.8263  0.0709
  420THF     C9 7806   1.136   2.977   1.942  0.0254  0.5329  0.5619
  420THF    H10 7807   1.039   3.044   2.122  1.8518 -0.6002  0.1658
  420THF    H11 7808   0.965   2.891   2.073  0.3654 -0.6234  0.3213
  420THF    H12 7809   1.071   2.993   1.856  0.4159  0.1372  0.1836
  420THF    H13 7810   1.201   3.063   1.958  0.6521  0.2675 -0.4821
  421THF     O1 7811   5.438   3.589   0.931  0.3778  0.3932 -0.1325
  421THF     C2 7812   5.382   3.488   1.012  0.1675 -0.4408 -0.3639
  421THF     C3 7813   5.325   3.671   0.905  0.4219 -1.5851  0.6449
  421THF     H4 7814   5.368   3.530   1.112 -0.9275  0.2554 -0.7875
  421THF     H5 7815   5.454   3.407   1.028  0.7803  0.1747  0.0787
  421THF     H6 7816   5.315   3.720   1.001  1.4985 -2.1829  1.0816
  421THF     H7 7817   5.334   3.742   0.823  0.2411  1.3285  3.0004
  421THF     C8 7818   5.209   3.573   0.873  0.5031  0.3376 -0.5995
  421THF     C9 7819   5.266   3.441   0.932  0.2910  0.1713  0.0889
  421THF    H10 7820   5.183   3.567   0.767 -1.0366  0.9316 -0.2805
  421THF    H11 7821   5.116   3.609   0.915  1.2552  1.7289 -0.0674
  421THF    H12 7822   5.198   3.399   1.006 -1.6133  1.5132 -0.7988
  421THF    H13 7823   5.276   3.362   0.857  1.7000  0.6974 -0.3009
  422THF     O1 7824   0.464   0.721   2.139 -0.0142  0.0102  0.0111
  422THF     C2 7825   0.407   0.795   2.031  0.0758  0.4069 -0.8010
  422THF     C3 7826   0.600   0.685   2.099 -0.2133 -0.5660  0.1193
  422THF     H4 7827   0.362   0.885   2.072  1.9318 -0.4848  3.7430
  422THF     H5 7828   0.325   0.731   1.999  1.0537  0.3172 -3.4429
  422THF     H6 7829   0.670   0.757   2.141  0.4066 -0.7436 -0.5915
  422THF     H7 7830   0.632   0.584   2.124 -0.3899 -0.7793 -0.5171
  422THF     C8 7831   0.610   0.700   1.948  0.0596 -0.5362  0.1161
  422THF     C9 7832   0.512   0.818   1.930 -0.3272 -0.2310 -0.1311
  422THF    H10 7833   0.581   0.609   1.897  1.4332 -1.3038  0.6469
  422THF    H11 7834   0.713   0.727   1.923  0.3738 -2.2550 -0.5845
  422THF    H12 7835   0.561   0.915   1.940 -1.8765  0.6079 -0.4565
  422THF    H13 7836   0.469   0.826   1.831 -0.3859  2.0100  0.0265
  423THF     O1 7837   2.408   4.202   0.444 -0.0448  0.2833 -0.0314
  423THF     C2 7838   2.495   4.221   0.549  0.4314  0.2359 -0.5773
  423THF     C3 7839   2.453   4.283   0.332 -0.9022 -0.4671 -0.0902
  423THF     H4 7840   2.479   4.154   0.633  1.6657  1.2993  0.5683
  423THF     H5 7841   2.467   4.317   0.594 -0.1896 -0.4473  0.5352
  423THF     H6 7842   2.413   4.264   0.232 -1.2731  0.7597 -0.1974
  423THF     H7 7843   2.420   4.384   0.356 -1.6993 -0.2316 -2.0009
  423THF     C8 7844   2.605   4.275   0.338 -0.0530  0.1034  0.3317
  423THF     C9 7845   2.636   4.227   0.479  0.0492  0.5461 -1.0356
  423THF    H10 7846   2.646   4.370   0.303 -2.0352  1.1539  0.7356
  423THF    H11 7847   2.644   4.199   0.271  1.0387 -0.9963  2.1264
  423THF    H12 7848   2.673   4.125   0.474 -3.0401 -0.6502 -1.8010
  423THF    H13 7849   2.709   4.280   0.540  1.5245 -1.4953 -0.9265
  424THF     O1 7850   0.917   1.973   2.625  0.2334  0.0488  0.6225
  424THF     C2 7851   0.965   1.956   2.753  0.3863  0.1619  0.0070
  424THF     C3 7852   0.808   1.883   2.602 -0.2919 -0.6637 -0.0127
  424THF     H4 7853   1.033   2.032   2.793  0.3274 -0.5335  1.5182
  424THF     H5 7854   1.027   1.867   2.743  1.4082  0.6247  1.6886
  424THF     H6 7855   0.753   1.905   2.511 -0.2443  0.9054  0.3021
  424THF     H7 7856   0.830   1.777   2.607  1.0138 -0.4989 -1.5013
  424THF     C8 7857   0.733   1.916   2.729 -0.2456  0.1985 -0.2521
  424THF     C9 7858   0.838   1.936   2.836  0.3424  0.2234  0.2350
  424THF    H10 7859   0.660   1.837   2.748  0.4637 -0.6488 -0.9259
  424THF    H11 7860   0.667   2.000   2.712 -0.8853 -0.4879 -1.2602
  424THF    H12 7861   0.828   2.030   2.891 -1.2490 -0.6296  1.4815
  424THF    H13 7862   0.847   1.852   2.905 -2.1406  0.2358  0.6728
  425THF     O1 7863   1.383   5.016   2.059  0.4110  0.4239 -0.7202
  425THF     C2 7864   1.516   4.959   2.046  0.8619 -0.1188  0.1969
  425THF     C3 7865   1.386   5.087   2.181  0.3174  0.3880  0.7511
  425THF     H4 7866   1.555   4.965   1.945  2.3844  0.1967  0.7752
  425THF     H5 7867   1.516   4.857   2.082  1.2024 -0.0375  0.4346
  425THF     H6 7868   1.310   5.164   2.195 -0.5972 -0.0175 -1.5995
  425THF     H7 7869   1.403   5.028   2.271  1.4047 -1.3127 -0.5084
  425THF     C8 7870   1.520   5.164   2.162  0.2405  0.2006 -0.7408
  425THF     C9 7871   1.612   5.053   2.119 -0.1443 -0.4415 -0.0088
  425THF    H10 7872   1.564   5.210   2.250 -2.1784  1.2961 -0.0207
  425THF    H11 7873   1.508   5.242   2.086 -0.9678  2.4454  1.6040
  425THF    H12 7874   1.692   5.101   2.064 -1.9947  1.2405 -1.3654
  425THF    H13 7875   1.654   4.993   2.201  0.6410 -0.1341 -0.1792
  426THF     O1 7876   4.967   4.562   1.951  0.0347 -0.6414 -0.0860
  426THF     C2 7877   4.962   4.667   2.049  0.7905  0.7488  0.2953
  426THF     C3 7878   5.076   4.589   1.858 -0.1664  0.2358 -0.3215
  426THF     H4 7879   5.022   4.638   2.136  0.3647 -2.5395 -0.3759
  426THF     H5 7880   4.864   4.693   2.088  0.4291 -0.0039 -0.0890
  426THF     H6 7881   5.166   4.569   1.917 -0.3738  0.1464 -0.0337
  426THF     H7 7882   5.076   4.543   1.759  1.8286 -0.1252 -0.1876
  426THF     C8 7883   5.057   4.737   1.843 -0.0446 -0.7688  0.2676
  426THF     C9 7884   5.020   4.787   1.981 -0.3064 -0.3669 -0.0226
  426THF    H10 7885   4.969   4.754   1.781  0.8069 -1.0190 -1.0368
  426THF    H11 7886   5.132   4.806   1.805 -3.1391  2.3598 -0.8006
  426THF    H12 7887   5.098   4.816   2.051  0.0551 -0.6226 -0.3113
  426THF    H13 7888   4.945   4.865   1.974 -1.3693 -1.4940 -2.2230
  427THF     O1 7889   3.562   0.163   4.068  0.3464  0.0961  0.1143
  427THF     C2 7890   3.614   0.271   3.997  0.1863 -0.1791 -0.1497
  427THF     C3 7891   3.451   0.213   4.146  0.1458  0.3470  0.1166
  427THF     H4 7892   3.635   0.234   3.896  0.8357  4.1434 -1.8153
  427THF     H5 7893   3.701   0.305   4.053  0.2066 -1.7366  0.8002
  427THF     H6 7894   3.375   0.135   4.158 -0.8520  1.3438  0.3926
  427THF     H7 7895   3.497   0.235   4.243 -1.5337  0.2809  0.9537
  427THF     C8 7896   3.389   0.338   4.083 -0.1120  0.4019  0.4166
  427THF     C9 7897   3.497   0.370   3.985  0.2934 -0.8050  0.5338
  427THF    H10 7898   3.363   0.416   4.154 -0.4109  1.5177 -0.8759
  427THF    H11 7899   3.294   0.312   4.036 -0.0158 -0.5333  0.7244
  427THF    H12 7900   3.467   0.353   3.882 -1.2362 -0.3363  0.8897
  427THF    H13 7901   3.531   0.472   4.002  4.8198 -2.1347  0.8625
  428THF     O1 7902   1.629   4.469   1.231 -0.6771  0.8272 -0.6534
  428THF     C2 7903   1.735   4.471   1.127  0.1120  0.6827  0.2735
  428THF     C3 7904   1.590   4.595   1.270 -0.0088 -0.1226 -0.0181
  428THF     H4 7905   1.690   4.482   1.028 -0.6337  0.5933  0.6024
  428THF     H5 7906   1.811   4.393   1.127 -0.2087  0.3696  0.6136
  428THF     H6 7907   1.532   4.655   1.200 -0.0047  1.2744  1.1395
  428THF     H7 7908   1.543   4.584   1.368 -0.1807  0.4453 -0.0339
  428THF     C8 7909   1.720   4.670   1.283  0.1117  0.3143 -0.7065
  428THF     C9 7910   1.799   4.608   1.165 -0.1635 -0.0248 -0.2034
  428THF    H10 7911   1.779   4.651   1.374  0.5990 -0.2492 -1.1301
  428THF    H11 7912   1.695   4.776   1.280 -2.1857 -0.1888 -1.3346
  428THF    H12 7913   1.796   4.678   1.082 -0.6280  0.4387  0.1908
  428THF    H13 7914   1.903   4.602   1.196 -0.5175 -0.4878  0.9446
  429THF     O1 7915   4.268   2.115   3.514  0.3921  0.4780 -0.0186
  429THF     C2 7916   4.147   2.156   3.456 -0.7388 -0.0723 -0.7775
  429THF     C3 7917   4.267   2.206   3.626 -0.4166 -0.2178 -0.1686
  429THF     H4 7918   4.067   2.115   3.518 -0.6990 -2.0764 -1.9733
  429THF     H5 7919   4.136   2.102   3.363 -0.1509  0.0076 -0.9005
  429THF     H6 7920   4.195   2.157   3.692  0.6043 -0.6922  0.6146
  429THF     H7 7921   4.360   2.203   3.683 -0.4958  0.9373  0.0345
  429THF     C8 7922   4.219   2.341   3.581 -0.5629  0.7492  0.2828
  429THF     C9 7923   4.137   2.308   3.454 -0.2094  0.1644  0.0371
  429THF    H10 7924   4.295   2.415   3.558 -1.4384  1.4250 -0.5013
  429THF    H11 7925   4.160   2.396   3.654 -0.9386 -0.1714  0.6879
  429THF    H12 7926   4.031   2.332   3.449 -0.4335 -0.7678  0.1691
  429THF    H13 7927   4.193   2.336   3.365 -0.2146 -0.7249 -0.2558
  430THF     O1 7928   5.261   5.275   1.866 -0.7047 -0.2864  0.3718
  430THF     C2 7929   5.254   5.314   2.005 -0.0715  0.7761  0.4156
  430THF     C3 7930   5.290   5.392   1.791  0.1399  0.1158  1.1753
  430THF     H4 7931   5.357   5.319   2.038  0.7069 -1.8581 -1.2966
  430THF     H5 7932   5.190   5.245   2.059  0.4409  1.5247  2.0393
  430THF     H6 7933   5.398   5.403   1.783 -0.0512  1.2557 -0.4966
  430THF     H7 7934   5.252   5.380   1.689 -0.6616 -0.3492  1.5202
  430THF     C8 7935   5.214   5.504   1.861 -0.6859  0.0467 -0.7820
  430THF     C9 7936   5.190   5.448   1.996  0.0459  0.2238 -0.3426
  430THF    H10 7937   5.127   5.524   1.798 -1.7730  0.6262  0.8344
  430THF    H11 7938   5.282   5.590   1.861 -0.3704 -0.1968 -0.5869
  430THF    H12 7939   5.234   5.506   2.077  0.0145 -1.9040  1.2812
  430THF    H13 7940   5.082   5.443   2.014 -0.1281  1.6111 -0.8457
  431THF     O1 7941   1.451   4.283   2.554  0.6713  0.1720 -0.6917
  431THF     C2 7942   1.574   4.217   2.543  0.0705  0.4638  0.4628
  431THF     C3 7943   1.420   4.332   2.421 -0.2615 -0.1444 -0.1090
  431THF     H4 7944   1.587   4.135   2.614  0.7467  0.6096  0.5156
  431THF     H5 7945   1.650   4.291   2.568 -1.0560  1.9662 -0.3839
  431THF     H6 7946   1.314   4.353   2.433 -0.8449 -2.1816 -1.1954
  431THF     H7 7947   1.480   4.423   2.414 -1.1519  0.4052 -0.7300
  431THF     C8 7948   1.462   4.224   2.324  0.2369  0.3257  0.7511
  431THF     C9 7949   1.576   4.146   2.402  0.7171 -0.2676  0.6136
  431THF    H10 7950   1.497   4.262   2.229 -0.4104 -0.1271  0.3255
  431THF    H11 7951   1.382   4.158   2.290  0.8410  0.3956 -0.8590
  431THF    H12 7952   1.554   4.039   2.408 -0.1572 -0.1923 -0.7081
  431THF    H13 7953   1.674   4.145   2.355  0.9169  0.9164  0.9922
  432THF     O1 7954   2.075   1.505   2.236 -0.6348  0.2771 -0.1263
  432THF     C2 7955   2.176   1.510   2.134 -0.6517 -0.3975  0.8337
  432THF     C3 7956   2.071   1.625   2.303 -0.0264  0.1878 -0.0247
  432THF     H4 7957   2.124   1.548   2.046  1.5023 -0.0524 -0.3822
  432THF     H5 7958   2.199   1.405   2.113 -1.9019 -0.2392 -1.7952
  432THF     H6 7959   2.011   1.693   2.243 -0.3751 -1.7907 -2.0252
  432THF     H7 7960   2.018   1.626   2.399 -1.1144 -0.2540 -0.6067
  432THF     C8 7961   2.216   1.673   2.305  0.1693 -0.3587 -0.6900
  432THF     C9 7962   2.277   1.607   2.185 -0.5435  0.3653  0.4870
  432THF    H10 7963   2.267   1.670   2.401  0.0773 -0.1576 -0.6354
  432THF    H11 7964   2.213   1.780   2.289  1.0314 -0.6547 -3.2001
  432THF    H12 7965   2.309   1.681   2.113  1.2176  0.2892  1.1214
  432THF    H13 7966   2.375   1.564   2.209  0.7334  2.8005 -0.0003
  433THF     O1 7967   4.880   4.626   3.306  0.1242 -0.2750 -0.4061
  433THF     C2 7968   4.968   4.530   3.373 -1.2923  0.3907  0.3486
  433THF     C3 7969   4.779   4.669   3.396  0.2906  0.6985 -0.8264
  433THF     H4 7970   5.066   4.575   3.388 -0.6954  0.1505 -2.3092
  433THF     H5 7971   4.974   4.447   3.303 -2.4086  0.1238  0.5455
  433THF     H6 7972   4.818   4.747   3.462 -0.2214  0.6680 -0.4830
  433THF     H7 7973   4.693   4.701   3.339  0.1397 -2.5327 -2.6199
  433THF     C8 7974   4.745   4.542   3.477 -0.3910 -0.3454  0.4121
  433THF     C9 7975   4.890   4.488   3.498  0.1979  0.4152 -0.0082
  433THF    H10 7976   4.678   4.474   3.425  0.6797 -0.9266 -0.2589
  433THF    H11 7977   4.701   4.577   3.571  1.4826 -1.2722  1.6943
  433THF    H12 7978   4.931   4.529   3.590 -1.9672  1.9674  0.3350
  433THF    H13 7979   4.893   4.383   3.528 -1.5630  0.4710  0.4780
  434THF     O1 7980   3.415   3.039   0.267 -0.7935 -0.4995 -0.0846
  434THF     C2 7981   3.340   2.919   0.233  0.4658  0.5141 -0.7473
  434THF     C3 7982   3.476   3.032   0.397 -0.2797  0.0901 -0.7703
  434THF     H4 7983   3.356   2.891   0.129  1.3740 -0.3485 -0.3937
  434THF     H5 7984   3.238   2.949   0.253  0.8049  0.5950  1.0011
  434THF     H6 7985   3.584   3.017   0.391 -0.0070  1.8237 -0.5494
  434THF     H7 7986   3.454   3.126   0.447  1.1101  0.1831 -0.2849
  434THF     C8 7987   3.422   2.906   0.458 -0.2127  0.4703  0.1457
  434THF     C9 7988   3.382   2.821   0.340  0.3175  0.5437  0.1716
  434THF    H10 7989   3.336   2.923   0.524 -0.7161  0.5749 -0.5331
  434THF    H11 7990   3.494   2.850   0.517  0.7212 -3.5012 -4.2133
  434THF    H12 7991   3.462   2.761   0.297  0.2984 -0.5736  1.6072
  434THF    H13 7992   3.304   2.747   0.357  1.8344 -0.9057  1.1037
  435THF     O1 7993   2.563   0.238   4.968  0.6072  0.1520  0.5114
  435THF     C2 7994   2.535   0.106   5.004 -0.3949  0.2240 -0.3129
  435THF     C3 7995   2.607   0.310   5.079 -0.2327 -0.6132 -0.4067
  435THF     H4 7996   2.626   0.048   5.015 -0.4892  0.0358 -0.5000
  435THF     H5 7997   2.468   0.064   4.928  0.9800 -0.3014 -1.2674
  435THF     H6 7998   2.710   0.284   5.104 -0.5345 -2.5893 -1.0440
  435THF     H7 7999   2.580   0.415   5.068 -2.0012 -0.9664  0.2989
  435THF     C8 8000   2.518   0.258   5.192 -0.0660  0.0498 -0.6420
  435THF     C9 8001   2.445   0.131   5.130  0.4563  0.0814  0.6067
  435THF    H10 8002   2.443   0.327   5.228  1.1683  1.2778 -0.3233
  435THF    H11 8003   2.580   0.221   5.274 -0.7342  0.7141  0.1720
  435THF    H12 8004   2.433   0.048   5.200  3.0581 -1.3329 -0.4761
  435THF    H13 8005   2.344   0.162   5.106  0.3145  0.0743  1.1900
  436THF     O1 8006   4.978   2.056   0.131 -0.2667 -0.7111 -0.4098
  436THF     C2 8007   4.886   2.060   0.017 -0.5197 -0.8463 -0.1387
  436THF     C3 8008   4.936   2.155   0.229  0.1815  0.9363  0.5062
  436THF     H4 8009   4.793   2.009   0.040  0.7099 -2.4293  1.6650
  436THF     H5 8010   4.937   2.014  -0.068 -0.0972 -0.7109  0.0360
  436THF     H6 8011   4.870   2.104   0.300  0.1647 -0.4369 -0.4563
  436THF     H7 8012   5.019   2.206   0.276  2.2157  1.2143 -3.0245
  436THF     C8 8013   4.854   2.256   0.136 -0.5245 -0.2338  0.1957
  436THF     C9 8014   4.871   2.209  -0.003 -0.2428  1.0080 -0.6454
  436THF    H10 8015   4.881   2.361   0.152 -0.4480 -0.0566 -0.9871
  436THF    H11 8016   4.752   2.257   0.174 -1.1070 -0.0385 -1.2917
  436THF    H12 8017   4.780   2.229  -0.059  0.6055  0.1017 -2.4786
  436THF    H13 8018   4.965   2.239  -0.049  1.2826 -1.3473  0.6996
  437THF     O1 8019   0.109   1.522   3.403  0.1842  0.8366 -0.7643
  437THF     C2 8020   0.013   1.585   3.493  0.0869 -0.1382 -0.3232
  437THF     C3 8021   0.246   1.541   3.454  0.2331 -0.2424  0.4250
  437THF     H4 8022  -0.086   1.543   3.477  0.4731 -0.9947 -0.5131
  437THF     H5 8023   0.014   1.693   3.475  1.1569  0.1039  0.9892
  437THF     H6 8024   0.299   1.453   3.417  0.5516 -0.0479  0.4165
  437THF     H7 8025   0.288   1.635   3.420  0.5560 -0.2963  0.6749
  437THF     C8 8026   0.226   1.545   3.609 -0.1632  0.0051  0.3850
  437THF     C9 8027   0.075   1.549   3.627 -0.8223 -0.1523 -0.3455
  437THF    H10 8028   0.258   1.644   3.641  1.7639 -0.6294  0.5539
  437THF    H11 8029   0.277   1.468   3.667  0.0205 -0.6796 -0.6563
  437THF    H12 8030   0.045   1.452   3.666  0.9174 -0.2182  0.9695
  437THF    H13 8031   0.030   1.607   3.708 -1.1361 -0.7386 -0.0936
  438THF     O1 8032   3.201   0.790   1.212 -0.4808 -1.0688 -0.3729
  438THF     C2 8033   3.224   0.774   1.347 -0.0664  0.0281  0.2358
  438THF     C3 8034   3.060   0.780   1.192 -0.1757  0.0498  0.0891
  438THF     H4 8035   3.204   0.868   1.398  0.8741  1.0156 -1.1567
  438THF     H5 8036   3.327   0.753   1.374 -0.6109 -1.5505  1.2400
  438THF     H6 8037   2.995   0.861   1.226 -0.7635 -0.0745 -0.7138
  438THF     H7 8038   3.045   0.775   1.084  1.6381  1.1583 -0.2543
  438THF     C8 8039   3.033   0.650   1.267  0.2302  0.1212  0.4106
  438THF     C9 8040   3.125   0.668   1.390  0.3172 -0.3887  0.3216
  438THF    H10 8041   3.064   0.562   1.212  0.1638 -0.2521  0.9679
  438THF    H11 8042   2.932   0.637   1.305  0.8072 -3.4340  1.0485
  438THF    H12 8043   3.065   0.690   1.478 -0.8437  1.1928 -0.8013
  438THF    H13 8044   3.185   0.579   1.408  0.7097  0.2920  2.6943
  439THF     O1 8045   4.047   0.670   2.266  0.0323  0.1176  0.7387
  439THF     C2 8046   3.947   0.759   2.315  0.0132  0.6040  0.1860
  439THF     C3 8047   4.174   0.726   2.267 -0.0064 -0.4776  0.3113
  439THF     H4 8048   3.935   0.764   2.423 -0.5294  0.7241  0.1230
  439THF     H5 8049   3.855   0.733   2.262  0.3788 -1.4220  0.4462
  439THF     H6 8050   4.215   0.722   2.368  1.5579 -0.1985 -0.2729
  439THF     H7 8051   4.241   0.670   2.202 -1.3246 -0.7299 -0.8697
  439THF     C8 8052   4.149   0.862   2.211  0.2765  0.6010  0.3412
  439THF     C9 8053   4.008   0.889   2.262 -0.3371  0.3199 -0.7698
  439THF    H10 8054   4.141   0.839   2.104  1.9571  0.2478  0.2615
  439THF    H11 8055   4.221   0.940   2.235  0.4321  0.5702 -0.0102
  439THF    H12 8056   4.013   0.962   2.343 -0.9508  0.0858 -0.5115
  439THF    H13 8057   3.941   0.934   2.189 -0.8497 -0.6934 -0.9487
  440THF     O1 8058   4.411   1.653   4.111 -0.0302  0.5517  0.9736
  440THF     C2 8059   4.319   1.541   4.143  0.1560 -1.0246 -0.5885
  440THF     C3 8060   4.339   1.742   4.024  0.6333  0.3006 -0.3513
  440THF     H4 8061   4.260   1.582   4.225 -0.0611 -1.1463 -0.6823
  440THF     H5 8062   4.374   1.454   4.180  1.8554 -0.3922 -1.5403
  440THF     H6 8063   4.323   1.842   4.064  0.4830  0.2750 -0.3473
  440THF     H7 8064   4.404   1.756   3.937  0.3004  0.6942 -0.5425
  440THF     C8 8065   4.217   1.662   3.985 -0.1705  0.3953 -0.2907
  440THF     C9 8066   4.237   1.518   4.020  0.0095  0.3950 -0.4410
  440THF    H10 8067   4.188   1.681   3.881 -0.4965  1.2170 -0.0616
  440THF    H11 8068   4.129   1.704   4.034  0.3519  1.8767 -0.5586
  440THF    H12 8069   4.143   1.468   4.040  0.3053  0.8293  2.4887
  440THF    H13 8070   4.294   1.463   3.945 -2.1354 -2.8335  0.1109
  441THF     O1 8071   0.214   1.839   4.318 -0.0488  0.1837  0.0231
  441THF     C2 8072   0.257   1.902   4.202 -0.5684  0.7657  0.3787
  441THF     C3 8073   0.107   1.911   4.366 -0.6702 -0.3421 -0.9391
  441THF     H4 8074   0.222   1.863   4.106  1.3188  1.0224 -0.4562
  441THF     H5 8075   0.362   1.881   4.216 -0.8606 -0.1587  1.2754
  441THF     H6 8076   0.015   1.861   4.334 -1.5288  0.1091  0.7256
  441THF     H7 8077   0.114   1.924   4.474  1.8180  2.8617 -1.3314
  441THF     C8 8078   0.108   2.046   4.293  0.2239 -0.1544 -0.1355
  441THF     C9 8079   0.237   2.048   4.209  0.3480  0.4372  0.2924
  441THF    H10 8080   0.104   2.126   4.366 -0.2509 -1.5057  1.3955
  441THF    H11 8081   0.020   2.056   4.230 -0.6215 -0.0446  1.0207
  441THF    H12 8082   0.215   2.080   4.107  0.6892  0.9645  0.3796
  441THF    H13 8083   0.314   2.101   4.266 -0.0897 -0.1525  1.4706
  442THF     O1 8084   4.264   1.564   0.623 -0.2286 -0.5021  0.2179
  442THF     C2 8085   4.231   1.651   0.507 -0.4597  0.1870 -0.0593
  442THF     C3 8086   4.232   1.633   0.745  0.1452 -0.2629  0.7213
  442THF     H4 8087   4.182   1.591   0.430  1.8577 -0.5608 -1.0651
  442THF     H5 8088   4.316   1.699   0.459 -0.5021 -0.3076 -0.6591
  442THF     H6 8089   4.221   1.560   0.825 -0.1723 -2.6299 -1.3386
  442THF     H7 8090   4.321   1.689   0.772 -0.6864  0.5187  1.9349
  442THF     C8 8091   4.110   1.720   0.710  0.6232  0.0584 -0.8138
  442THF     C9 8092   4.143   1.756   0.565  1.0482  0.1905  0.2047
  442THF    H10 8093   4.106   1.808   0.774 -1.1780  0.1124 -0.9385
  442THF    H11 8094   4.020   1.659   0.725  1.3684 -0.2766  3.8180
  442THF    H12 8095   4.052   1.784   0.513  0.8569 -1.0109 -0.1467
  442THF    H13 8096   4.199   1.849   0.578  0.1300  0.7260  0.4384
  443THF     O1 8097   0.194   4.074   2.863  0.0371  0.0194 -0.1050
  443THF     C2 8098   0.279   4.082   2.755 -0.1090  0.0110 -0.2952
  443THF     C3 8099   0.275   4.064   2.975 -0.0557  0.1362  0.1195
  443THF     H4 8100   0.333   4.176   2.755  0.1039 -0.1077 -0.0132
  443THF     H5 8101   0.226   4.069   2.661 -1.2104  2.1905 -0.0276
  443THF     H6 8102   0.288   4.167   3.009 -1.3380  0.7467 -1.1275
  443THF     H7 8103   0.216   4.016   3.053  0.3341  0.8494  0.8699
  443THF     C8 8104   0.395   3.992   2.934  0.7434  0.0809  0.0829
  443THF     C9 8105   0.368   3.962   2.788 -0.1140 -0.4753 -0.2238
  443THF    H10 8106   0.399   3.892   2.977 -0.0493  0.8197  1.9843
  443THF    H11 8107   0.484   4.047   2.962  0.5171  0.2498  0.4914
  443THF    H12 8108   0.460   3.966   2.730  0.0035  0.8167  0.0185
  443THF    H13 8109   0.331   3.865   2.755 -0.7776 -0.4019  0.2779
  444THF     O1 8110   0.044   1.511   2.416  0.2579  0.1071 -0.0023
  444THF     C2 8111  -0.051   1.596   2.354  0.0284  0.7414 -0.2227
  444THF     C3 8112  -0.020   1.396   2.466 -0.0660  0.1315  0.9449
  444THF     H4 8113  -0.068   1.570   2.250 -1.1098  0.7018 -0.0351
  444THF     H5 8114  -0.011   1.698   2.361  4.9838 -1.0190  2.2210
  444THF     H6 8115   0.011   1.311   2.406  1.3642  1.0565  0.3433
  444THF     H7 8116   0.004   1.369   2.569  1.3839 -0.4765  0.4686
  444THF     C8 8117  -0.171   1.419   2.445 -0.2316 -0.6468 -0.4189
  444THF     C9 8118  -0.183   1.569   2.423  0.6599  0.0920 -0.1311
  444THF    H10 8119  -0.223   1.389   2.536  0.1749  0.3020  0.1398
  444THF    H11 8120  -0.207   1.355   2.363  2.2944 -2.1905 -0.4231
  444THF    H12 8121  -0.279   1.601   2.384 -0.3917 -2.4011  0.1788
  444THF    H13 8122  -0.170   1.617   2.520  2.0194 -0.5236  0.0222
  445THF     O1 8123   2.365   5.315   5.144 -0.6310 -0.2838  0.0066
  445THF     C2 8124   2.479   5.235   5.111 -0.7399  0.5891  1.0278
  445THF     C3 8125   2.270   5.227   5.208 -0.0230  0.3807 -0.5829
  445THF     H4 8126   2.567   5.298   5.098 -0.9831  1.2200  2.3106
  445THF     H5 8127   2.444   5.202   5.013 -3.1131  0.8805  1.6953
  445THF     H6 8128   2.215   5.280   5.286 -1.1369 -0.2920 -0.8770
  445THF     H7 8129   2.184   5.199   5.147  0.7602 -0.9580 -1.1074
  445THF     C8 8130   2.356   5.113   5.264 -0.1222 -0.1131  0.1449
  445THF     C9 8131   2.492   5.136   5.218  0.6344 -0.0648  0.4719
  445THF    H10 8132   2.321   5.017   5.227 -1.0741  0.4212 -0.3740
  445THF    H11 8133   2.359   5.119   5.373  0.7995  0.4969  0.1030
  445THF    H12 8134   2.553   5.167   5.304 -1.4576 -1.1514  2.4670
  445THF    H13 8135   2.533   5.049   5.167 -0.2820  0.2217 -0.7779
  446THF     O1 8136   0.253   1.779   0.864  0.1712  0.3707 -0.3895
  446THF     C2 8137   0.178   1.765   0.745 -0.4787  0.5025  0.3272
  446THF     C3 8138   0.291   1.650   0.914  0.7968  0.4068  0.4532
  446THF     H4 8139   0.164   1.859   0.693  0.2469  1.1654  1.2951
  446THF     H5 8140   0.079   1.735   0.779 -1.6397 -0.4141 -3.4094
  446THF     H6 8141   0.357   1.638   1.001  1.4683 -3.2098 -0.3547
  446THF     H7 8142   0.199   1.610   0.958  0.6612  1.2945  0.9922
  446THF     C8 8143   0.330   1.573   0.784 -0.0284  0.0669 -0.1297
  446THF     C9 8144   0.254   1.647   0.672 -0.4992 -1.0546  0.4080
  446THF    H10 8145   0.315   1.465   0.788 -2.4404  0.3680  0.6631
  446THF    H11 8146   0.435   1.592   0.762 -0.3725  0.1606 -1.8109
  446THF    H12 8147   0.315   1.682   0.589 -2.6306 -0.6858 -1.1043
  446THF    H13 8148   0.179   1.584   0.622 -0.3074  1.2293 -3.1190
  447THF     O1 8149   1.897   0.841   2.667 -0.4222 -0.0562  0.1654
  447THF     C2 8150   2.029   0.865   2.610  0.4819 -0.5924 -0.5270
  447THF     C3 8151   1.891   0.698   2.694 -0.1174  0.4582 -0.1313
  447THF     H4 8152   2.065   0.947   2.672 -0.1842 -1.1841  0.6692
  447THF     H5 8153   2.028   0.900   2.506  0.0801 -1.4861 -0.8363
  447THF     H6 8154   1.812   0.676   2.766 -0.2314 -0.9348 -0.6485
  447THF     H7 8155   1.880   0.643   2.600 -1.1188 -0.1533  0.3183
  447THF     C8 8156   2.032   0.674   2.741  1.4086  0.2765 -0.0499
  447THF     C9 8157   2.115   0.748   2.643  0.3242 -0.1262 -0.2193
  447THF    H10 8158   2.069   0.572   2.738 -0.6943 -0.5197 -0.7030
  447THF    H11 8159   2.047   0.713   2.842  1.9396  1.8481 -0.7104
  447THF    H12 8160   2.206   0.786   2.687 -0.3500  3.2100 -1.3975
  447THF    H13 8161   2.141   0.687   2.557 -0.0511 -0.8361  0.1610
  448THF     O1 8162   0.141   2.713   4.883  0.0961 -0.0845 -0.4216
  448THF     C2 8163   0.213   2.759   4.773 -0.8212 -0.0410  0.9187
  448THF     C3 8164   0.025   2.795   4.900  0.2559  0.1634 -0.2065
  448THF     H4 8165   0.285   2.691   4.728  0.5019  2.5486 -1.1642
  448THF     H5 8166   0.272   2.847   4.799 -0.0485 -0.4031  0.4274
  448THF     H6 8167  -0.059   2.744   4.947 -0.8628  1.9383 -0.1868
  448THF     H7 8168   0.057   2.862   4.979  2.5348 -0.7669 -0.2686
  448THF     C8 8169  -0.005   2.863   4.768  0.2019 -0.3091  0.0466
  448THF     C9 8170   0.100   2.804   4.681 -0.3756  0.6358 -0.3381
  448THF    H10 8171  -0.011   2.972   4.764  0.0942 -0.2458  1.5863
  448THF    H11 8172  -0.103   2.837   4.727  0.0446 -1.0766  0.8848
  448THF    H12 8173   0.066   2.712   4.634  1.5713 -0.4257  0.2333
  448THF    H13 8174   0.127   2.885   4.613 -4.3923  1.6861 -0.9392
  449THF     O1 8175   4.701   0.321   1.440  0.3052  0.0679  0.3777
  449THF     C2 8176   4.659   0.291   1.306  0.5185  0.1859  0.4112
  449THF     C3 8177   4.658   0.210   1.518  0.2260 -0.5978  0.0720
  449THF     H4 8178   4.720   0.219   1.251 -1.6710 -1.9330  0.5531
  449THF     H5 8179   4.650   0.380   1.244  1.8413  0.9255  1.2323
  449THF     H6 8180   4.722   0.123   1.509  2.1771  0.7600  0.2827
  449THF     H7 8181   4.663   0.245   1.621  2.6092 -0.4062 -0.0645
  449THF     C8 8182   4.512   0.191   1.460 -0.1022 -0.4704 -0.5370
  449THF     C9 8183   4.523   0.231   1.319 -0.6014 -0.1142 -0.6775
  449THF    H10 8184   4.444   0.262   1.507  1.6744  1.3737 -0.6473
  449THF    H11 8185   4.474   0.089   1.471  0.1472 -0.4790  0.3968
  449THF    H12 8186   4.503   0.149   1.250 -0.6235  0.5361 -1.4643
  449THF    H13 8187   4.447   0.308   1.307  0.1520  1.1800  2.0876
  450THF     O1 8188   2.101   1.288   2.954 -0.1870 -0.3359 -0.4326
  450THF     C2 8189   1.996   1.280   3.047  0.0895 -0.1623 -0.2414
  450THF     C3 8190   2.176   1.169   2.981 -0.1276  0.0755 -0.7721
  450THF     H4 8191   1.912   1.340   3.011  0.4241 -0.3867 -1.4322
  450THF     H5 8192   2.035   1.314   3.143  1.4754  0.4257 -0.9871
  450THF     H6 8193   2.245   1.158   2.898 -0.2871  0.3144 -0.9374
  450THF     H7 8194   2.241   1.184   3.067  0.4012  2.1095 -1.4700
  450THF     C8 8195   2.072   1.060   3.003  0.2367 -0.3564  0.7565
  450THF     C9 8196   1.955   1.139   3.049 -0.2254  0.1978  0.3043
  450THF    H10 8197   2.102   0.990   3.081 -2.1455 -2.3080  0.0254
  450THF    H11 8198   2.042   1.003   2.915 -0.0105 -1.0360  1.2724
  450THF    H12 8199   1.877   1.128   2.973 -1.9025  0.2801  1.9552
  450THF    H13 8200   1.912   1.096   3.139  0.3559  0.5604  0.7680
  451THF     O1 8201   4.299   4.440   2.002 -0.0226  0.0353  0.0302
  451THF     C2 8202   4.257   4.375   1.885 -0.2228  0.3731  0.4710
  451THF     C3 8203   4.419   4.369   2.039  0.2929  0.6873  0.3466
  451THF     H4 8204   4.311   4.413   1.798  0.8209  0.0277  0.9448
  451THF     H5 8205   4.151   4.391   1.869 -0.1844 -0.4696 -0.7523
  451THF     H6 8206   4.499   4.413   1.980  0.6197 -0.3238  0.0180
  451THF     H7 8207   4.451   4.383   2.142 -1.8358  1.9721  0.9084
  451THF     C8 8208   4.389   4.224   2.014  0.2042  0.3124 -0.3385
  451THF     C9 8209   4.296   4.225   1.891  1.0058  0.9357 -0.4160
  451THF    H10 8210   4.344   4.181   2.104  0.6576  0.6401  0.0533
  451THF    H11 8211   4.484   4.171   2.001 -0.4855 -1.6762  1.8409
  451THF    H12 8212   4.354   4.191   1.805 -1.2087  0.3813 -1.7784
  451THF    H13 8213   4.204   4.166   1.896 -0.6444  3.2270 -1.6636
  452THF     O1 8214   0.561   5.275   0.098  0.1542  0.7841  0.0116
  452THF     C2 8215   0.533   5.355   0.207  0.6193 -0.0683  0.1940
  452THF     C3 8216   0.463   5.170   0.090 -0.3504  0.1653  0.1840
  452THF     H4 8217   0.461   5.433   0.184  0.0974 -0.3734  0.7593
  452THF     H5 8218   0.619   5.417   0.233  0.3239  0.8329 -0.9009
  452THF     H6 8219   0.405   5.188  -0.000 -0.5220 -0.3132  0.1938
  452THF     H7 8220   0.512   5.077   0.059  0.3334  0.9671 -1.2381
  452THF     C8 8221   0.384   5.173   0.218  0.3634 -0.0526  0.6025
  452THF     C9 8222   0.477   5.256   0.306  0.1256  0.0835 -0.0210
  452THF    H10 8223   0.364   5.074   0.258  0.3027  0.3769  1.6772
  452THF    H11 8224   0.285   5.218   0.209  0.2930  0.8889  4.1604
  452THF    H12 8225   0.442   5.314   0.392  0.4412 -1.3404  1.0926
  452THF    H13 8226   0.562   5.201   0.347  0.6483  0.9404  0.0812
  453THF     O1 8227   4.865   3.202   5.414 -0.0793 -0.3176 -0.4174
  453THF     C2 8228   4.923   3.325   5.443 -0.1000  0.6208 -0.1068
  453THF     C3 8229   4.760   3.175   5.499 -0.6037 -0.8083 -0.0712
  453THF     H4 8230   4.862   3.389   5.380 -2.9941 -1.2168  0.6428
  453THF     H5 8231   5.029   3.318   5.418 -0.4724 -1.6709 -1.2968
  453THF     H6 8232   4.676   3.237   5.465 -0.1433 -0.2171 -0.1464
  453THF     H7 8233   4.740   3.068   5.507 -0.2956 -0.7583  2.1797
  453THF     C8 8234   4.801   3.239   5.633 -0.4290  0.3588  0.2154
  453THF     C9 8235   4.886   3.354   5.590  0.2167 -0.0317 -0.8254
  453THF    H10 8236   4.870   3.167   5.677  0.3281  0.3518 -0.9316
  453THF    H11 8237   4.715   3.263   5.696 -0.2352  0.6494  0.3721
  453THF    H12 8238   4.828   3.447   5.592 -0.3916 -0.4180  0.6680
  453THF    H13 8239   4.968   3.367   5.660  0.6305  0.7913 -1.4311
  454THF     O1 8240   3.018   3.926   5.378 -0.2463 -0.7735 -0.2278
  454THF     C2 8241   3.144   3.863   5.400 -0.5236  0.0756  0.0938
  454THF     C3 8242   2.916   3.830   5.343 -0.4913 -0.0713  0.1313
  454THF     H4 8243   3.144   3.826   5.503  0.3430 -1.1363 -0.3243
  454THF     H5 8244   3.226   3.935   5.389 -0.5605  0.4558  1.9552
  454THF     H6 8245   2.837   3.826   5.418 -0.5460 -0.3794  0.0596
  454THF     H7 8246   2.866   3.873   5.257  0.8666  2.5550  0.5518
  454THF     C8 8247   2.998   3.701   5.294 -0.6541 -0.2880  0.4814
  454THF     C9 8248   3.140   3.750   5.299  0.3923 -0.2132  0.2245
  454THF    H10 8249   2.979   3.662   5.194  4.1902  0.5927 -1.0442
  454THF    H11 8250   2.970   3.628   5.370  0.6149  0.8858  2.1646
  454THF    H12 8251   3.213   3.671   5.311  2.1917  0.5378 -4.0240
  454THF    H13 8252   3.172   3.797   5.206  0.2283 -0.0375  0.2553
  455THF     O1 8253   5.239   5.116   2.826  0.2466 -0.0256 -0.0049
  455THF     C2 8254   5.222   5.153   2.964 -0.2726 -0.1678  0.2706
  455THF     C3 8255   5.337   5.018   2.828 -0.6376  0.0699 -0.0920
  455THF     H4 8256   5.157   5.088   3.023 -0.2122 -0.4461  0.0305
  455THF     H5 8257   5.177   5.253   2.961 -1.6694 -0.7886 -0.0757
  455THF     H6 8258   5.307   4.921   2.867  2.1116 -0.7851  0.0698
  455THF     H7 8259   5.383   4.999   2.731 -0.4328 -1.1821  0.2322
  455THF     C8 8260   5.443   5.084   2.921  0.1034 -0.5535 -0.6240
  455THF     C9 8261   5.358   5.168   3.014 -1.0088  0.5809 -1.0374
  455THF    H10 8262   5.491   5.158   2.857 -2.6168 -1.0008 -3.4158
  455THF    H11 8263   5.511   5.012   2.967 -0.6781 -2.4421 -2.2984
  455THF    H12 8264   5.366   5.134   3.117 -2.8544  1.6319 -0.5176
  455THF    H13 8265   5.387   5.272   3.020 -2.1469  0.8217  2.2879
  456THF     O1 8266   4.000   1.436   1.462 -0.1581 -0.1459  0.1258
  456THF     C2 8267   3.889   1.368   1.509  0.2656 -0.3540  0.2948
  456THF     C3 8268   4.095   1.438   1.566  0.5115 -0.1257 -0.0994
  456THF     H4 8269   3.892   1.260   1.497  1.1330 -0.2426 -0.5614
  456THF     H5 8270   3.799   1.391   1.451 -0.2046  3.1483  2.1149
  456THF     H6 8271   4.141   1.341   1.546 -2.7883 -1.9831  0.5936
  456THF     H7 8272   4.171   1.516   1.566  0.2400  0.1668  1.1226
  456THF     C8 8273   4.019   1.442   1.699  0.0490  0.1334  0.5776
  456THF     C9 8274   3.879   1.405   1.657 -0.9568 -0.4943  0.3868
  456THF    H10 8275   4.026   1.542   1.740 -1.3742  1.1022 -1.3904
  456THF    H11 8276   4.054   1.365   1.768 -0.8201 -1.3278 -0.5568
  456THF    H12 8277   3.818   1.328   1.704 -2.5452  2.3708  3.4485
  456THF    H13 8278   3.820   1.497   1.666 -1.7040 -0.9273  0.0444
  457THF     O1 8279   2.390   3.264   5.129 -0.2482 -0.4558  0.3829
  457THF     C2 8280   2.328   3.332   5.025 -0.1625  0.1817  0.1726
  457THF     C3 8281   2.403   3.130   5.088  0.3176  0.3737  0.0079
  457THF     H4 8282   2.395   3.364   4.946 -0.8414 -0.0720 -0.5185
  457THF     H5 8283   2.281   3.421   5.066 -1.2521 -1.2852  2.3024
  457THF     H6 8284   2.503   3.124   5.045  0.6127  0.1393  0.7083
  457THF     H7 8285   2.402   3.069   5.178  1.3145  1.7153  0.9746
  457THF     C8 8286   2.285   3.096   4.998 -0.2572 -0.3889 -0.3096
  457THF     C9 8287   2.229   3.237   4.967  0.2270  0.6489  0.6098
  457THF    H10 8288   2.216   3.037   5.058  0.1699 -1.9082 -1.2359
  457THF    H11 8289   2.317   3.026   4.920  2.1443 -1.8704  1.8621
  457THF    H12 8290   2.220   3.257   4.860  1.5199  0.3014  0.4260
  457THF    H13 8291   2.133   3.258   5.015  1.6906  3.9703  2.3430
  458THF     O1 8292   3.877   3.271   3.889 -0.5334 -0.6191  0.3074
  458THF     C2 8293   3.763   3.261   3.967 -0.1806 -0.2030 -0.2844
  458THF     C3 8294   3.848   3.222   3.764  0.0065  0.1587 -0.2413
  458THF     H4 8295   3.752   3.344   4.038 -0.5703  0.8156 -1.5027
  458THF     H5 8296   3.773   3.173   4.031 -2.7549  0.9180  1.8675
  458THF     H6 8297   3.909   3.245   3.677 -0.0415 -1.6045 -0.7775
  458THF     H7 8298   3.843   3.114   3.774 -0.3734  0.1628 -0.3626
  458THF     C8 8299   3.706   3.273   3.735  0.1464 -0.0904  0.7480
  458THF     C9 8300   3.643   3.256   3.869 -0.4589  0.3955  0.1149
  458THF    H10 8301   3.665   3.218   3.650  0.5776  0.0131  0.4729
  458THF    H11 8302   3.698   3.379   3.708 -1.1180 -0.5300 -0.7930
  458THF    H12 8303   3.563   3.327   3.890 -1.7105 -1.0617  0.4737
  458THF    H13 8304   3.608   3.153   3.878 -0.3880  0.5391  2.9260
  459THF     O1 8305   2.782   0.660   3.330  0.2830  0.2225  0.1783
  459THF     C2 8306   2.737   0.787   3.368  0.0726  0.5755  0.2197
  459THF     C3 8307   2.926   0.670   3.327  0.2600  0.3148 -0.3156
  459THF     H4 8308   2.743   0.790   3.477  1.9116 -0.5175  0.1906
  459THF     H5 8309   2.636   0.811   3.335  0.2558  2.8133  1.0618
  459THF     H6 8310   2.959   0.655   3.430 -2.3910  1.6114  0.8121
  459THF     H7 8311   2.968   0.603   3.253 -0.0469  0.0025 -0.2053
  459THF     C8 8312   2.970   0.808   3.287  0.6345  0.2757 -0.8840
  459THF     C9 8313   2.841   0.887   3.312 -0.6527  0.4175 -0.3212
  459THF    H10 8314   3.001   0.821   3.183  0.5403 -1.5658 -1.1835
  459THF    H11 8315   3.057   0.844   3.341  0.4144 -0.7357  0.1830
  459THF    H12 8316   2.856   0.964   3.387  3.4619 -1.2396  0.8151
  459THF    H13 8317   2.807   0.935   3.220 -0.7631 -0.9286 -1.0106
  460THF     O1 8318   0.711   1.814   4.479  0.5334  0.7207 -0.2508
  460THF     C2 8319   0.798   1.763   4.379 -0.0643 -0.3379  0.2938
  460THF     C3 8320   0.583   1.794   4.431 -0.0947 -0.4706  0.0421
  460THF     H4 8321   0.869   1.704   4.437  1.4425  0.6354 -0.4642
  460THF     H5 8322   0.864   1.825   4.317  2.0550 -2.0965  0.6426
  460THF     H6 8323   0.521   1.774   4.519 -1.3035  0.3706 -0.5877
  460THF     H7 8324   0.545   1.887   4.389 -0.4174 -1.6318 -2.4165
  460THF     C8 8325   0.579   1.687   4.328  0.2367 -0.1191  0.3115
  460THF     C9 8326   0.716   1.672   4.287 -0.3599  0.7771  0.2524
  460THF    H10 8327   0.516   1.697   4.240 -0.3749 -0.4744  0.6987
  460THF    H11 8328   0.553   1.591   4.372  0.3964 -1.0955 -1.6601
  460THF    H12 8329   0.746   1.567   4.280  1.6622  1.3821 -1.1672
  460THF    H13 8330   0.750   1.703   4.188 -0.0638  0.4740  0.2545
  461THF     O1 8331   0.231   5.061   1.121  0.3727 -0.1257 -0.3278
  461THF     C2 8332   0.127   5.002   1.049 -0.0786 -0.6441  0.1439
  461THF     C3 8333   0.226   5.200   1.090 -0.2642 -0.4976 -0.2718
  461THF     H4 8334   0.106   4.909   1.102  1.4202 -0.9704  0.1957
  461THF     H5 8335   0.156   4.978   0.947 -1.6951  1.3701 -0.8612
  461THF     H6 8336   0.295   5.254   1.154 -1.2312 -0.4552  0.7572
  461THF     H7 8337   0.250   5.224   0.986 -1.8874 -0.0103 -0.5583
  461THF     C8 8338   0.083   5.239   1.108 -0.6274 -0.4821  0.1327
  461THF     C9 8339   0.014   5.111   1.063  0.5808 -0.3054  0.0239
  461THF    H10 8340   0.062   5.321   1.040  4.2801  1.8270  0.9355
  461THF    H11 8341   0.058   5.277   1.207 -0.6320 -0.4919  0.1355
  461THF    H12 8342  -0.047   5.085   1.150  2.3043 -1.3401  0.9861
  461THF    H13 8343  -0.048   5.124   0.975  1.8167 -1.5693 -1.0682
  462THF     O1 8344   5.218   0.510   0.708  0.0800 -0.6784  0.1832
  462THF     C2 8345   5.348   0.531   0.655 -0.1897  0.7404 -0.5266
  462THF     C3 8346   5.131   0.612   0.659 -0.2192  0.5254 -0.0048
  462THF     H4 8347   5.397   0.438   0.629 -0.1539  0.5502  0.2119
  462THF     H5 8348   5.407   0.584   0.730  0.5964  0.9198 -1.2520
  462THF     H6 8349   5.028   0.575   0.662  0.8285 -2.6096  1.2803
  462THF     H7 8350   5.136   0.692   0.732 -1.7795 -1.0467  1.9238
  462THF     C8 8351   5.192   0.649   0.525 -0.4887 -0.6401 -0.0622
  462THF     C9 8352   5.343   0.626   0.540  0.1129  0.3268  0.2988
  462THF    H10 8353   5.170   0.751   0.494 -1.6825 -0.4032  1.4612
  462THF    H11 8354   5.148   0.587   0.446 -1.7453 -1.5264  1.2932
  462THF    H12 8355   5.395   0.581   0.456  2.8932 -0.2494  2.1637
  462THF    H13 8356   5.396   0.715   0.576  1.1164  0.2145 -0.8244
  463THF     O1 8357   3.492   4.224   0.031 -0.5010 -0.3275 -0.0524
  463THF     C2 8358   3.410   4.209   0.153 -0.7849  0.7445 -0.0576
  463THF     C3 8359   3.502   4.089  -0.032 -0.0447 -0.5423  0.2458
  463THF     H4 8360   3.324   4.276   0.144 -1.4145 -0.2283 -2.0085
  463THF     H5 8361   3.469   4.240   0.239  1.3060 -3.3250  0.2442
  463THF     H6 8362   3.436   4.088  -0.118 -1.4907 -0.9395  1.3221
  463THF     H7 8363   3.604   4.067  -0.063  0.6416  3.7915 -1.3604
  463THF     C8 8364   3.463   3.991   0.084 -0.1206 -0.2943  0.1030
  463THF     C9 8365   3.360   4.067   0.163 -0.1573  0.5126 -0.0005
  463THF    H10 8366   3.539   3.968   0.159 -1.6862 -1.0659  1.5050
  463THF    H11 8367   3.413   3.899   0.053 -1.6225 -0.1404  1.8689
  463THF    H12 8368   3.265   4.050   0.113 -0.8983  0.5558  1.3443
  463THF    H13 8369   3.353   4.047   0.270 -1.4406 -0.6471 -0.2759
  464THF     O1 8370   2.577   0.319   0.701  0.5531  0.6128  0.0300
  464THF     C2 8371   2.457   0.248   0.729 -0.1406 -0.0250 -0.0036
  464THF     C3 8372   2.691   0.235   0.715  0.1503  0.4403 -0.2859
  464THF     H4 8373   2.428   0.192   0.641  1.8283  0.1824 -0.8237
  464THF     H5 8374   2.379   0.312   0.771  1.2051  1.3739  0.4633
  464THF     H6 8375   2.739   0.225   0.618 -0.8474  1.0196 -0.8552
  464THF     H7 8376   2.764   0.281   0.781 -0.9195  1.4149  0.2582
  464THF     C8 8377   2.634   0.105   0.772 -0.3736  0.2131 -0.7727
  464THF     C9 8378   2.507   0.151   0.835  0.3741  0.5973 -0.4614
  464THF    H10 8379   2.700   0.062   0.847  0.2203  0.6283 -1.0445
  464THF    H11 8380   2.608   0.037   0.691 -1.0729  0.8191 -1.0732
  464THF    H12 8381   2.425   0.083   0.857  1.1972  0.2066  1.5692
  464THF    H13 8382   2.520   0.189   0.936  0.7804  3.1813 -1.3921
  465THF     O1 8383   0.886   4.683   0.404  0.4236 -0.6309  0.4101
  465THF     C2 8384   0.891   4.805   0.482  0.1873 -0.6303  0.2746
  465THF     C3 8385   0.767   4.683   0.324  0.0714  0.4436  0.4998
  465THF     H4 8386   0.967   4.865   0.432 -1.3358  1.1286 -0.0816
  465THF     H5 8387   0.921   4.791   0.586 -1.1465 -0.8938  0.6432
  465THF     H6 8388   0.791   4.640   0.227 -0.1459  0.5454  0.3997
  465THF     H7 8389   0.674   4.633   0.354  0.3249 -0.2587  0.1435
  465THF     C8 8390   0.730   4.824   0.309  0.1364 -0.5238  0.7867
  465THF     C9 8391   0.760   4.885   0.443  0.0364  0.4796  0.3504
  465THF    H10 8392   0.628   4.852   0.285  0.2109 -1.2683 -0.5234
  465THF    H11 8393   0.806   4.863   0.240  0.6438 -3.5065 -0.4750
  465THF    H12 8394   0.778   4.992   0.434 -0.5011  0.4360 -1.8278
  465THF    H13 8395   0.686   4.856   0.518 -0.6882  2.9503  0.6874
  466THF     O1 8396   1.675   4.684   2.668 -0.1595  0.4284  0.3527
  466THF     C2 8397   1.595   4.601   2.585 -0.2697 -0.0932 -0.0552
  466THF     C3 8398   1.578   4.770   2.714 -0.1762 -0.3689 -0.0215
  466THF     H4 8399   1.549   4.526   2.650 -1.2514  1.4508  1.0933
  466THF     H5 8400   1.643   4.532   2.515 -0.5981 -0.1973 -0.1821
  466THF     H6 8401   1.531   4.721   2.800  2.5912 -1.4924  0.9691
  466THF     H7 8402   1.623   4.863   2.748 -0.7540  0.3331 -1.1009
  466THF     C8 8403   1.479   4.798   2.605 -0.1705 -0.2926  0.0330
  466THF     C9 8404   1.503   4.694   2.505 -0.1416  0.6030  0.3852
  466THF    H10 8405   1.485   4.900   2.567  1.3577 -0.7416 -1.0188
  466THF    H11 8406   1.380   4.778   2.646 -1.1969 -0.1587 -2.2089
  466THF    H12 8407   1.413   4.642   2.473  0.5004 -0.3322  0.0314
  466THF    H13 8408   1.565   4.732   2.423 -1.0382 -0.2214 -0.7091
  467THF     O1 8409   0.611   5.282   4.229  0.7122 -0.4779  0.2137
  467THF     C2 8410   0.561   5.212   4.349 -0.4911  0.1855  0.2207
  467THF     C3 8411   0.714   5.202   4.166 -0.5860 -0.1971  0.2938
  467THF     H4 8412   0.461   5.172   4.338 -0.8428  0.8634  0.8152
  467THF     H5 8413   0.548   5.263   4.444  0.2072  0.7306  0.0407
  467THF     H6 8414   0.695   5.196   4.059 -1.3630 -1.5058  0.4861
  467THF     H7 8415   0.808   5.256   4.179 -1.9506  2.7225 -1.0182
  467THF     C8 8416   0.716   5.066   4.233 -0.4319 -0.0232  0.0720
  467THF     C9 8417   0.671   5.111   4.373  0.1656  0.5400  0.9330
  467THF    H10 8418   0.814   5.017   4.238  0.5338  1.8298  0.1487
  467THF    H11 8419   0.653   4.990   4.186  0.0163  0.1757 -0.8715
  467THF    H12 8420   0.631   5.026   4.428 -0.6098 -0.1233 -0.5935
  467THF    H13 8421   0.751   5.154   4.434 -1.9362  0.2780  4.1467
  468THF     O1 8422   3.172   4.478   5.079 -0.6057 -0.2197  0.3931
  468THF     C2 8423   3.251   4.414   5.171  0.7452  0.1329  0.1627
  468THF     C3 8424   3.070   4.552   5.152 -0.1470  0.1238 -0.5404
  468THF     H4 8425   3.331   4.481   5.201 -0.3035  1.6281 -0.2577
  468THF     H5 8426   3.294   4.324   5.128 -0.8143  0.8399 -3.1952
  468THF     H6 8427   3.113   4.638   5.203  2.4435 -1.8863  0.9073
  468THF     H7 8428   2.981   4.578   5.095 -1.2742 -1.3002  0.4977
  468THF     C8 8429   3.026   4.441   5.256  0.7664 -0.4029  0.6601
  468THF     C9 8430   3.157   4.373   5.290  0.3041 -0.6044  0.5152
  468THF    H10 8431   2.950   4.379   5.210  1.4739  1.6926 -3.7821
  468THF    H11 8432   2.981   4.488   5.344  0.1966 -0.5946  0.4709
  468THF    H12 8433   3.211   4.411   5.377  0.2921  0.2529  0.1539
  468THF    H13 8434   3.149   4.264   5.293 -2.3900 -0.5495 -1.2017
  469THF     O1 8435   3.903   1.701   1.115  0.1240  0.0031 -0.2549
  469THF     C2 8436   3.945   1.673   1.247  0.0298 -0.1402 -0.2133
  469THF     C3 8437   3.827   1.824   1.126  0.0778 -0.0969  0.5144
  469THF     H4 8438   4.033   1.609   1.251  1.5937  1.9314  1.6823
  469THF     H5 8439   3.855   1.639   1.298 -0.3668  1.3569  0.1596
  469THF     H6 8440   3.834   1.875   1.030 -1.6599 -1.1868 -0.2339
  469THF     H7 8441   3.723   1.810   1.152 -0.5495 -0.1421 -1.7706
  469THF     C8 8442   3.902   1.909   1.234 -0.0741  0.5970 -0.3192
  469THF     C9 8443   3.989   1.806   1.307 -0.0164  0.6355 -0.5897
  469THF    H10 8444   3.836   1.958   1.306  0.2086 -0.5945  0.7992
  469THF    H11 8445   3.970   1.976   1.182  0.7025  0.3088  0.2909
  469THF    H12 8446   4.095   1.832   1.296 -0.2193  2.4043  1.1223
  469THF    H13 8447   3.975   1.816   1.415  1.0818 -0.7232 -0.2875
  470THF     O1 8448   3.945   0.399   1.510  0.0085  0.1117 -0.4147
  470THF     C2 8449   3.941   0.530   1.455 -0.4019  1.1943 -0.3334
  470THF     C3 8450   4.067   0.335   1.467  0.0446 -0.4326  0.6277
  470THF     H4 8451   3.991   0.607   1.514 -1.9275  2.1430 -0.2387
  470THF     H5 8452   3.835   0.554   1.446 -1.0257 -0.8510  0.8799
  470THF     H6 8453   4.135   0.322   1.552  0.4206 -0.6657  0.2987
  470THF     H7 8454   4.051   0.230   1.440  1.3932  0.2134 -3.4532
  470THF     C8 8455   4.122   0.410   1.343  0.2027 -0.3059  0.2125
  470THF     C9 8456   4.008   0.508   1.319 -0.1771 -0.0890  0.1806
  470THF    H10 8457   4.142   0.343   1.260 -0.4787 -0.2554 -0.0001
  470THF    H11 8458   4.220   0.454   1.361 -0.3468  0.2238  2.2496
  470THF    H12 8459   4.045   0.593   1.261 -0.4637  0.1094  0.2844
  470THF    H13 8460   3.935   0.463   1.253  1.5784  0.0727 -1.9644
  471THF     O1 8461   0.229   3.782   2.483 -0.4644 -0.1603  0.3603
  471THF     C2 8462   0.290   3.874   2.396 -0.7424  0.1693  0.0243
  471THF     C3 8463   0.095   3.813   2.489  0.4045  0.1429 -0.4701
  471THF     H4 8464   0.384   3.829   2.365 -1.0663 -0.6499  0.2067
  471THF     H5 8465   0.316   3.968   2.444 -2.5180  0.4410  0.5291
  471THF     H6 8466   0.041   3.729   2.533  0.9442 -0.2135 -0.4885
  471THF     H7 8467   0.070   3.887   2.566  1.6595 -0.8588  0.9373
  471THF     C8 8468   0.060   3.835   2.344  0.3425 -0.0982 -0.2138
  471THF     C9 8469   0.189   3.884   2.280 -0.6070  0.6185  0.0136
  471THF    H10 8470  -0.017   3.911   2.356 -1.1217 -1.1924 -2.2603
  471THF    H11 8471   0.028   3.745   2.292  2.7326  0.5052 -3.0193
  471THF    H12 8472   0.208   3.809   2.204 -1.7369 -0.6217  0.9047
  471THF    H13 8473   0.189   3.984   2.238 -0.0567  0.5292 -0.2128
  472THF     O1 8474   1.652   5.442   2.913  0.4258  0.3870  0.0064
  472THF     C2 8475   1.756   5.452   2.818  0.0123 -0.0108  0.2755
  472THF     C3 8476   1.675   5.330   2.997 -0.0573  0.0024  0.2985
  472THF     H4 8477   1.845   5.499   2.861  1.3613  0.3406 -2.6225
  472THF     H5 8478   1.730   5.502   2.725  1.3048  0.3317  0.0707
  472THF     H6 8479   1.738   5.350   3.084 -1.2311  2.2425  0.7094
  472THF     H7 8480   1.590   5.289   3.051  1.4704 -2.3805  1.0688
  472THF     C8 8481   1.756   5.232   2.910  0.3514 -0.6563 -0.0782
  472THF     C9 8482   1.795   5.310   2.782  0.2532  0.0316  0.3459
  472THF    H10 8483   1.692   5.148   2.884  1.3455 -0.5695 -3.1316
  472THF    H11 8484   1.848   5.206   2.962  1.4826  2.1763 -0.4847
  472THF    H12 8485   1.901   5.306   2.758  0.3562 -0.4057  0.8573
  472THF    H13 8486   1.735   5.265   2.703  0.3705 -1.2526  0.9581
  473THF     O1 8487   3.866   2.676   4.267 -0.5852 -0.5233 -0.5010
  473THF     C2 8488   3.965   2.604   4.325  0.3227 -0.4533  0.3712
  473THF     C3 8489   3.782   2.700   4.376  0.3124 -1.3746 -0.0238
  473THF     H4 8490   4.039   2.665   4.378 -1.4433  1.2029  1.0467
  473THF     H5 8491   4.018   2.552   4.245  0.9393  0.2154  0.3403
  473THF     H6 8492   3.828   2.761   4.454  1.5528 -0.0392 -1.7325
  473THF     H7 8493   3.691   2.753   4.346  0.3088 -0.5362  1.3892
  473THF     C8 8494   3.748   2.567   4.438 -0.3972 -0.3887 -0.2151
  473THF     C9 8495   3.885   2.500   4.410  0.1404  0.1601  0.3815
  473THF    H10 8496   3.672   2.514   4.382 -1.0877  0.4866 -0.1228
  473THF    H11 8497   3.728   2.591   4.542 -2.6047  1.6444 -1.0246
  473THF    H12 8498   3.945   2.497   4.501  0.8807 -0.7851 -0.1272
  473THF    H13 8499   3.885   2.407   4.353 -0.0615  0.1048  0.4714
  474THF     O1 8500   2.066   3.184   3.146  0.0887  0.0756 -0.2787
  474THF     C2 8501   2.076   3.313   3.089 -0.0303 -0.1246 -0.0273
  474THF     C3 8502   1.932   3.145   3.116  0.3411 -0.5503 -0.0113
  474THF     H4 8503   2.181   3.333   3.071 -0.1762 -1.0608 -2.1280
  474THF     H5 8504   2.028   3.396   3.142  0.7821 -0.1834  0.8260
  474THF     H6 8505   1.933   3.036   3.120  3.6585 -0.9087 -4.0991
  474THF     H7 8506   1.862   3.198   3.180  1.4476 -0.8551  1.5075
  474THF     C8 8507   1.902   3.183   2.973 -0.2959  1.0082 -0.9789
  474THF     C9 8508   1.993   3.301   2.955 -0.9962 -0.3130  0.4683
  474THF    H10 8509   1.799   3.197   2.942 -1.1103 -0.6567  0.7582
  474THF    H11 8510   1.928   3.096   2.912  0.1471  0.8247 -0.5373
  474THF    H12 8511   2.056   3.293   2.867 -1.5576  0.7937 -0.0621
  474THF    H13 8512   1.930   3.387   2.930 -0.1393 -0.3783 -2.2035
  475THF     O1 8513   1.299   0.374   2.595 -0.0274  0.5627  0.0927
  475THF     C2 8514   1.202   0.464   2.647  0.1910 -0.2276 -0.3958
  475THF     C3 8515   1.244   0.244   2.612  0.2887  0.1150 -0.1270
  475THF     H4 8516   1.233   0.564   2.615  0.4965  0.7539  2.6478
  475THF     H5 8517   1.195   0.468   2.756  4.3588  1.4475  0.0288
  475THF     H6 8518   1.308   0.165   2.573  0.1631 -0.5225  0.9218
  475THF     H7 8519   1.234   0.230   2.720 -1.3988 -1.6073 -0.4492
  475THF     C8 8520   1.097   0.256   2.570 -0.2048  0.4250  0.0923
  475THF     C9 8521   1.081   0.405   2.572  0.0901 -0.6600  1.0551
  475THF    H10 8522   1.023   0.203   2.630  0.3726 -0.5058  0.0031
  475THF    H11 8523   1.094   0.228   2.464  0.5924  0.2999  0.0940
  475THF    H12 8524   1.070   0.449   2.473  0.6466  1.7952  2.0279
  475THF    H13 8525   0.993   0.439   2.626 -0.1399  1.1768 -0.3804
  476THF     O1 8526   4.623   2.096   4.924  0.2259  0.3641 -0.1879
  476THF     C2 8527   4.567   2.022   5.036 -0.0034 -0.2838  0.1056
  476THF     C3 8528   4.757   2.123   4.964 -0.6286  0.2265  0.7074
  476THF     H4 8529   4.602   1.919   5.030  1.0088  0.0164  0.6655
  476THF     H5 8530   4.459   2.008   5.025  0.1222 -1.5413  0.3117
  476THF     H6 8531   4.810   2.028   4.954 -0.4320  0.4388 -0.3980
  476THF     H7 8532   4.814   2.196   4.906  3.3369 -1.4131  2.2286
  476THF     C8 8533   4.742   2.166   5.107  0.8189  0.6878 -0.2252
  476THF     C9 8534   4.606   2.115   5.147 -0.0410  0.2225 -0.3948
  476THF    H10 8535   4.758   2.274   5.107  0.3171  0.7677 -0.8388
  476THF    H11 8536   4.823   2.121   5.164  1.1004  1.9496  0.4117
  476THF    H12 8537   4.616   2.062   5.242  1.0757  0.8942 -0.1221
  476THF    H13 8538   4.531   2.194   5.149  0.0942  0.3483 -0.1032
  477THF     O1 8539   1.243   1.428   3.206  0.1739 -0.0848  0.2912
  477THF     C2 8540   1.129   1.475   3.273  0.4325 -0.0219  0.1004
  477THF     C3 8541   1.353   1.492   3.265 -0.2200  0.7773 -0.2311
  477THF     H4 8542   1.046   1.407   3.255 -2.6556  2.2185  4.4125
  477THF     H5 8543   1.094   1.574   3.244  1.4391  0.1046 -0.7426
  477THF     H6 8544   1.439   1.427   3.245 -0.4201  0.6067 -0.5420
  477THF     H7 8545   1.376   1.595   3.241 -0.7902  1.4252  1.7888
  477THF     C8 8546   1.323   1.486   3.413 -0.1847  0.2361  0.6688
  477THF     C9 8547   1.171   1.473   3.412 -0.4425 -0.3708 -0.4039
  477THF    H10 8548   1.339   1.578   3.470 -1.9435  1.5917 -0.9104
  477THF    H11 8549   1.368   1.398   3.459  0.0174 -1.3938 -2.4320
  477THF    H12 8550   1.135   1.379   3.453 -0.8072  0.3834  1.0698
  477THF    H13 8551   1.121   1.538   3.484  0.1579 -1.2114  0.8119
  478THF     O1 8552   0.033   3.086   2.977 -0.0456 -0.5219  0.3499
  478THF     C2 8553  -0.054   3.038   2.864  0.6913 -0.2451 -0.0974
  478THF     C3 8554   0.099   3.203   2.933  0.1622 -0.4323  0.3190
  478THF     H4 8555  -0.142   3.102   2.868  2.1780  1.9733 -0.4188
  478THF     H5 8556  -0.077   2.933   2.878 -1.1189  0.3806  2.0446
  478THF     H6 8557   0.052   3.298   2.957 -2.5752 -1.7463  0.4788
  478THF     H7 8558   0.203   3.202   2.966 -0.5728 -1.3453  2.8498
  478THF     C8 8559   0.094   3.191   2.778 -0.0698  0.1626  0.4393
  478THF     C9 8560   0.032   3.060   2.740 -0.8811 -0.3198 -0.1503
  478THF    H10 8561   0.194   3.208   2.738 -0.2027 -0.1977 -0.0604
  478THF    H11 8562   0.029   3.264   2.730  0.3705 -0.2423 -0.8285
  478THF    H12 8563  -0.022   3.062   2.645 -1.8666 -0.6803  0.3855
  478THF    H13 8564   0.111   2.987   2.725  0.7106  1.2539  0.2110
  479THF     O1 8565   0.762   3.181   4.434 -0.1376  0.2170 -0.2590
  479THF     C2 8566   0.901   3.136   4.421 -0.0336 -0.3578  0.7520
  479THF     C3 8567   0.753   3.273   4.540  0.4394  0.2132 -0.2228
  479THF     H4 8568   0.939   3.126   4.319  0.2363  0.9503  0.6994
  479THF     H5 8569   0.901   3.030   4.446  1.1113 -0.9905 -1.6553
  479THF     H6 8570   0.744   3.372   4.494 -1.3272  0.3282  0.2770
  479THF     H7 8571   0.661   3.268   4.599 -0.1493  1.1004 -1.0356
  479THF     C8 8572   0.892   3.277   4.608  0.4445 -0.6986 -0.0745
  479THF     C9 8573   0.990   3.243   4.488  0.6527  0.2942 -0.3436
  479THF    H10 8574   0.916   3.205   4.686  1.1979 -0.5226 -0.1413
  479THF    H11 8575   0.907   3.373   4.655 -3.9377 -0.0914  0.5647
  479THF    H12 8576   1.016   3.331   4.429  0.0828  0.5130 -0.2795
  479THF    H13 8577   1.080   3.208   4.537  0.8441  0.2423 -0.7282
  480THF     O1 8578   2.126   4.698   2.554  0.3047 -0.1723 -0.5195
  480THF     C2 8579   2.172   4.813   2.481 -0.0022 -0.2017 -0.0648
  480THF     C3 8580   2.229   4.598   2.531 -0.1726 -0.2664 -0.3161
  480THF     H4 8581   2.134   4.910   2.513 -1.4059 -0.1390 -1.7425
  480THF     H5 8582   2.130   4.806   2.380 -0.8832  1.4742  0.1444
  480THF     H6 8583   2.205   4.518   2.601  1.7295 -1.7149 -1.2234
  480THF     H7 8584   2.235   4.551   2.433  0.0558 -0.3015 -0.2870
  480THF     C8 8585   2.356   4.674   2.555 -0.3558  0.5310  0.4932
  480THF     C9 8586   2.325   4.799   2.481 -0.2134 -0.2106  0.0142
  480THF    H10 8587   2.450   4.622   2.536  0.0230  0.3899  2.5585
  480THF    H11 8588   2.372   4.702   2.659 -0.0112  3.7506 -0.3069
  480THF    H12 8589   2.376   4.879   2.534 -0.3607 -1.3722  1.9862
  480THF    H13 8590   2.367   4.786   2.381  1.6649  0.4167  0.6630
  481THF     O1 8591   4.113   2.088   0.812  0.0086 -0.4235  0.6374
  481THF     C2 8592   4.058   2.145   0.928  0.8028  0.0002 -0.6684
  481THF     C3 8593   4.141   2.203   0.726  0.5052  0.2434 -0.1107
  481THF     H4 8594   4.114   2.124   1.019  0.0720  0.9673  0.0286
  481THF     H5 8595   3.951   2.121   0.932  0.9873 -1.8639 -3.6722
  481THF     H6 8596   4.217   2.184   0.650 -2.1120 -3.7739 -2.0942
  481THF     H7 8597   4.055   2.217   0.660  0.5312 -0.1504 -0.2314
  481THF     C8 8598   4.178   2.321   0.813 -0.1788  0.2774 -0.2413
  481THF     C9 8599   4.081   2.300   0.925  0.2379  0.1199  0.1365
  481THF    H10 8600   4.162   2.421   0.773  0.7569  0.0463 -1.2175
  481THF    H11 8601   4.281   2.310   0.845  0.4961  0.5959 -2.1723
  481THF    H12 8602   4.126   2.327   1.020  0.3112 -0.9648  0.4174
  481THF    H13 8603   3.987   2.356   0.917  0.2702  0.0129 -1.3716
  482THF     O1 8604   4.805   1.203   5.390 -0.4498 -0.0365 -0.3327
  482THF     C2 8605   4.860   1.093   5.457  0.2177 -0.5123 -1.0585
  482THF     C3 8606   4.912   1.292   5.353 -0.3829 -0.1626 -0.0819
  482THF     H4 8607   4.798   1.004   5.464  0.5731 -0.6739  0.6659
  482THF     H5 8608   4.879   1.124   5.560  1.5773 -2.4859 -0.6508
  482THF     H6 8609   4.882   1.348   5.264  2.0335  1.1840 -0.1330
  482THF     H7 8610   4.922   1.364   5.434  0.6227  2.2925 -2.2346
  482THF     C8 8611   5.036   1.199   5.340  0.2741 -0.2103 -0.0566
  482THF     C9 8612   4.985   1.061   5.373 -0.3903  0.7181 -0.5779
  482THF    H10 8613   5.118   1.226   5.407  2.1448 -1.6470 -1.6290
  482THF    H11 8614   5.075   1.196   5.238  1.0876  0.8420  0.2030
  482THF    H12 8615   4.961   0.998   5.286  0.4887  0.6649 -0.7922
  482THF    H13 8616   5.066   1.004   5.417  0.7463  2.8016  0.1090
  483THF     O1 8617   5.396   3.202   0.401  0.2369 -0.3280 -0.3220
  483THF     C2 8618   5.259   3.196   0.446 -0.1740  0.2420 -0.5043
  483THF     C3 8619   5.394   3.262   0.274 -0.5455 -0.3623  0.0922
  483THF     H4 8620   5.222   3.277   0.508 -1.1141 -0.2927 -0.3437
  483THF     H5 8621   5.239   3.095   0.483  1.4028 -0.2262 -0.8519
  483THF     H6 8622   5.380   3.369   0.284  0.3539 -0.2346  0.1236
  483THF     H7 8623   5.479   3.248   0.207 -1.7275 -0.5181 -1.4273
  483THF     C8 8624   5.273   3.205   0.210  0.0202  0.2007 -0.5033
  483THF     C9 8625   5.173   3.207   0.318 -0.3620  0.1569  0.2709
  483THF    H10 8626   5.284   3.107   0.164 -0.3503 -0.2226  0.2772
  483THF    H11 8627   5.234   3.262   0.126  1.1506  1.2903 -0.3206
  483THF    H12 8628   5.131   3.308   0.312 -1.7612 -0.3422  1.1949
  483THF    H13 8629   5.099   3.130   0.295 -1.0899  1.3924 -1.8746
  484THF     O1 8630   4.659   2.230   3.408 -0.5760  0.4619  0.5837
  484THF     C2 8631   4.724   2.293   3.301  0.3456 -0.2492  0.5596
  484THF     C3 8632   4.573   2.330   3.467 -0.6710  0.3638 -0.0137
  484THF     H4 8633   4.666   2.295   3.209 -0.8807  0.5594  1.3297
  484THF     H5 8634   4.816   2.235   3.296 -0.4984 -1.6087 -0.0561
  484THF     H6 8635   4.481   2.335   3.409  0.3792  2.1282 -1.6317
  484THF     H7 8636   4.546   2.293   3.566  1.1368 -0.5918  0.1637
  484THF     C8 8637   4.663   2.460   3.460 -0.0683 -0.4949 -0.0650
  484THF     C9 8638   4.752   2.440   3.341 -0.2053  0.7306  0.4098
  484THF    H10 8639   4.727   2.452   3.548 -1.2779  1.2206  1.0237
  484THF    H11 8640   4.599   2.547   3.449  1.1081  0.2318 -1.4074
  484THF    H12 8641   4.737   2.508   3.257 -0.8685 -1.2278 -1.1452
  484THF    H13 8642   4.857   2.450   3.368 -0.2183  1.2384  0.2669
  485THF     O1 8643   0.242   1.385   4.215 -0.6536  0.7399 -0.0483
  485THF     C2 8644   0.364   1.365   4.139 -0.5539 -0.1959 -0.4249
  485THF     C3 8645   0.157   1.464   4.128 -0.3314 -0.7686  0.1471
  485THF     H4 8646   0.411   1.269   4.158  0.0932  0.0659 -0.6505
  485THF     H5 8647   0.443   1.437   4.166  0.3672 -0.4753 -2.2526
  485THF     H6 8648   0.053   1.454   4.158  0.0523  0.7614  2.1758
  485THF     H7 8649   0.168   1.572   4.133 -1.0923 -0.7038  4.9589
  485THF     C8 8650   0.185   1.411   3.987  0.2444 -0.2649  0.7070
  485THF     C9 8651   0.329   1.374   3.991  0.2831 -0.2667  0.5351
  485THF    H10 8652   0.162   1.484   3.910  2.0876 -0.5265 -0.1564
  485THF    H11 8653   0.136   1.316   3.964  0.7549 -0.2161 -0.6657
  485THF    H12 8654   0.356   1.290   3.926  3.0471  0.4717  0.5756
  485THF    H13 8655   0.382   1.461   3.953  0.7225  0.0107  1.7423
  486THF     O1 8656   5.023   1.049   4.140 -0.3651  0.5867  0.8936
  486THF     C2 8657   5.105   0.992   4.038 -0.0114  0.6317  0.2721
  486THF     C3 8658   5.101   1.124   4.229  0.2751  0.6680 -0.0769
  486THF     H4 8659   5.043   0.980   3.950  0.2741 -3.4488  0.4177
  486THF     H5 8660   5.143   0.897   4.076  0.0736  1.5599  2.7379
  486THF     H6 8661   5.027   1.179   4.288 -0.6973  0.4851 -1.1007
  486THF     H7 8662   5.165   1.063   4.293  0.1334  1.3154  0.6924
  486THF     C8 8663   5.182   1.201   4.131  0.1524  0.1384  0.0674
  486THF     C9 8664   5.214   1.095   4.027  0.2489 -0.4879  0.2146
  486THF    H10 8665   5.270   1.249   4.174 -0.8113  2.0414  0.0554
  486THF    H11 8666   5.125   1.280   4.081  3.4085  0.9122 -2.8380
  486THF    H12 8667   5.219   1.132   3.924 -0.1370 -0.5641  0.1684
  486THF    H13 8668   5.314   1.059   4.051  0.2699 -1.0763 -0.6856
  487THF     O1 8669   1.061   3.647   0.762  0.4248 -0.7102 -0.5907
  487THF     C2 8670   1.125   3.686   0.641 -0.1206 -0.2382  0.2518
  487THF     C3 8671   0.979   3.755   0.805  0.7076 -0.0263 -0.8619
  487THF     H4 8672   1.052   3.660   0.564 -2.0553 -0.0048  1.9097
  487THF     H5 8673   1.226   3.651   0.620  0.5502  1.5867  0.2408
  487THF     H6 8674   0.873   3.729   0.794  0.2073  1.7430 -0.6224
  487THF     H7 8675   1.001   3.776   0.909  2.2509 -0.7273 -1.0290
  487THF     C8 8676   1.013   3.882   0.722 -0.0553  0.5583  0.2120
  487THF     C9 8677   1.143   3.835   0.657 -1.1425 -0.2640  0.0238
  487THF    H10 8678   1.021   3.973   0.781  1.2835  0.9300 -0.4840
  487THF    H11 8679   0.938   3.902   0.645 -0.6147  3.2796  1.3405
  487THF    H12 8680   1.163   3.892   0.567 -1.5885 -0.2565 -0.0739
  487THF    H13 8681   1.218   3.855   0.734 -0.9815 -2.7776  0.6122
  488THF     O1 8682   0.863   2.905   0.147  0.3923 -0.0284  0.2312
  488THF     C2 8683   0.843   3.046   0.157 -0.0603  0.6178  0.3833
  488THF     C3 8684   0.863   2.873   0.011  0.3700  0.8059  0.3035
  488THF     H4 8685   0.880   3.087   0.251  2.2104  1.8813 -0.9630
  488THF     H5 8686   0.738   3.061   0.135 -0.8812 -3.4812  0.8258
  488THF     H6 8687   0.897   2.769   0.005 -0.6788  0.4717 -0.1586
  488THF     H7 8688   0.762   2.869  -0.030  1.5046 -0.2726 -2.6215
  488THF     C8 8689   0.954   2.976  -0.049  0.7708  0.3848 -0.5633
  488THF     C9 8690   0.919   3.101   0.034 -0.2884 -0.3034  0.0990
  488THF    H10 8691   0.939   3.000  -0.155 -2.8129 -0.4559 -0.3579
  488THF    H11 8692   1.057   2.941  -0.036  1.2361  0.6327 -2.9642
  488THF    H12 8693   1.008   3.151   0.072  0.5069 -1.0091 -0.7745
  488THF    H13 8694   0.865   3.173  -0.028 -0.9343  0.2114  1.2377
  489THF     O1 8695   0.803   3.320   0.690  0.1368  0.5967  0.1906
  489THF     C2 8696   0.742   3.422   0.765 -0.3754 -0.2700  0.0837
  489THF     C3 8697   0.774   3.347   0.555 -0.4796 -0.2681 -0.1121
  489THF     H4 8698   0.810   3.487   0.821 -0.4874  0.1863 -0.3026
  489THF     H5 8699   0.678   3.377   0.840 -1.8029  2.0676  0.3530
  489THF     H6 8700   0.870   3.337   0.505  0.3032  1.5284  0.9357
  489THF     H7 8701   0.702   3.278   0.512 -0.9864 -0.4110  0.9332
  489THF     C8 8702   0.735   3.498   0.552  0.1499  0.2851 -0.9882
  489THF     C9 8703   0.650   3.504   0.678 -0.5006 -0.3662  0.5515
  489THF    H10 8704   0.675   3.524   0.465 -1.0812 -1.3623 -0.6917
  489THF    H11 8705   0.822   3.563   0.547  0.2159  0.2156 -0.7442
  489THF    H12 8706   0.623   3.604   0.710 -1.4683 -0.4358 -0.0159
  489THF    H13 8707   0.564   3.440   0.658 -0.6216 -0.1774  0.4736
  490THF     O1 8708   4.178   4.010   0.704  0.2897  0.0183  0.0623
  490THF     C2 8709   4.140   3.897   0.625 -0.2136 -0.3023  0.2906
  490THF     C3 8710   4.263   3.972   0.810  0.6708 -0.3913  0.1667
  490THF     H4 8711   4.094   3.926   0.530 -0.6019 -0.0210  0.5653
  490THF     H5 8712   4.076   3.825   0.676  0.0909 -0.4771  0.4308
  490THF     H6 8713   4.333   4.044   0.854  2.4263 -2.5466  1.1586
  490THF     H7 8714   4.193   3.937   0.886 -1.4325  1.3020 -0.9033
  490THF     C8 8715   4.344   3.855   0.741 -0.1387 -0.7994  0.2525
  490THF     C9 8716   4.277   3.836   0.605 -0.6956 -0.1462  0.6960
  490THF    H10 8717   4.340   3.768   0.806  0.4239 -1.2214 -0.2690
  490THF    H11 8718   4.448   3.887   0.735  0.1142 -1.1673  2.1193
  490THF    H12 8719   4.329   3.883   0.521 -0.1566 -2.3206 -0.2712
  490THF    H13 8720   4.272   3.729   0.583  0.8918  0.0684 -0.9998
  491THF     O1 8721   2.315   3.382   2.556  0.0604  0.6821  0.1693
  491THF     C2 8722   2.258   3.385   2.427  0.0443 -0.1081  0.6296
  491THF     C3 8723   2.205   3.370   2.650  0.8013  0.4196 -0.4790
  491THF     H4 8724   2.335   3.375   2.351 -0.9863 -1.8355 -0.2499
  491THF     H5 8725   2.211   3.483   2.421  2.1497  0.8889 -1.0432
  491THF     H6 8726   2.237   3.320   2.741  0.6268 -0.4672 -0.8856
  491THF     H7 8727   2.160   3.465   2.677  1.3425  0.6481 -0.3575
  491THF     C8 8728   2.086   3.296   2.575  0.0734  0.1537  0.7287
  491THF     C9 8729   2.146   3.276   2.433 -0.0576  0.4936 -0.6796
  491THF    H10 8730   1.990   3.346   2.567 -1.2676 -2.1581  1.2310
  491THF    H11 8731   2.055   3.202   2.621  0.6921 -0.4671 -0.0922
  491THF    H12 8732   2.193   3.179   2.420 -0.0940  0.4281 -0.3136
  491THF    H13 8733   2.067   3.298   2.361 -2.6209 -1.6367  1.3261
  492THF     O1 8734   0.936   4.658   3.409  0.4737  0.3434  0.3259
  492THF     C2 8735   0.798   4.707   3.417 -0.4184  0.0760 -0.2208
  492THF     C3 8736   0.967   4.648   3.272  0.6977  0.0822 -0.1262
  492THF     H4 8737   0.788   4.763   3.511  0.2347  0.4989 -0.3979
  492THF     H5 8738   0.716   4.638   3.396 -2.2358  2.0076  0.1386
  492THF     H6 8739   1.072   4.636   3.244  0.5365 -1.6755 -0.1035
  492THF     H7 8740   0.915   4.560   3.233 -1.3346  0.7781  0.9015
  492THF     C8 8741   0.930   4.782   3.221  0.4003 -0.6594 -0.2409
  492THF     C9 8742   0.798   4.803   3.299  0.4435  0.9226  0.6296
  492THF    H10 8743   0.920   4.797   3.113  2.5189  0.5188 -0.3232
  492THF    H11 8744   1.007   4.847   3.262 -0.2892 -0.3182  0.5493
  492THF    H12 8745   0.792   4.903   3.343  4.1429  1.2270  0.7646
  492THF    H13 8746   0.710   4.786   3.237 -0.4993  1.1643  1.8681
  493THF     O1 8747   3.838   0.157   1.124 -0.5635 -0.2983 -0.2357
  493THF     C2 8748   3.708   0.090   1.132 -0.3190  0.7493  0.1508
  493THF     C3 8749   3.920   0.101   1.220  0.6572 -0.6139 -0.3098
  493THF     H4 8750   3.715   0.006   1.064 -0.2071  0.9881 -0.1368
  493THF     H5 8751   3.622   0.150   1.104 -0.0367 -0.1659 -3.1186
  493THF     H6 8752   3.970   0.009   1.190  0.1471 -0.6732 -1.0008
  493THF     H7 8753   4.009   0.158   1.244  1.4673 -1.6686 -0.7503
  493THF     C8 8754   3.833   0.080   1.341  0.8501  0.6829 -0.4896
  493THF     C9 8755   3.703   0.030   1.272 -0.5422 -0.0935 -0.7110
  493THF    H10 8756   3.820   0.167   1.406 -1.3155 -1.1473  1.6944
  493THF    H11 8757   3.869   0.003   1.409 -2.4617 -2.9387 -2.4124
  493THF    H12 8758   3.715  -0.078   1.274 -2.1194 -0.3135  2.0357
  493THF    H13 8759   3.628   0.058   1.346 -0.9628 -2.0304 -0.3546
  494THF     O1 8760   0.410   0.387   4.001  0.2262 -0.7915  0.7326
  494THF     C2 8761   0.314   0.472   3.942  0.3244  0.7856  0.7669
  494THF     C3 8762   0.515   0.372   3.910 -0.7796 -0.3900  0.4481
  494THF     H4 8763   0.267   0.536   4.017 -3.1886  0.3393 -0.8455
  494THF     H5 8764   0.230   0.421   3.895  1.8848 -0.1110 -1.1305
  494THF     H6 8765   0.603   0.340   3.966 -0.3413  0.9919  0.5851
  494THF     H7 8766   0.495   0.301   3.830  0.7205 -0.4328  0.0891
  494THF     C8 8767   0.536   0.510   3.862  0.6572 -0.6803  0.0764
  494THF     C9 8768   0.395   0.560   3.848 -0.5792 -0.4755 -0.6199
  494THF    H10 8769   0.582   0.511   3.764 -2.2344  0.9377 -1.4123
  494THF    H11 8770   0.591   0.564   3.939 -0.7093  0.9034  0.0071
  494THF    H12 8771   0.373   0.662   3.879 -2.4465 -0.9010 -0.3945
  494THF    H13 8772   0.359   0.555   3.745 -1.5016 -2.3141 -0.2522
  495THF     O1 8773   4.648   2.263   1.646 -0.0135 -0.1029  0.2590
  495THF     C2 8774   4.534   2.334   1.607  0.4728 -0.4269 -0.0520
  495THF     C3 8775   4.705   2.196   1.533  0.5563  0.0359  0.3531
  495THF     H4 8776   4.534   2.432   1.655  0.0079 -1.0538  1.2917
  495THF     H5 8777   4.446   2.281   1.644  0.5004  0.1741  0.9269
  495THF     H6 8778   4.799   2.246   1.512 -0.5092  0.6427 -3.7480
  495THF     H7 8779   4.713   2.087   1.541 -0.6264 -0.2511 -1.7180
  495THF     C8 8780   4.620   2.226   1.413  0.0101  0.6902  0.2011
  495THF     C9 8781   4.530   2.341   1.454  0.4017  0.0393  0.2447
  495THF    H10 8782   4.552   2.145   1.384 -0.0304  1.8357 -3.3669
  495THF    H11 8783   4.670   2.238   1.317 -2.9915 -1.3822 -1.8035
  495THF    H12 8784   4.574   2.432   1.411 -2.5147  1.2675 -0.3847
  495THF    H13 8785   4.428   2.334   1.417  0.3037  0.0442  0.5159
  496THF     O1 8786   2.259   2.992   0.773  0.1135  0.2316 -0.6317
  496THF     C2 8787   2.202   3.108   0.711  0.0002  0.3199  0.3280
  496THF     C3 8788   2.145   2.897   0.769  0.3701 -0.4272 -0.4118
  496THF     H4 8789   2.250   3.108   0.613  2.1639 -1.4932  1.2829
  496THF     H5 8790   2.243   3.195   0.762 -0.4468 -0.0210  1.2970
  496THF     H6 8791   2.130   2.846   0.673  0.3021 -2.3850  0.5886
  496THF     H7 8792   2.144   2.820   0.846  1.1173 -0.2829 -0.2499
  496THF     C8 8793   2.017   2.977   0.794 -0.4514  0.0366 -0.0568
  496THF     C9 8794   2.054   3.107   0.727 -0.3789  0.0350 -0.0095
  496THF    H10 8795   1.991   2.981   0.900  0.1654 -1.0131  0.1435
  496THF    H11 8796   1.936   2.929   0.740  1.9416 -2.5529 -1.5774
  496THF    H12 8797   2.006   3.111   0.629 -1.6538  0.2867  0.6065
  496THF    H13 8798   2.034   3.192   0.793  0.7524 -0.3279  0.8260
  497THF     O1 8799   3.001   1.632   2.518 -0.0153  0.0108  0.1848
  497THF     C2 8800   2.962   1.617   2.388 -0.5109 -0.7326 -0.0107
  497THF     C3 8801   2.982   1.769   2.552  0.0135  0.6335 -0.2724
  497THF     H4 8802   2.856   1.638   2.375  0.0060  1.2244 -1.5177
  497THF     H5 8803   2.979   1.513   2.361 -2.0350 -0.5908 -1.6945
  497THF     H6 8804   2.878   1.786   2.578 -1.1515 -1.4664 -3.0297
  497THF     H7 8805   3.039   1.795   2.641 -0.7831 -1.0162  0.7785
  497THF     C8 8806   3.032   1.843   2.423  0.3335  0.6853  0.0938
  497THF     C9 8807   3.048   1.730   2.324 -0.6053  0.6045  0.0730
  497THF    H10 8808   3.132   1.882   2.442  0.3948 -0.2618  1.9938
  497THF    H11 8809   2.960   1.919   2.394 -2.9441 -1.9728  0.5990
  497THF    H12 8810   3.018   1.766   2.225  1.2362 -0.1164 -0.7965
  497THF    H13 8811   3.154   1.706   2.327 -0.8335 -0.3607  1.0943
  498THF     O1 8812   3.851   5.100   3.005  0.0367  0.6436 -0.2089
  498THF     C2 8813   3.757   5.052   2.913 -0.1772 -0.2613  0.6566
  498THF     C3 8814   3.792   5.146   3.127  0.6166  0.3638  0.2450
  498THF     H4 8815   3.800   4.997   2.829  1.1956  1.8445 -0.1264
  498THF     H5 8816   3.701   5.136   2.872 -1.5724 -0.6352  1.7063
  498THF     H6 8817   3.854   5.129   3.215  2.3383 -0.6737 -1.1217
  498THF     H7 8818   3.765   5.251   3.118 -1.5062 -0.1833 -0.5428
  498THF     C8 8819   3.660   5.064   3.124  0.6484 -0.1894  0.3015
  498THF     C9 8820   3.664   4.975   3.003 -0.3706 -0.1190 -0.3864
  498THF    H10 8821   3.583   5.142   3.130  1.1701  0.2572  1.6676
  498THF    H11 8822   3.646   5.005   3.215  0.7687  0.6808  0.8986
  498THF    H12 8823   3.704   4.880   3.040 -1.8673 -0.5595  0.1556
  498THF    H13 8824   3.570   4.954   2.952  0.2628  1.4188 -2.3431
  499THF     O1 8825   0.393   0.640   1.497 -0.6572  0.1497 -0.5407
  499THF     C2 8826   0.537   0.623   1.491 -0.1372  0.2267 -0.3538
  499THF     C3 8827   0.367   0.778   1.493  0.6600 -0.0717 -0.6169
  499THF     H4 8828   0.554   0.597   1.387  4.8439  0.4167  0.1595
  499THF     H5 8829   0.574   0.540   1.551  0.1258  0.1108 -0.6745
  499THF     H6 8830   0.305   0.807   1.408 -1.7966  0.8627  1.3599
  499THF     H7 8831   0.319   0.811   1.585 -0.7665  0.6672 -1.5942
  499THF     C8 8832   0.510   0.841   1.481  0.1461  0.1981  0.0090
  499THF     C9 8833   0.607   0.741   1.547  0.4748  0.0540 -0.1637
  499THF    H10 8834   0.510   0.938   1.530 -0.9225  0.9370 -1.4081
  499THF    H11 8835   0.537   0.849   1.376  1.8582  0.4858  0.4341
  499THF    H12 8836   0.714   0.749   1.528  0.3528  2.3944 -0.0984
  499THF    H13 8837   0.607   0.746   1.655 -2.8828 -0.0906 -0.0726
  500THF     O1 8838   2.552   0.163   3.446  0.3491 -0.3324  0.0674
  500THF     C2 8839   2.519   0.025   3.468 -0.8861 -0.3504 -0.3923
  500THF     C3 8840   2.654   0.192   3.538 -0.5322 -0.6168 -0.7496
  500THF     H4 8841   2.462  -0.017   3.385  1.6958 -3.4322 -0.7904
  500THF     H5 8842   2.468   0.015   3.563 -2.0581  0.5909 -0.8888
  500THF     H6 8843   2.705   0.287   3.520  0.0516 -0.8831 -0.5191
  500THF     H7 8844   2.622   0.186   3.642 -0.2045 -0.8779 -0.6643
  500THF     C8 8845   2.755   0.073   3.522  0.1846  0.2088  0.0573
  500THF     C9 8846   2.659  -0.037   3.468 -0.6707  0.4333 -0.6219
  500THF    H10 8847   2.805   0.035   3.611 -1.4137  0.1877  0.9857
  500THF    H11 8848   2.827   0.093   3.442 -1.2566  1.8389 -0.9156
  500THF    H12 8849   2.694  -0.044   3.365  0.7557  0.6587 -0.1754
  500THF    H13 8850   2.668  -0.131   3.521  1.7416  1.2674  0.5726
  501THF     O1 8851   0.852   2.602   4.978  0.0465 -0.1076 -0.1277
  501THF     C2 8852   0.762   2.644   5.084 -0.0564  0.6470 -0.7013
  501THF     C3 8853   0.961   2.522   5.037  0.6969 -0.1057 -0.3090
  501THF     H4 8854   0.695   2.566   5.120 -0.7455  1.0109 -1.1950
  501THF     H5 8855   0.709   2.729   5.041  0.1503  1.6225  0.8662
  501THF     H6 8856   0.938   2.415   5.039 -2.1577  0.3525 -1.9811
  501THF     H7 8857   1.061   2.527   4.994  0.5588  0.5738 -0.5705
  501THF     C8 8858   0.959   2.570   5.187  0.2087  0.4905  0.1849
  501THF     C9 8859   0.857   2.678   5.196 -0.1283  0.2220 -0.5940
  501THF    H10 8860   1.059   2.592   5.223  0.6074  1.1985 -1.2700
  501THF    H11 8861   0.920   2.488   5.248 -0.3662  1.3834  1.0494
  501THF    H12 8862   0.802   2.674   5.290  0.5786  1.6318 -0.0960
  501THF    H13 8863   0.920   2.767   5.192  3.3677 -2.1051 -1.9037
  502THF     O1 8864   4.303   4.365   2.759  0.3314  0.7325 -0.1342
  502THF     C2 8865   4.310   4.497   2.791  0.0253 -0.1084 -1.1310
  502THF     C3 8866   4.355   4.291   2.869 -0.5419 -0.2958 -0.1214
  502THF     H4 8867   4.237   4.525   2.867  0.7906 -0.3957 -0.2711
  502THF     H5 8868   4.304   4.549   2.695  0.6365 -0.8849 -1.6020
  502THF     H6 8869   4.298   4.298   2.962 -0.4279  0.8019 -0.1248
  502THF     H7 8870   4.372   4.186   2.848 -0.2544  0.0017 -1.4676
  502THF     C8 8871   4.478   4.375   2.920  0.6104  0.1968  0.7599
  502THF     C9 8872   4.445   4.513   2.863  0.0620  0.0503 -0.2433
  502THF    H10 8873   4.571   4.341   2.875  0.4057 -0.7804  1.0473
  502THF    H11 8874   4.496   4.369   3.028 -1.1618  1.4484  1.1637
  502THF    H12 8875   4.439   4.580   2.949  0.2387 -2.5816  1.9758
  502THF    H13 8876   4.526   4.544   2.798 -0.7064  1.4499 -0.5784
  503THF     O1 8877   3.801   1.166   1.077  0.5012 -0.1167  0.4377
  503THF     C2 8878   3.656   1.154   1.094  0.2983  0.4457  0.2014
  503THF     C3 8879   3.843   1.273   1.165 -0.0235 -0.3926  0.9556
  503THF     H4 8880   3.635   1.101   1.186 -4.0070 -0.3924 -1.0492
  503THF     H5 8881   3.622   1.089   1.014  1.9593 -0.1743 -0.0410
  503THF     H6 8882   3.841   1.232   1.266  1.0274 -0.4076  0.9760
  503THF     H7 8883   3.940   1.312   1.134 -1.1245  0.0218 -2.4116
  503THF     C8 8884   3.731   1.379   1.153  0.4020  0.5370 -0.2046
  503THF     C9 8885   3.610   1.297   1.099 -0.0814  0.1036  0.4461
  503THF    H10 8886   3.747   1.460   1.083 -1.3794  0.4416 -0.7746
  503THF    H11 8887   3.704   1.421   1.250 -1.0194 -1.1865  0.2040
  503THF    H12 8888   3.513   1.294   1.148  0.1741  0.9634  1.0161
  503THF    H13 8889   3.591   1.338   1.000  1.1258  2.9446  1.2847
  504THF     O1 8890   1.443   1.059   2.187  0.3041 -0.0239  0.3728
  504THF     C2 8891   1.351   0.971   2.118  0.0039 -1.0114 -0.1300
  504THF     C3 8892   1.380   1.186   2.190 -0.0892  0.2129 -0.9795
  504THF     H4 8893   1.294   0.936   2.205  1.4115 -1.3723  0.6725
  504THF     H5 8894   1.392   0.883   2.069  1.0287 -1.1657  0.9733
  504THF     H6 8895   1.312   1.201   2.274  0.4833 -0.3842 -0.3956
  504THF     H7 8896   1.466   1.252   2.203 -0.3024  0.3308 -0.1178
  504THF     C8 8897   1.321   1.199   2.052  0.1316 -0.1574 -0.3917
  504THF     C9 8898   1.264   1.068   2.026  0.3903 -0.4606 -0.1791
  504THF    H10 8899   1.400   1.210   1.977  1.1709  1.6939  0.8730
  504THF    H11 8900   1.252   1.283   2.039 -1.3092 -1.2359  0.0405
  504THF    H12 8901   1.158   1.062   2.053 -0.2921 -0.7499 -2.6923
  504THF    H13 8902   1.270   1.037   1.922 -1.7137 -0.9479 -0.2081
  505THF     O1 8903   5.005   4.772   1.504 -0.3911 -0.2254  0.7219
  505THF     C2 8904   5.090   4.850   1.423 -0.1371 -0.4522  0.2510
  505THF     C3 8905   4.893   4.737   1.427  0.2216 -0.8090  0.4906
  505THF     H4 8906   5.159   4.786   1.367 -0.5312 -0.3486 -0.3603
  505THF     H5 8907   5.148   4.924   1.478 -0.8573  1.1490 -1.0448
  505THF     H6 8908   4.920   4.652   1.364 -0.0236 -1.4895  1.2822
  505THF     H7 8909   4.805   4.710   1.485  0.3311 -1.5100  0.3397
  505THF     C8 8910   4.877   4.860   1.342  0.8122 -0.3277 -0.3056
  505THF     C9 8911   5.006   4.924   1.321 -0.8821 -0.4141  0.5985
  505THF    H10 8912   4.813   4.923   1.403  0.6267  1.2952 -2.0823
  505THF    H11 8913   4.826   4.855   1.246  0.3063 -0.2171 -0.0402
  505THF    H12 8914   5.032   4.900   1.217  0.1668  0.8346  0.5441
  505THF    H13 8915   5.013   5.031   1.336  0.2962 -0.1946 -1.2055
  506THF     O1 8916   0.928   0.540   3.603 -0.2178 -0.1948 -0.3228
  506THF     C2 8917   0.799   0.609   3.575 -0.7878  0.2087  0.4609
  506THF     C3 8918   0.976   0.576   3.735  0.8492 -0.5148  0.0795
  506THF     H4 8919   0.720   0.535   3.561 -0.9085  0.0944  1.6572
  506THF     H5 8920   0.821   0.661   3.482  0.8845  1.6370  1.5782
  506THF     H6 8921   1.007   0.493   3.799 -0.8156 -1.2237 -0.0035
  506THF     H7 8922   1.062   0.643   3.735 -0.4651  1.4132  3.2499
  506THF     C8 8923   0.864   0.665   3.797 -0.0845 -1.2056  0.1863
  506THF     C9 8924   0.773   0.714   3.688 -0.5785  0.0523 -0.1684
  506THF    H10 8925   0.893   0.738   3.872 -0.2421 -0.2353 -0.6764
  506THF    H11 8926   0.803   0.595   3.854 -0.5963  0.0255  1.1888
  506THF    H12 8927   0.669   0.729   3.716  0.1677  1.4172  2.1183
  506THF    H13 8928   0.813   0.810   3.657 -0.9686  0.8839  1.7509
  507THF     O1 8929   4.545   1.320   4.644  0.5425 -0.1477  0.2836
  507THF     C2 8930   4.493   1.266   4.522  0.2907  0.0003  0.5310
  507THF     C3 8931   4.683   1.303   4.645  0.3618  0.0684 -0.1005
  507THF     H4 8932   4.500   1.337   4.440  0.2548  0.3001  0.7830
  507THF     H5 8933   4.391   1.236   4.546 -0.7249  1.8874 -1.1731
  507THF     H6 8934   4.738   1.377   4.588 -1.0996  2.7807  1.8129
  507THF     H7 8935   4.709   1.334   4.746 -0.2085  0.7305 -0.1515
  507THF     C8 8936   4.699   1.157   4.602 -0.5277  0.2039 -0.0137
  507THF     C9 8937   4.581   1.144   4.497 -0.0358  0.0655 -0.9845
  507THF    H10 8938   4.678   1.092   4.687 -0.3256  1.1442  0.7643
  507THF    H11 8939   4.800   1.143   4.562 -1.3257 -2.9410 -1.2505
  507THF    H12 8940   4.618   1.148   4.395  2.5100  4.7903 -0.1875
  507THF    H13 8941   4.531   1.050   4.522 -0.9083 -0.0121 -2.8565
  508THF     O1 8942   1.681   1.203   3.548  0.1766  0.1309 -0.1950
  508THF     C2 8943   1.696   1.086   3.630  0.3041  0.0043  0.2635
  508THF     C3 8944   1.694   1.160   3.419  0.7952  0.0649  0.2823
  508THF     H4 8945   1.593   1.054   3.649  0.6548 -2.7542 -1.8695
  508THF     H5 8946   1.738   1.100   3.730  0.1883  0.4850  0.2478
  508THF     H6 8947   1.598   1.121   3.384  0.4024  0.8567  0.4667
  508THF     H7 8948   1.728   1.235   3.347  2.3311 -1.1848 -0.3612
  508THF     C8 8949   1.805   1.058   3.428  0.1118 -0.3688 -0.2651
  508THF     C9 8950   1.760   0.977   3.547  0.3008  0.6471  0.4068
  508THF    H10 8951   1.897   1.113   3.448 -0.9356  0.7818  1.7032
  508THF    H11 8952   1.825   1.003   3.335 -0.3457  0.7456 -1.0496
  508THF    H12 8953   1.686   0.906   3.510 -1.0864  2.0966  0.2784
  508THF    H13 8954   1.839   0.929   3.605 -0.4495 -0.2477  0.7182
  509THF     O1 8955   2.622   4.793   1.358 -0.2888 -0.4300 -0.1921
  509THF     C2 8956   2.736   4.707   1.348 -0.0792  0.3780  0.0256
  509THF     C3 8957   2.672   4.927   1.382 -0.7581 -0.5662 -0.2273
  509THF     H4 8958   2.780   4.722   1.250 -0.2082  3.1167  0.3303
  509THF     H5 8959   2.716   4.600   1.353 -0.6110  0.5090  1.0088
  509THF     H6 8960   2.716   4.962   1.289  2.5762  0.1363  1.4424
  509THF     H7 8961   2.590   4.995   1.402  0.2752  0.9197 -0.8410
  509THF     C8 8962   2.788   4.900   1.490  0.3183  0.0852  0.4679
  509THF     C9 8963   2.837   4.760   1.449 -0.1747 -0.5410 -0.0080
  509THF    H10 8964   2.729   4.894   1.581  2.1380  0.4429  1.7186
  509THF    H11 8965   2.869   4.973   1.493  0.5572 -0.0772 -1.0501
  509THF    H12 8966   2.936   4.766   1.403  0.1023  0.1689  0.6399
  509THF    H13 8967   2.844   4.698   1.538 -0.0313  1.5125  1.5046
  510THF     O1 8968   4.224   3.112   5.181 -0.1540 -0.3557  0.4275
  510THF     C2 8969   4.163   2.993   5.221 -0.5274  0.3558  0.2405
  510THF     C3 8970   4.159   3.148   5.060  1.1514 -0.3074 -0.3129
  510THF     H4 8971   4.192   2.959   5.321  0.8928 -0.7929 -0.5238
  510THF     H5 8972   4.207   2.916   5.158 -1.6446 -1.3794  1.5094
  510THF     H6 8973   4.160   3.254   5.035 -2.6687 -0.0689  0.0488
  510THF     H7 8974   4.206   3.092   4.979 -0.9048 -1.9429 -0.4421
  510THF     C8 8975   4.008   3.115   5.079 -0.3570  0.0190  0.1044
  510THF     C9 8976   4.021   3.005   5.182 -0.6059  0.0263  0.1203
  510THF    H10 8977   3.965   3.078   4.986  0.2653  1.4996 -0.8147
  510THF    H11 8978   3.955   3.197   5.128 -1.5203 -0.2100 -0.7220
  510THF    H12 8979   3.956   3.044   5.260 -2.5553  1.5526 -2.1372
  510THF    H13 8980   3.982   2.908   5.149  1.0579  0.0132 -2.0012
  511THF     O1 8981   2.500   0.084   1.646 -0.1457 -0.5868  0.0268
  511THF     C2 8982   2.404   0.094   1.749  0.2426  0.0871 -0.7251
  511THF     C3 8983   2.547   0.212   1.618  0.1567 -0.5715  0.6491
  511THF     H4 8984   2.389  -0.003   1.797  1.1351  1.4782  2.6916
  511THF     H5 8985   2.312   0.136   1.708 -0.6792  0.8675  1.9170
  511THF     H6 8986   2.642   0.197   1.567  0.6716  1.2017  1.0031
  511THF     H7 8987   2.476   0.277   1.567 -1.1220 -2.1748  0.2938
  511THF     C8 8988   2.557   0.276   1.759 -0.7822  0.2453  0.2482
  511THF     C9 8989   2.460   0.198   1.849 -0.1776  0.0068 -0.0604
  511THF    H10 8990   2.530   0.381   1.768  2.7324  1.6149 -2.6264
  511THF    H11 8991   2.660   0.261   1.793 -0.4483 -1.8775 -1.4590
  511THF    H12 8992   2.513   0.149   1.931 -0.9311  0.9562  1.0288
  511THF    H13 8993   2.388   0.266   1.894 -0.6677 -1.4194  1.4187
  512THF     O1 8994   1.987   4.167   3.749 -0.4605 -0.2139  0.2590
  512THF     C2 8995   1.958   4.035   3.695 -0.5978 -0.1225 -0.0380
  512THF     C3 8996   1.952   4.254   3.638 -0.2227 -0.1479 -0.6105
  512THF     H4 8997   1.946   3.958   3.771 -0.6723  0.4272  0.5146
  512THF     H5 8998   2.043   4.000   3.636 -0.1623  1.0145 -0.1130
  512THF     H6 8999   1.935   4.354   3.678 -1.2281 -0.5362 -0.0281
  512THF     H7 9000   2.032   4.263   3.565  0.5232 -1.2035  0.0492
  512THF     C8 9001   1.823   4.192   3.573 -0.3952  0.0569 -0.4191
  512THF     C9 9002   1.837   4.044   3.605 -0.2768  0.1375 -0.1071
  512THF    H10 9003   1.844   4.212   3.468  1.2045  1.2647  0.0801
  512THF    H11 9004   1.719   4.218   3.595 -1.7249 -3.1659 -2.3108
  512THF    H12 9005   1.742   4.019   3.653 -0.6656  1.6269 -0.0428
  512THF    H13 9006   1.838   3.980   3.517 -0.8641  0.1557 -0.1310
  513THF     O1 9007   5.053   3.136   4.187  1.3002  0.3308  0.1449
  513THF     C2 9008   5.108   3.179   4.312  0.2912  0.5185 -0.7207
  513THF     C3 9009   4.933   3.209   4.154  0.0520  0.2229  0.7603
  513THF     H4 9010   5.211   3.150   4.334  0.7752  2.1608 -0.6847
  513THF     H5 9011   5.045   3.146   4.394  1.7789  0.0989  0.3065
  513THF     H6 9012   4.906   3.206   4.049  2.2110 -3.5717  0.1189
  513THF     H7 9013   4.856   3.173   4.222 -1.0046  0.6132 -0.2029
  513THF     C8 9014   4.974   3.350   4.200  0.1547  0.1039 -0.0700
  513THF     C9 9015   5.091   3.329   4.293  0.7001 -0.1497 -0.8893
  513THF    H10 9016   4.890   3.410   4.235  0.3201  0.1975  0.1663
  513THF    H11 9017   5.015   3.396   4.110 -1.9340  1.6274 -0.3254
  513THF    H12 9018   5.186   3.365   4.254  2.7386 -0.8715  2.9380
  513THF    H13 9019   5.064   3.377   4.388  0.3503 -1.1275 -0.4846
  514THF     O1 9020   5.358   2.824   1.099 -0.4926  0.5595 -1.0235
  514THF     C2 9021   5.226   2.852   1.076  0.7417  0.1781  0.2493
  514THF     C3 9022   5.358   2.797   1.243 -0.4588 -1.0118 -0.9806
  514THF     H4 9023   5.198   2.856   0.971 -1.2207  1.5706  0.7670
  514THF     H5 9024   5.212   2.955   1.110 -2.4641  0.1073 -0.4973
  514THF     H6 9025   5.426   2.713   1.258 -0.2298 -0.6101  0.3345
  514THF     H7 9026   5.393   2.884   1.299 -1.9191 -0.0695 -1.4782
  514THF     C8 9027   5.218   2.769   1.290  0.1807 -0.2602  0.2352
  514THF     C9 9028   5.144   2.752   1.159  0.6728  0.3980  0.1879
  514THF    H10 9029   5.192   2.861   1.342  0.0930  0.3343 -0.8377
  514THF    H11 9030   5.215   2.683   1.357 -1.6696  0.3613  1.0036
  514THF    H12 9031   5.143   2.649   1.122  1.1510  0.5015 -0.1253
  514THF    H13 9032   5.040   2.785   1.168  0.6959  0.3955  0.4494
  515THF     O1 9033   5.493   3.185   2.356  0.6662 -0.1421  0.0991
  515THF     C2 9034   5.369   3.152   2.293 -0.2438  0.1967 -0.3077
  515THF     C3 9035   5.493   3.320   2.395  0.5349 -0.3665 -0.5059
  515THF     H4 9036   5.378   3.044   2.308 -1.4042  0.4175  2.5911
  515THF     H5 9037   5.366   3.188   2.190  1.7791  1.4485  0.0128
  515THF     H6 9038   5.566   3.346   2.472 -0.9739  3.5521 -0.2197
  515THF     H7 9039   5.502   3.399   2.320  1.3673  1.2132  1.2109
  515THF     C8 9040   5.354   3.322   2.463  0.9906  0.7973 -0.4186
  515THF     C9 9041   5.265   3.230   2.375  0.0961 -0.2755 -0.4407
  515THF    H10 9042   5.316   3.420   2.490 -1.3471 -0.5889  1.7342
  515THF    H11 9043   5.368   3.273   2.559  1.0119  1.8523  0.1280
  515THF    H12 9044   5.193   3.173   2.434 -1.2666  1.1383 -0.6423
  515THF    H13 9045   5.196   3.293   2.318  0.7216  0.5182 -0.3331
  516THF     O1 9046   1.521   4.566   0.490  0.0857 -0.3125  0.5559
  516THF     C2 9047   1.554   4.545   0.355 -1.0803  0.4917  0.0397
  516THF     C3 9048   1.403   4.641   0.511 -0.0914 -0.3800 -0.8125
  516THF     H4 9049   1.491   4.462   0.325 -2.7623  1.9720 -0.6703
  516THF     H5 9050   1.660   4.520   0.345 -1.4514 -0.8428 -0.7013
  516THF     H6 9051   1.306   4.591   0.509  0.7116 -1.9668 -1.2598
  516THF     H7 9052   1.401   4.711   0.595  1.7334 -0.1087 -0.9521
  516THF     C8 9053   1.403   4.734   0.393  0.1838  0.4986 -0.5768
  516THF     C9 9054   1.509   4.679   0.294  0.1832 -0.2146  0.0487
  516THF    H10 9055   1.438   4.830   0.432  2.2637 -0.9290  1.4104
  516THF    H11 9056   1.302   4.732   0.353  0.3628  0.0961 -1.0239
  516THF    H12 9057   1.487   4.674   0.187  0.7219 -0.0820 -0.0727
  516THF    H13 9058   1.590   4.752   0.297  1.9704 -2.1188  1.1167
  517THF     O1 9059   3.087   2.002   3.812 -0.1238 -0.0076 -0.4417
  517THF     C2 9060   3.086   2.006   3.956 -0.0578 -0.3317 -0.1660
  517THF     C3 9061   3.015   1.882   3.779  0.6004  0.5752 -0.1853
  517THF     H4 9062   2.993   2.048   3.996  1.0128  1.4786  0.5547
  517THF     H5 9063   3.153   2.084   3.991 -2.1211  1.6365 -0.3728
  517THF     H6 9064   2.909   1.904   3.795  0.6591  1.9382 -1.4951
  517THF     H7 9065   3.031   1.837   3.681  0.5857  0.0363  0.0573
  517THF     C8 9066   3.067   1.776   3.886  0.6389 -0.3889 -0.0281
  517THF     C9 9067   3.123   1.863   4.000  0.7365 -0.1844  0.4246
  517THF    H10 9068   3.155   1.726   3.848  2.8778  1.5528  2.2743
  517THF    H11 9069   2.992   1.705   3.921 -0.2939  0.6236  0.0917
  517THF    H12 9070   3.068   1.830   4.088  2.0492 -0.8167  1.0512
  517THF    H13 9071   3.230   1.850   4.016  0.7730  0.3430  0.6205
  518THF     O1 9072   1.007   5.028   0.883 -0.0316 -1.1604  0.8833
  518THF     C2 9073   0.989   5.052   0.743 -0.1130 -0.2278 -0.0110
  518THF     C3 9074   1.141   5.033   0.927  0.8177 -0.3673  0.1410
  518THF     H4 9075   0.948   5.153   0.743 -2.0948 -0.9998 -0.8892
  518THF     H5 9076   0.928   4.975   0.697  2.1195 -2.5225  0.6210
  518THF     H6 9077   1.170   5.132   0.963 -0.9590  0.2680 -0.0819
  518THF     H7 9078   1.157   4.951   0.997  0.3461 -0.3522  0.2709
  518THF     C8 9079   1.218   5.012   0.794 -0.4863 -0.1232  0.2560
  518THF     C9 9080   1.127   5.062   0.681  0.1872  0.4384  1.0073
  518THF    H10 9081   1.250   4.908   0.780  1.4225  0.5720 -0.8935
  518THF    H11 9082   1.308   5.073   0.794 -1.7865  1.8534  0.1993
  518THF    H12 9083   1.154   5.165   0.658  0.6995  0.5015  1.8617
  518THF    H13 9084   1.125   5.010   0.585 -1.4478  1.5530  0.3940
  519THF     O1 9085   1.473   3.750   0.158  0.3231 -0.4495 -0.2305
  519THF     C2 9086   1.355   3.788   0.096 -0.1157 -0.4569  0.1186
  519THF     C3 9087   1.448   3.693   0.284 -0.0957  0.1748  0.4410
  519THF     H4 9088   1.301   3.720   0.031 -0.5003  2.1442 -2.4561
  519THF     H5 9089   1.371   3.870   0.027  0.4367 -1.5904 -1.1473
  519THF     H6 9090   1.435   3.586   0.270 -1.8676  0.1529  1.8591
  519THF     H7 9091   1.533   3.703   0.351 -1.1538  0.2232  1.8254
  519THF     C8 9092   1.314   3.744   0.334  0.2449  0.2352  0.2248
  519THF     C9 9093   1.272   3.839   0.218  0.1664  0.7269 -0.6697
  519THF    H10 9094   1.304   3.766   0.440 -0.4335  0.9911  0.0140
  519THF    H11 9095   1.240   3.665   0.320 -0.5190  0.4458  2.5673
  519THF    H12 9096   1.163   3.844   0.210 -0.0157 -0.2574  0.8478
  519THF    H13 9097   1.302   3.942   0.238 -0.6924  0.5499  1.8973
  520THF     O1 9098   4.065   4.727   1.829 -0.2037  0.1887  0.0714
  520THF     C2 9099   4.117   4.767   1.706 -0.1242  0.1023  0.6391
  520THF     C3 9100   3.956   4.806   1.852 -0.1271 -0.1084 -0.6384
  520THF     H4 9101   4.082   4.708   1.620 -0.9685 -0.1759  1.1574
  520THF     H5 9102   4.225   4.761   1.698 -0.2547  0.1909 -2.5306
  520THF     H6 9103   3.862   4.752   1.864 -1.7604  2.2907 -1.6973
  520THF     H7 9104   3.959   4.861   1.946  1.0150 -1.9043  0.4427
  520THF     C8 9105   3.935   4.894   1.732 -0.4290  0.3280 -0.4440
  520THF     C9 9106   4.076   4.909   1.683  0.4368 -0.1531 -0.3371
  520THF    H10 9107   3.890   4.993   1.745 -0.4227  0.3371 -0.4913
  520THF    H11 9108   3.877   4.840   1.657  0.4558  0.8288 -1.5109
  520THF    H12 9109   4.082   4.935   1.577  4.5796  0.2868 -0.1460
  520THF    H13 9110   4.120   4.990   1.741 -0.2402  1.3539 -1.8300
  521THF     O1 9111   0.933   0.724   2.229 -0.1027  0.4111 -0.3761
  521THF     C2 9112   0.901   0.746   2.365  0.9627 -0.3432  0.1162
  521THF     C3 9113   0.978   0.844   2.162 -0.1424  0.0067 -0.4169
  521THF     H4 9114   0.984   0.757   2.435  0.5776  1.4471  0.3385
  521THF     H5 9115   0.837   0.667   2.404 -0.0526 -0.5479 -1.8582
  521THF     H6 9116   1.087   0.843   2.168 -0.2029 -1.2588  1.2981
  521THF     H7 9117   0.942   0.834   2.060 -0.6555 -0.4887 -0.1877
  521THF     C8 9118   0.898   0.951   2.239  0.4220 -0.4619 -0.2831
  521THF     C9 9119   0.841   0.889   2.361 -0.4543 -0.2727 -0.2250
  521THF    H10 9120   0.815   0.984   2.177  2.0180 -0.2841 -2.4307
  521THF    H11 9121   0.963   1.034   2.268  1.3738 -1.6291  1.0490
  521THF    H12 9122   0.864   0.943   2.453  1.6595 -0.8328 -0.3730
  521THF    H13 9123   0.734   0.873   2.364 -0.1653 -2.4084  0.7163
  522THF     O1 9124   3.725   2.439   3.295 -0.0089  0.2424 -0.8189
  522THF     C2 9125   3.763   2.366   3.180 -0.1633 -0.2393  1.1708
  522THF     C3 9126   3.587   2.449   3.308  0.0445 -0.2797  0.0608
  522THF     H4 9127   3.805   2.272   3.214 -1.9247 -1.3321  0.4659
  522THF     H5 9128   3.843   2.419   3.128  0.8258 -0.1866  2.6969
  522THF     H6 9129   3.550   2.434   3.410 -2.3314 -0.8934 -0.8271
  522THF     H7 9130   3.549   2.548   3.280 -0.2789 -0.5170 -0.3528
  522THF     C8 9131   3.541   2.337   3.216 -0.0728 -0.4114  0.3727
  522THF     C9 9132   3.639   2.337   3.101  0.8981 -0.7942  0.1536
  522THF    H10 9133   3.437   2.352   3.188  0.0780 -0.1304 -0.0384
  522THF    H11 9134   3.536   2.235   3.255  0.4876 -1.4560 -2.1326
  522THF    H12 9135   3.635   2.244   3.043 -0.1139 -2.4450  2.7026
  522THF    H13 9136   3.613   2.428   3.048 -2.4495  0.0549  2.8917
  523THF     O1 9137   3.277   3.666   1.510  0.1553 -0.3288  0.4217
  523THF     C2 9138   3.187   3.670   1.619 -0.3427 -0.3109  0.5317
  523THF     C3 9139   3.200   3.645   1.389 -0.2269 -0.1560 -0.1337
  523THF     H4 9140   3.135   3.766   1.621 -1.6509 -0.9870  0.2726
  523THF     H5 9141   3.229   3.661   1.719  1.3299 -1.0237 -0.2009
  523THF     H6 9142   3.156   3.740   1.358 -1.2008 -0.2123  1.0212
  523THF     H7 9143   3.255   3.615   1.299  1.1961  2.7327 -0.3402
  523THF     C8 9144   3.098   3.542   1.434 -0.1179  0.2587 -0.4100
  523THF     C9 9145   3.094   3.555   1.583 -0.7894  0.8726  0.5067
  523THF    H10 9146   3.122   3.439   1.410  0.8693  0.3527  0.1179
  523THF    H11 9147   2.999   3.567   1.397 -0.7228  1.4846  1.8315
  523THF    H12 9148   2.992   3.566   1.620 -1.1378 -2.3738  0.8180
  523THF    H13 9149   3.136   3.463   1.623 -0.4873  0.3289 -0.9787
  524THF     O1 9150   3.832   3.090   1.968 -0.3538 -0.2256  0.1717
  524THF     C2 9151   3.858   2.986   1.868 -0.6013 -0.4679 -0.1266
  524THF     C3 9152   3.691   3.108   1.973  0.2643 -0.4608  0.0223
  524THF     H4 9153   3.839   2.896   1.926  2.0011 -0.8025  0.3101
  524THF     H5 9154   3.962   2.989   1.834  0.0067 -2.6576  1.2857
  524THF     H6 9155   3.643   3.076   2.066  1.1030 -1.8946  0.0075
  524THF     H7 9156   3.678   3.216   1.971  1.3611 -0.2957  0.7446
  524THF     C8 9157   3.633   3.045   1.851  0.1822 -0.2322  0.2724
  524THF     C9 9158   3.751   3.018   1.768 -0.1998  0.2868  0.2847
  524THF    H10 9159   3.552   3.104   1.807 -0.4901 -1.7566 -0.5836
  524THF    H11 9160   3.586   2.950   1.874  0.8675 -1.5756 -3.2857
  524THF    H12 9161   3.731   2.937   1.698 -1.3089  2.0830 -1.6067
  524THF    H13 9162   3.780   3.107   1.712  0.0283 -1.1222 -1.9548
  525THF     O1 9163   4.625   3.364   5.127  0.3004 -0.1089 -0.3263
  525THF     C2 9164   4.754   3.339   5.071  0.4003 -0.4795 -0.3875
  525THF     C3 9165   4.551   3.440   5.028  0.3300  0.0745 -0.2748
  525THF     H4 9166   4.754   3.249   5.009  1.1948 -1.3827  0.8570
  525THF     H5 9167   4.828   3.315   5.147  2.3983 -1.1334 -2.4167
  525THF     H6 9168   4.489   3.370   4.972 -0.1337  0.0642  0.2412
  525THF     H7 9169   4.471   3.503   5.067 -1.6571 -0.8759 -2.5619
  525THF     C8 9170   4.655   3.516   4.946 -0.3080  0.3842 -0.0033
  525THF     C9 9171   4.795   3.467   4.989  0.2691  0.2825  0.4357
  525THF    H10 9172   4.644   3.624   4.957 -0.3398  0.3693  0.1196
  525THF    H11 9173   4.643   3.492   4.841 -2.3492  2.0156 -0.2032
  525THF    H12 9174   4.873   3.446   4.916 -2.0798 -0.6821 -2.0224
  525THF    H13 9175   4.837   3.541   5.057 -0.8752  0.3490  1.0985
  526THF     O1 9176   3.517   4.289   1.131  0.1773  0.6198 -0.3028
  526THF     C2 9177   3.488   4.354   1.248 -0.2760 -1.0103 -0.4414
  526THF     C3 9178   3.388   4.243   1.088 -1.3077  0.2689 -0.3739
  526THF     H4 9179   3.569   4.425   1.264  0.6556 -1.4508 -2.8197
  526THF     H5 9180   3.468   4.276   1.321  1.7228 -1.1129  0.0676
  526THF     H6 9181   3.400   4.203   0.988  0.9552  0.2794 -0.1805
  526THF     H7 9182   3.353   4.162   1.152  0.3494 -0.2558 -0.0598
  526THF     C8 9183   3.308   4.371   1.099  0.0931 -0.1368 -1.1237
  526THF     C9 9184   3.356   4.434   1.231  0.5246  0.4172 -0.4786
  526THF    H10 9185   3.202   4.370   1.075  0.2199  0.0076 -1.7004
  526THF    H11 9186   3.350   4.435   1.022 -0.3554  0.6213 -0.7536
  526THF    H12 9187   3.375   4.541   1.221  0.3570  0.3967 -1.0917
  526THF    H13 9188   3.287   4.408   1.311 -0.4806  3.0514 -0.3966
  527THF     O1 9189   0.101   4.357   5.164 -0.0498  0.3000  0.5413
  527THF     C2 9190   0.040   4.230   5.186  0.2226  0.3792  0.1669
  527THF     C3 9191   0.237   4.360   5.195  0.0010 -0.0984  0.0105
  527THF     H4 9192   0.038   4.169   5.096  2.1515  0.7494 -0.1794
  527THF     H5 9193  -0.052   4.262   5.234  0.3963  1.3763 -0.1352
  527THF     H6 9194   0.300   4.307   5.124 -0.1293 -1.5830  0.9637
  527THF     H7 9195   0.273   4.458   5.228 -0.8095  0.3995 -0.5620
  527THF     C8 9196   0.243   4.271   5.317 -0.0184  0.1699 -0.2488
  527THF     C9 9197   0.139   4.161   5.282  0.9600 -0.0721  0.4316
  527THF    H10 9198   0.207   4.323   5.405 -0.3292  1.4830 -1.1193
  527THF    H11 9199   0.345   4.238   5.336 -0.2636 -1.3980 -1.3554
  527THF    H12 9200   0.197   4.089   5.224  2.4556  1.6908 -0.3582
  527THF    H13 9201   0.097   4.111   5.369 -0.3385  0.1166 -0.0600
  528THF     O1 9202   3.948   2.641   1.995  0.5057  0.5768  0.0762
  528THF     C2 9203   3.907   2.521   2.060 -0.5138 -0.2403  0.7257
  528THF     C3 9204   3.994   2.612   1.865  0.4696  0.6058 -0.0603
  528THF     H4 9205   3.799   2.509   2.062 -0.2497 -4.1287  2.7798
  528THF     H5 9206   3.942   2.527   2.164  2.7946 -2.4256 -0.0910
  528THF     H6 9207   3.916   2.587   1.793  2.2954 -2.1690 -1.2647
  528THF     H7 9208   4.054   2.686   1.813  0.7043  0.8939  0.6031
  528THF     C8 9209   4.062   2.484   1.886 -0.2033 -0.0622 -0.6686
  528THF     C9 9210   3.963   2.415   1.972 -0.6824  0.1164  0.5411
  528THF    H10 9211   4.158   2.509   1.931 -1.3504  1.5598  1.0261
  528THF    H11 9212   4.078   2.424   1.797  0.0552  1.5275 -1.7372
  528THF    H12 9213   3.883   2.377   1.908 -0.4797  0.0658  0.3156
  528THF    H13 9214   4.008   2.325   2.015  1.1915  0.6813 -0.1158
  529THF     O1 9215   2.705   2.000   2.840  0.0723  0.5238 -0.4030
  529THF     C2 9216   2.703   2.034   2.977 -0.8035  0.1759  0.1690
  529THF     C3 9217   2.634   2.099   2.759 -0.8801 -0.5133 -0.4292
  529THF     H4 9218   2.791   1.993   3.026  0.2721 -0.8086 -2.4272
  529THF     H5 9219   2.613   1.996   3.026  0.1181 -1.3031  0.7937
  529THF     H6 9220   2.674   2.094   2.658  0.0884 -0.1143 -0.0747
  529THF     H7 9221   2.531   2.063   2.751 -0.7497 -0.5440 -2.2600
  529THF     C8 9222   2.643   2.224   2.845 -0.1214  0.0232 -0.1324
  529THF     C9 9223   2.721   2.182   2.971 -0.3527  0.3069 -0.2539
  529THF    H10 9224   2.537   2.246   2.862 -0.0094 -0.3769  1.2477
  529THF    H11 9225   2.699   2.303   2.796 -1.2373  1.2660  0.5495
  529THF    H12 9226   2.823   2.218   2.951 -0.9544  3.1439  1.2150
  529THF    H13 9227   2.684   2.238   3.057  0.4606 -0.9885  1.0036
  530THF     O1 9228   4.573   0.957   2.592  0.0846 -0.4570 -0.1477
  530THF     C2 9229   4.713   0.929   2.604 -0.7849 -0.3142  0.2567
  530THF     C3 9230   4.548   1.078   2.663  0.7291 -0.3314 -0.0574
  530THF     H4 9231   4.747   0.852   2.535  0.1787 -0.0336  0.4127
  530THF     H5 9232   4.741   0.891   2.701  0.1949 -0.4212 -0.0570
  530THF     H6 9233   4.454   1.126   2.637  0.0196 -1.5971  0.1440
  530THF     H7 9234   4.540   1.057   2.769 -0.8188  1.2016  0.1656
  530THF     C8 9235   4.679   1.165   2.636 -0.0602  1.2338  0.3507
  530THF     C9 9236   4.775   1.063   2.565 -0.7095 -0.1590 -0.1813
  530THF    H10 9237   4.717   1.210   2.728  2.1429 -1.5337  0.9323
  530THF    H11 9238   4.661   1.245   2.564 -1.7582 -0.8965 -1.7392
  530THF    H12 9239   4.765   1.068   2.457  1.1284 -0.2280 -0.3840
  530THF    H13 9240   4.879   1.081   2.593 -1.2665  2.3576  0.4908
  531THF     O1 9241   2.050   2.427   4.906 -0.2912  0.4381  0.1184
  531THF     C2 9242   1.933   2.522   4.899  0.6199  0.0130  0.0081
  531THF     C3 9243   2.074   2.388   4.774 -0.1857  0.1597 -0.5067
  531THF     H4 9244   1.911   2.573   4.993  0.6931  1.1478 -0.5752
  531THF     H5 9245   1.840   2.468   4.886  0.1202  0.6445  0.8725
  531THF     H6 9246   2.170   2.337   4.778 -1.1877 -1.9399 -1.5098
  531THF     H7 9247   1.997   2.316   4.747  1.9093 -2.0350 -0.9765
  531THF     C8 9248   2.059   2.516   4.692  0.2027 -0.0468 -0.5185
  531THF     C9 9249   1.977   2.610   4.776  0.4291 -0.3836 -0.5227
  531THF    H10 9250   2.005   2.502   4.598 -0.7338 -2.9167  0.3327
  531THF    H11 9251   2.160   2.556   4.686  0.1995  0.0862  0.2098
  531THF    H12 9252   2.039   2.695   4.803  1.0706 -0.6289 -1.2215
  531THF    H13 9253   1.893   2.651   4.720  1.0051 -2.1049 -2.7544
  532THF     O1 9254   1.070   1.210   1.351 -0.1182  0.0530  0.6628
  532THF     C2 9255   1.187   1.245   1.417 -0.2748 -0.0962 -0.1515
  532THF     C3 9256   1.110   1.178   1.218  0.0802  0.0350 -0.4877
  532THF     H4 9257   1.177   1.246   1.525  1.2394  1.3031  0.0124
  532THF     H5 9258   1.232   1.340   1.386 -1.0158  1.7286  3.7939
  532THF     H6 9259   1.033   1.131   1.157 -0.0617 -0.6537  0.1993
  532THF     H7 9260   1.153   1.252   1.151 -2.3940  2.3149  0.3096
  532THF     C8 9261   1.229   1.081   1.239  0.2224  0.9463  0.3524
  532THF     C9 9262   1.285   1.129   1.376  0.3626 -0.2672 -0.0084
  532THF    H10 9263   1.303   1.080   1.158 -0.8162  3.2862 -0.7346
  532THF    H11 9264   1.182   0.983   1.245  0.1663  0.9288 -0.3478
  532THF    H12 9265   1.278   1.057   1.458  0.7734  2.2218  2.3354
  532THF    H13 9266   1.390   1.159   1.380  0.5822 -0.6728 -1.8244
  533THF     O1 9267   2.529   3.138   2.427 -0.0629  0.3901  0.1526
  533THF     C2 9268   2.563   3.129   2.566  0.0400  0.1121  0.5108
  533THF     C3 9269   2.470   3.012   2.389  0.2231 -0.4266 -0.7245
  533THF     H4 9270   2.533   3.217   2.622 -0.1503  1.4412 -1.5956
  533THF     H5 9271   2.672   3.130   2.577  0.4115  0.8440 -2.3568
  533THF     H6 9272   2.363   3.032   2.378  0.1101  0.1928  1.2198
  533THF     H7 9273   2.511   2.967   2.298  0.3187 -0.2967 -0.7464
  533THF     C8 9274   2.489   2.916   2.513 -0.5581 -0.6191  0.1832
  533THF     C9 9275   2.494   3.006   2.629  0.2545  0.0241 -0.3961
  533THF    H10 9276   2.585   2.866   2.505 -0.8768 -0.9679 -2.6326
  533THF    H11 9277   2.410   2.840   2.514 -0.1600 -1.0326  1.8328
  533THF    H12 9278   2.393   3.042   2.648  0.5730  1.0642 -0.6074
  533THF    H13 9279   2.540   2.960   2.717 -1.5588 -0.7886  0.1788
  534THF     O1 9280   0.013   0.266   0.822 -0.4638 -0.1492 -0.2768
  534THF     C2 9281  -0.086   0.180   0.775  0.2310 -0.4244 -0.1190
  534THF     C3 9282   0.045   0.229   0.952  0.4254 -0.4199 -0.0594
  534THF     H4 9283  -0.091   0.191   0.667 -2.4868 -0.5071 -0.0560
  534THF     H5 9284  -0.190   0.195   0.804 -0.8187  0.9461 -4.0464
  534THF     H6 9285   0.151   0.245   0.971  0.1788  0.0511  1.0256
  534THF     H7 9286  -0.012   0.294   1.018  0.8330 -0.1386  0.0204
  534THF     C8 9287   0.014   0.082   0.958  0.5173 -0.0676  0.4237
  534THF     C9 9288  -0.026   0.045   0.819 -0.7682  0.1323  1.1424
  534THF    H10 9289  -0.070   0.058   1.023  0.5448  3.4383  1.9585
  534THF    H11 9290   0.097   0.034   1.010 -1.3122 -2.8290  0.9995
  534THF    H12 9291   0.068   0.026   0.765 -1.7010 -0.3276 -0.3919
  534THF    H13 9292  -0.091  -0.041   0.801 -0.1878  0.1436 -1.4905
  535THF     O1 9293   2.284   0.743   1.672  0.7055 -0.3957 -0.2081
  535THF     C2 9294   2.289   0.690   1.539 -0.0107 -0.6831 -0.1051
  535THF     C3 9295   2.199   0.664   1.757  0.0606 -0.1685 -0.1268
  535THF     H4 9296   2.383   0.647   1.506  0.2723  0.8425 -1.4149
  535THF     H5 9297   2.278   0.771   1.468 -0.7945 -2.5627 -2.2700
  535THF     H6 9298   2.254   0.575   1.789  1.3090 -0.1036 -1.9643
  535THF     H7 9299   2.156   0.722   1.838  1.8806  1.2502 -0.1332
  535THF     C8 9300   2.091   0.624   1.662  0.1965 -0.0706  0.3293
  535THF     C9 9301   2.169   0.594   1.532 -0.0454  0.6570  0.0378
  535THF    H10 9302   2.024   0.707   1.638 -0.4531 -0.9915 -1.2292
  535THF    H11 9303   2.036   0.536   1.695  0.1073  1.1000  3.7146
  535THF    H12 9304   2.200   0.490   1.526  0.1857  0.7115  0.2312
  535THF    H13 9305   2.111   0.603   1.441 -1.6269 -1.5314  0.7476
  536THF     O1 9306   3.622   2.358   4.864 -0.6119 -0.4355  0.2028
  536THF     C2 9307   3.567   2.225   4.884 -0.1276 -0.1042  0.0771
  536THF     C3 9308   3.656   2.362   4.728  0.3500 -0.0889 -0.0374
  536THF     H4 9309   3.520   2.206   4.981  0.8694  1.5492  0.9418
  536THF     H5 9310   3.661   2.171   4.885  1.1840  2.0361  1.0059
  536THF     H6 9311   3.673   2.466   4.699 -0.1355  0.5951  1.9881
  536THF     H7 9312   3.759   2.332   4.711  0.5151  1.3357 -1.9608
  536THF     C8 9313   3.557   2.284   4.646  0.0175 -0.7589  0.2199
  536THF     C9 9314   3.490   2.203   4.758  0.3926  1.1204  0.1145
  536THF    H10 9315   3.604   2.247   4.555  0.3807 -1.6427  0.7503
  536THF    H11 9316   3.474   2.346   4.612  0.1948  0.1719  1.3908
  536THF    H12 9317   3.385   2.226   4.771  0.1085 -0.1209  0.1022
  536THF    H13 9318   3.479   2.099   4.728  0.6215  1.0710  0.1984
  537THF     O1 9319   4.767   4.279   5.440  0.5301  0.0979  0.2916
  537THF     C2 9320   4.893   4.321   5.391 -0.0724 -0.4015  0.1424
  537THF     C3 9321   4.792   4.140   5.454 -0.8853  0.5733  0.7751
  537THF     H4 9322   4.905   4.428   5.406  0.7898 -0.7063  1.9948
  537THF     H5 9323   4.910   4.286   5.289  3.3402 -0.2974  0.5474
  537THF     H6 9324   4.732   4.098   5.535  1.9018  0.1306  2.7689
  537THF     H7 9325   4.772   4.086   5.362  0.5019  1.1452  0.1155
  537THF     C8 9326   4.936   4.126   5.504  0.2910 -0.4694 -0.1011
  537THF     C9 9327   4.993   4.263   5.475  0.0728  0.1479 -0.1164
  537THF    H10 9328   4.992   4.061   5.437  2.8686  0.4178  1.0850
  537THF    H11 9329   4.946   4.103   5.610  0.2794  0.1092  0.0308
  537THF    H12 9330   5.001   4.318   5.569 -0.2009  2.0036 -1.1172
  537THF    H13 9331   5.088   4.265   5.422  0.4980 -0.0454  0.6298
  538THF     O1 9332   4.574   5.372   2.066  0.4890 -0.3341 -0.5559
  538THF     C2 9333   4.481   5.476   2.037 -0.8360  0.3324  0.3514
  538THF     C3 9334   4.594   5.364   2.214  0.4506  0.4393  1.1919
  538THF     H4 9335   4.400   5.429   1.981 -2.4632  1.3406  1.7755
  538THF     H5 9336   4.526   5.552   1.973  1.0891  0.2769  1.5655
  538THF     H6 9337   4.526   5.293   2.260 -1.5310  1.3643 -0.1873
  538THF     H7 9338   4.695   5.337   2.244  1.4834  3.4736  0.7808
  538THF     C8 9339   4.540   5.500   2.263 -0.7489  0.2562  0.1435
  538THF     C9 9340   4.436   5.545   2.166 -0.3556 -0.5866 -0.1400
  538THF    H10 9341   4.621   5.572   2.253 -1.4219  0.9031 -0.8322
  538THF    H11 9342   4.520   5.489   2.369  1.0220 -0.3749  0.4545
  538THF    H12 9343   4.336   5.512   2.193 -1.2423  1.0151 -1.3081
  538THF    H13 9344   4.434   5.652   2.149 -3.2496 -0.7552 -1.4575
  539THF     O1 9345   4.251   3.206   1.712  0.2313 -0.0504  0.4476
  539THF     C2 9346   4.295   3.340   1.682 -0.0566 -0.2634 -0.0197
  539THF     C3 9347   4.191   3.216   1.841 -0.0188  0.0564 -0.6481
  539THF     H4 9348   4.215   3.405   1.646 -0.4432 -0.7140  0.0020
  539THF     H5 9349   4.362   3.337   1.596 -1.8283  0.6497 -1.5086
  539THF     H6 9350   4.088   3.251   1.827  0.0622  0.1419 -1.0527
  539THF     H7 9351   4.197   3.127   1.903 -0.5564  0.1772 -0.4140
  539THF     C8 9352   4.268   3.328   1.918  0.3013  1.3486  0.3923
  539THF     C9 9353   4.359   3.388   1.808  0.1915  0.2445 -0.7330
  539THF    H10 9354   4.323   3.294   2.006 -0.4169  0.0024  0.3608
  539THF    H11 9355   4.200   3.407   1.950  0.2334  2.2094 -1.7359
  539THF    H12 9356   4.354   3.497   1.810  1.0878  0.2798  0.5373
  539THF    H13 9357   4.457   3.345   1.828 -0.4300 -1.3047 -0.8845
  540THF     O1 9358   0.604   4.723   2.149 -0.7354  0.2414 -0.2435
  540THF     C2 9359   0.558   4.842   2.220  0.0655 -0.6447 -0.8041
  540THF     C3 9360   0.535   4.619   2.205  0.1711  0.3492 -0.5111
  540THF     H4 9361   0.582   4.933   2.164 -1.2272  0.9108  1.0091
  540THF     H5 9362   0.580   4.846   2.327  0.7607  0.1151 -0.9550
  540THF     H6 9363   0.524   4.530   2.143 -0.5268  1.2745 -1.7546
  540THF     H7 9364   0.585   4.590   2.298  0.5010 -0.8795 -1.0555
  540THF     C8 9365   0.389   4.667   2.224  0.0553 -0.4650  0.3076
  540THF     C9 9366   0.408   4.816   2.213  0.6815 -0.4209  0.1402
  540THF    H10 9367   0.340   4.655   2.321 -1.1397  0.1151 -0.1965
  540THF    H11 9368   0.322   4.635   2.143  0.4860  1.8468 -1.0538
  540THF    H12 9369   0.353   4.844   2.123 -0.7777  0.4708  1.2667
  540THF    H13 9370   0.361   4.878   2.289  1.3115  1.6807 -1.0914
  541THF     O1 9371   3.232   0.986   4.722  0.3508  0.4859  0.3570
  541THF     C2 9372   3.248   0.855   4.774  0.4043  0.5841  0.8010
  541THF     C3 9373   3.114   0.987   4.643  0.0181 -0.0648  0.4536
  541THF     H4 9374   3.323   0.843   4.853  2.3781  2.8576 -0.5962
  541THF     H5 9375   3.266   0.791   4.687 -1.4366 -0.1221  0.8945
  541THF     H6 9376   3.104   1.093   4.621 -2.2730 -0.5627 -1.2454
  541THF     H7 9377   3.147   0.932   4.555  2.2425  0.5608  0.8370
  541THF     C8 9378   3.017   0.914   4.733 -0.0294  0.0425 -1.0793
  541THF     C9 9379   3.109   0.830   4.824  0.2663  0.6548 -0.0322
  541THF    H10 9380   2.945   0.841   4.695 -0.3928 -1.2361  1.7841
  541THF    H11 9381   2.956   0.985   4.788 -1.7847 -1.3089 -1.2013
  541THF    H12 9382   3.106   0.866   4.926 -2.0226 -0.8007  0.4848
  541THF    H13 9383   3.088   0.723   4.820 -0.1949  0.7659 -0.7686
  542THF     O1 9384   3.400   2.581   3.603 -0.3167 -0.9916  0.3928
  542THF     C2 9385   3.528   2.609   3.649  0.3371 -0.3299 -0.5390
  542THF     C3 9386   3.345   2.701   3.542 -0.3910  0.5940  0.8762
  542THF     H4 9387   3.606   2.608   3.573  1.8847 -1.4973  0.9805
  542THF     H5 9388   3.558   2.538   3.725 -0.8321 -0.5227 -0.2377
  542THF     H6 9389   3.380   2.704   3.439 -2.5478 -0.6538  0.0359
  542THF     H7 9390   3.236   2.696   3.533 -0.5102  2.7329  0.6712
  542THF     C8 9391   3.392   2.818   3.627  0.7274 -0.2692 -0.4295
  542THF     C9 9392   3.518   2.758   3.704  1.1078  0.1098  0.8047
  542THF    H10 9393   3.319   2.841   3.704  1.1624  2.0465 -0.6428
  542THF    H11 9394   3.412   2.914   3.579  0.0566  0.3391  0.4782
  542THF    H12 9395   3.611   2.802   3.669  0.4333  1.6155  0.8068
  542THF    H13 9396   3.508   2.780   3.810 -1.2551  2.5212  0.1950
  543THF     O1 9397   4.856   0.686   0.456  0.2175  0.2801 -0.0335
  543THF     C2 9398   4.770   0.576   0.449  0.1248  0.0313  0.2996
  543THF     C3 9399   4.873   0.725   0.324  0.3399 -0.8402  0.7786
  543THF     H4 9400   4.672   0.617   0.425 -0.3445 -1.7206 -1.0124
  543THF     H5 9401   4.747   0.522   0.541 -1.3445 -1.7711 -1.0606
  543THF     H6 9402   4.778   0.767   0.293 -0.5465 -2.1312  1.6302
  543THF     H7 9403   4.957   0.794   0.313 -0.2447 -0.0188  1.3848
  543THF     C8 9404   4.900   0.591   0.247 -0.2864  0.1334  0.6674
  543THF     C9 9405   4.824   0.490   0.332 -0.2380 -0.1447 -0.1483
  543THF    H10 9406   5.005   0.562   0.252 -1.2285 -4.2893 -0.5482
  543THF    H11 9407   4.870   0.598   0.142  1.3373 -1.3983  0.0465
  543THF    H12 9408   4.740   0.439   0.285 -0.6299 -0.2862  0.6892
  543THF    H13 9409   4.893   0.414   0.368  0.1968 -0.5410 -1.7208
  544THF     O1 9410   5.059   5.101   4.957  0.4732  0.4960 -0.3674
  544THF     C2 9411   5.031   4.967   4.930 -0.0403  0.6766  0.1102
  544THF     C3 9412   5.054   5.124   5.098 -0.2957 -0.3715  0.1386
  544THF     H4 9413   5.125   4.912   4.927  0.5353  1.5570  1.1638
  544THF     H5 9414   4.981   4.941   4.837 -0.7475 -0.0209  0.6641
  544THF     H6 9415   5.148   5.174   5.123 -0.9328  2.1084 -2.0116
  544THF     H7 9416   4.968   5.182   5.131 -0.9436 -1.8151  1.0911
  544THF     C8 9417   5.031   4.989   5.158 -0.6929 -0.0765 -0.4227
  544THF     C9 9418   4.954   4.916   5.054 -0.5546  0.1221 -0.0250
  544THF    H10 9419   4.981   4.995   5.255  0.8407 -0.5953  0.4401
  544THF    H11 9420   5.124   4.938   5.184 -0.1548  0.4932 -1.1756
  544THF    H12 9421   4.961   4.809   5.074 -0.8519  0.1658  0.3162
  544THF    H13 9422   4.847   4.935   5.058 -0.5685  0.5337 -1.6911
  545THF     O1 9423   1.972   3.160   0.340  0.4073  0.0761 -0.0875
  545THF     C2 9424   2.063   3.058   0.297 -0.1884 -0.3216  0.5759
  545THF     C3 9425   1.850   3.140   0.261  0.9692  0.4242 -0.2228
  545THF     H4 9426   2.124   3.027   0.382  0.4238  2.2075  1.1422
  545THF     H5 9427   2.132   3.103   0.225 -0.6962  3.0018  1.9632
  545THF     H6 9428   1.756   3.184   0.295  0.8205  0.4104 -0.6144
  545THF     H7 9429   1.859   3.171   0.157 -2.5550 -1.0630 -1.1095
  545THF     C8 9430   1.831   2.984   0.250 -0.5719 -0.8213 -0.0088
  545THF     C9 9431   1.980   2.938   0.242  0.5851  0.3846  0.1852
  545THF    H10 9432   1.789   2.967   0.151  2.3260  0.9759 -1.6955
  545THF    H11 9433   1.777   2.939   0.334  1.0277 -1.4604  0.7073
  545THF    H12 9434   1.987   2.843   0.295 -2.5801 -0.1198 -0.0603
  545THF    H13 9435   2.009   2.928   0.138 -2.0458 -0.2597 -0.5609
  546THF     O1 9436   0.838   3.843   4.070  0.8058  0.1271  0.0416
  546THF     C2 9437   0.786   3.788   4.194  0.0431 -0.2921 -0.4784
  546THF     C3 9438   0.956   3.777   4.037  0.4120 -0.1903  0.3435
  546THF     H4 9439   0.741   3.689   4.192  0.1659 -0.3382 -1.2781
  546THF     H5 9440   0.717   3.853   4.247 -1.9982  0.0497 -3.3526
  546THF     H6 9441   0.931   3.684   3.987 -2.0865 -0.3220  1.6865
  546THF     H7 9442   1.018   3.833   3.968  1.2065 -0.5519  0.7504
  546THF     C8 9443   1.030   3.759   4.172  0.4916 -0.5256 -0.0517
  546THF     C9 9444   0.915   3.775   4.278 -0.5708  0.0173  0.6716
  546THF    H10 9445   1.107   3.835   4.184  0.6850 -0.5971 -0.8419
  546THF    H11 9446   1.077   3.660   4.173  2.6692  0.4412 -0.6991
  546THF    H12 9447   0.927   3.692   4.348 -0.4093 -1.0490 -0.5740
  546THF    H13 9448   0.944   3.867   4.329 -0.4263 -1.1391  2.8173
  547THF     O1 9449   1.514   1.362   1.223 -0.4866  0.0656  0.7017
  547THF     C2 9450   1.532   1.480   1.150 -0.1813  0.4360  0.1323
  547THF     C3 9451   1.547   1.251   1.140 -0.4010  0.6866  0.6468
  547THF     H4 9452   1.591   1.548   1.212  2.1894 -0.8943 -0.5120
  547THF     H5 9453   1.446   1.533   1.108 -0.3590  0.9606  1.1248
  547THF     H6 9454   1.565   1.164   1.204 -1.0541  0.1563  0.1240
  547THF     H7 9455   1.472   1.233   1.063  0.8599  3.2098 -1.3439
  547THF     C8 9456   1.669   1.301   1.063 -0.1264  0.9867  0.1245
  547THF     C9 9457   1.642   1.447   1.045 -0.4489  0.7670 -0.1208
  547THF    H10 9458   1.671   1.256   0.963 -4.0576  1.4346 -0.3266
  547THF    H11 9459   1.759   1.290   1.123  0.5406  1.5392 -0.7548
  547THF    H12 9460   1.729   1.511   1.060 -1.2945  1.8905  0.1112
  547THF    H13 9461   1.614   1.458   0.940  3.3444 -0.8742 -1.5048
  548THF     O1 9462   1.142   1.036   3.495 -0.2683  0.2762 -0.3100
  548THF     C2 9463   1.030   0.965   3.442  0.0965 -0.4549 -0.5603
  548THF     C3 9464   1.256   0.978   3.427  0.3433  0.2297 -0.3996
  548THF     H4 9465   1.016   0.997   3.338  0.0256  2.5194  0.2736
  548THF     H5 9466   0.940   0.994   3.496 -0.5360  0.5243 -2.0537
  548THF     H6 9467   1.271   1.008   3.323 -0.4829  1.6604 -0.1302
  548THF     H7 9468   1.351   0.999   3.475  0.0354  0.2729  0.1915
  548THF     C8 9469   1.220   0.831   3.441 -0.3833 -0.0272  0.4255
  548THF     C9 9470   1.073   0.815   3.454  0.4644  0.2209 -0.8650
  548THF    H10 9471   1.282   0.790   3.520 -0.4149  0.2258  0.5847
  548THF    H11 9472   1.264   0.780   3.355  0.5417  2.0524 -0.4048
  548THF    H12 9473   1.033   0.752   3.374  2.7267 -1.8622 -0.4810
  548THF    H13 9474   1.042   0.794   3.556 -3.7718 -0.8925 -2.1696
  549THF     O1 9475   1.540   0.120   5.249 -0.0007 -0.5065  0.2176
  549THF     C2 9476   1.615  -0.001   5.233  0.3317  0.3651 -0.0810
  549THF     C3 9477   1.587   0.185   5.365 -0.2214  0.2657  0.2287
  549THF     H4 9478   1.716   0.030   5.204  0.1480  0.8803 -0.1923
  549THF     H5 9479   1.584  -0.070   5.155  0.3936  1.8204 -1.4668
  549THF     H6 9480   1.686   0.223   5.340  1.1649 -2.6443  0.9153
  549THF     H7 9481   1.528   0.261   5.417 -1.9042 -1.2179  0.5655
  549THF     C8 9482   1.598   0.065   5.457  0.4078  0.6483 -0.1588
  549THF     C9 9483   1.590  -0.058   5.370 -0.1470 -0.2105 -0.0815
  549THF    H10 9484   1.519   0.060   5.532 -2.0992 -0.2113 -2.6610
  549THF    H11 9485   1.695   0.071   5.505 -0.1892 -2.4003  1.7136
  549THF    H12 9486   1.665  -0.132   5.399  0.7097  0.1657 -1.2257
  549THF    H13 9487   1.492  -0.105   5.370 -1.7528  2.8575 -0.7870
  550THF     O1 9488   4.537   3.997   2.376  0.0105 -0.0790  0.1695
  550THF     C2 9489   4.631   3.948   2.468 -0.0828 -0.3182  0.0951
  550THF     C3 9490   4.479   4.117   2.417 -0.2311 -0.2425 -0.0757
  550THF     H4 9491   4.730   3.987   2.445 -0.4406  0.0806 -0.8017
  550THF     H5 9492   4.631   3.839   2.460 -2.1032 -0.2855 -0.9752
  550THF     H6 9493   4.529   4.190   2.353 -1.7894 -1.0321 -2.3155
  550THF     H7 9494   4.374   4.120   2.387  0.0546 -0.5345 -1.1323
  550THF     C8 9495   4.510   4.125   2.572  0.2895 -0.1833  0.6705
  550THF     C9 9496   4.579   3.994   2.602  0.0123  0.1521 -0.2842
  550THF    H10 9497   4.417   4.133   2.627  0.3481 -1.6313  1.0004
  550THF    H11 9498   4.581   4.206   2.589  0.6440 -0.6352  1.4027
  550THF    H12 9499   4.662   4.004   2.672 -1.5371  2.3737  1.3758
  550THF    H13 9500   4.504   3.923   2.639  1.0032 -0.2932  0.9345
  551THF     O1 9501   0.261   3.282   4.774 -0.5652  0.1228 -0.2208
  551THF     C2 9502   0.395   3.333   4.810 -0.0641  0.5095 -0.8027
  551THF     C3 9503   0.206   3.255   4.897  0.3660  0.0836 -0.3484
  551THF     H4 9504   0.445   3.397   4.737  2.3214 -0.2712  0.0249
  551THF     H5 9505   0.462   3.249   4.827  1.2245  2.0772  2.9504
  551THF     H6 9506   0.098   3.245   4.890  0.4067 -1.8431  0.8421
  551THF     H7 9507   0.246   3.159   4.931  2.2158  0.6594 -0.7434
  551THF     C8 9508   0.248   3.356   5.002 -0.3281 -0.0661 -0.5457
  551THF     C9 9509   0.379   3.406   4.945  0.0629 -0.6384  0.2746
  551THF    H10 9510   0.275   3.304   5.094  1.9380  0.1248 -1.0286
  551THF    H11 9511   0.176   3.436   5.019 -0.5482  0.3156 -2.8721
  551THF    H12 9512   0.370   3.513   4.926 -1.6280 -0.9863 -1.3080
  551THF    H13 9513   0.465   3.392   5.009  1.4025  0.9557 -1.0865
  552THF     O1 9514   3.930   4.386   2.318  0.0829 -0.0983  0.1987
  552THF     C2 9515   4.049   4.396   2.240 -0.3022  1.0263 -0.0620
  552THF     C3 9516   3.960   4.419   2.448  0.0450  0.9171 -0.5963
  552THF     H4 9517   4.068   4.503   2.237 -2.2334  1.5085  2.2229
  552THF     H5 9518   4.051   4.352   2.140  2.6876 -0.7126  0.6385
  552THF     H6 9519   3.946   4.527   2.462  0.3382  0.8152  0.5662
  552THF     H7 9520   3.894   4.356   2.507  0.1073  0.8495 -0.5995
  552THF     C8 9521   4.100   4.356   2.464  0.1319 -0.2894 -0.0012
  552THF     C9 9522   4.144   4.326   2.324  0.0398 -0.1659 -0.2980
  552THF    H10 9523   4.074   4.265   2.517 -2.8900  0.5158  0.0644
  552THF    H11 9524   4.170   4.411   2.526 -1.3584  1.1386  0.4882
  552THF    H12 9525   4.249   4.354   2.307 -0.2023  1.1687  0.2242
  552THF    H13 9526   4.143   4.218   2.311 -2.2753 -0.5088  1.9124
  553THF     O1 9527   0.404   3.483   0.994 -0.3816 -0.1253 -0.8200
  553THF     C2 9528   0.359   3.615   1.021  0.0060 -0.5057 -0.2328
  553THF     C3 9529   0.426   3.413   1.118  0.5095 -0.0721  0.3462
  553THF     H4 9530   0.308   3.670   0.941  0.0858  1.0770  0.7667
  553THF     H5 9531   0.449   3.674   1.038 -0.7639 -0.0631  2.8063
  553THF     H6 9532   0.415   3.306   1.103  0.0840 -0.1225  0.9725
  553THF     H7 9533   0.528   3.427   1.155  0.5332 -0.0742  0.2817
  553THF     C8 9534   0.326   3.475   1.222 -0.3246  0.2239 -0.0694
  553THF     C9 9535   0.266   3.590   1.142  0.0557 -0.2876 -0.4607
  553THF    H10 9536   0.382   3.507   1.310  0.5268  0.0682 -0.5449
  553THF    H11 9537   0.255   3.401   1.258 -0.2241  1.5751  3.2743
  553THF    H12 9538   0.171   3.565   1.095  0.3944 -1.3950 -0.5675
  553THF    H13 9539   0.249   3.675   1.208  0.0769 -2.2041  2.1750
  554THF     O1 9540   4.992   1.125   0.713 -0.3417 -0.1595 -0.9700
  554THF     C2 9541   4.965   0.987   0.729 -0.7654  0.5220  0.5101
  554THF     C3 9542   5.037   1.173   0.836 -0.2259 -0.5606  0.3975
  554THF     H4 9543   4.946   0.929   0.639 -2.4624  1.2952  0.3339
  554THF     H5 9544   4.878   0.984   0.794  1.1790  0.3097  3.2628
  554THF     H6 9545   5.097   1.264   0.829 -0.9003 -0.1440 -0.1052
  554THF     H7 9546   4.961   1.186   0.912  1.2465 -2.7418  2.3711
  554THF     C8 9547   5.128   1.063   0.881 -0.4045  0.0483 -0.5592
  554THF     C9 9548   5.082   0.937   0.814  0.1613 -0.1812  0.5796
  554THF    H10 9549   5.115   1.063   0.989 -0.5222  2.7651 -0.5063
  554THF    H11 9550   5.233   1.085   0.860 -0.3382 -1.1892 -1.6862
  554THF    H12 9551   5.164   0.895   0.755  0.6684  1.5585 -0.0001
  554THF    H13 9552   5.060   0.853   0.880  0.1708 -0.3462  0.3744
  555THF     O1 9553   4.590   1.861   0.528  0.6988 -0.1954 -0.3618
  555THF     C2 9554   4.556   1.997   0.559 -0.4506 -0.1905 -0.3440
  555THF     C3 9555   4.575   1.839   0.389  0.2206  0.1110 -0.6599
  555THF     H4 9556   4.642   2.064   0.571 -1.1533  0.6616  0.0788
  555THF     H5 9557   4.500   2.012   0.651 -0.1248 -0.9352 -0.0163
  555THF     H6 9558   4.668   1.805   0.344  0.0902  0.0632 -0.8923
  555THF     H7 9559   4.500   1.762   0.375 -0.1596  0.6876 -1.9668
  555THF     C8 9560   4.523   1.968   0.323  0.0013 -0.4367  0.0438
  555THF     C9 9561   4.473   2.048   0.444 -0.4129  0.4234  0.4249
  555THF    H10 9562   4.447   1.941   0.249 -1.6087 -1.3429  1.9089
  555THF    H11 9563   4.604   2.028   0.283  0.1878 -0.4160  0.4433
  555THF    H12 9564   4.496   2.154   0.431  3.6642 -0.2433  0.8178
  555THF    H13 9565   4.364   2.045   0.449 -0.4295  0.3898  0.0672
  556THF     O1 9566   0.410   3.352   2.352  0.3747 -0.1680 -0.0801
  556THF     C2 9567   0.433   3.255   2.450  0.0221  0.6821 -0.4355
  556THF     C3 9568   0.375   3.472   2.415 -0.4255 -0.4372 -0.5355
  556THF     H4 9569   0.476   3.162   2.413 -1.4311 -1.3072  2.5221
  556THF     H5 9570   0.339   3.221   2.492  1.2641 -0.1574  1.8207
  556THF     H6 9571   0.388   3.561   2.353  1.1315 -0.2127  0.0496
  556THF     H7 9572   0.280   3.458   2.466 -0.2599 -0.4809 -0.2330
  556THF     C8 9573   0.489   3.477   2.519 -0.1658 -0.1518  0.2201
  556THF     C9 9574   0.510   3.336   2.557 -0.6601 -0.0269 -0.1043
  556THF    H10 9575   0.481   3.543   2.605 -1.9202  0.4170 -0.3375
  556THF    H11 9576   0.568   3.521   2.458 -0.4912 -0.1493 -0.2063
  556THF    H12 9577   0.617   3.321   2.577 -0.9910  0.1005  1.9678
  556THF    H13 9578   0.474   3.334   2.660  2.6899  0.9712  1.2457
  557THF     O1 9579   1.943   1.248   5.371  0.4804  0.2424  0.0717
  557THF     C2 9580   1.914   1.283   5.503 -0.1812 -0.4534 -0.3617
  557THF     C3 9581   1.813   1.232   5.320  0.7226  0.0393  0.4304
  557THF     H4 9582   1.878   1.386   5.506  1.9208  0.3183  1.1833
  557THF     H5 9583   2.010   1.277   5.554 -0.3006 -0.5526 -0.1483
  557THF     H6 9584   1.762   1.316   5.273 -0.7061 -0.6265  0.7316
  557THF     H7 9585   1.817   1.141   5.260  1.6943  0.2363  0.1808
  557THF     C8 9586   1.717   1.199   5.434  0.4157  0.2900 -0.1390
  557THF     C9 9587   1.807   1.189   5.554 -0.5918 -0.1815  0.2572
  557THF    H10 9588   1.661   1.106   5.421 -0.0902  0.6212 -0.3501
  557THF    H11 9589   1.635   1.270   5.449 -0.3525 -0.9261  1.8947
  557THF    H12 9590   1.764   1.232   5.644  2.6193  2.0876  0.8666
  557THF    H13 9591   1.847   1.090   5.577 -0.7416 -0.6014 -1.1441
  558THF     O1 9592   3.689   2.943   3.170 -0.2434  0.3111 -0.1677
  558THF     C2 9593   3.637   2.910   3.290  0.0569 -0.7998 -0.7996
  558THF     C3 9594   3.692   3.083   3.164  0.4716 -0.6278 -0.5328
  558THF     H4 9595   3.648   2.804   3.314 -1.0730 -0.9470 -0.8666
  558THF     H5 9596   3.528   2.920   3.292  0.0260 -0.9993 -1.3559
  558THF     H6 9597   3.758   3.109   3.081  3.0754 -0.6869  1.3884
  558THF     H7 9598   3.588   3.113   3.148 -0.2199 -1.6543  1.5922
  558THF     C8 9599   3.746   3.121   3.304  0.1994 -0.1510  0.2844
  558THF     C9 9600   3.686   3.012   3.393 -0.4283  0.7297 -0.4606
  558THF    H10 9601   3.721   3.224   3.332 -0.5164  0.0060 -0.8736
  558THF    H11 9602   3.855   3.118   3.306  0.2059  0.1774  0.6141
  558THF    H12 9603   3.756   2.970   3.466  0.5537  1.7753 -0.7751
  558THF    H13 9604   3.605   3.062   3.447 -1.0504 -0.8178  0.1164
  559THF     O1 9605   0.311   2.703   2.459  0.4331 -0.7675 -0.3859
  559THF     C2 9606   0.317   2.757   2.327 -0.1339  0.4757  0.3166
  559THF     C3 9607   0.173   2.706   2.503  0.5199 -0.3710 -0.4155
  559THF     H4 9608   0.307   2.671   2.261  0.4999  0.6974 -0.0764
  559THF     H5 9609   0.412   2.809   2.321  0.3080  0.0429  2.4960
  559THF     H6 9610   0.110   2.636   2.447 -0.5281 -0.7991  1.2383
  559THF     H7 9611   0.162   2.691   2.610 -0.1045 -1.1005 -0.5725
  559THF     C8 9612   0.141   2.849   2.464  0.1063 -0.1049 -0.0670
  559THF     C9 9613   0.202   2.850   2.321  0.2549  0.3165  0.6122
  559THF    H10 9614   0.179   2.915   2.541  0.2710 -1.0836  0.7041
  559THF    H11 9615   0.034   2.873   2.461  0.1056  0.2442  1.8668
  559THF    H12 9616   0.128   2.816   2.249 -0.3221 -0.6950  1.6524
  559THF    H13 9617   0.228   2.946   2.275  1.3305 -0.6372 -0.8764
  560THF     O1 9618   5.060   4.451   0.620 -0.3238 -0.0542 -0.1982
  560THF     C2 9619   5.154   4.459   0.514 -0.4842 -0.2436  0.2709
  560THF     C3 9620   4.929   4.475   0.571 -0.5102 -0.5852 -0.0788
  560THF     H4 9621   5.198   4.359   0.506 -3.5687 -1.7527  0.8986
  560THF     H5 9622   5.230   4.537   0.527  0.6349 -1.2071 -0.2374
  560THF     H6 9623   4.847   4.425   0.623 -0.9046  1.0233  0.9054
  560THF     H7 9624   4.892   4.577   0.584 -1.1868 -0.7506 -0.6248
  560THF     C8 9625   4.931   4.437   0.420 -0.0362 -0.5415 -0.4847
  560THF     C9 9626   5.068   4.493   0.389 -0.7747  0.0982  0.7176
  560THF    H10 9627   4.844   4.487   0.377 -0.6051 -0.0671  1.1167
  560THF    H11 9628   4.910   4.330   0.409 -1.7866 -0.3487  0.5941
  560THF    H12 9629   5.119   4.446   0.305  0.5746 -1.3246  2.2513
  560THF    H13 9630   5.064   4.601   0.378  0.5146  0.0672 -0.3126
  561THF     O1 9631   0.751   1.273   0.868  0.4311 -0.2524  0.4500
  561THF     C2 9632   0.755   1.409   0.884  0.8031 -0.3505 -0.9849
  561THF     C3 9633   0.730   1.228   1.006  0.3978  0.0557  1.0393
  561THF     H4 9634   0.762   1.459   0.787  0.0922 -1.5271 -1.6610
  561THF     H5 9635   0.847   1.420   0.941 -0.4030 -2.8369  1.7207
  561THF     H6 9636   0.694   1.126   0.991 -0.2635  0.4683 -0.3087
  561THF     H7 9637   0.826   1.238   1.058 -0.1864  4.9956  1.6381
  561THF     C8 9638   0.632   1.326   1.070 -0.1568 -0.0096  0.0357
  561THF     C9 9639   0.627   1.443   0.969  0.7144 -0.7076  0.0116
  561THF    H10 9640   0.666   1.357   1.169  0.1644  0.8431 -0.3359
  561THF    H11 9641   0.534   1.278   1.082 -0.4739  0.7378  0.4666
  561THF    H12 9642   0.533   1.441   0.913  1.3611  2.4657 -1.3912
  561THF    H13 9643   0.636   1.541   1.016  0.3678 -1.6564  2.1797
  562THF     O1 9644   4.232   3.362   0.881  0.2511  0.2412  0.2436
  562THF     C2 9645   4.343   3.422   0.809  0.7162 -0.0407 -0.4921
  562THF     C3 9646   4.185   3.252   0.815  0.3223 -0.6319 -0.2431
  562THF     H4 9647   4.434   3.370   0.841  1.3699  0.6521 -1.1909
  562THF     H5 9648   4.355   3.524   0.843 -1.8862 -0.2966  1.4798
  562THF     H6 9649   4.237   3.158   0.832 -1.0925 -1.2198  1.1035
  562THF     H7 9650   4.083   3.226   0.843  0.0554 -2.1666 -2.4412
  562THF     C8 9651   4.200   3.286   0.672  0.2397  0.1821 -0.1135
  562THF     C9 9652   4.298   3.402   0.664  0.1381 -0.8573 -0.6102
  562THF    H10 9653   4.104   3.309   0.626 -0.4007 -2.7722 -0.4673
  562THF    H11 9654   4.221   3.192   0.620  1.2398  0.5421 -0.3832
  562THF    H12 9655   4.386   3.379   0.603  0.2150 -1.3066 -0.3326
  562THF    H13 9656   4.247   3.495   0.637 -0.1521 -0.1349  2.1173
  563THF     O1 9657   1.923   0.749   4.826  0.1227  0.3687  0.0872
  563THF     C2 9658   1.816   0.800   4.750  0.3771 -0.0885  0.0349
  563THF     C3 9659   2.031   0.838   4.806  0.0651  0.5561 -0.6256
  563THF     H4 9660   1.718   0.760   4.777 -0.3701  1.6786  0.0771
  563THF     H5 9661   1.841   0.777   4.646  1.9888  0.5431  0.2541
  563THF     H6 9662   2.108   0.812   4.879  0.2703  0.5934 -0.8268
  563THF     H7 9663   2.080   0.861   4.711 -0.9575 -0.4625 -1.4221
  563THF     C8 9664   1.953   0.963   4.846 -0.4798  0.2919 -0.7880
  563THF     C9 9665   1.821   0.949   4.785  0.5239 -0.6664  0.5005
  563THF    H10 9666   2.014   1.050   4.819  0.1593 -0.2140 -0.9844
  563THF    H11 9667   1.930   0.961   4.952 -0.3430  1.0346 -0.7390
  563THF    H12 9668   1.740   0.978   4.852  0.9513 -0.6412  1.0087
  563THF    H13 9669   1.806   1.002   4.691  2.4329  1.1977  1.1750
  564THF     O1 9670   0.243   1.597   0.193  0.8603 -0.0872 -0.0606
  564THF     C2 9671   0.299   1.493   0.269  0.0430 -0.2183 -0.5283
  564THF     C3 9672   0.260   1.723   0.257 -0.0832 -0.3901  0.1268
  564THF     H4 9673   0.326   1.401   0.218 -1.9726 -1.1630 -0.0140
  564THF     H5 9674   0.237   1.474   0.357 -1.0857  1.9024 -0.8022
  564THF     H6 9675   0.255   1.803   0.183 -1.2653  0.0606  0.6636
  564THF     H7 9676   0.184   1.733   0.335  1.8461  0.4790  1.9805
  564THF     C8 9677   0.398   1.708   0.324  0.0153  0.6011 -0.0348
  564THF     C9 9678   0.423   1.559   0.328 -0.4683 -0.2772 -0.1200
  564THF    H10 9679   0.415   1.761   0.417  0.8587  0.8732 -0.3352
  564THF    H11 9680   0.474   1.758   0.263  0.2386 -0.4021 -0.6006
  564THF    H12 9681   0.509   1.526   0.269  0.6940  0.6491  1.0145
  564THF    H13 9682   0.444   1.524   0.429 -0.6301 -2.0568 -0.6540
  565THF     O1 9683   2.204   5.487   1.043  0.3638  0.1946 -0.6013
  565THF     C2 9684   2.070   5.518   1.019  0.7724 -0.1207 -0.6153
  565THF     C3 9685   2.266   5.566   1.143  0.9557 -0.0943 -0.1479
  565THF     H4 9686   2.001   5.437   0.997 -0.1529  0.4372  0.1668
  565THF     H5 9687   2.067   5.599   0.945 -2.3729 -1.4365 -2.1180
  565THF     H6 9688   2.346   5.514   1.195  1.2546  1.1513  0.6884
  565THF     H7 9689   2.294   5.660   1.095  1.0817 -0.6082 -1.0974
  565THF     C8 9690   2.156   5.585   1.236  0.2170 -0.5623  0.2551
  565THF     C9 9691   2.026   5.576   1.159  0.0211 -0.9175  0.8108
  565THF    H10 9692   2.160   5.681   1.287  0.2196  0.6077 -1.8260
  565THF    H11 9693   2.170   5.519   1.321  1.7921 -0.7433 -0.1245
  565THF    H12 9694   1.953   5.518   1.214 -0.4001  0.9012  2.2778
  565THF    H13 9695   1.972   5.670   1.147 -0.5799 -1.3764 -0.2274
  566THF     O1 9696   2.001   0.014   4.984 -0.2937 -0.3471 -0.1454
  566THF     C2 9697   2.136  -0.017   4.963 -0.0915 -0.4077  0.6767
  566THF     C3 9698   1.934  -0.107   5.017 -0.3241 -0.3687 -1.0839
  566THF     H4 9699   2.186  -0.038   5.057  1.9830  2.1465  0.2615
  566THF     H5 9700   2.185   0.067   4.913 -2.9267  1.6698  1.1449
  566THF     H6 9701   1.953  -0.135   5.120 -0.0281 -2.7111 -1.7117
  566THF     H7 9702   1.826  -0.094   5.015 -0.2156  0.9935  0.1390
  566THF     C8 9703   1.985  -0.210   4.920  0.4825  0.5520  0.1444
  566THF     C9 9704   2.124  -0.144   4.880  0.1760 -0.6662  0.5038
  566THF    H10 9705   1.914  -0.224   4.839  1.0923 -0.1203 -0.2832
  566THF    H11 9706   1.991  -0.307   4.969 -0.6452 -0.3021 -1.3359
  566THF    H12 9707   2.206  -0.214   4.886  0.6977 -0.1267 -0.1822
  566THF    H13 9708   2.117  -0.111   4.776  2.1695  2.4176  1.1894
  567THF     O1 9709   3.314   5.161   2.662  0.4771  0.2553  0.3874
  567THF     C2 9710   3.413   5.100   2.741  1.1791  0.0496 -0.1935
  567THF     C3 9711   3.276   5.071   2.556 -0.1448  0.7765 -0.0693
  567THF     H4 9712   3.364   5.026   2.805  1.4323  0.7545  0.8342
  567THF     H5 9713   3.481   5.164   2.797  0.1530  0.9548  0.0564
  567THF     H6 9714   3.224   4.992   2.612 -0.3110  0.5071 -0.5959
  567THF     H7 9715   3.211   5.116   2.481  0.8860  2.4066 -0.0214
  567THF     C8 9716   3.410   5.028   2.513  0.2092 -0.0776  0.5774
  567THF     C9 9717   3.475   5.007   2.637 -0.1748 -0.9126  0.3801
  567THF    H10 9718   3.462   5.100   2.449  1.7307 -1.3927  0.2745
  567THF    H11 9719   3.407   4.939   2.449 -1.1145 -1.5464  2.5531
  567THF    H12 9720   3.474   4.903   2.670  1.6129 -1.3818 -0.9022
  567THF    H13 9721   3.581   5.033   2.630 -0.6810  1.2345  0.1912
  568THF     O1 9722   4.641   3.411   3.503 -0.1085 -0.1832 -0.2828
  568THF     C2 9723   4.545   3.390   3.398 -0.4037 -0.1862 -0.4339
  568THF     C3 9724   4.604   3.527   3.563 -0.4457  0.2231  0.0850
  568THF     H4 9725   4.448   3.353   3.432 -0.5825 -0.4230 -1.1859
  568THF     H5 9726   4.589   3.307   3.343  0.3118  0.4779 -0.8812
  568THF     H6 9727   4.527   3.508   3.638 -0.9456 -3.2333 -1.1387
  568THF     H7 9728   4.691   3.571   3.613 -0.9813 -0.9382  2.1766
  568THF     C8 9729   4.554   3.623   3.456 -0.6860 -0.5564  0.2100
  568THF     C9 9730   4.543   3.534   3.336  0.5028  0.5199  0.2243
  568THF    H10 9731   4.625   3.704   3.437 -1.5561  1.1820  3.4190
  568THF    H11 9732   4.457   3.667   3.479  0.9550  2.6218  1.8396
  568THF    H12 9733   4.453   3.559   3.279  1.0770  2.9349  0.2612
  568THF    H13 9734   4.636   3.547   3.281  1.9212 -1.2775  2.0601
  569THF     O1 9735   3.182   1.331   3.624  0.0898 -0.1942 -0.0587
  569THF     C2 9736   3.261   1.297   3.513  0.6083 -0.4025 -0.2311
  569THF     C3 9737   3.056   1.277   3.589  0.3228 -0.2952 -0.6176
  569THF     H4 9738   3.366   1.313   3.539  1.0677 -3.2198 -0.0174
  569THF     H5 9739   3.237   1.357   3.425  0.4526  0.4001  0.3505
  569THF     H6 9740   2.996   1.276   3.680  1.9016 -2.3419  0.4812
  569THF     H7 9741   3.013   1.354   3.526  1.7246  0.1611 -1.0654
  569THF     C8 9742   3.074   1.135   3.528  0.3473 -0.4972 -0.6555
  569THF     C9 9743   3.219   1.147   3.480  0.1759 -0.3584 -0.2611
  569THF    H10 9744   3.002   1.117   3.448  0.5001 -0.7410 -0.7391
  569THF    H11 9745   3.056   1.075   3.618 -1.5364  0.4050 -0.3826
  569THF    H12 9746   3.288   1.078   3.529 -0.1826  0.1019  0.9224
  569THF    H13 9747   3.229   1.132   3.372  1.2789  1.8792 -0.5284
  570THF     O1 9748   4.971   1.754   3.266  0.4858  0.2996 -0.3741
  570THF     C2 9749   4.940   1.822   3.388 -0.0833 -0.0147  0.4791
  570THF     C3 9750   5.109   1.741   3.263  0.6273  0.0619  0.0870
  570THF     H4 9751   4.835   1.824   3.420 -0.9385  1.0554 -2.0848
  570THF     H5 9752   4.966   1.925   3.362 -0.7617 -0.0351 -0.3673
  570THF     H6 9753   5.143   1.652   3.209 -0.5826 -0.3806  0.0372
  570THF     H7 9754   5.142   1.828   3.207 -0.6673 -0.1486 -1.0688
  570THF     C8 9755   5.157   1.723   3.408 -0.1845  0.0054  0.0629
  570THF     C9 9756   5.030   1.740   3.488  0.2208  0.1212 -0.1224
  570THF    H10 9757   5.227   1.806   3.421 -1.7091  1.2434  0.5672
  570THF    H11 9758   5.205   1.627   3.427 -0.8796 -0.2895  0.3545
  570THF    H12 9759   4.993   1.638   3.499  0.0565  0.3640  2.0632
  570THF    H13 9760   5.023   1.794   3.583  0.4697 -1.4016  0.7960
  571THF     O1 9761   5.107   2.069   3.026  0.4912  0.2980 -0.3861
  571THF     C2 9762   4.969   2.025   3.044  0.5559 -0.3240 -1.2450
  571THF     C3 9763   5.105   2.203   2.991  0.9600 -0.1559  0.2578
  571THF     H4 9764   4.942   2.013   3.148  2.5111 -0.4919 -0.7116
  571THF     H5 9765   4.953   1.934   2.985  0.5829  0.0644 -1.8663
  571THF     H6 9766   5.075   2.252   3.084 -1.8855  1.1579 -1.2347
  571THF     H7 9767   5.194   2.252   2.950 -0.0026 -0.0263 -1.7917
  571THF     C8 9768   4.980   2.213   2.904  0.7212 -0.1515 -0.1037
  571THF     C9 9769   4.883   2.127   2.988  0.7929 -0.5826  0.7036
  571THF    H10 9770   4.989   2.175   2.802 -0.3317  1.7028 -0.9141
  571THF    H11 9771   4.953   2.317   2.890  2.2219  0.6717  2.3751
  571THF    H12 9772   4.830   2.181   3.066  0.3214 -0.4708  0.3057
  571THF    H13 9773   4.799   2.093   2.927 -0.5544  0.5507  1.8637
  572THF     O1 9774   1.609   2.477   4.310  0.2576  0.5545 -0.2085
  572THF     C2 9775   1.580   2.426   4.183  0.1273  0.5858  0.3978
  572THF     C3 9776   1.514   2.576   4.341  0.1181 -0.6894 -0.4019
  572THF     H4 9777   1.645   2.343   4.154 -0.7235  0.4582 -1.2729
  572THF     H5 9778   1.594   2.492   4.097 -1.1400 -2.2511 -2.1685
  572THF     H6 9779   1.521   2.615   4.443 -1.8086  0.6044 -0.7196
  572THF     H7 9780   1.545   2.658   4.277  3.3275 -0.0833  1.7011
  572THF     C8 9781   1.387   2.505   4.297 -0.0986 -0.4917  0.5266
  572THF     C9 9782   1.435   2.399   4.195 -0.0680 -0.8129 -0.4258
  572THF    H10 9783   1.321   2.587   4.265  1.7752  0.9831  0.2653
  572THF    H11 9784   1.324   2.456   4.371 -0.6186 -2.1106 -0.9253
  572THF    H12 9785   1.433   2.299   4.239  0.7127 -0.7520 -0.2424
  572THF    H13 9786   1.374   2.393   4.105  0.8254 -0.3689 -1.0714
  573THF     O1 9787   5.485   2.166   3.307 -0.0698 -0.4427 -0.1905
  573THF     C2 9788   5.499   2.025   3.299  0.3461 -0.0989  0.5965
  573THF     C3 9789   5.467   2.213   3.177  0.8085 -0.4877 -0.2933
  573THF     H4 9790   5.401   1.977   3.306 -0.3772  0.9440 -1.4254
  573THF     H5 9791   5.567   1.996   3.379  1.0546  1.2591  0.5292
  573THF     H6 9792   5.360   2.218   3.157  0.3684  2.1143  2.0738
  573THF     H7 9793   5.495   2.317   3.169  2.4305 -0.9596 -1.1208
  573THF     C8 9794   5.544   2.123   3.084  0.3513 -0.3602 -0.2428
  573THF     C9 9795   5.565   2.000   3.164 -0.3660 -0.6497  0.3838
  573THF    H10 9796   5.636   2.162   3.041 -0.3133 -0.6811 -2.0405
  573THF    H11 9797   5.486   2.095   2.996  0.3767 -1.5918  0.1158
  573THF    H12 9798   5.534   1.915   3.104 -0.3315 -0.8083  0.5903
  573THF    H13 9799   5.672   1.985   3.176 -0.2996 -3.0958 -2.3832
  574THF     O1 9800   4.571   2.455   2.175 -0.5095  0.0950  0.3383
  574THF     C2 9801   4.670   2.424   2.079 -0.2337 -0.4602  0.8667
  574THF     C3 9802   4.449   2.391   2.131 -0.0721 -0.7163  0.0581
  574THF     H4 9803   4.703   2.321   2.094 -1.0274 -0.6568  1.3072
  574THF     H5 9804   4.764   2.478   2.062 -0.6140  0.2035  0.8341
  574THF     H6 9805   4.461   2.287   2.162  1.5350  0.0602  2.2671
  574THF     H7 9806   4.366   2.442   2.179 -0.8576 -1.1331 -0.8071
  574THF     C8 9807   4.444   2.413   1.977 -0.8611 -0.2512 -0.4477
  574THF     C9 9808   4.589   2.436   1.947 -0.6281  1.0563  0.6661
  574THF    H10 9809   4.391   2.506   1.960  0.5831  0.8922  1.0059
  574THF    H11 9810   4.395   2.327   1.931 -1.7553 -1.0714  1.8629
  574THF    H12 9811   4.623   2.360   1.877  0.6277 -0.4523  2.7838
  574THF    H13 9812   4.607   2.533   1.900 -1.0034  0.6129 -0.4119
  575THF     O1 9813   1.533   0.612   1.991 -0.1200  0.0019  0.1525
  575THF     C2 9814   1.497   0.654   1.861 -0.4537 -0.0665 -0.4570
  575THF     C3 9815   1.662   0.657   2.022  0.0121  0.3694  0.4226
  575THF     H4 9816   1.467   0.758   1.871 -1.8646 -0.0059 -3.9496
  575THF     H5 9817   1.405   0.611   1.823 -1.3147  0.5400  0.8664
  575THF     H6 9818   1.658   0.760   2.055 -0.9620  0.5868 -0.3334
  575THF     H7 9819   1.689   0.588   2.102 -1.5085 -1.4749 -0.5710
  575THF     C8 9820   1.737   0.643   1.891 -0.1724  0.0630 -0.6264
  575THF     C9 9821   1.627   0.633   1.787  0.7094 -0.4660 -0.0628
  575THF    H10 9822   1.795   0.551   1.892 -0.4373 -0.1184  1.3225
  575THF    H11 9823   1.805   0.724   1.865  0.9437 -0.7335 -0.2516
  575THF    H12 9824   1.640   0.716   1.717  0.2924 -0.8528 -0.6061
  575THF    H13 9825   1.618   0.539   1.734 -1.5698  0.8963 -2.3204
  576THF     O1 9826   2.774   0.415   4.672  0.1511 -0.0273  0.2033
  576THF     C2 9827   2.811   0.438   4.806  0.3223  0.0384  0.0639
  576THF     C3 9828   2.634   0.411   4.665  0.2222 -0.2934  0.7932
  576THF     H4 9829   2.916   0.463   4.816  0.5027 -0.9266  0.8203
  576THF     H5 9830   2.796   0.354   4.875 -1.5626  1.4397  1.4946
  576THF     H6 9831   2.600   0.430   4.563  0.4452 -0.1564  0.7428
  576THF     H7 9832   2.587   0.320   4.700  1.4889 -1.0290  0.6180
  576THF     C8 9833   2.591   0.519   4.765 -0.0016 -0.7973  0.8357
  576THF     C9 9834   2.724   0.554   4.830 -0.1065 -0.2235  0.8473
  576THF    H10 9835   2.527   0.473   4.840 -0.7333 -2.4792 -0.7493
  576THF    H11 9836   2.528   0.604   4.741 -1.9657 -1.7312  2.3553
  576THF    H12 9837   2.764   0.642   4.779 -0.5285 -1.1150 -1.1376
  576THF    H13 9838   2.701   0.595   4.929 -1.9351  1.6942 -0.2725
  577THF     O1 9839   1.987   0.431   5.203  0.0849 -0.0701 -1.1608
  577THF     C2 9840   2.030   0.294   5.197  0.1010 -0.2907 -0.2411
  577THF     C3 9841   2.006   0.482   5.336  0.2926 -0.6011 -0.3553
  577THF     H4 9842   2.082   0.273   5.103 -0.1112 -2.6801  0.1038
  577THF     H5 9843   1.934   0.241   5.201  0.4738 -1.1332 -1.6580
  577THF     H6 9844   2.023   0.590   5.328 -1.2218 -0.3714 -0.7004
  577THF     H7 9845   1.917   0.466   5.395  0.6285 -0.9946  0.0537
  577THF     C8 9846   2.123   0.405   5.392 -0.0783 -0.2062  0.3660
  577THF     C9 9847   2.112   0.265   5.322  0.1449  0.8670 -0.0139
  577THF    H10 9848   2.126   0.397   5.501 -0.2729  0.3975  0.4186
  577THF    H11 9849   2.213   0.451   5.351 -0.1838 -0.4263 -0.1217
  577THF    H12 9850   2.208   0.217   5.304  0.9536  0.6602  3.8238
  577THF    H13 9851   2.057   0.192   5.383  2.3879  0.7782  2.0864
  578THF     O1 9852   0.519   0.162   2.868  0.3908 -0.0727  0.2120
  578THF     C2 9853   0.484   0.301   2.858  0.7494  0.0918 -0.5307
  578THF     C3 9854   0.661   0.160   2.836 -0.3896 -0.1075  0.9678
  578THF     H4 9855   0.402   0.328   2.925 -0.4075 -0.8398 -1.5338
  578THF     H5 9856   0.446   0.318   2.757  0.6286  2.7885 -0.1228
  578THF     H6 9857   0.715   0.076   2.879 -1.3162 -0.7415  0.9282
  578THF     H7 9858   0.675   0.157   2.728 -0.0031 -3.2854  1.0295
  578THF     C8 9859   0.725   0.298   2.886  0.7317  0.4429  0.3422
  578THF     C9 9860   0.610   0.391   2.884  0.9136  0.4834 -0.1913
  578THF    H10 9861   0.804   0.343   2.827 -0.1406  0.1660 -1.0735
  578THF    H11 9862   0.757   0.273   2.987 -2.5317  0.9293  1.6299
  578THF    H12 9863   0.595   0.446   2.978 -1.2893 -3.0890  1.7952
  578THF    H13 9864   0.617   0.446   2.790 -0.6522  1.4183  0.1899
  579THF     O1 9865   0.393   1.076   2.512  0.0776  0.5715  0.2036
  579THF     C2 9866   0.422   0.982   2.412 -0.4436  0.0538 -0.2145
  579THF     C3 9867   0.252   1.076   2.543  0.1750  0.2662 -0.1263
  579THF     H4 9868   0.521   0.942   2.432  0.3424  2.2975  0.6578
  579THF     H5 9869   0.420   1.019   2.310  0.8749 -0.4309 -0.4300
  579THF     H6 9870   0.229   1.125   2.637 -1.6296  0.7298 -0.7735
  579THF     H7 9871   0.188   1.114   2.463  0.1395  1.4711  0.4640
  579THF     C8 9872   0.234   0.925   2.558  0.2919 -0.4897 -0.1359
  579THF     C9 9873   0.321   0.875   2.437  0.1324  0.4942 -0.3027
  579THF    H10 9874   0.131   0.892   2.547  0.3102 -0.7041  0.3145
  579THF    H11 9875   0.280   0.892   2.652  1.7272  0.2120 -0.5636
  579THF    H12 9876   0.366   0.783   2.475 -1.5538  0.5950  2.1740
  579THF    H13 9877   0.267   0.865   2.344 -1.3156  1.1828  0.4277
  580THF     O1 9878   5.475   3.143   5.111 -0.8759  0.2860  0.3992
  580THF     C2 9879   5.344   3.152   5.053  0.0445  0.3084  0.2010
  580THF     C3 9880   5.464   3.121   5.253  0.0504 -0.1163 -0.1731
  580THF     H4 9881   5.302   3.054   5.031 -1.3334  1.0242 -0.4870
  580THF     H5 9882   5.345   3.220   4.968  2.1829  0.1746  0.0736
  580THF     H6 9883   5.476   3.016   5.280  1.1086  0.0286 -0.0467
  580THF     H7 9884   5.534   3.175   5.316 -1.8708  0.4389  1.6073
  580THF     C8 9885   5.323   3.158   5.287 -0.2448  0.3889 -0.0874
  580THF     C9 9886   5.256   3.210   5.165  0.4090  0.1676 -0.3912
  580THF    H10 9887   5.315   3.224   5.374  0.3358 -1.8229  1.7369
  580THF    H11 9888   5.286   3.062   5.322  3.1200 -0.7143  0.7993
  580THF    H12 9889   5.151   3.184   5.156  0.2012  1.4793 -2.8860
  580THF    H13 9890   5.258   3.319   5.167 -0.8391  0.2496 -1.5298
  581THF     O1 9891   3.862   2.341   1.226 -0.2057 -0.0657  0.4001
  581THF     C2 9892   3.831   2.475   1.266 -0.2620 -0.6717  0.3167
  581THF     C3 9893   3.922   2.287   1.342 -0.3792 -0.4736 -0.0766
  581THF     H4 9894   3.772   2.526   1.191  1.5555  0.1011 -0.6389
  581THF     H5 9895   3.912   2.544   1.289  0.2957  0.4335 -4.1701
  581THF     H6 9896   3.911   2.179   1.349  2.8099 -0.8311  1.1015
  581THF     H7 9897   4.024   2.321   1.358 -0.3430 -0.5330 -0.1838
  581THF     C8 9898   3.837   2.337   1.456  0.3080  0.1069  0.4313
  581THF     C9 9899   3.750   2.452   1.392 -0.3586 -0.2592 -0.1505
  581THF    H10 9900   3.900   2.379   1.534  2.2501  0.4998 -1.2811
  581THF    H11 9901   3.776   2.262   1.507 -1.7253  1.6940  0.5075
  581THF    H12 9902   3.650   2.417   1.366 -0.2292 -1.6437  1.0312
  581THF    H13 9903   3.733   2.540   1.454 -0.6709 -1.6215  1.8054
  582THF     O1 9904   2.355   2.517   0.035 -0.5070 -0.0014  0.2905
  582THF     C2 9905   2.413   2.622   0.110  0.7395 -0.3741 -0.3669
  582THF     C3 9906   2.271   2.579  -0.068  0.2386 -0.1980 -1.0559
  582THF     H4 9907   2.501   2.650   0.053  1.2795  0.4758  0.8347
  582THF     H5 9908   2.454   2.573   0.199  1.0924 -0.9358 -0.8286
  582THF     H6 9909   2.341   2.619  -0.142  1.1095  0.5704  0.1369
  582THF     H7 9910   2.189   2.525  -0.115 -0.5080  0.9325 -1.0806
  582THF     C8 9911   2.210   2.700   0.006  0.4180 -0.4439 -0.0882
  582THF     C9 9912   2.295   2.717   0.133  0.4545  0.2641 -0.0690
  582THF    H10 9913   2.105   2.683   0.029 -0.6473  2.8405 -1.9019
  582THF    H11 9914   2.221   2.787  -0.057  0.9359 -0.3556  0.1215
  582THF    H12 9915   2.337   2.817   0.143  0.7595  0.3245 -1.5954
  582THF    H13 9916   2.239   2.704   0.225 -0.2365  0.1150 -0.4972
  583THF     O1 9917   4.032   0.106   0.056  0.2233 -0.0679 -0.2565
  583THF     C2 9918   4.051   0.219   0.136 -0.0345 -0.6025  0.2324
  583THF     C3 9919   4.044   0.138  -0.086  0.3057 -0.2711  0.1620
  583THF     H4 9920   4.092   0.193   0.234  1.8740  2.4318  0.3574
  583THF     H5 9921   3.959   0.273   0.159  0.1596 -0.4996  0.7825
  583THF     H6 9922   4.099   0.060  -0.139 -1.0556  0.1737 -2.0269
  583THF     H7 9923   3.944   0.135  -0.128 -0.2276  0.2533  1.3538
  583THF     C8 9924   4.103   0.284  -0.087  0.1345  0.1531  0.1983
  583THF     C9 9925   4.147   0.307   0.052  0.5653  0.3707 -0.2670
  583THF    H10 9926   4.028   0.362  -0.103  0.5232  1.1461  2.7633
  583THF    H11 9927   4.182   0.279  -0.161  0.4859 -1.6587  0.6511
  583THF    H12 9928   4.250   0.273   0.059  0.9688  0.3097 -4.2105
  583THF    H13 9929   4.147   0.411   0.087  1.8941  0.5277 -0.6821
  584THF     O1 9930   5.375   0.265   4.985  0.5585  1.0548  0.0038
  584THF     C2 9931   5.416   0.330   5.109 -0.3957 -0.4026  0.3816
  584THF     C3 9932   5.241   0.313   4.952 -0.1437 -0.4152 -0.2504
  584THF     H4 9933   5.524   0.328   5.121 -0.1670 -1.5603 -1.4542
  584THF     H5 9934   5.371   0.271   5.189 -2.2703  1.1395  0.5454
  584THF     H6 9935   5.222   0.307   4.845  0.1625  2.0373 -0.5112
  584THF     H7 9936   5.173   0.262   5.020  0.8309  1.5190  2.3769
  584THF     C8 9937   5.247   0.463   4.990  0.8291  0.1889  0.2294
  584THF     C9 9938   5.354   0.468   5.095 -0.7064 -0.2581 -0.4866
  584THF    H10 9939   5.152   0.506   5.023  0.2452 -1.1565  0.3530
  584THF    H11 9940   5.271   0.522   4.901 -1.0085 -0.5982 -0.8475
  584THF    H12 9941   5.436   0.529   5.058 -2.8353  1.9635 -1.8530
  584THF    H13 9942   5.316   0.514   5.186 -1.7233 -1.0611 -0.4846
  585THF     O1 9943   1.069   2.664   3.813  0.2769 -0.3997  0.6314
  585THF     C2 9944   1.082   2.754   3.924 -1.0473  0.3822 -0.3538
  585THF     C3 9945   1.044   2.537   3.869 -0.5664  0.5271  0.3079
  585THF     H4 9946   0.985   2.791   3.957 -1.6668 -1.3425 -0.1109
  585THF     H5 9947   1.149   2.839   3.916 -0.7043  0.2748  1.1388
  585THF     H6 9948   0.954   2.486   3.834 -0.2902 -1.2338  1.9592
  585THF     H7 9949   1.127   2.478   3.830 -1.1637 -0.2437  0.1626
  585THF     C8 9950   1.048   2.541   4.019  0.1872 -0.2039 -0.2228
  585THF     C9 9951   1.133   2.666   4.033 -0.1432 -0.4119 -0.4987
  585THF    H10 9952   1.094   2.453   4.064  0.9896  0.4647  0.2838
  585THF    H11 9953   0.949   2.561   4.060  0.5286  1.2243 -0.0280
  585THF    H12 9954   1.112   2.708   4.131  0.3309 -0.1914 -0.4902
  585THF    H13 9955   1.241   2.658   4.019  0.2073  0.3441  1.4640
  586THF     O1 9956   2.575   2.471   3.385 -0.5641 -0.1584 -0.4328
  586THF     C2 9957   2.646   2.505   3.263 -0.0172  0.0570  0.0254
  586THF     C3 9958   2.574   2.597   3.455 -0.3386 -0.1618 -0.1480
  586THF     H4 9959   2.638   2.426   3.189  1.2426 -0.1495  0.0900
  586THF     H5 9960   2.752   2.518   3.282 -0.0540  0.3235  0.0487
  586THF     H6 9961   2.502   2.605   3.536 -1.7077 -0.5158 -1.3040
  586THF     H7 9962   2.671   2.623   3.498 -0.8028  2.0476 -0.3370
  586THF     C8 9963   2.538   2.703   3.352  0.1779  0.0593 -0.4008
  586THF     C9 9964   2.582   2.638   3.221  0.0220 -0.2185 -0.0206
  586THF    H10 9965   2.590   2.795   3.377  0.0898 -0.4036  1.7024
  586THF    H11 9966   2.430   2.715   3.358 -0.3424 -2.8397 -1.8408
  586THF    H12 9967   2.499   2.622   3.153  1.3070 -1.4377 -1.3727
  586THF    H13 9968   2.667   2.683   3.170  1.2543 -0.5255  1.6697
  587THF     O1 9969   2.340   0.867   0.107 -0.4801  0.1842  0.0312
  587THF     C2 9970   2.395   0.981   0.165 -1.2927 -0.3264  0.0624
  587THF     C3 9971   2.432   0.761   0.141 -0.3945  0.1786  0.2531
  587THF     H4 9972   2.393   0.974   0.274 -0.2920 -0.6763  0.0696
  587THF     H5 9973   2.352   1.075   0.130  1.1721  1.3039  1.1884
  587THF     H6 9974   2.417   0.732   0.245  1.5302  0.3894  0.6224
  587THF     H7 9975   2.422   0.671   0.081 -0.8910  2.0391 -2.6709
  587THF     C8 9976   2.573   0.824   0.136 -0.1161  0.4281  0.0904
  587THF     C9 9977   2.542   0.974   0.113  0.2289 -0.4257 -0.1132
  587THF    H10 9978   2.630   0.791   0.049 -0.4039 -2.3175  0.8286
  587THF    H11 9979   2.635   0.791   0.219 -0.5381  0.0932  0.2777
  587THF    H12 9980   2.616   1.034   0.166 -0.1750 -1.0660  1.2129
  587THF    H13 9981   2.546   1.003   0.008  0.5804 -0.2946 -0.0641
  588THF     O1 9982   3.602   2.871   5.370 -0.2083 -0.2961  0.1591
  588THF     C2 9983   3.684   2.834   5.262 -0.6472  0.0595 -0.2862
  588THF     C3 9984   3.590   3.016   5.360 -0.4464  0.2911 -0.0257
  588THF     H4 9985   3.685   2.729   5.236  0.8883 -0.6072  2.0605
  588THF     H5 9986   3.789   2.843   5.292 -1.0721  2.1198  0.8178
  588THF     H6 9987   3.496   3.041   5.409 -0.2377 -0.7913  0.9852
  588THF     H7 9988   3.664   3.052   5.432 -1.4385 -0.6104  1.5013
  588THF     C8 9989   3.621   3.058   5.218  1.1802 -0.2806 -0.2633
  588THF     C9 9990   3.650   2.924   5.151  0.5866 -0.0452 -0.2016
  588THF    H10 9991   3.706   3.125   5.212  1.2315 -0.2806  0.4034
  588THF    H11 9992   3.540   3.102   5.160  1.8114  0.1966 -0.7912
  588THF    H12 9993   3.564   2.894   5.090 -0.0569 -0.1780  0.7574
  588THF    H13 9994   3.735   2.928   5.082  1.8482  0.7271  1.3335
  589THF     O1 9995   1.352   4.024   4.091 -0.3799  0.4931 -0.2841
  589THF     C2 9996   1.446   4.053   4.199  0.7195 -0.6598  0.4567
  589THF     C3 9997   1.361   3.884   4.061 -0.8156  0.3700 -0.0905
  589THF     H4 9998   1.431   4.147   4.252  0.9317  0.4710 -1.3858
  589THF     H5 9999   1.550   4.047   4.166  0.3183 -0.5331 -0.8838
  589THF     H610000   1.269   3.853   4.011 -1.4487  2.3074 -0.2257
  589THF     H710001   1.436   3.846   3.992 -1.6538 -2.4031  0.4320
  589THF     C810002   1.382   3.815   4.197 -0.2303  0.2381 -0.1534
  589THF     C910003   1.404   3.934   4.296  0.1574 -0.0092  0.1470
  589THF    H1010004   1.477   3.760   4.201  0.1872  0.7913 -1.7189
  589THF    H1110005   1.311   3.739   4.230  0.1704 -0.0002  0.1776
  589THF    H1210006   1.313   3.966   4.346 -0.0020 -1.0249  0.5234
  589THF    H1310007   1.467   3.916   4.383 -1.2285 -3.0680  0.6444
  590THF     O110008   2.383   4.969   2.026 -0.1001 -0.0823 -0.3816
  590THF     C210009   2.479   4.990   1.930 -0.0234  0.4997  0.0541
  590THF     C310010   2.428   5.041   2.138  0.0575  0.1647 -0.1619
  590THF     H410011   2.464   5.076   1.865  0.1154  1.4262  1.2024
  590THF     H510012   2.466   4.898   1.874  0.9879 -0.1834  0.9054
  590THF     H610013   2.410   5.147   2.123  0.0321  0.3133  0.8710
  590THF     H710014   2.368   5.023   2.227  0.1247  0.5395 -0.0416
  590THF     C810015   2.576   5.005   2.144  0.9853  0.5377 -0.7088
  590THF     C910016   2.614   4.993   2.002  0.0476  0.6474  0.3655
  590THF    H1010017   2.592   4.909   2.193  1.1436  0.1040 -1.6039
  590THF    H1110018   2.634   5.077   2.203  0.0834 -0.0208  0.9205
  590THF    H1210019   2.677   5.069   1.956 -1.2644  0.5325 -1.7394
  590THF    H1310020   2.671   4.901   1.983 -0.7282  0.5320 -1.6876
  591THF     O110021   4.740   2.967   3.715 -0.3011  0.5841  0.2293
  591THF     C210022   4.743   2.986   3.851 -0.0278  0.8385 -0.0061
  591THF     C310023   4.695   3.088   3.656  0.0552  0.3802  0.6585
  591THF     H410024   4.838   3.035   3.874  0.8257 -1.2348  1.2448
  591THF     H510025   4.742   2.883   3.887 -0.2498 -0.1455 -2.6298
  591THF     H610026   4.782   3.153   3.644 -1.3876  2.1904 -0.5255
  591THF     H710027   4.646   3.071   3.561  1.1634  1.0005 -0.0464
  591THF     C810028   4.597   3.151   3.757  0.2824 -0.1553 -0.0222
  591THF     C910029   4.625   3.076   3.886  0.3179  0.4328 -0.3666
  591THF    H1010030   4.492   3.137   3.733  0.6870 -0.7386 -1.5400
  591THF    H1110031   4.610   3.260   3.753 -1.2768  0.2176  2.5354
  591THF    H1210032   4.664   3.138   3.966 -0.0408 -0.8721  0.8705
  591THF    H1310033   4.538   3.026   3.929  0.2419  0.7191 -0.1884
  592THF     O110034   4.970   1.797   1.203 -0.3160  0.5126  0.0356
  592THF     C210035   4.930   1.842   1.326 -0.2153 -0.1458  0.0005
  592THF     C310036   4.872   1.851   1.110 -0.2888 -0.7367 -0.5308
  592THF     H410037   5.003   1.820   1.404 -1.2951  0.3811  1.2034
  592THF     H510038   4.838   1.792   1.357 -1.5235  1.8945 -0.3551
  592THF     H610039   4.899   1.838   1.005 -0.1804  3.2198 -1.1536
  592THF     H710040   4.770   1.816   1.126 -1.7212  2.9879 -0.5549
  592THF     C810041   4.865   1.999   1.141  0.4858  0.4564 -0.1104
  592THF     C910042   4.913   1.997   1.291  0.3698 -0.2829  0.3178
  592THF    H1010043   4.769   2.048   1.123 -0.4301 -1.2269 -0.0657
  592THF    H1110044   4.934   2.047   1.071  2.0121 -0.1869  0.9000
  592THF    H1210045   5.014   2.037   1.303 -0.6580  2.6103  0.0174
  592THF    H1310046   4.848   2.053   1.358 -0.5387  1.3788 -1.8554
  593THF     O110047   5.187   4.116   5.246  0.6242  0.0188  0.0020
  593THF     C210048   5.131   4.151   5.123  0.2558 -0.1692  0.5405
  593THF     C310049   5.249   3.985   5.229 -0.1769  0.6715 -0.1375
  593THF     H410050   5.197   4.219   5.070 -0.4166  0.9757  1.1134
  593THF     H510051   5.040   4.211   5.132  0.3003 -0.1539  0.9235
  593THF     H610052   5.357   3.995   5.241  0.0064 -0.4008 -0.8104
  593THF     H710053   5.212   3.904   5.291  0.0922  0.2944 -0.4581
  593THF     C810054   5.233   3.946   5.084  0.3528 -0.6375 -0.0540
  593THF     C910055   5.107   4.023   5.042 -0.2948  0.4528 -0.2210
  593THF    H1010056   5.227   3.838   5.072 -0.5049 -0.6389  0.3442
  593THF    H1110057   5.311   3.986   5.020  0.3611 -0.9494 -0.2407
  593THF    H1210058   5.106   4.045   4.935  2.1448 -2.4450 -0.9986
  593THF    H1310059   5.011   3.984   5.076  0.0864 -1.2808 -1.0445
  594THF     O110060   1.258   2.835   0.396 -0.1819  0.1716  0.0068
  594THF     C210061   1.127   2.802   0.360 -0.2327  0.0384 -0.5910
  594THF     C310062   1.360   2.740   0.351  0.1366  0.0982 -0.2327
  594THF     H410063   1.074   2.888   0.320  1.8869  2.7001  1.8635
  594THF     H510064   1.078   2.752   0.444  0.9616 -1.0852 -0.5451
  594THF     H610065   1.415   2.778   0.265  1.0368  1.2295  0.7945
  594THF     H710066   1.435   2.718   0.428  1.2033  1.2560 -0.9049
  594THF     C810067   1.271   2.628   0.286 -0.5808 -0.1083  0.1462
  594THF     C910068   1.143   2.697   0.251 -0.0768 -0.4009  0.0271
  594THF    H1010069   1.249   2.543   0.351  1.1678 -0.0110  0.9141
  594THF    H1110070   1.329   2.595   0.199 -0.1122  0.2972  0.3037
  594THF    H1210071   1.156   2.748   0.156  1.1683 -2.2599 -0.8470
  594THF    H1310072   1.065   2.621   0.240  0.1285 -0.8299  1.3476
  595THF     O110073   5.095   2.240   0.701  0.1060  0.2664  0.4815
  595THF     C210074   5.093   2.162   0.819 -0.1545  0.4477 -0.7481
  595THF     C310075   5.145   2.161   0.594 -0.2314  0.7528 -0.0434
  595THF     H410076   4.987   2.154   0.846  0.3788 -2.3495  0.7775
  595THF     H510077   5.142   2.213   0.902 -0.7636 -1.0377  0.5581
  595THF     H610078   5.106   2.193   0.497 -0.4771  1.4823  0.2898
  595THF     H710079   5.253   2.171   0.594 -0.0302 -1.0506  0.5709
  595THF     C810080   5.111   2.017   0.638  0.1951 -0.1212 -0.1523
  595THF     C910081   5.145   2.020   0.781  0.7603  0.1294  0.1217
  595THF    H1010082   5.166   1.944   0.579  2.2098  1.0892  0.1476
  595THF    H1110083   5.003   2.008   0.621  0.1941  2.4646 -2.1403
  595THF    H1210084   5.097   1.942   0.840  1.0108  0.7993  1.2290
  595THF    H1310085   5.248   1.995   0.803  1.0350 -0.6224 -1.7855
  596THF     O110086   4.732   2.322   3.952  0.9256  0.5260  0.2149
  596THF     C210087   4.844   2.408   3.926  0.5701 -0.2147 -0.3700
  596THF     C310088   4.688   2.279   3.822 -0.7528 -0.9585  0.0500
  596THF     H410089   4.901   2.427   4.016  0.4752  1.0721 -0.5728
  596THF     H510090   4.806   2.500   3.881  0.1444  0.0968  0.6081
  596THF     H610091   4.626   2.191   3.832 -0.2552 -1.4272 -0.8383
  596THF     H710092   4.631   2.355   3.769  1.0947  0.3399 -0.1685
  596THF     C810093   4.827   2.241   3.765 -0.2799  0.4857  0.4243
  596THF     C910094   4.932   2.340   3.818  0.0247  0.4052 -0.2456
  596THF    H1010095   4.832   2.226   3.657 -0.7576  0.2139  0.4397
  596THF    H1110096   4.851   2.138   3.791  2.5349  0.9969  0.2302
  596THF    H1210097   5.029   2.304   3.852 -0.0925  1.2096  0.9857
  596THF    H1310098   4.963   2.409   3.739  1.3600  0.3694  0.2332
  597THF     O110099   0.707   1.735   3.891 -0.1039  0.1371  0.3467
  597THF     C210100   0.683   1.876   3.935  0.2481  0.0274  0.2931
  597THF     C310101   0.585   1.660   3.906 -0.0915  0.1530  0.7256
  597THF     H410102   0.738   1.949   3.875  0.3560 -0.9280 -0.8004
  597THF     H510103   0.710   1.892   4.039  0.8989 -2.9803  0.6665
  597THF     H610104   0.577   1.626   3.803  4.2758  1.8897 -0.4081
  597THF     H710105   0.599   1.573   3.970  1.3093 -0.5923 -0.5358
  597THF     C810106   0.474   1.752   3.944  0.9401 -0.3019 -0.4450
  597THF     C910107   0.530   1.890   3.911 -0.4583  0.2578 -0.2565
  597THF    H1010108   0.454   1.741   4.051  1.2535 -2.3485 -0.5650
  597THF    H1110109   0.379   1.738   3.893  0.2397 -1.0409  0.9888
  597THF    H1210110   0.494   1.909   3.810 -0.8101  1.3375  0.0633
  597THF    H1310111   0.490   1.966   3.978 -2.4815  1.0335 -2.2327
  598THF     O110112   5.174   1.872   3.760  0.4505  0.1134 -0.1824
  598THF     C210113   5.316   1.871   3.771  0.4648  0.3018 -0.1461
  598THF     C310114   5.138   2.011   3.735  0.3885  0.0106  0.5459
  598THF     H410115   5.352   1.774   3.735 -3.7103 -1.2122 -0.8662
  598THF     H510116   5.360   1.879   3.870 -0.2393 -0.1319  0.2107
  598THF     H610117   5.036   2.030   3.700  1.5223  1.2178 -2.4779
  598THF     H710118   5.155   2.073   3.823 -1.9585 -0.0863  1.1205
  598THF     C810119   5.239   2.061   3.629  0.3827 -0.3132  0.1930
  598THF     C910120   5.368   1.987   3.685  0.3838  0.3517 -0.1039
  598THF    H1010121   5.251   2.169   3.622  1.1392 -0.5231 -3.1313
  598THF    H1110122   5.220   2.019   3.530 -0.2736  1.1940 -0.3625
  598THF    H1210123   5.429   1.954   3.601  2.0205 -1.1467  1.5772
  598THF    H1310124   5.433   2.056   3.739  0.0557  1.8333 -1.5238
  599THF     O110125   2.864   4.738   2.633 -0.2980 -0.4563 -0.1085
  599THF     C210126   2.897   4.730   2.495 -0.1455  0.1847 -0.7971
  599THF     C310127   2.779   4.856   2.647 -0.1677 -0.5414  0.0500
  599THF     H410128   2.921   4.625   2.478 -0.5193  0.1071 -0.8604
  599THF     H510129   2.982   4.797   2.480  0.6475 -0.2973  1.2461
  599THF     H610130   2.727   4.858   2.743  1.5683 -0.0642  1.0264
  599THF     H710131   2.837   4.948   2.650  1.1644 -1.3081 -1.0513
  599THF     C810132   2.696   4.865   2.518  0.2296  1.2039  0.1214
  599THF     C910133   2.771   4.776   2.425  0.0183  0.8445  0.8437
  599THF    H1010134   2.669   4.963   2.480 -1.3205  0.4545 -0.7935
  599THF    H1110135   2.597   4.823   2.538  0.0318  1.7196  0.2294
  599THF    H1210136   2.713   4.691   2.391  0.5815  1.1936 -1.1043
  599THF    H1310137   2.810   4.834   2.341  1.4933  2.6869  2.7098
  600THF     O110138   5.296   0.532   1.501 -0.0975 -0.3174  0.0978
  600THF     C210139   5.243   0.496   1.627  0.5501  0.0118 -0.8897
  600THF     C310140   5.391   0.631   1.537 -0.1957 -0.1895  0.5359
  600THF     H410141   5.316   0.429   1.672  0.2960 -0.5010 -1.2323
  600THF     H510142   5.152   0.438   1.614  0.4708  0.1349 -0.8831
  600THF     H610143   5.482   0.576   1.563  0.4514  0.2905 -0.5977
  600THF     H710144   5.411   0.688   1.446 -3.2905  0.0632 -0.0781
  600THF     C810145   5.342   0.712   1.657  0.7516 -0.4645  0.3466
  600THF     C910146   5.221   0.628   1.705 -0.1107  0.8700  0.2016
  600THF    H1010147   5.289   0.801   1.623  1.6268  0.1246  0.5022
  600THF    H1110148   5.423   0.738   1.724  1.0861  0.0293 -0.2347
  600THF    H1210149   5.219   0.610   1.813  1.6596 -0.7195  0.0104
  600THF    H1310150   5.121   0.669   1.689 -0.4197 -0.1254 -0.5080
  601THF     O110151   2.176   3.446   4.633 -0.0479 -0.2468 -0.8233
  601THF     C210152   2.131   3.493   4.512 -0.0051  0.5049  0.9663
  601THF     C310153   2.186   3.557   4.721  0.6909  0.0070 -0.7883
  601THF     H410154   2.023   3.501   4.521 -0.2986 -2.7450  1.5618
  601THF     H510155   2.150   3.428   4.427 -0.2500  1.2030  0.3691
  601THF     H610156   2.085   3.581   4.753 -0.4000 -2.5726 -2.0117
  601THF     H710157   2.238   3.539   4.815 -1.2085  2.1327  0.7662
  601THF     C810158   2.258   3.664   4.634  0.7289  0.6502  0.4232
  601THF     C910159   2.198   3.636   4.497  0.4582 -0.1128 -0.2773
  601THF    H1010160   2.366   3.650   4.629  0.7795  1.4711 -1.2701
  601THF    H1110161   2.240   3.763   4.677 -1.1081  0.9606 -0.9740
  601THF    H1210162   2.126   3.710   4.463  0.3282 -0.8024 -1.5646
  601THF    H1310163   2.276   3.627   4.422  0.6443 -0.8848 -0.0025
  602THF     O110164   2.526   5.318   4.655  0.0960  0.2336 -0.5526
  602THF     C210165   2.522   5.451   4.614  0.3714 -0.0281 -0.6210
  602THF     C310166   2.611   5.310   4.775  0.7089 -0.6244 -0.2669
  602THF     H410167   2.444   5.493   4.676  0.0217  1.4819 -2.0281
  602THF     H510168   2.472   5.430   4.520 -2.2611 -1.6680  1.0340
  602THF     H610169   2.566   5.352   4.864 -1.3407 -0.3127 -1.3919
  602THF     H710170   2.617   5.203   4.795  1.8276 -0.5057  0.1416
  602THF     C810171   2.731   5.392   4.722 -0.4679 -0.8161 -1.2527
  602THF     C910172   2.670   5.498   4.636 -0.2023 -0.4601  0.5904
  602THF    H1010173   2.789   5.316   4.669  0.1970 -1.8210  0.7707
  602THF    H1110174   2.788   5.425   4.809 -0.3978 -0.3390 -1.4769
  602THF    H1210175   2.667   5.589   4.697  1.2756 -0.5567  0.8493
  602THF    H1310176   2.722   5.506   4.541 -0.5186  2.5743  0.5582
  603THF     O110177   1.727   1.513   2.121 -0.1682 -0.1562 -0.3843
  603THF     C210178   1.743   1.429   2.006  0.7966  0.1146  0.5000
  603THF     C310179   1.646   1.624   2.076  0.0001  0.0184 -0.3174
  603THF     H410180   1.645   1.382   2.005  1.7405 -2.0999  2.7034
  603THF     H510181   1.818   1.351   2.014  1.6716  0.9793  1.0126
  603THF     H610182   1.546   1.580   2.071 -0.1502  0.3128  0.0441
  603THF     H710183   1.644   1.704   2.150 -0.8517  0.7001 -1.0481
  603THF     C810184   1.712   1.658   1.944  0.0999  0.6436 -0.2757
  603THF     C910185   1.763   1.525   1.887 -0.0535  0.0826  1.4232
  603THF    H1010186   1.794   1.722   1.975  0.2927  0.3413 -0.1578
  603THF    H1110187   1.653   1.716   1.872  1.6472  1.5794 -0.8514
  603THF    H1210188   1.704   1.498   1.800 -0.2708  0.4627  1.4477
  603THF    H1310189   1.869   1.527   1.859 -0.3613 -1.0168  0.0931
  604THF     O110190   3.748   1.577   4.326 -0.0661 -0.0770 -0.1150
  604THF     C210191   3.773   1.718   4.353 -0.5722 -0.2316  0.7854
  604THF     C310192   3.762   1.544   4.188  0.3738  0.3103 -0.7774
  604THF     H410193   3.823   1.746   4.446  1.4182  1.1591 -0.6191
  604THF     H510194   3.683   1.779   4.345 -2.2489 -2.4306  1.9577
  604THF     H610195   3.834   1.464   4.171  0.8703  1.1153 -2.6688
  604THF     H710196   3.669   1.505   4.146 -0.7524  1.6065  0.4092
  604THF     C810197   3.816   1.672   4.123 -0.0457  0.2533 -0.6402
  604THF     C910198   3.865   1.751   4.241 -0.6949  0.1412  0.4280
  604THF    H1010199   3.743   1.728   4.065  0.1810  0.4949 -0.6972
  604THF    H1110200   3.892   1.656   4.046  2.2289  0.7404  1.3933
  604THF    H1210201   3.968   1.717   4.256 -1.2343 -0.7744  2.3731
  604THF    H1310202   3.862   1.856   4.212 -0.1865  0.1984  0.5805
  605THF     O110203   2.542   1.724   4.876  0.3625  0.2857 -0.1112
  605THF     C210204   2.481   1.658   4.771  0.1401 -0.8511 -0.0893
  605THF     C310205   2.639   1.813   4.814 -0.2260 -0.4042 -0.6744
  605THF     H410206   2.377   1.689   4.776  1.0885  3.1773 -1.8422
  605THF     H510207   2.494   1.550   4.768  0.5682 -0.7940 -3.0170
  605THF     H610208   2.654   1.901   4.876  0.9794 -0.1985 -1.2346
  605THF     H710209   2.736   1.763   4.812 -0.0789 -0.1094 -1.0367
  605THF     C810210   2.600   1.846   4.671  0.4623 -0.1454 -0.3670
  605THF     C910211   2.541   1.710   4.635 -0.2808 -0.0112  0.1627
  605THF    H1010212   2.667   1.875   4.590 -1.6853  1.8071 -1.5645
  605THF    H1110213   2.526   1.926   4.671 -0.9402 -1.4017 -0.2484
  605THF    H1210214   2.470   1.700   4.553  0.2190 -0.7267 -0.1976
  605THF    H1310215   2.631   1.651   4.617  0.9825  0.4053  4.1770
  606THF     O110216   0.995   1.614   2.776 -0.0723  0.1704  0.3052
  606THF     C210217   0.921   1.517   2.846  0.0778  0.1157 -0.1210
  606THF     C310218   1.130   1.580   2.816  0.3952  0.5156  0.2153
  606THF     H410219   0.822   1.502   2.805  0.3658 -1.4055 -0.3252
  606THF     H510220   0.906   1.551   2.948 -3.3889 -0.6917 -0.2535
  606THF     H610221   1.199   1.630   2.747 -2.2121  2.5826 -1.1006
  606THF     H710222   1.142   1.620   2.916 -1.3458 -1.4503  1.2640
  606THF     C810223   1.137   1.426   2.809 -0.4339 -0.3943  0.6158
  606THF     C910224   1.001   1.384   2.845 -0.1685 -0.6909  0.1156
  606THF    H1010225   1.209   1.385   2.880 -0.8521 -0.0838  1.2251
  606THF    H1110226   1.154   1.383   2.711  1.7456  0.0573  0.7405
  606THF    H1210227   0.952   1.330   2.765  1.3195 -2.0972  0.0984
  606THF    H1310228   0.992   1.322   2.934 -2.5185 -0.6113 -0.0168
  607THF     O110229   2.092   1.554   0.941  0.5483  0.6459 -0.8858
  607THF     C210230   2.165   1.655   1.010 -0.3060  0.4709 -0.5936
  607THF     C310231   2.157   1.423   0.955  0.5287  0.0813 -0.1923
  607THF     H410232   2.164   1.640   1.117 -0.5575 -0.0222 -0.6623
  607THF     H510233   2.138   1.758   0.987  0.1597  0.3089 -1.9811
  607THF     H610234   2.132   1.377   1.051  2.7518  2.3392  1.6155
  607THF     H710235   2.141   1.347   0.878  0.6165  0.1279 -0.2572
  607THF     C810236   2.309   1.462   0.947 -0.0131 -0.1291  1.1136
  607THF     C910237   2.301   1.616   0.947 -0.4426 -0.4209  0.1286
  607THF    H1010238   2.349   1.420   0.854 -1.1408  0.1199  0.4924
  607THF    H1110239   2.363   1.418   1.031  1.4865 -1.3468 -0.4134
  607THF    H1210240   2.383   1.661   1.002 -0.1846 -0.3427 -0.3137
  607THF    H1310241   2.305   1.663   0.848 -0.3486  1.3196  0.9326
  608THF     O110242   1.186   2.613   2.623 -0.1083 -0.3991  0.0400
  608THF     C210243   1.259   2.659   2.503 -0.2974  0.5164 -1.1961
  608THF     C310244   1.240   2.692   2.730  0.2729 -0.8610 -0.1086
  608THF     H410245   1.230   2.626   2.403  2.2060 -0.3200 -1.7330
  608THF     H510246   1.358   2.614   2.516 -0.9658 -0.9966 -1.0660
  608THF     H610247   1.182   2.682   2.821  0.6344  0.5320  0.3053
  608THF     H710248   1.336   2.646   2.755  0.0982 -0.1283  2.1884
  608THF     C810249   1.265   2.834   2.678  0.4153 -0.2896 -0.0526
  608THF     C910250   1.270   2.807   2.526  0.0976 -0.8760  0.6127
  608THF    H1010251   1.348   2.890   2.722  0.4342 -1.9460  2.1635
  608THF    H1110252   1.173   2.891   2.688 -1.0730 -2.7245  0.8437
  608THF    H1210253   1.195   2.861   2.468  0.1627 -1.4665 -0.0482
  608THF    H1310254   1.362   2.845   2.483 -2.5092  1.6670 -3.5362
  609THF     O110255   1.905   4.253   1.716 -0.1063 -0.6419  0.3468
  609THF     C210256   1.920   4.287   1.579 -0.1895 -1.1387  0.6875
  609THF     C310257   1.882   4.373   1.789 -0.4808 -0.3009 -0.0306
  609THF     H410258   1.895   4.196   1.524 -0.4548 -1.5697  1.5092
  609THF     H510259   2.027   4.305   1.568 -0.0660  0.1603  3.3137
  609THF     H610260   1.828   4.363   1.883  2.0778 -1.0438  1.4597
  609THF     H710261   1.979   4.416   1.815 -0.3554 -0.8878  0.5154
  609THF     C810262   1.806   4.466   1.693  0.1419  0.3088 -0.2385
  609THF     C910263   1.838   4.411   1.550 -0.3853  0.3162 -0.5168
  609THF    H1010264   1.841   4.569   1.696 -0.5355  0.5890 -1.2176
  609THF    H1110265   1.698   4.465   1.707  0.0849 -0.1777 -0.6601
  609THF    H1210266   1.756   4.391   1.480 -0.9396 -0.8638  0.4288
  609THF    H1310267   1.904   4.482   1.500 -1.0902 -0.0861 -2.0946
  610THF     O110268   1.642   5.146   1.205  0.0123 -0.5479 -0.1941
  610THF     C210269   1.615   5.201   1.080 -0.0144  0.9304  0.0083
  610THF     C310270   1.658   5.247   1.299  1.3511  0.1541  0.6556
  610THF     H410271   1.546   5.129   1.036 -1.8433  0.2815  3.5494
  610THF     H510272   1.712   5.225   1.037  0.3042  0.3674  0.4058
  610THF     H610273   1.637   5.216   1.402  1.4733  1.0297  0.9491
  610THF     H710274   1.761   5.280   1.295  1.2997  0.2877  0.4337
  610THF     C810275   1.553   5.358   1.257 -0.7480  0.0399  1.0069
  610THF     C910276   1.541   5.330   1.108  0.0596  0.7582  0.0259
  610THF    H1010277   1.578   5.462   1.277  0.8962 -0.3971  1.3042
  610THF    H1110278   1.459   5.326   1.304 -1.8418 -0.8900 -1.5973
  610THF    H1210279   1.440   5.333   1.067 -0.0267 -0.2630  0.1266
  610THF    H1310280   1.572   5.415   1.047 -0.8434  0.8289 -0.3481
  611THF     O110281   3.957   3.952   4.872  0.4679 -0.4234  0.4674
  611THF     C210282   3.876   4.064   4.822 -0.1075 -0.3379 -0.7017
  611THF     C310283   3.960   3.836   4.792  0.2144 -0.2791  0.2368
  611THF     H410284   3.942   4.150   4.818 -0.6710  0.3699  2.4330
  611THF     H510285   3.804   4.089   4.900  1.7698  0.9739  0.7166
  611THF     H610286   4.063   3.799   4.793  0.7007  1.0315  1.0976
  611THF     H710287   3.900   3.752   4.829 -0.4853  0.6735  1.3374
  611THF     C810288   3.907   3.882   4.655 -0.4716 -0.7023  0.1626
  611THF     C910289   3.814   4.001   4.686 -0.1926  0.6037  0.0767
  611THF    H1010290   3.861   3.803   4.595  0.4503 -1.9174  0.9959
  611THF    H1110291   3.988   3.927   4.597 -2.5924  2.0114 -0.9288
  611THF    H1210292   3.825   4.070   4.603  0.6959  0.1430 -0.1998
  611THF    H1310293   3.717   3.953   4.702 -0.2362  0.7315  0.2043
  612THF     O110294   3.513   4.914   4.900 -0.6294  0.3646  0.3208
  612THF     C210295   3.435   5.035   4.905  0.3600  0.0136 -0.0397
  612THF     C310296   3.432   4.800   4.948 -0.0453  0.3002 -0.4332
  612THF     H410297   3.476   5.110   4.837 -0.7306  0.4175 -0.2658
  612THF     H510298   3.435   5.095   4.996  1.0575  2.3910 -1.5245
  612THF     H610299   3.457   4.707   4.897  0.6871  0.2239  0.0478
  612THF     H710300   3.446   4.786   5.055 -0.2594  0.8398 -0.3285
  612THF     C810301   3.288   4.843   4.939  0.5216  0.9886  0.5560
  612THF     C910302   3.286   4.983   4.874 -0.5639  0.0964  0.1424
  612THF    H1010303   3.244   4.855   5.038  1.8767 -1.2535  1.4913
  612THF    H1110304   3.231   4.766   4.889  0.4852  0.7695  0.9286
  612THF    H1210305   3.278   4.980   4.765  1.0521  2.7766 -0.1287
  612THF    H1310306   3.207   5.046   4.914 -2.1800 -1.3369 -0.6509
  613THF     O110307   2.153   4.695   4.265 -0.0515  0.3770  0.4273
  613THF     C210308   2.246   4.766   4.337 -0.0965 -0.4945 -0.0832
  613THF     C310309   2.151   4.556   4.307 -0.3367 -0.9857 -0.0443
  613THF     H410310   2.223   4.873   4.341 -0.8763 -0.6886  1.1492
  613THF     H510311   2.345   4.756   4.292 -0.6017  1.1911 -1.6928
  613THF     H610312   2.055   4.510   4.285 -1.5926  0.3183  2.3588
  613THF     H710313   2.230   4.501   4.255  0.9202 -0.1198  0.8983
  613THF     C810314   2.187   4.556   4.451 -0.0277 -0.9053 -0.3518
  613THF     C910315   2.237   4.698   4.478 -0.1380  0.5368  0.1389
  613THF    H1010316   2.251   4.469   4.465 -0.8988 -1.0683  3.7060
  613THF    H1110317   2.098   4.531   4.509 -0.5966 -1.6236 -1.5024
  613THF    H1210318   2.168   4.752   4.543  1.7288  2.9536  0.2965
  613THF    H1310319   2.335   4.707   4.525 -1.0556 -0.2912  2.3801
  614THF     O110320   3.192   3.803   2.086 -0.5869  0.6765 -0.3568
  614THF     C210321   3.295   3.706   2.068  0.3072 -0.6983  0.1419
  614THF     C310322   3.255   3.936   2.075  0.1880  1.0349  0.1175
  614THF     H410323   3.302   3.684   1.962 -0.6629  0.3454 -0.1570
  614THF     H510324   3.276   3.619   2.130  0.7727 -1.7713 -1.1725
  614THF     H610325   3.265   3.972   1.973 -0.2849  1.1653  0.1161
  614THF     H710326   3.181   4.001   2.121 -1.4070 -0.8804  0.3827
  614THF     C810327   3.384   3.916   2.155 -0.7120  0.0902  0.2865
  614THF     C910328   3.424   3.781   2.107 -0.1567  0.1819  0.1262
  614THF    H1010329   3.363   3.898   2.261 -0.6867 -3.3556 -0.1797
  614THF    H1110330   3.461   3.992   2.141  0.7384 -1.5560 -1.2020
  614THF    H1210331   3.503   3.790   2.032  1.0722  1.2561  1.4931
  614THF    H1310332   3.476   3.737   2.192 -0.4641  0.9589  0.7375
  615THF     O110333   5.167   0.043   5.435 -0.0524  0.2532  0.5071
  615THF     C210334   5.145   0.180   5.385 -0.0731 -0.0801 -0.1461
  615THF     C310335   5.054  -0.031   5.394 -1.0040 -0.5802 -0.3867
  615THF     H410336   5.186   0.200   5.286  1.2958  0.3906  0.4819
  615THF     H510337   5.197   0.250   5.451 -0.8990  0.2190  0.2048
  615THF     H610338   5.062  -0.044   5.286 -3.0811  1.5309 -0.8857
  615THF     H710339   5.048  -0.128   5.443  0.4572 -0.8021 -0.5860
  615THF     C810340   4.936   0.063   5.427  0.0966 -0.2938 -0.4305
  615THF     C910341   4.995   0.203   5.386  0.0640 -0.2067  0.1678
  615THF    H1010342   4.926   0.064   5.536 -0.7415 -1.7039 -0.4675
  615THF    H1110343   4.846   0.050   5.367 -1.7918  4.5744  0.8940
  615THF    H1210344   4.950   0.236   5.292  3.0722  0.0876 -1.2797
  615THF    H1310345   4.978   0.286   5.454  0.4685 -0.4039  0.5150
  616THF     O110346   4.274   4.641   0.985 -0.0885 -0.3137 -0.2907
  616THF     C210347   4.326   4.624   0.853  0.2037 -0.6235  0.1269
  616THF     C310348   4.153   4.714   0.965  0.2876  0.5289 -0.0665
  616THF     H410349   4.275   4.544   0.798  2.0761 -1.5453 -0.3626
  616THF     H510350   4.433   4.608   0.849  0.5075  1.3214 -0.6011
  616THF     H610351   4.081   4.642   0.925 -0.7649 -0.4756  3.2792
  616THF     H710352   4.093   4.757   1.046 -0.2576 -2.7611  1.4397
  616THF     C810353   4.182   4.814   0.861 -0.3458 -0.7370 -1.0095
  616THF     C910354   4.295   4.747   0.786  0.1729 -0.1594  0.1445
  616THF    H1010355   4.220   4.903   0.910 -1.4999  0.3001 -1.9302
  616THF    H1110356   4.099   4.839   0.795 -0.1226  0.7900 -0.7403
  616THF    H1210357   4.257   4.719   0.687  0.1981 -0.1336  0.1277
  616THF    H1310358   4.386   4.805   0.772 -0.2847  0.3932 -0.6312
  617THF     O110359   5.003   1.495   0.118 -0.5047 -0.1385 -0.1465
  617THF     C210360   5.112   1.565   0.047  0.5467  1.0016  0.6912
  617THF     C310361   4.910   1.588   0.163 -0.7460 -0.6294 -0.8781
  617THF     H410362   5.069   1.600  -0.047 -0.4903  1.0942  1.1796
  617THF     H510363   5.210   1.520   0.032  1.1966  2.4233  0.4595
  617THF     H610364   4.829   1.584   0.090  1.1688 -0.3370 -3.1404
  617THF     H710365   4.871   1.560   0.261  0.8626  2.1777  0.7118
  617THF     C810366   4.988   1.721   0.178  0.0819 -0.2966  0.2101
  617THF     C910367   5.131   1.697   0.121  0.3736  0.6709 -0.2082
  617THF    H1010368   4.984   1.745   0.284  3.3331 -0.0426  0.3631
  617THF    H1110369   4.939   1.798   0.118 -0.1976 -0.1280  0.6521
  617THF    H1210370   5.167   1.767   0.045  0.7435  0.8549  0.1329
  617THF    H1310371   5.215   1.677   0.187  0.4447  1.4260 -0.0639
  618THF     O110372   0.156   4.827   4.923  0.0352 -0.1004 -0.1946
  618THF     C210373   0.050   4.726   4.926 -0.0092  0.0871 -1.3224
  618THF     C310374   0.089   4.940   4.978  0.1648 -0.7821  0.1624
  618THF     H410375   0.097   4.628   4.922 -1.0451 -0.4497 -6.0877
  618THF     H510376  -0.008   4.728   4.834 -1.7416 -2.3758 -0.3905
  618THF     H610377   0.151   5.027   4.996 -1.1644  0.2539 -0.0930
  618THF     H710378   0.013   4.966   4.904  0.4998  0.3372  0.1977
  618THF     C810379   0.014   4.889   5.102 -0.5403 -0.2434  0.2291
  618THF     C910380  -0.024   4.749   5.057 -0.0376 -0.0985 -0.9541
  618THF    H1010381  -0.062   4.967   5.110  0.1692  0.4096  0.7844
  618THF    H1110382   0.076   4.889   5.192  0.8832 -1.1188 -0.7241
  618THF    H1210383   0.018   4.673   5.124  1.1302 -0.6074 -2.2314
  618THF    H1310384  -0.131   4.725   5.056  0.1558 -1.2905  1.0809
  619THF     O110385   0.907   1.142   1.874  0.4355  0.5055  0.6225
  619THF     C210386   0.893   1.214   1.997 -0.8427  0.3968  0.1126
  619THF     C310387   0.905   1.227   1.758 -0.4262 -0.1511 -0.5115
  619THF     H410388   0.962   1.168   2.068 -1.8550 -0.5434  0.5038
  619THF     H510389   0.795   1.219   2.045 -0.1631  1.8329  1.4658
  619THF     H610390   0.994   1.195   1.704  1.2218 -1.1692  2.5696
  619THF     H710391   0.818   1.204   1.696 -0.2712 -1.6796 -0.2139
  619THF     C810392   0.899   1.376   1.820  0.3409  0.2984  0.3841
  619THF     C910393   0.940   1.355   1.964 -0.2432 -0.5324 -0.0496
  619THF    H1010394   0.801   1.422   1.804  1.0384  1.2394 -1.4943
  619THF    H1110395   0.966   1.438   1.761 -0.0453 -1.7433 -2.4407
  619THF    H1210396   1.048   1.364   1.962 -0.2724  0.0062  0.6762
  619THF    H1310397   0.893   1.433   2.023 -1.4787 -2.6018  1.8555
  620THF     O110398   4.731   0.655   2.916 -0.0244  0.0915 -0.0050
  620THF     C210399   4.613   0.575   2.926 -0.0356 -0.5965  0.2844
  620THF     C310400   4.832   0.562   2.877  0.1947 -0.2712  0.5414
  620THF     H410401   4.527   0.641   2.937  2.1057  2.3165  0.7110
  620THF     H510402   4.617   0.489   2.992  1.0892 -0.9611 -0.2342
  620THF     H610403   4.917   0.625   2.850 -0.7652  1.1655  0.7890
  620THF     H710404   4.864   0.499   2.961 -1.5497  1.6750  2.7958
  620THF     C810405   4.761   0.486   2.762  0.8013  0.2098 -0.3288
  620THF     C910406   4.615   0.506   2.792 -0.2157 -0.0472 -0.4056
  620THF    H1010407   4.794   0.382   2.765  1.5378  0.4403 -0.2761
  620THF    H1110408   4.785   0.524   2.663  0.2568 -1.6649 -1.2211
  620THF    H1210409   4.567   0.556   2.708  1.7147 -0.1551 -1.6410
  620THF    H1310410   4.566   0.409   2.791  0.4303 -0.3730 -0.8059
  621THF     O110411   1.216   1.852   3.047 -0.6261 -0.2629 -0.2819
  621THF     C210412   1.300   1.937   2.972  0.3903  0.0932  0.0554
  621THF     C310413   1.131   1.936   3.114 -0.1466 -0.5997  0.2774
  621THF     H410414   1.248   1.961   2.880  1.6733  1.1417 -0.4307
  621THF     H510415   1.391   1.880   2.955  0.2686  0.3359 -1.6038
  621THF     H610416   1.062   1.965   3.034  0.5548 -2.1746 -0.9662
  621THF     H710417   1.068   1.885   3.186 -0.4044 -0.9471 -0.1857
  621THF     C810418   1.220   2.050   3.160  0.2890 -0.4509 -0.5195
  621THF     C910419   1.320   2.066   3.052 -0.2410 -0.1283 -0.2435
  621THF    H1010420   1.268   2.013   3.250 -0.2352 -2.9679 -1.1967
  621THF    H1110421   1.157   2.137   3.178 -0.1539 -1.3277  2.7692
  621THF    H1210422   1.295   2.153   2.992 -2.3194  0.2340  1.0405
  621THF    H1310423   1.418   2.065   3.099 -1.8885 -2.5744  3.6712
  622THF     O110424   3.327   2.005   2.225 -0.1683  0.4943 -0.1191
  622THF     C210425   3.232   2.030   2.124 -0.6267 -0.0720  0.2173
  622THF     C310426   3.456   2.013   2.165  0.6425  0.0511 -0.5682
  622THF     H410427   3.142   2.059   2.178 -0.6226  0.8058 -0.2324
  622THF     H510428   3.214   1.945   2.058 -2.3908 -0.0990  0.6924
  622THF     H610429   3.536   2.028   2.238 -0.6068 -0.6972  1.0060
  622THF     H710430   3.473   1.915   2.121 -1.4176  0.5011 -2.5430
  622THF     C810431   3.440   2.128   2.064  0.4524 -0.0741 -0.6726
  622THF     C910432   3.288   2.144   2.049  0.3048 -0.6497  0.1283
  622THF    H1010433   3.497   2.105   1.975  0.3248 -0.6346 -0.6131
  622THF    H1110434   3.479   2.221   2.106  0.6769  0.0618 -1.1753
  622THF    H1210435   3.241   2.229   2.099 -0.0629 -0.6534 -0.2014
  622THF    H1310436   3.245   2.143   1.949 -1.4485 -0.1311  0.8437
  623THF     O110437   1.896   3.739   2.611 -0.4917 -0.3345  0.2509
  623THF     C210438   1.804   3.817   2.687  0.3096  0.1012  0.2694
  623THF     C310439   2.011   3.816   2.575  0.2329  0.0932  0.1900
  623THF     H410440   1.768   3.777   2.782  0.0992  0.7842  0.4898
  623THF     H510441   1.727   3.855   2.620  1.2279  0.0693 -0.8234
  623THF     H610442   2.094   3.773   2.630 -0.6243 -2.6820 -0.5430
  623THF     H710443   2.033   3.805   2.469 -2.2782  3.6312 -0.9114
  623THF     C810444   1.985   3.958   2.616 -0.5774 -0.0925 -0.4081
  623THF     C910445   1.872   3.947   2.709 -0.1094 -0.4595 -0.4613
  623THF    H1010446   1.947   4.027   2.540 -2.1431 -1.7385 -1.1937
  623THF    H1110447   2.069   4.003   2.669  0.1898 -1.5125 -0.3882
  623THF    H1210448   1.916   3.947   2.809  0.6662 -0.3566 -0.7960
  623THF    H1310449   1.814   4.039   2.718  1.1229  0.2863  0.1387
  624THF     O110450   2.169   5.158   0.092  0.5712 -0.3981  0.1915
  624THF     C210451   2.042   5.210   0.045 -0.6294  0.3751  0.5843
  624THF     C310452   2.244   5.262   0.149  0.3233 -0.3038 -0.4388
  624THF     H410453   1.955   5.151   0.072 -0.2635 -0.1614  0.5920
  624THF     H510454   2.049   5.221  -0.063  1.0250 -0.7053  0.5578
  624THF     H610455   2.221   5.248   0.255 -0.8984  2.1605 -0.2969
  624THF     H710456   2.351   5.255   0.127  0.0457  1.2118 -2.5073
  624THF     C810457   2.183   5.402   0.119  0.5700  0.4082 -0.0463
  624THF     C910458   2.038   5.354   0.105 -0.0480 -0.0497  0.8094
  624THF    H1010459   2.214   5.449   0.026 -1.0458 -1.5790 -1.6872
  624THF    H1110460   2.208   5.475   0.196  0.9373  1.2927 -0.9957
  624THF    H1210461   2.003   5.352   0.208 -0.5786  2.7724  0.7664
  624THF    H1310462   1.964   5.413   0.050 -0.4273 -0.2192  1.1280
  625THF     O110463   2.153   3.783   1.743  0.1056 -0.6720 -0.2212
  625THF     C210464   2.133   3.869   1.855 -0.3358  0.1505  0.0050
  625THF     C310465   2.090   3.658   1.765  0.5933  0.7159 -0.0213
  625THF     H410466   2.033   3.911   1.859 -0.5486 -0.0838 -1.9405
  625THF     H510467   2.208   3.948   1.857 -0.2095  0.1435 -1.9007
  625THF     H610468   1.983   3.678   1.771  0.9299  2.3189  1.3684
  625THF     H710469   2.102   3.577   1.694  0.5988  0.6907  0.0081
  625THF     C810470   2.142   3.623   1.901  0.0733 -0.7271  0.1016
  625THF     C910471   2.152   3.767   1.961  0.7859  0.3858 -0.1678
  625THF    H1010472   2.236   3.568   1.898  1.7364  1.3831  4.3656
  625THF    H1110473   2.070   3.552   1.942 -0.9176 -2.4686 -4.1791
  625THF    H1210474   2.076   3.779   2.038  0.1788  0.3080 -0.7423
  625THF    H1310475   2.243   3.777   2.020 -0.2823  1.5057  1.3630
  626THF     O110476   1.789   0.954   4.126  0.4533  0.4825  0.4256
  626THF     C210477   1.668   0.884   4.171  0.4005  0.3527 -0.5369
  626THF     C310478   1.781   0.946   3.987  0.0704  0.5665  0.2002
  626THF     H410479   1.581   0.950   4.173 -0.3967 -0.6870 -0.1255
  626THF     H510480   1.691   0.861   4.274 -2.6792 -0.2650  0.1297
  626THF     H610481   1.713   1.017   3.939 -0.7111 -2.6473 -4.0883
  626THF     H710482   1.879   0.963   3.941  0.2794 -2.2952 -0.6086
  626THF     C810483   1.732   0.803   3.961 -0.2916  0.0621  0.3467
  626THF     C910484   1.649   0.767   4.080 -0.0374  0.2572 -0.2511
  626THF    H1010485   1.822   0.742   3.954  0.3880  1.0485  0.3625
  626THF    H1110486   1.672   0.805   3.870 -3.2997 -0.8957  2.1516
  626THF    H1210487   1.544   0.763   4.048  0.7246 -0.1178 -2.9360
  626THF    H1310488   1.689   0.677   4.125  1.7932  0.6265 -1.0462
  627THF     O110489   0.589   0.289   2.065 -0.0848  0.6630  0.4706
  627THF     C210490   0.527   0.161   2.048  0.1232  0.5802  0.4204
  627THF     C310491   0.697   0.286   1.974 -0.1296 -1.1589  0.1847
  627THF     H410492   0.464   0.164   1.959 -0.1381  1.2758  0.6199
  627THF     H510493   0.460   0.136   2.131  0.2048  0.7638  0.5425
  627THF     H610494   0.663   0.279   1.871 -0.7420 -0.4727  0.3258
  627THF     H710495   0.763   0.372   1.983  0.6663 -1.9656  2.9023
  627THF     C810496   0.764   0.161   2.017 -0.4906 -0.6916  0.0141
  627THF     C910497   0.649   0.072   2.030 -0.4475 -0.2523 -0.2102
  627THF    H1010498   0.816   0.180   2.111  1.4333  0.4861 -1.2164
  627THF    H1110499   0.835   0.123   1.943  2.4105 -1.9620  3.1560
  627THF    H1210500   0.638  -0.002   1.950 -0.0239 -0.3617 -0.1671
  627THF    H1310501   0.663   0.022   2.126  1.2667  1.4978  0.5048
  628THF     O110502   1.085   1.462   4.068 -0.4003 -0.3484 -0.2855
  628THF     C210503   0.989   1.409   3.975 -0.0712  0.0522 -0.8268
  628THF     C310504   1.159   1.568   3.998 -0.2336  0.3780  0.3787
  628THF     H410505   0.901   1.474   3.985  1.1870  1.9111 -1.4027
  628THF     H510506   0.978   1.303   3.998  2.3798 -0.0753  0.0006
  628THF     H610507   1.086   1.646   3.979 -1.2976 -0.8164 -0.5874
  628THF     H710508   1.246   1.608   4.052  0.5588 -0.0929 -0.5248
  628THF     C810509   1.185   1.498   3.873  0.3585  0.4353  0.2336
  628THF     C910510   1.044   1.431   3.842 -0.3238 -0.6902  0.0733
  628THF    H1010511   1.257   1.417   3.873  2.1128  1.9345  1.4752
  628THF    H1110512   1.218   1.557   3.787  1.5080 -0.8689 -0.2630
  628THF    H1210513   0.983   1.497   3.781  0.3265 -0.2397 -0.1064
  628THF    H1310514   1.046   1.333   3.793  1.8594 -0.5374 -0.2717
  629THF     O110515   3.340   3.172   3.898 -0.6066  0.3096  0.8304
  629THF     C210516   3.248   3.075   3.938  0.2444 -0.0768 -0.2166
  629THF     C310517   3.317   3.195   3.762  0.5169 -0.6929  0.4454
  629THF     H410518   3.220   3.080   4.044 -1.9683  0.3774 -0.7594
  629THF     H510519   3.288   2.976   3.917 -1.1380 -0.5992 -0.5098
  629THF     H610520   3.356   3.293   3.733  1.5045 -1.5275 -1.2553
  629THF     H710521   3.360   3.113   3.703 -1.9164 -1.2186 -0.7073
  629THF     C810522   3.173   3.177   3.732 -0.1283 -0.0468  0.9885
  629THF     C910523   3.123   3.096   3.854  0.5595 -0.0930  0.4006
  629THF    H1010524   3.153   3.122   3.640  0.7147 -1.6541  1.7305
  629THF    H1110525   3.125   3.276   3.728 -2.8309 -1.3057 -1.7786
  629THF    H1210526   3.052   3.151   3.916  0.8331  0.7721 -0.0405
  629THF    H1310527   3.073   3.003   3.825 -1.1960  0.0946  2.5078
  630THF     O110528   1.141   1.742   2.276 -0.3368  0.8463 -0.0012
  630THF     C210529   1.197   1.817   2.170  0.0813 -0.3069 -0.5056
  630THF     C310530   1.078   1.836   2.363  0.0110  0.6281 -0.5077
  630THF     H410531   1.118   1.869   2.116  0.9992  3.9033  1.8444
  630THF     H510532   1.254   1.760   2.097 -1.4934 -2.5762 -0.0737
  630THF     H610533   0.988   1.890   2.333 -1.1748  0.2548  2.0981
  630THF     H710534   1.057   1.796   2.462  0.3946  1.5105 -0.0603
  630THF     C810535   1.190   1.939   2.377 -0.0230  1.1975  0.1510
  630THF     C910536   1.267   1.928   2.241 -0.2781  1.1564  0.4722
  630THF    H1010537   1.258   1.909   2.456  2.1695 -0.0386 -2.0660
  630THF    H1110538   1.145   2.037   2.397  1.2122  1.7282  0.4011
  630THF    H1210539   1.287   2.024   2.192  0.8558 -0.0474 -1.5375
  630THF    H1310540   1.372   1.909   2.262 -0.1811  0.5857 -0.4729
  631THF     O110541   0.435   3.279   5.483  0.1376  0.3984 -0.5085
  631THF     C210542   0.344   3.350   5.403 -0.2585 -0.0685  0.0319
  631THF     C310543   0.570   3.316   5.453  0.0201 -0.0381  0.8264
  631THF     H410544   0.240   3.358   5.435 -0.0509  0.2654  0.6344
  631THF     H510545   0.356   3.301   5.306 -0.0349  0.9051 -0.4506
  631THF     H610546   0.639   3.281   5.530 -0.9960 -3.1809  0.4399
  631THF     H710547   0.605   3.273   5.360  0.2285  2.5709 -0.3952
  631THF     C810548   0.566   3.465   5.414  0.6614  0.1924  0.3334
  631THF     C910549   0.406   3.489   5.404 -0.0310  0.0988  0.2393
  631THF    H1010550   0.612   3.476   5.315 -0.3548 -1.6591 -0.4011
  631THF    H1110551   0.607   3.531   5.491 -0.3054  0.9554  0.2151
  631THF    H1210552   0.388   3.544   5.496  1.1554  0.9891 -0.0295
  631THF    H1310553   0.389   3.551   5.316 -1.2823 -0.9393 -0.2778
  632THF     O110554   1.739   3.937   1.991  0.3322 -0.0649  0.5485
  632THF     C210555   1.756   4.076   1.985 -0.2597 -0.3515 -0.4203
  632THF     C310556   1.635   3.909   2.079 -0.7483 -0.4722  0.1753
  632THF     H410557   1.824   4.098   1.903  0.7069 -1.1800  0.1488
  632THF     H510558   1.800   4.104   2.080  1.6836  0.4488 -1.5097
  632THF     H610559   1.598   3.807   2.066 -2.3849 -0.0945  1.4416
  632THF     H710560   1.670   3.916   2.183 -0.5016 -1.2106  0.1460
  632THF     C810561   1.529   4.006   2.033 -0.2608 -0.1041  0.1735
  632THF     C910562   1.611   4.124   1.974  0.1301 -0.3570  0.0309
  632THF    H1010563   1.457   4.024   2.113  0.0721 -0.8512  0.6518
  632THF    H1110564   1.468   3.965   1.952 -2.0875 -0.0429  1.4493
  632THF    H1210565   1.596   4.143   1.867  0.6490  2.7107  0.4118
  632THF    H1310566   1.596   4.222   2.020  0.8874  0.9763 -2.3758
  633THF     O110567   5.493   5.244   5.077 -0.0436 -0.5575  0.2083
  633THF     C210568   5.586   5.347   5.091  0.4965  0.1027  0.2919
  633THF     C310569   5.410   5.280   4.972 -0.1033 -0.6136  0.9487
  633THF     H410570   5.674   5.310   5.143  0.0872  0.5970  1.3744
  633THF     H510571   5.552   5.440   5.137 -2.4722 -0.8586  0.2527
  633THF     H610572   5.353   5.190   4.952  1.8970 -1.6989 -0.2032
  633THF     H710573   5.341   5.358   5.003 -1.2393 -2.0467  2.1446
  633THF     C810574   5.502   5.318   4.862 -0.7651 -0.0397 -0.2391
  633THF     C910575   5.609   5.394   4.941 -0.8274 -0.3295  0.4690
  633THF    H1010576   5.453   5.378   4.786  0.5122  1.4694  0.0784
  633THF    H1110577   5.540   5.234   4.802 -2.4285  0.2178 -1.7261
  633THF    H1210578   5.705   5.356   4.907 -1.2606 -1.3033  0.3086
  633THF    H1310579   5.597   5.502   4.927  0.7221 -0.0987  0.7791
  634THF     O110580   0.715   3.106   1.118 -0.3033 -0.2502 -0.1506
  634THF     C210581   0.787   2.982   1.147 -0.1660 -0.0004 -0.0993
  634THF     C310582   0.798   3.173   1.030  0.3119 -0.0378  0.1840
  634THF     H410583   0.785   2.914   1.062 -0.3469 -0.4328  0.2475
  634THF     H510584   0.743   2.948   1.241 -0.9707  0.2378 -0.3846
  634THF     H610585   0.791   3.126   0.932  0.3519  0.1965  0.0703
  634THF     H710586   0.770   3.277   1.014 -0.3202  0.8791  5.4919
  634THF     C810587   0.939   3.155   1.089  0.8133 -0.0057  0.1118
  634THF     C910588   0.934   3.028   1.177 -0.5480 -0.3590 -0.3790
  634THF    H1010589   0.977   3.237   1.150  2.1345 -0.0301 -0.6495
  634THF    H1110590   0.998   3.157   0.997 -0.4801 -2.1808 -0.8298
  634THF    H1210591   1.013   2.958   1.149 -0.4314  0.1222 -1.2560
  634THF    H1310592   0.939   3.058   1.282 -0.5047  1.6444 -0.9278
  635THF     O110593   4.314   1.800   5.341 -0.2920  0.0156 -0.4447
  635THF     C210594   4.359   1.837   5.475  0.3972 -0.0081 -0.6806
  635THF     C310595   4.420   1.714   5.293  0.3010 -0.7349  0.8893
  635THF     H410596   4.272   1.874   5.528  1.0737 -0.3088  0.6666
  635THF     H510597   4.425   1.923   5.467 -2.1668  1.9296 -2.5567
  635THF     H610598   4.383   1.658   5.207  1.0809  0.6549 -0.4061
  635THF     H710599   4.498   1.782   5.260 -1.2518  1.3204  1.1856
  635THF     C810600   4.464   1.629   5.409 -0.6789  0.2522  0.4347
  635THF     C910601   4.411   1.707   5.528 -0.4236  0.3660  0.2795
  635THF    H1010602   4.569   1.600   5.409 -0.5619  0.6772  0.6152
  635THF    H1110603   4.413   1.533   5.408 -2.7275  1.2493  1.8825
  635THF    H1210604   4.330   1.640   5.560 -1.0781  0.7293 -0.5796
  635THF    H1310605   4.480   1.706   5.612 -3.6139 -0.6967  3.1434
  636THF     O110606   5.104   4.153   4.362  0.3966  0.9407 -0.0280
  636THF     C210607   4.962   4.120   4.364 -0.3006  0.6571  0.0248
  636THF     C310608   5.115   4.290   4.322  1.1107 -0.1128 -0.0091
  636THF     H410609   4.948   4.026   4.419  0.9219  0.3485 -0.1644
  636THF     H510610   4.932   4.109   4.260  3.4732 -1.0595 -1.0830
  636THF     H610611   5.213   4.331   4.347  1.6934 -0.8709 -0.9834
  636THF     H710612   5.092   4.294   4.216 -2.6680 -0.2683  0.6902
  636THF     C810613   4.993   4.357   4.394 -0.3793  0.2470 -0.1650
  636THF     C910614   4.911   4.241   4.443  0.4805  0.2177 -0.2433
  636THF    H1010615   4.932   4.424   4.333 -3.3804 -1.3006  0.8886
  636THF    H1110616   5.043   4.413   4.473  1.9350 -0.4414 -1.0761
  636THF    H1210617   4.928   4.214   4.547  1.3501  0.5816 -0.2787
  636THF    H1310618   4.805   4.255   4.424  0.2553 -1.9503 -0.8814
  637THF     O110619   0.961   2.032   1.139  0.2114  0.0522 -0.1360
  637THF     C210620   0.833   2.098   1.148 -0.4714  0.4718 -0.0173
  637THF     C310621   1.046   2.109   1.213  0.0271 -0.8653 -0.2252
  637THF     H410622   0.755   2.028   1.117  1.0454 -1.1652 -0.2711
  637THF     H510623   0.850   2.169   1.067  0.4346  1.2226  0.8036
  637THF     H610624   1.138   2.053   1.224  0.0149 -0.7042  0.7944
  637THF     H710625   1.062   2.190   1.141  0.4373 -0.4111  0.3651
  637THF     C810626   0.963   2.162   1.334 -0.0522 -0.5053  0.0926
  637THF     C910627   0.825   2.155   1.289 -0.0627 -0.1364  0.2910
  637THF    H1010628   0.987   2.263   1.367 -1.2404 -0.5394  1.1580
  637THF    H1110629   0.971   2.097   1.421 -0.3578 -1.8366 -0.8458
  637THF    H1210630   0.772   2.089   1.358 -0.5012  0.1116  0.1960
  637THF    H1310631   0.775   2.252   1.288 -0.2866 -0.2529  0.1943
  638THF     O110632   2.107   4.640   1.625 -0.3075  0.0586 -0.2181
  638THF     C210633   2.131   4.711   1.748 -0.3672 -1.0315  0.7392
  638THF     C310634   2.045   4.732   1.541 -0.0327  0.7918 -0.4516
  638THF     H410635   2.214   4.658   1.797 -0.8516 -1.5907  0.9662
  638THF     H510636   2.036   4.705   1.802 -1.7339 -0.7653 -1.5416
  638THF     H610637   2.012   4.703   1.441  0.2955 -2.8300  0.3408
  638THF     H710638   1.953   4.754   1.595  0.2228 -2.0752  1.3890
  638THF     C810639   2.135   4.849   1.551 -0.5840  0.4219 -0.0628
  638THF     C910640   2.172   4.853   1.694  0.0540  0.1621  0.1101
  638THF    H1010641   2.094   4.941   1.512 -0.7923  0.1471 -0.5032
  638THF    H1110642   2.225   4.828   1.492 -0.4228  1.0226 -0.0373
  638THF    H1210643   2.280   4.866   1.703  0.0297 -0.7072  2.4058
  638THF    H1310644   2.125   4.932   1.752 -0.0661  0.1419  0.0409
  639THF     O110645   4.654   4.160   3.440 -0.8457 -0.1797 -0.2480
  639THF     C210646   4.617   4.042   3.510  0.1481  0.3953  0.2241
  639THF     C310647   4.540   4.232   3.410  0.3771  0.3748  0.2154
  639THF     H410648   4.583   4.054   3.613 -0.6047 -0.4430  0.0924
  639THF     H510649   4.694   3.964   3.516 -0.5868 -0.5361 -1.6857
  639THF     H610650   4.519   4.301   3.491 -2.4853  1.5480 -1.3858
  639THF     H710651   4.534   4.287   3.316  0.2403  0.7556  0.4491
  639THF     C810652   4.425   4.127   3.410  0.3232 -0.6275  0.3750
  639THF     C910653   4.492   3.993   3.443 -0.8145  0.3245 -0.2200
  639THF    H1010654   4.363   4.124   3.320  0.8425  2.3668 -0.1908
  639THF    H1110655   4.351   4.154   3.486  0.9421  0.6792  0.5344
  639THF    H1210656   4.431   3.929   3.508  0.0078 -0.5713 -0.3174
  639THF    H1310657   4.506   3.921   3.363  0.3511 -0.6369  0.8207
  640THF     O110658   4.304   2.684   0.941 -1.1407  0.0361 -0.1931
  640THF     C210659   4.197   2.744   0.870  0.4713 -0.5968  0.5115
  640THF     C310660   4.283   2.712   1.080  0.2282  0.3062  0.1892
  640THF     H410661   4.113   2.679   0.844 -0.3025  0.5338  0.0928
  640THF     H510662   4.253   2.774   0.781  1.0760 -2.8729  0.0623
  640THF     H610663   4.203   2.643   1.105  0.8461 -1.2843 -1.9259
  640THF     H710664   4.372   2.705   1.143 -1.4669 -0.5729  2.6479
  640THF     C810665   4.235   2.855   1.071  0.0314 -0.1336 -0.3291
  640THF     C910666   4.147   2.860   0.951  0.1084  0.0204  0.3671
  640THF    H1010667   4.318   2.925   1.060 -0.8984  0.9040 -1.1308
  640THF    H1110668   4.184   2.881   1.164  0.0093 -0.9412 -0.1080
  640THF    H1210669   4.040   2.857   0.974  0.1254  2.0029  0.8771
  640THF    H1310670   4.152   2.955   0.898 -3.4636 -0.8363 -1.8890
  641THF     O110671   2.220   2.778   2.321 -0.1124  0.3830 -0.8471
  641THF     C210672   2.144   2.791   2.445  0.1857 -1.0216  0.4685
  641THF     C310673   2.181   2.646   2.277  0.3997 -0.7669  0.1904
  641THF     H410674   2.048   2.839   2.428 -0.1954 -0.0659  4.4313
  641THF     H510675   2.185   2.859   2.519  1.5264  0.0929 -1.2284
  641THF     H610676   2.081   2.664   2.237  0.1790 -0.7829  0.7241
  641THF     H710677   2.248   2.625   2.194 -0.7478  1.6185 -1.4422
  641THF     C810678   2.172   2.555   2.401 -0.6653 -0.2158 -0.3044
  641THF     C910679   2.132   2.651   2.508  0.6250 -0.0053 -0.4127
  641THF    H1010680   2.273   2.521   2.422 -0.5266 -0.2499 -0.9939
  641THF    H1110681   2.113   2.464   2.385  0.6601 -1.7315  2.6942
  641THF    H1210682   2.031   2.634   2.543 -0.0351  1.3917 -1.5526
  641THF    H1310683   2.208   2.641   2.586  0.5105  1.2115 -0.1365
  642THF     O110684   3.817   1.242   4.899  0.1648  0.0184  0.2176
  642THF     C210685   3.695   1.307   4.938  0.0170  0.2173 -0.5164
  642THF     C310686   3.853   1.287   4.772 -0.9770 -0.2762  0.2228
  642THF     H410687   3.729   1.382   5.009 -1.8128  1.9866 -1.3754
  642THF     H510688   3.623   1.243   4.989  0.8683  0.2075  0.7122
  642THF     H610689   3.961   1.301   4.773 -1.0800  0.6361  1.0050
  642THF     H710690   3.838   1.200   4.708  2.9158 -2.0663  1.3956
  642THF     C810691   3.768   1.406   4.734 -0.0507  0.1725  0.3166
  642THF     C910692   3.643   1.366   4.810  0.2160 -0.7421  0.5640
  642THF    H1010693   3.764   1.420   4.626  0.8334  0.6793  0.3405
  642THF    H1110694   3.812   1.499   4.771  1.0920 -0.5207  0.7490
  642THF    H1210695   3.584   1.457   4.821  0.0520 -0.7859  0.0957
  642THF    H1310696   3.596   1.291   4.746  1.0234 -1.6261  0.9952
  643THF     O110697   0.652   2.356   2.370  0.4865 -0.3749  0.1427
  643THF     C210698   0.517   2.399   2.375  0.1431 -0.1690  0.1090
  643THF     C310699   0.675   2.255   2.470 -0.2146  0.5459 -0.9430
  643THF     H410700   0.460   2.361   2.290  1.1470 -0.6948 -0.3507
  643THF     H510701   0.518   2.507   2.356  0.0930 -0.2051 -0.1092
  643THF     H610702   0.625   2.167   2.431  2.4252 -1.2380 -0.5220
  643THF     H710703   0.782   2.239   2.477 -0.3092 -0.3482 -1.4860
  643THF     C810704   0.595   2.316   2.589 -0.0183  1.2277 -0.3693
  643THF     C910705   0.469   2.366   2.512 -0.7686  0.1984  0.5854
  643THF    H1010706   0.654   2.390   2.644 -0.6161  0.2823  1.6282
  643THF    H1110707   0.572   2.238   2.661  3.1423  1.5349  1.1121
  643THF    H1210708   0.397   2.287   2.490 -1.0738  0.9870 -1.5266
  643THF    H1310709   0.414   2.451   2.552 -2.4995 -0.4530 -0.3124
  644THF     O110710   1.861   2.317   2.070 -0.1968  0.0914 -0.0142
  644THF     C210711   1.916   2.252   2.184  0.3886 -0.0850  0.0986
  644THF     C310712   1.815   2.445   2.124 -0.0060  0.0209  0.8214
  644THF     H410713   2.014   2.297   2.201  0.5032 -0.4932  0.5301
  644THF     H510714   1.929   2.145   2.170  0.2200 -0.0478 -0.3554
  644THF     H610715   1.903   2.507   2.136 -0.2364 -0.0480  3.4488
  644THF     H710716   1.745   2.486   2.051  0.9136  0.3339  0.1100
  644THF     C810717   1.753   2.429   2.266 -0.7777  0.0642 -0.0881
  644THF     C910718   1.807   2.287   2.293 -0.3998 -0.5229 -0.6327
  644THF    H1010719   1.644   2.440   2.268 -0.9730 -1.4442  2.4750
  644THF    H1110720   1.792   2.505   2.334 -1.9706  0.9706 -0.3676
  644THF    H1210721   1.845   2.286   2.396  2.1249  1.0401 -1.4413
  644THF    H1310722   1.732   2.209   2.289  0.0732 -1.0518  0.2910
  645THF     O110723   3.584   0.845   4.032 -0.3803  0.0504 -0.0401
  645THF     C210724   3.464   0.812   3.962 -0.3257 -0.2323  0.0516
  645THF     C310725   3.577   0.762   4.148 -0.0398  0.3557  0.0857
  645THF     H410726   3.488   0.722   3.906 -0.0835  0.3541 -0.8118
  645THF     H510727   3.432   0.875   3.879  1.3229 -0.7004 -0.9685
  645THF     H610728   3.601   0.664   4.105 -3.5605 -0.0955 -1.2327
  645THF     H710729   3.660   0.783   4.214  0.3570 -1.3724  0.1845
  645THF     C810730   3.439   0.782   4.209  0.7503 -0.7235  0.0924
  645THF     C910731   3.358   0.788   4.074  0.0827 -0.1331 -0.7781
  645THF    H1010732   3.422   0.877   4.260  2.0934 -0.5359  0.2275
  645THF    H1110733   3.413   0.704   4.280 -1.2898 -1.9690 -1.9039
  645THF    H1210734   3.304   0.696   4.053 -0.1273  0.3369 -2.4967
  645THF    H1310735   3.285   0.868   4.070  0.1912 -0.0006 -0.2000
  646THF     O110736   1.439   1.624   0.532 -0.1055 -0.4390  0.1075
  646THF     C210737   1.499   1.656   0.409 -1.2025  0.6157  0.5906
  646THF     C310738   1.527   1.672   0.635 -0.1616  0.0598 -0.1585
  646THF     H410739   1.486   1.762   0.386 -0.8818  0.3258 -1.1382
  646THF     H510740   1.464   1.595   0.326  0.2289  0.5568  0.0059
  646THF     H610741   1.496   1.772   0.661  0.8636  0.0852  1.0782
  646THF     H710742   1.520   1.616   0.729  0.9114 -0.8504 -0.5886
  646THF     C810743   1.668   1.660   0.577  0.2987 -0.0755  0.0044
  646THF     C910744   1.647   1.653   0.429 -0.1655  0.0309  0.9910
  646THF    H1010745   1.701   1.561   0.610  3.0383  1.0314  0.8958
  646THF    H1110746   1.744   1.732   0.606  0.6927  0.0263 -1.2238
  646THF    H1210747   1.700   1.739   0.388  1.1014 -0.4952  1.4805
  646THF    H1310748   1.695   1.561   0.395 -0.4862 -0.2828  1.3789
  647THF     O110749   2.706   3.058   3.823 -0.3075  0.7021 -0.3981
  647THF     C210750   2.589   2.989   3.841  0.8060 -0.4256 -0.1692
  647THF     C310751   2.796   2.966   3.761  0.5888  0.1600 -0.1336
  647THF     H410752   2.518   3.065   3.874  1.7969  1.1608 -1.5084
  647THF     H510753   2.608   2.913   3.916 -0.0762  1.0831  1.6760
  647THF     H610754   2.883   3.016   3.720  0.1877  0.9456 -0.0362
  647THF     H710755   2.820   2.886   3.832 -1.3107 -0.1511  0.2087
  647THF     C810756   2.710   2.904   3.650 -0.2379 -0.2696 -0.4998
  647THF     C910757   2.569   2.932   3.709 -0.0273  0.2345 -0.1141
  647THF    H1010758   2.714   2.795   3.644 -0.1095 -0.3893  1.2122
  647THF    H1110759   2.730   2.952   3.554  3.2597 -0.2806  0.0895
  647THF    H1210760   2.527   3.007   3.643 -2.6426 -0.5671  0.5395
  647THF    H1310761   2.501   2.847   3.709  0.5648 -0.2513 -0.2184
  648THF     O110762   1.267   1.072   4.012  0.0811 -0.4874 -0.0926
  648THF     C210763   1.185   0.963   3.979  0.0861  0.2580  0.0534
  648THF     C310764   1.377   1.078   3.914  0.0928  0.2531  0.2679
  648THF     H410765   1.088   0.980   4.026  0.6571 -0.3715  1.5274
  648THF     H510766   1.211   0.861   4.006 -0.7979 -0.4954 -1.7513
  648THF     H610767   1.442   1.163   3.892  0.9727 -0.7341 -1.0261
  648THF     H710768   1.448   1.015   3.966  0.5473  0.2467 -0.3497
  648THF     C810769   1.317   1.018   3.788 -0.0664  0.3549  0.1513
  648THF     C910770   1.179   0.969   3.831  0.0492  0.5772  0.3034
  648THF    H1010771   1.390   0.945   3.754 -1.1298 -1.4840  1.6473
  648THF    H1110772   1.310   1.094   3.710 -1.8630 -0.6420 -0.7120
  648THF    H1210773   1.107   1.046   3.800 -0.4753  0.4861  1.2453
  648THF    H1310774   1.137   0.878   3.790 -0.9181  0.4097  1.5907
  649THF     O110775   1.179   0.037   0.247  0.5084  0.5832 -0.2698
  649THF     C210776   1.086   0.084   0.142 -0.6428  0.2557  0.4729
  649THF     C310777   1.281   0.131   0.276 -0.5668 -0.3849  0.0298
  649THF     H410778   0.981   0.055   0.152 -0.9260  1.2252  0.3423
  649THF     H510779   1.119   0.061   0.041 -0.1581 -0.1873  0.7229
  649THF     H610780   1.254   0.154   0.379 -0.8611 -1.9336  0.3293
  649THF     H710781   1.382   0.090   0.277 -0.4788 -0.1775 -0.2252
  649THF     C810782   1.255   0.247   0.183 -0.5919  0.4543 -0.5528
  649THF     C910783   1.105   0.234   0.159  0.1682 -0.2147  0.6389
  649THF    H1010784   1.302   0.233   0.085 -1.0586  0.6591 -0.8122
  649THF    H1110785   1.285   0.343   0.222  1.1720 -0.2482 -0.0801
  649THF    H1210786   1.049   0.257   0.249  0.4386 -0.3596  0.8446
  649THF    H1310787   1.078   0.295   0.073 -0.9419 -0.8492  0.5207
  650THF     O110788   5.478   4.236   1.485  0.1614 -0.0517  1.0875
  650THF     C210789   5.485   4.336   1.581 -0.2432  0.1519  0.3048
  650THF     C310790   5.609   4.181   1.464 -0.1745  0.8275 -0.5042
  650THF     H410791   5.504   4.299   1.682  1.4915  0.5832  0.1633
  650THF     H510792   5.403   4.408   1.587 -0.2036  0.2625 -0.4475
  650THF     H610793   5.624   4.096   1.530  0.4080  0.3135 -1.2877
  650THF     H710794   5.622   4.148   1.361  0.0636 -2.4838  0.4765
  650THF     C810795   5.703   4.289   1.512 -0.0940  0.3549 -0.2765
  650THF     C910796   5.613   4.411   1.535  0.0118 -0.4716  0.0183
  650THF    H1010797   5.785   4.303   1.442 -0.6960  1.4178 -0.7982
  650THF    H1110798   5.742   4.265   1.611 -0.0869  0.2332 -0.3085
  650THF    H1210799   5.662   4.483   1.599 -1.3614  1.2048 -0.7209
  650THF    H1310800   5.585   4.462   1.442 -1.7013 -2.9055 -0.9148
  651THF     O110801   4.056   3.398   2.813 -0.0546 -0.1759  0.3647
  651THF     C210802   4.195   3.399   2.790 -0.7485 -0.0702  0.8291
  651THF     C310803   4.038   3.336   2.943  0.0671 -0.1149 -0.4139
  651THF     H410804   4.249   3.477   2.845 -0.8402 -0.6000  1.6971
  651THF     H510805   4.222   3.417   2.686 -1.8251 -2.0586  0.1387
  651THF     H610806   4.064   3.403   3.025 -2.2185  0.2676  0.0409
  651THF     H710807   3.937   3.300   2.961 -0.5285  2.5097  2.2062
  651THF     C810808   4.139   3.225   2.935 -0.7098  0.6164 -0.5193
  651THF     C910809   4.230   3.254   2.816 -0.5723  0.6204 -0.2940
  651THF    H1010810   4.094   3.126   2.940 -1.2968  0.7530 -2.2560
  651THF    H1110811   4.203   3.225   3.023  1.8370  4.3358 -2.0978
  651THF    H1210812   4.335   3.247   2.845 -0.6133  0.2725 -0.2291
  651THF    H1310813   4.222   3.189   2.729 -1.1189  0.8538 -0.4225
  652THF     O110814   2.980   3.158   4.501 -0.4540 -0.4679  0.3002
  652THF     C210815   2.992   3.142   4.637  0.4494  0.1080  0.3151
  652THF     C310816   3.117   3.166   4.459 -0.0931  0.1504 -0.4231
  652THF     H410817   2.897   3.113   4.681 -0.3911  1.5605 -0.4791
  652THF     H510818   3.021   3.231   4.694  0.7088 -2.3102  4.4238
  652THF     H610819   3.129   3.131   4.357  0.6482 -1.0036  0.0228
  652THF     H710820   3.151   3.269   4.470 -2.1793  0.8533 -0.2098
  652THF     C810821   3.207   3.083   4.557  0.2930 -0.4032  0.2168
  652THF     C910822   3.108   3.050   4.663  0.1324 -0.3469 -0.1768
  652THF    H1010823   3.291   3.141   4.595 -0.3645  1.1580 -0.6137
  652THF    H1110824   3.250   2.996   4.507  1.1481  0.7284 -1.0896
  652THF    H1210825   3.077   2.946   4.659 -0.8856 -0.1034  1.0564
  652THF    H1310826   3.166   3.070   4.753  0.0516  1.6133 -0.5117
  653THF     O110827   1.861   3.679   4.594  0.6602 -0.4818  0.0680
  653THF     C210828   1.817   3.771   4.688 -0.4598 -0.2990 -0.3151
  653THF     C310829   1.784   3.700   4.473 -0.0570  0.2391 -0.0195
  653THF     H410830   1.907   3.791   4.746  0.7148 -1.8616 -1.5068
  653THF     H510831   1.747   3.736   4.764 -0.5461  1.4095  0.4294
  653THF     H610832   1.834   3.642   4.395 -1.3515  0.7264 -1.2521
  653THF     H710833   1.678   3.676   4.472 -0.4353  1.6348  1.8490
  653THF     C810834   1.787   3.855   4.468 -0.3947  0.0972 -0.1692
  653THF     C910835   1.774   3.901   4.609 -0.3004  0.1876  0.6331
  653THF    H1010836   1.720   3.894   4.391 -0.0290 -0.1031 -0.5953
  653THF    H1110837   1.893   3.866   4.444 -0.1350 -0.7827  0.5462
  653THF    H1210838   1.844   3.982   4.633 -0.7946  0.7107  0.3527
  653THF    H1310839   1.669   3.919   4.633 -0.1937  1.8777 -0.0326
  654THF     O110840   0.709   3.645   3.646 -0.1600 -0.0181 -0.2211
  654THF     C210841   0.576   3.683   3.625  1.4109  0.0705  0.1792
  654THF     C310842   0.750   3.724   3.761 -0.5140  0.0199  0.1433
  654THF     H410843   0.511   3.642   3.703  0.1286 -1.0074 -1.3827
  654THF     H510844   0.543   3.662   3.523 -0.4466  1.2612  0.4813
  654THF     H610845   0.726   3.672   3.853  0.8325  0.6680  0.8869
  654THF     H710846   0.856   3.741   3.744 -0.7241  1.2581 -0.0383
  654THF     C810847   0.674   3.857   3.745 -0.2112  0.2845 -0.0515
  654THF     C910848   0.571   3.834   3.638 -0.5758 -0.1261 -0.5430
  654THF    H1010849   0.741   3.933   3.705  0.1610 -0.4103 -0.7569
  654THF    H1110850   0.642   3.895   3.843  1.1958  0.9503  0.1703
  654THF    H1210851   0.475   3.871   3.673  0.5755  1.8133  0.7846
  654THF    H1310852   0.598   3.883   3.545 -0.9000 -0.3076 -0.7326
  655THF     O110853   0.245   2.348   4.390 -0.6986 -0.5622 -0.1372
  655THF     C210854   0.351   2.449   4.414  0.3107  0.1246  0.1993
  655THF     C310855   0.153   2.428   4.317  0.4484  0.4675  0.5181
  655THF     H410856   0.441   2.395   4.444  0.3184 -0.4875 -0.8784
  655THF     H510857   0.331   2.527   4.488  0.2002  1.0875 -0.8181
  655THF     H610858   0.104   2.355   4.252  1.4869 -1.1751  1.5101
  655THF     H710859   0.077   2.473   4.381  0.7452 -1.1700  2.1013
  655THF     C810860   0.221   2.522   4.230 -0.5280 -0.1672 -0.6202
  655THF     C910861   0.367   2.507   4.278 -1.1503  0.0624 -0.0448
  655THF    H1010862   0.171   2.619   4.236  0.2532  0.5325 -3.7731
  655THF    H1110863   0.225   2.500   4.123  2.6540  0.0125 -0.6295
  655THF    H1210864   0.426   2.448   4.208 -0.2185  2.1014 -1.0516
  655THF    H1310865   0.417   2.601   4.298 -0.5373 -0.2590 -0.0603
  656THF     O110866   3.757   3.524   0.468 -0.2718  0.5196  0.5354
  656THF     C210867   3.834   3.580   0.581  0.3641 -0.1866 -0.1198
  656THF     C310868   3.776   3.382   0.470 -0.0122 -0.2661  0.1222
  656THF     H410869   3.803   3.684   0.597  0.0633 -0.3781  0.6072
  656THF     H510870   3.941   3.586   0.562  0.1559  2.8769 -0.8822
  656THF     H610871   3.699   3.318   0.427  0.9392 -0.0996 -1.9541
  656THF     H710872   3.870   3.362   0.418  1.6376  1.1534  2.3492
  656THF     C810873   3.794   3.359   0.625 -0.2047 -0.8621 -0.7340
  656THF     C910874   3.824   3.490   0.698  0.1162  0.8404 -0.0325
  656THF    H1010875   3.878   3.292   0.645  0.8045  0.5140 -0.2639
  656THF    H1110876   3.698   3.315   0.653 -0.5675  0.4966  0.2112
  656THF    H1210877   3.738   3.511   0.762  0.2657  1.4013 -0.0080
  656THF    H1310878   3.915   3.474   0.755  0.2600 -0.9515 -0.7096
  657THF     O110879   0.076   2.042   2.481 -0.4672  0.6486 -0.4040
  657THF     C210880   0.168   1.965   2.403 -0.3330  0.4159  0.3529
  657THF     C310881   0.143   2.075   2.601  0.1658 -0.2253  0.0120
  657THF     H410882   0.226   2.038   2.345 -0.6073  1.0304  0.8417
  657THF     H510883   0.116   1.902   2.332 -0.1881  0.7286 -0.0372
  657THF     H610884   0.200   2.166   2.578 -1.0032 -0.0021 -2.2910
  657THF     H710885   0.069   2.098   2.677 -0.5013  0.5626 -0.8539
  657THF     C810886   0.232   1.960   2.631 -0.0010 -0.2724  0.5136
  657THF     C910887   0.260   1.888   2.503 -0.0899 -0.2896 -0.2418
  657THF    H1010888   0.175   1.894   2.697  2.1407 -0.1867  2.5689
  657THF    H1110889   0.322   1.976   2.689  0.2457 -0.1462  0.0993
  657THF    H1210890   0.367   1.895   2.485  0.1719 -1.4066  0.7103
  657THF    H1310891   0.231   1.783   2.515  0.6151 -0.7171 -1.9774
  658THF     O110892   3.638   4.716   2.301  0.3772 -0.1126  0.1886
  658THF     C210893   3.744   4.787   2.232  0.0025  0.0462 -0.5248
  658THF     C310894   3.672   4.727   2.444  0.7016  0.2460 -0.2624
  658THF     H410895   3.702   4.839   2.146  0.8975  1.3154 -0.2204
  658THF     H510896   3.818   4.711   2.205  0.3560  1.1482 -2.8722
  658THF     H610897   3.597   4.762   2.514  0.0078 -1.1030 -0.3037
  658THF     H710898   3.678   4.623   2.477 -0.2033  1.0740  2.7794
  658THF     C810899   3.794   4.814   2.466 -0.3460 -0.0470  0.0319
  658THF     C910900   3.805   4.886   2.330  0.1955 -0.0317  0.2077
  658THF    H1010901   3.885   4.757   2.485 -0.0714 -0.2479 -1.7186
  658THF    H1110902   3.782   4.882   2.551  0.6945  2.9266 -2.0102
  658THF    H1210903   3.744   4.977   2.330 -1.6455 -1.2104 -0.0667
  658THF    H1310904   3.909   4.912   2.311  0.9312 -0.8785  2.7182
  659THF     O110905   3.281   3.130   1.720  0.0497  0.4881  0.4220
  659THF     C210906   3.169   3.145   1.631  0.3878 -0.1894  0.1912
  659THF     C310907   3.288   2.994   1.742 -0.8052  0.2164 -0.1272
  659THF     H410908   3.197   3.110   1.532 -0.0791 -1.1467  0.3883
  659THF     H510909   3.131   3.247   1.630 -0.0989 -0.3706 -0.6195
  659THF     H610910   3.337   2.936   1.664  0.9576  2.4659 -0.7824
  659THF     H710911   3.337   2.964   1.834 -1.2836 -2.3330 -0.6190
  659THF     C810912   3.142   2.947   1.754 -0.0897 -0.3672 -0.4116
  659THF     C910913   3.062   3.058   1.691  0.2620  0.0580  0.4694
  659THF    H1010914   3.114   2.929   1.858  0.8359 -0.1251 -0.1051
  659THF    H1110915   3.132   2.854   1.698 -0.8932 -0.2178 -0.5279
  659THF    H1210916   2.995   3.013   1.617 -0.4409  1.2319  0.3735
  659THF    H1310917   3.003   3.109   1.767 -1.6495 -0.5975 -0.4966
  660THF     O110918   5.254   1.200   3.091 -0.7402 -0.5226  0.9413
  660THF     C210919   5.304   1.139   3.210 -0.7948 -0.2647  0.6368
  660THF     C310920   5.209   1.327   3.133 -0.0495 -0.6318  0.3216
  660THF     H410921   5.360   1.047   3.196  1.2559  1.0300 -0.0660
  660THF     H510922   5.208   1.127   3.262 -1.0852  0.0892  0.1874
  660THF     H610923   5.197   1.401   3.054 -3.0965 -0.6887  0.5825
  660THF     H710924   5.106   1.307   3.164  0.1145 -2.5441 -0.2527
  660THF     C810925   5.308   1.380   3.239 -0.2177 -0.2908 -0.6755
  660THF     C910926   5.381   1.255   3.279  0.2784  0.3842 -0.6673
  660THF    H1010927   5.246   1.431   3.312  2.1657  1.8004  0.0213
  660THF    H1110928   5.386   1.451   3.211 -0.1810 -0.1544 -0.2353
  660THF    H1210929   5.483   1.255   3.239  0.1429  1.5513 -1.0395
  660THF    H1310930   5.353   1.226   3.380  0.7034 -1.3618 -1.0257
  661THF     O110931   1.631   2.892   3.741  0.1285 -0.2830 -0.1851
  661THF     C210932   1.512   2.964   3.698 -0.3558 -0.5652  0.0088
  661THF     C310933   1.582   2.762   3.769  0.1103 -0.9182  1.5251
  661THF     H410934   1.499   2.948   3.591  0.9797  0.6032 -0.3566
  661THF     H510935   1.524   3.071   3.711  0.3193 -0.8234  1.7756
  661THF     H610936   1.567   2.703   3.679 -0.2487 -1.6995  2.0809
  661THF     H710937   1.646   2.702   3.833 -2.1714 -4.0766  1.0691
  661THF     C810938   1.450   2.780   3.844 -0.6128  0.4450 -0.7906
  661THF     C910939   1.403   2.913   3.801  0.7766  0.7420 -0.0929
  661THF    H1010940   1.473   2.786   3.950 -0.6218  0.9680 -0.8125
  661THF    H1110941   1.380   2.697   3.835  1.1156 -0.8922 -2.5793
  661THF    H1210942   1.305   2.909   3.755  0.9594  0.3559 -0.4540
  661THF    H1310943   1.393   2.981   3.886  0.8477 -1.2516  1.6057
  662THF     O110944   2.773   4.289   1.315  0.0548  0.7085  0.3654
  662THF     C210945   2.914   4.317   1.313  0.0704  0.5527 -0.8127
  662THF     C310946   2.757   4.151   1.291 -0.6260  0.9951  0.7603
  662THF     H410947   2.939   4.319   1.419  0.5301 -0.6598 -0.8899
  662THF     H510948   2.925   4.412   1.261  2.8017  1.5494  1.3128
  662THF     H610949   2.724   4.102   1.383  2.4220 -0.1479  1.3410
  662THF     H710950   2.677   4.137   1.218 -1.3916  0.8940  1.5916
  662THF     C810951   2.891   4.091   1.246  0.4302  0.1703  0.3754
  662THF     C910952   2.977   4.213   1.232 -0.2199 -0.1910  0.2669
  662THF    H1010953   2.892   4.035   1.153  2.5619  1.1202 -0.2287
  662THF    H1110954   2.930   4.027   1.326 -0.1264 -0.7807 -0.0957
  662THF    H1210955   3.083   4.196   1.249 -0.2418  0.3453  0.9926
  662THF    H1310956   2.974   4.244   1.128  2.0414 -0.5706  0.0479
  663THF     O110957   4.924   3.151   2.747 -0.5749  0.2908 -0.3788
  663THF     C210958   5.002   3.136   2.626 -0.0669 -0.0360  0.0835
  663THF     C310959   4.942   3.033   2.827  0.1626  0.2350  0.4733
  663THF     H410960   5.023   3.228   2.571  0.2063 -1.1233 -1.7088
  663THF     H510961   4.930   3.077   2.570 -0.7926 -0.6734  1.6379
  663THF     H610962   4.917   3.040   2.933  0.4841  3.3562  0.4511
  663THF     H710963   4.876   2.960   2.780 -2.0760  1.4126  1.6082
  663THF     C810964   5.087   2.990   2.807  0.0783  0.1335  0.5661
  663THF     C910965   5.131   3.069   2.677 -0.2778  0.7015 -0.2446
  663THF    H1010966   5.086   2.885   2.781 -0.2568  0.9265 -3.2178
  663THF    H1110967   5.153   3.013   2.891  1.4782  1.2953 -0.7824
  663THF    H1210968   5.218   3.133   2.690  1.3230 -1.0581 -1.5116
  663THF    H1310969   5.183   2.991   2.619 -2.8732 -0.3549 -1.3006
  664THF     O110970   0.685   2.329   4.334  0.5643  1.2905  0.2534
  664THF     C210971   0.753   2.410   4.425  0.2463 -0.4185 -0.1726
  664THF     C310972   0.746   2.204   4.329 -0.2444  0.2985 -0.4682
  664THF     H410973   0.744   2.381   4.530 -2.2360 -2.0961 -0.7741
  664THF     H510974   0.702   2.507   4.424 -3.8326 -2.3659  0.8938
  664THF     H610975   0.727   2.147   4.420 -0.1169  2.6783  1.1425
  664THF     H710976   0.726   2.150   4.237  1.8700 -1.2392 -0.0805
  664THF     C810977   0.893   2.248   4.320  0.1065  0.3947  0.1233
  664THF     C910978   0.897   2.393   4.377  0.1666 -0.5365  0.3151
  664THF    H1010979   0.931   2.245   4.218 -0.3964 -1.2812 -0.0568
  664THF    H1110980   0.937   2.171   4.384 -0.5006  0.3447  0.4829
  664THF    H1210981   0.971   2.413   4.455  1.2164 -1.3310 -0.4480
  664THF    H1310982   0.925   2.456   4.293 -0.9230 -0.4879 -0.0288
  665THF     O110983   2.097   0.674   3.848  0.2546 -0.2140  0.0014
  665THF     C210984   2.235   0.649   3.893 -0.0842 -0.0160  0.3957
  665THF     C310985   2.106   0.732   3.714 -0.3297  0.1120  0.4541
  665THF     H410986   2.271   0.561   3.841 -1.3697 -0.3292  0.0019
  665THF     H510987   2.236   0.638   4.002  2.1733  2.4586  0.7338
  665THF     H610988   2.120   0.654   3.638  0.0511  0.7567 -0.1497
  665THF     H710989   2.021   0.798   3.700  0.5762  1.4094  0.9139
  665THF     C810990   2.232   0.814   3.717 -0.7474 -0.4224  0.2221
  665THF     C910991   2.313   0.771   3.836  0.2289 -0.1751  0.4730
  665THF    H1010992   2.197   0.917   3.719 -1.4064 -0.4701 -3.1992
  665THF    H1110993   2.277   0.790   3.621 -2.1140  0.6296 -0.7177
  665THF    H1210994   2.412   0.736   3.808 -0.1028  0.7608 -2.0580
  665THF    H1310995   2.319   0.848   3.913  3.6400 -0.0354  0.2330
  666THF     O110996   1.898   0.845   2.082  0.0301  0.2459 -0.4009
  666THF     C210997   1.951   0.852   2.213  0.6288 -0.0728 -0.3640
  666THF     C310998   1.870   0.974   2.026 -1.1443  0.4438 -0.4961
  666THF     H410999   2.046   0.801   2.226 -0.8708 -2.2690  3.6590
  666THF     H511000   1.884   0.787   2.270  0.5555  1.9547  2.0038
  666THF     H611001   1.962   0.998   1.971 -0.3228  0.9566  1.0531
  666THF     H711002   1.784   0.985   1.961  0.0709  0.0176 -2.2661
  666THF     C811003   1.861   1.068   2.147 -0.1186 -0.2697  0.0497
  666THF     C911004   1.945   1.006   2.257  0.1831 -0.0803  0.4392
  666THF    H1011005   1.758   1.092   2.176  0.1013 -1.4817  1.9775
  666THF    H1111006   1.909   1.161   2.115 -1.2070  0.5172  0.6087
  666THF    H1211007   2.046   1.047   2.253 -0.1452  0.6737 -2.6817
  666THF    H1311008   1.897   1.022   2.354 -1.0898  0.2737 -0.2229
  667THF     O111009   4.210   2.359   3.059 -0.6717  0.3940  0.3968
  667THF     C211010   4.323   2.430   3.098  0.4519  0.0741 -0.6917
  667THF     C311011   4.137   2.437   2.967  0.5688 -0.3345  0.3567
  667THF     H411012   4.399   2.364   3.141  0.9311  0.1279 -1.4427
  667THF     H511013   4.304   2.514   3.164 -2.0544 -0.6104 -0.4455
  667THF     H611014   4.066   2.391   2.898  1.4510 -2.1577  0.6051
  667THF     H711015   4.081   2.498   3.037  2.2443  0.7026  0.8453
  667THF     C811016   4.237   2.522   2.899  0.5191  0.6431 -0.2210
  667THF     C911017   4.370   2.469   2.958 -0.2445  0.2063  0.3549
  667THF    H1011018   4.217   2.626   2.925 -1.3158  0.3788 -0.4339
  667THF    H1111019   4.218   2.523   2.792 -1.1278  3.3123  0.0004
  667THF    H1211020   4.406   2.382   2.904  0.2452 -0.0807  1.1191
  667THF    H1311021   4.445   2.548   2.956 -0.0235 -0.0227 -0.8215
  668THF     O111022   0.402   5.337   2.047  0.1447 -0.3914  0.6992
  668THF     C211023   0.395   5.198   2.044  0.6434 -0.3122  0.4438
  668THF     C311024   0.282   5.399   1.999 -0.7216  0.7875  0.2947
  668THF     H411025   0.452   5.145   2.120 -2.5665 -2.6799  1.4603
  668THF     H511026   0.424   5.163   1.945 -0.9733 -1.6881  0.3962
  668THF     H611027   0.255   5.479   2.068  0.9875 -0.5575  2.6500
  668THF     H711028   0.287   5.440   1.898 -0.3250  0.7000  0.2765
  668THF     C811029   0.177   5.279   2.002 -0.3809 -0.0537 -0.3245
  668THF     C911030   0.247   5.169   2.075 -0.0265 -0.0486 -0.4587
  668THF    H1011031   0.169   5.248   1.898 -0.7895  2.9420 -1.2968
  668THF    H1111032   0.077   5.301   2.038  0.3456 -0.6471  2.2573
  668THF    H1211033   0.233   5.185   2.181  1.2439 -1.4919 -0.0383
  668THF    H1311034   0.212   5.070   2.047  0.7484 -0.5461  0.3013
  669THF     O111035   5.128   0.265   0.304 -0.4771  0.1543 -0.1370
  669THF     C211036   5.077   0.141   0.256 -0.7766 -0.1825 -0.0320
  669THF     C311037   5.143   0.238   0.450 -0.7283  0.7022 -0.5461
  669THF     H411038   5.087   0.146   0.147 -1.2339  0.8345 -0.0388
  669THF     H511039   4.970   0.140   0.278 -0.6841 -1.6607  0.4579
  669THF     H611040   5.218   0.308   0.487  0.0623 -1.0184  1.2331
  669THF     H711041   5.053   0.248   0.510 -0.4081 -0.0510  0.0703
  669THF     C811042   5.186   0.096   0.462  0.2072  0.4829 -0.8629
  669THF     C911043   5.131   0.021   0.341 -0.2644 -0.5713  0.4117
  669THF    H1011044   5.150   0.045   0.551 -0.5287 -0.6013 -1.7537
  669THF    H1111045   5.292   0.083   0.482 -0.4808 -1.5098  2.1475
  669THF    H1211046   5.213  -0.027   0.288 -0.2472  0.2769 -0.3555
  669THF    H1311047   5.060  -0.057   0.371 -0.6647 -2.0891 -3.7079
  670THF     O111048   2.339   2.806   1.522  0.5421  0.5433 -0.1855
  670THF     C211049   2.272   2.918   1.469  0.3643  0.2479  0.2630
  670THF     C311050   2.481   2.821   1.499 -0.5285 -0.0564 -0.0216
  670THF     H411051   2.280   3.000   1.540 -1.2341  1.9181 -1.3590
  670THF     H511052   2.167   2.900   1.447  0.9279 -1.3641 -1.4271
  670THF     H611053   2.532   2.862   1.585  1.7828 -0.6284 -1.0260
  670THF     H711054   2.527   2.725   1.476  0.3959  0.5218 -0.6348
  670THF     C811055   2.494   2.898   1.371  0.2555 -0.4189  0.5484
  670THF     C911056   2.356   2.957   1.350 -0.2151 -0.8759  0.5496
  670THF    H1011057   2.515   2.824   1.294  1.1014  0.6895 -0.3326
  670THF    H1111058   2.575   2.972   1.376 -0.3111  0.1615  1.3931
  670THF    H1211059   2.373   3.065   1.356 -2.7245 -0.3440 -0.3248
  670THF    H1311060   2.327   2.933   1.247  0.2100  2.0055 -0.3413
  671THF     O111061   4.158   5.042   2.716 -0.1188  0.1755 -0.1946
  671THF     C211062   4.114   4.911   2.738  0.3523  0.1981  0.2376
  671THF     C311063   4.255   5.054   2.812  0.4742  0.1961 -0.0033
  671THF     H411064   4.172   4.835   2.686  0.2629  0.0838  0.3020
  671THF     H511065   4.017   4.893   2.691 -0.1185  0.5395  1.0403
  671THF     H611066   4.338   5.001   2.764 -0.5438 -1.2538 -0.2069
  671THF     H711067   4.285   5.158   2.827 -1.0942  0.4140  2.1614
  671THF     C811068   4.213   4.983   2.940  0.2076  0.6734 -0.1318
  671THF     C911069   4.112   4.879   2.888  0.0448 -0.1447  0.3260
  671THF    H1011070   4.168   5.048   3.015  0.4228 -0.2493  0.8265
  671THF    H1111071   4.299   4.933   2.986  0.7135  0.4304 -1.2961
  671THF    H1211072   4.150   4.778   2.903  2.3522  0.6317  0.0661
  671THF    H1311073   4.014   4.895   2.933 -0.0169  0.2717  0.0469
  672THF     O111074   4.321   5.495   2.591  0.0829 -0.4816  0.0510
  672THF     C211075   4.261   5.609   2.659  0.0035  0.0030 -0.1845
  672THF     C311076   4.338   5.391   2.682 -0.5764 -0.3008 -1.2809
  672THF     H411077   4.153   5.594   2.658 -0.2906  1.3624  2.3732
  672THF     H511078   4.276   5.704   2.608 -2.6360 -0.0926 -1.2947
  672THF     H611079   4.236   5.360   2.703  0.4353 -2.1622  1.3692
  672THF     H711080   4.405   5.319   2.634  0.5540 -2.0095  2.5311
  672THF     C811081   4.396   5.464   2.809  0.0878 -0.9063  0.0770
  672THF     C911082   4.325   5.602   2.802  0.0438  0.0097  0.2746
  672THF    H1011083   4.504   5.473   2.819 -0.1936  1.8717  1.7637
  672THF    H1111084   4.382   5.405   2.900  3.7391 -1.7010  0.2626
  672THF    H1211085   4.250   5.596   2.881 -0.3492  0.5668 -0.0461
  672THF    H1311086   4.401   5.678   2.817  0.4808 -0.6841  1.7545
  673THF     O111087   2.960   5.484   0.364  0.0893 -0.0458 -0.3712
  673THF     C211088   3.087   5.456   0.308  0.4199  0.4466  0.1107
  673THF     C311089   2.964   5.607   0.445 -0.5747  0.1143 -0.0567
  673THF     H411090   3.071   5.408   0.211  1.2842  0.7789 -0.2007
  673THF     H511091   3.141   5.392   0.378  1.0406  2.5444  1.6566
  673THF     H611092   2.883   5.678   0.431 -0.2137  0.5691  0.1251
  673THF     H711093   2.959   5.577   0.550  0.7210  1.1471  0.3313
  673THF     C811094   3.097   5.667   0.422  0.1486 -0.0048  0.8600
  673THF     C911095   3.146   5.596   0.297  0.5796  0.5415  0.3058
  673THF    H1011096   3.170   5.646   0.500  1.0574 -0.4879 -0.0950
  673THF    H1111097   3.075   5.771   0.397 -2.3689 -0.7194 -0.1839
  673THF    H1211098   3.112   5.648   0.207  0.0744 -2.9609 -1.7006
  673THF    H1311099   3.255   5.595   0.290  0.5980  1.8510  0.1105
  674THF     O111100   4.342   2.928   0.294 -0.1892 -0.1960  0.0787
  674THF     C211101   4.281   2.805   0.330  0.1048  0.3472 -0.4466
  674THF     C311102   4.419   2.967   0.406 -0.2073 -0.2472 -0.2140
  674THF     H411103   4.357   2.730   0.307  1.9535  2.1966 -0.6921
  674THF     H511104   4.191   2.779   0.274 -1.8393 -1.5188  3.2265
  674THF     H611105   4.526   2.956   0.390 -0.2721 -1.1587 -0.0887
  674THF     H711106   4.403   3.073   0.427  2.4042 -0.0589  1.3170
  674THF     C811107   4.375   2.887   0.525 -0.3847  0.0436  0.4559
  674THF     C911108   4.247   2.828   0.474  0.4385 -0.1893 -0.0266
  674THF    H1011109   4.359   2.949   0.613  0.6280 -0.1495  0.7960
  674THF    H1111110   4.438   2.801   0.548 -0.0026 -0.1186 -1.0645
  674THF    H1211111   4.213   2.738   0.524 -1.2989  0.7372  0.5638
  674THF    H1311112   4.161   2.890   0.500 -0.1292 -1.0176  0.1087
  675THF     O111113   4.741   1.702   5.224 -0.6491  1.2115  0.0557
  675THF     C211114   4.790   1.626   5.110  0.1178  0.1031  0.1244
  675THF     C311115   4.845   1.744   5.306 -0.3853  0.5942 -0.0637
  675THF     H411116   4.715   1.612   5.031 -0.3434 -2.3246  0.9300
  675THF     H511117   4.827   1.532   5.149  1.9454  1.5187  1.9780
  675THF     H611118   4.809   1.834   5.355 -1.0406 -0.7533  2.0364
  675THF     H711119   4.872   1.667   5.378 -1.1993 -0.4359 -0.8263
  675THF     C811120   4.962   1.776   5.204  0.0790 -0.3564  0.0386
  675THF     C911121   4.912   1.720   5.071  0.7889  0.2040 -0.6409
  675THF    H1011122   5.059   1.733   5.229  0.0048 -0.6633 -0.1921
  675THF    H1111123   4.967   1.885   5.196  0.0204 -0.1381  2.3896
  675THF    H1211124   4.876   1.802   5.009  2.9280  1.5224 -0.2060
  675THF    H1311125   4.988   1.660   5.021 -1.4144 -2.0505 -1.4984
  676THF     O111126   5.338   1.689   2.990  0.6574 -0.1172  0.3364
  676THF     C211127   5.282   1.789   2.899 -0.4908  0.3711 -0.6233
  676THF     C311128   5.417   1.598   2.915 -0.2198  0.4222 -0.2277
  676THF     H411129   5.246   1.878   2.951 -2.2623 -0.7012  0.0850
  676THF     H511130   5.201   1.762   2.832  0.9134  1.5258 -2.9172
  676THF     H611131   5.489   1.551   2.981 -2.2745 -4.8746 -1.2607
  676THF     H711132   5.362   1.519   2.864 -1.5782  1.4799 -0.4500
  676THF     C811133   5.474   1.677   2.798 -0.9115 -0.8226  0.2314
  676THF     C911134   5.410   1.814   2.814  0.2774 -0.0743 -0.1335
  676THF    H1011135   5.457   1.616   2.710  1.3682 -2.0073  0.5477
  676THF    H1111136   5.583   1.683   2.798 -0.8253 -2.0382  0.5411
  676THF    H1211137   5.476   1.883   2.867 -1.0687  0.7180  0.5595
  676THF    H1311138   5.388   1.856   2.716  1.9398  1.9910  0.3047
  677THF     O111139   3.386   5.055   3.916 -0.3708  0.5961  0.1543
  677THF     C211140   3.473   5.104   4.022  0.3011  0.1791  0.0834
  677THF     C311141   3.367   5.153   3.810 -1.4244 -0.3737  0.0581
  677THF     H411142   3.570   5.054   4.025 -0.3451 -1.1230  0.0592
  677THF     H511143   3.423   5.087   4.117 -2.2506  1.0026 -1.0401
  677THF     H611144   3.446   5.147   3.735  0.3477 -3.3442  1.9578
  677THF     H711145   3.271   5.134   3.761 -1.0687  0.3435 -0.9644
  677THF     C811146   3.383   5.284   3.885  0.1205 -0.5694  0.3802
  677THF     C911147   3.489   5.258   3.992  0.2241 -0.5608 -0.3384
  677THF    H1011148   3.282   5.301   3.924  0.1376 -0.5615  0.4204
  677THF    H1111149   3.412   5.349   3.803 -0.4512 -0.0943  0.5403
  677THF    H1211150   3.587   5.286   3.954  0.4565 -1.4088 -0.3772
  677THF    H1311151   3.469   5.310   4.086 -0.2297  1.4327 -1.4702
  678THF     O111152   4.916   4.805   4.374 -0.4013 -0.1769 -0.0497
  678THF     C211153   5.008   4.900   4.315  0.0063 -0.1600  0.9470
  678THF     C311154   4.983   4.739   4.478 -0.0887  0.4526  0.0148
  678THF     H411155   4.944   4.984   4.290  2.7054  2.1780  1.3385
  678THF     H511156   5.031   4.849   4.221 -2.3019 -0.7656  0.6549
  678THF     H611157   4.928   4.685   4.555 -1.4454  0.2759 -1.0254
  678THF     H711158   5.053   4.671   4.430  0.6834  0.8185  0.6074
  678THF     C811159   5.067   4.849   4.535  0.9970  0.5176 -0.1098
  678THF     C911160   5.115   4.927   4.415  1.0294 -0.2174  0.1462
  678THF    H1011161   5.159   4.825   4.589  0.9583  2.8519  1.1478
  678THF    H1111162   5.012   4.918   4.600  0.8194  0.3347 -0.0645
  678THF    H1211163   5.122   5.033   4.440 -0.2473  0.2938 -1.4727
  678THF    H1311164   5.211   4.893   4.376 -0.4399 -1.1263 -2.9784
  679THF     O111165   4.786   1.431   2.375  0.0360  0.3024 -0.2781
  679THF     C211166   4.773   1.426   2.230  1.1178  0.6230 -0.0450
  679THF     C311167   4.915   1.397   2.405  0.6546 -0.4296 -0.4786
  679THF     H411168   4.749   1.529   2.202  1.2034  0.5024 -0.5590
  679THF     H511169   4.691   1.356   2.212  2.2124 -0.8783  0.5822
  679THF     H611170   4.963   1.451   2.486  1.7640 -2.9450  0.6561
  679THF     H711171   4.931   1.292   2.429 -1.5190 -0.4983  0.9879
  679THF     C811172   4.998   1.420   2.282 -0.3256 -0.6106 -0.1235
  679THF     C911173   4.905   1.374   2.169  0.1036 -0.1242  0.2322
  679THF    H1011174   5.099   1.379   2.273 -0.4930 -0.6753 -2.1888
  679THF    H1111175   5.023   1.525   2.269  2.1824 -1.1057  0.0706
  679THF    H1211176   4.928   1.418   2.072 -0.0298 -1.3655 -0.3824
  679THF    H1311177   4.901   1.265   2.160 -2.1985 -0.0099 -1.0393
  680THF     O111178   4.707   2.447   2.881  0.2665  0.2678  0.2335
  680THF     C211179   4.746   2.556   2.955  0.2508  0.2284 -0.1763
  680THF     C311180   4.724   2.464   2.738 -0.0504 -0.2286  0.3335
  680THF     H411181   4.833   2.526   3.013 -0.1815 -1.7530 -0.5076
  680THF     H511182   4.663   2.595   3.016 -2.7177  1.8237 -4.6796
  680THF     H611183   4.761   2.373   2.690  1.4821 -0.2716  1.5149
  680THF     H711184   4.639   2.502   2.681 -0.0508 -0.5152  0.1404
  680THF     C811185   4.829   2.576   2.737  0.6122  0.4159  0.1549
  680THF     C911186   4.788   2.662   2.855 -0.3706  0.5809 -0.4154
  680THF    H1011187   4.837   2.637   2.647 -2.0977  2.4507  1.1737
  680THF    H1111188   4.925   2.532   2.765  0.6076 -0.8338 -1.6391
  680THF    H1211189   4.873   2.722   2.887 -1.4164  2.5282 -1.1194
  680THF    H1311190   4.698   2.723   2.843 -1.2180  0.0378  2.5216
  681THF     O111191   0.152   1.332   1.261 -0.1820 -0.4231  0.1648
  681THF     C211192   0.058   1.376   1.164 -0.5376 -0.1002 -0.0266
  681THF     C311193   0.267   1.295   1.191  0.4741  0.7706 -0.1757
  681THF     H411194   0.092   1.470   1.120  1.8716 -0.8205  0.1669
  681THF     H511195  -0.044   1.378   1.204 -0.7188 -0.4952 -0.4621
  681THF     H611196   0.338   1.379   1.189  1.0279  0.3307  0.3973
  681THF     H711197   0.318   1.218   1.249 -0.5095  1.3471  1.5182
  681THF     C811198   0.217   1.239   1.061 -0.4263  0.0170  0.4068
  681THF     C911199   0.071   1.276   1.054 -0.0636 -0.8821 -0.0837
  681THF    H1011200   0.220   1.131   1.064 -1.7092 -0.1210 -1.6216
  681THF    H1111201   0.269   1.298   0.985  1.0942  0.8394  2.0191
  681THF    H1211202   0.043   1.324   0.960 -0.2062 -1.3727 -0.2967
  681THF    H1311203   0.008   1.187   1.064 -0.4053 -0.7865 -1.2534
  682THF     O111204   3.145   1.654   0.366 -0.2784 -0.1820  0.3383
  682THF     C211205   3.239   1.549   0.382  0.4282 -0.5314 -0.4937
  682THF     C311206   3.032   1.597   0.300  0.3363  0.0360  0.7861
  682THF     H411207   3.226   1.524   0.488 -0.2574 -1.6186 -0.8161
  682THF     H511208   3.341   1.584   0.364  1.0815 -1.9105  0.3620
  682THF     H611209   2.965   1.555   0.376 -3.2214  1.1767 -1.4360
  682THF     H711210   2.973   1.674   0.250  1.1187  0.3545  0.3420
  682THF     C811211   3.078   1.492   0.208  0.1989 -0.2645 -0.5077
  682THF     C911212   3.202   1.440   0.277 -0.1788  0.1969  0.4754
  682THF    H1011213   3.108   1.523   0.108 -0.4944 -0.3062 -0.7381
  682THF    H1111214   3.009   1.407   0.201  0.4571 -0.4350 -1.0153
  682THF    H1211215   3.190   1.342   0.322 -3.1979 -0.3593 -1.2415
  682THF    H1311216   3.285   1.425   0.207  0.2934  0.1013  1.0464
  683THF     O111217   0.791   3.052   1.640  0.2892 -0.1276 -0.4473
  683THF     C211218   0.800   2.931   1.720 -0.5857  0.5582 -0.2767
  683THF     C311219   0.684   3.027   1.547  0.1514  0.2165 -0.2379
  683THF     H411220   0.822   2.968   1.820 -1.0627 -0.8260  0.3618
  683THF     H511221   0.867   2.854   1.682  1.4569  2.3091 -0.3752
  683THF     H611222   0.645   3.115   1.496 -0.8889 -0.1284 -0.0493
  683THF     H711223   0.718   2.960   1.469  0.6437 -0.3888  0.4813
  683THF     C811224   0.577   2.954   1.629 -0.1287  0.3787 -0.0703
  683THF     C911225   0.662   2.868   1.728 -0.7720 -0.9583  0.2566
  683THF    H1011226   0.508   2.883   1.583  0.7776 -1.8648  1.8329
  683THF    H1111227   0.518   3.024   1.688 -0.1844 -0.0050  0.3394
  683THF    H1211228   0.632   2.869   1.833  3.1007  3.0585  1.6093
  683THF    H1311229   0.682   2.764   1.700  0.6479 -1.0381  1.4692
  684THF     O111230   0.000   3.046   0.617 -0.3139  0.2305  0.2286
  684THF     C211231  -0.064   2.915   0.626  0.6782 -0.2135 -0.0480
  684THF     C311232  -0.037   3.122   0.732 -0.1503  0.6658  0.8196
  684THF     H411233   0.002   2.831   0.601  0.6058  0.2249 -1.8686
  684THF     H511234  -0.147   2.901   0.557  1.5338  1.5556 -1.5212
  684THF     H611235   0.050   3.155   0.790  1.1286  1.3768 -1.3444
  684THF     H711236  -0.092   3.206   0.690  0.7587 -0.3137 -2.6965
  684THF     C811237  -0.121   3.037   0.829 -0.1651 -0.5122  0.5550
  684THF     C911238  -0.089   2.904   0.770 -0.3555 -0.3873 -0.2448
  684THF    H1011239  -0.225   3.069   0.824  0.3817  1.1530 -1.4941
  684THF    H1111240  -0.085   3.052   0.931  1.7449 -0.1756 -0.1227
  684THF    H1211241   0.002   2.866   0.818 -0.8102 -0.3125  0.7098
  684THF    H1311242  -0.169   2.837   0.803  0.5526 -0.2854  2.4172
  685THF     O111243   1.060   5.217   0.003  0.5539 -0.1696 -0.3933
  685THF     C211244   0.922   5.168   0.017  0.1785 -0.6124  0.2603
  685THF     C311245   1.126   5.201   0.125  0.4827  0.1709  0.1545
  685THF     H411246   0.906   5.071  -0.029  1.8135 -1.3414  1.1346
  685THF     H511247   0.858   5.247  -0.021  1.8957  0.7179 -0.0051
  685THF     H611248   1.228   5.172   0.102  0.0976 -0.7345 -0.5030
  685THF     H711249   1.132   5.297   0.177 -0.7365  0.8966 -0.9851
  685THF     C811250   1.038   5.109   0.211 -0.4851 -0.0198 -0.0158
  685THF     C911251   0.906   5.157   0.169  0.2122  0.1837 -0.3101
  685THF    H1011252   1.053   5.123   0.318  2.4266  2.3441 -0.5917
  685THF    H1111253   1.044   5.004   0.182 -1.6596 -0.6298  1.8064
  685THF    H1211254   0.823   5.095   0.204  0.4524 -0.3264 -0.6335
  685THF    H1311255   0.893   5.256   0.214  1.6622 -0.0074  0.5832
  686THF     O111256   4.762   1.365   3.509  0.1737  0.3024  0.5594
  686THF     C211257   4.839   1.357   3.389 -0.4453  0.0982  0.4797
  686THF     C311258   4.669   1.256   3.507 -0.3180  0.3188 -0.3404
  686THF     H411259   4.936   1.406   3.399 -0.7815  0.6763  0.9157
  686THF     H511260   4.781   1.386   3.302 -1.2684  1.4820  1.4472
  686THF     H611261   4.637   1.218   3.605  0.8268  1.1143  0.3663
  686THF     H711262   4.588   1.292   3.444  1.9012  1.0022 -2.9621
  686THF     C811263   4.747   1.144   3.444 -0.4776  0.0627 -0.7198
  686THF     C911264   4.862   1.205   3.372  0.9179 -0.1788 -0.3497
  686THF    H1011265   4.691   1.079   3.377 -1.6400  0.9340 -0.6238
  686THF    H1111266   4.784   1.093   3.534 -0.6202  0.9911 -0.1274
  686THF    H1211267   4.956   1.187   3.424  1.2925  0.9925 -0.5932
  686THF    H1311268   4.863   1.166   3.270  1.1522 -1.8003  0.2374
  687THF     O111269   5.450   4.272   2.258  0.2265 -0.1593 -0.0440
  687THF     C211270   5.441   4.358   2.144 -0.0174 -0.0650 -0.3003
  687THF     C311271   5.539   4.334   2.358 -0.0967  0.2722  0.2327
  687THF     H411272   5.355   4.324   2.085 -0.4981  0.9899 -0.2337
  687THF     H511273   5.538   4.332   2.101  0.3288 -1.8157  1.3911
  687THF     H611274   5.507   4.317   2.461 -2.4365  3.7065  0.2567
  687THF     H711275   5.638   4.293   2.342  0.9527  2.4833  0.6465
  687THF     C811276   5.536   4.484   2.317  0.3563  0.7320  0.2457
  687THF     C911277   5.436   4.497   2.205 -0.1935 -0.1003  0.5076
  687THF    H1011278   5.628   4.535   2.289 -0.5093  1.1415 -2.0430
  687THF    H1111279   5.511   4.549   2.401 -3.0609 -0.4542  0.2848
  687THF    H1211280   5.342   4.537   2.244  0.1924  0.6402  0.7039
  687THF    H1311281   5.469   4.573   2.135  0.0549 -1.6872 -1.1648
  688THF     O111282   2.934   1.674   1.410  0.3606 -0.4559  0.5226
  688THF     C211283   2.989   1.549   1.451 -0.0264 -0.0241  0.1672
  688THF     C311284   2.796   1.669   1.447 -0.3368 -0.2305  0.2577
  688THF     H411285   3.032   1.556   1.551  0.3119  0.0019  0.0177
  688THF     H511286   3.062   1.501   1.386  0.2228 -0.6301  0.8846
  688THF     H611287   2.768   1.760   1.500 -1.6090 -0.7754  0.5730
  688THF     H711288   2.742   1.647   1.355  2.0025 -1.5192 -0.8912
  688THF     C811289   2.779   1.547   1.538 -0.2986 -0.2617  0.7803
  688THF     C911290   2.877   1.454   1.474  0.7784 -0.3659  0.5109
  688THF    H1011291   2.677   1.511   1.529 -0.1246 -0.2102 -3.8700
  688THF    H1111292   2.811   1.564   1.641  2.1513 -0.3959  0.1247
  688THF    H1211293   2.903   1.368   1.536 -0.8926 -0.1422  1.5709
  688THF    H1311294   2.837   1.418   1.379  0.8099  0.7215  0.0746
  689THF     O111295   1.941   5.472   0.550 -0.5377  0.5632  0.0995
  689THF     C211296   2.063   5.398   0.550  0.1712 -0.1668 -0.2510
  689THF     C311297   1.971   5.608   0.546  0.6530 -0.5165  0.1930
  689THF     H411298   2.130   5.400   0.464  1.0829 -3.2906  0.2726
  689THF     H511299   2.042   5.297   0.586  1.4958 -1.0196 -1.7427
  689THF     H611300   2.000   5.647   0.448 -1.5516  0.8784  0.0015
  689THF     H711301   1.887   5.668   0.581 -1.1336 -2.5131 -0.4328
  689THF     C811302   2.080   5.626   0.647  0.6733 -0.6702 -0.0266
  689THF     C911303   2.135   5.478   0.659  0.9912 -0.4896  0.6774
  689THF    H1011304   2.052   5.669   0.743  2.9420 -0.6479  0.6784
  689THF    H1111305   2.153   5.691   0.598 -0.5287 -0.1811 -1.2423
  689THF    H1211306   2.244   5.475   0.666  0.9491  0.3342  2.0080
  689THF    H1311307   2.112   5.435   0.756  3.2170  0.4707  1.7047
  690THF     O111308   1.004   1.596   0.804 -0.1876  0.5739  0.7455
  690THF     C211309   1.123   1.529   0.843  0.2087 -0.0913  0.1793
  690THF     C311310   1.014   1.733   0.813  0.2765 -0.4840 -0.1641
  690THF     H411311   1.144   1.460   0.761  0.4539  0.9646 -0.6668
  690THF     H511312   1.089   1.478   0.933 -2.4650  1.5729  0.2400
  690THF     H611313   1.010   1.790   0.720  0.0338  0.1537  0.2299
  690THF     H711314   0.933   1.778   0.870  2.9887  0.5319  3.1915
  690THF     C811315   1.144   1.766   0.880 -0.5047  0.6227  0.3500
  690THF     C911316   1.228   1.642   0.863 -0.0916  0.5676 -0.3252
  690THF    H1011317   1.132   1.786   0.987 -0.8628  1.4798  0.1574
  690THF    H1111318   1.187   1.855   0.835  0.4014  0.0531  0.0515
  690THF    H1211319   1.289   1.648   0.773 -0.1676 -0.9095 -0.5123
  690THF    H1311320   1.290   1.618   0.950 -0.8001  0.1912  0.0874
  691THF     O111321   2.464   0.973   0.773  0.2166 -0.0231 -0.0109
  691THF     C211322   2.417   1.088   0.712  0.3656 -0.1705  0.5247
  691THF     C311323   2.531   0.901   0.681 -0.2386  0.2136 -0.6012
  691THF     H411324   2.476   1.177   0.735 -1.2413  1.0974 -0.0818
  691THF     H511325   2.313   1.116   0.722 -0.0921  0.2036 -3.6730
  691THF     H611326   2.617   0.859   0.733 -0.7301 -0.7592 -0.5414
  691THF     H711327   2.473   0.814   0.650  1.4011 -1.4502  0.7453
  691THF     C811328   2.554   0.989   0.556 -0.5004  0.2231 -0.7028
  691THF     C911329   2.427   1.077   0.559 -0.3308 -0.5605 -0.5859
  691THF    H1011330   2.574   0.930   0.466  2.3469  0.2978 -0.2251
  691THF    H1111331   2.636   1.061   0.561  0.2236 -0.3206 -3.0221
  691THF    H1211332   2.449   1.174   0.514  1.3492 -0.5886  0.0751
  691THF    H1311333   2.338   1.030   0.517 -0.2995 -1.8666  0.7356
  692THF     O111334   4.312   4.874   3.755  0.3114 -0.1390  0.4722
  692THF     C211335   4.416   4.791   3.711  0.3072 -1.4862  0.2750
  692THF     C311336   4.342   5.009   3.717 -0.5003  0.3536 -0.2203
  692THF     H411337   4.405   4.780   3.603 -0.9269  0.8731  0.0953
  692THF     H511338   4.415   4.696   3.766  1.6170 -0.9340  1.2932
  692THF     H611339   4.301   5.033   3.619  1.7200  2.4569 -0.7239
  692THF     H711340   4.292   5.081   3.783  0.0370  0.0637  0.5226
  692THF     C811341   4.495   5.014   3.722 -0.2353  0.5517 -0.5992
  692THF     C911342   4.541   4.876   3.755  0.4136  0.3085 -0.3150
  692THF    H1011343   4.535   5.087   3.792 -1.3293  1.0646 -0.4742
  692THF    H1111344   4.529   5.048   3.624 -2.3919  0.8327 -1.3050
  692THF    H1211345   4.628   4.834   3.705  0.5825  2.3274 -1.8620
  692THF    H1311346   4.541   4.874   3.864 -0.9187  0.1966 -0.3064
  693THF     O111347   3.392   4.372   3.500 -0.5180  0.1962  0.6771
  693THF     C211348   3.363   4.231   3.510 -0.0360 -0.0761 -0.7134
  693THF     C311349   3.507   4.392   3.571  0.0085  0.3057  0.3956
  693THF     H411350   3.329   4.192   3.414  0.5033 -2.6173  0.0482
  693THF     H511351   3.279   4.213   3.577 -0.0298 -0.1927 -0.7362
  693THF     H611352   3.561   4.477   3.530 -0.9313  0.9184  0.3918
  693THF     H711353   3.471   4.412   3.672 -4.1925 -0.1606 -0.8091
  693THF     C811354   3.584   4.260   3.556 -0.5023  0.3227  0.0472
  693THF     C911355   3.486   4.145   3.545  0.0444 -0.1269  0.0110
  693THF    H1011356   3.659   4.233   3.630  0.4056 -2.8268 -1.8186
  693THF    H1111357   3.637   4.266   3.461  0.2211  2.5918  0.5516
  693THF    H1211358   3.518   4.083   3.461  2.6353  0.0401  0.7768
  693THF    H1311359   3.467   4.096   3.640 -1.0042  1.7714  0.8249
  694THF     O111360   3.377   2.575   5.355  0.2060  0.4114 -0.3194
  694THF     C211361   3.414   2.580   5.221 -0.0455  0.1090  0.3984
  694THF     C311362   3.333   2.708   5.391  0.4902  0.2742  0.1712
  694THF     H411363   3.423   2.484   5.170 -1.1366 -0.2841  0.9301
  694THF     H511364   3.509   2.634   5.210  0.0365 -0.0728  0.2082
  694THF     H611365   3.265   2.703   5.477 -0.5021  0.3356 -0.5846
  694THF     H711366   3.415   2.768   5.430 -0.3872  0.9925  0.9900
  694THF     C811367   3.277   2.773   5.265 -0.2230  0.0454 -0.8219
  694THF     C911368   3.321   2.681   5.157  0.1286 -0.1572  0.2683
  694THF    H1011369   3.314   2.874   5.246  0.6579 -0.1440 -0.1597
  694THF    H1111370   3.169   2.780   5.279  0.1177  0.2805  2.1510
  694THF    H1211371   3.240   2.616   5.124  0.0348 -0.4500  1.0414
  694THF    H1311372   3.369   2.734   5.075  2.2802  1.4285  2.3852
  695THF     O111373   1.905   2.686   5.339 -0.7280 -0.4020 -0.0129
  695THF     C211374   1.842   2.577   5.272  0.0363  0.3962  0.1171
  695THF     C311375   1.813   2.743   5.421  0.9083 -0.3326  0.1373
  695THF     H411376   1.925   2.509   5.251 -0.0252 -0.1862  1.6475
  695THF     H511377   1.800   2.631   5.188 -1.1086  0.5528  0.7686
  695THF     H611378   1.842   2.807   5.505 -0.1968  1.4824 -0.8098
  695THF     H711379   1.750   2.813   5.367 -0.3555 -1.6274 -0.1160
  695THF     C811380   1.720   2.632   5.470  0.0489  0.3516  0.7146
  695THF     C911381   1.754   2.512   5.370  1.0500  1.0138 -0.4973
  695THF    H1011382   1.613   2.651   5.465  0.0902  1.3683  2.5395
  695THF    H1111383   1.747   2.619   5.575 -0.9952  0.1017  0.9578
  695THF    H1211384   1.806   2.442   5.435 -0.5680  0.8492  0.6571
  695THF    H1311385   1.675   2.449   5.328  1.4612  1.0769 -1.3925
  696THF     O111386   4.368   0.102   4.334 -0.0366 -0.1745  0.6556
  696THF     C211387   4.261   0.034   4.398  0.1783 -0.4839 -0.3123
  696THF     C311388   4.426  -0.003   4.252  0.4912 -0.5112  0.4474
  696THF     H411389   4.179   0.102   4.421  0.1120  0.3545 -2.6905
  696THF     H511390   4.291  -0.016   4.490  0.3034 -0.8412 -0.5466
  696THF     H611391   4.503   0.032   4.184  0.1998  0.6430  0.6845
  696THF     H711392   4.469  -0.075   4.322  0.0721  0.1288  1.3931
  696THF     C811393   4.305  -0.064   4.186  0.5725  0.7619 -0.7021
  696THF     C911394   4.206  -0.071   4.300 -0.1656  1.1630  0.6415
  696THF    H1011395   4.336  -0.162   4.150 -0.9123 -0.8556  2.1372
  696THF    H1111396   4.261  -0.004   4.106 -3.3332  0.0458  0.7145
  696THF    H1211397   4.103  -0.043   4.276  0.0013 -0.7316 -2.8847
  696THF    H1311398   4.206  -0.173   4.337  2.1484 -0.3354 -2.9509
  697THF     O111399   2.005   2.687   1.952  0.2927 -0.1019 -0.2232
  697THF     C211400   2.135   2.684   1.889  0.1855 -0.7399 -0.0696
  697THF     C311401   1.978   2.812   2.009 -0.1841 -0.0721  0.6058
  697THF     H411402   2.127   2.624   1.799  1.3841 -1.6094  0.3716
  697THF     H511403   2.204   2.646   1.965 -0.2034 -0.4945  0.4128
  697THF     H611404   1.877   2.819   2.051 -0.2780  3.6210  0.0948
  697THF     H711405   2.050   2.821   2.090  0.2703  0.5676  0.1360
  697THF     C811406   2.033   2.903   1.897 -0.2389  0.3206 -0.5889
  697THF     C911407   2.156   2.825   1.848 -0.1900 -0.2024  0.2878
  697THF    H1011408   2.054   3.003   1.936 -2.4518  0.5861  0.0367
  697THF    H1111409   1.963   2.913   1.814 -1.8984  1.7172  0.9021
  697THF    H1211410   2.171   2.820   1.740  1.9487 -0.2425  0.5340
  697THF    H1311411   2.253   2.855   1.888  0.3665  0.2762 -1.3487
  698THF     O111412   3.330   3.576   0.577  0.9787 -0.2852  0.0161
  698THF     C211413   3.373   3.685   0.662  0.0702  0.7257 -0.0729
  698THF     C311414   3.391   3.587   0.452 -0.8867 -0.2754 -0.3264
  698THF     H411415   3.420   3.646   0.752 -0.3302 -0.7677 -0.4813
  698THF     H511416   3.275   3.719   0.693 -0.6488 -1.3397  0.0703
  698THF     H611417   3.482   3.527   0.452 -0.4154  0.3727  1.3437
  698THF     H711418   3.323   3.549   0.376 -0.8594 -0.7128 -0.1321
  698THF     C811419   3.436   3.734   0.432 -0.1804 -0.2399 -0.7570
  698THF     C911420   3.459   3.785   0.575 -0.0326  0.3133 -0.2440
  698THF    H1011421   3.360   3.795   0.382  1.6344  2.0416 -0.9002
  698THF    H1111422   3.528   3.755   0.377 -0.2753  0.9247 -0.4952
  698THF    H1211423   3.563   3.789   0.609 -0.1916 -0.2305  0.3238
  698THF    H1311424   3.414   3.883   0.591  0.3687  0.7262 -1.5375
  699THF     O111425   5.455   5.335   4.017  0.3720  0.1124  0.3298
  699THF     C211426   5.337   5.397   3.963 -0.0028 -0.1056 -0.0268
  699THF     C311427   5.414   5.215   4.079 -0.6742  0.0098  0.4420
  699THF     H411428   5.349   5.476   3.889  1.1937  0.3583  0.6464
  699THF     H511429   5.281   5.425   4.052  1.7774 -5.0091  3.0725
  699THF     H611430   5.491   5.140   4.101 -1.0736 -0.5766 -0.1393
  699THF     H711431   5.383   5.230   4.183 -0.5620 -0.7345  0.5846
  699THF     C811432   5.301   5.160   3.991 -0.2257  0.1309 -0.4330
  699THF     C911433   5.259   5.278   3.909 -0.1507 -0.1423  0.1093
  699THF    H1011434   5.224   5.132   4.063  2.0620 -1.8189  1.4253
  699THF    H1111435   5.320   5.080   3.920  2.6165  1.1924 -1.0101
  699THF    H1211436   5.284   5.261   3.804  1.1607 -0.1328  0.3988
  699THF    H1311437   5.151   5.287   3.904 -0.7507 -4.1617  1.5612
  700THF     O111438   0.687   0.413   2.509  0.7828 -0.5012  0.0685
  700THF     C211439   0.576   0.502   2.507 -0.5847  0.0411  0.4326
  700THF     C311440   0.671   0.318   2.404  0.0214 -0.8396  0.6488
  700THF     H411441   0.603   0.573   2.429 -0.3807  0.8883  1.2635
  700THF     H511442   0.546   0.557   2.596  0.4108  0.7560  0.3410
  700THF     H611443   0.749   0.334   2.330  0.9261 -0.5190  1.6339
  700THF     H711444   0.688   0.219   2.445 -0.6370 -1.4307 -0.4576
  700THF     C811445   0.530   0.335   2.355 -0.8358 -0.4008  0.4090
  700THF     C911446   0.461   0.419   2.464 -0.2388  0.7076  0.8413
  700THF    H1011447   0.465   0.248   2.343 -1.7321 -0.0358  2.2956
  700THF    H1111448   0.531   0.396   2.264 -1.5138  0.0074  0.6624
  700THF    H1211449   0.381   0.484   2.430 -2.2431 -1.0170  2.0583
  700THF    H1311450   0.423   0.352   2.541  1.9883 -2.5323 -0.6493
  701THF     O111451   0.349   5.018   3.193 -0.1348  0.2252 -0.1641
  701THF     C211452   0.342   4.910   3.094 -0.3294 -0.6407 -0.7554
  701THF     C311453   0.289   4.967   3.314  0.1662  0.4043 -0.3528
  701THF     H411454   0.420   4.836   3.115  2.2361  2.1660  0.4738
  701THF     H511455   0.361   4.945   2.993 -1.3918  0.6004 -0.5443
  701THF     H611456   0.365   4.904   3.359 -0.1554  0.8134  0.7910
  701THF     H711457   0.264   5.044   3.387 -0.4638  0.8078 -0.9666
  701THF     C811458   0.167   4.896   3.257 -0.5174  0.1936 -0.2274
  701THF     C911459   0.209   4.837   3.123 -1.1123  0.8817  0.6169
  701THF    H1011460   0.090   4.972   3.253  0.3541  1.1278  0.2731
  701THF    H1111461   0.152   4.815   3.329 -0.4715  0.2469 -0.1579
  701THF    H1211462   0.219   4.728   3.128 -0.7355  0.8888  0.0887
  701THF    H1311463   0.147   4.852   3.035  0.9640  0.0830 -1.0823
  702THF     O111464   0.420   5.365   1.587 -0.3715 -0.2885  0.7276
  702THF     C211465   0.429   5.442   1.462  0.1511 -0.9021  0.8751
  702THF     C311466   0.503   5.438   1.672 -0.3003 -0.2969 -0.0759
  702THF     H411467   0.342   5.421   1.400  0.9626  0.8307 -0.9526
  702THF     H511468   0.522   5.418   1.411  0.6714 -0.0552  1.3943
  702THF     H611469   0.502   5.412   1.778  2.3241 -2.0292 -0.3854
  702THF     H711470   0.606   5.428   1.639 -0.6930 -2.4033 -0.8093
  702THF     C811471   0.459   5.583   1.655  0.2657 -0.3170  0.9288
  702THF     C911472   0.443   5.592   1.507  0.2857  0.0579  0.2463
  702THF    H1011473   0.520   5.664   1.696 -1.6870  1.2171  0.9711
  702THF    H1111474   0.365   5.599   1.707 -0.1024  3.0410 -0.4654
  702THF    H1211475   0.353   5.646   1.478  0.0210  0.1754  1.2622
  702THF    H1311476   0.525   5.638   1.451  0.4653 -2.1732 -1.4587
  703THF     O111477   3.242   2.087   2.982  0.2639 -0.1887 -0.4033
  703THF     C211478   3.350   2.025   2.918 -0.1471  0.5053  0.3146
  703THF     C311479   3.246   2.222   2.941 -0.4102 -0.9049 -0.1769
  703THF     H411480   3.352   1.916   2.916 -0.3066  0.5051 -1.2539
  703THF     H511481   3.440   2.065   2.965 -0.0241  1.0214 -0.3403
  703THF     H611482   3.163   2.281   2.979  2.1241  1.6157  1.9537
  703THF     H711483   3.338   2.261   2.985 -1.0147  1.2930 -0.7031
  703THF     C811484   3.268   2.202   2.798  0.2808  0.2397  0.3841
  703THF     C911485   3.340   2.074   2.780 -0.2536 -0.0559  0.1034
  703THF    H1011486   3.334   2.280   2.761  0.6589  0.1721  0.9121
  703THF    H1111487   3.173   2.191   2.745  0.3363 -2.5050  0.6869
  703THF    H1211488   3.272   2.011   2.722 -0.8991  1.3924 -0.7525
  703THF    H1311489   3.434   2.076   2.726 -0.3992  0.5052 -0.1366
  704THF     O111490   5.047   1.104   1.633  0.6724 -0.4134 -0.4060
  704THF     C211491   5.187   1.088   1.668  0.1628 -0.2406 -0.3050
  704THF     C311492   4.974   1.143   1.742 -0.1209 -0.7684  0.2877
  704THF     H411493   5.229   1.188   1.656  0.5784 -0.1279  1.7678
  704THF     H511494   5.243   1.023   1.601  0.8568 -0.7830  0.7803
  704THF     H611495   4.947   1.248   1.745  3.1470  0.2320 -0.7648
  704THF     H711496   4.882   1.084   1.742  0.0448 -1.0286  0.0630
  704THF     C811497   5.067   1.119   1.860 -0.3287  0.0267  1.1134
  704THF     C911498   5.192   1.047   1.812 -0.3600 -0.6147  0.5471
  704THF    H1011499   5.013   1.068   1.939 -1.2460  1.1473  1.2394
  704THF    H1111500   5.090   1.221   1.892  1.4268  0.8198 -2.2217
  704THF    H1211501   5.279   1.081   1.868  0.2315  1.0751 -1.2652
  704THF    H1311502   5.194   0.939   1.816  0.2894 -0.6663 -0.7636
  705THF     O111503   3.685   5.204   1.454 -0.1238  0.4181 -0.0768
  705THF     C211504   3.805   5.157   1.506  0.5585  0.0930 -0.0016
  705THF     C311505   3.600   5.254   1.562  0.4446  0.0621 -0.7721
  705THF     H411506   3.885   5.164   1.432  0.0662  0.3013 -0.5323
  705THF     H511507   3.804   5.054   1.541  1.4087 -0.2592 -0.9520
  705THF     H611508   3.504   5.297   1.531  0.4023  0.0249 -0.6918
  705THF     H711509   3.581   5.173   1.632 -2.5451  0.4822 -0.9661
  705THF     C811510   3.707   5.345   1.631  0.2648  0.6640  0.1040
  705THF     C911511   3.833   5.258   1.618  0.1466  0.2933  0.3567
  705THF    H1011512   3.667   5.369   1.729 -0.9237 -2.1406  0.4189
  705THF    H1111513   3.712   5.439   1.577 -0.5267  1.3713  1.2311
  705THF    H1211514   3.923   5.312   1.588  2.3295 -2.9189  0.6750
  705THF    H1311515   3.860   5.204   1.708  3.3203 -0.9311 -1.1766
  706THF     O111516   4.597   0.277   5.232  0.3908 -0.1784  0.7638
  706THF     C211517   4.639   0.386   5.320 -0.0794  0.3364  0.1235
  706THF     C311518   4.491   0.202   5.286 -0.2721 -0.5681  0.2220
  706THF     H411519   4.603   0.486   5.297 -1.5167  0.2308  1.6824
  706THF     H511520   4.744   0.387   5.294 -0.0891  0.2349  0.0803
  706THF     H611521   4.391   0.245   5.272  0.1505  0.7645  1.1325
  706THF     H711522   4.496   0.108   5.232 -1.0538  0.6018 -2.0511
  706THF     C811523   4.534   0.202   5.431  0.0236  0.3000  0.5571
  706THF     C911524   4.607   0.331   5.462  0.8070  0.1783 -0.7187
  706THF    H1011525   4.603   0.121   5.452 -0.1792  0.2352  0.9837
  706THF    H1111526   4.451   0.173   5.495 -1.0471 -0.1352 -0.9726
  706THF    H1211527   4.526   0.397   5.493  0.4243 -0.7515  0.3373
  706THF    H1311528   4.695   0.323   5.526  1.4279 -0.7414 -1.6640
  707THF     O111529   5.143   3.600   2.396 -0.0097 -0.1340 -0.2516
  707THF     C211530   5.016   3.540   2.371  0.3234  0.3593  0.7267
  707THF     C311531   5.118   3.719   2.466 -0.4441 -0.0738 -0.1153
  707THF     H411532   4.973   3.513   2.467  0.1188  0.6521  0.7202
  707THF     H511533   5.014   3.457   2.300  3.7836  1.1276 -0.4312
  707THF     H611534   5.089   3.701   2.570 -0.3334  2.4912  0.4272
  707THF     H711535   5.203   3.788   2.464 -0.5206  0.2154  2.5014
  707THF     C811536   4.998   3.779   2.390 -0.8724  0.2878  0.4276
  707THF     C911537   4.938   3.664   2.318  0.0102  0.0974  0.3070
  707THF    H1011538   5.040   3.863   2.335 -0.9018  0.5090  0.7419
  707THF    H1111539   4.935   3.825   2.467  0.5207 -0.2522  1.9496
  707THF    H1211540   4.832   3.660   2.345 -0.7486  3.2996 -1.6367
  707THF    H1311541   4.957   3.683   2.212  3.7116 -0.5380  0.7088
  708THF     O111542   1.803   3.078   4.957 -0.4436 -0.0676 -0.0607
  708THF     C211543   1.878   2.962   4.993 -0.8087  0.1586 -0.4710
  708THF     C311544   1.698   3.083   5.047 -0.8528  0.0244 -0.1194
  708THF     H411545   1.979   2.961   4.953  1.0926  0.5764  3.7669
  708THF     H511546   1.826   2.871   4.966 -0.3200 -1.0405  2.3093
  708THF     H611547   1.647   3.178   5.029 -0.7142  0.2417  0.6366
  708THF     H711548   1.632   2.999   5.025  1.7202 -2.7384  1.9663
  708THF     C811549   1.770   3.052   5.179  0.4300 -0.0856 -0.4110
  708THF     C911550   1.889   2.965   5.147  0.4385 -0.3083  0.2148
  708THF    H1011551   1.703   3.007   5.253 -0.9400 -0.5471 -1.8759
  708THF    H1111552   1.798   3.144   5.230 -1.4463  0.7733 -0.8535
  708THF    H1211553   1.978   3.023   5.171 -0.9933  2.5867 -1.0580
  708THF    H1311554   1.889   2.867   5.196  1.1511 -2.2597 -3.3081
  709THF     O111555   1.044   0.674   2.832 -0.1897 -0.3248 -0.3473
  709THF     C211556   1.129   0.720   2.932  0.0976  0.0495 -0.0600
  709THF     C311557   0.948   0.592   2.887  0.6663  0.8799 -0.0729
  709THF     H411558   1.146   0.824   2.906  0.5845  0.1524  0.6502
  709THF     H511559   1.222   0.662   2.931 -0.7551 -1.4145  0.9870
  709THF     H611560   0.860   0.596   2.823  0.9472  0.9346 -0.4615
  709THF     H711561   0.979   0.488   2.875 -0.2198  0.5845  0.1473
  709THF     C811562   0.926   0.648   3.025  0.2259 -0.4338  0.3479
  709THF     C911563   1.055   0.705   3.068  0.3250  0.9424 -0.0281
  709THF    H1011564   0.873   0.578   3.090 -1.8840 -0.7359 -1.5817
  709THF    H1111565   0.855   0.730   3.014  0.5265 -0.3310 -1.0221
  709THF    H1211566   1.036   0.791   3.132 -1.0901  1.0772 -0.5802
  709THF    H1311567   1.095   0.626   3.130 -4.3525 -1.1583  0.7461
  710THF     O111568   1.265   1.113   5.341 -0.0679  0.1200 -0.4979
  710THF     C211569   1.301   1.169   5.214 -0.2553 -0.1584  0.0866
  710THF     C311570   1.222   1.222   5.427 -1.1298  0.5614  0.1628
  710THF     H411571   1.282   1.096   5.136  0.8298  1.3102 -1.6390
  710THF     H511572   1.408   1.191   5.220 -0.0929 -1.2654  1.8797
  710THF     H611573   1.158   1.184   5.507  0.5765 -1.9977  0.4426
  710THF     H711574   1.316   1.262   5.465 -2.1702  1.5569  1.8224
  710THF     C811575   1.160   1.322   5.326 -0.7096  0.0816 -0.5566
  710THF     C911576   1.226   1.296   5.194  0.3949 -0.1016  0.2783
  710THF    H1011577   1.160   1.425   5.360  1.4347 -0.2230  0.5141
  710THF    H1111578   1.057   1.285   5.325 -0.6418 -0.1783 -2.4848
  710THF    H1211579   1.144   1.271   5.125  0.4680 -0.9554  0.4865
  710THF    H1311580   1.290   1.378   5.161  1.3222 -0.7441  0.4439
  711THF     O111581   5.355   0.659   3.757 -0.2047 -1.1712  0.0969
  711THF     C211582   5.289   0.740   3.852 -0.0037  0.6093  0.4339
  711THF     C311583   5.466   0.612   3.831  0.8836 -0.5664 -0.2016
  711THF     H411584   5.194   0.780   3.816 -1.0175  1.4056  3.6015
  711THF     H511585   5.350   0.813   3.905 -1.2451  0.2812  2.4173
  711THF     H611586   5.527   0.533   3.787  0.5399 -0.5307 -0.7576
  711THF     H711587   5.534   0.697   3.844 -2.4595  2.0578  1.9412
  711THF     C811588   5.402   0.574   3.963  0.2132  1.0058 -1.1354
  711THF     C911589   5.266   0.643   3.965  0.5995  0.2415 -0.0545
  711THF    H1011590   5.467   0.601   4.046  0.3051  0.2633 -0.9582
  711THF    H1111591   5.374   0.469   3.974 -0.1654  1.2702  0.7856
  711THF    H1211592   5.197   0.561   3.949  0.9411 -0.5429  2.1063
  711THF    H1311593   5.250   0.685   4.064  1.7959 -0.2717  0.3755
  712THF     O111594   2.740   0.278   3.043  0.0622 -0.1148 -0.1021
  712THF     C211595   2.741   0.208   2.911  0.3483 -0.0295 -0.1963
  712THF     C311596   2.639   0.215   3.121  0.0296  0.4508 -0.1831
  712THF     H411597   2.834   0.155   2.891  1.4273  1.7880 -0.2950
  712THF     H511598   2.743   0.281   2.829 -2.4541  1.6574  1.0635
  712THF     H611599   2.683   0.139   3.186  1.6011  1.8495  0.4710
  712THF     H711600   2.604   0.290   3.191  2.6351  0.3759  1.3363
  712THF     C811601   2.536   0.161   3.025  0.1956  1.0980 -0.3193
  712THF     C911602   2.621   0.117   2.904  0.0817 -0.1407  0.3942
  712THF    H1011603   2.456   0.228   2.995 -1.5076 -1.0807 -0.9610
  712THF    H1111604   2.491   0.083   3.086  0.6917  1.1914  0.1790
  712THF    H1211605   2.660   0.016   2.918 -1.2998 -0.5634  1.5019
  712THF    H1311606   2.568   0.125   2.809  0.3640  1.4726  0.3444
  713THF     O111607   3.374   2.722   4.304  0.0055 -0.8208 -0.1999
  713THF     C211608   3.289   2.681   4.411 -0.3485 -0.7736  0.0115
  713THF     C311609   3.399   2.611   4.216 -0.3515 -0.1342 -1.0522
  713THF     H411610   3.200   2.743   4.417  0.7389  0.7052  2.2297
  713THF     H511611   3.345   2.707   4.501  0.0077 -1.2931 -0.0554
  713THF     H611612   3.325   2.612   4.136 -0.8477 -0.7664 -0.6073
  713THF     H711613   3.499   2.607   4.172  1.1809  1.4417  1.9706
  713THF     C811614   3.384   2.491   4.302  0.2655 -0.1985 -0.3540
  713THF     C911615   3.272   2.532   4.396 -0.1528 -0.0295 -0.1208
  713THF    H1011616   3.467   2.479   4.371 -0.0999 -2.0527 -0.2041
  713THF    H1111617   3.361   2.397   4.253 -0.6619 -0.9774  1.4658
  713THF    H1211618   3.181   2.501   4.345  0.8148 -0.1884 -1.8457
  713THF    H1311619   3.289   2.498   4.498  2.1724  0.1336 -0.3851
  714THF     O111620   5.388   3.406   4.678  0.0389 -0.1177 -0.1703
  714THF     C211621   5.267   3.368   4.609 -0.6930  0.2944  0.6321
  714THF     C311622   5.358   3.466   4.807 -0.4468 -0.0314 -0.7832
  714THF     H411623   5.269   3.292   4.531 -2.5743 -0.9209  1.6780
  714THF     H511624   5.242   3.465   4.567  2.0406  0.5470 -0.5791
  714THF     H611625   5.428   3.423   4.879  2.1957  4.3923 -0.3323
  714THF     H711626   5.386   3.571   4.803 -0.1680 -0.0795 -0.2697
  714THF     C811627   5.212   3.440   4.825 -0.1227 -1.2450 -1.1176
  714THF     C911628   5.185   3.327   4.725  0.2985 -0.3229  0.2251
  714THF    H1011629   5.166   3.535   4.803 -1.0159 -1.3315  0.2749
  714THF    H1111630   5.181   3.414   4.926  0.2411 -0.0864 -0.6900
  714THF    H1211631   5.214   3.230   4.765 -2.2320 -1.2542 -0.0203
  714THF    H1311632   5.078   3.318   4.709  0.3844 -2.7998  0.6428
  715THF     O111633   0.860   1.002   5.447 -0.0996  0.1399 -0.5532
  715THF     C211634   0.938   0.876   5.436  0.3858 -1.2542 -0.1351
  715THF     C311635   0.825   1.046   5.317  0.0670 -1.1544  0.7972
  715THF     H411636   0.874   0.790   5.460 -1.3996 -1.7366 -5.2710
  715THF     H511637   1.018   0.880   5.509 -1.8324 -1.8211  2.4798
  715THF     H611638   0.718   1.031   5.305 -0.0484  1.5025 -3.4797
  715THF     H711639   0.830   1.155   5.317 -2.5353 -0.9630 -0.3836
  715THF     C811640   0.916   0.976   5.218 -0.6733 -1.1154 -0.2227
  715THF     C911641   0.977   0.860   5.287 -0.0450 -0.4256 -0.0319
  715THF    H1011642   0.989   1.049   5.183  0.7883 -1.8498  1.2025
  715THF    H1111643   0.856   0.937   5.135  0.0868 -3.1099  0.1211
  715THF    H1211644   0.925   0.772   5.251  0.6422 -0.4359 -1.0183
  715THF    H1311645   1.083   0.858   5.260 -0.0093 -1.0951  0.1437
  716THF     O111646   1.540   0.835   2.561 -0.2056  0.6955 -0.1890
  716THF     C211647   1.531   0.688   2.568 -0.3220 -0.3079  0.1321
  716THF     C311648   1.606   0.880   2.446 -0.2794  0.0778 -0.2800
  716THF     H411649   1.458   0.639   2.632  0.1096 -2.9943 -1.3065
  716THF     H511650   1.627   0.639   2.585  0.4791  0.1391 -2.6548
  716THF     H611651   1.578   0.975   2.402  0.5283 -0.2854 -1.6387
  716THF     H711652   1.711   0.892   2.473 -0.6580  2.1035  0.4904
  716THF     C811653   1.575   0.765   2.347  0.3044 -0.8652  0.1805
  716THF     C911654   1.494   0.662   2.424  0.4500 -1.0267 -0.6015
  716THF    H1011655   1.665   0.721   2.303  0.6365 -3.1914  2.9044
  716THF    H1111656   1.520   0.801   2.260 -1.3044  0.2370  1.6020
  716THF    H1211657   1.396   0.708   2.413  0.1142 -1.2242  1.3155
  716THF    H1311658   1.497   0.557   2.397  0.2561 -1.4896  1.0549
  717THF     O111659   1.900   1.509   3.990 -0.2144 -0.1413 -0.1216
  717THF     C211660   1.971   1.387   3.976 -0.3272 -0.3215  0.1920
  717THF     C311661   1.764   1.466   4.001  0.4449  0.5999  0.4822
  717THF     H411662   1.970   1.333   4.071 -4.1592 -0.3747  0.3006
  717THF     H511663   2.075   1.403   3.947  0.2034 -0.3439  1.9562
  717THF     H611664   1.735   1.441   4.103 -4.4787 -1.0494 -1.0282
  717THF     H711665   1.699   1.546   3.966  0.8982  0.3506 -1.0276
  717THF     C811666   1.750   1.342   3.912 -0.0063 -0.2683 -0.2019
  717THF     C911667   1.895   1.312   3.872 -0.2454  0.2016  0.0020
  717THF    H1011668   1.677   1.362   3.834 -0.8534  0.2748  0.7043
  717THF    H1111669   1.715   1.265   3.981  2.2518 -2.1417 -1.0154
  717THF    H1211670   1.914   1.206   3.853 -0.2033  0.4140 -1.2510
  717THF    H1311671   1.918   1.353   3.773 -0.2240  0.7227  0.2192
  718THF     O111672   4.329   3.087   3.526  0.0700  0.6891 -0.0529
  718THF     C211673   4.357   2.954   3.480 -0.2249  0.9111  0.6956
  718THF     C311674   4.221   3.146   3.450  0.2619 -0.8733 -0.7787
  718THF     H411675   4.392   2.884   3.556  1.0520  1.6666  0.8345
  718THF     H511676   4.420   2.951   3.390 -1.0255 -0.9666  0.1411
  718THF     H611677   4.169   3.221   3.510  0.5807 -2.0233  1.0061
  718THF     H711678   4.257   3.193   3.359 -0.6835 -1.0818 -1.2717
  718THF     C811679   4.145   3.023   3.408 -0.0840 -0.5321  0.0146
  718THF     C911680   4.218   2.901   3.445 -0.3188 -0.3667  0.0289
  718THF    H1011681   4.131   3.015   3.300  1.1055  1.6093 -0.3498
  718THF    H1111682   4.051   3.022   3.462 -1.1742  2.6432 -1.6120
  718THF    H1211683   4.168   2.859   3.532 -0.7037  0.9582  0.4730
  718THF    H1311684   4.229   2.824   3.369 -0.1909 -0.9227  0.5994
  719THF     O111685   2.406   2.872   0.506 -0.0742  0.3039 -0.4049
  719THF     C211686   2.547   2.876   0.480 -0.3525 -0.3356 -0.7859
  719THF     C311687   2.376   2.737   0.536 -0.3145 -0.1235  0.2895
  719THF     H411688   2.578   2.978   0.502  1.0352 -0.7813 -0.6222
  719THF     H511689   2.557   2.863   0.372 -1.4558  3.0406 -1.4353
  719THF     H611690   2.274   2.718   0.570 -0.1010 -2.9257 -0.3983
  719THF     H711691   2.389   2.672   0.449 -0.6540 -1.4288  1.1724
  719THF     C811692   2.477   2.715   0.640 -0.0768 -0.1603  0.2869
  719THF     C911693   2.608   2.761   0.567  0.0923  0.1427 -0.2801
  719THF    H1011694   2.482   2.611   0.672  2.4470  0.4911  2.4110
  719THF    H1111695   2.457   2.776   0.728  0.4915  0.1984  0.1736
  719THF    H1211696   2.682   2.805   0.633  0.3192  0.2058 -0.5720
  719THF    H1311697   2.656   2.686   0.504  1.1242 -0.2789  0.9774
  720THF     O111698   1.789   2.139   4.628  0.4415  0.2069 -0.0338
  720THF     C211699   1.685   2.235   4.620  0.1592  0.5070  0.5894
  720THF     C311700   1.723   2.014   4.595  0.2056 -0.6326  0.6833
  720THF     H411701   1.721   2.337   4.630 -1.1835  0.9845  0.7297
  720THF     H511702   1.613   2.212   4.699 -1.5523 -0.5040 -1.1644
  720THF     H611703   1.800   1.940   4.573  0.9912  0.4059 -0.2738
  720THF     H711704   1.653   1.978   4.670 -1.2701  0.4313 -0.1261
  720THF     C811705   1.662   2.068   4.463  0.0385 -0.0462  0.5597
  720THF     C911706   1.599   2.203   4.497 -0.5788 -0.2586  0.1460
  720THF    H1011707   1.585   1.997   4.434 -1.4061  1.0994  1.4467
  720THF    H1111708   1.733   2.084   4.382 -0.9979  1.5446 -0.0965
  720THF    H1211709   1.598   2.266   4.408 -0.7649 -3.0253 -1.9263
  720THF    H1311710   1.499   2.184   4.534 -0.5197 -1.5686 -0.3098
  721THF     O111711   4.794   0.971   2.155  0.3072  0.2282  0.3492
  721THF     C211712   4.671   1.036   2.183  0.2547  0.5107 -0.2116
  721THF     C311713   4.764   0.874   2.050  0.1387 -0.2601  0.2219
  721THF     H411714   4.685   1.128   2.239  1.6953  0.3304 -0.2461
  721THF     H511715   4.599   0.970   2.231 -0.3689  1.8278  0.7150
  721THF     H611716   4.855   0.832   2.006  1.6176  0.4512  2.4350
  721THF     H711717   4.703   0.798   2.098 -0.6989  0.1611 -0.1551
  721THF     C811718   4.685   0.963   1.953  0.3164 -0.1185 -0.4266
  721THF     C911719   4.625   1.074   2.044  0.4081 -0.3580 -0.1586
  721THF    H1011720   4.611   0.905   1.899 -0.5447 -2.2422  2.7511
  721THF    H1111721   4.757   1.008   1.885  0.6049  0.6686  0.3748
  721THF    H1211722   4.679   1.166   2.021 -0.1272 -0.3189 -1.3197
  721THF    H1311723   4.520   1.094   2.029  0.5157  0.4180  0.0811
  722THF     O111724   5.104   5.029   0.472  0.0217 -0.0129  0.1780
  722THF     C211725   5.145   4.906   0.419 -0.5255  0.0393  0.3379
  722THF     C311726   5.135   5.131   0.377 -0.7710 -0.7032  0.1372
  722THF     H411727   5.070   4.876   0.346  2.0624  2.7231 -3.8441
  722THF     H511728   5.156   4.835   0.501 -1.2415 -1.6215 -0.9448
  722THF     H611729   5.043   5.160   0.325 -0.4680 -0.9714 -0.5562
  722THF     H711730   5.167   5.215   0.438  0.4025  0.0922 -1.4904
  722THF     C811731   5.248   5.069   0.287 -0.7233  0.7030  0.2280
  722THF     C911732   5.272   4.932   0.336  0.1693 -0.1925  0.4885
  722THF    H1011733   5.339   5.129   0.293 -0.7805  1.0198 -1.5196
  722THF    H1111734   5.215   5.073   0.183 -0.6230 -0.5308  0.1378
  722THF    H1211735   5.280   4.859   0.255  0.1596 -0.5650  0.8232
  722THF    H1311736   5.362   4.945   0.397  1.3317  0.9646 -1.3560
  723THF     O111737   5.224   2.997   1.753 -0.1852 -0.9705 -0.0604
  723THF     C211738   5.336   3.011   1.827 -0.9399  0.7036  0.1005
  723THF     C311739   5.150   2.891   1.817 -0.5182 -0.6252  0.7692
  723THF     H411740   5.375   3.099   1.777 -1.1434  1.0820  0.6078
  723THF     H511741   5.405   2.929   1.804 -0.0636  1.1914  0.9346
  723THF     H611742   5.048   2.888   1.780 -0.3306  0.1973  0.1505
  723THF     H711743   5.201   2.798   1.794  0.2383  0.1749 -1.0017
  723THF     C811744   5.150   2.929   1.963  0.4630  0.6017  0.4827
  723THF     C911745   5.277   3.014   1.967  0.1157 -0.2018  0.3033
  723THF    H1011746   5.136   2.840   2.024  0.9550 -0.4777 -0.9136
  723THF    H1111747   5.063   2.992   1.982  1.1789  1.5793  0.6131
  723THF    H1211748   5.239   3.111   1.999  1.2318 -0.0114  1.0812
  723THF    H1311749   5.348   2.990   2.046 -0.1493  0.0972  0.6391
  724THF     O111750   5.047   2.464   1.493 -0.1121 -0.4476 -0.4911
  724THF     C211751   4.982   2.455   1.368 -0.2397 -1.1469  0.2883
  724THF     C311752   5.127   2.353   1.508 -0.2625 -0.3320  0.4854
  724THF     H411753   4.985   2.549   1.313  0.9795 -1.2598  0.1303
  724THF     H511754   4.874   2.446   1.383 -0.1675 -0.9190  0.9967
  724THF     H611755   5.206   2.353   1.582 -1.0025 -0.6251  1.2968
  724THF     H711756   5.080   2.262   1.544  0.7226 -1.0560 -0.0235
  724THF     C811757   5.184   2.330   1.367 -0.5294 -0.3809  0.1401
  724THF     C911758   5.053   2.347   1.291  0.0120 -0.6053  0.0602
  724THF    H1011759   5.237   2.237   1.349 -1.0575 -0.9482  1.3418
  724THF    H1111760   5.244   2.418   1.344 -0.2833 -0.8831 -1.2444
  724THF    H1211761   5.077   2.376   1.189  1.3171  0.4699  0.6446
  724THF    H1311762   5.003   2.250   1.295 -1.0696 -0.0321  0.8950
  725THF     O111763   3.405   2.474   1.815  0.3009  0.1704 -0.1406
  725THF     C211764   3.392   2.621   1.804  0.6292  0.2289  0.2597
  725THF     C311765   3.533   2.436   1.766 -0.3067  0.0774 -0.0206
  725THF     H411766   3.383   2.655   1.907 -0.3046  0.5283  0.0897
  725THF     H511767   3.300   2.653   1.755  1.4765  2.2230 -0.0912
  725THF     H611768   3.580   2.362   1.830  1.4717 -2.0564 -3.4816
  725THF     H711769   3.519   2.387   1.670  1.7783  0.4079 -0.5454
  725THF     C811770   3.615   2.564   1.755  0.3590 -0.4834 -0.0702
  725THF     C911771   3.513   2.672   1.735  0.8260 -0.9472 -0.0121
  725THF    H1011772   3.689   2.551   1.676 -1.7784 -0.5422 -2.1621
  725THF    H1111773   3.663   2.583   1.851 -0.6153  1.8883  0.0025
  725THF    H1211774   3.561   2.763   1.772  1.5745 -1.3406  0.0158
  725THF    H1311775   3.487   2.687   1.630  3.0120 -1.4785 -0.6826
  726THF     O111776   1.464   3.795   3.247 -0.4852 -0.2032  0.2816
  726THF     C211777   1.480   3.676   3.316  1.0482  0.1305  0.1534
  726THF     C311778   1.579   3.874   3.288  0.9161 -0.1114 -0.1750
  726THF     H411779   1.555   3.619   3.262 -1.2012 -1.9089 -1.0314
  726THF     H511780   1.389   3.616   3.306  0.7106  0.2969  2.0252
  726THF     H611781   1.674   3.835   3.254 -0.2161 -3.1952 -0.0688
  726THF     H711782   1.568   3.980   3.264  1.6009  0.3038  1.2680
  726THF     C811783   1.583   3.844   3.439 -0.8215 -0.9130  0.5784
  726THF     C911784   1.538   3.697   3.457  0.9523 -0.1071 -0.0216
  726THF    H1011785   1.514   3.910   3.490  1.5623  1.7630  0.6084
  726THF    H1111786   1.677   3.877   3.484  0.4093  1.1867 -3.1656
  726THF    H1211787   1.612   3.619   3.477 -1.2965 -2.9825 -1.9216
  726THF    H1311788   1.463   3.694   3.536 -0.1298  1.6558 -0.9233
  727THF     O111789   4.565   3.933   0.988 -0.0874 -0.0641  0.3931
  727THF     C211790   4.601   4.055   1.046 -0.2612 -0.0502 -0.6989
  727THF     C311791   4.629   3.833   1.074 -0.1846  0.2434  0.6819
  727THF     H411792   4.545   4.137   0.999  0.3624  0.9509  0.2624
  727THF     H511793   4.706   4.064   1.018 -0.2022  0.3017 -0.3769
  727THF     H611794   4.596   3.729   1.068 -3.0793  1.1115  0.1086
  727THF     H711795   4.733   3.843   1.045 -0.0787 -0.2057  0.8936
  727THF     C811796   4.604   3.894   1.216 -0.4408  0.1994 -0.0514
  727THF     C911797   4.585   4.039   1.195  0.1918 -0.0169 -0.1759
  727THF    H1011798   4.683   3.864   1.285 -0.8092 -0.1037  0.2466
  727THF    H1111799   4.516   3.849   1.263  0.0754 -0.5695  0.2110
  727THF    H1211800   4.493   4.085   1.230 -0.0480  1.0644 -2.0769
  727THF    H1311801   4.664   4.107   1.229 -1.2427  0.8385  1.5860
  728THF     O111802   3.619   3.733   5.100 -0.2192  0.8939  0.2349
  728THF     C211803   3.484   3.757   5.142 -0.8444 -0.0493  0.5163
  728THF     C311804   3.633   3.799   4.975  0.1895  0.2202 -0.9126
  728THF     H411805   3.474   3.739   5.249 -0.1310  3.7255  1.3682
  728THF     H511806   3.417   3.685   5.095  0.2059  1.2923 -3.4633
  728THF     H611807   3.737   3.815   4.946  0.7156  0.7375  1.1296
  728THF     H711808   3.589   3.739   4.895 -1.0925  2.4202 -1.9871
  728THF     C811809   3.544   3.923   4.994 -0.5490 -0.2912 -0.1122
  728THF     C911810   3.433   3.893   5.101 -0.3763 -0.1705  0.0028
  728THF    H1011811   3.501   3.959   4.900  1.3082  0.7792 -0.5987
  728THF    H1111812   3.612   3.999   5.034  0.3846 -0.3752 -1.4804
  728THF    H1211813   3.441   3.968   5.179 -0.3957 -1.0803  0.8947
  728THF    H1311814   3.333   3.894   5.059 -1.4173  1.9412  2.2927
  729THF     O111815   3.632   2.266   3.724  0.4476 -0.0337 -0.4017
  729THF     C211816   3.654   2.240   3.590  0.8280 -0.9894  0.3491
  729THF     C311817   3.499   2.240   3.761  0.2034 -0.3785 -0.3511
  729THF     H411818   3.746   2.182   3.600  1.4457 -0.2678 -1.0205
  729THF     H511819   3.664   2.338   3.544  0.2856 -0.2582  1.7175
  729THF     H611820   3.489   2.207   3.864 -0.3910  0.1969 -0.2143
  729THF     H711821   3.434   2.326   3.740 -1.8541 -1.5221  0.9793
  729THF     C811822   3.457   2.131   3.657  0.0031 -0.4097  0.4067
  729THF     C911823   3.529   2.181   3.533 -0.1428  0.2409 -0.0229
  729THF    H1011824   3.350   2.127   3.639 -0.1345  0.9858  0.7553
  729THF    H1111825   3.489   2.033   3.692  1.7540  0.0656  0.2616
  729THF    H1211826   3.557   2.116   3.451  0.5994 -0.3157  0.6578
  729THF    H1311827   3.461   2.260   3.500  0.3741  0.6625 -0.0965
  730THF     O111828   0.663   1.160   3.397  0.2757  0.1225  0.3074
  730THF     C211829   0.770   1.247   3.374 -0.3109 -0.6995 -0.0127
  730THF     C311830   0.566   1.177   3.286  0.1132 -0.0459 -0.5331
  730THF     H411831   0.844   1.189   3.318 -2.3470 -2.0427 -1.4251
  730THF     H511832   0.805   1.298   3.463 -2.3984  3.2899 -1.2394
  730THF     H611833   0.613   1.123   3.204 -1.3241 -0.9477 -0.8018
  730THF     H711834   0.469   1.139   3.318  0.5036 -0.6578 -0.0523
  730THF     C811835   0.569   1.331   3.266 -0.2276 -0.9653 -0.5124
  730THF     C911836   0.718   1.354   3.279 -0.1020  0.2657 -0.1451
  730THF    H1011837   0.526   1.381   3.353  1.5326  0.7148 -0.5276
  730THF    H1111838   0.525   1.358   3.171 -0.2387 -1.7479 -0.7424
  730THF    H1211839   0.761   1.328   3.182 -0.3193 -0.6771 -0.0018
  730THF    H1311840   0.740   1.459   3.297 -1.0788  0.3471  0.6219
  731THF     O111841   0.644   3.185   3.934 -0.1036 -0.3696  0.1247
  731THF     C211842   0.602   3.157   3.799  0.5203  0.3804 -0.2767
  731THF     C311843   0.767   3.256   3.914  0.2419 -0.2805 -0.1669
  731THF     H411844   0.495   3.136   3.801  0.6684 -0.3631  0.6925
  731THF     H511845   0.656   3.066   3.775  1.2276  0.3199  1.4365
  731THF     H611846   0.798   3.307   4.005  0.3740 -0.0328 -0.3508
  731THF     H711847   0.852   3.196   3.883  1.1792  0.0197  1.7012
  731THF     C811848   0.726   3.358   3.807 -0.6922 -0.0077 -0.6197
  731THF     C911849   0.639   3.281   3.714  0.0111  0.1908  1.2158
  731THF    H1011850   0.814   3.409   3.769  0.6007 -0.4250  1.6394
  731THF    H1111851   0.667   3.440   3.847 -1.6738  0.2674 -2.5266
  731THF    H1211852   0.550   3.341   3.694  0.3200  1.4047  3.2418
  731THF    H1311853   0.683   3.245   3.621 -2.2054 -1.8536  0.8560
  732THF     O111854   4.550   5.188   5.087 -0.7490  0.3888  0.2178
  732THF     C211855   4.626   5.270   5.180 -0.1623 -0.2887 -0.1210
  732THF     C311856   4.630   5.161   4.968 -0.2532  0.3206  0.1072
  732THF     H411857   4.709   5.219   5.228  0.4300  0.5917 -0.1956
  732THF     H511858   4.565   5.325   5.252 -0.4078 -1.1421  0.3466
  732THF     H611859   4.706   5.089   4.998 -1.3101 -0.3609  1.2270
  732THF     H711860   4.566   5.118   4.892 -0.7176 -0.9730  1.1893
  732THF     C811861   4.689   5.302   4.945  0.0130  0.2865 -0.0617
  732THF     C911862   4.694   5.368   5.083 -0.3585 -0.3417  0.5353
  732THF    H1011863   4.626   5.353   4.873  0.7952  1.2849 -0.0620
  732THF    H1111864   4.787   5.288   4.898 -0.2464 -1.1365 -0.2382
  732THF    H1211865   4.795   5.395   5.112 -0.5757  0.5792  0.4556
  732THF    H1311866   4.640   5.457   5.050 -1.5534 -1.7078 -1.4398
  733THF     O111867   2.516   3.951   3.093 -1.0549 -0.0699  0.0782
  733THF     C211868   2.594   4.000   3.199  0.1819 -0.0444 -0.0541
  733THF     C311869   2.401   4.020   3.093  0.1119 -0.2108 -0.1477
  733THF     H411870   2.699   3.971   3.192 -0.0403 -0.8470 -0.1680
  733THF     H511871   2.556   3.979   3.299 -2.1617 -0.2748 -0.9295
  733THF     H611872   2.350   3.988   3.001  1.8374 -1.6572 -0.6583
  733THF     H711873   2.345   3.990   3.181 -0.2606 -1.7085 -0.8482
  733THF     C811874   2.458   4.159   3.097 -0.2034  0.1709 -0.3253
  733THF     C911875   2.577   4.149   3.191 -0.2155  0.2022  0.4198
  733THF    H1011876   2.394   4.239   3.134 -0.0728  0.6335 -1.0662
  733THF    H1111877   2.488   4.183   2.995  1.5931  0.5621  0.2448
  733THF    H1211878   2.661   4.198   3.141 -1.8384 -0.2664 -3.1092
  733THF    H1311879   2.569   4.196   3.289  1.1069  3.7668 -1.0100
  734THF     O111880   5.236   1.040   0.337 -0.5782 -0.8968  1.2098
  734THF     C211881   5.090   1.051   0.332  0.3341  0.2515  1.0192
  734THF     C311882   5.280   1.134   0.433 -0.7890 -0.1138 -0.1508
  734THF     H411883   5.046   0.987   0.408  0.2664  0.1340  0.8831
  734THF     H511884   5.046   1.025   0.235  2.4299  0.2015  0.0337
  734THF     H611885   5.257   1.092   0.532 -1.5818  1.2655  0.2736
  734THF     H711886   5.384   1.163   0.421 -0.6272 -0.2989  0.6953
  734THF     C811887   5.193   1.259   0.410 -0.4202 -0.1927  0.5507
  734THF     C911888   5.058   1.200   0.359  0.0486  0.2562 -0.1795
  734THF    H1011889   5.243   1.316   0.332  0.8667 -2.0738 -0.0958
  734THF    H1111890   5.180   1.333   0.488 -0.2879 -0.9684  1.3229
  734THF    H1211891   4.978   1.214   0.432 -0.3174 -1.0984 -0.2794
  734THF    H1311892   5.021   1.265   0.280 -0.7988 -0.2582 -0.2229
  735THF     O111893   5.472   5.486   3.628 -0.0242 -0.0021  0.7557
  735THF     C211894   5.575   5.573   3.576 -0.7785 -0.1904 -0.0786
  735THF     C311895   5.507   5.352   3.625  0.8935 -0.4616 -0.6420
  735THF     H411896   5.591   5.664   3.635  4.1575  1.4527 -3.2562
  735THF     H511897   5.558   5.588   3.470  1.2814  1.3033 -0.2692
  735THF     H611898   5.461   5.279   3.691 -0.6062  0.3616 -0.7331
  735THF     H711899   5.494   5.316   3.523  0.4115  0.7482 -1.0351
  735THF     C811900   5.653   5.355   3.659  0.1275  0.3065  0.3360
  735THF     C911901   5.699   5.479   3.597  0.3841  0.0715 -0.3908
  735THF    H1011902   5.715   5.269   3.634  2.7467  2.0746  0.3221
  735THF    H1111903   5.670   5.372   3.765  0.2682 -0.9566  0.5293
  735THF    H1211904   5.776   5.523   3.661  0.3974  2.1322 -1.7203
  735THF    H1311905   5.743   5.454   3.501 -0.8653  1.4555 -1.3826
  736THF     O111906   1.243   3.633   1.239  0.6682  0.1197  0.6236
  736THF     C211907   1.193   3.596   1.117 -0.0168  0.2610  0.6819
  736THF     C311908   1.369   3.564   1.241 -0.7481  0.0351  0.2261
  736THF     H411909   1.110   3.658   1.084  0.0490  1.4750  2.6560
  736THF     H511910   1.155   3.494   1.118 -0.5129  0.4436  0.6689
  736THF     H611911   1.432   3.598   1.323 -0.5405  0.3920 -0.0800
  736THF     H711912   1.356   3.457   1.257 -0.4381 -0.1968 -0.9627
  736THF     C811913   1.436   3.605   1.107  0.6738  0.5776 -0.0810
  736THF     C911914   1.312   3.618   1.022  0.5731  0.2123  0.1119
  736THF    H1011915   1.507   3.527   1.078  1.6458  1.8296 -1.1472
  736THF    H1111916   1.491   3.698   1.110  2.4402 -0.3556 -1.4274
  736THF    H1211917   1.306   3.701   0.951 -0.3543  0.4778  0.4824
  736THF    H1311918   1.311   3.523   0.969  0.3636  0.1745  0.1834
  737THF     O111919   1.324   3.529   4.690  0.4575  0.1515 -0.1272
  737THF     C211920   1.207   3.531   4.612  0.8092  0.0472 -0.4525
  737THF     C311921   1.368   3.668   4.699  0.5121 -0.1919 -0.2182
  737THF     H411922   1.116   3.529   4.673  0.4448  1.3908 -0.9292
  737THF     H511923   1.210   3.431   4.568  0.4165  0.5101 -1.5668
  737THF     H611924   1.320   3.716   4.784 -0.7394 -0.8144 -0.5620
  737THF     H711925   1.471   3.672   4.734  0.0727  1.4801  0.9528
  737THF     C811926   1.325   3.732   4.559 -0.0973 -0.2429 -0.5025
  737THF     C911927   1.213   3.641   4.504 -0.8718  0.3150 -0.5976
  737THF    H1011928   1.416   3.728   4.499  0.6674 -2.9411  0.6815
  737THF    H1111929   1.301   3.838   4.563 -0.1196 -0.2749  0.6154
  737THF    H1211930   1.116   3.688   4.486 -0.9972  0.7058  0.8920
  737THF    H1311931   1.237   3.604   4.405 -0.6610 -0.2096 -0.3552
  738THF     O111932   2.675   3.352   0.583  0.6819  0.2294 -0.1155
  738THF     C211933   2.782   3.439   0.547  0.3623  0.5998  0.9385
  738THF     C311934   2.620   3.297   0.464 -0.6040 -0.6169  0.4367
  738THF     H411935   2.860   3.371   0.513  0.8748  0.6462  1.9733
  738THF     H511936   2.824   3.502   0.626  1.7440  0.7310  0.1423
  738THF     H611937   2.662   3.200   0.436  1.8020  0.2312  0.8884
  738THF     H711938   2.517   3.267   0.484 -0.7317 -0.7522 -0.3883
  738THF     C811939   2.632   3.409   0.358 -0.2526 -0.3106 -0.1756
  738THF     C911940   2.713   3.515   0.431 -0.1359 -0.5051 -0.5017
  738THF    H1011941   2.540   3.455   0.322 -0.5003 -0.8911 -0.2982
  738THF    H1111942   2.674   3.370   0.266  0.7105 -0.5208  0.3363
  738THF    H1211943   2.787   3.576   0.381 -0.3253  2.9543  2.9406
  738THF    H1311944   2.645   3.578   0.488 -1.7475 -2.3500 -0.2877
  739THF     O111945   1.646   1.232   1.619 -0.1529 -0.0075  0.2040
  739THF     C211946   1.607   1.160   1.726  0.1937  0.1767  0.4758
  739THF     C311947   1.659   1.151   1.502  0.2442  0.3237 -0.4221
  739THF     H411948   1.504   1.181   1.754  0.1596  0.3153  0.2498
  739THF     H511949   1.664   1.178   1.817 -0.5113 -0.6761  1.1092
  739THF     H611950   1.608   1.202   1.420 -1.7389 -0.2619  0.3822
  739THF     H711951   1.765   1.145   1.476  0.5239  1.2089  0.4765
  739THF     C811952   1.609   1.014   1.539  0.4814 -0.0770 -0.4098
  739THF     C911953   1.629   1.017   1.689  0.0258  0.3105  0.2613
  739THF    H1011954   1.684   0.946   1.499  2.6507  1.5997  0.6312
  739THF    H1111955   1.510   0.989   1.500  0.6758  0.5771 -1.3564
  739THF    H1211956   1.561   0.949   1.741  0.8152 -0.7042  0.0062
  739THF    H1311957   1.735   0.990   1.693  0.5440  2.1733 -0.1003
  740THF     O111958   5.169   4.658   1.075  0.4549  1.1549 -0.3917
  740THF     C211959   5.149   4.511   1.089 -0.3210 -0.0756 -0.1902
  740THF     C311960   5.287   4.660   0.997 -0.0733 -0.1140 -0.0240
  740THF     H411961   5.110   4.460   1.001 -0.5665  0.2133 -0.2522
  740THF     H511962   5.087   4.498   1.178  0.1777 -0.9614  0.0423
  740THF     H611963   5.255   4.637   0.895  0.3926  2.3828 -0.7918
  740THF     H711964   5.335   4.758   0.992 -0.0754 -0.0012  1.7848
  740THF     C811965   5.383   4.551   1.041 -0.0899 -1.1781 -0.1420
  740THF     C911966   5.292   4.460   1.128 -0.4284 -0.1600 -0.2930
  740THF    H1011967   5.467   4.600   1.091 -1.0302  0.4489 -0.0707
  740THF    H1111968   5.432   4.503   0.957 -1.1052 -2.0900 -0.2438
  740THF    H1211969   5.305   4.353   1.112  0.2287 -0.2598  0.7758
  740THF    H1311970   5.315   4.479   1.233 -0.9819 -1.8575  0.1700
  741THF     O111971   0.135   4.003   3.415  0.2547 -0.5037 -0.1427
  741THF     C211972   0.095   3.868   3.384  0.1766  0.4531 -0.1912
  741THF     C311973   0.274   3.996   3.437 -0.2350  0.9016 -0.3995
  741THF     H411974  -0.005   3.853   3.343 -0.3887  0.9003  0.9866
  741THF     H511975   0.112   3.795   3.464  0.6292 -0.3667 -1.0063
  741THF     H611976   0.293   4.103   3.424  0.7045  0.8528  0.4267
  741THF     H711977   0.298   3.962   3.538 -2.3648  0.7465  0.0932
  741THF     C811978   0.320   3.899   3.319  0.0932 -0.4153  0.3158
  741THF     C911979   0.190   3.826   3.283 -0.4914 -0.5796  1.1307
  741THF    H1011980   0.400   3.828   3.341 -0.4284 -0.9010  0.6670
  741THF    H1111981   0.347   3.964   3.236  0.1801 -1.2463 -0.3170
  741THF    H1211982   0.162   3.853   3.182  0.9809  0.7450  1.0441
  741THF    H1311983   0.203   3.717   3.286 -0.4104 -0.5506  2.1856
  742THF     O111984   0.862   4.494   0.812 -0.3399  0.1722  0.1334
  742THF     C211985   0.779   4.377   0.804 -0.3211 -0.5045 -0.0254
  742THF     C311986   0.909   4.510   0.683 -0.4028 -0.3604  0.4811
  742THF     H411987   0.694   4.409   0.743  0.5706 -0.3064 -1.2190
  742THF     H511988   0.759   4.348   0.907 -1.6292 -0.1949 -0.1800
  742THF     H611989   0.827   4.537   0.617  0.6611  0.7069 -0.4548
  742THF     H711990   0.994   4.576   0.664  0.6187 -2.2889 -2.1395
  742THF     C811991   0.958   4.371   0.646 -0.0923 -0.0648  0.3070
  742THF     C911992   0.865   4.279   0.727 -0.9809  1.1072 -0.0805
  742THF    H1011993   1.062   4.359   0.675  0.1149  1.1359  0.1254
  742THF    H1111994   0.956   4.348   0.540 -1.2740 -0.5515  0.4222
  742THF    H1211995   0.813   4.208   0.662  0.3885 -1.6038  1.5721
  742THF    H1311996   0.912   4.219   0.806 -1.9150  1.1324  0.5116
  743THF     O111997   0.651   4.089   0.826 -0.6942 -0.6034 -0.4572
  743THF     C211998   0.522   4.121   0.797 -0.5291 -0.1712  0.6832
  743THF     C311999   0.676   3.954   0.815 -0.0960  0.3777  0.0468
  743THF     H412000   0.508   4.147   0.692 -1.2272  2.7827  1.4235
  743THF     H512001   0.501   4.207   0.861 -3.1783 -0.9791  1.0150
  743THF     H612002   0.761   3.933   0.749 -1.0508  0.0767 -1.1346
  743THF     H712003   0.698   3.917   0.915  0.5317 -1.3304 -0.6711
  743THF     C812004   0.551   3.888   0.767  0.1539  0.1536  0.2676
  743THF     C912005   0.455   3.985   0.832 -0.8447  0.3201  0.4626
  743THF    H1012006   0.533   3.785   0.799  1.3141 -0.0206  0.4222
  743THF    H1112007   0.543   3.885   0.658  0.9102 -0.4662  0.2152
  743THF    H1212008   0.356   3.992   0.786 -0.7578 -0.9422  0.0603
  743THF    H1312009   0.436   3.955   0.935 -1.1092 -2.0785 -0.2278
  744THF     O112010   4.781   1.888   2.012  0.4753  0.3796  0.1720
  744THF     C212011   4.750   1.965   1.903 -0.6875 -1.0720  0.0560
  744THF     C312012   4.721   1.766   1.984  0.1685  0.8130  0.2152
  744THF     H412013   4.820   2.047   1.887 -0.0770 -1.2510  1.6109
  744THF     H512014   4.654   2.015   1.914  0.1234  1.0401 -1.6571
  744THF     H612015   4.772   1.685   2.037  1.0452  0.0288 -1.7460
  744THF     H712016   4.615   1.772   2.005 -0.4922 -1.4304 -2.0911
  744THF     C812017   4.760   1.733   1.834 -0.1164 -0.6317  0.5422
  744THF     C912018   4.741   1.873   1.773 -0.4836 -0.0144  0.6832
  744THF    H1012019   4.695   1.658   1.790  0.3199  0.1986 -1.6356
  744THF    H1112020   4.864   1.699   1.842 -0.2023 -1.2325 -0.6041
  744THF    H1212021   4.825   1.896   1.708  0.0740 -1.7214  0.7691
  744THF    H1312022   4.645   1.879   1.723 -0.3660 -3.2638 -0.1339
  745THF     O112023   0.338   5.072   3.762  0.1500  0.2511 -0.2765
  745THF     C212024   0.235   4.987   3.725  0.3310  0.0692 -0.2465
  745THF     C312025   0.345   5.082   3.904 -0.2414  0.6118 -1.1003
  745THF     H412026   0.233   4.940   3.627 -2.7761 -1.1745  0.2873
  745THF     H512027   0.148   5.053   3.727  0.8683  0.8816 -1.7571
  745THF     H612028   0.426   5.133   3.956 -1.8090  0.2388  1.9030
  745THF     H712029   0.260   5.141   3.940  1.2532  0.8152  2.5443
  745THF     C812030   0.335   4.935   3.943  0.2494  0.3139 -0.0712
  745THF     C912031   0.247   4.878   3.832 -0.5239 -0.1348  0.0313
  745THF    H1012032   0.300   4.925   4.046 -0.2531  0.2571 -0.2476
  745THF    H1112033   0.435   4.893   3.934 -0.4217 -0.9322 -2.5012
  745THF    H1212034   0.268   4.782   3.785 -2.0497 -0.3060 -0.3709
  745THF    H1312035   0.146   4.873   3.874 -1.1452  0.6745 -1.3041
  746THF     O112036   3.968   3.179   1.060  0.3729 -0.2759  0.0548
  746THF     C212037   3.918   3.093   1.162 -0.5266  0.4818  0.8604
  746THF     C312038   3.957   3.310   1.105 -0.3676 -0.2651  0.2930
  746THF     H412039   3.950   2.989   1.153 -0.2134  0.5147  1.5335
  746THF     H512040   3.811   3.094   1.144 -0.4213  0.7804  0.2045
  746THF     H612041   4.047   3.355   1.063  0.4964 -1.8650  0.3261
  746THF     H712042   3.869   3.360   1.065 -1.6336 -1.0791  1.9279
  746THF     C812043   3.957   3.307   1.261  0.7320 -0.3492  0.1660
  746THF     C912044   3.952   3.159   1.288 -0.1654 -0.5949 -0.6666
  746THF    H1012045   3.878   3.357   1.316 -0.0593 -0.6071 -0.7116
  746THF    H1112046   4.047   3.356   1.297 -0.2218  0.2904  1.7436
  746THF    H1212047   4.041   3.121   1.337 -0.4476 -1.1954 -0.6180
  746THF    H1312048   3.875   3.142   1.363  0.0941 -0.7370 -0.4300
  747THF     O112049   2.461   3.124   1.906 -0.0950  0.2770 -0.0641
  747THF     C212050   2.366   3.220   1.939 -0.4467  0.2047 -0.3433
  747THF     C312051   2.451   3.100   1.763 -0.3441 -0.4318  1.7069
  747THF     H412052   2.394   3.273   2.030  2.1948 -0.1334 -0.8804
  747THF     H512053   2.267   3.178   1.954 -0.1945 -0.7298 -1.1110
  747THF     H612054   2.550   3.101   1.719 -1.7048 -0.7111 -1.6381
  747THF     H712055   2.391   3.013   1.736  0.4503 -1.0056  1.7345
  747THF     C812056   2.381   3.224   1.702 -0.2052  0.4698  0.6636
  747THF     C912057   2.375   3.314   1.825 -0.2839 -0.0263  0.7829
  747THF    H1012058   2.286   3.194   1.657  0.0071  0.1651  0.4169
  747THF    H1112059   2.427   3.267   1.613 -2.1857 -1.3208 -1.3603
  747THF    H1212060   2.467   3.373   1.830  0.9436 -1.6146 -1.1102
  747THF    H1312061   2.285   3.374   1.818 -0.8573 -0.9893 -0.7496
  748THF     O112062   2.369   0.111   0.381  0.2952 -0.4235  0.1986
  748THF     C212063   2.511   0.119   0.372  0.3932 -0.5197  0.3400
  748THF     C312064   2.309   0.227   0.320 -0.4003  0.6831 -1.0082
  748THF     H412065   2.554   0.022   0.397  0.6975 -0.5566 -0.2980
  748THF     H512066   2.534   0.195   0.447 -1.9362  1.1622 -0.5366
  748THF     H612067   2.203   0.212   0.305 -0.4198 -1.2418  0.6483
  748THF     H712068   2.318   0.318   0.380 -2.5734 -0.3560  1.0365
  748THF     C812069   2.400   0.236   0.195  0.4462 -0.0510 -0.3822
  748THF     C912070   2.540   0.188   0.238 -0.7178 -0.0640 -0.0556
  748THF    H1012071   2.414   0.340   0.166  1.1825  0.3142  1.1667
  748THF    H1112072   2.374   0.160   0.121 -0.1092 -1.0157  0.7694
  748THF    H1212073   2.594   0.131   0.162 -0.0906  1.3538 -0.7009
  748THF    H1312074   2.612   0.267   0.258 -1.4190  0.2088  1.4846
  749THF     O112075   4.805   3.428   0.657 -0.5710  0.1969 -0.3144
  749THF     C212076   4.829   3.472   0.797  0.3371 -0.1602  0.0859
  749THF     C312077   4.687   3.500   0.622 -0.3599 -0.0562 -0.0236
  749THF     H412078   4.929   3.438   0.827  0.3323 -0.6920 -0.5009
  749THF     H512079   4.762   3.424   0.868 -0.9176  2.6507  0.9329
  749THF     H612080   4.682   3.536   0.519 -0.5350  0.6573  0.2289
  749THF     H712081   4.599   3.437   0.629  0.9344 -2.0158 -0.6629
  749THF     C812082   4.682   3.625   0.713  0.6419  0.3438 -0.0109
  749THF     C912083   4.806   3.619   0.789  0.9379  0.0644  0.5849
  749THF    H1012084   4.588   3.622   0.769  0.0053  0.5237 -1.0249
  749THF    H1112085   4.686   3.711   0.647  0.1662  0.3088 -0.0914
  749THF    H1212086   4.876   3.680   0.733 -1.6431  3.0480  0.3691
  749THF    H1312087   4.796   3.657   0.890  0.6621 -1.2690  1.0896
  750THF     O112088   3.989   3.159   0.075  0.3458 -0.4790  0.3431
  750THF     C212089   4.056   3.043   0.097 -0.0484  0.7433 -0.0699
  750THF     C312090   3.875   3.167   0.166  0.1503 -0.5138  0.0333
  750THF     H412091   4.109   3.047   0.192  2.1093 -0.9251 -1.1204
  750THF     H512092   4.130   3.006   0.026  0.1762  0.3820  0.3495
  750THF     H612093   3.912   3.216   0.256 -1.5486 -0.0211  0.5155
  750THF     H712094   3.807   3.234   0.111  0.6621 -1.3885 -1.7482
  750THF     C812095   3.830   3.024   0.183  0.1435  1.1002 -0.0602
  750THF     C912096   3.929   2.952   0.100 -0.0663  0.3653  0.1517
  750THF    H1012097   3.726   3.003   0.158  0.4246 -0.4507 -0.0727
  750THF    H1112098   3.852   2.998   0.287 -1.6398 -2.1850 -0.3705
  750THF    H1212099   3.945   2.853   0.144  0.5854 -0.0832 -1.0363
  750THF    H1312100   3.880   2.947   0.002 -2.5595 -1.2076  1.3663
  751THF     O112101   2.112   1.913   0.501  0.0039 -0.2852  0.3944
  751THF     C212102   2.103   1.773   0.505 -0.5556  0.0130 -0.2834
  751THF     C312103   2.239   1.931   0.439 -0.1156  0.0496 -1.0555
  751THF     H412104   2.003   1.734   0.527  0.6964 -2.4237  1.6377
  751THF     H512105   2.159   1.732   0.589  1.8930  0.2076 -1.7475
  751THF     H612106   2.247   2.030   0.396  0.3507 -0.2451 -1.6571
  751THF     H712107   2.311   1.914   0.519  0.3175  3.3709 -0.5836
  751THF     C812108   2.244   1.825   0.329 -0.2808  0.4469  0.9562
  751THF     C912109   2.157   1.714   0.375  0.9831 -0.3418 -0.0938
  751THF    H1012110   2.346   1.790   0.315  0.1503  2.0691 -0.1980
  751THF    H1112111   2.202   1.861   0.235  2.2052  2.1174  0.3974
  751THF    H1212112   2.077   1.700   0.303 -1.4085  3.3169  1.5446
  751THF    H1312113   2.195   1.612   0.379 -0.0884 -0.7620 -0.5351
  752THF     O112114   0.752   2.744   4.054 -0.6740  0.4016 -0.5464
  752THF     C212115   0.745   2.883   4.033  1.1510  0.3703  0.4533
  752THF     C312116   0.710   2.706   4.190  0.1889  0.4703 -0.0444
  752THF     H412117   0.702   2.900   3.935  1.5433  3.1325  0.6755
  752THF     H512118   0.843   2.929   4.019  0.4950  1.4416 -0.9264
  752THF     H612119   0.614   2.654   4.196 -0.3863  1.5953  0.9552
  752THF     H712120   0.786   2.637   4.227  0.2553  0.1241 -0.7980
  752THF     C812121   0.704   2.842   4.257 -0.0008 -0.5382 -0.5436
  752THF     C912122   0.673   2.944   4.152 -0.1629  0.4888 -0.7755
  752THF    H1012123   0.800   2.862   4.304 -0.1521  1.9934 -1.1743
  752THF    H1112124   0.633   2.843   4.340  1.3697 -2.0409  0.7326
  752THF    H1212125   0.565   2.944   4.136 -0.5626  1.1771  1.5523
  752THF    H1312126   0.708   3.041   4.189  2.0519 -0.5266 -0.0317
  753THF     O112127   4.640   4.629   2.523  0.3298  0.5341 -0.0621
  753THF     C212128   4.777   4.636   2.512 -0.7580 -0.5883  0.0181
  753THF     C312129   4.603   4.494   2.495 -0.3358  0.1536 -0.2983
  753THF     H412130   4.822   4.581   2.594  0.2064  1.0442  0.6230
  753THF     H512131   4.820   4.736   2.511  0.3671 -1.0385 -1.4524
  753THF     H612132   4.631   4.431   2.579  2.1456  1.2508 -0.2224
  753THF     H712133   4.496   4.484   2.477 -0.1075 -0.9684 -1.0983
  753THF     C812134   4.685   4.470   2.374  0.8162  0.0107  0.1504
  753THF     C912135   4.811   4.557   2.384 -0.2922  0.6591 -0.2468
  753THF    H1012136   4.639   4.520   2.289 -0.9405  2.1138  2.2405
  753THF    H1112137   4.705   4.365   2.349 -1.2409 -1.1101  2.7038
  753THF    H1212138   4.904   4.501   2.393  0.8479  2.3404 -1.0280
  753THF    H1312139   4.825   4.607   2.288  0.9606  1.9378  0.5660
  754THF     O112140   3.939   3.465   3.435  0.8523  0.6804  0.9987
  754THF     C212141   3.979   3.427   3.305 -0.3664 -0.6774  0.6587
  754THF     C312142   4.048   3.516   3.511 -0.0952 -0.2150  0.0485
  754THF     H412143   3.898   3.422   3.232  0.6380  3.7212 -1.0356
  754THF     H512144   4.035   3.334   3.315  0.5624 -0.2859 -0.5768
  754THF     H612145   4.032   3.586   3.593 -0.7424 -0.8607  0.4807
  754THF     H712146   4.093   3.423   3.545 -0.8041 -0.7729 -0.5028
  754THF     C812147   4.140   3.581   3.402 -0.1221 -0.9423 -0.5132
  754THF     C912148   4.065   3.548   3.270  0.0572  0.0242  0.5799
  754THF    H1012149   4.241   3.539   3.406 -0.1367 -0.9976 -0.7179
  754THF    H1112150   4.158   3.686   3.425  0.1444 -1.0520 -0.2046
  754THF    H1212151   4.000   3.631   3.243  0.6621  0.0854 -0.7719
  754THF    H1312152   4.138   3.526   3.192 -0.6532  1.2899 -0.4820
  755THF     O112153   4.686   1.492   1.034 -0.2413  0.1997 -0.1158
  755THF     C212154   4.628   1.366   0.991  0.4755  0.3824 -0.1072
  755THF     C312155   4.742   1.545   0.922 -0.0308 -0.0264  0.5276
  755THF     H412156   4.554   1.313   1.052 -0.3357  0.2992 -1.1371
  755THF     H512157   4.706   1.293   0.971 -0.5878 -0.4971 -1.2444
  755THF     H612158   4.762   1.652   0.933 -0.3627  0.0134  0.7556
  755THF     H712159   4.837   1.496   0.900 -0.2613 -0.1143 -0.2961
  755THF     C812160   4.626   1.526   0.819 -0.2599  0.0553  0.0883
  755THF     C912161   4.575   1.389   0.848  0.4957 -0.6726 -0.1537
  755THF    H1012162   4.668   1.521   0.719 -3.3108 -2.5589 -1.2473
  755THF    H1112163   4.555   1.609   0.814 -0.2069  0.1204  0.4112
  755THF    H1212164   4.466   1.397   0.841  0.1925 -3.1955  0.6016
  755THF    H1312165   4.615   1.316   0.778  0.2232 -0.4526 -0.5482
  756THF     O112166   1.447   1.587   1.756 -0.1716  0.7108 -0.6095
  756THF     C212167   1.434   1.545   1.620  1.0076 -0.1882 -0.6575
  756THF     C312168   1.316   1.646   1.785  0.1296  0.2513  0.1950
  756THF     H412169   1.432   1.437   1.604  0.4043  0.0255 -2.1816
  756THF     H512170   1.519   1.581   1.562  0.3647  0.7568 -1.0368
  756THF     H612171   1.282   1.599   1.878  3.3188 -1.7413  0.5143
  756THF     H712172   1.302   1.754   1.798 -1.8930  0.2032 -1.0905
  756THF     C812173   1.214   1.600   1.682 -0.0118 -0.3028  0.1279
  756THF     C912174   1.303   1.593   1.566  0.2663 -0.4349  0.1863
  756THF    H1012175   1.125   1.663   1.669  1.3642  1.7176  0.0230
  756THF    H1112176   1.176   1.502   1.711  0.1618 -0.5120 -0.3544
  756THF    H1212177   1.261   1.522   1.495 -1.1386 -0.0367  0.5824
  756THF    H1312178   1.302   1.687   1.511 -0.9885  1.2557  2.9304
  757THF     O112179   0.283   1.582   5.241 -0.0443  0.0405 -0.4149
  757THF     C212180   0.419   1.606   5.211 -0.1606 -0.1284 -0.4481
  757THF     C312181   0.265   1.634   5.378  0.3320 -0.3015 -0.0593
  757THF     H412182   0.440   1.594   5.105  1.1882 -0.5915 -0.1558
  757THF     H512183   0.478   1.530   5.264  0.0300 -0.6005 -1.3140
  757THF     H612184   0.160   1.645   5.405  0.1939  2.2168 -1.3352
  757THF     H712185   0.302   1.561   5.450  0.3293  1.2387  1.5614
  757THF     C812186   0.348   1.763   5.374  0.1823 -0.4985 -0.5327
  757THF     C912187   0.453   1.747   5.267  0.3885 -0.0031 -0.0138
  757THF    H1012188   0.406   1.785   5.464 -1.2802  2.1954 -0.1442
  757THF    H1112189   0.286   1.852   5.369  0.2399 -0.1249  2.8922
  757THF    H1212190   0.431   1.813   5.182 -2.8389 -2.4922 -1.3296
  757THF    H1312191   0.556   1.750   5.302  0.3159  0.4678  0.1632
  758THF     O112192   0.517   3.131   3.425 -0.1579 -0.0972  0.6746
  758THF     C212193   0.413   3.035   3.435  1.0651  0.2439  0.6024
  758THF     C312194   0.573   3.137   3.301 -0.3025 -0.2739 -0.2191
  758THF     H412195   0.337   3.047   3.513  1.6422 -0.8663  1.3642
  758THF     H512196   0.448   2.933   3.452 -2.5676 -1.2763 -0.0046
  758THF     H612197   0.614   3.236   3.280 -0.0584 -0.5077 -0.8844
  758THF     H712198   0.652   3.065   3.282  0.8067  1.4207 -2.6911
  758THF     C812199   0.454   3.110   3.212  0.1091 -0.4206 -0.0536
  758THF     C912200   0.351   3.039   3.289  0.1159  0.9513 -0.7853
  758THF    H1012201   0.491   3.059   3.123  1.6094 -1.1143  0.9274
  758THF    H1112202   0.398   3.196   3.175  0.8621 -0.6172 -1.7354
  758THF    H1212203   0.256   3.091   3.280 -0.0259  0.5181 -1.8918
  758THF    H1312204   0.353   2.937   3.252  2.3175  1.6475 -2.8127
  759THF     O112205   2.415   2.205   0.417  0.4964  0.0247 -0.2342
  759THF     C212206   2.453   2.200   0.281 -0.4649 -0.7281 -0.0001
  759THF     C312207   2.476   2.306   0.492 -0.5081 -0.2513  0.3194
  759THF     H412208   2.389   2.232   0.198  0.2441 -0.4765 -0.4571
  759THF     H512209   2.481   2.096   0.262 -3.1985 -1.3730 -1.0103
  759THF     H612210   2.406   2.389   0.483 -0.0307  0.8515  4.6524
  759THF     H712211   2.489   2.272   0.595  1.9923  0.8995  0.4698
  759THF     C812212   2.611   2.323   0.419 -0.1458  0.2047 -0.1477
  759THF     C912213   2.587   2.282   0.275 -0.2085  0.0699  0.8374
  759THF    H1012214   2.690   2.259   0.458 -0.0919  1.8498  2.7363
  759THF    H1112215   2.640   2.428   0.425  0.4424 -0.0470  2.4808
  759THF    H1212216   2.578   2.373   0.215 -0.3326 -0.0131  0.7262
  759THF    H1312217   2.663   2.222   0.226  0.2765  0.8666  0.5993
  760THF     O112218   5.251   4.013   0.783  0.0962  0.4210 -0.1030
  760THF     C212219   5.145   3.934   0.844 -0.5629  0.1022 -0.6585
  760THF     C312220   5.203   4.147   0.782  0.4164 -0.0706  0.5217
  760THF     H412221   5.170   3.915   0.948  1.1630  2.0108 -0.6641
  760THF     H512222   5.144   3.841   0.786  0.6692  0.1285 -0.7543
  760THF     H612223   5.208   4.177   0.887  0.2340  0.6826  0.3226
  760THF     H712224   5.270   4.207   0.720  0.6835  0.4157  1.2625
  760THF     C812225   5.052   4.131   0.746 -0.3798  0.5334  0.5964
  760THF     C912226   5.020   4.012   0.832  0.0042  0.0525  0.1691
  760THF    H1012227   5.045   4.101   0.641  0.9429  1.0764  0.3233
  760THF    H1112228   4.979   4.210   0.762 -4.0885 -2.6223  0.7880
  760THF    H1212229   4.997   4.050   0.931  0.9979 -0.7499  0.7352
  760THF    H1312230   4.941   3.946   0.799  0.3475 -0.0676 -0.4255
  761THF     O112231   1.313   2.540   3.339  0.7792 -0.6470 -0.8689
  761THF     C212232   1.197   2.557   3.256 -0.7391  0.1974 -0.4945
  761THF     C312233   1.337   2.658   3.416  0.7124  0.2276 -0.2709
  761THF     H412234   1.114   2.510   3.309  1.3343 -1.9158  1.1161
  761THF     H512235   1.207   2.504   3.161  1.1167 -0.9970  0.2895
  761THF     H612236   1.254   2.654   3.486  1.5822  0.7764  0.8385
  761THF     H712237   1.433   2.671   3.467 -0.0428  0.7958  1.0700
  761THF     C812238   1.313   2.757   3.302 -0.4965 -0.3348 -0.5304
  761THF     C912239   1.191   2.708   3.237  0.0901 -0.1995 -0.9103
  761THF    H1012240   1.397   2.765   3.233 -0.1932  0.4812 -0.0678
  761THF    H1112241   1.287   2.855   3.341 -0.9028 -1.1738  1.4214
  761THF    H1212242   1.105   2.745   3.291 -0.3720 -0.7969 -1.2280
  761THF    H1312243   1.203   2.739   3.133  0.4618  1.1927 -0.4827
  762THF     O112244   0.191   2.555   0.734  0.4911  0.0226  0.6185
  762THF     C212245   0.264   2.467   0.644 -0.0821  0.1758  0.0974
  762THF     C312246   0.254   2.684   0.716  0.3402 -0.2738 -0.0659
  762THF     H412247   0.222   2.366   0.652 -1.4813  0.6061 -1.1970
  762THF     H512248   0.371   2.452   0.656 -0.2064  0.0506  1.0749
  762THF     H612249   0.200   2.768   0.759  0.3931  0.2664 -1.0089
  762THF     H712250   0.351   2.692   0.765  0.1642 -2.1844  0.6740
  762THF     C812251   0.265   2.691   0.557  0.6590  0.4246 -0.1405
  762THF     C912252   0.259   2.541   0.513  0.2946  0.4190 -0.1908
  762THF    H1012253   0.363   2.732   0.532  0.5079  0.3756 -0.8239
  762THF    H1112254   0.184   2.747   0.510 -1.4108 -1.9785  0.3656
  762THF    H1212255   0.160   2.517   0.474  0.2072  0.2442  0.1235
  762THF    H1312256   0.331   2.518   0.435 -0.0449 -1.2710 -0.0631
  763THF     O112257   5.279   4.666   3.844  0.2010  0.7577 -0.3411
  763THF     C212258   5.259   4.576   3.958  0.4216 -0.2425 -0.5618
  763THF     C312259   5.415   4.709   3.854  0.0432  0.2514  0.2398
  763THF     H412260   5.178   4.507   3.935 -0.1030 -0.1573  0.9607
  763THF     H512261   5.225   4.639   4.040 -1.4016 -1.4289 -0.3366
  763THF     H612262   5.449   4.753   3.760 -0.8828  0.4312 -0.0241
  763THF     H712263   5.436   4.780   3.933  2.5055  1.5634 -1.4697
  763THF     C812264   5.489   4.580   3.880 -0.2628 -0.1084 -0.6474
  763THF     C912265   5.392   4.513   3.983 -0.2060 -0.9861  0.0228
  763THF    H1012266   5.589   4.592   3.922  0.3655 -1.5450 -1.6372
  763THF    H1112267   5.498   4.528   3.785  1.5188 -1.5951  0.2638
  763THF    H1212268   5.385   4.406   3.962 -1.8381 -0.9045  0.0460
  763THF    H1312269   5.434   4.524   4.083  0.6765 -0.6836 -0.3682
  764THF     O112270   1.250   3.166   1.377  0.2315  0.0339  0.0478
  764THF     C212271   1.260   3.037   1.436  0.4769  0.8083 -0.0804
  764THF     C312272   1.146   3.227   1.446  1.1577 -0.5815 -0.0529
  764THF     H412273   1.348   2.976   1.414  0.7780  0.8848  0.8688
  764THF     H512274   1.177   2.978   1.396  0.0352  1.3790 -0.0209
  764THF     H612275   1.159   3.335   1.438  3.3757 -0.8179 -0.0868
  764THF     H712276   1.054   3.197   1.395  0.0096  3.7296 -0.9391
  764THF     C812277   1.160   3.180   1.592  0.0989 -0.0383 -0.5221
  764THF     C912278   1.244   3.055   1.581  0.0728 -1.1190  0.0737
  764THF    H1012279   1.065   3.157   1.642  0.4837 -1.4613 -0.3920
  764THF    H1112280   1.205   3.250   1.662 -0.6040  0.5329 -0.6246
  764THF    H1212281   1.337   3.079   1.633 -1.0110  2.4075  0.6371
  764THF    H1312282   1.198   2.967   1.625  0.9902 -1.6109  0.0703
  765THF     O112283   1.626   1.013   0.659 -0.2556  0.2901  0.5521
  765THF     C212284   1.675   0.943   0.542 -0.5881 -0.1989 -0.1941
  765THF     C312285   1.738   1.057   0.736 -0.2642 -0.0290 -1.0759
  765THF     H412286   1.725   1.008   0.469 -2.4547 -1.4690 -2.7565
  765THF     H512287   1.599   0.882   0.493 -0.9372 -1.1682  1.4740
  765THF     H612288   1.767   1.155   0.700  2.8373 -0.0166  1.0592
  765THF     H712289   1.705   1.064   0.840  1.9017 -1.5040 -0.1993
  765THF     C812290   1.844   0.952   0.702 -0.1621  0.8587 -0.3792
  765THF     C912291   1.782   0.863   0.596  0.2054 -0.8938 -1.1226
  765THF    H1012292   1.883   0.893   0.785  0.0621  1.0928 -0.3183
  765THF    H1112293   1.939   0.980   0.656  2.7062 -2.9603  2.5709
  765THF    H1212294   1.842   0.839   0.508 -0.2776  1.2244 -2.0699
  765THF    H1312295   1.753   0.765   0.635  0.5097 -0.5675 -0.0213
  766THF     O112296   1.031   3.712   3.247 -0.5101  0.0434 -0.2475
  766THF     C212297   1.033   3.595   3.323 -0.0385 -0.3316  0.3445
  766THF     C312298   1.038   3.668   3.116 -0.4241  0.5803 -0.5167
  766THF     H412299   1.013   3.591   3.430 -1.4688  1.3530  0.1770
  766THF     H512300   1.131   3.551   3.304 -0.0008  0.0315 -0.3192
  766THF     H612301   1.010   3.738   3.037 -0.8240 -1.1615 -1.9901
  766THF     H712302   1.141   3.647   3.088 -0.7475 -0.2059 -1.1353
  766THF     C812303   0.953   3.542   3.103  0.6179 -0.4295 -0.1878
  766THF     C912304   0.938   3.504   3.254  0.4119 -0.8212  0.1819
  766THF    H1012305   1.000   3.471   3.035 -0.6273  0.0952 -1.6504
  766THF    H1112306   0.859   3.563   3.052  0.7946  1.9342  0.3115
  766THF    H1212307   0.836   3.533   3.277  0.6198 -1.3609  1.9287
  766THF    H1312308   0.945   3.400   3.288  0.8302 -1.3080 -1.2825
  767THF     O112309   1.442   4.440   4.491 -0.0267 -0.2383 -0.3004
  767THF     C212310   1.415   4.307   4.534 -0.0015 -0.3546  0.1453
  767THF     C312311   1.585   4.452   4.463  0.2415  0.8154 -0.0740
  767THF     H412312   1.362   4.256   4.454 -0.8872  0.7729 -0.0126
  767THF     H512313   1.345   4.305   4.618  0.3317 -0.3248  0.4263
  767THF     H612314   1.604   4.500   4.367  1.0261 -1.9049 -1.3891
  767THF     H712315   1.628   4.512   4.544 -0.3605 -0.3861  1.1731
  767THF     C812316   1.644   4.315   4.471  0.6586  0.5370  0.8999
  767THF     C912317   1.550   4.248   4.573  0.2928  0.1032  0.7905
  767THF    H1012318   1.746   4.321   4.508  0.0438  2.1552  2.4716
  767THF    H1112319   1.637   4.272   4.371  0.1902  0.8896  0.7759
  767THF    H1212320   1.548   4.139   4.571 -0.5079  0.1172  0.5851
  767THF    H1312321   1.581   4.285   4.671  1.4122  1.6827 -0.1226
  768THF     O112322   5.052   2.504   4.494  0.2600  0.5417  0.3757
  768THF     C212323   5.188   2.526   4.514 -0.1795  0.2292 -0.1809
  768THF     C312324   5.000   2.424   4.604  0.0368  0.2017  0.5472
  768THF     H412325   5.211   2.612   4.576  1.3619  1.5058 -2.4067
  768THF     H512326   5.219   2.559   4.415  1.8503  1.4128  0.7904
  768THF     H612327   4.988   2.483   4.695  0.9866  1.1114  0.1104
  768THF     H712328   4.911   2.372   4.569  0.4741 -0.9715  1.1026
  768THF     C812329   5.114   2.321   4.611  0.4221  0.3048 -0.5960
  768THF     C912330   5.239   2.392   4.563 -0.2082 -0.2271 -0.1652
  768THF    H1012331   5.087   2.236   4.550 -1.9863  0.2204  0.4447
  768THF    H1112332   5.116   2.260   4.701 -1.8272  0.5204 -0.3324
  768THF    H1212333   5.310   2.405   4.644  0.6825  2.2340 -1.2526
  768THF    H1312334   5.292   2.331   4.489 -0.1005 -0.3626  0.0219
  769THF     O112335   3.429   0.740   1.951 -0.4480 -0.0291  0.3937
  769THF     C212336   3.461   0.858   2.029  0.1608  0.0041  0.0936
  769THF     C312337   3.287   0.734   1.949 -0.5512 -0.0009 -0.2278
  769THF     H412338   3.559   0.904   2.011  0.0979 -0.4639 -1.6786
  769THF     H512339   3.456   0.844   2.137  1.2667  2.2395  0.4961
  769THF     H612340   3.252   0.693   1.854  0.6664 -2.1043  0.1718
  769THF     H712341   3.257   0.659   2.022  1.1251  0.3911  0.9388
  769THF     C812342   3.229   0.868   1.985  0.2720  0.1548  0.0117
  769THF     C912343   3.357   0.958   1.992  0.3289 -0.9940  0.8452
  769THF    H1012344   3.184   0.862   2.084  0.7546 -2.4368  0.1616
  769THF    H1112345   3.170   0.908   1.903  2.9052  1.9923 -1.1201
  769THF    H1212346   3.389   0.994   1.895  0.6642 -0.5429  1.1210
  769THF    H1312347   3.352   1.045   2.057  2.1332  1.4984 -2.0978
  770THF     O112348   0.065   5.404   3.099  0.0547 -0.2749 -0.1692
  770THF     C212349   0.150   5.502   3.042  0.0405 -0.0345  0.0221
  770THF     C312350   0.142   5.324   3.184  0.0702 -0.6019  0.2439
  770THF     H412351   0.121   5.605   3.059  1.2468  0.3398 -0.1022
  770THF     H512352   0.128   5.482   2.937  0.8674  1.6672 -0.5133
  770THF     H612353   0.146   5.375   3.281  0.5902 -0.1434 -0.0166
  770THF     H712354   0.100   5.226   3.207 -0.8644 -0.6055 -1.3557
  770THF     C812355   0.273   5.314   3.111  1.2972 -1.0658  0.2613
  770THF     C912356   0.290   5.460   3.071 -0.9535  0.7046  0.2864
  770THF    H1012357   0.254   5.261   3.017 -0.0932  0.8940 -0.6465
  770THF    H1112358   0.352   5.271   3.170  1.3691 -2.8535 -1.0623
  770THF    H1212359   0.339   5.513   3.153  0.8429 -1.3938  0.6883
  770THF    H1312360   0.348   5.468   2.978  1.4079  2.4046  1.7828
  771THF     O112361   2.727   0.233   1.088  0.2147  0.0119  0.7482
  771THF     C212362   2.661   0.274   1.207  0.2031  0.8705  0.3988
  771THF     C312363   2.842   0.156   1.120 -0.0234  0.1375  0.2725
  771THF     H412364   2.599   0.198   1.254  0.1174 -0.4989 -1.7864
  771THF     H512365   2.601   0.360   1.177 -0.1788 -0.2212 -2.1502
  771THF     H612366   2.805   0.055   1.138 -1.3247  0.4776 -0.3700
  771THF     H712367   2.930   0.145   1.056 -0.7997 -0.6786 -0.6960
  771THF     C812368   2.899   0.217   1.248  0.7519 -0.5386  0.0167
  771THF     C912369   2.783   0.308   1.298  0.2441  0.5700 -0.3093
  771THF    H1012370   2.982   0.280   1.217  0.6329 -0.4995 -0.2196
  771THF    H1112371   2.928   0.136   1.316 -1.2645  0.3325  2.0660
  771THF    H1212372   2.761   0.302   1.405 -0.6298  0.8316 -0.4647
  771THF    H1312373   2.812   0.411   1.281 -0.5767  1.5871  3.4074
  772THF     O112374   4.273   3.885   2.896  0.0451 -0.1251 -0.0214
  772THF     C212375   4.321   3.948   3.015  0.6251  0.0107  0.4500
  772THF     C312376   4.290   3.742   2.915 -0.0859  0.2333 -0.2306
  772THF     H412377   4.235   4.007   3.047  0.5425 -0.6975  1.5859
  772THF     H512378   4.409   4.010   2.998  0.6248 -0.1906 -0.3349
  772THF     H612379   4.187   3.713   2.937  0.1777  0.6019  1.6581
  772THF     H712380   4.309   3.685   2.825  0.3792 -1.5341  0.9483
  772THF     C812381   4.374   3.718   3.040 -0.2515 -0.2464 -0.7148
  772THF     C912382   4.336   3.844   3.119 -0.5702  0.0098  0.5818
  772THF    H1012383   4.474   3.721   2.996 -0.2275  3.2487 -0.7275
  772THF    H1112384   4.354   3.630   3.100  0.7230  0.0665  0.0959
  772THF    H1212385   4.240   3.815   3.163 -0.5982 -1.8631 -0.6128
  772THF    H1312386   4.411   3.881   3.188  0.0935  0.6368 -0.4479
  773THF     O112387   5.455   1.757   1.086 -0.0506 -0.4758 -0.1799
  773THF     C212388   5.399   1.754   1.217 -0.1840 -0.4485  0.3536
  773THF     C312389   5.466   1.892   1.049  0.3354 -0.9153  0.1545
  773THF     H412390   5.481   1.762   1.289  0.2562 -1.9852  0.0460
  773THF     H512391   5.346   1.660   1.232 -0.6906 -0.2696 -0.2545
  773THF     H612392   5.555   1.937   1.093  0.3821  0.5890 -1.3685
  773THF     H712393   5.477   1.904   0.941 -0.1980 -0.0759  0.1819
  773THF     C812394   5.332   1.942   1.096  0.1859  0.3346 -0.2512
  773THF     C912395   5.309   1.875   1.226  0.7452  0.2725 -0.0898
  773THF    H1012396   5.266   1.901   1.021  0.1307 -0.5960  0.2959
  773THF    H1112397   5.325   2.051   1.091  0.1278  0.3379 -0.1089
  773THF    H1212398   5.347   1.929   1.313  0.6735  0.9188 -0.4501
  773THF    H1312399   5.206   1.852   1.254  0.5784  0.6286 -0.4015
  774THF     O112400   0.552   0.168   1.181 -0.1348 -0.2243 -0.4288
  774THF     C212401   0.686   0.188   1.220  0.7711  0.1832 -0.0100
  774THF     C312402   0.506   0.288   1.143 -0.5772 -0.3978  0.4173
  774THF     H412403   0.733   0.090   1.234 -0.6582 -0.5070  0.1800
  774THF     H512404   0.686   0.241   1.316 -1.0342  1.2479 -0.5603
  774THF     H612405   0.416   0.288   1.082  0.1409  1.4228 -0.7408
  774THF     H712406   0.491   0.360   1.223 -1.9212 -0.4768  0.2527
  774THF     C812407   0.626   0.354   1.061 -0.0142  0.1803 -0.0384
  774THF     C912408   0.747   0.273   1.112  0.3710 -0.4654 -0.1968
  774THF    H1012409   0.628   0.463   1.067  1.9641  0.1692  0.2064
  774THF    H1112410   0.612   0.321   0.958 -1.0989 -0.8468  0.4295
  774THF    H1212411   0.788   0.207   1.035 -2.0989  1.0552 -3.0230
  774THF    H1312412   0.825   0.340   1.149  1.3294 -1.7096  0.1125
  775THF     O112413   5.300   2.401   0.044 -0.6787 -0.3000 -0.1051
  775THF     C212414   5.185   2.453  -0.015  0.1347 -0.2292 -0.5296
  775THF     C312415   5.409   2.444  -0.034  0.0134  0.0414  0.5190
  775THF     H412416   5.107   2.449   0.060  2.1412 -1.1917  1.6446
  775THF     H512417   5.153   2.392  -0.100  0.9278  0.8864 -1.6695
  775THF     H612418   5.495   2.444   0.033  1.2754  0.9887 -1.0276
  775THF     H712419   5.434   2.375  -0.116  0.5644 -2.1449  2.4197
  775THF     C812420   5.373   2.586  -0.086 -0.3667 -0.0096 -0.3928
  775THF     C912421   5.224   2.594  -0.058 -0.6229  0.2870 -0.4272
  775THF    H1012422   5.397   2.600  -0.192 -1.9448 -2.3146 -1.1394
  775THF    H1112423   5.420   2.661  -0.024 -1.2734  0.9393 -0.8194
  775THF    H1212424   5.202   2.670   0.016 -1.4864 -2.8689  2.8510
  775THF    H1312425   5.171   2.621  -0.150 -0.3629  1.2733 -0.2981
  776THF     O112426   4.057   5.325   3.369  0.0946  0.3988  0.2294
  776THF     C212427   3.998   5.415   3.277 -0.6131 -0.1148 -0.7365
  776THF     C312428   4.146   5.242   3.293  0.0542 -0.2175  0.4677
  776THF     H412429   3.953   5.502   3.325  0.7532  1.2011 -1.7119
  776THF     H512430   3.920   5.370   3.216 -1.3840 -1.5034  1.2193
  776THF     H612431   4.220   5.194   3.358 -0.4259 -0.1117  1.0968
  776THF     H712432   4.088   5.174   3.231 -0.7024 -0.2809  1.2309
  776THF     C812433   4.213   5.344   3.205 -0.0683  0.3225  0.3494
  776THF     C912434   4.118   5.457   3.196  0.0895 -0.1005  0.5707
  776THF    H1012435   4.214   5.300   3.105  1.2504 -0.0488  0.5147
  776THF    H1112436   4.313   5.367   3.240  0.3718  1.0650 -1.2703
  776THF    H1212437   4.175   5.542   3.234 -0.7054  0.0074  1.5529
  776THF    H1312438   4.092   5.484   3.094  1.4966 -2.1686 -0.4151
  777THF     O112439   3.286   4.498   1.534 -0.8893 -0.0558  0.7858
  777THF     C212440   3.174   4.581   1.498  0.5077 -0.2159 -0.5235
  777THF     C312441   3.315   4.501   1.678  0.6276 -0.8569 -0.0878
  777THF     H412442   3.113   4.554   1.412 -2.0286 -0.2118  1.1436
  777THF     H512443   3.212   4.682   1.480 -1.7864  0.9799  0.8564
  777THF     H612444   3.312   4.399   1.716  0.9338 -1.1491 -0.8352
  777THF     H712445   3.415   4.541   1.700  1.5688 -2.9260 -0.4111
  777THF     C812446   3.204   4.583   1.738 -0.2800  0.5813  0.1563
  777THF     C912447   3.097   4.594   1.630 -0.2640  0.5562 -0.3796
  777THF    H1012448   3.245   4.683   1.753 -0.7002  1.1749 -2.2439
  777THF    H1112449   3.160   4.548   1.831 -4.1531  0.4754 -1.5475
  777THF    H1212450   3.017   4.520   1.638  0.1350  0.1469 -0.1388
  777THF    H1312451   3.045   4.690   1.638  1.0962  1.1811  1.7693
  778THF     O112452   0.423   3.991   1.478 -0.0571  0.3448 -0.1271
  778THF     C212453   0.412   3.884   1.389 -0.7081  0.6585  0.8277
  778THF     C312454   0.537   3.947   1.557 -0.5019 -0.5648 -0.3427
  778THF     H412455   0.352   3.902   1.299  0.6813  0.1772 -0.2353
  778THF     H512456   0.373   3.793   1.432  0.3452  0.7076  1.9427
  778THF     H612457   0.583   4.034   1.603 -0.1094 -1.1787  0.4524
  778THF     H712458   0.498   3.880   1.633  1.2668 -1.7510 -0.4164
  778THF     C812459   0.639   3.884   1.462  0.1709 -0.2249 -0.1526
  778THF     C912460   0.553   3.857   1.341  0.5860 -0.6996 -0.1024
  778THF    H1012461   0.674   3.797   1.518 -0.7696 -0.6783 -0.2490
  778THF    H1112462   0.733   3.937   1.447  0.7002 -0.2280  2.5298
  778THF    H1212463   0.576   3.931   1.264 -1.7407  0.9547  0.6877
  778THF    H1312464   0.578   3.758   1.304 -0.5422 -1.6861  1.6529
  779THF     O112465   0.294   4.876   0.089 -0.0690  0.1387 -0.1589
  779THF     C212466   0.250   4.777   0.185  0.8641  0.0973 -0.0975
  779THF     C312467   0.280   4.826  -0.046 -0.5034  0.3119 -0.0904
  779THF     H412468   0.160   4.822   0.227 -1.0866 -1.6737 -2.0986
  779THF     H512469   0.333   4.753   0.251 -0.0095 -1.7673  0.4056
  779THF     H612470   0.242   4.902  -0.115 -0.8194  0.7018  0.5043
  779THF     H712471   0.380   4.808  -0.085 -0.9564  0.9390 -1.6292
  779THF     C812472   0.196   4.696  -0.029  0.5444 -0.6921  0.5859
  779THF     C912473   0.209   4.651   0.116 -0.2888  0.6630 -0.2121
  779THF    H1012474   0.225   4.617  -0.100  1.5724  1.3407 -1.3971
  779THF    H1112475   0.092   4.719  -0.048  1.2354  0.8569 -1.9472
  779THF    H1212476   0.122   4.593   0.147  1.9072 -2.1401  1.1674
  779THF    H1312477   0.289   4.577   0.112 -0.1297  0.5431  3.0044
  780THF     O112478   3.114   3.252   5.204  0.4962  0.2648 -0.5154
  780THF     C212479   3.160   3.113   5.189  0.0463 -0.9300  0.3864
  780THF     C312480   3.164   3.335   5.096 -0.7684 -0.1298 -0.0172
  780THF     H412481   3.079   3.041   5.188 -1.7095  0.9611  0.5711
  780THF     H512482   3.211   3.082   5.280 -0.2479  0.5146  1.0610
  780THF     H612483   3.093   3.326   5.014  1.8386 -3.3389 -2.1743
  780THF     H712484   3.178   3.436   5.134  0.3574  0.1125 -1.0094
  780THF     C812485   3.298   3.268   5.055  0.3676 -0.0500  0.2103
  780THF     C912486   3.263   3.122   5.071  0.1117  0.3900 -0.6282
  780THF    H1012487   3.373   3.300   5.128  0.0093 -0.8708  0.9603
  780THF    H1112488   3.317   3.311   4.957 -1.3918  0.9241  0.2548
  780THF    H1212489   3.204   3.093   4.984 -0.9208  0.7855 -0.0806
  780THF    H1312490   3.345   3.051   5.080 -1.8440 -2.0667 -0.7311
  781THF     O112491   4.110   3.811   1.128  0.3795  0.1143  0.1381
  781THF     C212492   4.032   3.706   1.178  0.1119  0.3031 -0.0967
  781THF     C312493   4.202   3.844   1.223  0.1269 -0.1437  0.5180
  781THF     H412494   3.968   3.660   1.103 -1.1443  1.3161  0.3246
  781THF     H512495   3.964   3.747   1.253  0.8093  0.4827  0.4547
  781THF     H612496   4.282   3.907   1.185  1.4294 -2.3391 -0.5631
  781THF     H712497   4.142   3.902   1.293 -1.6116  0.8720 -1.6779
  781THF     C812498   4.253   3.705   1.263  0.1585  0.1750 -0.0500
  781THF     C912499   4.135   3.615   1.250 -0.1494  0.0699  0.2822
  781THF    H1012500   4.317   3.713   1.352  1.5632  1.6124 -1.1350
  781THF    H1112501   4.312   3.687   1.173 -1.1245 -1.2767 -0.6284
  781THF    H1212502   4.162   3.536   1.179 -1.4873 -0.0796 -0.0856
  781THF    H1312503   4.102   3.578   1.347 -2.2560 -0.7352 -0.6950
  782THF     O112504   4.287   1.297   3.636 -0.4986  0.3753 -0.5654
  782THF     C212505   4.297   1.407   3.550 -0.0264 -0.2862  0.0745
  782THF     C312506   4.220   1.193   3.567  0.9206 -0.1928 -0.1814
  782THF     H412507   4.389   1.406   3.492 -0.1845 -0.7382 -0.1746
  782THF     H512508   4.281   1.501   3.603  1.7146 -0.1263  0.3566
  782THF     H612509   4.295   1.150   3.501  1.3206 -1.6424  1.1600
  782THF     H712510   4.189   1.115   3.636 -0.5779 -0.2218 -0.8567
  782THF     C812511   4.101   1.264   3.505 -0.5246 -0.3017 -0.0629
  782THF     C912512   4.177   1.386   3.448 -0.2130 -0.2708 -0.2245
  782THF    H1012513   4.035   1.298   3.585  0.0760 -2.1005  1.2680
  782THF    H1112514   4.051   1.199   3.433 -0.8299  1.7039 -1.7652
  782THF    H1212515   4.200   1.355   3.346 -3.5063 -0.4275 -1.0085
  782THF    H1312516   4.108   1.469   3.440  0.4151  0.6291  2.5541
  783THF     O112517   1.278   3.837   2.475  0.4745 -0.1714 -0.0187
  783THF     C212518   1.195   3.863   2.357 -0.1882  0.5654  0.4702
  783THF     C312519   1.373   3.741   2.448 -0.2823 -0.2931  0.1753
  783THF     H412520   1.199   3.970   2.334  0.3829  0.2408 -1.0541
  783THF     H512521   1.088   3.844   2.365 -0.6716  2.5290 -0.5480
  783THF     H612522   1.460   3.748   2.513  0.2646  0.8967 -0.6528
  783THF     H712523   1.323   3.645   2.465 -3.9579  1.3128 -0.4035
  783THF     C812524   1.398   3.760   2.301 -0.4422  0.1248 -0.1840
  783THF     C912525   1.258   3.769   2.250 -0.1660  0.4380 -0.0306
  783THF    H1012526   1.459   3.684   2.253 -1.4081 -0.2995 -0.7485
  783THF    H1112527   1.454   3.853   2.297 -1.0858  0.4711 -1.8636
  783THF    H1212528   1.245   3.829   2.160 -1.5796  1.8282  1.0539
  783THF    H1312529   1.219   3.669   2.236 -0.9245  0.4479  1.8193
  784THF     O112530   4.992   0.190   3.517 -0.5641  0.1786  0.2204
  784THF     C212531   4.879   0.242   3.599  0.0367  0.2865  0.1877
  784THF     C312532   5.116   0.227   3.580 -0.3038 -0.5509  0.5172
  784THF     H412533   4.781   0.201   3.573  0.4060  0.2984 -1.3364
  784THF     H512534   4.881   0.347   3.571  1.7974  0.7967  2.0680
  784THF     H612535   5.181   0.141   3.566 -0.7655 -0.8967  0.4797
  784THF     H712536   5.168   0.312   3.536  2.0048 -1.2425  1.7183
  784THF     C812537   5.079   0.245   3.728 -0.6958  0.2451  0.4416
  784THF     C912538   4.936   0.198   3.736  0.1966  0.4448 -0.4641
  784THF    H1012539   5.092   0.349   3.758  2.6772 -0.2632  1.1081
  784THF    H1112540   5.146   0.188   3.792 -0.6122 -1.5395 -1.1323
  784THF    H1212541   4.929   0.089   3.738 -3.5224  0.5463 -0.8617
  784THF    H1312542   4.884   0.242   3.821  1.1197 -1.2731  1.0610
  785THF     O112543   2.665   2.026   3.658  0.1087 -0.4219 -0.1694
  785THF     C212544   2.531   2.080   3.641 -0.5829 -0.2263  0.0857
  785THF     C312545   2.749   2.146   3.680  0.6482  0.4071  0.2729
  785THF     H412546   2.481   2.086   3.738  0.9724 -3.4698  1.2461
  785THF     H512547   2.477   2.012   3.575 -0.4479 -0.9962  0.7476
  785THF     H612548   2.771   2.159   3.786 -0.7796  2.8235  0.3524
  785THF     H712549   2.845   2.142   3.629  1.1741  2.4754  0.9792
  785THF     C812550   2.668   2.275   3.659  0.3486  0.9822  0.0688
  785THF     C912551   2.541   2.229   3.587  0.0668  0.1110 -0.5239
  785THF    H1012552   2.717   2.344   3.590  0.7622  0.6812  0.0578
  785THF    H1112553   2.636   2.331   3.747  0.0059  1.2871 -0.2450
  785THF    H1212554   2.450   2.284   3.611  1.8765  1.5232  4.4716
  785THF    H1312555   2.565   2.230   3.481 -0.0236 -0.7313 -0.5654
  786THF     O112556   1.409   3.628   1.751  0.1309  0.1057  0.2216
  786THF     C212557   1.443   3.596   1.890 -0.3016  0.4116 -0.0454
  786THF     C312558   1.457   3.520   1.673  0.2946 -0.0443  0.3024
  786THF     H412559   1.377   3.518   1.927  1.0363 -1.7637 -2.0018
  786THF     H512560   1.434   3.675   1.965  0.0069  1.2118 -0.8249
  786THF     H612561   1.392   3.433   1.672 -1.9253  1.5150  1.2530
  786THF     H712562   1.486   3.533   1.569 -1.4273 -0.6241 -0.2873
  786THF     C812563   1.581   3.476   1.758 -0.5623 -0.2940 -0.3374
  786THF     C912564   1.587   3.553   1.886  0.8826  0.1921  0.9169
  786THF    H1012565   1.680   3.491   1.715  0.1359  2.4420  1.9515
  786THF    H1112566   1.572   3.370   1.781 -1.6003 -0.2121 -0.3142
  786THF    H1212567   1.616   3.492   1.972 -0.4046  0.7817  1.8084
  786THF    H1312568   1.655   3.638   1.890  0.5022  0.6821 -1.4588
  787THF     O112569   1.585   2.773   2.619 -0.6807  0.3355  0.1615
  787THF     C212570   1.659   2.888   2.659 -0.6390  0.0494  0.4803
  787THF     C312571   1.663   2.698   2.527  0.3239  0.0046 -0.1313
  787THF     H412572   1.730   2.870   2.741  0.7374  1.4145 -0.3678
  787THF     H512573   1.593   2.969   2.689  1.6756  1.5032  1.9731
  787THF     H612574   1.740   2.648   2.585  0.8954  0.4463 -0.4892
  787THF     H712575   1.599   2.632   2.468 -0.0376 -0.3025  0.6009
  787THF     C812576   1.736   2.806   2.441 -0.1927 -0.5267 -0.4867
  787THF     C912577   1.740   2.925   2.531  0.3995  0.5330 -0.4109
  787THF    H1012578   1.687   2.830   2.346  0.4786 -0.7277 -0.8882
  787THF    H1112579   1.835   2.767   2.419 -0.1357  0.5653 -2.4605
  787THF    H1212580   1.840   2.955   2.560  0.9879 -1.9257  0.3434
  787THF    H1312581   1.704   3.009   2.472 -0.0408  0.2513 -0.5488
  788THF     O112582   5.427   1.104   5.017 -0.1278  0.1164  0.2074
  788THF     C212583   5.549   1.065   5.082  1.0164 -0.2084  0.5479
  788THF     C312584   5.333   1.006   5.057 -0.1590 -0.3839 -0.4017
  788THF     H412585   5.576   1.137   5.159  0.4084 -1.4146  1.9284
  788THF     H512586   5.619   1.073   4.999 -0.6927  0.1703 -0.9368
  788THF     H612587   5.232   1.046   5.073 -0.8613 -2.9022  2.3381
  788THF     H712588   5.315   0.940   4.972 -4.6077  0.4844 -0.3774
  788THF     C812589   5.391   0.921   5.165 -0.9325 -0.0546  0.1369
  788THF     C912590   5.534   0.923   5.130  0.1627 -0.1072  0.0213
  788THF    H1012591   5.342   0.823   5.164 -0.8451 -0.1470  1.9743
  788THF    H1112592   5.377   0.958   5.267 -3.8197 -0.1051 -0.1470
  788THF    H1212593   5.598   0.909   5.217  0.5032 -0.0117 -0.2148
  788THF    H1312594   5.564   0.848   5.057  3.9256  1.3197 -0.1256
  789THF     O112595   1.825   0.411   0.420  0.0727  0.4038  0.2075
  789THF     C212596   1.685   0.367   0.390  0.0653 -0.0995  0.3679
  789THF     C312597   1.902   0.418   0.299  0.3240 -0.3286  0.2063
  789THF     H412598   1.627   0.453   0.354  0.7812 -0.1437 -0.9550
  789THF     H512599   1.646   0.318   0.478 -0.3174  0.9444  0.7967
  789THF     H612600   1.918   0.521   0.268 -0.9959 -0.8125 -2.3492
  789THF     H712601   1.997   0.367   0.316  0.0866 -1.5039 -1.6896
  789THF     C812602   1.822   0.342   0.193  0.2653 -0.1295 -0.2488
  789THF     C912603   1.705   0.283   0.267  0.7310  0.7270 -0.0075
  789THF    H1012604   1.870   0.264   0.134  0.7095 -0.5996  0.7082
  789THF    H1112605   1.791   0.410   0.114 -0.1015 -0.1914 -0.1607
  789THF    H1212606   1.617   0.291   0.203 -0.2484 -2.0171  0.8332
  789THF    H1312607   1.717   0.179   0.296  0.5176  0.4961 -0.7205
  790THF     O112608   0.408   1.842   1.446  0.6823 -0.9085  0.4895
  790THF     C212609   0.522   1.832   1.374  0.3249  0.8472 -0.6262
  790THF     C312610   0.297   1.820   1.359 -0.7394  0.4900 -0.2550
  790THF     H412611   0.541   1.725   1.368 -1.4737  0.3548  1.2798
  790THF     H512612   0.614   1.871   1.420  0.7474 -1.7396  0.9376
  790THF     H612613   0.271   1.714   1.355  0.7711  0.0569  0.6269
  790THF     H712614   0.205   1.862   1.400  0.0791  1.0470  1.0627
  790THF     C812615   0.327   1.889   1.232  0.5549  0.0875  0.2566
  790THF     C912616   0.480   1.889   1.235  0.1712  0.3281  0.0699
  790THF    H1012617   0.295   1.993   1.236  0.5860  0.0877  0.5356
  790THF    H1112618   0.283   1.851   1.140  0.5785  1.3881 -0.3183
  790THF    H1212619   0.532   1.835   1.156  0.3806 -0.6327  0.8420
  790THF    H1312620   0.511   1.993   1.227  1.7880 -0.1604 -0.4844
  791THF     O112621   3.688   1.410   0.159  0.0437 -0.3295 -0.6885
  791THF     C212622   3.648   1.456   0.290  0.6184 -0.5400 -0.1978
  791THF     C312623   3.633   1.502   0.067  0.3694  0.5830 -0.6405
  791THF     H412624   3.709   1.409   0.367 -0.4344 -1.6534 -0.0098
  791THF     H512625   3.541   1.433   0.294  0.2679  1.0176  0.1980
  791THF     H612626   3.664   1.487  -0.036 -0.6070 -0.6408 -0.7716
  791THF     H712627   3.524   1.499   0.064  0.2724  0.8355  1.1730
  791THF     C812628   3.662   1.632   0.137 -0.8014  0.0346  0.1037
  791THF     C912629   3.668   1.612   0.289  0.3299  0.1629  0.6604
  791THF    H1012630   3.588   1.701   0.096 -1.9334 -2.6143 -2.6450
  791THF    H1112631   3.760   1.666   0.106 -0.0401 -1.2998  0.9523
  791THF    H1212632   3.761   1.654   0.327 -0.6137  1.4314  1.6556
  791THF    H1312633   3.592   1.675   0.335 -0.6252  1.5556 -2.5097
  792THF     O112634   3.116   4.846   0.051  0.2088 -0.2759 -0.7736
  792THF     C212635   3.141   4.887   0.183 -0.4164 -0.3554  0.5791
  792THF     C312636   2.976   4.861   0.031  0.0037  0.2066 -0.3326
  792THF     H412637   3.135   4.996   0.189  2.7950 -0.1381  1.8034
  792THF     H512638   3.237   4.844   0.213  1.0174  1.2897 -1.3490
  792THF     H612639   2.950   4.927  -0.052  0.9337  1.1420  0.1007
  792THF     H712640   2.943   4.763  -0.006  0.0865 -0.0040  0.1446
  792THF     C812641   2.899   4.860   0.161 -0.9157 -0.3468 -0.2419
  792THF     C912642   3.022   4.826   0.256 -0.0842 -0.2707 -0.5533
  792THF    H1012643   2.821   4.784   0.156 -1.4401  0.1338  0.4339
  792THF    H1112644   2.858   4.957   0.190 -1.6427 -0.2594 -1.4868
  792THF    H1212645   3.012   4.864   0.358 -2.3509 -2.4721  0.1404
  792THF    H1312646   3.030   4.717   0.258  0.3813 -0.2688  1.9092
  793THF     O112647   2.939   4.015   4.783 -0.2751 -0.0818 -0.2470
  793THF     C212648   3.002   4.132   4.735  0.4594  1.6393  0.2178
  793THF     C312649   3.030   3.908   4.784 -0.3171 -0.2736  0.2983
  793THF     H412650   2.946   4.217   4.776 -0.4021  1.1253  0.1464
  793THF     H512651   3.006   4.141   4.627 -1.3240 -0.1399 -0.0509
  793THF     H612652   2.999   3.820   4.840 -0.3713  0.9940  2.3338
  793THF     H712653   3.060   3.877   4.683  0.3644  2.5100 -0.4354
  793THF     C812654   3.153   3.981   4.840 -0.1303  0.2850 -0.1968
  793THF     C912655   3.149   4.119   4.784  0.8656  0.6736 -0.0749
  793THF    H1012656   3.244   3.927   4.816 -0.5109  0.2196 -1.6035
  793THF    H1112657   3.139   3.993   4.947  0.5718 -1.2898  0.0969
  793THF    H1212658   3.171   4.185   4.868  0.4854  0.6696  0.0312
  793THF    H1312659   3.222   4.126   4.704  0.2849 -1.1758 -0.8176
  794THF     O112660   5.052   4.852   3.964 -0.1387 -0.8093  0.0132
  794THF     C212661   5.002   4.976   3.956  0.3732 -0.3997  0.4908
  794THF     C312662   4.996   4.778   3.859 -0.3352  0.3739 -0.3623
  794THF     H412663   5.053   5.037   3.881 -1.1963 -0.2277 -0.4893
  794THF     H512664   5.001   5.031   4.050  0.2314  0.7273 -0.1488
  794THF     H612665   5.060   4.772   3.771 -0.5456  1.6316 -0.6294
  794THF     H712666   4.984   4.674   3.890 -0.3613  0.7740  1.0790
  794THF     C812667   4.860   4.830   3.835 -0.0153 -0.1614  0.6876
  794THF     C912668   4.856   4.954   3.915 -0.1531  0.3596  0.4461
  794THF    H1012669   4.787   4.751   3.855  0.1935 -0.9594 -1.4294
  794THF    H1112670   4.861   4.852   3.728  0.8974 -1.3352  0.4347
  794THF    H1212671   4.804   5.036   3.865 -0.8620 -0.2079  0.2387
  794THF    H1312672   4.803   4.933   4.008  0.2089 -1.1639  0.3331
  795THF     O112673   3.375   1.291   4.490  0.4063 -0.3081  0.0989
  795THF     C212674   3.492   1.215   4.463 -0.2367 -0.3458 -0.4960
  795THF     C312675   3.278   1.256   4.387 -0.4527 -0.0384 -0.1087
  795THF     H412676   3.480   1.112   4.496  0.2550 -0.5697 -0.9982
  795THF     H512677   3.585   1.251   4.507 -0.2432 -0.9086 -0.0101
  795THF     H612678   3.246   1.153   4.402 -0.2904  0.0256  0.7596
  795THF     H712679   3.193   1.324   4.390  0.7818  1.6618 -1.4917
  795THF     C812680   3.353   1.259   4.265 -0.1969 -0.7981 -0.3534
  795THF     C912681   3.497   1.234   4.309 -0.5587 -0.1139  0.2558
  795THF    H1012682   3.347   1.352   4.210  1.5811 -0.0522  0.6366
  795THF    H1112683   3.323   1.178   4.198 -1.7568 -1.1812  0.7530
  795THF    H1212684   3.546   1.150   4.261 -0.1560  0.0613  0.3535
  795THF    H1312685   3.551   1.324   4.279 -0.6270 -0.5928 -1.3683
  796THF     O112686   4.786   5.038   0.873  0.0484 -0.1899 -0.1172
  796THF     C212687   4.726   4.989   0.753 -0.0681  0.2536  0.2686
  796THF     C312688   4.890   4.944   0.907 -0.4979 -0.0155 -0.4864
  796THF     H412689   4.728   5.078   0.690 -1.6904 -0.0624 -0.2851
  796THF     H512690   4.620   4.967   0.769  0.3717 -0.4952  2.6733
  796THF     H612691   4.954   4.992   0.982 -1.1469 -0.9965  0.7424
  796THF     H712692   4.849   4.856   0.957  0.0417 -0.3116 -0.5560
  796THF     C812693   4.948   4.909   0.772 -0.4991 -0.1118  0.6255
  796THF     C912694   4.817   4.883   0.691 -0.1007 -0.2820 -0.0600
  796THF    H1012695   5.017   4.828   0.795  0.9848  1.2224  1.0521
  796THF    H1112696   4.996   4.992   0.721 -0.1115 -1.0361 -0.5525
  796THF    H1212697   4.827   4.904   0.584 -1.3340  1.2575  0.0912
  796THF    H1312698   4.779   4.781   0.703 -0.5964  0.0891  1.8100
  797THF     O112699   5.156   3.314   3.694 -0.2511  0.1052 -0.5460
  797THF     C212700   5.099   3.374   3.807 -0.3022  0.9296 -0.1821
  797THF     C312701   5.130   3.399   3.580 -0.0524 -0.0338  0.1379
  797THF     H412702   5.174   3.447   3.838  2.7207 -1.2410 -1.8051
  797THF     H512703   5.076   3.312   3.893 -1.5135 -0.2886 -1.3428
  797THF     H612704   5.195   3.486   3.576  2.2764 -1.5791  2.0229
  797THF     H712705   5.137   3.336   3.491 -1.1880  0.8840 -0.6338
  797THF     C812706   4.980   3.435   3.599 -0.1872 -0.4187  0.2670
  797THF     C912707   4.972   3.439   3.752 -0.3720  0.1033  0.0017
  797THF    H1012708   4.909   3.369   3.548 -0.4207  0.5245 -0.6567
  797THF    H1112709   4.983   3.532   3.550  0.9874  0.6340  2.3087
  797THF    H1212710   4.966   3.539   3.794 -1.9247  0.6258 -1.3500
  797THF    H1312711   4.883   3.384   3.785 -0.8505  1.2535  0.6881
  798THF     O112712   2.212   2.137   1.056 -0.0362 -0.1993  0.2512
  798THF     C212713   2.310   2.080   0.959  0.7728 -0.5805 -0.9482
  798THF     C312714   2.132   2.231   0.980 -0.0629 -0.3347  0.3730
  798THF     H412715   2.287   1.977   0.932  0.9888 -0.9502  0.2478
  798THF     H512716   2.411   2.081   0.999  1.3260 -1.6827 -2.2496
  798THF     H612717   2.025   2.232   1.003 -0.7603  0.0238 -2.4895
  798THF     H712718   2.168   2.329   1.012 -0.4548  0.1139 -0.5295
  798THF     C812719   2.154   2.207   0.829  0.3800 -0.1211 -0.1391
  798THF     C912720   2.297   2.157   0.826  0.3455 -0.9536 -0.5105
  798THF    H1012721   2.143   2.300   0.773  0.5661  0.2608  0.4472
  798THF    H1112722   2.087   2.131   0.788  0.0776  0.1667 -0.1850
  798THF    H1212723   2.315   2.092   0.740 -1.8616 -0.1011 -1.7126
  798THF    H1312724   2.364   2.243   0.829 -2.8362  1.7539  0.6101
  799THF     O112725   0.710   1.287   3.908 -0.1416 -0.4993 -0.4385
  799THF     C212726   0.638   1.167   3.936  0.2611  0.3313  0.1126
  799THF     C312727   0.707   1.305   3.768 -0.0708 -0.3619  0.1864
  799THF     H412728   0.530   1.180   3.940  0.3806  2.0424 -1.1775
  799THF     H512729   0.672   1.129   4.032 -2.1778 -0.8180  0.6056
  799THF     H612730   0.613   1.336   3.723  1.1844  0.2518 -2.1629
  799THF     H712731   0.786   1.369   3.729  1.6142 -1.5830  1.4321
  799THF     C812732   0.747   1.161   3.729  0.3498 -0.0416  0.2218
  799THF     C912733   0.681   1.063   3.825 -0.3785  0.0193 -0.5490
  799THF    H1012734   0.852   1.133   3.728  0.7024  1.1609  1.2801
  799THF    H1112735   0.719   1.129   3.628  1.4532 -1.8042  0.4344
  799THF    H1212736   0.596   1.019   3.773 -1.2039  0.7319  0.1736
  799THF    H1312737   0.744   0.982   3.864 -2.4697 -0.9260  1.0931
  800THF     O112738   2.678   2.606   2.624  0.1557 -0.0466 -0.3465
  800THF     C212739   2.553   2.583   2.678  0.9261  1.0714 -0.2351
  800THF     C312740   2.754   2.689   2.719 -0.4945  0.2173 -0.0024
  800THF     H412741   2.518   2.479   2.675 -0.1955  1.4276 -0.1010
  800THF     H512742   2.481   2.647   2.627 -0.1325  0.3370  0.2883
  800THF     H612743   2.860   2.669   2.712 -0.5852  0.2518 -2.5764
  800THF     H712744   2.751   2.795   2.694 -0.1325 -0.0098 -1.0889
  800THF     C812745   2.690   2.646   2.855 -0.1864  0.1105  0.3583
  800THF     C912746   2.550   2.616   2.827  0.5901 -0.3316 -0.1149
  800THF    H1012747   2.703   2.720   2.934 -0.5696  0.3061  0.2396
  800THF    H1112748   2.737   2.554   2.888 -1.0751 -0.9720 -1.2774
  800THF    H1212749   2.516   2.542   2.900  2.6580 -0.7734  0.4923
  800THF    H1312750   2.503   2.713   2.841 -1.7715 -1.3168 -0.7914
  801THF     O112751   0.224   1.400   4.571  0.3398 -0.1427 -0.3705
  801THF     C212752   0.108   1.483   4.571  0.5965  0.5460  0.3846
  801THF     C312753   0.333   1.450   4.650 -0.3981  0.2433 -0.4039
  801THF     H412754   0.030   1.447   4.639 -1.0189 -0.3298 -1.8312
  801THF     H512755   0.056   1.472   4.476  1.2193 -0.1024  0.1093
  801THF     H612756   0.357   1.390   4.737  0.3343 -1.2338 -1.5773
  801THF     H712757   0.413   1.476   4.581 -0.7021 -0.4314 -1.0249
  801THF     C812758   0.278   1.584   4.703  0.5102  0.3115 -0.3229
  801THF     C912759   0.170   1.617   4.603  0.2500 -0.2681 -0.3362
  801THF    H1012760   0.357   1.659   4.696  0.9697  0.0470  1.4832
  801THF    H1112761   0.234   1.579   4.803  1.0641 -2.1074 -0.1441
  801THF    H1212762   0.097   1.689   4.639  0.7638 -1.0006  2.3587
  801THF    H1312763   0.212   1.662   4.513 -0.8006  3.4340  0.8655
  802THF     O112764   4.442   3.674   0.392 -0.1640 -0.2839 -0.5599
  802THF     C212765   4.418   3.574   0.296  0.7909  0.1079 -0.1107
  802THF     C312766   4.554   3.759   0.355  0.0245  0.4658 -0.0864
  802THF     H412767   4.354   3.619   0.219  0.2190  0.3722  0.5131
  802THF     H512768   4.362   3.495   0.346  1.0808  0.9486  1.6099
  802THF     H612769   4.509   3.850   0.317 -1.8111  0.5687  2.0930
  802THF     H712770   4.605   3.784   0.448 -0.0342 -1.2462  0.4522
  802THF     C812771   4.630   3.678   0.246 -0.3362 -0.0014  0.2853
  802THF     C912772   4.559   3.544   0.244  0.3458 -1.0479  0.2665
  802THF    H1012773   4.737   3.668   0.266 -0.5162  1.1397  2.0537
  802THF    H1112774   4.616   3.724   0.149 -0.1341  0.4084  0.4451
  802THF    H1212775   4.562   3.509   0.141 -1.6409  1.4105 -0.7455
  802THF    H1312776   4.614   3.483   0.315  0.8374 -0.6126  0.2709
  803THF     O112777   3.433   4.423   4.632 -0.2432  0.5425  0.2977
  803THF     C212778   3.351   4.397   4.740  0.8905  0.6649 -0.0715
  803THF     C312779   3.568   4.438   4.680  0.1838  0.4716  0.5448
  803THF     H412780   3.247   4.381   4.713  0.8431  1.6403 -0.5190
  803THF     H512781   3.344   4.485   4.805 -0.4685  0.5513 -0.0408
  803THF     H612782   3.636   4.418   4.597 -0.1595  2.3321 -0.2270
  803THF     H712783   3.580   4.542   4.708  1.9251  0.0913  1.3063
  803THF     C812784   3.579   4.332   4.791 -0.0037 -0.0117 -0.7274
  803THF     C912785   3.436   4.287   4.810  0.0897  0.3040 -0.5073
  803THF    H1012786   3.622   4.379   4.879 -1.4917  1.0504 -0.5113
  803THF    H1112787   3.634   4.244   4.761 -0.7023 -1.3887  1.7741
  803THF    H1212788   3.429   4.192   4.756 -2.5076 -0.3129  0.7357
  803THF    H1312789   3.413   4.265   4.914  0.7257  1.0824 -0.1889
  804THF     O112790   1.559   0.730   3.115 -0.5106  0.6299 -0.2092
  804THF     C212791   1.605   0.773   2.985  0.1647  0.4887 -0.1789
  804THF     C312792   1.469   0.829   3.170 -0.0599 -0.0858  0.2760
  804THF     H412793   1.540   0.710   2.924 -0.7358  0.2390  1.0037
  804THF     H512794   1.710   0.745   2.976 -0.2717 -1.6316  0.6950
  804THF     H612795   1.366   0.797   3.183 -0.2594  0.5151  0.2300
  804THF     H712796   1.509   0.868   3.264 -0.3559  2.7344 -0.6724
  804THF     C812797   1.462   0.946   3.074 -1.1675 -0.6168 -0.0196
  804THF     C912798   1.583   0.921   2.988  0.5269  0.2392 -0.5010
  804THF    H1012799   1.468   1.038   3.133  2.7162  0.3289 -1.5490
  804THF    H1112800   1.372   0.925   3.017 -0.0176 -0.1507 -2.1038
  804THF    H1212801   1.573   0.970   2.891  1.8360 -0.7794 -1.1968
  804THF    H1312802   1.672   0.950   3.044 -0.7656  0.8818  1.2836
  805THF     O112803   4.224   3.055   4.529 -0.3484 -0.5864  0.4486
  805THF     C212804   4.196   2.921   4.545  1.0560 -0.8662 -0.8181
  805THF     C312805   4.153   3.136   4.627  0.3993  0.7873  0.6968
  805THF     H412806   4.254   2.885   4.630 -1.1974 -1.0831  0.7057
  805THF     H512807   4.203   2.859   4.456  0.7099 -1.9346 -0.1144
  805THF     H612808   4.221   3.154   4.710 -0.6167  2.2542  1.2567
  805THF     H712809   4.143   3.236   4.585  1.9898  0.5603 -0.3081
  805THF     C812810   4.024   3.055   4.651  0.2137  0.8891  0.4788
  805THF     C912811   4.054   2.918   4.597 -0.2880 -0.5326 -0.1930
  805THF    H1012812   3.938   3.088   4.593 -0.5548 -2.3296 -0.4050
  805THF    H1112813   4.000   3.044   4.757  1.4650  0.0667  0.6917
  805THF    H1212814   4.043   2.839   4.672  0.3205 -0.2662  0.1910
  805THF    H1312815   3.992   2.891   4.513 -0.5437  0.6178 -0.3867
  806THF     O112816   2.205   2.187   2.440  0.2823 -0.1781 -0.3812
  806THF     C212817   2.261   2.057   2.422  0.1791 -0.5416 -0.4825
  806THF     C312818   2.182   2.183   2.583 -0.4408 -0.5079 -0.1925
  806THF     H412819   2.358   2.041   2.468  0.4160 -1.5390 -1.2897
  806THF     H512820   2.280   2.049   2.315  0.5279  1.7114 -0.6355
  806THF     H612821   2.264   2.211   2.649 -0.5417  0.8064 -0.5998
  806THF     H712822   2.101   2.256   2.593  1.2997  1.6450 -0.9926
  806THF     C812823   2.127   2.047   2.617  0.3267 -0.2008 -0.3953
  806THF     C912824   2.162   1.967   2.488 -0.5419 -1.1317 -0.0365
  806THF    H1012825   2.020   2.052   2.634 -0.0745 -0.3804 -2.6183
  806THF    H1112826   2.173   2.006   2.707  0.3468  0.9858  0.1538
  806THF    H1212827   2.201   1.872   2.524  0.2433 -0.3627  1.1799
  806THF    H1312828   2.080   1.943   2.420 -0.9580 -0.2260  0.1214
  807THF     O112829   4.448   2.097   4.020 -0.1929  0.4360  0.3467
  807THF     C212830   4.330   2.168   4.058  0.5465  0.0468  0.0756
  807THF     C312831   4.534   2.084   4.131 -0.0225  0.4528 -1.2156
  807THF     H412832   4.238   2.114   4.079  0.6904 -0.8042 -1.4011
  807THF     H512833   4.291   2.239   3.985 -0.6783  0.7382  1.3458
  807THF     H612834   4.497   1.995   4.181 -0.5805  1.2416 -0.1713
  807THF     H712835   4.639   2.071   4.106  0.7250  0.5854  1.4677
  807THF     C812836   4.508   2.207   4.220 -0.1906  0.5843 -0.3968
  807THF     C912837   4.372   2.262   4.177 -0.5082 -0.2623 -0.3868
  807THF    H1012838   4.592   2.276   4.209  0.5046 -0.2084 -0.1533
  807THF    H1112839   4.501   2.196   4.328 -0.6135 -1.7235 -0.6119
  807THF    H1212840   4.305   2.265   4.263  0.3290 -1.4719  0.3288
  807THF    H1312841   4.394   2.364   4.144  0.4519 -0.8045 -1.5175
  808THF     O112842   0.639   3.931   0.363  0.2149  0.1279  0.4461
  808THF     C212843   0.744   3.831   0.361 -0.2075 -0.1172 -0.7762
  808THF     C312844   0.698   4.048   0.414 -0.0216  0.6042  0.5812
  808THF     H412845   0.707   3.743   0.308  1.0077 -2.5745  2.1476
  808THF     H512846   0.770   3.802   0.463  3.0610  0.3032 -1.3646
  808THF     H612847   0.643   4.141   0.398  0.3540  0.4090 -2.5822
  808THF     H712848   0.709   4.044   0.522  2.2311 -1.0069  0.3856
  808THF     C812849   0.834   4.049   0.349 -0.2523 -0.0662  0.2201
  808THF     C912850   0.862   3.904   0.316 -0.7960  0.2686  0.0024
  808THF    H1012851   0.903   4.105   0.412 -0.4513  0.0669  0.3208
  808THF    H1112852   0.826   4.101   0.254  0.9151 -0.1339  0.0771
  808THF    H1212853   0.872   3.891   0.208 -1.4439 -2.6278  0.2085
  808THF    H1312854   0.952   3.876   0.369  1.0432  1.5955 -2.2005
  809THF     O112855   0.822   0.066   3.794 -0.4328  0.0743 -0.2010
  809THF     C212856   0.907   0.151   3.884  0.3304  0.7484  0.3089
  809THF     C312857   0.811  -0.064   3.845  1.6147  0.3580  0.3904
  809THF     H412858   0.837   0.213   3.940  0.6208  1.2456  0.1278
  809THF     H512859   0.972   0.210   3.819 -2.0728  0.8497 -2.1909
  809THF     H612860   0.722  -0.075   3.908  0.3352  1.0873 -1.2187
  809THF     H712861   0.804  -0.123   3.754  0.2848  0.5740  0.3258
  809THF     C812862   0.944  -0.089   3.909  0.0133 -0.1646 -0.7708
  809THF     C912863   0.980   0.045   3.972 -0.2644  0.0237  0.8727
  809THF    H1012864   1.010  -0.120   3.828  0.6840 -0.3193 -0.1711
  809THF    H1112865   0.932  -0.161   3.990  1.4235  1.5469  1.0408
  809THF    H1212866   0.942   0.048   4.075  2.7229 -3.5773  2.2957
  809THF    H1312867   1.088   0.058   3.981 -0.4166  0.8898  1.6821
  810THF     O112868   2.947   0.802   0.508  0.0630 -0.3709 -0.9042
  810THF     C212869   2.916   0.716   0.402 -0.1616  0.2005  0.1287
  810THF     C312870   3.082   0.806   0.553 -0.2568  0.5731 -0.1031
  810THF     H412871   2.855   0.767   0.327 -2.3061 -0.8659  1.0426
  810THF     H512872   2.846   0.640   0.437 -0.1570 -0.0655 -0.4318
  810THF     H612873   3.122   0.907   0.563 -1.7694  1.8754 -4.7328
  810THF     H712874   3.097   0.757   0.650  1.7562  0.7979 -0.2525
  810THF     C812875   3.154   0.735   0.438 -0.5205 -0.4259 -0.1837
  810THF     C912876   3.045   0.660   0.359 -1.1582  0.9634  0.5859
  810THF    H1012877   3.228   0.670   0.485 -1.2030 -0.5433  0.7648
  810THF    H1112878   3.199   0.809   0.372 -0.4756  0.6478  1.0207
  810THF    H1212879   3.076   0.673   0.255 -0.0749 -0.1237  0.7538
  810THF    H1312880   3.043   0.553   0.380  3.9253  0.7887  1.5034
  811THF     O112881   2.437   1.570   5.446 -0.3959 -0.2800  0.4077
  811THF     C212882   2.544   1.485   5.481  0.0872 -0.2033 -0.4389
  811THF     C312883   2.327   1.533   5.525  0.9039  0.8433 -0.0991
  811THF     H412884   2.598   1.517   5.570 -0.5809 -0.5985  0.1188
  811THF     H512885   2.618   1.473   5.402  0.0121  2.6367 -1.0280
  811THF     H612886   2.320   1.589   5.618 -1.1712 -1.0619  0.9895
  811THF     H712887   2.232   1.552   5.475  2.3011  1.8354 -2.5583
  811THF     C812888   2.355   1.392   5.584 -0.1404  0.0257  0.0281
  811THF     C912889   2.479   1.355   5.503 -0.3878 -0.0137  0.3381
  811THF    H1012890   2.273   1.321   5.572 -0.0847 -0.5942  2.7304
  811THF    H1112891   2.384   1.390   5.689  1.6421 -2.8696 -0.4025
  811THF    H1212892   2.533   1.283   5.565 -0.1548 -0.3912 -0.2921
  811THF    H1312893   2.462   1.300   5.411  0.7087 -0.0360  0.1288
  812THF     O112894   2.963   4.580   1.053  0.2529 -0.3309  0.2644
  812THF     C212895   3.050   4.657   0.963 -0.0677  0.6751  0.6646
  812THF     C312896   2.852   4.534   0.978 -0.3130  0.7707 -0.4631
  812THF     H412897   3.150   4.618   0.978 -0.0862 -1.2647 -3.1101
  812THF     H512898   3.042   4.762   0.991  0.5118  0.5553  1.3001
  812THF     H612899   2.804   4.448   1.025  1.8223 -0.5035 -0.4729
  812THF     H712900   2.775   4.610   0.985 -0.0821  0.9876 -0.2171
  812THF     C812901   2.895   4.519   0.831  0.0743  0.5028 -0.5347
  812THF     C912902   2.983   4.637   0.818 -0.1419 -0.1786 -0.6872
  812THF    H1012903   2.807   4.506   0.767 -1.0907 -0.5925  1.2099
  812THF    H1112904   2.945   4.422   0.826 -1.0794 -0.1293 -0.2793
  812THF    H1212905   3.063   4.637   0.744  1.5190  3.5394  0.8823
  812THF    H1312906   2.918   4.721   0.793  1.1047  1.4105  1.0976
  813THF     O112907   5.069   4.184   1.158 -0.0440  0.1751  0.5286
  813THF     C212908   5.165   4.090   1.201 -0.5525 -0.2142  0.2315
  813THF     C312909   4.954   4.168   1.242 -0.2369 -0.1262  0.4945
  813THF     H412910   5.256   4.106   1.144 -0.7196 -1.4457 -0.4103
  813THF     H512911   5.122   3.997   1.163 -2.7261  0.8983 -0.1703
  813THF     H612912   4.876   4.244   1.247 -2.2303 -1.9225 -0.9833
  813THF     H712913   4.897   4.076   1.228 -0.8710 -0.4504  4.1083
  813THF     C812914   5.022   4.163   1.374 -0.0422 -0.0931  0.3953
  813THF     C912915   5.168   4.113   1.348  0.3324 -0.5919 -0.0417
  813THF    H1012916   4.981   4.086   1.440  1.5434 -2.5178 -1.2615
  813THF    H1112917   5.020   4.254   1.433  1.1734 -0.4730  1.0641
  813THF    H1212918   5.232   4.197   1.376 -0.7723 -0.2058  1.4716
  813THF    H1312919   5.212   4.024   1.392  1.5811 -0.4276 -0.9400
  814THF     O112920   4.302   4.770   1.437 -0.4747  0.3401 -0.1329
  814THF     C212921   4.332   4.884   1.364  0.5988  0.3267  0.7500
  814THF     C312922   4.412   4.684   1.408 -0.3981  0.0890  0.0026
  814THF     H412923   4.269   4.967   1.394 -1.2470 -0.7478  0.0440
  814THF     H512924   4.315   4.880   1.256  3.0681  1.8313  0.2203
  814THF     H612925   4.407   4.592   1.467 -1.8513  0.9082  1.2372
  814THF     H712926   4.406   4.642   1.308  1.6580  0.5160 -0.3538
  814THF     C812927   4.534   4.776   1.414 -0.2013  0.2754  0.2982
  814THF     C912928   4.481   4.906   1.364 -0.2485  0.6002 -1.2454
  814THF    H1012929   4.614   4.732   1.354 -1.6797 -0.1455 -1.4887
  814THF    H1112930   4.572   4.794   1.514  0.5303  1.5446 -0.1863
  814THF    H1212931   4.490   4.992   1.430  0.0902 -0.0865 -0.3727
  814THF    H1312932   4.530   4.943   1.274 -0.8497  3.3847 -0.5246
  815THF     O112933   0.273   4.306   1.910  0.4191  0.4497 -0.3207
  815THF     C212934   0.359   4.222   1.988 -0.4359 -0.2058  0.0921
  815THF     C312935   0.361   4.414   1.874  0.2718  0.1152  0.0115
  815THF     H412936   0.309   4.127   2.007 -1.4308 -0.0569 -1.5469
  815THF     H512937   0.392   4.269   2.080  0.0678 -0.1370 -0.1178
  815THF     H612938   0.326   4.460   1.782 -1.1080 -0.7908  0.0613
  815THF     H712939   0.374   4.476   1.962  0.8037  0.4584 -0.3000
  815THF     C812940   0.501   4.350   1.835 -0.0393 -0.5044 -0.0514
  815THF     C912941   0.481   4.206   1.889  0.5186 -0.4931 -0.5284
  815THF    H1012942   0.570   4.402   1.902  0.1024 -0.6408 -0.0923
  815THF    H1112943   0.531   4.357   1.731  0.1457 -1.3736 -0.0675
  815THF    H1212944   0.460   4.144   1.802 -2.0541  1.1611 -1.1991
  815THF    H1312945   0.573   4.168   1.933  0.1362  1.1060  1.8172
  816THF     O112946   2.671   5.271   1.275 -0.1550  0.2465 -0.1883
  816THF     C212947   2.813   5.260   1.302  0.6645  1.1596  0.3148
  816THF     C312948   2.632   5.379   1.361 -0.1722  0.3869  0.1286
  816THF     H412949   2.868   5.310   1.222  2.0463 -0.3250  0.3013
  816THF     H512950   2.840   5.155   1.297  1.4609  1.3900 -3.3158
  816THF     H612951   2.620   5.473   1.307 -1.1313 -0.3259 -0.9391
  816THF     H712952   2.533   5.345   1.390 -0.4566  0.1854 -1.0240
  816THF     C812953   2.724   5.384   1.481  0.1218  0.0166  0.4894
  816THF     C912954   2.849   5.313   1.437  0.5236 -0.6459 -0.4784
  816THF    H1012955   2.672   5.333   1.562 -0.7543  1.9972  1.2202
  816THF    H1112956   2.751   5.483   1.519  3.6420 -0.8273  0.5559
  816THF    H1212957   2.930   5.386   1.435  0.0889  0.0262  2.1759
  816THF    H1312958   2.888   5.240   1.507  1.7186 -0.0641 -0.5224
  817THF     O112959   2.208   4.852   1.052 -0.0623 -0.2752 -0.7722
  817THF     C212960   2.100   4.923   0.983  0.2201 -0.3079  0.0522
  817THF     C312961   2.158   4.819   1.180 -0.0027  0.3392 -0.6258
  817THF     H412962   2.047   4.862   0.911  1.1538  0.4215 -1.3027
  817THF     H512963   2.135   5.008   0.924  2.0663 -0.9520  0.1532
  817THF     H612964   2.108   4.724   1.167 -1.1259  0.6989  0.8024
  817THF     H712965   2.235   4.794   1.253 -2.2659  0.9375  2.1540
  817THF     C812966   2.057   4.924   1.220 -0.3606 -0.2653 -0.4876
  817THF     C912967   1.987   4.963   1.084  0.3499 -0.5908 -0.6673
  817THF    H1012968   2.119   5.005   1.260  2.1320 -2.6313  0.7835
  817THF    H1112969   1.976   4.893   1.285 -1.0486  0.6669 -0.8847
  817THF    H1212970   1.897   4.903   1.080  0.8951 -1.5971  0.8888
  817THF    H1312971   1.950   5.064   1.101 -0.7563 -0.8680 -1.3404
  818THF     O112972   1.240   2.328   2.205 -1.0400 -0.1605 -0.0988
  818THF     C212973   1.320   2.431   2.135  0.1999  0.0378 -0.3313
  818THF     C312974   1.125   2.386   2.258 -0.2051 -0.5567 -0.9790
  818THF     H412975   1.385   2.367   2.075 -1.1108 -0.4191 -1.3184
  818THF     H512976   1.366   2.498   2.207  2.1037 -1.9713  0.4419
  818THF     H612977   1.053   2.305   2.269 -0.7536 -0.0199 -0.5178
  818THF     H712978   1.141   2.441   2.351  0.5133 -0.5487 -1.1042
  818THF     C812979   1.086   2.492   2.162 -0.6211  0.4358  0.5220
  818THF     C912980   1.203   2.503   2.063  0.4811  0.0114 -0.6780
  818THF    H1012981   1.071   2.588   2.212  0.8275  0.0366  1.8304
  818THF    H1112982   0.990   2.465   2.119 -0.7212 -0.2272  1.1375
  818THF    H1212983   1.176   2.460   1.966  1.6826 -1.2136 -0.4936
  818THF    H1312984   1.241   2.603   2.040 -0.9005  0.5030 -0.9418
  819THF     O112985   2.910   4.513   0.303  0.0117  0.2671  0.2919
  819THF     C212986   2.906   4.445   0.174  0.0737  0.3105  0.1929
  819THF     C312987   2.990   4.436   0.395  0.8170 -0.2711  0.5123
  819THF     H412988   2.891   4.509   0.087 -1.5428 -1.2063 -0.6894
  819THF     H512989   2.841   4.358   0.179  3.7524 -2.6473  1.9204
  819THF     H612990   3.059   4.491   0.458  1.1473 -0.7289  0.5559
  819THF     H712991   2.914   4.389   0.457 -0.8148  1.5347 -0.0184
  819THF     C812992   3.064   4.332   0.298 -0.4758 -0.7839 -0.1097
  819THF     C912993   3.045   4.383   0.159  0.4536 -0.7070 -0.1871
  819THF    H1012994   3.026   4.230   0.303  0.5972 -1.1903  0.0394
  819THF    H1112995   3.167   4.352   0.328 -1.2054  1.5394  1.1411
  819THF    H1212996   3.121   4.461   0.148  0.7763 -0.8820  0.6885
  819THF    H1312997   3.052   4.320   0.070 -0.5867 -1.9640  0.5945
  820THF     O112998   1.567   0.741   4.544 -0.1306  0.2946 -0.1061
  820THF     C212999   1.520   0.628   4.468 -0.7021  0.4056 -0.7548
  820THF     C313000   1.442   0.795   4.583  0.4848  0.1517 -0.7329
  820THF     H413001   1.490   0.547   4.533 -1.1779  1.8958  0.9773
  820THF     H513002   1.603   0.596   4.405  0.5185  0.7487  0.6205
  820THF     H613003   1.409   0.754   4.678 -0.5886 -0.9886 -1.5736
  820THF     H713004   1.460   0.900   4.607 -0.7759  0.3278 -0.5252
  820THF     C813005   1.324   0.779   4.483 -0.3370  1.2765 -0.3494
  820THF     C913006   1.401   0.678   4.396 -0.5754 -0.3189 -0.6179
  820THF    H1013007   1.300   0.874   4.436  1.8382  1.2097 -1.6790
  820THF    H1113008   1.233   0.737   4.528  0.7863 -1.1182 -0.1647
  820THF    H1213009   1.339   0.590   4.379  1.7026 -2.2255  0.4223
  820THF    H1313010   1.419   0.722   4.298  1.0874 -1.3482 -0.8106
  821THF     O113011   4.244   3.516   5.447  0.2879 -0.1114 -0.7698
  821THF     C213012   4.216   3.394   5.511  0.1203 -0.9247  0.3283
  821THF     C313013   4.372   3.487   5.374  0.3702 -0.0097 -0.0284
  821THF     H413014   4.109   3.385   5.531  0.0562 -0.9290 -0.0136
  821THF     H513015   4.276   3.384   5.602  2.3650 -0.2941 -1.0144
  821THF     H613016   4.391   3.552   5.289 -0.0435  0.6607  0.3816
  821THF     H713017   4.461   3.497   5.436  2.3532  0.0689 -2.7496
  821THF     C813018   4.363   3.342   5.325  0.0351  0.0655  0.3518
  821THF     C913019   4.259   3.283   5.414  0.2666  0.4587 -0.2138
  821THF    H1013020   4.460   3.296   5.344  0.8034  1.5512  0.1620
  821THF    H1113021   4.342   3.331   5.219  1.0353  3.4008 -0.3082
  821THF    H1213022   4.181   3.265   5.340 -1.0050  0.9234  0.9678
  821THF    H1313023   4.284   3.192   5.469  2.6818  0.1542 -1.6775
  822THF     O113024   5.013   0.353   2.493 -0.1557  0.5918 -0.4479
  822THF     C213025   5.092   0.302   2.598  0.3083 -0.7099 -0.5590
  822THF     C313026   5.058   0.479   2.447  0.6330  0.3193 -0.0447
  822THF     H413027   5.185   0.258   2.562  1.6438  2.0200 -0.6724
  822THF     H513028   5.027   0.232   2.650 -0.4241 -0.5041 -1.1840
  822THF     H613029   5.150   0.459   2.391 -0.7417  0.0678 -2.3047
  822THF     H713030   4.991   0.540   2.386  3.8297  2.6421 -1.5492
  822THF     C813031   5.097   0.545   2.589 -0.1361  0.7736  0.4928
  822THF     C913032   5.124   0.429   2.684 -0.0511 -0.1223  0.5757
  822THF    H1013033   5.016   0.607   2.627 -1.2931 -0.4218  0.0486
  822THF    H1113034   5.176   0.618   2.568 -1.9842  2.5385 -0.7399
  822THF    H1213035   5.225   0.418   2.723 -0.0727  0.9383  0.9645
  822THF    H1313036   5.065   0.437   2.776 -0.2648  0.4598  0.3917
  823THF     O113037   0.628   1.773   2.283  0.1322  0.0600  0.2745
  823THF     C213038   0.725   1.682   2.255 -0.5112  0.3674  0.8853
  823THF     C313039   0.558   1.805   2.158 -0.3135  0.2251  0.0533
  823THF     H413040   0.673   1.587   2.249 -0.6803  0.4511  1.0197
  823THF     H513041   0.799   1.664   2.332 -0.5223  0.7679  0.9913
  823THF     H613042   0.488   1.722   2.151  1.6508 -1.8695  3.0626
  823THF     H713043   0.504   1.900   2.162 -1.4237 -0.4164  0.9165
  823THF     C813044   0.669   1.806   2.050 -0.2722 -0.8340  0.1791
  823THF     C913045   0.778   1.722   2.112  0.0345 -0.3702 -1.2624
  823THF    H1013046   0.707   1.908   2.051 -1.5137 -0.3578 -0.1003
  823THF    H1113047   0.630   1.770   1.955  2.5999  1.3400 -1.9962
  823THF    H1213048   0.781   1.631   2.051  0.1218 -1.6207  0.5344
  823THF    H1313049   0.876   1.769   2.111  0.3337 -0.8376  1.1352
  824THF     O113050   3.071   3.242   0.239  0.5121 -0.3020  0.4084
  824THF     C213051   3.077   3.187   0.108  0.4247  0.0708  0.4500
  824THF     C313052   3.031   3.377   0.223 -0.4384  0.7017  0.4173
  824THF     H413053   3.080   3.078   0.115 -1.4002 -0.1603 -1.3691
  824THF     H513054   3.170   3.204   0.054 -0.2283  6.1038  0.5156
  824THF     H613055   2.971   3.393   0.313 -2.3522 -1.3707 -0.3788
  824THF     H713056   3.118   3.442   0.224 -0.6841  1.0299  0.8120
  824THF     C813057   2.945   3.391   0.102  0.5122  0.4473  0.0242
  824THF     C913058   2.949   3.244   0.055  0.7611  0.4266 -0.1863
  824THF    H1013059   2.981   3.473   0.040 -0.0199  0.2383 -0.5782
  824THF    H1113060   2.851   3.424   0.147 -0.4351 -1.3665 -0.5004
  824THF    H1213061   2.866   3.189   0.100 -0.3001  0.3300 -2.1698
  824THF    H1313062   2.951   3.215  -0.050  1.6672  1.0565 -0.3527
  825THF     O113063   3.538   0.746   3.280 -0.1262 -0.4657  0.1271
  825THF     C213064   3.498   0.720   3.418 -0.1174 -0.0619  0.1108
  825THF     C313065   3.420   0.723   3.199 -0.3128  0.2874  0.5905
  825THF     H413066   3.551   0.757   3.505 -1.4547 -2.7978  2.2783
  825THF     H513067   3.509   0.611   3.426  1.1607 -0.0463 -1.0979
  825THF     H613068   3.419   0.756   3.095  1.3796 -0.2769  0.3618
  825THF     H713069   3.420   0.615   3.184 -0.8173  0.6352 -2.6329
  825THF     C813070   3.303   0.763   3.281 -0.9843  0.1976  0.5742
  825THF     C913071   3.350   0.756   3.425 -0.1584  0.0378 -0.4585
  825THF    H1013072   3.225   0.687   3.272 -0.9449  0.3493 -1.7826
  825THF    H1113073   3.263   0.861   3.251  0.5157  0.7712  0.3854
  825THF    H1213074   3.337   0.857   3.462  2.8497  0.3006  0.1248
  825THF    H1313075   3.297   0.685   3.488  2.0372 -0.7117  0.6399
  826THF     O113076   2.406   5.120   1.544 -0.2603  0.5203  0.2263
  826THF     C213077   2.316   5.184   1.632 -0.1096  0.0015  0.0488
  826THF     C313078   2.341   5.104   1.415 -0.5323  0.2358 -0.0093
  826THF     H413079   2.386   5.223   1.706  1.2861 -0.1633 -1.1356
  826THF     H513080   2.240   5.115   1.668 -0.2801 -0.0177 -0.3390
  826THF     H613081   2.410   5.128   1.334  0.5980 -0.3768  0.7389
  826THF     H713082   2.306   5.001   1.403  0.9677 -0.3287  0.2386
  826THF     C813083   2.229   5.205   1.405  0.7048  0.2957  0.0395
  826THF     C913084   2.238   5.275   1.540 -0.1380  0.4540 -0.7520
  826THF    H1013085   2.128   5.165   1.408  1.6860 -2.3217  1.2526
  826THF    H1113086   2.233   5.272   1.319 -1.4436  2.4809  1.5136
  826THF    H1213087   2.282   5.375   1.529 -0.4291  0.7215  0.3356
  826THF    H1313088   2.136   5.289   1.576  0.0178 -0.6647  0.1871
  827THF     O113089   2.734   3.311   4.649 -0.0076 -0.6928 -0.3385
  827THF     C213090   2.701   3.341   4.517  0.4555 -0.4995  0.8147
  827THF     C313091   2.628   3.235   4.704 -0.5250 -0.5306  0.0950
  827THF     H413092   2.710   3.254   4.452  1.4426  0.8810 -1.0020
  827THF     H513093   2.767   3.417   4.474 -1.7685 -0.2613 -2.4836
  827THF     H613094   2.641   3.133   4.668  0.0147 -0.6077  0.5025
  827THF     H713095   2.635   3.242   4.813 -4.2511  1.1976  0.3926
  827THF     C813096   2.503   3.300   4.648  0.1134  1.0181  0.0595
  827THF     C913097   2.558   3.390   4.539  0.4228 -0.1246 -0.8066
  827THF    H1013098   2.457   3.369   4.719 -0.2773  1.9869 -1.1074
  827THF    H1113099   2.423   3.231   4.620  1.3086 -0.2365 -0.3613
  827THF    H1213100   2.491   3.389   4.453  1.4322 -0.1254 -1.6293
  827THF    H1313101   2.562   3.493   4.573 -0.5886 -0.0665 -0.8415
  828THF     O113102   2.250   0.667   0.665  0.0991 -0.1568  0.3692
  828THF     C213103   2.258   0.544   0.592  0.0453  0.4562  0.1907
  828THF     C313104   2.138   0.738   0.605  0.2468 -0.3945 -0.1750
  828THF     H413105   2.315   0.474   0.654  0.1086 -0.9735 -1.4034
  828THF     H513106   2.304   0.560   0.495  1.3298 -0.1524  0.6745
  828THF     H613107   2.090   0.806   0.676 -0.2860 -1.8377  0.9015
  828THF     H713108   2.182   0.801   0.527 -0.3476 -2.1974 -2.0361
  828THF     C813109   2.043   0.629   0.563 -0.7574  0.4948  1.2480
  828THF     C913110   2.117   0.502   0.590  0.1618  0.4868  0.6269
  828THF    H1013111   2.006   0.628   0.460 -0.1368 -4.5347  0.7899
  828THF    H1113112   1.952   0.634   0.623 -0.7614  3.7031  1.1503
  828THF    H1213113   2.079   0.466   0.686 -0.9319 -0.6099 -0.1820
  828THF    H1313114   2.090   0.428   0.515  2.3782  0.0144  0.2179
  829THF     O113115   5.203   1.448   3.631 -0.0873  0.0526  0.4669
  829THF     C213116   5.183   1.498   3.762  0.0756 -0.1456 -0.1087
  829THF     C313117   5.142   1.317   3.620  0.6904 -0.8096 -0.1600
  829THF     H413118   5.191   1.606   3.772 -1.1635 -0.0541  0.0584
  829THF     H513119   5.228   1.443   3.844 -1.2726  0.4640  1.0852
  829THF     H613120   5.103   1.308   3.518  1.8611  3.3366 -1.2020
  829THF     H713121   5.203   1.232   3.649  1.2898 -0.4617 -0.3729
  829THF     C813122   5.028   1.327   3.723  0.3370 -0.6113  0.1914
  829THF     C913123   5.042   1.465   3.791 -0.0188 -0.2159  0.1773
  829THF    H1013124   5.049   1.255   3.801  3.1871  0.3394  0.4150
  829THF    H1113125   4.930   1.323   3.675  1.1635 -0.2893 -1.5861
  829THF    H1213126   4.980   1.542   3.744 -0.2923 -1.4664 -1.6220
  829THF    H1313127   5.029   1.464   3.899 -0.5810 -1.6815  0.1141
  830THF     O113128   2.694   2.783   2.036  0.4048 -0.2246  0.1196
  830THF     C213129   2.770   2.775   1.914 -0.5819 -0.2890 -0.2890
  830THF     C313130   2.554   2.792   2.004 -0.1944 -0.3732  0.0684
  830THF     H413131   2.874   2.747   1.926 -0.1053  1.0581 -1.0255
  830THF     H513132   2.772   2.876   1.872  0.5467  0.8476  2.2513
  830THF     H613133   2.490   2.745   2.079  0.2645 -0.2080  0.5707
  830THF     H713134   2.534   2.899   1.995 -1.5359 -0.7698 -2.5695
  830THF     C813135   2.543   2.712   1.877 -0.0294 -0.4162  1.0349
  830THF     C913136   2.681   2.671   1.840  0.0868  0.0512 -0.0889
  830THF    H1013137   2.500   2.760   1.789 -2.0799  2.7636  3.5533
  830THF    H1113138   2.486   2.620   1.890  1.9856 -1.9911 -0.4623
  830THF    H1213139   2.692   2.571   1.882  0.5230 -0.3614 -1.1338
  830THF    H1313140   2.705   2.653   1.735 -0.7503 -0.8127 -0.1453
  831THF     O113141   1.959   0.682   3.296 -0.6361  0.3538 -0.1084
  831THF     C213142   1.968   0.677   3.155 -0.1150  0.5087 -0.2882
  831THF     C313143   1.847   0.597   3.319 -0.2755 -0.0034  0.5478
  831THF     H413144   2.065   0.707   3.115  0.5367  0.0558  0.9001
  831THF     H513145   1.879   0.728   3.118 -1.0409  2.1290  3.6022
  831THF     H613146   1.840   0.563   3.422  0.0566  0.2382  0.6514
  831THF     H713147   1.754   0.638   3.281 -0.7304 -1.3198  0.2023
  831THF     C813148   1.865   0.475   3.233 -0.0836 -0.0274  0.1581
  831THF     C913149   1.938   0.532   3.112 -0.6708 -0.8183 -0.5155
  831THF    H1013150   1.772   0.427   3.203  0.9086 -1.6491 -0.4207
  831THF    H1113151   1.937   0.413   3.286  1.8284  2.0368  0.1336
  831THF    H1213152   2.030   0.475   3.100 -0.0005 -0.1900  1.2098
  831THF    H1313153   1.875   0.532   3.024  0.1239  0.6234 -1.1157
  832THF     O113154   0.252   2.709   3.359 -0.1119  0.4531  0.0258
  832THF     C213155   0.183   2.647   3.465  0.0671  0.5345  0.0621
  832THF     C313156   0.361   2.635   3.321 -0.0869 -0.5522  0.7508
  832THF     H413157   0.075   2.666   3.469  0.4290  2.6810  0.6319
  832THF     H513158   0.224   2.664   3.565  2.1824 -1.3312 -0.4301
  832THF     H613159   0.381   2.663   3.217 -0.7794 -1.8309  0.2510
  832THF     H713160   0.445   2.663   3.385 -0.6455  3.7030 -0.0809
  832THF     C813161   0.312   2.493   3.339 -0.2458 -0.5050 -0.1993
  832THF     C913162   0.190   2.495   3.421 -0.0977  0.6011  0.6220
  832THF    H1013163   0.397   2.437   3.378 -1.2906 -0.5328  2.1453
  832THF    H1113164   0.291   2.445   3.243  1.8481 -1.0941 -0.4185
  832THF    H1213165   0.108   2.469   3.354 -0.8450  2.4992  0.7116
  832THF    H1313166   0.196   2.436   3.513  1.4834 -2.6319 -1.3899
  833THF     O113167   2.696   1.412   0.520  0.0734  0.4291 -0.4531
  833THF     C213168   2.676   1.455   0.656  0.0042  0.3738  0.1919
  833THF     C313169   2.631   1.510   0.433  0.0569 -0.1089  0.0085
  833THF     H413170   2.755   1.416   0.720  1.3209  2.5067 -0.0432
  833THF     H513171   2.578   1.418   0.684 -0.2876  0.9717 -0.0123
  833THF     H613172   2.652   1.527   0.328  1.5883  3.0236  0.6711
  833THF     H713173   2.524   1.492   0.440 -0.1097  0.9513  0.4450
  833THF     C813174   2.656   1.652   0.497 -0.5816 -0.0657 -0.6625
  833THF     C913175   2.675   1.609   0.646  0.2082  0.1359  0.7173
  833THF    H1013176   2.571   1.720   0.490 -0.4400  0.5000  2.1028
  833THF    H1113177   2.742   1.698   0.449 -0.0662 -1.3927 -1.0735
  833THF    H1213178   2.767   1.661   0.674 -0.8746  2.3528  0.4099
  833THF    H1313179   2.596   1.644   0.712 -1.1019 -0.6385 -0.3888
  834THF     O113180   2.439   0.923   4.824 -0.4904  0.2613  0.2258
  834THF     C213181   2.573   0.930   4.783  0.4670  0.0258  0.1116
  834THF     C313182   2.387   1.046   4.863 -0.1283 -0.0767 -0.6829
  834THF     H413183   2.579   0.929   4.675 -2.0821  0.9038 -0.0999
  834THF     H513184   2.629   0.845   4.824  0.4455 -0.6682 -1.2403
  834THF     H613185   2.289   1.051   4.815  0.1190  0.1390 -1.1821
  834THF     H713186   2.377   1.047   4.971  0.6807 -2.3573 -0.5439
  834THF     C813187   2.481   1.152   4.812  0.0995  0.1346  0.2442
  834THF     C913188   2.613   1.074   4.826  0.2146 -0.1117 -0.1698
  834THF    H1013189   2.477   1.243   4.872 -0.3073  0.3714 -0.1418
  834THF    H1113190   2.457   1.176   4.709 -1.4604 -0.9333  0.3111
  834THF    H1213191   2.706   1.100   4.776  1.1715 -2.5554  0.2122
  834THF    H1313192   2.641   1.085   4.930 -0.2398  0.9074 -0.1448
  835THF     O113193   0.807   4.183   3.520 -0.2472  0.2432 -0.6120
  835THF     C213194   0.691   4.225   3.599 -0.0290 -0.2249 -0.5501
  835THF     C313195   0.760   4.091   3.425  0.2002 -0.1537  0.7513
  835THF     H413196   0.696   4.332   3.619  1.5873 -0.4423  0.3988
  835THF     H513197   0.704   4.191   3.702 -0.4319 -0.4385 -0.5667
  835THF     H613198   0.823   4.094   3.336 -0.2307  0.6825  0.4679
  835THF     H713199   0.762   3.987   3.457 -1.4478 -1.8370 -3.8345
  835THF     C813200   0.618   4.146   3.392  0.0235 -0.7717  0.5543
  835THF     C913201   0.561   4.180   3.529  0.4234  0.1516  0.9610
  835THF    H1013202   0.556   4.080   3.331 -0.8766  1.1026 -0.6377
  835THF    H1113203   0.634   4.237   3.334  1.7407 -2.0005 -1.0289
  835THF    H1213204   0.474   4.247   3.526 -1.7947 -2.5097  1.6764
  835THF    H1313205   0.515   4.088   3.564  1.4078 -0.9885 -0.6345
  836THF     O113206   1.091   5.396   3.303 -0.2968 -0.4419  0.8802
  836THF     C213207   1.152   5.274   3.259  0.4200  0.0829 -0.1438
  836THF     C313208   1.038   5.363   3.431  0.2847 -0.4041  0.4649
  836THF     H413209   1.218   5.286   3.173  0.8560  0.6977  0.2661
  836THF     H513210   1.074   5.206   3.223  0.0563  1.3936 -1.9400
  836THF     H613211   0.994   5.446   3.485  0.7811  0.4545 -0.4275
  836THF     H713212   0.951   5.299   3.415 -1.2734  2.0499 -1.7164
  836THF     C813213   1.146   5.285   3.490 -0.3401  0.6024 -0.2077
  836THF     C913214   1.206   5.203   3.381 -0.1168 -0.2002 -0.4128
  836THF    H1013215   1.111   5.220   3.571 -0.6881 -0.1908 -0.9786
  836THF    H1113216   1.221   5.352   3.531  0.1051  0.9376 -1.5542
  836THF    H1213217   1.315   5.201   3.390 -0.3203 -0.5102  4.5325
  836THF    H1313218   1.167   5.101   3.386  0.6898 -0.4962 -0.0285
  837THF     O113219   2.278   2.081   5.377  0.2235 -0.2668 -0.0926
  837THF     C213220   2.330   2.211   5.341  0.0378  0.4290 -0.5615
  837THF     C313221   2.361   2.022   5.475  0.6249 -0.3823  0.1999
  837THF     H413222   2.281   2.291   5.398 -1.3143  0.4808 -1.7280
  837THF     H513223   2.305   2.232   5.237 -2.3028  1.9328  0.2046
  837THF     H613224   2.344   2.066   5.574  1.8072 -1.4042  0.8808
  837THF     H713225   2.341   1.916   5.488 -1.6063 -0.0475 -0.0721
  837THF     C813226   2.498   2.054   5.425  0.4135 -0.7713  0.2368
  837THF     C913227   2.475   2.193   5.379  0.1296 -0.0126 -0.0468
  837THF    H1013228   2.528   1.987   5.344 -0.4365  0.1946 -0.9019
  837THF    H1113229   2.573   2.056   5.505  2.1051 -0.8633 -1.2818
  837THF    H1213230   2.493   2.265   5.459 -2.6141 -1.6914  2.2963
  837THF    H1313231   2.541   2.226   5.299  0.3966  0.8827  0.5285
  838THF     O113232   4.408   0.251   1.918 -0.4629  0.5763  0.0358
  838THF     C213233   4.465   0.382   1.921 -0.4649  0.2757  0.3360
  838THF     C313234   4.284   0.263   1.851  0.0962 -0.1577 -0.0009
  838THF     H413235   4.524   0.401   1.832  0.9301 -0.1210  1.1351
  838THF     H513236   4.535   0.393   2.004  0.5591 -0.8895 -0.3324
  838THF     H613237   4.299   0.214   1.754  0.6117  1.0209 -0.5387
  838THF     H713238   4.205   0.211   1.905  0.7772  0.0673  1.2480
  838THF     C813239   4.248   0.413   1.847 -0.1163 -0.3783 -0.1656
  838THF     C913240   4.342   0.467   1.950 -0.5961  0.3671 -0.0065
  838THF    H1013241   4.141   0.424   1.863 -0.0607 -0.8317  0.5356
  838THF    H1113242   4.264   0.463   1.751 -0.8993 -0.9848 -0.6270
  838THF    H1213243   4.364   0.572   1.931 -1.3738  0.4670 -0.4205
  838THF    H1313244   4.311   0.449   2.053 -0.3309  0.4460  0.0888
  839THF     O113245   0.988   3.395   2.179 -0.0363 -1.2051  0.2306
  839THF     C213246   0.909   3.513   2.188  0.2139  0.0210 -0.9583
  839THF     C313247   0.957   3.331   2.052  0.0611  0.0272 -0.2445
  839THF     H413248   0.952   3.591   2.250 -0.0523 -0.1780 -0.5138
  839THF     H513249   0.806   3.491   2.216  0.3069 -0.0676 -0.6826
  839THF     H613250   1.028   3.252   2.029 -0.2259 -0.4374  0.4171
  839THF     H713251   0.857   3.290   2.039 -0.7301  2.0322 -0.9354
  839THF     C813252   0.972   3.455   1.964 -0.3045 -0.2500  0.1334
  839THF     C913253   0.907   3.563   2.049 -0.2590 -0.8718 -0.1042
  839THF    H1013254   0.940   3.457   1.860  2.0507  2.1347 -0.6797
  839THF    H1113255   1.080   3.472   1.962 -0.3909  0.5811  1.3684
  839THF    H1213256   0.952   3.662   2.045  0.0599 -1.0330 -0.7017
  839THF    H1313257   0.801   3.568   2.023  0.2982 -1.4504 -2.7961
  840THF     O113258   1.605   3.489   5.332  0.1755 -0.1187 -0.3427
  840THF     C213259   1.570   3.349   5.331  0.2419  0.4651 -0.3533
  840THF     C313260   1.614   3.530   5.466 -0.0225  0.1626 -0.1840
  840THF     H413261   1.573   3.289   5.240 -0.7907  0.0417 -0.1282
  840THF     H513262   1.463   3.340   5.352  0.1179 -0.4381 -1.2799
  840THF     H613263   1.668   3.623   5.485 -0.5414  0.6018 -0.8284
  840THF     H713264   1.520   3.537   5.521 -1.1016  0.5727 -2.0057
  840THF     C813265   1.691   3.413   5.525  0.0912 -0.8031 -0.0849
  840THF     C913266   1.637   3.287   5.455 -0.5354 -0.4449 -0.3617
  840THF    H1013267   1.677   3.409   5.633 -0.5495  2.6212  0.0792
  840THF    H1113268   1.795   3.424   5.494  0.0278 -0.6319 -0.2430
  840THF    H1213269   1.719   3.218   5.437 -0.4851 -0.1106 -1.4533
  840THF    H1313270   1.552   3.244   5.509 -1.2318 -0.8720 -1.7597
  841THF     O113271   3.389   4.482   4.024 -0.7922 -0.1777 -1.0245
  841THF     C213272   3.521   4.436   4.039  0.2794  0.1264 -0.0362
  841THF     C313273   3.315   4.390   3.949 -0.4594 -0.0111 -0.1304
  841THF     H413274   3.579   4.471   4.124  0.8853 -1.8336  0.4150
  841THF     H513275   3.571   4.469   3.948 -3.0273  0.2576 -1.9848
  841THF     H613276   3.210   4.410   3.973 -0.3332 -2.6679  3.4064
  841THF     H713277   3.326   4.403   3.841 -2.7763 -2.4485 -0.7718
  841THF     C813278   3.366   4.259   3.998 -0.2608  0.6902  0.2434
  841THF     C913279   3.500   4.280   4.041  0.1863 -0.6485 -0.1728
  841THF    H1013280   3.356   4.189   3.915  2.5382 -1.2063  1.3632
  841THF    H1113281   3.307   4.224   4.083  0.0027  0.0366  0.1627
  841THF    H1213282   3.510   4.240   4.142 -1.6962  1.5613  1.0090
  841THF    H1313283   3.567   4.228   3.974  0.1271 -1.7232  0.5628
  842THF     O113284   2.996   2.280   3.219 -0.2486  0.0783  0.4200
  842THF     C213285   2.948   2.179   3.306 -0.4512  0.7728 -0.1265
  842THF     C313286   3.112   2.348   3.258  0.2496 -0.4352 -0.2458
  842THF     H413287   2.925   2.082   3.261 -0.6126  0.7272  0.0547
  842THF     H513288   2.856   2.201   3.360 -1.3101  0.2667 -1.3416
  842THF     H613289   3.180   2.384   3.181  1.0755 -1.4803 -0.0403
  842THF     H713290   3.083   2.429   3.325 -0.3664 -1.2051  0.4417
  842THF     C813291   3.176   2.251   3.348 -0.6621 -0.1184 -0.2221
  842THF     C913292   3.060   2.183   3.413  0.5704 -0.5679  0.5315
  842THF    H1013293   3.235   2.299   3.426  1.1162 -0.9821 -0.9961
  842THF    H1113294   3.244   2.177   3.305  1.4187  1.9889 -0.7388
  842THF    H1213295   3.090   2.086   3.455  0.9470 -0.7325 -0.1079
  842THF    H1313296   3.021   2.233   3.502 -1.8582 -0.1971 -0.6765
  843THF     O113297   2.179   3.351   1.063 -0.1367  0.1012  0.3869
  843THF     C213298   2.268   3.239   1.064  0.4788  0.5025 -0.3086
  843THF     C313299   2.203   3.428   0.950  0.0164 -0.2779 -0.2388
  843THF     H413300   2.220   3.162   1.004  0.7518  0.4865 -0.5053
  843THF     H513301   2.278   3.189   1.160 -0.5992 -0.2763 -0.5834
  843THF     H613302   2.136   3.386   0.875 -1.2400 -0.5608  1.0004
  843THF     H713303   2.171   3.531   0.965  1.3344  0.2385 -0.7574
  843THF     C813304   2.353   3.416   0.921  0.3339  0.1119  0.1125
  843THF     C913305   2.389   3.283   0.978 -0.2008 -0.7488 -0.0645
  843THF    H1013306   2.409   3.492   0.974 -1.1575  1.5866 -0.3370
  843THF    H1113307   2.377   3.430   0.815 -0.2640  0.4654  0.0235
  843THF    H1213308   2.431   3.207   0.914 -0.4041 -0.8667 -0.0571
  843THF    H1313309   2.475   3.302   1.044 -0.2601  0.5734 -0.3295
  844THF     O113310   2.364   1.029   3.219  0.1561 -0.0064 -0.6153
  844THF     C213311   2.307   0.910   3.268 -0.2671  0.2629  0.1918
  844THF     C313312   2.339   1.123   3.318  0.3186 -0.7075 -0.5468
  844THF     H413313   2.383   0.863   3.331  0.4686  0.4802 -0.5129
  844THF     H513314   2.291   0.852   3.177  1.4661  0.3735 -0.2147
  844THF     H613315   2.407   1.105   3.401 -2.6074  2.0007  2.7584
  844THF     H713316   2.343   1.222   3.273 -1.5531 -0.8854 -1.1838
  844THF     C813317   2.199   1.097   3.373 -0.0350 -0.4348 -0.5297
  844THF     C913318   2.181   0.949   3.348 -0.0709  0.3727  0.0162
  844THF    H1013319   2.121   1.146   3.314 -0.1722 -2.6175 -2.3211
  844THF    H1113320   2.193   1.128   3.477 -2.5047  3.3395 -1.5903
  844THF    H1213321   2.190   0.902   3.446 -0.2287  4.3834  2.1591
  844THF    H1313322   2.085   0.936   3.299  0.1952 -1.2390 -0.1343
  845THF     O113323   0.696   0.968   2.953  0.3016  0.2674 -0.1253
  845THF     C213324   0.765   1.089   2.928  0.2086  0.0217 -0.0234
  845THF     C313325   0.685   0.890   2.830 -0.0683  0.2321  0.5371
  845THF     H413326   0.874   1.086   2.921  0.2883  0.7587  0.7943
  845THF     H513327   0.735   1.165   2.999  2.1460  1.1960 -0.3900
  845THF     H613328   0.787   0.861   2.805  0.2724  1.3892  0.5045
  845THF     H713329   0.619   0.807   2.853  0.8474 -0.4588  0.7233
  845THF     C813330   0.633   0.999   2.738  0.2208  0.1961  0.4082
  845THF     C913331   0.710   1.121   2.785 -0.0859 -0.2399 -0.5506
  845THF    H1013332   0.528   1.022   2.752  0.0427 -0.0355 -0.4843
  845THF    H1113333   0.670   0.973   2.639  0.5791  0.4673  0.4682
  845THF    H1213334   0.795   1.139   2.719 -2.1139 -1.9963 -3.9973
  845THF    H1313335   0.658   1.217   2.789  0.5448  0.2582 -2.7870
  846THF     O113336   2.063   0.182   3.665 -0.1949  0.1783  0.0473
  846THF     C213337   2.165   0.147   3.573 -0.6146 -0.5885 -0.0279
  846THF     C313338   2.043   0.321   3.656 -0.0770 -0.0008  0.0801
  846THF     H413339   2.134   0.122   3.472  0.8506  2.4378 -1.3690
  846THF     H513340   2.218   0.061   3.613 -1.6847  0.0528  3.0227
  846THF     H613341   1.942   0.347   3.623 -0.2452  0.6064  1.0565
  846THF     H713342   2.058   0.364   3.755  0.9304 -2.4587  1.0740
  846THF     C813343   2.154   0.378   3.557 -0.1609  0.4099 -0.4195
  846THF     C913344   2.254   0.269   3.564 -0.5866  0.0332  0.0873
  846THF    H1013345   2.191   0.480   3.572 -1.6824  1.2224 -1.7560
  846THF    H1113346   2.110   0.378   3.457 -1.4223 -2.1352  0.0746
  846THF    H1213347   2.309   0.258   3.470 -0.6599 -0.5348  0.1053
  846THF    H1313348   2.306   0.269   3.660 -0.7709 -2.0086  0.2330
  847THF     O113349   1.227   4.735   5.302  0.2523  0.9070 -0.3681
  847THF     C213350   1.165   4.772   5.424 -0.2164 -0.0829 -0.2179
  847THF     C313351   1.356   4.789   5.293 -0.4928  0.0464  0.1249
  847THF     H413352   1.097   4.699   5.469  0.9049 -0.8945  0.2049
  847THF     H513353   1.100   4.858   5.406  0.6715  0.2023 -2.3750
  847THF     H613354   1.431   4.711   5.280 -0.0007  0.5552 -0.0693
  847THF     H713355   1.357   4.863   5.213  1.0760  0.6859  0.6997
  847THF     C813356   1.389   4.855   5.424  0.3496 -0.0787 -0.4076
  847THF     C913357   1.283   4.797   5.516 -0.4261 -0.3816  0.4042
  847THF    H1013358   1.361   4.960   5.413 -1.0260 -0.3636  0.0380
  847THF    H1113359   1.489   4.841   5.465  0.3712  3.1710  1.0308
  847THF    H1213360   1.329   4.700   5.539 -0.2979 -0.7697 -1.3441
  847THF    H1313361   1.279   4.845   5.613  1.8244 -0.0185  0.3804
  848THF     O113362   0.333   5.057   4.525 -0.5341 -0.0117  0.3943
  848THF     C213363   0.256   4.959   4.460  0.3023  0.8052 -0.9410
  848THF     C313364   0.243   5.145   4.592  0.2421  0.7973 -0.2133
  848THF     H413365   0.226   4.891   4.540  1.2335 -0.3143 -1.5202
  848THF     H513366   0.319   4.910   4.387  0.3238  1.7339 -1.5657
  848THF     H613367   0.216   5.099   4.687  1.0216  1.2922  0.2506
  848THF     H713368   0.295   5.239   4.609 -1.3144  1.1109  4.0840
  848THF     C813369   0.128   5.153   4.501 -0.3410 -0.4842 -0.2523
  848THF     C913370   0.146   5.047   4.394  0.0256  0.5100 -0.1846
  848THF    H1013371   0.108   5.257   4.472  1.8234  0.4633  1.3631
  848THF    H1113372   0.039   5.130   4.559  0.9923 -1.0185  1.6933
  848THF    H1213373   0.054   4.995   4.368  0.3031  0.6353 -1.5004
  848THF    H1313374   0.195   5.084   4.304  5.1680 -0.2204  1.9616
  849THF     O113375   5.138   4.062   2.506 -0.2154 -0.3240  0.5006
  849THF     C213376   5.223   4.096   2.616 -0.9028 -0.8363 -0.0173
  849THF     C313377   5.116   4.188   2.437  0.2195  0.3659  0.2294
  849THF     H413378   5.329   4.085   2.592 -1.1358 -0.3694 -1.3627
  849THF     H513379   5.204   4.029   2.699 -2.8475  0.9863  1.1204
  849THF     H613380   5.195   4.218   2.369 -0.2284 -0.1528 -0.5408
  849THF     H713381   5.028   4.157   2.379 -0.3861 -2.5165  2.4693
  849THF     C813382   5.098   4.287   2.543 -0.3513 -0.2451  0.5370
  849THF     C913383   5.204   4.250   2.652 -0.1668  0.8254 -0.0234
  849THF    H1013384   4.995   4.280   2.578 -0.4595  0.8734  0.5040
  849THF    H1113385   5.120   4.389   2.511  0.6573 -0.9643 -1.2082
  849THF    H1213386   5.298   4.305   2.641 -0.2341  1.0808  0.6163
  849THF    H1313387   5.166   4.259   2.754 -1.2582  0.2508 -0.3737
  850THF     O113388   0.935   4.683   2.494 -0.2242 -0.4542 -0.1538
  850THF     C213389   0.804   4.634   2.484 -0.0444  0.1778  0.0800
  850THF     C313390   0.937   4.761   2.609 -0.1114 -0.5147  0.7227
  850THF     H413391   0.809   4.545   2.421  0.2344  0.8590 -0.8833
  850THF     H513392   0.735   4.705   2.438 -1.2951 -1.2878 -0.3860
  850THF     H613393   1.037   4.776   2.651  0.4447  0.8066 -0.9617
  850THF     H713394   0.905   4.863   2.592  0.8089 -0.1919  0.8514
  850THF     C813395   0.849   4.690   2.713 -0.1226 -0.5987 -0.0716
  850THF     C913396   0.764   4.596   2.625 -0.0736 -0.0744  0.0061
  850THF    H1013397   0.787   4.762   2.767  0.7093  0.4282 -0.4692
  850THF    H1113398   0.913   4.643   2.788  0.2196  0.0109  0.0206
  850THF    H1213399   0.785   4.494   2.654  1.9297  0.2920 -0.0216
  850THF    H1313400   0.657   4.612   2.638 -0.2135  1.2372 -2.2308
  851THF     O113401   4.489   1.123   0.598 -0.4699 -0.4500 -0.2527
  851THF     C213402   4.606   1.073   0.669  0.0310  1.1424 -0.2378
  851THF     C313403   4.407   1.024   0.558  0.0427  0.1698  0.0460
  851THF     H413404   4.573   1.062   0.773  1.6656  0.5086  0.2397
  851THF     H513405   4.687   1.145   0.660  1.9703 -0.6851  1.5018
  851THF     H613406   4.339   1.026   0.643 -0.9488  0.7468 -0.7378
  851THF     H713407   4.356   1.053   0.466 -2.0283 -2.8877  0.0785
  851THF     C813408   4.494   0.890   0.559 -0.0161 -0.8198 -0.0548
  851THF     C913409   4.638   0.942   0.596 -0.2193 -0.0032 -0.8839
  851THF    H1013410   4.492   0.872   0.452  1.0042 -0.7880 -0.0830
  851THF    H1113411   4.465   0.813   0.631 -1.6808  0.0983  0.3256
  851THF    H1213412   4.701   0.877   0.657 -0.9364  1.5755  1.6996
  851THF    H1313413   4.691   0.962   0.503  2.2272  2.3849  0.8725
  852THF     O113414   3.626   3.782   3.387 -0.3446  0.3171  0.1760
  852THF     C213415   3.636   3.827   3.251 -0.4387 -0.6812 -0.7369
  852THF     C313416   3.686   3.657   3.398  0.0499  0.7459 -0.3518
  852THF     H413417   3.740   3.829   3.218  0.9057  0.9298  3.0009
  852THF     H513418   3.582   3.920   3.230  0.1673 -0.6153 -2.0647
  852THF     H613419   3.795   3.659   3.386 -0.0098 -1.1246 -1.7260
  852THF     H713420   3.654   3.611   3.491 -0.6235  2.1252  0.1151
  852THF     C813421   3.624   3.589   3.273  0.1192  0.4230  1.1884
  852THF     C913422   3.577   3.706   3.184 -0.4538 -0.2962 -0.3334
  852THF    H1013423   3.535   3.529   3.289  0.4402 -0.1480  0.8494
  852THF    H1113424   3.697   3.534   3.214 -0.1354  1.9670 -0.6667
  852THF    H1213425   3.606   3.694   3.080 -0.0058  0.6196 -0.3259
  852THF    H1313426   3.469   3.715   3.176 -0.3049  0.1504 -2.3790
  853THF     O113427   1.713   2.430   2.838  0.4269  0.2369  0.0164
  853THF     C213428   1.733   2.360   2.957 -0.1247  0.3223  0.3604
  853THF     C313429   1.595   2.508   2.842  0.4702  0.3970  0.1826
  853THF     H413430   1.772   2.426   3.035  2.0843 -0.1748 -0.2368
  853THF     H513431   1.812   2.288   2.935  0.3598  1.2319 -1.0483
  853THF     H613432   1.621   2.605   2.883  1.5698  0.3296 -0.3328
  853THF     H713433   1.545   2.512   2.745  1.5091 -1.0998 -0.4475
  853THF     C813434   1.509   2.423   2.938  0.6317  0.3565 -0.1146
  853THF     C913435   1.598   2.312   2.992 -0.1564  0.7520  0.3644
  853THF    H1013436   1.421   2.383   2.889  0.0536  0.1744  1.0262
  853THF    H1113437   1.474   2.487   3.019 -0.5513 -1.2709  0.7369
  853THF    H1213438   1.591   2.295   3.100  0.2456 -1.1953  0.1136
  853THF    H1313439   1.574   2.217   2.945  1.4471 -0.4128  1.7205
  854THF     O113440   2.400   4.315   2.527 -0.9499  0.2966  0.1407
  854THF     C213441   2.320   4.248   2.620  0.0147  0.5399 -0.0778
  854THF     C313442   2.541   4.320   2.567 -0.2993  0.0767 -0.1879
  854THF     H413443   2.334   4.140   2.610 -1.4384  0.2648  0.6684
  854THF     H513444   2.218   4.286   2.626 -0.0518  0.1976  1.4575
  854THF     H613445   2.588   4.222   2.570  0.5468  0.5106  2.1374
  854THF     H713446   2.609   4.382   2.508  0.2455  0.1428  0.5065
  854THF     C813447   2.527   4.345   2.712 -0.5057 -0.4603 -0.0382
  854THF     C913448   2.392   4.288   2.755 -0.4204 -0.0009  0.4086
  854THF    H1013449   2.529   4.454   2.721  2.9294 -0.4188 -0.2197
  854THF    H1113450   2.617   4.305   2.757  0.4009 -0.2603 -1.5846
  854THF    H1213451   2.398   4.193   2.808  1.8788 -1.2173 -1.8007
  854THF    H1313452   2.324   4.346   2.817 -1.1773  0.3706 -0.7214
  855THF     O113453   4.983   1.429   2.919  0.1367  0.5037 -0.2886
  855THF     C213454   4.908   1.499   3.019 -0.5302 -0.0872  1.2920
  855THF     C313455   4.962   1.476   2.788  0.3861  0.4745  0.1105
  855THF     H413456   4.956   1.491   3.117  2.4206 -0.0320 -0.0255
  855THF     H513457   4.806   1.461   3.026 -0.3125 -1.3142 -1.0624
  855THF     H613458   5.054   1.484   2.730  1.0119 -1.7611  0.7095
  855THF     H713459   4.898   1.400   2.742 -0.1367  0.8856  0.1438
  855THF     C813460   4.894   1.613   2.813  0.0569 -0.0081 -0.5681
  855THF     C913461   4.918   1.640   2.958 -0.8118  0.5178 -0.7099
  855THF    H1013462   4.789   1.629   2.792  0.6351  3.4678 -1.3424
  855THF    H1113463   4.936   1.690   2.749  1.1895 -1.1280 -1.2095
  855THF    H1213464   5.018   1.676   2.983  0.1504 -2.5883  0.4161
  855THF    H1313465   4.842   1.709   2.994  0.2467  2.0990 -1.3463
  856THF     O113466   3.342   4.395   2.922 -0.6951  0.4498 -0.2069
  856THF     C213467   3.374   4.418   3.066  0.5914 -0.0857  0.1553
  856THF     C313468   3.341   4.258   2.891  0.0796 -0.1362 -0.0807
  856THF     H413469   3.285   4.417   3.129 -0.5314 -1.2037 -1.3571
  856THF     H513470   3.449   4.495   3.081  0.0531  0.3266  0.7656
  856THF     H613471   3.246   4.209   2.913  0.0063  1.1334  3.0172
  856THF     H713472   3.362   4.247   2.785  1.0966 -0.5940  0.1625
  856THF     C813473   3.447   4.200   2.987  0.0422 -0.4975  0.2057
  856THF     C913474   3.447   4.293   3.109 -0.0846 -0.3682  0.7311
  856THF    H1013475   3.546   4.199   2.944  0.1315 -1.9155  0.3978
  856THF    H1113476   3.432   4.099   3.025  1.3846 -0.2924  1.3342
  856THF    H1213477   3.410   4.253   3.204 -0.4327 -0.1078  0.7078
  856THF    H1313478   3.551   4.322   3.124  0.4653 -1.2754 -1.0663
  857THF     O113479   1.707   3.122   1.098  0.0443  0.2530  0.0361
  857THF     C213480   1.658   3.139   1.229 -0.0181  0.1292 -0.3961
  857THF     C313481   1.827   3.197   1.086  0.5462  0.7011 -0.2752
  857THF     H413482   1.719   3.084   1.300 -2.0694 -0.8397  0.6874
  857THF     H513483   1.554   3.110   1.244  0.2775 -0.9912 -0.3959
  857THF     H613484   1.903   3.133   1.130  1.1641  2.1834  0.9218
  857THF     H713485   1.856   3.214   0.982 -0.7488  0.6324 -0.6612
  857THF     C813486   1.804   3.313   1.174 -0.5337 -0.1836 -0.7991
  857THF     C913487   1.670   3.285   1.254  0.5042 -0.1799 -0.0517
  857THF    H1013488   1.810   3.407   1.119  0.5698  0.0585 -0.3111
  857THF    H1113489   1.893   3.307   1.238  0.9834  0.2352 -2.7734
  857THF    H1213490   1.668   3.302   1.361  0.2643  0.3172 -0.1344
  857THF    H1313491   1.589   3.339   1.206  0.8659  0.6049  0.1989
  858THF     O113492   0.708   1.886   3.420  0.0433  0.0604 -0.2045
  858THF     C213493   0.735   1.893   3.558 -0.4253 -0.2320 -0.1407
  858THF     C313494   0.826   1.885   3.340 -0.1074 -0.8262 -0.4844
  858THF     H413495   0.667   1.824   3.607 -0.0184 -0.4337  0.1445
  858THF     H513496   0.720   1.995   3.594 -1.3405 -0.4441  0.1091
  858THF     H613497   0.827   1.838   3.242  0.4707 -2.8281  0.4446
  858THF     H713498   0.862   1.985   3.315  1.5719 -0.9394  1.2126
  858THF     C813499   0.920   1.802   3.432 -0.0126  0.2776 -0.0972
  858THF     C913500   0.876   1.842   3.570 -0.7729  0.1017  0.0386
  858THF    H1013501   1.026   1.809   3.408  0.0158 -0.3719 -0.1826
  858THF    H1113502   0.888   1.702   3.404  0.8787 -0.1768  0.4543
  858THF    H1213503   0.894   1.755   3.633 -1.7955 -0.1810 -0.0368
  858THF    H1313504   0.936   1.926   3.603 -1.3890 -0.1407  1.8541
  859THF     O113505   0.017   5.263   0.077  0.3699 -0.0041  0.2403
  859THF     C213506   0.082   5.202  -0.038 -0.3624  0.1330 -0.2532
  859THF     C313507  -0.108   5.316   0.038  0.2807 -0.4924 -0.3065
  859THF     H413508   0.149   5.124  -0.003  0.2875  0.4071 -0.8654
  859THF     H513509   0.136   5.262  -0.111  0.2521  2.2033  1.7772
  859THF     H613510  -0.169   5.328   0.127  3.3853 -3.4979  2.5225
  859THF     H713511  -0.101   5.412  -0.013 -0.1416 -0.9369 -1.2415
  859THF     C813512  -0.154   5.216  -0.063  0.0515  0.3531 -0.8606
  859THF     C913513  -0.027   5.130  -0.105  0.2819  0.2020 -0.0084
  859THF    H1013514  -0.202   5.267  -0.146 -2.0187 -0.0546  0.0268
  859THF    H1113515  -0.231   5.152  -0.020 -0.3575  1.6433  0.3853
  859THF    H1213516  -0.035   5.042  -0.042 -0.4907 -0.5581 -1.1118
  859THF    H1313517  -0.023   5.104  -0.211 -2.1062  1.3434 -0.4608
  860THF     O113518   4.323   3.141   1.306  0.0331  0.1408  0.4178
  860THF     C213519   4.427   3.116   1.394  0.3361 -0.0481  0.0040
  860THF     C313520   4.369   3.220   1.194 -0.2588  0.0520 -0.2481
  860THF     H413521   4.418   3.018   1.442  1.5968 -0.1044  0.1514
  860THF     H513522   4.428   3.197   1.467  0.6516  0.2784 -0.3553
  860THF     H613523   4.308   3.230   1.104 -0.4440 -0.5240 -0.1901
  860THF     H713524   4.387   3.323   1.225 -3.1675 -0.1464  2.6904
  860THF     C813525   4.505   3.153   1.167  0.9190 -0.3673  0.1935
  860THF     C913526   4.551   3.131   1.304 -0.5154  0.8182 -0.5863
  860THF    H1013527   4.578   3.215   1.113  0.9954  0.0460  0.7525
  860THF    H1113528   4.502   3.055   1.120 -2.2984  0.6149 -2.0299
  860THF    H1213529   4.609   3.039   1.306 -2.6489 -0.6442 -1.2959
  860THF    H1313530   4.613   3.216   1.333  0.3222 -0.5106  1.7200
  861THF     O113531   0.557   4.937   2.561 -0.5378  0.2490 -0.7621
  861THF     C213532   0.428   4.893   2.577 -0.8420  0.3106 -0.0565
  861THF     C313533   0.588   5.039   2.655 -0.5306 -0.3048  0.1753
  861THF     H413534   0.415   4.797   2.527  0.5514  0.8663 -1.5951
  861THF     H513535   0.353   4.960   2.533 -1.1175  0.8528  1.1986
  861THF     H613536   0.696   5.038   2.670 -0.1736 -0.1392 -2.0549
  861THF     H713537   0.549   5.140   2.644 -0.2640 -0.2554 -0.4058
  861THF     C813538   0.514   4.991   2.778 -0.2654  0.1694 -0.9100
  861THF     C913539   0.428   4.869   2.726 -0.4044  0.1860  0.3664
  861THF    H1013540   0.449   5.067   2.822 -0.7811 -1.5781  1.5708
  861THF    H1113541   0.576   4.954   2.860 -0.8912 -1.5693 -1.1770
  861THF    H1213542   0.479   4.779   2.763  0.4763  1.3744  2.2091
  861THF    H1313543   0.329   4.863   2.773 -0.5218 -0.1008  0.0852
  862THF     O113544   1.746   3.928   1.440 -0.0479  0.8778 -1.1722
  862THF     C213545   1.601   3.931   1.435 -0.3731 -0.7235 -0.0280
  862THF     C313546   1.791   3.871   1.567 -0.1666  0.5651  0.1593
  862THF     H413547   1.556   3.874   1.354 -1.0195 -0.3481  0.0614
  862THF     H513548   1.567   4.034   1.422  1.8290  0.0032 -0.4243
  862THF     H613549   1.808   3.764   1.552  1.0568  0.8934 -0.8657
  862THF     H713550   1.891   3.906   1.592  0.8630 -2.3116  0.4388
  862THF     C813551   1.680   3.909   1.665  0.0245 -0.0156 -0.6673
  862THF     C913552   1.561   3.879   1.571 -0.1620 -0.2619 -0.1640
  862THF    H1013553   1.680   4.016   1.685 -1.6263 -0.0510 -0.3826
  862THF    H1113554   1.675   3.848   1.755  0.5824 -1.9089 -1.8439
  862THF    H1213555   1.537   3.773   1.563 -0.6037 -0.2026  0.2856
  862THF    H1313556   1.468   3.929   1.600  1.5444  3.3220 -0.4122
  863THF     O113557   5.348   4.637   5.419  0.1132  0.2088  0.8730
  863THF     C213558   5.326   4.775   5.410  0.1338  0.0630  0.1721
  863THF     C313559   5.248   4.574   5.329  0.2132 -0.2344 -0.7481
  863THF     H413560   5.358   4.800   5.309  0.1286 -0.3978  0.0537
  863THF     H513561   5.390   4.826   5.483  2.2412  0.0722 -1.5721
  863THF     H613562   5.288   4.578   5.228 -1.5773 -2.0649 -1.6017
  863THF     H713563   5.222   4.472   5.361  2.1710 -0.4677  0.2514
  863THF     C813564   5.128   4.671   5.350  0.4667 -0.5552 -0.3807
  863THF     C913565   5.177   4.793   5.424 -0.4774  0.2639  0.5093
  863THF    H1013566   5.049   4.614   5.397  0.7959  0.4252  1.4239
  863THF    H1113567   5.099   4.698   5.248 -2.4998  1.6844  0.9148
  863THF    H1213568   5.140   4.888   5.386 -0.2437 -0.6360 -2.1490
  863THF    H1313569   5.157   4.780   5.531 -1.3850 -0.9786  0.2128
  864THF     O113570   2.415   0.241   2.646 -0.3624  0.4144  0.3564
  864THF     C213571   2.344   0.356   2.697  0.2567  0.2919 -0.1080
  864THF     C313572   2.327   0.136   2.616 -0.5078  0.0825  0.0452
  864THF     H413573   2.316   0.425   2.618  3.4580  0.3934 -1.2844
  864THF     H513574   2.415   0.408   2.761 -1.1691  2.0045  0.1843
  864THF     H613575   2.328   0.119   2.508 -0.5198 -0.3412  0.1081
  864THF     H713576   2.381   0.054   2.664 -0.6257  0.9160  1.6529
  864THF     C813577   2.193   0.165   2.674 -0.0207 -0.4491  0.0525
  864THF     C913578   2.223   0.290   2.767  0.3290 -0.4129  0.0120
  864THF    H1013579   2.146   0.085   2.731  0.4316 -1.9608 -1.6041
  864THF    H1113580   2.120   0.193   2.597  1.0897 -0.8387 -1.1668
  864THF    H1213581   2.136   0.355   2.774  0.4496  0.1664 -2.6306
  864THF    H1313582   2.265   0.262   2.863  2.8223 -0.4293 -0.9915
  865THF     O113583   1.241   1.400   4.565  0.7557  0.4165 -0.0062
  865THF     C213584   1.196   1.440   4.435  0.4766  0.6960 -0.2131
  865THF     C313585   1.126   1.391   4.647 -0.3399 -0.2260 -0.6123
  865THF     H413586   1.265   1.404   4.358 -1.0176 -0.6742 -0.9936
  865THF     H513587   1.186   1.548   4.431  0.8027  0.7184 -0.5489
  865THF     H613588   1.158   1.330   4.732  0.2477 -1.3949 -1.6276
  865THF     H713589   1.094   1.486   4.688 -2.6568 -1.1363 -0.1495
  865THF     C813590   1.022   1.324   4.557  0.8856  0.4138 -0.2830
  865THF     C913591   1.062   1.371   4.422 -0.3586 -0.2406  0.1026
  865THF    H1013592   0.921   1.345   4.590  1.1420  1.2358 -0.0021
  865THF    H1113593   1.043   1.217   4.557 -0.0859  0.2108  0.7255
  865THF    H1213594   1.065   1.285   4.356  1.7004  0.1418 -0.3745
  865THF    H1313595   1.006   1.457   4.384 -1.4010 -0.2426  1.5560
  866THF     O113596   0.230   1.013   1.781  0.1033 -0.1463 -0.2094
  866THF     C213597   0.100   1.005   1.716 -0.7228  0.0470  0.4108
  866THF     C313598   0.306   1.106   1.715  0.4332  0.5967 -0.0289
  866THF     H413599   0.018   0.977   1.782 -1.5428  0.6414 -0.3392
  866THF     H513600   0.112   0.943   1.628 -0.8000  0.9482 -0.2468
  866THF     H613601   0.394   1.129   1.774  0.7060  1.2911 -0.6816
  866THF     H713602   0.334   1.051   1.625  2.2138  0.8643  0.3346
  866THF     C813603   0.215   1.221   1.689 -0.0493 -0.6112  0.0630
  866THF     C913604   0.076   1.158   1.675  0.3065  0.6801 -0.0343
  866THF    H1013605   0.241   1.275   1.598 -0.6785  0.5138  0.5322
  866THF    H1113606   0.219   1.286   1.777  1.4506 -0.4788 -0.0762
  866THF    H1213607   0.002   1.211   1.736  2.5848  3.8477  0.2185
  866THF    H1313608   0.045   1.167   1.571 -1.0944  1.1216  0.3971
  867THF     O113609   0.898   0.562   5.011 -0.4021  0.3117 -0.2142
  867THF     C213610   0.905   0.424   4.971 -0.2101  0.0180  0.1341
  867THF     C313611   0.762   0.593   5.019  0.0042 -0.3849  0.3361
  867THF     H413612   0.920   0.362   5.060  1.9596  1.2378  0.6793
  867THF     H513613   0.991   0.418   4.905 -1.5526  0.2236 -1.6882
  867THF     H613614   0.716   0.560   5.113  1.4002 -0.8407  0.8880
  867THF     H713615   0.741   0.700   5.016 -3.4813 -0.9240  0.8463
  867THF     C813616   0.689   0.517   4.910 -0.2490 -0.1701 -0.5159
  867THF     C913617   0.775   0.390   4.896 -0.2195  0.3368 -0.4095
  867THF    H1013618   0.679   0.581   4.823  1.8189 -1.3428 -1.6923
  867THF    H1113619   0.585   0.498   4.934 -0.2713 -0.6285 -0.9631
  867THF    H1213620   0.736   0.306   4.953 -0.2411 -0.7786 -2.0257
  867THF    H1313621   0.788   0.363   4.792 -0.1771  3.4453 -1.3136
  868THF     O113622   2.128   2.498   3.746  0.6863 -0.2025  0.4477
  868THF     C213623   2.080   2.491   3.610 -0.6646  0.1773  0.3705
  868THF     C313624   2.074   2.613   3.813 -0.3487 -0.2325  0.1440
  868THF     H413625   2.098   2.397   3.558  1.4455  0.0953  1.1897
  868THF     H513626   2.133   2.577   3.569  0.1037  0.2210  1.4407
  868THF     H613627   2.084   2.604   3.921  0.9757  3.5121  0.4614
  868THF     H713628   2.120   2.705   3.779 -0.3158 -0.7540 -1.2933
  868THF     C813629   1.934   2.612   3.757  0.2941 -0.2532 -0.1522
  868THF     C913630   1.930   2.521   3.637  0.0691  0.7303 -0.0398
  868THF    H1013631   1.894   2.710   3.733 -1.8993 -1.3507 -1.3826
  868THF    H1113632   1.855   2.583   3.827 -1.2265  1.4005 -1.1023
  868THF    H1213633   1.885   2.424   3.657  1.2562  0.0900 -0.4042
  868THF    H1313634   1.876   2.559   3.550 -0.0195 -1.3909 -0.9535
  869THF     O113635   1.611   4.976   1.680 -0.1202 -0.5832  0.6260
  869THF     C213636   1.743   5.025   1.684 -0.3081 -0.1592 -0.6576
  869THF     C313637   1.525   5.092   1.683  0.3009 -0.0895 -0.0524
  869THF     H413638   1.800   5.003   1.594  1.7302  0.9741  0.2766
  869THF     H513639   1.796   4.979   1.768  0.3921  2.2106  0.2850
  869THF     H613640   1.503   5.127   1.582 -1.5079 -0.7261  0.0717
  869THF     H713641   1.432   5.061   1.730 -0.1038  0.1487 -0.6721
  869THF     C813642   1.603   5.199   1.749  0.1909  0.2127 -1.2065
  869THF     C913643   1.742   5.178   1.694 -0.6053  0.2750 -0.0708
  869THF    H1013644   1.600   5.179   1.856  0.4673  1.6403 -0.9192
  869THF    H1113645   1.579   5.302   1.722  1.6433  0.1173 -3.0821
  869THF    H1213646   1.736   5.220   1.593 -2.9687 -1.6657 -0.8547
  869THF    H1313647   1.823   5.224   1.750  1.7593 -0.0650 -2.9298
  870THF     O113648   1.358   3.077   3.162  0.0431 -0.1011 -0.0182
  870THF     C213649   1.295   3.148   3.058 -1.0064 -0.1994 -0.0320
  870THF     C313650   1.372   3.156   3.281  0.3588 -0.4105 -0.5046
  870THF     H413651   1.212   3.084   3.026  0.8993 -1.4629 -2.8573
  870THF     H513652   1.365   3.171   2.978  1.0857 -1.0011  1.4824
  870THF     H613653   1.291   3.114   3.341  0.7379 -0.7475 -0.2254
  870THF     H713654   1.468   3.141   3.329 -0.2220 -1.5567  0.3699
  870THF     C813655   1.328   3.298   3.248 -0.5032 -0.2697  0.2386
  870THF     C913656   1.256   3.285   3.112  0.1551  0.0722  0.0908
  870THF    H1013657   1.416   3.361   3.240 -1.9135  1.8524  0.4988
  870THF    H1113658   1.278   3.350   3.329  2.2346  0.1486  1.7811
  870THF    H1213659   1.148   3.291   3.125  0.0636 -1.2129  0.0267
  870THF    H1313660   1.285   3.367   3.045  0.9568  1.2220  1.7798
  871THF     O113661   5.273   1.869   5.353 -0.4459  0.2900 -0.2307
  871THF     C213662   5.247   1.998   5.303  0.0500 -0.3907 -0.5422
  871THF     C313663   5.401   1.831   5.294 -0.2994  0.2666 -0.1217
  871THF     H413664   5.180   2.056   5.366  1.2787  0.8310 -0.3224
  871THF     H513665   5.198   1.989   5.206 -0.1539 -0.9262 -0.3979
  871THF     H613666   5.452   1.749   5.344  0.8334  1.0239 -0.0139
  871THF     H713667   5.393   1.816   5.187  2.5468  4.6204 -1.1836
  871THF     C813668   5.483   1.958   5.315 -0.0566 -0.2044 -0.1831
  871THF     C913669   5.380   2.070   5.293  0.2087 -0.2087 -1.0777
  871THF    H1013670   5.562   1.953   5.241 -1.0860 -0.4143 -1.3059
  871THF    H1113671   5.526   1.962   5.415 -1.4753 -2.1748  0.5798
  871THF    H1213672   5.379   2.150   5.368 -0.9247 -0.0581 -1.2359
  871THF    H1313673   5.388   2.124   5.199  3.1476  1.8225  0.1533
  872THF     O113674   2.844   0.843   5.060 -0.0153 -0.1044 -0.2405
  872THF     C213675   2.809   0.737   5.152 -0.1635 -0.1015  0.1291
  872THF     C313676   2.833   0.964   5.130 -0.1518 -0.4212  0.0061
  872THF     H413677   2.893   0.727   5.220  0.8775 -0.2908 -1.1412
  872THF     H513678   2.784   0.641   5.106 -3.8607  0.9966 -0.4598
  872THF     H613679   2.913   0.974   5.202 -1.1221  0.0888  1.0474
  872THF     H713680   2.849   1.051   5.065  0.4270  0.1506  0.8944
  872THF     C813681   2.702   0.952   5.193  0.4687 -0.3712  0.0201
  872THF     C913682   2.683   0.797   5.206  0.1034  0.0544 -0.1547
  872THF    H1013683   2.630   0.979   5.117  0.4768 -1.1235 -0.2660
  872THF    H1113684   2.683   1.008   5.284  1.2193  2.8916 -1.6740
  872THF    H1213685   2.680   0.780   5.314  0.3005  2.1787  0.2280
  872THF    H1313686   2.581   0.780   5.171 -0.4755 -2.5325  2.3368
  873THF     O113687   4.491   1.505   1.455  0.4830 -0.0234 -0.1609
  873THF     C213688   4.478   1.483   1.313 -0.1661  0.3149 -0.1338
  873THF     C313689   4.481   1.648   1.473 -0.2314  0.1682  0.3925
  873THF     H413690   4.463   1.376   1.299  0.5989  0.0749  0.7684
  873THF     H513691   4.575   1.514   1.275  0.0172 -1.8081 -1.5904
  873THF     H613692   4.468   1.687   1.574  1.0233 -0.1571  0.6914
  873THF     H713693   4.576   1.692   1.441 -0.1117 -0.8223 -0.7016
  873THF     C813694   4.363   1.682   1.383  0.1163  0.2502  0.4285
  873THF     C913695   4.368   1.571   1.279  0.6645 -0.2581 -0.1798
  873THF    H1013696   4.377   1.778   1.333 -0.8508 -1.0117 -2.5278
  873THF    H1113697   4.271   1.691   1.440 -0.9910 -1.4298 -0.9552
  873THF    H1213698   4.279   1.508   1.283 -0.1681  0.8595 -0.5239
  873THF    H1313699   4.385   1.610   1.178 -1.9952  1.0451 -0.2033
  874THF     O113700   1.288   3.256   2.550  0.3741  0.4513 -0.8825
  874THF     C213701   1.258   3.249   2.413  0.0270 -0.2799 -0.2327
  874THF     C313702   1.418   3.210   2.572  0.3935  0.4172 -0.1368
  874THF     H413703   1.196   3.338   2.401 -1.5539 -1.2631  0.2734
  874THF     H513704   1.212   3.159   2.371  0.3718 -0.4030 -0.3547
  874THF     H613705   1.453   3.231   2.673 -0.1980  0.1998  0.1158
  874THF     H713706   1.411   3.102   2.559  3.0904  0.0575  0.6853
  874THF     C813707   1.505   3.275   2.461  0.3005  1.1898  0.3049
  874THF     C913708   1.398   3.273   2.347  0.2536  0.4174  0.1463
  874THF    H1013709   1.593   3.214   2.442 -0.8419  0.1236 -1.9293
  874THF    H1113710   1.519   3.377   2.498 -1.0480  1.9189 -1.0730
  874THF    H1213711   1.395   3.361   2.282  1.7979 -0.0662 -0.6369
  874THF    H1313712   1.411   3.197   2.270  1.2891  0.3042  0.4153
  875THF     O113713   2.777   2.616   1.516  0.2640  0.7807  0.3968
  875THF     C213714   2.865   2.722   1.473  0.5600 -0.2713  0.0583
  875THF     C313715   2.852   2.500   1.485 -0.4650 -0.2397  0.4465
  875THF     H413716   2.953   2.732   1.537  1.4962 -3.5392 -0.5158
  875THF     H513717   2.824   2.822   1.477  0.0446 -0.5050  0.7935
  875THF     H613718   2.938   2.492   1.552 -0.2094 -2.4492 -0.0740
  875THF     H713719   2.794   2.410   1.503 -1.3524  0.2786  0.2521
  875THF     C813720   2.908   2.534   1.350 -0.1622  0.6307 -0.1686
  875THF     C913721   2.902   2.686   1.336  0.3953  0.1017  0.0228
  875THF    H1013722   2.844   2.501   1.268 -0.2319 -1.2339  0.5852
  875THF    H1113723   3.005   2.484   1.342 -0.8077 -0.6437 -0.2135
  875THF    H1213724   3.005   2.709   1.311  1.0663 -2.9973 -0.4731
  875THF    H1313725   2.832   2.713   1.257 -2.1589 -0.8566  1.8304
  876THF     O113726   5.122   2.436   2.426 -0.3266  1.0148  0.0147
  876THF     C213727   5.071   2.405   2.549 -0.6185  1.1643  0.1691
  876THF     C313728   5.259   2.397   2.419  0.4134  0.1391 -0.4522
  876THF     H413729   4.964   2.393   2.563 -0.2664  0.0126  2.5280
  876THF     H513730   5.102   2.485   2.616 -0.9947  1.1392  0.3767
  876THF     H613731   5.281   2.384   2.313 -0.2064  0.9390 -0.6888
  876THF     H713732   5.310   2.481   2.467 -1.6211  1.5377 -0.6023
  876THF     C813733   5.271   2.264   2.500  0.6983  0.0610 -0.3378
  876THF     C913734   5.146   2.266   2.580  0.4700  0.1358 -0.1370
  876THF    H1013735   5.355   2.257   2.569  0.0515  0.3937  0.5032
  876THF    H1113736   5.281   2.184   2.427  0.1824  1.9370 -2.5644
  876THF    H1213737   5.078   2.196   2.530 -1.0249  1.6565 -0.3191
  876THF    H1313738   5.142   2.234   2.684 -3.1843 -2.8507 -0.9662
  877THF     O113739   0.321   0.101   0.580  0.1395 -0.3425 -0.1905
  877THF     C213740   0.442   0.041   0.634 -0.4245 -0.1317 -0.2297
  877THF     C313741   0.298   0.218   0.667  0.8431  0.1772 -0.1870
  877THF     H413742   0.493   0.006   0.545  0.5729  2.3180 -0.6940
  877THF     H513743   0.428  -0.042   0.703 -0.0681  0.8736  1.0856
  877THF     H613744   0.283   0.294   0.591 -3.8512 -0.1138  0.1950
  877THF     H713745   0.206   0.207   0.723  1.3087  0.7231  0.7074
  877THF     C813746   0.414   0.233   0.761  0.6715  0.0861  0.3484
  877THF     C913747   0.521   0.151   0.690 -0.5821 -0.0094  0.1279
  877THF    H1013748   0.373   0.188   0.851 -1.4727 -1.6593 -1.3926
  877THF    H1113749   0.442   0.336   0.782 -1.2642  0.7111  0.0852
  877THF    H1213750   0.565   0.210   0.609  0.3909  0.4975  1.0018
  877THF    H1313751   0.604   0.111   0.747 -0.5017 -2.1587 -1.3594
  878THF     O113752   3.269   4.750   3.033  0.8005 -0.6062 -0.1877
  878THF     C213753   3.138   4.756   3.090  0.2121  0.2014  0.1365
  878THF     C313754   3.241   4.738   2.892 -1.2576 -0.4834 -0.2016
  878THF     H413755   3.145   4.802   3.189  4.4708  1.8310 -0.6914
  878THF     H513756   3.089   4.659   3.087 -0.1156  0.2985  1.4548
  878THF     H613757   3.329   4.749   2.830 -1.7932 -0.8212 -1.0457
  878THF     H713758   3.215   4.634   2.871  1.6130 -1.0337 -1.5184
  878THF     C813759   3.124   4.840   2.865  0.5716  0.1740 -0.3952
  878THF     C913760   3.053   4.838   3.001 -0.0286 -0.2031  0.9236
  878THF    H1013761   3.072   4.800   2.778  0.4310 -2.2892  0.7362
  878THF    H1113762   3.145   4.943   2.837 -1.2427  0.5851 -0.3699
  878THF    H1213763   3.044   4.939   3.039 -0.4529  0.0350  0.2256
  878THF    H1313764   2.950   4.808   2.980  0.5764 -0.8965 -1.4482
  879THF     O113765   2.387   4.639   3.149 -0.4592 -0.6018  0.8225
  879THF     C213766   2.501   4.644   3.058  0.3346  0.0711  0.1141
  879THF     C313767   2.314   4.762   3.142  0.3629 -0.0862  0.0798
  879THF     H413768   2.529   4.542   3.035  1.0334 -0.2182  2.0366
  879THF     H513769   2.584   4.680   3.119 -0.9721  1.2456  1.2762
  879THF     H613770   2.208   4.735   3.141  0.4142 -0.3139 -1.2403
  879THF     H713771   2.341   4.826   3.226  3.7195 -0.8216 -0.3353
  879THF     C813772   2.364   4.837   3.023 -0.2147 -0.8115  0.1884
  879THF     C913773   2.461   4.749   2.952  0.2425  1.1840  0.4378
  879THF    H1013774   2.420   4.924   3.057 -1.3049  1.1815 -2.7352
  879THF    H1113775   2.283   4.878   2.962 -0.7840 -0.1948  1.3276
  879THF    H1213776   2.404   4.702   2.872  0.5080  1.6764 -0.0538
  879THF    H1313777   2.552   4.796   2.914  1.9112 -1.7808  0.4145
  880THF     O113778   3.080   5.221   1.037 -0.3047  0.7447  0.0746
  880THF     C213779   3.143   5.258   0.918  0.1692  0.5116  0.4195
  880THF     C313780   3.020   5.096   1.014  0.6000 -0.0735 -0.5377
  880THF     H413781   3.229   5.191   0.906 -0.3181  0.1440 -1.2881
  880THF     H513782   3.179   5.360   0.907  1.6736 -0.1261 -1.1027
  880THF     H613783   3.094   5.017   1.002  0.6745 -0.1488  0.3387
  880THF     H713784   2.953   5.056   1.090  0.1467 -1.3208 -1.5675
  880THF     C813785   2.949   5.108   0.888  0.5922 -0.3404 -0.4950
  880THF     C913786   3.037   5.209   0.821  0.2934 -0.2779 -0.1999
  880THF    H1013787   2.852   5.155   0.905  1.3035  0.0629  3.7048
  880THF    H1113788   2.925   5.016   0.835 -1.1047  0.6374 -1.5092
  880THF    H1213789   3.076   5.167   0.729 -1.0911 -1.8697 -0.1118
  880THF    H1313790   2.972   5.293   0.793 -1.0586 -1.3304 -0.3642
  881THF     O113791   1.760   0.479   4.919  0.0001  0.1714 -0.4745
  881THF     C213792   1.657   0.446   4.824  0.7957  0.1028  0.4424
  881THF     C313793   1.855   0.376   4.902 -0.6228 -0.1992  0.2238
  881THF     H413794   1.583   0.524   4.808 -0.3600 -1.1233 -0.3875
  881THF     H513795   1.601   0.355   4.847 -0.0020  0.4946  0.0802
  881THF     H613796   1.952   0.408   4.940 -1.1249  0.9285  0.6029
  881THF     H713797   1.839   0.291   4.968  1.5395 -1.3058 -0.5794
  881THF     C813798   1.858   0.344   4.754  0.3754  0.4796  0.2019
  881THF     C913799   1.743   0.424   4.699 -0.5530 -0.2960 -0.1242
  881THF    H1013800   1.857   0.235   4.744 -1.7906  0.5843 -1.2820
  881THF    H1113801   1.953   0.379   4.715  0.4099 -0.7450 -0.8777
  881THF    H1213802   1.775   0.518   4.653 -2.2954 -0.2082 -1.2356
  881THF    H1313803   1.694   0.369   4.619  0.1100  0.7903 -1.3230
  882THF     O113804   1.269   4.405   1.683 -0.4739  0.2797  0.0844
  882THF     C213805   1.342   4.446   1.566 -0.1188  0.3675  0.2033
  882THF     C313806   1.260   4.264   1.695  0.1787  0.5626  0.2685
  882THF     H413807   1.390   4.543   1.582  1.7451 -0.5208  0.2228
  882THF     H513808   1.268   4.454   1.487  2.2452 -0.9283 -2.3037
  882THF     H613809   1.237   4.233   1.796 -1.6764  1.4447  0.1632
  882THF     H713810   1.178   4.220   1.638 -1.8673 -0.3643  3.6604
  882THF     C813811   1.387   4.209   1.636 -0.5427  0.2460 -0.7838
  882THF     C913812   1.444   4.327   1.552  0.0227 -0.3432 -0.2354
  882THF    H1013813   1.362   4.133   1.562  0.5471 -2.0915  1.1159
  882THF    H1113814   1.461   4.173   1.708  0.6866  0.6204 -1.8026
  882THF    H1213815   1.540   4.363   1.589 -0.3249  2.6345 -1.9163
  882THF    H1313816   1.480   4.302   1.452  1.5275  0.8667 -0.0362
  883THF     O113817   0.298   3.324   0.358 -0.2063 -0.1574 -0.7167
  883THF     C213818   0.426   3.369   0.390 -0.2363 -0.7775 -0.3205
  883THF     C313819   0.251   3.421   0.270 -0.4096 -0.2668  0.4126
  883THF     H413820   0.490   3.355   0.303  0.3061 -0.2963 -0.0048
  883THF     H513821   0.484   3.319   0.468  1.4691  1.2931 -0.1593
  883THF     H613822   0.305   3.405   0.177 -0.7039  0.4696  0.1078
  883THF     H713823   0.147   3.407   0.240  0.0654  0.8465 -1.9489
  883THF     C813824   0.281   3.556   0.349 -0.5015  0.2744  0.3485
  883THF     C913825   0.409   3.520   0.424  0.3189  0.2220  0.1976
  883THF    H1013826   0.214   3.580   0.431  0.3127 -0.2805  1.1973
  883THF    H1113827   0.297   3.643   0.285  1.5185 -1.5213 -1.7798
  883THF    H1213828   0.497   3.566   0.380  0.0159  1.4966  0.8717
  883THF    H1313829   0.406   3.542   0.531  1.8875 -0.3958  0.4042
  884THF     O113830   2.020   0.549   2.350 -0.0471  0.0179 -0.3245
  884THF     C213831   1.990   0.495   2.219  0.1096  0.0045  0.5507
  884THF     C313832   2.140   0.484   2.392  0.3200  0.5670  0.2666
  884THF     H413833   1.948   0.572   2.154  1.7379  1.0058  0.6471
  884THF     H513834   1.916   0.418   2.243  1.4921 -1.2526  0.9343
  884THF     H613835   2.224   0.552   2.407  0.2609  0.7057 -0.0162
  884THF     H713836   2.117   0.409   2.467  0.5256 -1.0673 -1.2373
  884THF     C813837   2.171   0.379   2.284 -0.6783  0.3602  0.1289
  884THF     C913838   2.109   0.436   2.159 -0.0559  0.2388  0.4455
  884THF    H1013839   2.140   0.278   2.311  1.0078 -1.1181 -2.9016
  884THF    H1113840   2.277   0.366   2.258 -0.9871 -0.1531 -0.9257
  884THF    H1213841   2.174   0.517   2.126 -1.5488  0.8736 -1.0439
  884THF    H1313842   2.090   0.374   2.072  1.7640  0.0498  0.1514
  885THF     O113843   4.861   4.096   1.875 -0.0451 -0.3064 -0.4912
  885THF     C213844   4.859   3.971   1.941 -0.5841  0.4837 -0.1086
  885THF     C313845   4.920   4.197   1.959 -0.1228 -0.5524  0.1902
  885THF     H413846   4.962   3.938   1.952 -1.2466 -1.3699  1.0690
  885THF     H513847   4.796   3.897   1.892 -1.0370 -0.0531  1.2318
  885THF     H613848   5.028   4.207   1.943 -0.0724 -0.0572  0.7760
  885THF     H713849   4.868   4.290   1.940  0.1024 -0.8306 -2.0289
  885THF     C813850   4.902   4.141   2.100  0.3418  0.4601  0.3008
  885THF     C913851   4.807   4.017   2.083  0.1862 -0.1244 -0.0979
  885THF    H1013852   4.850   4.209   2.168 -1.1915  0.2008 -0.5546
  885THF    H1113853   4.995   4.108   2.145 -0.2868  0.8933  2.0143
  885THF    H1213854   4.824   3.943   2.162  1.3934 -0.4169 -0.6114
  885THF    H1313855   4.701   4.041   2.080  0.4784  1.1614 -0.3591
  886THF     O113856   1.694   3.630   2.212  0.1260 -0.1868 -0.1984
  886THF     C213857   1.820   3.637   2.143 -0.3216  0.5709  0.1807
  886THF     C313858   1.733   3.629   2.348  1.5365 -0.0042  0.4782
  886THF     H413859   1.865   3.730   2.175  0.7799  0.0551  0.1736
  886THF     H513860   1.816   3.619   2.035 -0.6405 -0.1905  0.3125
  886THF     H613861   1.788   3.714   2.389  0.8704  0.5938  0.1585
  886THF     H713862   1.643   3.629   2.409  0.5616  1.6752 -0.8391
  886THF     C813863   1.827   3.510   2.355 -1.1394 -0.2022 -0.4655
  886THF     C913864   1.901   3.524   2.216 -0.2800  0.2659 -0.1280
  886THF    H1013865   1.774   3.415   2.360 -3.2816  0.9756  0.2960
  886THF    H1113866   1.905   3.518   2.430 -0.8486 -1.5191 -0.6040
  886THF    H1213867   2.006   3.547   2.231  0.1272 -0.1309 -2.1545
  886THF    H1313868   1.901   3.428   2.164 -1.0644  0.3461 -0.2828
  887THF     O113869   4.401   1.356   2.530 -0.4963 -0.1195  0.1102
  887THF     C213870   4.275   1.341   2.581  0.3010  0.1573  0.5250
  887THF     C313871   4.407   1.338   2.394 -0.1202 -0.5924 -0.0681
  887THF     H413872   4.237   1.441   2.604  0.9348  0.2893  1.0251
  887THF     H513873   4.277   1.271   2.664  2.0824  0.5234  0.8176
  887THF     H613874   4.389   1.434   2.346  1.7549 -0.9631 -1.6435
  887THF     H713875   4.504   1.309   2.354  0.0043  1.6511 -1.5717
  887THF     C813876   4.285   1.247   2.365 -0.2363 -0.0069 -0.5205
  887THF     C913877   4.183   1.295   2.464 -0.0414  0.2345 -0.0303
  887THF    H1013878   4.310   1.143   2.384 -1.9416 -0.5272 -1.0127
  887THF    H1113879   4.247   1.255   2.263 -0.2359 -1.2286 -0.6292
  887THF    H1213880   4.130   1.379   2.419 -1.3883  0.8377  2.4930
  887THF    H1313881   4.109   1.220   2.489 -0.1936  0.5623  0.5378
  888THF     O113882   2.707   1.571   3.983  0.1618  0.5235  0.5905
  888THF     C213883   2.744   1.437   4.022  0.5524 -0.2633  0.4898
  888THF     C313884   2.722   1.572   3.843 -0.0928 -0.0353  0.0791
  888THF     H413885   2.653   1.383   3.997  1.0743 -0.6204 -0.6710
  888THF     H513886   2.749   1.444   4.131 -0.0258 -0.8280  0.5600
  888THF     H613887   2.632   1.534   3.796  1.4212 -1.1734 -2.0693
  888THF     H713888   2.740   1.671   3.801  0.3592  0.2591  0.9273
  888THF     C813889   2.847   1.483   3.814  0.4108 -0.7392  0.5983
  888THF     C913890   2.873   1.405   3.936  0.2162  0.3361 -0.4317
  888THF    H1013891   2.935   1.542   3.787  1.0820 -2.0791 -0.2500
  888THF    H1113892   2.834   1.420   3.725 -0.5111  2.0634 -1.4035
  888THF    H1213893   2.882   1.300   3.908  1.2816 -0.3413  2.1023
  888THF    H1313894   2.969   1.439   3.975  0.3811 -0.2873 -0.2755
  889THF     O113895   2.723   3.517   2.246 -0.1200  0.2626 -0.1712
  889THF     C213896   2.680   3.642   2.295  0.3784 -0.3621  0.2643
  889THF     C313897   2.609   3.435   2.222 -0.0088  0.0605  0.0359
  889THF     H413898   2.748   3.706   2.239  0.9986 -0.7713  0.5438
  889THF     H513899   2.703   3.659   2.400  2.3517 -0.3826 -0.1314
  889THF     H613900   2.634   3.354   2.154 -0.0942 -0.4981  0.6589
  889THF     H713901   2.568   3.390   2.312 -0.3366 -0.1818 -0.2322
  889THF     C813902   2.503   3.539   2.165 -0.4828  0.0053  0.0035
  889THF     C913903   2.531   3.649   2.266  0.6898 -0.4654  1.0849
  889THF    H1013904   2.403   3.496   2.161 -0.6826  0.5741 -1.4462
  889THF    H1113905   2.529   3.570   2.064 -2.5952  1.8332 -0.0278
  889THF    H1213906   2.486   3.745   2.241  1.8268  0.2534  1.7190
  889THF    H1313907   2.478   3.615   2.355  0.8212 -1.1093  0.9232
  890THF     O113908   2.555   4.094   3.609 -0.1659  0.5015  0.3561
  890THF     C213909   2.431   4.041   3.558  0.3391 -0.5498  0.1838
  890THF     C313910   2.511   4.208   3.680  0.0311 -0.4306  0.7958
  890THF     H413911   2.442   3.947   3.504 -0.5837 -0.3517 -0.3784
  890THF     H513912   2.374   4.102   3.488 -3.3504 -1.9369  1.7038
  890THF     H613913   2.591   4.259   3.736  1.0347 -1.2242  0.1189
  890THF     H713914   2.490   4.288   3.609  0.1097 -1.7732 -0.7986
  890THF     C813915   2.380   4.173   3.745 -0.1965 -0.1237 -0.0866
  890THF     C913916   2.355   4.033   3.688  0.4246  0.4287  0.2880
  890THF    H1013917   2.300   4.242   3.720  0.2649  1.3561  2.2565
  890THF    H1113918   2.399   4.162   3.852  1.4618 -0.4505 -0.3780
  890THF    H1213919   2.401   3.957   3.751 -1.3833 -0.3442  0.7379
  890THF    H1313920   2.252   4.006   3.664  1.3041 -0.4007 -3.0999
  891THF     O113921   0.129   5.028   1.564  0.4699 -0.5535 -0.4647
  891THF     C213922   0.203   5.142   1.611  0.2127  0.2993  0.0218
  891THF     C313923   0.033   5.076   1.466 -0.0715  0.5751  0.0558
  891THF     H413924   0.285   5.154   1.540  0.5380 -0.6078  0.2287
  891THF     H513925   0.240   5.126   1.712  0.5180  0.4474 -0.0680
  891THF     H613926   0.092   5.086   1.375  0.3054 -1.0161  0.0962
  891THF     H713927  -0.050   5.010   1.440 -1.5959  1.6646  1.8947
  891THF     C813928  -0.012   5.207   1.518  0.7348 -0.0715  0.0385
  891THF     C913929   0.103   5.256   1.608  0.6626  0.0071  0.6327
  891THF    H1013930  -0.103   5.200   1.578  2.0296 -0.2037  2.0879
  891THF    H1113931  -0.026   5.281   1.440  0.3948  2.1284  2.0859
  891THF    H1213932   0.140   5.345   1.556 -1.9273  0.1357 -1.2216
  891THF    H1313933   0.080   5.291   1.708 -1.9089 -1.9744  0.8367
  892THF     O113934   4.456   5.072   0.502 -0.3367  0.0437 -0.1334
  892THF     C213935   4.494   5.046   0.374 -0.0845  0.0029  0.2477
  892THF     C313936   4.335   5.006   0.524 -0.0747 -0.0239  0.2143
  892THF     H413937   4.601   5.064   0.364 -0.3477  0.6933 -1.9324
  892THF     H513938   4.444   5.109   0.300 -0.6106  0.4599  0.9909
  892THF     H613939   4.306   4.999   0.630 -0.9805  0.7997  0.0426
  892THF     H713940   4.261   5.073   0.479 -0.3695 -0.0487  0.6463
  892THF     C813941   4.360   4.869   0.465 -0.0316 -0.0999  0.1133
  892THF     C913942   4.457   4.902   0.351  0.6409  0.4312  0.3168
  892THF    H1013943   4.277   4.802   0.439  1.0613 -2.2293  1.7560
  892THF    H1113944   4.417   4.816   0.541  2.4739  2.0179 -0.1650
  892THF    H1213945   4.541   4.833   0.341  0.0448 -0.5002  1.5135
  892THF    H1313946   4.407   4.902   0.254  0.9410  1.5947  0.1448
  893THF     O113947   0.050   0.388   0.016  0.4955 -0.4448 -0.0535
  893THF     C213948   0.029   0.361   0.158  0.3446 -0.1510 -0.1505
  893THF     C313949   0.047   0.274  -0.068  0.1053 -0.7768 -0.5783
  893THF     H413950  -0.067   0.394   0.198  0.2365  0.3051 -0.7788
  893THF     H513951   0.107   0.416   0.209  0.3189 -1.4372  1.3636
  893THF     H613952  -0.055   0.253  -0.102 -0.7924  0.8908  0.9089
  893THF     H713953   0.111   0.278  -0.156  1.2550  1.5368  0.2621
  893THF     C813954   0.084   0.163   0.022  0.0166  0.4758 -0.5813
  893THF     C913955   0.043   0.205   0.164  0.0369  0.8617 -0.4188
  893THF    H1013956   0.191   0.141   0.021 -0.1515 -0.8780  2.3245
  893THF    H1113957   0.042   0.069  -0.013 -1.1541  1.1200 -0.9613
  893THF    H1213958  -0.055   0.163   0.183  0.7898 -1.0572 -0.5298
  893THF    H1313959   0.101   0.154   0.241  0.3887  0.3298 -1.0230
  894THF     O113960   5.069   4.812   2.503 -0.5954 -0.4902 -0.0958
  894THF     C213961   5.122   4.805   2.372  0.4247  0.0307  0.0843
  894THF     C313962   5.111   4.936   2.554 -0.2556  0.2795 -0.1135
  894THF     H413963   5.044   4.747   2.323  0.8830 -1.0603  0.6061
  894THF     H513964   5.216   4.750   2.382  1.2954  1.3128 -0.6722
  894THF     H613965   5.056   4.958   2.645  0.3336 -1.2552  0.6573
  894THF     H713966   5.217   4.916   2.573  0.2702  2.2226 -0.7542
  894THF     C813967   5.103   5.033   2.440 -0.1763 -0.8057 -0.6891
  894THF     C913968   5.147   4.951   2.322  0.0683 -0.1117  0.0931
  894THF    H1013969   5.169   5.115   2.468  0.5609 -2.4998  3.1504
  894THF    H1113970   5.002   5.071   2.423  0.1607  1.8130  2.3480
  894THF    H1213971   5.082   4.982   2.240  1.1079  3.3017  0.3982
  894THF    H1313972   5.253   4.964   2.305 -0.0627 -0.5575 -1.1814
  895THF     O113973   2.187   1.998   3.583 -0.1109  0.1231  0.2341
  895THF     C213974   2.110   2.007   3.461  0.4768 -0.9977  0.7719
  895THF     C313975   2.219   1.859   3.579 -0.5791  0.2100 -0.1576
  895THF     H413976   2.067   2.106   3.445 -1.1696 -1.7389  0.2872
  895THF     H513977   2.012   1.959   3.471 -0.5977  0.8968 -0.2430
  895THF     H613978   2.299   1.829   3.647 -0.7730 -2.1582 -0.8855
  895THF     H713979   2.129   1.802   3.604 -1.2648  0.2667 -2.3307
  895THF     C813980   2.261   1.824   3.436  0.2539  0.0735 -0.0578
  895THF     C913981   2.200   1.942   3.354 -0.8410  0.1097  0.7434
  895THF    H1013982   2.254   1.720   3.406  1.7680 -0.7292  2.1012
  895THF    H1113983   2.370   1.835   3.439  0.3274 -0.5657 -0.2999
  895THF    H1213984   2.281   2.009   3.325 -1.4792 -0.0455 -1.6858
  895THF    H1313985   2.145   1.908   3.266  0.6160  2.0526 -1.0148
  896THF     O113986   4.243   4.976   5.315  0.8379 -0.1265  0.0763
  896THF     C213987   4.381   4.970   5.339  0.0823 -0.2391 -0.3897
  896THF     C313988   4.225   4.950   5.177  0.7556  0.8440  1.0922
  896THF     H413989   4.397   4.959   5.447  0.2006  0.2425 -0.3544
  896THF     H513990   4.429   5.059   5.298  0.3118 -0.7407 -1.2314
  896THF     H613991   4.131   4.899   5.157  0.0708  3.3383 -3.3888
  896THF     H713992   4.211   5.049   5.132 -1.7811  0.4909  0.9595
  896THF     C813993   4.346   4.878   5.125  0.4978  0.7579 -0.0240
  896THF     C913994   4.427   4.852   5.248  0.0256 -0.5324 -0.4229
  896THF    H1013995   4.376   4.952   5.051  1.2661  0.5052  0.0299
  896THF    H1113996   4.302   4.785   5.090 -2.2702  1.6796  0.7631
  896THF    H1213997   4.406   4.755   5.294  2.7682  0.6605  3.9436
  896THF    H1313998   4.534   4.865   5.229  0.1590 -0.2301  0.5038
  897THF     O113999   3.732   3.237   4.763 -0.3221  0.7776  0.2448
  897THF     C214000   3.787   3.363   4.746 -0.4688  0.2677  0.3834
  897THF     C314001   3.686   3.220   4.893  0.3241  1.0617  0.4002
  897THF     H414002   3.797   3.377   4.638  1.6418  0.1571  0.5115
  897THF     H514003   3.888   3.360   4.787 -0.8356  1.5354  1.4547
  897THF     H614004   3.620   3.133   4.891  0.7171  0.7616  0.3354
  897THF     H714005   3.758   3.212   4.974  0.1031  1.7266  0.6701
  897THF     C814006   3.611   3.349   4.902  0.4578  0.2215  0.3263
  897THF     C914007   3.687   3.452   4.821 -0.7851  0.2530  0.5816
  897THF    H1014008   3.592   3.396   4.999  1.5282  0.3130  0.4995
  897THF    H1114009   3.510   3.331   4.864 -0.4013  1.1440  2.0815
  897THF    H1214010   3.618   3.498   4.751 -0.0813  0.8632  0.2763
  897THF    H1314011   3.743   3.519   4.886  1.1551 -2.2850  1.6991
  898THF     O114012   5.235   1.704   0.735 -0.3876  0.3342 -0.1110
  898THF     C214013   5.273   1.607   0.644  0.1682 -0.1226 -0.0891
  898THF     C314014   5.199   1.644   0.857  0.5025 -0.2015 -0.6317
  898THF     H414015   5.346   1.642   0.572  0.1208  0.1955  0.0128
  898THF     H514016   5.176   1.587   0.597 -1.9551  1.3150  3.2649
  898THF     H614017   5.196   1.717   0.937  1.8327  0.6493 -1.3162
  898THF     H714018   5.097   1.608   0.844  0.8720 -1.3777 -0.4157
  898THF     C814019   5.299   1.538   0.875 -0.1205 -0.2308 -0.0310
  898THF     C914020   5.326   1.497   0.736  0.1331 -0.6319  0.9017
  898THF    H1014021   5.269   1.459   0.944 -2.2328 -0.6871 -1.3617
  898THF    H1114022   5.387   1.592   0.910 -0.6715 -0.6427  2.0932
  898THF    H1214023   5.433   1.476   0.728  0.1500 -0.3816  0.4087
  898THF    H1314024   5.264   1.410   0.713 -0.9247  0.3256  0.0169
  899THF     O114025   5.404   0.781   2.002 -0.5312  0.0204 -0.3199
  899THF     C214026   5.361   0.682   2.088  0.1543 -0.0105  0.0589
  899THF     C314027   5.544   0.782   2.016 -0.4936  0.0332 -0.8365
  899THF     H414028   5.352   0.590   2.031 -2.9222  1.5624 -2.3375
  899THF     H514029   5.272   0.703   2.149  0.0521  0.2079 -0.1621
  899THF     H614030   5.573   0.698   1.953 -0.2352 -0.9972  0.5777
  899THF     H714031   5.577   0.874   1.969 -1.2194 -0.2765 -1.9858
  899THF     C814032   5.578   0.758   2.159  0.2700 -0.6571  0.2983
  899THF     C914033   5.460   0.676   2.206 -0.4054  0.1010  1.2110
  899THF    H1014034   5.566   0.856   2.206 -0.1484 -0.9201  0.7461
  899THF    H1114035   5.683   0.731   2.167  1.4101  1.7127 -3.7758
  899THF    H1214036   5.475   0.570   2.227  0.0345  0.6508  4.0372
  899THF    H1314037   5.430   0.714   2.303 -2.2519  2.6721 -0.2432
  900THF     O114038   4.581   1.332   5.103  0.3019 -0.0258 -0.5227
  900THF     C214039   4.553   1.289   5.236 -0.3669 -0.7018  0.9254
  900THF     C314040   4.478   1.283   5.017  0.4705  0.4697 -0.0255
  900THF     H414041   4.583   1.360   5.313 -0.6405  1.6470 -1.0178
  900THF     H514042   4.612   1.199   5.220  1.3486  0.6213 -0.5435
  900THF     H614043   4.457   1.343   4.929  0.4975  0.0624 -0.3140
  900THF     H714044   4.514   1.184   4.991 -1.8715 -0.5880  0.4717
  900THF     C814045   4.353   1.259   5.108 -0.2319  0.1755 -0.6792
  900THF     C914046   4.408   1.252   5.247 -0.8266  0.0376 -0.7963
  900THF    H1014047   4.282   1.183   5.078  0.6607 -0.7999 -0.3786
  900THF    H1114048   4.298   1.353   5.102 -1.5318 -0.6220 -1.8577
  900THF    H1214049   4.355   1.317   5.316 -2.0733 -1.7745  0.0361
  900THF    H1314050   4.398   1.149   5.281  0.9717  0.1596  0.2013
  901THF     O114051   3.449   2.947   4.759  0.2227  0.3251  0.0548
  901THF     C214052   3.542   2.940   4.650 -0.1808 -0.0480 -0.4417
  901THF     C314053   3.398   2.818   4.792 -0.0520 -0.2288 -0.2177
  901THF     H414054   3.587   3.039   4.655  0.2009 -0.1525 -1.5434
  901THF     H514055   3.492   2.930   4.554  0.2934 -1.1211 -0.5830
  901THF     H614056   3.365   2.818   4.896 -0.3715  1.0431 -0.3013
  901THF     H714057   3.310   2.796   4.731 -0.6342  2.0649 -0.3180
  901THF     C814058   3.515   2.723   4.753 -0.0264 -1.1950 -0.1883
  901THF     C914059   3.620   2.825   4.695  0.6124 -0.1224  0.0551
  901THF    H1014060   3.490   2.643   4.683  1.7783  1.1614 -3.8067
  901THF    H1114061   3.543   2.668   4.843 -0.7075 -1.8602 -0.3747
  901THF    H1214062   3.697   2.846   4.768 -0.1285 -0.8200  1.0675
  901THF    H1314063   3.663   2.770   4.611 -1.0041 -1.2283 -0.1167
  902THF     O114064   4.229   1.553   1.970  0.1869 -0.1398  0.0671
  902THF     C214065   4.254   1.412   2.005 -0.2309 -0.3814 -0.0963
  902THF     C314066   4.331   1.602   1.883 -0.3049  0.1465 -0.1649
  902THF     H414067   4.198   1.347   1.938  0.0491 -2.8374  1.8986
  902THF     H514068   4.217   1.390   2.105  0.2590 -1.6844 -0.1840
  902THF     H614069   4.329   1.565   1.781 -1.7920  1.4241 -0.6304
  902THF     H714070   4.324   1.710   1.888 -2.6187  0.1171 -1.5156
  902THF     C814071   4.457   1.547   1.956  0.6341 -0.0018 -0.0041
  902THF     C914072   4.410   1.404   1.997  0.0703  0.2285  0.1632
  902THF    H1014073   4.480   1.611   2.041 -0.2220  0.2326  0.0667
  902THF    H1114074   4.546   1.532   1.895  1.0618  2.1620  0.0271
  902THF    H1214075   4.436   1.332   1.919  0.9570  0.4805  0.2161
  902THF    H1314076   4.463   1.364   2.084 -0.7861 -1.2628  0.0406
  903THF     O114077   0.070   3.359   3.933  0.4791 -0.0360 -0.1771
  903THF     C214078   0.063   3.419   4.059 -0.3483  0.9067 -0.1839
  903THF     C314079  -0.067   3.334   3.902 -0.0924  0.6414 -0.8531
  903THF     H414080   0.025   3.521   4.050 -1.9668  0.1305 -3.6252
  903THF     H514081   0.163   3.420   4.103 -0.3926 -1.3839  0.1118
  903THF     H614082  -0.130   3.413   3.861 -1.5344  1.1680  2.1485
  903THF     H714083  -0.061   3.254   3.829  0.8347  1.2597 -1.4853
  903THF     C814084  -0.136   3.278   4.021  0.2011  0.5597  0.1282
  903THF     C914085  -0.054   3.342   4.133 -0.2526  0.1099  0.8070
  903THF    H1014086  -0.117   3.170   4.027 -0.7756  0.4811  2.7861
  903THF    H1114087  -0.244   3.294   4.024 -0.1606 -0.5787 -2.8658
  903THF    H1214088  -0.122   3.403   4.192 -0.2212  0.3597  0.5849
  903THF    H1314089  -0.016   3.265   4.201 -0.3138 -1.9561 -1.3585
  904THF     O114090   0.099   4.531   4.488 -0.4621  0.0356  0.0794
  904THF     C214091  -0.025   4.499   4.546 -0.6554 -0.1921  0.0673
  904THF     C314092   0.073   4.599   4.372  0.4058  0.2592  1.2925
  904THF     H414093  -0.013   4.467   4.649  1.6373 -0.1212 -0.1243
  904THF     H514094  -0.062   4.415   4.488  3.6706 -2.1488 -0.3039
  904THF     H614095   0.153   4.661   4.330 -2.3760  3.1700 -0.1504
  904THF     H714096   0.052   4.526   4.294  0.5428 -0.2912  1.7606
  904THF     C814097  -0.046   4.689   4.409 -0.1389 -0.2923 -0.1872
  904THF     C914098  -0.103   4.630   4.528  0.5601 -0.0648 -0.1990
  904THF    H1014099  -0.115   4.702   4.325  0.6141 -2.2026 -1.1579
  904THF    H1114100  -0.022   4.793   4.431 -1.7846 -0.0231  0.4649
  904THF    H1214101  -0.073   4.696   4.609  2.2571 -0.0488 -0.7948
  904THF    H1314102  -0.211   4.618   4.520  0.6631 -0.6105 -0.8589
  905THF     O114103   5.436   4.869   2.045 -0.4719 -0.4454 -0.6716
  905THF     C214104   5.467   4.781   1.937  0.2636  0.3308 -0.7495
  905THF     C314105   5.398   4.986   1.992  0.8267  0.1239 -0.2927
  905THF     H414106   5.380   4.716   1.924 -0.4204  0.0144  3.9030
  905THF     H514107   5.550   4.722   1.976  1.7327  2.8022  0.0933
  905THF     H614108   5.300   5.010   2.035 -0.0517 -2.7991 -0.4124
  905THF     H714109   5.470   5.060   2.027  0.1845  1.1077 -0.9759
  905THF     C814110   5.397   4.983   1.841  0.0526  0.6118 -0.2424
  905THF     C914111   5.498   4.870   1.819 -0.4966  0.7949 -0.2335
  905THF    H1014112   5.438   5.077   1.803 -0.1407  0.3143 -1.1997
  905THF    H1114113   5.297   4.967   1.800  0.3298  0.3727 -0.8294
  905THF    H1214114   5.474   4.817   1.727 -0.9782  1.3544 -0.4318
  905THF    H1314115   5.602   4.905   1.815  1.0637 -2.3354  4.6046
  906THF     O114116   4.606   1.016   4.014 -0.1077  0.0746  0.0418
  906THF     C214117   4.480   1.075   4.041  0.3326  0.1444  0.1950
  906THF     C314118   4.698   1.102   3.946  0.3453 -0.2989 -0.2535
  906THF     H414119   4.431   1.044   4.133  0.3098  1.8333  0.7851
  906THF     H514120   4.415   1.062   3.955  2.3223  0.8665 -1.5279
  906THF     H614121   4.782   1.115   4.013 -1.0577 -0.6460  1.6671
  906THF     H714122   4.723   1.058   3.850 -0.4665 -0.6338 -0.3249
  906THF     C814123   4.636   1.238   3.934 -0.1694 -0.5751 -0.2808
  906THF     C914124   4.514   1.225   4.028 -0.4638 -0.0624 -0.5099
  906THF    H1014125   4.598   1.258   3.833 -0.5846  1.7389  0.2948
  906THF    H1114126   4.707   1.318   3.954 -2.6569  1.0548  2.7518
  906THF    H1214127   4.542   1.263   4.126  0.4658 -2.7501  0.3589
  906THF    H1314128   4.428   1.289   4.007 -0.4470  0.2186  0.2381
  907THF     O114129   4.092   5.038   4.148  0.3157  0.8582 -0.0217
  907THF     C214130   4.131   5.057   4.017  0.3971 -0.3986  0.3851
  907THF     C314131   4.081   4.902   4.174 -0.0943 -0.2913  0.2974
  907THF     H414132   4.239   5.045   4.007  0.4333 -0.1388  0.4604
  907THF     H514133   4.100   5.152   3.972 -0.4993 -1.1945 -0.7475
  907THF     H614134   4.179   4.856   4.184  0.1171 -0.1421 -0.9451
  907THF     H714135   4.030   4.894   4.270  1.7071 -4.5402  1.1314
  907THF     C814136   4.000   4.855   4.051 -0.7765 -0.8188  0.3424
  907THF     C914137   4.049   4.947   3.946 -0.5538 -0.1201 -0.2694
  907THF    H1014138   3.897   4.886   4.063  0.0238  2.5923 -0.6481
  907THF    H1114139   3.990   4.747   4.036  0.8981 -0.8585 -0.7671
  907THF    H1214140   4.117   4.904   3.873  0.6393  2.4857 -0.8255
  907THF    H1314141   3.979   4.993   3.876 -1.1740  0.6463  0.8272
  908THF     O114142   3.291   2.816   2.984  0.0978  0.2598 -0.0167
  908THF     C214143   3.260   2.723   2.878 -0.3239 -0.1396  0.6551
  908THF     C314144   3.370   2.745   3.088  0.7413 -0.4706 -0.5195
  908THF     H414145   3.344   2.704   2.812 -0.8863 -3.4302  0.7526
  908THF     H514146   3.180   2.755   2.811  1.0300 -0.4947 -1.2158
  908THF     H614147   3.474   2.768   3.068  0.3200  0.0145 -2.3471
  908THF     H714148   3.340   2.802   3.176  0.2640  1.0801 -1.6372
  908THF     C814149   3.333   2.598   3.069  0.4702 -0.1586 -0.2128
  908THF     C914150   3.226   2.601   2.957 -0.1801  0.6799 -0.4816
  908THF    H1014151   3.285   2.561   3.160  0.7122 -0.3755 -0.1735
  908THF    H1114152   3.421   2.538   3.046  1.2728 -0.4330  3.0174
  908THF    H1214153   3.228   2.509   2.899  2.8521  0.3703 -0.0807
  908THF    H1314154   3.129   2.627   3.000  1.1039  0.3015  2.9213
  909THF     O114155   2.377   4.978   4.768 -0.2599 -0.7981 -0.1640
  909THF     C214156   2.249   4.995   4.828 -0.0865 -0.4837 -0.9215
  909THF     C314157   2.460   4.891   4.844  0.1019  0.0024 -0.4377
  909THF     H414158   2.178   5.024   4.750  0.1201  1.4844 -0.4321
  909THF     H514159   2.252   5.066   4.910 -1.3286 -2.3052  0.7970
  909THF     H614160   2.538   4.845   4.782  1.1276 -3.6596  3.1168
  909THF     H714161   2.493   4.949   4.930  0.9025 -1.9980  0.6672
  909THF     C814162   2.365   4.780   4.872 -0.0541 -0.9055  0.0924
  909THF     C914163   2.231   4.850   4.883  0.4938  0.1812  0.3602
  909THF    H1014164   2.376   4.728   4.966 -0.6929  0.0941  0.7368
  909THF    H1114165   2.371   4.706   4.792 -0.8168 -0.2457 -0.6049
  909THF    H1214166   2.163   4.794   4.819 -0.8888 -0.8245  2.5810
  909THF    H1314167   2.177   4.854   4.978  0.1240 -0.9671  0.2092
  910THF     O114168   0.617   4.585   3.900 -0.3034 -0.5225  0.2000
  910THF     C214169   0.698   4.666   3.817  0.3856 -0.1348 -0.0780
  910THF     C314170   0.709   4.514   3.971 -0.6286 -1.1223  0.1460
  910THF     H414171   0.648   4.744   3.759  0.5446 -2.5153 -3.7675
  910THF     H514172   0.746   4.606   3.739  0.0993 -0.8245  0.2688
  910THF     H614173   0.660   4.468   4.057 -1.9712  0.3337  0.2041
  910THF     H714174   0.752   4.444   3.900 -1.9570 -0.0213 -1.8180
  910THF     C814175   0.816   4.615   4.018 -0.4061  0.4991  0.8764
  910THF     C914176   0.812   4.722   3.904  0.0598  0.2879 -1.1254
  910THF    H1014177   0.919   4.581   4.031 -0.2972 -0.6231 -2.2348
  910THF    H1114178   0.785   4.665   4.110 -2.8200 -0.8813  0.8885
  910THF    H1214179   0.793   4.825   3.935  0.8948 -0.0985  0.8623
  910THF    H1314180   0.911   4.724   3.859  0.4070 -0.8862 -0.4585
  911THF     O114181   1.052   3.981   1.766  0.2727  0.5031 -0.2940
  911THF     C214182   1.172   3.905   1.746  0.1640  0.5734  0.4991
  911THF     C314183   0.941   3.893   1.747 -0.0985 -0.4725  0.5119
  911THF     H414184   1.208   3.841   1.826  1.0861  1.4871  0.8464
  911THF     H514185   1.245   3.979   1.711  0.0153  0.8957  0.8676
  911THF     H614186   0.919   3.864   1.850 -1.3624 -0.1339  0.3547
  911THF     H714187   0.853   3.950   1.716  0.2417  0.4939  1.2657
  911THF     C814188   0.987   3.781   1.653 -0.0822 -0.1502 -0.2519
  911THF     C914189   1.129   3.809   1.629 -0.2680 -0.0095 -0.2893
  911THF    H1014190   0.938   3.769   1.557  0.4337 -1.1216 -0.3955
  911THF    H1114191   0.963   3.680   1.685 -0.6144 -0.0573 -0.3355
  911THF    H1214192   1.199   3.726   1.616 -0.6385 -0.2346 -0.8880
  911THF    H1314193   1.151   3.870   1.541  0.6417 -2.8861 -2.2176
  912THF     O114194   4.837   5.395   1.664 -0.7180 -0.6684 -0.7852
  912THF     C214195   4.945   5.312   1.702  0.5849  1.2256  0.5443
  912THF     C314196   4.721   5.316   1.667  0.1914  0.3852 -0.8332
  912THF     H414197   4.966   5.307   1.809  0.8140 -2.4512  0.4496
  912THF     H514198   5.034   5.353   1.655 -0.7004  2.1033 -1.2362
  912THF     H614199   4.669   5.341   1.760  1.1307 -0.7207  0.0117
  912THF     H714200   4.648   5.334   1.588 -1.7262  1.9308  1.1559
  912THF     C814201   4.771   5.164   1.680  0.5628 -0.3832 -0.3462
  912THF     C914202   4.917   5.172   1.647 -0.2543 -0.1856  0.1238
  912THF    H1014203   4.724   5.104   1.602 -0.4633  1.7428 -1.4531
  912THF    H1114204   4.756   5.113   1.775 -4.0797  1.1177 -0.0150
  912THF    H1214205   4.984   5.103   1.698 -0.2725  2.1233  3.6226
  912THF    H1314206   4.931   5.177   1.539  3.4906 -0.8158  0.4453
  913THF     O114207   4.580   5.048   2.746 -0.3020 -0.2334  0.4168
  913THF     C214208   4.649   5.169   2.775  0.1079  0.0618  0.1493
  913THF     C314209   4.615   4.963   2.849  0.1538 -0.1220  0.1115
  913THF     H414210   4.607   5.212   2.866  0.5945 -0.0316  0.4215
  913THF     H514211   4.642   5.246   2.699 -3.0459 -0.6819 -0.4296
  913THF     H614212   4.546   4.981   2.931 -0.4729  1.2814 -0.6897
  913THF     H714213   4.616   4.859   2.816  2.3731  0.0667 -0.5974
  913THF     C814214   4.760   4.996   2.881 -0.0172  0.8723  0.0039
  913THF     C914215   4.794   5.127   2.811  0.2143  0.4157  0.4370
  913THF    H1014216   4.830   4.921   2.845 -0.7599  1.4566 -2.9285
  913THF    H1114217   4.784   5.011   2.986  1.0307  2.1103 -0.3731
  913THF    H1214218   4.848   5.193   2.879 -1.7895 -0.6859  3.2958
  913THF    H1314219   4.839   5.103   2.715  1.8691 -1.8746  1.6716
  914THF     O114220   1.807   2.706   3.245 -0.2195  0.0374 -0.1651
  914THF     C214221   1.711   2.809   3.213  0.1884 -0.8043 -0.4256
  914THF     C314222   1.884   2.779   3.345 -0.0518  0.0203  0.4611
  914THF     H414223   1.625   2.751   3.180 -1.8974  1.1624  1.1559
  914THF     H514224   1.752   2.871   3.133  1.8370 -0.7637  0.3986
  914THF     H614225   1.955   2.719   3.401 -0.0326 -0.3158  0.0789
  914THF     H714226   1.949   2.849   3.292 -0.0824 -0.6103 -0.4172
  914THF     C814227   1.801   2.866   3.430  0.4092 -0.4780 -0.3594
  914THF     C914228   1.680   2.886   3.340  0.6827 -0.4710  0.1595
  914THF    H1014229   1.851   2.958   3.460 -2.1258  1.4514 -1.7243
  914THF    H1114230   1.771   2.815   3.522  0.9632  0.1880  0.2075
  914THF    H1214231   1.598   2.834   3.390 -0.2101  0.7732  0.0379
  914THF    H1314232   1.650   2.989   3.317  0.5477 -0.5453  0.0038
  915THF     O114233   4.139   1.882   0.279 -0.2659  0.1931  0.0102
  915THF     C214234   4.030   1.827   0.205  0.2313 -0.6954  1.0613
  915THF     C314235   4.111   2.022   0.282  0.1501 -0.3940 -0.8888
  915THF     H414236   4.020   1.719   0.218 -2.2326 -1.0093 -2.2273
  915THF     H514237   4.044   1.854   0.101  1.7846 -0.1459  1.3872
  915THF     H614238   4.155   2.071   0.369 -0.3525 -0.0449 -0.8286
  915THF     H714239   4.159   2.066   0.195 -0.2947 -0.5091 -1.1947
  915THF     C814240   3.956   2.047   0.275  0.1155 -0.0730 -0.4491
  915THF     C914241   3.909   1.905   0.249 -0.3834  0.0060 -0.9080
  915THF    H1014242   3.935   2.120   0.196  0.3889  0.0476 -0.4107
  915THF    H1114243   3.915   2.073   0.372 -1.9094 -2.9112 -0.4368
  915THF    H1214244   3.880   1.860   0.344  0.8852 -0.1732 -0.5818
  915THF    H1314245   3.833   1.905   0.171 -0.1148  0.3102 -1.1748
  916THF     O114246   1.430   5.374   0.765 -0.1691  0.0571  0.7010
  916THF     C214247   1.550   5.408   0.691  0.4660 -0.4397  0.0842
  916THF     C314248   1.348   5.487   0.769  0.4119  0.4432 -0.1134
  916THF     H414249   1.596   5.320   0.646  1.2513  1.6885 -3.6653
  916THF     H514250   1.624   5.437   0.766  0.4379 -1.4813  0.5258
  916THF     H614251   1.246   5.463   0.800  0.0986 -0.2271 -1.5653
  916THF     H714252   1.381   5.563   0.840 -2.3671 -0.6308  2.5480
  916THF     C814253   1.361   5.543   0.629 -0.4193  0.1819  0.4266
  916THF     C914254   1.512   5.523   0.601 -0.2362 -0.4666  0.1527
  916THF    H1014255   1.343   5.650   0.634  0.1684  0.2613  0.9009
  916THF    H1114256   1.295   5.491   0.558  0.9956 -2.0771  0.6734
  916THF    H1214257   1.526   5.510   0.494  1.1634 -0.4937  0.3223
  916THF    H1314258   1.552   5.618   0.634 -1.0791 -0.2731  0.6506
  917THF     O114259   4.644   4.470   1.494 -0.2162 -0.0623 -0.7960
  917THF     C214260   4.688   4.496   1.629 -0.3533 -0.0618 -0.1036
  917THF     C314261   4.607   4.333   1.475 -0.6390  0.3971  0.3330
  917THF     H414262   4.653   4.589   1.674  0.6807  0.5668 -0.5799
  917THF     H514263   4.796   4.495   1.639 -0.1504 -0.6852 -1.9688
  917THF     H614264   4.512   4.306   1.429 -0.4231 -2.5904  1.4449
  917THF     H714265   4.669   4.293   1.394 -2.1644  0.6954 -1.0360
  917THF     C814266   4.644   4.258   1.603 -0.3807 -0.1511 -0.1375
  917THF     C914267   4.644   4.371   1.706 -0.5337 -0.1343 -0.4947
  917THF    H1014268   4.744   4.219   1.584 -1.1963 -1.3874 -2.2022
  917THF    H1114269   4.591   4.168   1.631 -0.1766  0.0501  0.9442
  917THF    H1214270   4.543   4.386   1.744  0.7659 -0.5585  3.6117
  917THF    H1314271   4.709   4.355   1.792  0.7515 -1.0261 -1.6050
  918THF     O114272   2.918   5.361   5.429 -0.4650  0.5750 -0.0548
  918THF     C214273   2.838   5.291   5.517  0.9969  0.4206  0.3757
  918THF     C314274   2.869   5.495   5.416 -0.2211  0.3819  0.5234
  918THF     H414275   2.886   5.258   5.609  1.2411  1.1356  0.5109
  918THF     H514276   2.810   5.198   5.469 -0.9278 -0.3526  2.7825
  918THF     H614277   2.930   5.552   5.486  2.1882  1.7740 -2.4343
  918THF     H714278   2.879   5.548   5.321  1.1422  2.0322  1.5341
  918THF     C814279   2.717   5.481   5.447  0.0580 -0.2217  0.2999
  918THF     C914280   2.711   5.371   5.544  0.4901 -0.6793  0.4130
  918THF    H1014281   2.671   5.441   5.356  2.0042 -1.4741 -0.1867
  918THF    H1114282   2.667   5.577   5.463 -0.0690 -0.1869 -0.2707
  918THF    H1214283   2.714   5.418   5.643  1.0664  0.2913 -0.0508
  918THF    H1314284   2.618   5.315   5.535 -2.3946  3.2631  2.3377
  919THF     O114285   3.651   5.458   0.335  0.0833 -0.0306 -0.3809
  919THF     C214286   3.693   5.339   0.394  0.3614  0.1674  0.0803
  919THF     C314287   3.531   5.422   0.268  1.1452  0.6700  0.6778
  919THF     H414288   3.762   5.347   0.478 -0.0601  1.4132  0.3234
  919THF     H514289   3.739   5.281   0.313  2.0752  0.8374  0.5207
  919THF     H614290   3.467   5.511   0.270 -0.0288 -0.1431  0.5384
  919THF     H714291   3.568   5.388   0.172  2.5357 -0.3675  1.5369
  919THF     C814292   3.467   5.305   0.343  0.4641 -0.0262 -0.1373
  919THF     C914293   3.574   5.272   0.441  0.9150 -0.0215  0.0929
  919THF    H1014294   3.442   5.225   0.274 -0.8908 -0.1296  0.4417
  919THF    H1114295   3.370   5.338   0.382 -0.7319 -3.2011 -0.1667
  919THF    H1214296   3.553   5.292   0.546 -0.0535 -0.8660  0.0718
  919THF    H1314297   3.585   5.164   0.431  1.6190  0.0526  0.0088
  920THF     O114298   3.276   5.093   5.406 -0.2505 -0.8567 -0.2062
  920THF     C214299   3.382   5.148   5.332 -0.7066  0.0030 -0.2018
  920THF     C314300   3.184   5.198   5.439 -0.1703 -0.0748 -0.0007
  920THF     H414301   3.349   5.168   5.230  0.8276 -0.8214 -0.8882
  920THF     H514302   3.471   5.085   5.331 -0.5353  0.2193  0.6657
  920THF     H614303   3.131   5.221   5.347  0.1177  1.1132  0.1127
  920THF     H714304   3.119   5.161   5.518 -0.1682  2.7488  1.4500
  920THF     C814305   3.266   5.323   5.452 -0.1336 -0.5180 -0.2224
  920THF     C914306   3.400   5.287   5.403  0.2801  0.2242  0.6162
  920THF    H1014307   3.284   5.366   5.550  3.1331 -1.3745 -0.3250
  920THF    H1114308   3.222   5.392   5.380  1.6140 -0.3795 -1.2081
  920THF    H1214309   3.447   5.357   5.335 -1.5780  1.1572  0.2267
  920THF    H1314310   3.466   5.283   5.490  0.5647 -1.5126  0.3623
  921THF     O114311   0.728   5.216   3.562 -0.4787 -0.1097  0.3015
  921THF     C214312   0.652   5.122   3.629 -0.4696 -0.1165 -0.0861
  921THF     C314313   0.689   5.221   3.427 -0.0434  0.5096  0.2390
  921THF     H414314   0.604   5.184   3.705 -1.9642 -1.7881  0.4188
  921THF     H514315   0.714   5.043   3.671  0.6329  1.1119  0.6716
  921THF     H614316   0.699   5.321   3.385  0.8262  0.8558  1.2203
  921THF     H714317   0.747   5.154   3.364 -1.8170  1.7946 -3.0075
  921THF     C814318   0.555   5.146   3.422 -0.0671 -0.3350  0.7257
  921THF     C914319   0.563   5.049   3.528 -0.1483 -0.2354 -0.0015
  921THF    H1014320   0.551   5.090   3.329  0.8609  3.7369 -2.0247
  921THF    H1114321   0.473   5.215   3.445 -0.8313 -0.6556 -0.8893
  921THF    H1214322   0.464   5.030   3.570  0.1703  1.8928  1.9224
  921THF    H1314323   0.606   4.963   3.477 -0.8974 -0.5764 -0.0651
  922THF     O114324   2.546   5.057   4.357 -0.4256 -0.1401  0.3825
  922THF     C214325   2.523   5.187   4.317  0.1601  0.6547  0.1419
  922THF     C314326   2.467   5.041   4.469  0.5973  0.6889 -0.4173
  922THF     H414327   2.558   5.214   4.217 -0.5918  3.4286  0.5198
  922THF     H514328   2.559   5.263   4.386  0.5044  1.2820 -0.7082
  922THF     H614329   2.439   4.936   4.485  0.6963  0.7414  0.1426
  922THF     H714330   2.510   5.086   4.559 -0.3484 -1.2313  1.0772
  922THF     C814331   2.339   5.128   4.444 -0.0010  0.9359 -0.2140
  922THF     C914332   2.373   5.206   4.323  0.1645  0.7322  0.3361
  922THF    H1014333   2.331   5.198   4.527  1.9156  0.2538  0.6015
  922THF    H1114334   2.247   5.069   4.441 -0.1246  1.1465 -0.6165
  922THF    H1214335   2.318   5.175   4.234 -1.2028 -1.8592  1.9590
  922THF    H1314336   2.351   5.312   4.327  1.8520  1.2011 -1.4253
  923THF     O114337   3.944   2.178   5.194 -1.2036  0.8214 -0.2397
  923THF     C214338   4.041   2.221   5.286  0.2834 -0.3990 -0.3304
  923THF     C314339   3.871   2.072   5.249 -0.8005  0.3610 -0.5746
  923THF     H414340   3.991   2.289   5.355 -0.6067 -0.3877 -0.9732
  923THF     H514341   4.114   2.278   5.230 -0.8486 -0.0551 -1.4972
  923THF     H614342   3.796   2.101   5.322 -0.8582  2.0085 -1.2639
  923THF     H714343   3.819   2.020   5.168 -2.1906  0.7212  0.0538
  923THF     C814344   3.970   1.981   5.320 -0.3774 -0.1208 -0.5684
  923THF     C914345   4.084   2.080   5.345 -0.2018  0.0644  0.1062
  923THF    H1014346   3.990   1.908   5.241 -0.6899  0.2385 -0.9857
  923THF    H1114347   3.924   1.939   5.409  0.2003  0.6276  0.1007
  923THF    H1214348   4.117   2.091   5.448  1.0732 -0.1672 -0.2635
  923THF    H1314349   4.172   2.046   5.291 -0.0586 -0.7749  0.8524
  924THF     O114350   0.420   2.647   5.429  0.5510  0.3010 -0.4384
  924THF     C214351   0.310   2.621   5.521 -0.5302  0.4972 -0.8767
  924THF     C314352   0.532   2.586   5.489  0.2352  0.2843  0.1879
  924THF     H414353   0.268   2.520   5.521  0.3716  0.0954  0.3367
  924THF     H514354   0.221   2.683   5.509  0.0872  1.4120 -0.7962
  924THF     H614355   0.527   2.479   5.468 -0.5785  0.1885  0.8378
  924THF     H714356   0.630   2.617   5.451 -0.3973 -0.5512 -2.2872
  924THF     C814357   0.515   2.611   5.645 -0.4108  0.5146  0.9366
  924THF     C914358   0.374   2.648   5.658  0.5450  0.5012 -0.1541
  924THF    H1014359   0.586   2.692   5.666 -1.6702  1.5023  1.5022
  924THF    H1114360   0.550   2.525   5.702 -2.1206 -0.0276  1.2345
  924THF    H1214361   0.315   2.596   5.734  0.8716 -0.1942 -0.3684
  924THF    H1314362   0.370   2.754   5.683 -1.4530  0.3442  0.3246
  925THF     O114363   0.393   0.178   5.254  0.2204  0.1748  0.2362
  925THF     C214364   0.439   0.133   5.129 -0.2022 -0.5730 -0.2853
  925THF     C314365   0.483   0.125   5.353 -0.2457  0.0331  0.1750
  925THF     H414366   0.526   0.190   5.097 -0.2905  0.3156  0.9893
  925THF     H514367   0.354   0.160   5.065 -0.4437 -0.1779  0.1950
  925THF     H614368   0.582   0.169   5.342  0.9645 -2.5122  0.3286
  925THF     H714369   0.467   0.130   5.461  0.2185 -1.4767  0.3251
  925THF     C814370   0.508  -0.017   5.308 -0.4908 -0.3768  0.0236
  925THF     C914371   0.471  -0.015   5.157  0.2696 -0.1753 -0.1485
  925THF    H1014372   0.453  -0.093   5.365  0.9726 -1.6960 -0.2558
  925THF    H1114373   0.613  -0.043   5.325 -0.0943  1.1883  0.1230
  925THF    H1214374   0.568  -0.033   5.110  1.7135  1.9325  1.8377
  925THF    H1314375   0.383  -0.079   5.142 -0.5500  0.7187  0.7421
  926THF     O114376   5.477   1.464   1.712 -0.1445  0.2276 -0.1755
  926THF     C214377   5.417   1.508   1.596 -0.1463 -0.0055  0.2191
  926THF     C314378   5.562   1.563   1.748  0.1772  0.0140 -0.6091
  926THF     H414379   5.330   1.571   1.612  1.1744  2.2290 -0.9506
  926THF     H514380   5.383   1.417   1.547 -0.7754 -1.4009  3.0061
  926THF     H614381   5.514   1.652   1.788  0.3400 -0.8201  1.5544
  926THF     H714382   5.636   1.547   1.826 -1.2967  0.2727  0.8860
  926THF     C814383   5.641   1.585   1.619  0.4634 -0.0623 -0.4401
  926THF     C914384   5.523   1.579   1.515 -0.2570 -0.6665 -0.2869
  926THF    H1014385   5.720   1.510   1.612 -2.1410 -2.8918 -1.9109
  926THF    H1114386   5.692   1.681   1.614  0.4382  0.0681  1.1281
  926THF    H1214387   5.501   1.686   1.509  0.8729 -0.2905  1.6203
  926THF    H1314388   5.536   1.531   1.418  0.3879 -1.8779  0.3817
  927THF     O114389   3.497   3.535   4.238 -0.2387 -0.2472  0.3730
  927THF     C214390   3.523   3.390   4.258  0.6876  0.0144  0.3368
  927THF     C314391   3.356   3.551   4.231 -0.0017  0.0415 -0.2066
  927THF     H414392   3.626   3.381   4.292  0.8557 -2.2234 -0.6190
  927THF     H514393   3.520   3.342   4.160  1.5560  0.9428 -0.1628
  927THF     H614394   3.323   3.629   4.299 -1.6145 -1.9352  1.4264
  927THF     H714395   3.332   3.590   4.132 -0.3750  3.1980  1.0140
  927THF     C814396   3.291   3.421   4.269  0.3469 -0.3402  0.6235
  927THF     C914397   3.406   3.353   4.345 -0.0557 -1.1238 -0.5651
  927THF    H1014398   3.259   3.360   4.184 -2.3257  1.6339  0.0805
  927THF    H1114399   3.200   3.441   4.326  0.6142  1.1632  0.5674
  927THF    H1214400   3.416   3.399   4.444  1.2494 -0.6681 -0.8850
  927THF    H1314401   3.392   3.245   4.349 -0.8962 -1.0268  3.2668
  928THF     O114402   2.224   0.555   0.975 -0.2762  0.1439  0.0702
  928THF     C214403   2.325   0.486   1.050 -0.3545 -0.2436  0.2269
  928THF     C314404   2.106   0.523   1.035  0.4388 -0.5159 -0.4513
  928THF     H414405   2.426   0.521   1.029 -0.5042 -0.1458 -0.3589
  928THF     H514406   2.311   0.380   1.026 -0.1192 -0.3895  0.7359
  928THF     H614407   2.031   0.597   1.008 -0.3871 -0.7460  1.0768
  928THF     H714408   2.075   0.421   1.014  1.2462 -1.4890  2.5605
  928THF     C814409   2.135   0.524   1.182  0.3575 -0.1167  0.1149
  928THF     C914410   2.282   0.508   1.193 -0.5769 -0.3193  0.1995
  928THF    H1014411   2.079   0.443   1.229  0.5066  0.4390  1.2878
  928THF    H1114412   2.102   0.621   1.220  1.8232  0.8296 -0.9258
  928THF    H1214413   2.331   0.599   1.227  1.9670 -1.5972  0.1702
  928THF    H1314414   2.318   0.419   1.245  0.1776 -0.8645 -1.2195
  929THF     O114415   1.325   4.822   1.211  0.5441  0.2033 -0.0439
  929THF     C214416   1.200   4.803   1.274 -0.5236 -0.4443  0.3723
  929THF     C314417   1.378   4.950   1.254  0.2076  0.7537  1.0301
  929THF     H414418   1.226   4.727   1.347  1.5143 -0.1204  0.0368
  929THF     H514419   1.122   4.757   1.214 -3.6674  1.4684  2.6470
  929THF     H614420   1.486   4.956   1.268  0.1816 -0.1007  1.7112
  929THF     H714421   1.348   5.013   1.170 -1.6920 -1.8642 -0.4014
  929THF     C814422   1.305   4.994   1.375 -0.1311  0.0203 -0.0324
  929THF     C914423   1.168   4.932   1.345  0.5860  0.6558  0.5467
  929THF    H1014424   1.295   5.102   1.379 -1.2762 -0.0159 -1.4006
  929THF    H1114425   1.352   4.947   1.462 -0.0487 -0.3987 -0.2971
  929THF    H1214426   1.108   4.907   1.433  0.2260 -1.3754 -0.2270
  929THF    H1314427   1.101   4.990   1.282  1.5990 -0.0687 -1.2712
  930THF     O114428   0.195   0.460   2.794  0.2136  0.8481  0.8204
  930THF     C214429   0.148   0.566   2.883  0.4546 -0.4861 -0.6306
  930THF     C314430   0.183   0.509   2.659  0.8736  0.8425  0.0626
  930THF     H414431   0.223   0.642   2.906  1.8600 -2.0430  0.1178
  930THF     H514432   0.118   0.528   2.980  1.5726 -0.4489 -0.2558
  930THF     H614433   0.266   0.572   2.626 -0.3357  1.3352 -2.3097
  930THF     H714434   0.177   0.435   2.579 -0.0309 -0.7260  1.5287
  930THF     C814435   0.054   0.577   2.660 -0.0821 -0.4381 -0.1029
  930THF     C914436   0.031   0.621   2.806  0.3260 -0.0379  0.7933
  930THF    H1014437  -0.027   0.507   2.641 -0.2674 -0.2449 -0.0277
  930THF    H1114438   0.053   0.656   2.585  0.9930 -0.1734  0.1378
  930THF    H1214439   0.002   0.725   2.820  0.4594  0.7345 -3.4846
  930THF    H1314440  -0.054   0.566   2.846 -0.2355  0.5038  0.3533
  931THF     O114441   3.394   1.184   5.056 -0.2202  0.1337  0.3640
  931THF     C214442   3.292   1.115   4.989 -0.5636  0.2203  0.4864
  931THF     C314443   3.364   1.319   5.092 -0.7727  0.5805  0.2886
  931THF     H414444   3.303   1.007   4.992 -0.3226  0.2578  0.9386
  931THF     H514445   3.276   1.154   4.888 -0.5185  0.7384  0.6752
  931THF     H614446   3.409   1.339   5.189 -1.7642 -2.2098  1.4281
  931THF     H714447   3.396   1.390   5.015  2.3469  0.8534  1.6842
  931THF     C814448   3.211   1.305   5.106 -0.0829  0.3115  0.5879
  931THF     C914449   3.175   1.160   5.070 -0.1858 -0.4678  0.0147
  931THF    H1014450   3.161   1.376   5.040 -0.9051 -0.6828  0.1013
  931THF    H1114451   3.186   1.342   5.206 -1.3890 -0.1892  0.4676
  931THF    H1214452   3.184   1.097   5.159  1.3269 -1.8979 -1.0681
  931THF    H1314453   3.074   1.152   5.031 -0.5674  0.5659  0.7575
  932THF     O114454   3.473   3.525   0.139  1.1126  0.0736 -0.2984
  932THF     C214455   3.386   3.504   0.031  0.6210 -0.4909 -0.5198
  932THF     C314456   3.556   3.408   0.145  0.5916  0.0376 -0.7795
  932THF     H414457   3.344   3.599  -0.001 -1.5637 -1.3015 -0.2047
  932THF     H514458   3.299   3.445   0.060  0.2469  0.1915 -0.2135
  932THF     H614459   3.648   3.446   0.188  0.8795 -0.0951 -1.2689
  932THF     H714460   3.509   3.333   0.208  0.4987 -0.4706 -1.4448
  932THF     C814461   3.562   3.349  -0.000  0.3643  0.5219  0.0310
  932THF     C914462   3.467   3.435  -0.082  0.9572  0.2769 -0.1661
  932THF    H1014463   3.511   3.253  -0.002 -2.0252  1.6576  1.6563
  932THF    H1114464   3.656   3.336  -0.054  0.7024  0.9270  0.5129
  932THF    H1214465   3.528   3.512  -0.129  0.8075  1.6451  1.7580
  932THF    H1314466   3.396   3.380  -0.144 -0.8474  1.1798  1.0157
  933THF     O114467   5.464   2.189   0.441 -0.4014  0.1374  0.1629
  933THF     C214468   5.441   2.235   0.310  0.6671 -0.2210 -0.4161
  933THF     C314469   5.467   2.050   0.451  0.0806 -0.4647  0.3873
  933THF     H414470   5.536   2.273   0.275  0.9776  0.7871  1.3863
  933THF     H514471   5.366   2.315   0.314  1.5924  0.6316  2.7157
  933THF     H614472   5.540   2.025   0.527 -1.9466 -1.0591  2.2442
  933THF     H714473   5.374   2.013   0.494 -0.1813  1.5330  1.6623
  933THF     C814474   5.485   2.001   0.304 -0.2669  0.8143  0.4218
  933THF     C914475   5.420   2.116   0.226 -0.6372 -0.4948 -0.0868
  933THF    H1014476   5.444   1.903   0.282  0.4464  0.6081 -0.0219
  933THF    H1114477   5.591   1.991   0.283 -0.3402 -3.4722  1.1727
  933THF    H1214478   5.463   2.132   0.127 -1.6687 -0.6978 -0.5776
  933THF    H1314479   5.312   2.100   0.223 -1.0265  1.9306 -1.5946
  934THF     O114480   3.306   1.950   1.451  0.4332 -0.0258  0.0147
  934THF     C214481   3.329   2.091   1.425 -0.6079 -0.2087  0.1238
  934THF     C314482   3.429   1.908   1.496  0.1215  0.0939 -0.5512
  934THF     H414483   3.323   2.158   1.511 -0.2679  0.9340 -0.7027
  934THF     H514484   3.242   2.125   1.368  0.5711  0.5863 -1.2866
  934THF     H614485   3.450   1.944   1.597  0.4394 -1.2399 -0.1211
  934THF     H714486   3.441   1.800   1.498 -0.6723 -0.0716  3.2589
  934THF     C814487   3.531   1.972   1.400  0.0422  0.6397  0.1420
  934THF     C914488   3.468   2.105   1.361 -0.2440 -0.1931 -0.4277
  934THF    H1014489   3.558   1.916   1.311 -0.0815 -2.6833  2.0418
  934THF    H1114490   3.629   1.988   1.445  0.1120  2.5711 -0.5879
  934THF    H1214491   3.528   2.191   1.391 -0.7352 -0.2347  0.7243
  934THF    H1314492   3.468   2.106   1.252 -0.4311 -0.3155 -0.4299
  935THF     O114493   1.703   1.777   0.986  0.3428 -0.5401  0.3342
  935THF     C214494   1.831   1.830   0.952  0.1689  0.0570 -0.3058
  935THF     C314495   1.673   1.821   1.113 -0.0226 -0.2311  0.2690
  935THF     H414496   1.850   1.833   0.845  1.2008 -2.7031 -0.2908
  935THF     H514497   1.911   1.769   0.996  0.3068  0.6137  0.2330
  935THF     H614498   1.565   1.832   1.121 -0.1614 -0.7973 -0.6784
  935THF     H714499   1.708   1.751   1.189  1.6134 -0.1746 -0.3878
  935THF     C814500   1.748   1.952   1.139 -0.2617 -0.1519 -0.6293
  935THF     C914501   1.835   1.974   1.014 -0.4351  1.2526  0.1055
  935THF    H1014502   1.803   1.938   1.232  0.1970  2.5780 -0.3916
  935THF    H1114503   1.685   2.040   1.157  0.6997  0.5006 -0.3573
  935THF    H1214504   1.789   2.049   0.950 -1.4314  0.2145 -0.4295
  935THF    H1314505   1.934   2.013   1.037  0.3009 -0.3429 -0.1718
  936THF     O114506   2.291   2.793   5.181 -0.3609  0.6945  0.2793
  936THF     C214507   2.217   2.707   5.096 -0.5622  1.2908  0.1468
  936THF     C314508   2.432   2.781   5.156 -0.4731  0.4780  0.4654
  936THF     H414509   2.170   2.775   5.025 -2.0967  1.5557  1.3666
  936THF     H514510   2.134   2.654   5.142  0.2280 -0.3357 -0.2436
  936THF     H614511   2.490   2.873   5.159  3.3025 -1.5753 -1.4656
  936THF     H714512   2.476   2.718   5.234  1.6699  1.4303  0.1153
  936THF     C814513   2.443   2.710   5.022 -0.3317  0.8649  0.2965
  936THF     C914514   2.319   2.620   5.027 -0.1144  0.0530  0.2569
  936THF    H1014515   2.537   2.654   5.013  0.6137  2.5175 -0.4638
  936THF    H1114516   2.435   2.785   4.943  0.8902  1.2039  0.4754
  936THF    H1214517   2.286   2.573   4.934 -1.0038  3.1659 -1.1402
  936THF    H1314518   2.347   2.538   5.093  2.2951 -1.8274 -2.8151
  937THF     O114519   0.854   0.869   1.351  0.4018 -0.0777 -0.5250
  937THF     C214520   0.817   0.942   1.229  0.0402  0.4040 -0.3241
  937THF     C314521   0.924   0.747   1.315  0.8552  0.1430 -0.4084
  937THF     H414522   0.860   1.042   1.237  2.0471 -0.4708  0.4920
  937THF     H514523   0.710   0.949   1.209 -0.1856  0.7538  0.9042
  937THF     H614524   1.026   0.783   1.329  0.5943  0.7251  0.0415
  937THF     H714525   0.911   0.661   1.380  4.3756  0.4725  0.9131
  937THF     C814526   0.887   0.731   1.163 -0.2209 -0.2667  0.3396
  937THF     C914527   0.879   0.872   1.109 -0.1167  0.2616  0.0113
  937THF    H1014528   0.788   0.688   1.144 -0.1469  0.4654 -1.9677
  937THF    H1114529   0.970   0.677   1.119  2.3911  0.2512  4.1208
  937THF    H1214530   0.977   0.919   1.092 -1.2661  2.9386  0.2556
  937THF    H1314531   0.817   0.869   1.020  0.3290  0.0671 -0.2941
  938THF     O114532   2.647   3.688   2.690  0.1963  0.2152  0.7052
  938THF     C214533   2.713   3.809   2.738 -0.3470  0.1155 -0.1899
  938THF     C314534   2.522   3.741   2.653  0.4719 -0.2989 -0.2187
  938THF     H414535   2.822   3.800   2.741 -0.3011  0.3604 -0.9729
  938THF     H514536   2.681   3.844   2.836 -1.5841 -1.2715 -0.0552
  938THF     H614537   2.485   3.649   2.608  1.0617 -1.0293  0.7337
  938THF     H714538   2.460   3.762   2.741  0.2596 -2.9183  0.3456
  938THF     C814539   2.542   3.867   2.571  0.2914 -0.0388  0.0703
  938THF     C914540   2.677   3.906   2.621 -0.3763  0.2085 -0.0730
  938THF    H1014541   2.468   3.943   2.596  0.0625 -0.5915  1.1320
  938THF    H1114542   2.546   3.842   2.465  1.4919 -1.1171  0.3458
  938THF    H1214543   2.752   3.897   2.543  0.3632  2.6460  0.2952
  938THF    H1314544   2.674   4.010   2.653  0.4145  0.4485 -0.7676
  939THF     O114545   4.222   3.986   1.654 -0.3835  0.2585 -0.0389
  939THF     C214546   4.095   3.917   1.688 -0.5497 -0.8191 -0.6550
  939THF     C314547   4.337   3.898   1.657 -0.1743  0.1213 -0.2230
  939THF     H414548   4.008   3.957   1.636  0.0263  0.4004 -0.7145
  939THF     H514549   4.076   3.931   1.794  0.3216  3.4293 -0.9128
  939THF     H614550   4.389   3.879   1.563  0.3356 -3.1948  0.5950
  939THF     H714551   4.408   3.926   1.734  0.0140 -1.0417  0.0373
  939THF     C814552   4.277   3.763   1.692  0.9835  0.0880  0.4540
  939THF     C914553   4.132   3.773   1.650  0.1693  0.3993  0.4899
  939THF    H1014554   4.269   3.740   1.798 -0.3991  2.0463  0.8304
  939THF    H1114555   4.346   3.687   1.655  1.4595  0.9605 -0.5062
  939THF    H1214556   4.120   3.781   1.542  0.6861  0.1822  0.4121
  939THF    H1314557   4.070   3.693   1.690 -1.0966  0.1121 -1.9088
  940THF     O114558   4.285   3.665   2.153  0.0949  0.2384 -0.0672
  940THF     C214559   4.221   3.787   2.132 -0.2738  0.6690  0.6607
  940THF     C314560   4.422   3.682   2.135 -0.5508  0.3616  0.2752
  940THF     H414561   4.134   3.799   2.196 -2.6316 -2.8501 -1.5401
  940THF     H514562   4.172   3.797   2.035  1.8246  3.7240 -0.2693
  940THF     H614563   4.488   3.666   2.220  1.0516  0.8316 -0.8335
  940THF     H714564   4.460   3.608   2.064  2.8875  2.7791 -0.6622
  940THF     C814565   4.450   3.819   2.070 -0.0977  0.5548  0.2781
  940THF     C914566   4.322   3.891   2.116  0.1828 -0.6516 -0.1491
  940THF    H1014567   4.457   3.807   1.962  0.4722  1.4241  0.2117
  940THF    H1114568   4.547   3.857   2.102  0.9976 -1.9688  0.1865
  940THF    H1214569   4.327   3.949   2.208  1.3406 -1.4837  0.3372
  940THF    H1314570   4.292   3.968   2.046 -0.1515 -0.3763  0.2924
  941PF6-    P114571   2.816   0.479   0.006  0.3443 -0.4342  0.2188
  941PF6-    F214572   2.705   0.546  -0.091 -0.2028 -0.1548  0.3318
  941PF6-    F314573   2.926   0.426   0.113 -0.4800  0.3973  0.2152
  941PF6-    F414574   2.882   0.628   0.015  0.0660  0.3498  0.2978
  941PF6-    F514575   2.750   0.332  -0.015 -0.0216 -0.1635 -0.2532
  941PF6-    F614576   2.910   0.449  -0.118 -0.0057  0.5319  0.5375
  941PF6-    F714577   2.710   0.512   0.125 -0.6218 -0.2474 -0.3189
  942PF6-    P114578   2.940   4.988   3.523 -0.0818 -0.0139  0.2057
  942PF6-    F214579   3.028   5.059   3.638 -0.0896  0.1113  0.6872
  942PF6-    F314580   2.846   4.917   3.404  0.0113  0.0163  0.1015
  942PF6-    F414581   3.055   4.877   3.508 -0.0349  0.4225 -0.4540
  942PF6-    F514582   2.828   5.107   3.541  0.0776 -0.2986 -0.3062
  942PF6-    F614583   3.014   5.070   3.406  0.4405  0.0703 -0.4743
  942PF6-    F714584   2.875   4.891   3.632 -0.2104 -0.1494 -0.2810
  943PF6-    P114585   5.067   3.687   1.291  0.1866 -0.0504  0.2981
  943PF6-    F214586   5.153   3.631   1.411 -0.2142  0.3720  0.0372
  943PF6-    F314587   4.984   3.748   1.163 -0.0845 -0.4209  0.5812
  943PF6-    F414588   5.197   3.759   1.235  0.3864 -0.3449  0.4690
  943PF6-    F514589   4.941   3.607   1.340 -0.1079 -0.4788 -0.7485
  943PF6-    F614590   5.031   3.807   1.384 -0.1438  0.1442  0.0318
  943PF6-    F714591   5.101   3.563   1.192  0.1405  0.1263  0.2239
  944PF6-    P114592   3.044   3.717   4.064  0.3946 -0.4396  0.3020
  944PF6-    F214593   3.096   3.579   4.015  0.3760  0.0701 -0.2643
  944PF6-    F314594   2.982   3.854   4.128 -0.2524 -0.1297 -0.4173
  944PF6-    F414595   3.064   3.664   4.213 -0.3266  0.4079 -0.3919
  944PF6-    F514596   3.031   3.767   3.911 -0.4249 -0.5435  0.2180
  944PF6-    F614597   2.891   3.655   4.053 -0.0617  0.4084 -0.0265
  944PF6-    F714598   3.189   3.781   4.067 -0.0304 -0.3427 -0.2775
  945PF6-    P114599   5.443   0.140   1.406 -0.1617  0.0309  0.2939
  945PF6-    F214600   5.478   0.251   1.294 -0.0676  0.1231  0.4274
  945PF6-    F314601   5.406   0.031   1.520 -0.2594 -0.7085  0.3224
  945PF6-    F414602   5.518   0.229   1.511 -0.2861 -0.2901  0.1578
  945PF6-    F514603   5.370   0.051   1.291 -0.1300 -0.4167 -0.2369
  945PF6-    F614604   5.579   0.068   1.380 -0.4916  0.0856  0.2271
  945PF6-    F714605   5.314   0.222   1.433 -0.6316  0.1253  0.0808
  946PF6-    P114606   2.407   1.299   1.469  0.4180  0.0469  0.1971
  946PF6-    F214607   2.336   1.231   1.590  0.7110  0.5345  0.0080
  946PF6-    F314608   2.495   1.368   1.358  0.4656 -0.0373  1.0929
  946PF6-    F414609   2.449   1.156   1.415 -0.0457  0.5918  0.4419
  946PF6-    F514610   2.363   1.443   1.523 -0.0184 -0.0420  0.1489
  946PF6-    F614611   2.542   1.301   1.558  0.4619 -0.0970 -0.1667
  946PF6-    F714612   2.276   1.293   1.376 -0.3744 -0.0639  0.2504
  947PF6-    P114613   1.399   1.658   5.445  0.2142  0.1466 -0.1361
  947PF6-    F214614   1.514   1.636   5.333  0.5927 -0.1373  0.1718
  947PF6-    F314615   1.286   1.679   5.565  0.1438 -0.5098 -0.0059
  947PF6-    F414616   1.393   1.818   5.422  0.4195 -0.4413  0.1233
  947PF6-    F514617   1.397   1.503   5.469  0.3775 -0.4201 -0.2561
  947PF6-    F614618   1.507   1.684   5.565 -0.1109 -0.2708  0.1238
  947PF6-    F714619   1.283   1.637   5.337  0.3991  0.3892  0.1124
  948PF6-    P114620   5.135   4.514   4.849  0.2309 -0.0841 -0.1189
  948PF6-    F214621   5.161   4.672   4.885 -0.5083  0.4079  0.0346
  948PF6-    F314622   5.111   4.359   4.822  0.7132 -0.5026  0.4338
  948PF6-    F414623   5.283   4.490   4.824 -0.2582 -0.4971  0.1841
  948PF6-    F514624   4.973   4.536   4.865  0.0150 -0.7998 -0.1931
  948PF6-    F614625   5.123   4.556   4.703 -0.3058  0.1346  0.1408
  948PF6-    F714626   5.143   4.483   5.008  0.0861  0.4907 -0.3131
  949PF6-    P114627   4.263   0.994   1.746  0.7259 -0.2742  0.2992
  949PF6-    F214628   4.412   0.955   1.784 -0.2825  0.0054 -0.9306
  949PF6-    F314629   4.111   1.029   1.702 -0.1669 -0.4091 -0.6676
  949PF6-    F414630   4.318   1.142   1.725  0.2476 -0.3717  0.0290
  949PF6-    F514631   4.216   0.845   1.770 -0.4123  0.4095  0.2554
  949PF6-    F614632   4.230   1.035   1.895  0.5145  0.0539  0.3545
  949PF6-    F714633   4.294   0.961   1.594 -0.6365  0.0033  0.0486
  950PF6-    P114634   0.900   1.908   1.698 -0.1183  0.2969 -0.1300
  950PF6-    F214635   1.037   1.915   1.607  0.6609  0.6692 -0.1914
  950PF6-    F314636   0.765   1.901   1.783  0.1376  0.3435  0.3528
  950PF6-    F414637   0.912   2.069   1.719  0.3361  0.0234 -0.0073
  950PF6-    F514638   0.885   1.748   1.687 -0.3562 -0.0835 -0.2800
  950PF6-    F614639   0.990   1.887   1.830  0.1280  0.1849  0.5204
  950PF6-    F714640   0.809   1.928   1.569  0.5799  0.6439  0.2376
  951PF6-    P114641   0.947   3.494   0.162  0.5021 -0.1834 -0.2432
  951PF6-    F214642   0.785   3.489   0.184  0.3140  0.0215  0.1625
  951PF6-    F314643   1.104   3.508   0.136  0.2345 -0.2947 -0.1559
  951PF6-    F414644   0.968   3.530   0.312 -0.1158 -0.8155 -0.1902
  951PF6-    F514645   0.925   3.458   0.006  0.5592  0.2987 -0.0923
  951PF6-    F614646   0.930   3.642   0.117 -0.1115  0.2414  0.6943
  951PF6-    F714647   0.962   3.337   0.205 -0.8207  0.3486  0.4191
  952PF6-    P114648   5.240   1.524   4.433 -0.3394 -0.6775 -0.2539
  952PF6-    F214649   5.298   1.504   4.579 -0.3538  0.0986  0.5800
  952PF6-    F314650   5.185   1.546   4.289 -0.3897  0.4387  0.3718
  952PF6-    F414651   5.363   1.629   4.405 -0.0561 -0.0881 -0.0624
  952PF6-    F514652   5.119   1.422   4.476 -0.3657 -0.9374  0.7140
  952PF6-    F614653   5.148   1.645   4.487  0.3561  0.0457 -0.0043
  952PF6-    F714654   5.329   1.405   4.374 -0.4310  0.5626 -0.2307
  953PF6-    P114655   3.217   3.809   2.894 -0.3529  0.0141 -0.5101
  953PF6-    F214656   3.330   3.696   2.895 -0.1069 -0.1764 -0.0035
  953PF6-    F314657   3.115   3.929   2.895  0.3937 -0.3765 -0.0966
  953PF6-    F414658   3.299   3.882   3.003 -0.2428 -0.0862  0.2110
  953PF6-    F514659   3.128   3.729   2.784 -0.0378 -0.0504  0.3980
  953PF6-    F614660   3.140   3.743   3.018 -0.4131  0.0335  0.1905
  953PF6-    F714661   3.300   3.884   2.782  0.9007  0.2364 -0.8061
  954PF6-    P114662   4.766   3.829   3.894 -0.3644 -0.3813  0.4423
  954PF6-    F214663   4.851   3.778   3.769 -0.3126 -0.2151 -0.5895
  954PF6-    F314664   4.691   3.883   4.022 -0.3269  0.0896  0.1321
  954PF6-    F414665   4.635   3.757   3.845 -0.0648  0.2440  0.5094
  954PF6-    F514666   4.900   3.908   3.949  0.9237 -0.1833 -0.3086
  954PF6-    F614667   4.721   3.956   3.813 -0.1828 -0.3285 -0.1321
  954PF6-    F714668   4.808   3.705   3.978  0.3140 -0.0374  0.2923
  955PF6-    P114669   2.879   2.782   0.222  0.0685  0.1537 -0.0627
  955PF6-    F214670   2.966   2.656   0.173  0.1444  0.4179 -0.1588
  955PF6-    F314671   2.798   2.908   0.280 -0.1540  0.6284  0.0142
  955PF6-    F414672   2.888   2.847   0.074  0.0800  0.4216  0.5901
  955PF6-    F514673   2.861   2.716   0.367 -0.0358 -0.0936 -0.0157
  955PF6-    F614674   3.014   2.854   0.272  0.6410  0.0384  0.3562
  955PF6-    F714675   2.740   2.717   0.171 -0.0797 -0.1565  0.3188
  956PF6-    P114676   2.468   0.941   2.507 -0.6220 -0.0704  0.1267
  956PF6-    F214677   2.628   0.929   2.509  0.0530 -0.2155  0.0499
  956PF6-    F314678   2.308   0.951   2.493  0.0280 -0.1044  0.1140
  956PF6-    F414679   2.457   0.794   2.571  0.2573  0.0084  0.3232
  956PF6-    F514680   2.480   1.091   2.435  0.3166  0.1057  0.0297
  956PF6-    F614681   2.479   0.868   2.364 -0.0631 -0.1604 -1.0135
  956PF6-    F714682   2.467   1.008   2.655  0.3656  0.1124  0.7349
  957PF6-    P114683   3.987   4.087   3.263  0.1976  0.0479 -0.2205
  957PF6-    F214684   4.145   4.072   3.289  0.5052  0.0825 -0.3396
  957PF6-    F314685   3.826   4.097   3.233 -0.5905  0.1331 -0.0923
  957PF6-    F414686   3.963   3.999   3.400  0.3959 -0.8106 -0.0578
  957PF6-    F514687   4.019   4.173   3.131 -0.4472 -0.0037  0.3002
  957PF6-    F614688   3.989   3.951   3.173 -0.8945 -0.4629  0.4376
  957PF6-    F714689   3.982   4.224   3.355  0.5147 -0.0226  0.1899
  958PF6-    P114690   0.299   4.395   0.448  0.0943 -0.1177 -0.2351
  958PF6-    F214691   0.271   4.386   0.289 -0.3270 -0.2207  0.2731
  958PF6-    F314692   0.324   4.417   0.605  0.1562  0.4071  0.1769
  958PF6-    F414693   0.205   4.272   0.471 -0.2510  0.0714 -0.2760
  958PF6-    F514694   0.388   4.526   0.420 -0.2468 -0.3207 -0.0963
  958PF6-    F614695   0.176   4.497   0.456  0.3258 -0.2408 -0.4250
  958PF6-    F714696   0.427   4.301   0.434  0.0349  0.0415  0.2993
  959PF6-    P114697   2.050   1.267   0.418 -0.1688  0.1089 -0.0721
  959PF6-    F214698   2.008   1.373   0.307  0.1641 -0.1837  0.8225
  959PF6-    F314699   2.097   1.152   0.517  0.0761  0.4106 -0.6212
  959PF6-    F414700   2.184   1.345   0.447  0.0993  0.6471 -0.0034
  959PF6-    F514701   1.917   1.181   0.393  0.2745  0.1298  0.1868
  959PF6-    F614702   2.124   1.179   0.306 -0.3791  0.4413 -0.0012
  959PF6-    F714703   1.977   1.348   0.531  0.3462 -0.4143 -0.0555
  960PF6-    P114704   1.812   5.224   3.456  0.4011 -0.4798  0.3508
  960PF6-    F214705   1.702   5.244   3.570 -0.3383 -0.0599 -0.9394
  960PF6-    F314706   1.917   5.212   3.345  0.1126  0.4735  0.8345
  960PF6-    F414707   1.888   5.356   3.507  0.0500 -0.2874  0.3274
  960PF6-    F514708   1.743   5.088   3.415 -0.4375 -0.2620 -0.4395
  960PF6-    F614709   1.715   5.308   3.357  0.2143 -0.4342  0.5264
  960PF6-    F714710   1.915   5.141   3.552 -0.5958  0.2674 -0.0159
  961PF6-    P114711   4.826   5.355   4.113 -0.4783  0.0952  0.4262
  961PF6-    F214712   4.665   5.345   4.115 -0.1857  0.1166 -0.1536
  961PF6-    F314713   4.986   5.367   4.103  0.4204 -0.5902  0.0757
  961PF6-    F414714   4.813   5.486   4.020  0.1452  0.2571  0.1365
  961PF6-    F514715   4.843   5.224   4.204 -0.3025  0.5558  0.0287
  961PF6-    F614716   4.829   5.257   3.978 -0.0914  0.3791 -0.0887
  961PF6-    F714717   4.821   5.450   4.246 -0.0864  0.7293  0.2949
  962PF6-    P114718   1.964   4.157   3.136  0.1400 -0.5470 -0.2247
  962PF6-    F214719   1.817   4.126   3.186 -0.4285 -0.9661  0.3578
  962PF6-    F314720   2.111   4.199   3.078 -0.4025  0.1588 -0.2769
  962PF6-    F414721   1.942   4.314   3.170  0.5888 -0.3182  0.1942
  962PF6-    F514722   1.997   4.009   3.099 -0.7231  0.7136  0.4645
  962PF6-    F614723   1.906   4.182   2.987 -0.2022  0.4171  0.5701
  962PF6-    F714724   2.031   4.131   3.280  0.1360  0.1204  0.5183
  963PF6-    P114725   0.341   4.528   3.417  0.1734  0.2129  0.6816
  963PF6-    F214726   0.385   4.681   3.389 -0.0108 -0.4011  0.0945
  963PF6-    F314727   0.298   4.375   3.433  0.4256 -0.2158 -0.2440
  963PF6-    F414728   0.259   4.526   3.278  0.3884 -0.0991  0.1413
  963PF6-    F514729   0.426   4.523   3.550  0.3981  0.0073 -0.0847
  963PF6-    F614730   0.208   4.575   3.502  0.1296  0.2940  0.6976
  963PF6-    F714731   0.469   4.475   3.332  0.1976  0.1681  0.0657
  964PF6-    P114732   3.779   4.145   0.360 -0.5641  0.2854  0.0666
  964PF6-    F214733   3.826   4.023   0.269  0.3404 -0.5862 -0.2759
  964PF6-    F314734   3.742   4.265   0.450 -0.2574 -0.2701 -0.5803
  964PF6-    F414735   3.925   4.216   0.346  0.0459  0.7330 -0.4895
  964PF6-    F514736   3.626   4.088   0.371 -0.5931  0.7300 -0.2434
  964PF6-    F614737   3.821   4.068   0.493 -0.8396 -0.3062 -0.5015
  964PF6-    F714738   3.723   4.228   0.233  0.0817 -0.1311 -0.8483
  965PF6-    P114739   2.966   2.836   3.278 -0.2689  0.2245  0.3054
  965PF6-    F214740   2.925   2.724   3.169  0.1794 -0.1112 -0.5176
  965PF6-    F314741   3.017   2.943   3.387 -0.0961 -0.0357  0.2952
  965PF6-    F414742   3.085   2.738   3.337 -0.2779 -0.0357  0.0278
  965PF6-    F514743   2.856   2.939   3.223 -0.6937 -0.1066 -0.2688
  965PF6-    F614744   2.852   2.773   3.373 -0.2852 -0.2230 -0.1689
  965PF6-    F714745   3.072   2.898   3.184  0.7189  0.3229 -0.1513
  966PF6-    P114746   3.684   5.190   2.063  0.0448  0.1427 -0.4187
  966PF6-    F214747   3.809   5.274   2.006  0.5837 -0.2779  0.2661
  966PF6-    F314748   3.567   5.103   2.124  0.3285 -0.4536  0.1800
  966PF6-    F414749   3.596   5.320   2.083 -0.2335  0.0671 -0.2743
  966PF6-    F514750   3.766   5.053   2.041 -0.1863  0.6767 -0.5620
  966PF6-    F614751   3.751   5.202   2.209  0.1998  0.4674  0.1640
  966PF6-    F714752   3.621   5.171   1.918 -0.4654  0.2693 -0.0132
  967PF6-    P114753   4.501   2.974   3.052  0.0061  0.3017  0.1141
  967PF6-    F214754   4.347   3.008   3.091  0.2738  0.0900  0.4481
  967PF6-    F314755   4.655   2.944   3.013 -0.2813 -0.4660  0.6666
  967PF6-    F414756   4.483   3.054   2.916 -0.1138  0.3671  0.1227
  967PF6-    F514757   4.510   2.883   3.176 -0.7923 -0.1143  0.4540
  967PF6-    F614758   4.456   2.841   2.963  0.1472  0.1359 -0.7015
  967PF6-    F714759   4.540   3.103   3.140  0.0428  0.3883 -0.4615
  968PF6-    P114760   2.528   4.360   4.162 -0.1055 -0.0951  0.1014
  968PF6-    F214761   2.545   4.447   4.022  0.1632 -0.0420  0.1532
  968PF6-    F314762   2.513   4.272   4.293 -0.5345 -0.2936 -0.0882
  968PF6-    F414763   2.539   4.221   4.076 -0.5442 -0.4531  0.7635
  968PF6-    F514764   2.516   4.490   4.247  0.4670  0.4273 -0.6350
  968PF6-    F614765   2.366   4.360   4.148  0.5129 -0.4548  0.1000
  968PF6-    F714766   2.689   4.354   4.179 -0.6179  0.0533  0.2778
  969PF6-    P114767   1.894   0.128   1.657  0.0361  0.0085  0.0634
  969PF6-    F214768   1.833   0.275   1.656  0.2897  0.3233 -0.3001
  969PF6-    F314769   1.952  -0.020   1.657 -0.2233 -0.2644 -0.4788
  969PF6-    F414770   2.037   0.190   1.619 -0.6523  0.0804  0.7924
  969PF6-    F514771   1.745   0.073   1.694 -0.4768 -0.3722  0.0840
  969PF6-    F614772   1.859   0.120   1.502 -0.1210 -0.2284 -0.2175
  969PF6-    F714773   1.932   0.137   1.809 -0.2818 -0.0117  0.4076
  970PF6-    P114774   1.348   2.982   4.327 -0.6223 -0.2032  0.3367
  970PF6-    F214775   1.444   2.886   4.421  0.1576  0.0295  0.1469
  970PF6-    F314776   1.250   3.069   4.244  0.5042  0.2840  0.0266
  970PF6-    F414777   1.364   2.869   4.213 -0.5661  0.1259 -0.0267
  970PF6-    F514778   1.341   3.080   4.450 -0.1632 -0.2057 -0.2284
  970PF6-    F614779   1.473   3.062   4.271  0.0936 -0.1066 -0.3142
  970PF6-    F714780   1.222   2.905   4.389 -0.2925  0.7596  0.0780
  971PF6-    P114781   0.668   3.967   2.247 -0.0998 -0.6521 -0.0559
  971PF6-    F214782   0.597   3.826   2.266 -0.0451 -0.3391 -0.1815
  971PF6-    F314783   0.734   4.107   2.219 -0.6089  0.0963  0.6274
  971PF6-    F414784   0.537   4.016   2.162  0.1970 -0.5501 -0.0255
  971PF6-    F514785   0.800   3.921   2.329 -0.2406  0.1566  0.3694
  971PF6-    F614786   0.738   3.911   2.112  0.1056  0.3861  0.1296
  971PF6-    F714787   0.616   4.021   2.387  0.0171  0.2111  0.3206
  972PF6-    P114788   3.530   0.933   2.486  0.4115 -0.2586  0.3873
  972PF6-    F214789   3.398   0.900   2.575 -0.3661 -0.1650  0.3827
  972PF6-    F314790   3.660   0.973   2.393 -0.2679  0.6482  0.3983
  972PF6-    F414791   3.510   0.800   2.408 -0.1237  0.4199 -0.7546
  972PF6-    F514792   3.542   1.068   2.566  0.2370 -0.3393 -0.0397
  972PF6-    F614793   3.622   0.859   2.596  0.0315  0.1347  0.1655
  972PF6-    F714794   3.430   1.008   2.379 -0.0151  0.0621  0.0330
  973PF6-    P114795   4.361   2.307   0.105 -0.2224  0.0238  0.0755
  973PF6-    F214796   4.393   2.457   0.120 -0.2743 -0.1599 -0.8118
  973PF6-    F314797   4.326   2.155   0.090  0.0749  0.2953  0.9342
  973PF6-    F414798   4.227   2.348   0.026 -0.0169  0.0728  0.0699
  973PF6-    F514799   4.499   2.271   0.183 -0.3487 -0.2413 -0.0015
  973PF6-    F614800   4.286   2.317   0.247 -0.3175  0.2064  0.5880
  973PF6-    F714801   4.435   2.301  -0.032  0.4519  0.3758  0.0180
  974PF6-    P114802   3.907   4.334   4.187 -0.2959 -0.4191  0.4073
  974PF6-    F214803   4.042   4.423   4.204  0.3960 -0.2504  0.2240
  974PF6-    F314804   3.773   4.246   4.177 -0.0865  0.2132  0.1234
  974PF6-    F414805   3.990   4.223   4.103  0.2903  0.2609 -0.4458
  974PF6-    F514806   3.826   4.449   4.265  0.0138 -0.1765 -0.1904
  974PF6-    F614807   3.880   4.411   4.048  0.2752  0.2377  0.0643
  974PF6-    F714808   3.939   4.264   4.325  0.0176  0.1633 -0.4426
  975PF6-    P114809   0.771   2.220   5.359 -0.0616  0.0248  0.0372
  975PF6-    F214810   0.815   2.074   5.407 -0.1884 -0.4600  0.2113
  975PF6-    F314811   0.722   2.364   5.311  0.3786 -0.2941  0.6655
  975PF6-    F414812   0.854   2.204   5.222  0.4838  0.4900 -0.8707
  975PF6-    F514813   0.694   2.237   5.497 -0.2681 -0.1145 -0.4839
  975PF6-    F614814   0.903   2.275   5.420  0.6713 -0.1067  0.3660
  975PF6-    F714815   0.636   2.164   5.292  0.3151 -0.0650 -0.1101
  976PF6-    P114816   0.977   2.581   1.139  0.3740 -0.0080 -0.2798
  976PF6-    F214817   0.975   2.507   1.284 -0.6002 -0.1098  0.3049
  976PF6-    F314818   0.979   2.656   0.996  0.2581 -0.4567  0.0448
  976PF6-    F414819   1.088   2.681   1.199 -0.4231  0.2662  0.4114
  976PF6-    F514820   0.869   2.477   1.087  0.5541  0.4206 -0.5911
  976PF6-    F614821   0.860   2.681   1.200 -0.1921 -0.2135  0.1880
  976PF6-    F714822   1.082   2.471   1.084 -0.6075  0.0811 -0.0003
  977PF6-    P114823   1.242   2.035   4.090  0.3999 -0.4507 -0.0959
  977PF6-    F214824   1.098   2.068   4.027  0.7439 -0.1107 -0.1963
  977PF6-    F314825   1.379   1.992   4.158 -0.2451  0.2980 -0.1556
  977PF6-    F414826   1.174   1.911   4.173 -0.5099 -0.4894 -0.8729
  977PF6-    F514827   1.318   2.150   4.008 -0.1675 -0.3203 -0.2823
  977PF6-    F614828   1.209   2.139   4.211 -0.6590 -0.3485 -0.1365
  977PF6-    F714829   1.273   1.940   3.967  0.1640  0.0486 -0.1341
  978PF6-    P114830   4.633   0.613   0.915 -0.1848 -0.4539  0.1042
  978PF6-    F214831   4.736   0.497   0.880  0.0217  0.3711 -0.1118
  978PF6-    F314832   4.533   0.731   0.958  0.0519  0.2759 -0.1329
  978PF6-    F414833   4.526   0.507   0.967 -0.5089  0.1461 -0.4080
  978PF6-    F514834   4.747   0.728   0.861 -0.5007  0.9285 -0.4837
  978PF6-    F614835   4.574   0.612   0.761  0.3036 -0.1761 -0.1001
  978PF6-    F714836   4.702   0.626   1.058 -0.5030  0.3367 -0.7674
  979PF6-    P114837   2.987   5.112   2.228  0.0241  0.0440 -0.1993
  979PF6-    F214838   2.987   5.015   2.355 -0.0745  0.4463  0.4314
  979PF6-    F314839   2.982   5.209   2.100  0.0621  0.3647 -0.2194
  979PF6-    F414840   2.935   4.988   2.139  0.5229  0.8903  0.6463
  979PF6-    F514841   3.037   5.231   2.320 -0.6334  0.2949 -0.3463
  979PF6-    F614842   3.138   5.068   2.193 -0.0055 -0.3253  0.0277
  979PF6-    F714843   2.836   5.157   2.262 -0.0889  0.1973  0.3659
  980PF6-    P114844   1.766   0.826   1.152 -0.2164  0.0962  0.0512
  980PF6-    F214845   1.670   0.905   1.253 -0.0362 -0.0174 -0.2385
  980PF6-    F314846   1.867   0.752   1.051 -0.3628  0.2232  0.3554
  980PF6-    F414847   1.883   0.933   1.174  0.3744 -0.0454  0.0745
  980PF6-    F514848   1.660   0.716   1.123  0.5074  0.1032 -0.5172
  980PF6-    F614849   1.710   0.920   1.035 -0.1769 -0.2677 -0.8364
  980PF6-    F714850   1.832   0.739   1.275  0.0944  0.4903 -0.1185
  981PF6-    P114851   3.108   0.207   3.308  0.0387 -0.2060 -0.1756
  981PF6-    F214852   3.001   0.246   3.197  0.1964 -0.3166  0.0690
  981PF6-    F314853   3.213   0.156   3.419  0.2945  0.2177 -0.3705
  981PF6-    F414854   3.043   0.058   3.306  0.4069  0.3298 -0.5945
  981PF6-    F514855   3.174   0.351   3.297  0.4214  0.5640 -0.8071
  981PF6-    F614856   3.012   0.259   3.428  0.0086  0.0049  0.3168
  981PF6-    F714857   3.208   0.159   3.192  0.1510  0.0182 -0.4097
  982PF6-    P114858   3.556   1.709   5.199 -0.0102  0.0964 -0.5517
  982PF6-    F214859   3.506   1.682   5.350  0.4494  0.2612 -0.0719
  982PF6-    F314860   3.593   1.724   5.044  0.1671 -0.0906 -0.0979
  982PF6-    F414861   3.666   1.590   5.214  0.3689  0.0793  0.1989
  982PF6-    F514862   3.447   1.830   5.183  0.1986 -0.3677  0.6040
  982PF6-    F614863   3.668   1.815   5.248  0.3717  0.0444  0.5803
  982PF6-    F714864   3.448   1.606   5.144 -0.3715  0.0338 -0.1919
  983PF6-    P114865   4.945   3.179   1.067 -0.1346 -0.3909  0.1672
  983PF6-    F214866   4.820   3.191   0.971  0.4638  0.0075  0.2924
  983PF6-    F314867   5.067   3.173   1.166  0.0571  0.1351 -0.0439
  983PF6-    F414868   4.849   3.182   1.193 -0.3357 -0.0325 -0.1417
  983PF6-    F514869   5.042   3.175   0.946  0.8894 -0.6830  0.0727
  983PF6-    F614870   4.944   3.339   1.067 -0.0087  0.1464 -0.3867
  983PF6-    F714871   4.941   3.025   1.063 -0.5012  0.1457 -0.5181
  984PF6-    P114872   3.476   1.240   0.676 -0.0054  0.2338 -0.3052
  984PF6-    F214873   3.387   1.319   0.565  0.0312  0.4126  0.0139
  984PF6-    F314874   3.562   1.162   0.784 -0.2078  0.3856  0.3799
  984PF6-    F414875   3.540   1.152   0.554  0.3412  0.8547 -0.0374
  984PF6-    F514876   3.404   1.321   0.797 -0.3425 -0.6057 -0.4644
  984PF6-    F614877   3.356   1.124   0.682 -0.1539 -0.0924 -0.5260
  984PF6-    F714878   3.591   1.349   0.663 -0.3537 -0.5097  0.1817
  985PF6-    P114879   2.138   1.320   4.515  0.0327 -0.3429  0.3084
  985PF6-    F214880   2.025   1.210   4.479  0.0868 -0.3432  0.2050
  985PF6-    F314881   2.250   1.429   4.554 -0.7307  0.3233  0.1657
  985PF6-    F414882   2.186   1.232   4.639 -0.4501 -0.4637  0.3005
  985PF6-    F514883   2.096   1.416   4.395  0.0925 -0.0461  0.1721
  985PF6-    F614884   2.038   1.406   4.610  0.3114  0.0170  0.4566
  985PF6-    F714885   2.248   1.246   4.426  0.4330 -0.2417  0.1409
  986PF6-    P114886   4.487   5.015   3.295 -0.2068  0.0464 -0.2585
  986PF6-    F214887   4.642   5.054   3.332 -0.4973 -0.4545 -0.2520
  986PF6-    F314888   4.335   4.972   3.268  0.1140 -0.1987 -0.1424
  986PF6-    F414889   4.541   4.901   3.198  0.6313  0.1183  0.4315
  986PF6-    F514890   4.438   5.128   3.396 -0.3956 -0.3104 -0.2366
  986PF6-    F614891   4.486   5.120   3.177 -0.2108 -0.5970 -0.0435
  986PF6-    F714892   4.495   4.909   3.418  0.5265 -0.3501 -0.2844
  987PF6-    P114893   4.120   0.692   0.369  0.1932 -0.5010 -0.1702
  987PF6-    F214894   4.057   0.748   0.508  0.7407  0.6251  0.2802
  987PF6-    F314895   4.184   0.625   0.243 -0.5615 -0.0137 -0.0253
  987PF6-    F414896   4.153   0.839   0.316 -0.0411 -0.5086  0.5092
  987PF6-    F514897   4.089   0.543   0.421 -0.3018 -0.1657  0.2203
  987PF6-    F614898   3.978   0.696   0.298  0.3623  0.2504  0.3264
  987PF6-    F714899   4.267   0.680   0.442  0.1021 -0.0133 -0.2758
  988PF6-    P114900   1.007   4.088   4.633 -0.2389  0.0913 -0.0876
  988PF6-    F214901   1.141   4.141   4.699  0.1095 -0.1555  0.1871
  988PF6-    F314902   0.862   4.041   4.582  0.1958 -0.3129  0.4641
  988PF6-    F414903   1.082   3.955   4.561  0.2287 -0.2067  0.5023
  988PF6-    F514904   0.920   4.209   4.696 -0.2045 -0.5473  0.1346
  988PF6-    F614905   1.033   4.172   4.507 -0.0152 -0.0803  0.5494
  988PF6-    F714906   0.976   3.995   4.763 -0.3486 -0.3088 -0.2225
  989PF6-    P114907   3.350   1.527   1.645 -0.2069  0.0392  0.4776
  989PF6-    F214908   3.424   1.432   1.755 -0.6272  0.4995 -0.0452
  989PF6-    F314909   3.275   1.617   1.533  0.0329  0.0094 -0.4480
  989PF6-    F414910   3.477   1.525   1.547 -0.3325 -0.0176  0.3102
  989PF6-    F514911   3.223   1.535   1.747 -0.2851 -0.0588  0.6157
  989PF6-    F614912   3.402   1.659   1.717 -0.4055 -0.3446 -0.2040
  989PF6-    F714913   3.286   1.396   1.574  0.2694 -0.1497 -0.0503
  990PF6-    P114914   2.653   2.244   4.948  0.0280  0.2091  0.3229
  990PF6-    F214915   2.545   2.256   4.832 -0.5420 -0.0472 -0.4798
  990PF6-    F314916   2.769   2.232   5.067  0.2942  0.2641  0.2758
  990PF6-    F414917   2.585   2.358   5.034  0.1449  0.2693 -0.3921
  990PF6-    F514918   2.734   2.141   4.856  0.6378  0.2537 -0.6040
  990PF6-    F614919   2.735   2.362   4.876 -0.1021  0.2672  0.5566
  990PF6-    F714920   2.567   2.133   5.023 -0.0692  0.0897  0.7236
  991PF6-    P114921   4.262   5.342   1.414  0.2897  0.4128 -0.8633
  991PF6-    F214922   4.240   5.456   1.513 -0.6235  0.1047  0.0020
  991PF6-    F314923   4.278   5.219   1.309 -0.0458 -0.3072  0.3527
  991PF6-    F414924   4.134   5.402   1.328 -0.3941  0.2585  0.2437
  991PF6-    F514925   4.383   5.286   1.505 -0.8592 -0.0197 -0.0764
  991PF6-    F614926   4.157   5.254   1.500  0.0521  0.4168 -0.2508
  991PF6-    F714927   4.365   5.430   1.319  0.1852 -0.5587 -0.3319
  992PF6-    P114928   4.799   0.631   3.848  0.2353  0.0127  0.0269
  992PF6-    F214929   4.755   0.517   3.746  0.4120 -0.1067 -1.0570
  992PF6-    F314930   4.833   0.746   3.955 -0.2493 -0.3439 -0.3911
  992PF6-    F414931   4.850   0.723   3.725  0.2409  0.6560  0.0541
  992PF6-    F514932   4.747   0.533   3.966  0.0335  0.2333 -0.7174
  992PF6-    F614933   4.944   0.572   3.863  0.5004  0.1108 -0.4747
  992PF6-    F714934   4.651   0.697   3.847  0.3901  0.5127 -0.4551
  993PF6-    P114935   1.390   2.938   5.353  0.0435 -0.1111  0.5606
  993PF6-    F214936   1.284   3.060   5.394  0.5254 -0.0814 -0.1680
  993PF6-    F314937   1.486   2.821   5.304 -0.2901  0.0019 -0.3598
  993PF6-    F414938   1.345   2.856   5.475  0.1200 -0.0166  0.6427
  993PF6-    F514939   1.439   3.022   5.231  0.3141 -0.0285 -0.0611
  993PF6-    F614940   1.510   2.997   5.434 -0.0931 -0.4125 -0.3846
  993PF6-    F714941   1.269   2.869   5.268  0.0829 -0.0129 -0.1551
  994PF6-    P114942   2.891   2.800   4.939 -0.5472 -0.3609  0.2113
  994PF6-    F214943   2.837   2.919   4.845 -0.0010  0.1230 -0.4122
  994PF6-    F314944   2.935   2.677   5.036  0.6147  0.6249 -0.2502
  994PF6-    F414945   3.035   2.803   4.867  0.2985 -0.2106  0.0524
  994PF6-    F514946   2.743   2.803   5.000  0.1575  0.2214 -0.1748
  994PF6-    F614947   2.846   2.692   4.836 -0.0925  0.0887  0.3397
  994PF6-    F714948   2.946   2.901   5.047 -0.6511  0.4990 -0.0104
  995PF6-    P114949   5.351   2.621   2.828 -0.1801 -0.5209  0.2332
  995PF6-    F214950   5.397   2.507   2.934  0.1851 -0.3489 -0.2048
  995PF6-    F314951   5.302   2.728   2.726  0.5041 -0.3059  0.2254
  995PF6-    F414952   5.322   2.724   2.944  0.3283  0.2847 -0.0837
  995PF6-    F514953   5.380   2.510   2.718 -0.3256 -0.0969  0.0350
  995PF6-    F614954   5.200   2.566   2.831  0.0576  0.0655  0.6744
  995PF6-    F714955   5.506   2.673   2.809 -0.0228 -0.3782  0.0406
  996PF6-    P114956   3.660   5.435   3.537  0.4154 -0.1946  0.0567
  996PF6-    F214957   3.559   5.321   3.587  0.1382 -0.1906 -0.0657
  996PF6-    F314958   3.761   5.551   3.494  0.5746 -0.2236  0.6660
  996PF6-    F414959   3.530   5.521   3.498 -0.1631 -0.7179 -0.1561
  996PF6-    F514960   3.786   5.344   3.567  0.0508 -0.3609  0.1959
  996PF6-    F614961   3.646   5.371   3.391 -0.3214 -0.4431 -0.2086
  996PF6-    F714962   3.656   5.496   3.688 -0.0866 -0.0584  0.6414
  997PF6-    P114963   2.623   1.129   3.682 -0.2719  0.0175 -0.2165
  997PF6-    F214964   2.614   1.066   3.535 -0.4108  0.7124  0.6097
  997PF6-    F314965   2.639   1.204   3.822  0.5609  0.2926  0.3329
  997PF6-    F414966   2.552   1.263   3.627  0.0375  0.4837  0.2221
  997PF6-    F514967   2.699   0.994   3.740  0.0516  0.2402  0.6212
  997PF6-    F614968   2.764   1.198   3.644  0.0778  0.0008 -0.0626
  997PF6-    F714969   2.482   1.073   3.729  0.2053 -0.3735  0.4181
  998PF6-    P114970   2.606   1.899   2.154  0.3640 -0.1966  0.2664
  998PF6-    F214971   2.650   1.991   2.025  0.6414  0.5138 -0.3843
  998PF6-    F314972   2.563   1.808   2.278 -0.3438  0.0569 -0.7794
  998PF6-    F414973   2.627   2.020   2.253 -0.1975 -0.3650  0.3288
  998PF6-    F514974   2.585   1.769   2.058  0.0862  0.0483 -0.7020
  998PF6-    F614975   2.752   1.859   2.185  0.4700 -0.5157 -0.4470
  998PF6-    F714976   2.448   1.941   2.134 -0.2874 -0.0241 -0.1913
  999PF6-    P114977   1.699   5.053   5.120  0.1872  0.3346 -0.2981
  999PF6-    F214978   1.764   5.169   5.208 -0.6527 -0.0304  0.5024
  999PF6-    F314979   1.626   4.942   5.026 -0.7224 -0.0906 -0.7062
  999PF6-    F414980   1.550   5.085   5.184 -0.1450 -0.1329 -0.5711
  999PF6-    F514981   1.843   5.021   5.063  0.2581 -0.0369 -0.3960
  999PF6-    F614982   1.717   4.944   5.236 -0.0286  0.2643 -0.1887
  999PF6-    F714983   1.670   5.165   5.009  0.3229  0.2444  0.1182
 1000PF6-    P114984   2.512   0.388   4.186 -0.0265 -0.1533 -0.1311
 1000PF6-    F214985   2.461   0.485   4.072  0.1797  0.1094 -0.1523
 1000PF6-    F314986   2.559   0.299   4.310 -0.4835 -0.0424  0.3166
 1000PF6-    F414987   2.395   0.451   4.281  0.4424 -0.0134 -0.0060
 1000PF6-    F514988   2.623   0.326   4.088 -0.0303 -0.1407  0.0107
 1000PF6-    F614989   2.610   0.508   4.232 -1.0090  0.3985  0.3168
 1000PF6-    F714990   2.412   0.272   4.135 -0.2401  0.3872 -0.0861
 1001PF6-    P114991   3.414   3.094   2.647 -0.3069 -0.1928 -0.0591
 1001PF6-    F214992   3.272   3.049   2.588 -0.2151 -0.1138  0.0482
 1001PF6-    F314993   3.557   3.136   2.709  0.0359  0.9217 -0.3460
 1001PF6-    F414994   3.373   3.248   2.662 -0.1995 -0.4156  0.6139
 1001PF6-    F514995   3.463   2.943   2.638  0.5328 -0.1240  0.1916
 1001PF6-    F614996   3.473   3.124   2.492  0.5531  0.3642 -0.8086
 1001PF6-    F714997   3.360   3.064   2.796 -0.0362 -0.2973  0.0361
 1002PF6-    P114998   1.838   4.573   2.208  0.0562  0.3050  0.2925
 1002PF6-    F214999   1.708   4.627   2.281 -0.0876  0.3638  0.3865
 1002PF6-    F315000   1.972   4.524   2.140 -0.0983  0.2952  0.1348
 1002PF6-    F415001   1.864   4.482   2.336  0.2397  0.2574 -0.5149
 1002PF6-    F515002   1.810   4.666   2.081 -0.1455  0.6119 -0.3242
 1002PF6-    F615003   1.918   4.688   2.287  0.0858 -0.2893  0.0347
 1002PF6-    F715004   1.759   4.447   2.139  0.0722  0.0554  0.3392
 1003PF6-    P115005   0.060   4.182   4.253  0.1880 -0.3122 -0.0179
 1003PF6-    F215006   0.164   4.260   4.352  0.6079  0.1792 -0.1462
 1003PF6-    F315007  -0.032   4.099   4.151  0.3469 -0.0136 -1.0725
 1003PF6-    F415008  -0.005   4.324   4.199 -0.4089  0.0511  0.1081
 1003PF6-    F515009   0.115   4.046   4.309  0.1850  0.0083  0.1366
 1003PF6-    F615010  -0.053   4.178   4.360  0.5948  0.4312 -0.1196
 1003PF6-    F715011   0.169   4.184   4.138 -0.1784  0.1913  0.2260
 1004PF6-    P115012   4.322   2.512   4.515 -0.1745  0.1680 -0.2066
 1004PF6-    F215013   4.200   2.407   4.497  0.0495 -0.1320 -0.1014
 1004PF6-    F315014   4.453   2.613   4.533  0.1163 -0.2482 -0.7090
 1004PF6-    F415015   4.433   2.391   4.502 -0.1455 -0.0164 -0.0801
 1004PF6-    F515016   4.220   2.629   4.534  0.2693 -0.2614  0.1891
 1004PF6-    F615017   4.325   2.484   4.675 -0.4390  0.2559  0.1415
 1004PF6-    F715018   4.329   2.533   4.354  0.0021  0.0006  0.0343
 1005PF6-    P115019   0.079   0.943   0.812  0.1691  0.0009 -0.4988
 1005PF6-    F215020  -0.070   0.896   0.852 -0.0491 -0.1169  0.6878
 1005PF6-    F315021   0.226   0.988   0.769 -0.1719 -0.2449  0.5429
 1005PF6-    F415022   0.125   0.938   0.967  0.0149  0.3523 -0.1006
 1005PF6-    F515023   0.035   0.944   0.657 -0.0899  0.3328 -0.1315
 1005PF6-    F615024   0.036   1.096   0.827  0.0245  0.3120 -0.0695
 1005PF6-    F715025   0.124   0.788   0.794  0.0035 -0.3836 -0.8451
 1006PF6-    P115026   3.426   0.067   0.765 -0.3193  0.5816 -0.1091
 1006PF6-    F215027   3.266   0.081   0.756 -0.1209  0.0345 -0.1123
 1006PF6-    F315028   3.586   0.061   0.768  0.0063 -0.1248 -0.5124
 1006PF6-    F415029   3.423   0.022   0.608 -0.3448 -0.8534  0.1519
 1006PF6-    F515030   3.419   0.112   0.921  0.2932 -0.5811 -0.3939
 1006PF6-    F615031   3.414  -0.085   0.806 -0.4587  0.0592 -0.2631
 1006PF6-    F715032   3.440   0.215   0.711 -0.5225 -0.2969  0.1202
 1007PF6-    P115033   1.698   3.672   3.877  0.0463  0.1636  0.6128
 1007PF6-    F215034   1.720   3.523   3.814 -0.3503  0.1278  0.2727
 1007PF6-    F315035   1.679   3.822   3.935  0.6732 -0.1281  0.8904
 1007PF6-    F415036   1.750   3.726   3.738  0.3725 -0.5027  0.2252
 1007PF6-    F515037   1.646   3.615   4.022 -0.3562  0.2460 -0.0495
 1007PF6-    F615038   1.849   3.672   3.926  0.3099  0.2333  0.4255
 1007PF6-    F715039   1.548   3.669   3.817 -0.7821 -0.0791 -0.3196
 1008PF6-    P115040   4.104   1.093   4.319 -0.1729 -0.3651 -0.4494
 1008PF6-    F215041   3.954   1.074   4.271  0.6714  0.4757 -0.2846
 1008PF6-    F315042   4.258   1.096   4.371 -0.0216 -1.0777  0.2955
 1008PF6-    F415043   4.046   1.118   4.465 -0.2986 -0.6728 -0.4071
 1008PF6-    F515044   4.153   1.063   4.172  0.3007 -0.7310  0.1366
 1008PF6-    F615045   4.108   1.255   4.294 -0.4216  0.0138  0.8462
 1008PF6-    F715046   4.102   0.936   4.348  0.6266 -0.0048 -0.5750
 1009PF6-    P115047   4.314   3.531   4.676  0.4422  0.3962 -0.1489
 1009PF6-    F215048   4.194   3.453   4.746  0.0682  0.0837 -0.1444
 1009PF6-    F315049   4.426   3.611   4.602  0.5459 -0.3109  0.5543
 1009PF6-    F415050   4.220   3.659   4.671  0.1372  0.3580 -0.2460
 1009PF6-    F515051   4.406   3.398   4.686 -0.3329 -0.3235  0.5340
 1009PF6-    F615052   4.257   3.480   4.537  0.0572  0.1590  0.4782
 1009PF6-    F715053   4.376   3.578   4.816 -0.1699  0.2808  0.3802
 1010PF6-    P115054   2.898   2.093   1.305  0.4046 -0.0895 -0.1942
 1010PF6-    F215055   2.787   2.184   1.230 -0.0129 -0.0637 -0.5285
 1010PF6-    F315056   3.005   1.997   1.375 -0.4238 -0.7009  0.3923
 1010PF6-    F415057   2.802   2.055   1.422  0.0879 -0.2022 -0.0437
 1010PF6-    F515058   2.992   2.113   1.182  0.2547 -0.2744  0.0911
 1010PF6-    F615059   2.954   2.225   1.378 -0.9825  0.4201  0.3221
 1010PF6-    F715060   2.834   1.965   1.226 -0.2234 -0.2223 -0.1943
 1011PF6-    P115061   4.048   1.441   2.949  0.3324 -0.3557 -0.3843
 1011PF6-    F215062   4.124   1.313   3.011  0.0490  0.0444 -0.1099
 1011PF6-    F315063   3.981   1.575   2.886 -0.1212  0.0340  0.0169
 1011PF6-    F415064   4.176   1.530   2.992 -0.5229  0.1975 -0.1848
 1011PF6-    F515065   3.908   1.359   2.919 -0.0623 -0.2616 -0.3481
 1011PF6-    F615066   3.989   1.483   3.098 -0.1280  0.2900  0.1268
 1011PF6-    F715067   4.103   1.405   2.800 -0.0487  0.5722 -0.0947
 1012PF6-    P115068   2.327   2.811   4.194  0.2544  1.0073 -0.0320
 1012PF6-    F215069   2.208   2.897   4.134  0.0054 -0.3656  0.1354
 1012PF6-    F315070   2.441   2.719   4.263 -0.2019  0.4174  0.3271
 1012PF6-    F415071   2.438   2.893   4.113  0.7401  0.4844 -0.2483
 1012PF6-    F515072   2.216   2.725   4.275  0.7125  0.3416  0.0191
 1012PF6-    F615073   2.328   2.703   4.070  0.5233 -0.5815 -0.3871
 1012PF6-    F715074   2.336   2.920   4.312  0.2743  0.1615  0.3176
 1013PF6-    P115075   2.661   0.860   1.564  0.4699 -0.2376  0.0014
 1013PF6-    F215076   2.658   0.940   1.703  0.0032  0.1735  0.1105
 1013PF6-    F315077   2.658   0.788   1.420  0.9333  0.1199  0.2668
 1013PF6-    F415078   2.509   0.911   1.544  0.3159  0.2523  0.3392
 1013PF6-    F515079   2.807   0.811   1.603  0.4068 -0.3643  0.0010
 1013PF6-    F615080   2.601   0.730   1.633 -0.2749 -0.2006  0.3470
 1013PF6-    F715081   2.717   0.991   1.497 -0.4639 -0.6042  0.0941
 1014PF6-    P115082   1.856   2.564   0.803 -0.0121 -0.0510 -0.2052
 1014PF6-    F215083   1.826   2.412   0.765 -0.1556  0.2777 -0.0829
 1014PF6-    F315084   1.882   2.712   0.849  0.2754 -0.4403  1.2786
 1014PF6-    F415085   1.769   2.606   0.677 -0.7427 -0.1353  0.1531
 1014PF6-    F515086   1.939   2.521   0.935  0.4869  0.1316 -0.3048
 1014PF6-    F615087   1.989   2.562   0.711 -0.4329  0.5146 -0.1793
 1014PF6-    F715088   1.726   2.563   0.887 -0.1743  0.1602  0.1046
 1015PF6-    P115089   1.310   4.965   3.000 -0.4241 -0.1385  0.3085
 1015PF6-    F215090   1.165   4.938   3.067 -1.1875  0.5327  0.0014
 1015PF6-    F315091   1.461   4.988   2.944  0.9426  0.0439  0.6848
 1015PF6-    F415092   1.278   5.120   2.982 -0.6690  0.3033 -0.1095
 1015PF6-    F515093   1.341   4.807   3.016  0.1135 -0.2755  0.2806
 1015PF6-    F615094   1.247   4.937   2.852 -0.9047 -0.0618  0.0380
 1015PF6-    F715095   1.378   4.981   3.139 -0.0652  0.1054 -0.2478
 1016PF6-    P115096   3.897   2.137   2.356 -0.3705 -0.1197 -0.2124
 1016PF6-    F215097   3.939   2.084   2.502  0.4084 -0.2674  0.0325
 1016PF6-    F315098   3.864   2.186   2.209  0.0001  0.1226  0.0956
 1016PF6-    F415099   3.767   2.044   2.355  0.0313  0.5214 -0.3421
 1016PF6-    F515100   4.031   2.225   2.357  0.3079 -0.4812 -0.0215
 1016PF6-    F615101   3.984   2.011   2.293 -0.4186 -0.0772 -0.0508
 1016PF6-    F715102   3.812   2.258   2.420 -0.4796  0.3564  0.1871
 1017PF6-    P115103   3.297   2.096   4.398 -0.1063  0.1120 -0.0909
 1017PF6-    F215104   3.196   2.046   4.516  0.3176 -0.1467  0.8255
 1017PF6-    F315105   3.397   2.143   4.281 -0.4182  0.2699  0.1953
 1017PF6-    F415106   3.290   2.242   4.458 -0.4640 -0.3217 -0.0426
 1017PF6-    F515107   3.293   1.950   4.334  0.0897 -0.4897  0.0690
 1017PF6-    F615108   3.171   2.140   4.308  0.3387 -0.1826 -0.3959
 1017PF6-    F715109   3.425   2.057   4.488  0.4164 -0.2710  0.0757
 1018PF6-    P115110   5.127   2.426   5.051 -0.3856  0.1010 -0.1062
 1018PF6-    F215111   5.035   2.439   5.182  0.3527 -0.3518  0.2240
 1018PF6-    F315112   5.230   2.405   4.926  0.4059 -0.2147 -0.2652
 1018PF6-    F415113   5.067   2.284   5.031  0.2990  0.4646  0.1936
 1018PF6-    F515114   5.195   2.571   5.085  0.3842  0.3916 -0.0990
 1018PF6-    F615115   5.239   2.357   5.143 -0.2162 -0.2179  0.1634
 1018PF6-    F715116   5.009   2.485   4.963 -0.0596 -0.1369 -0.3597
 1019PF6-    P115117   3.889   4.952   0.589 -0.0789 -0.2400  0.1245
 1019PF6-    F215118   3.981   5.051   0.672 -0.6439 -0.1535 -0.1121
 1019PF6-    F315119   3.785   4.866   0.496  0.1947 -0.1300 -0.0903
 1019PF6-    F415120   3.769   5.056   0.624 -0.1071  0.3016  0.2060
 1019PF6-    F515121   4.014   4.851   0.548 -0.3505 -0.5177 -0.2425
 1019PF6-    F615122   3.863   4.872   0.728  0.6997  0.7380  0.3601
 1019PF6-    F715123   3.922   5.042   0.463 -0.6060 -0.2936  0.2788
 1020PF6-    P115124   4.650   5.321   0.155 -0.0469  0.0228  0.1819
 1020PF6-    F215125   4.617   5.168   0.125 -0.1105  0.4091  0.2722
 1020PF6-    F315126   4.673   5.478   0.175 -0.0927 -0.1036 -0.5076
 1020PF6-    F415127   4.612   5.356  -0.003  0.1675  0.1319 -0.2415
 1020PF6-    F515128   4.688   5.294   0.312 -0.0680  0.0646  0.1224
 1020PF6-    F615129   4.799   5.305   0.119 -0.4027 -0.2189 -0.6924
 1020PF6-    F715130   4.497   5.332   0.196 -0.0407  0.0422 -0.1675
 1021PF6-    P115131   2.979   4.166   1.771 -0.1045  0.4405 -0.3347
 1021PF6-    F215132   3.005   4.155   1.930 -0.0794  0.2447 -0.1679
 1021PF6-    F315133   2.947   4.176   1.615 -0.7686 -0.0081 -0.6158
 1021PF6-    F415134   3.128   4.206   1.746 -0.1192  0.1950 -0.1015
 1021PF6-    F515135   2.825   4.112   1.797 -0.0512  0.0515 -0.0525
 1021PF6-    F615136   2.935   4.318   1.782 -0.0043  0.0177 -0.1841
 1021PF6-    F715137   3.023   4.011   1.747  0.3316 -0.0402 -0.7712
 1022PF6-    P115138   0.258   0.073   4.515  0.0077 -0.6229  0.0285
 1022PF6-    F215139   0.302   0.169   4.394  0.0267  0.2626 -0.4941
 1022PF6-    F315140   0.211  -0.025   4.634  0.0577 -0.5535 -0.1036
 1022PF6-    F415141   0.122   0.025   4.439 -0.6741 -0.2692  0.0979
 1022PF6-    F515142   0.393   0.111   4.597  0.2330 -0.4318 -0.4378
 1022PF6-    F615143   0.184   0.189   4.586  0.1198 -0.3370  0.1474
 1022PF6-    F715144   0.327  -0.050   4.443 -0.1853 -0.0205  0.0888
 1023PF6-    P115145   1.007   0.469   0.577  0.3969  0.2329 -0.5808
 1023PF6-    F215146   1.050   0.385   0.704  0.1949 -0.2911 -0.8130
 1023PF6-    F315147   0.952   0.556   0.456 -0.1686  0.4211 -0.2587
 1023PF6-    F415148   0.956   0.577   0.681  0.1736 -0.2872  0.1069
 1023PF6-    F515149   1.054   0.352   0.476  0.7796 -0.1178 -0.0576
 1023PF6-    F615150   0.867   0.394   0.581 -0.3623  0.7130 -0.4206
 1023PF6-    F715151   1.148   0.543   0.564  0.1901 -0.0556  0.0303
 1024PF6-    P115152   2.787   3.264   1.483 -0.0377 -0.2350  0.0813
 1024PF6-    F215153   2.686   3.213   1.370 -0.2718 -0.2823  0.3553
 1024PF6-    F315154   2.887   3.317   1.595 -0.5697  0.1135 -0.5157
 1024PF6-    F415155   2.908   3.185   1.408 -0.5461 -0.5211  0.5655
 1024PF6-    F515156   2.669   3.340   1.564 -0.2500  0.2743 -0.0754
 1024PF6-    F615157   2.757   3.134   1.571  0.1887 -0.3961  0.0604
 1024PF6-    F715158   2.820   3.400   1.402 -0.2086  0.2376  0.0711
 1025PF6-    P115159   3.597   0.223   5.039  0.0386 -0.4122  0.2912
 1025PF6-    F215160   3.617   0.353   4.950  0.3713 -0.0163 -0.7847
 1025PF6-    F315161   3.574   0.092   5.127 -0.2532 -0.0183  0.2993
 1025PF6-    F415162   3.717   0.156   4.961 -0.1336  0.1703 -0.2846
 1025PF6-    F515163   3.476   0.296   5.122 -0.8152  0.5372  0.4311
 1025PF6-    F615164   3.495   0.162   4.932 -0.0518  0.1843  0.0408
 1025PF6-    F715165   3.698   0.276   5.149 -0.2359 -0.5332 -0.2387
 1026PF6-    P115166   1.709   4.847   4.093  0.0839  0.1778  0.0527
 1026PF6-    F215167   1.746   4.967   3.991  0.3845 -0.0586  0.1480
 1026PF6-    F315168   1.674   4.729   4.197  0.0107 -0.6470 -0.0292
 1026PF6-    F415169   1.563   4.839   4.027 -0.3020 -0.1530  0.2902
 1026PF6-    F515170   1.858   4.850   4.157 -0.1052 -0.2105  0.2551
 1026PF6-    F615171   1.654   4.952   4.205  0.3514 -0.2454  0.1237
 1026PF6-    F715172   1.753   4.731   3.987 -0.8121  0.2671 -0.2734
 1027PF6-    P115173   3.874   4.033   2.062  0.1498  0.2307 -0.0535
 1027PF6-    F215174   3.882   4.100   2.206  0.2354  0.4430  0.2240
 1027PF6-    F315175   3.862   3.975   1.915  0.1713  0.3227 -0.0875
 1027PF6-    F415176   4.030   4.006   2.068  0.1001  0.0739 -0.3283
 1027PF6-    F515177   3.714   4.073   2.058 -0.1667 -0.1725 -0.1600
 1027PF6-    F615178   3.901   4.174   1.996  0.1156  0.0960  0.0852
 1027PF6-    F715179   3.841   3.885   2.129  0.4741  0.1092  0.5437
 1028PF6-    P115180   3.573   2.920   1.336 -0.1495 -0.3040  0.0063
 1028PF6-    F215181   3.542   3.040   1.226  0.2084  0.1063 -0.3623
 1028PF6-    F315182   3.605   2.803   1.446  0.6457  0.0593 -0.1582
 1028PF6-    F415183   3.466   2.827   1.257  0.2977 -0.3060 -0.0403
 1028PF6-    F515184   3.679   3.013   1.402 -0.1552 -0.2532 -0.0006
 1028PF6-    F615185   3.458   2.982   1.429 -0.2981 -0.4376  0.1601
 1028PF6-    F715186   3.682   2.861   1.236 -0.0373 -0.1511 -0.2378
 1029PF6-    P115187   4.218   0.462   3.151 -0.2413 -0.2717  0.3631
 1029PF6-    F215188   4.078   0.452   3.085  0.4316  0.2375  0.2357
 1029PF6-    F315189   4.363   0.474   3.216  0.6103 -0.1524  0.1274
 1029PF6-    F415190   4.289   0.455   3.009  0.1550 -0.0407 -0.2299
 1029PF6-    F515191   4.146   0.471   3.294 -0.5162 -0.1102  0.2896
 1029PF6-    F615192   4.226   0.302   3.157 -0.1356  0.0411 -0.0932
 1029PF6-    F715193   4.209   0.617   3.136  0.4210  0.3911 -0.0747
 1030PF6-    P115194   1.794   1.903   3.048 -0.2278 -0.3092 -0.2476
 1030PF6-    F215195   1.714   1.919   2.904 -0.1472 -0.0780 -0.2752
 1030PF6-    F315196   1.866   1.891   3.192  0.1676 -0.3923 -0.0108
 1030PF6-    F415197   1.653   1.857   3.119  0.0176 -0.0767 -0.0764
 1030PF6-    F515198   1.934   1.947   2.981  0.2367 -0.1487 -0.3625
 1030PF6-    F615199   1.758   2.054   3.080 -0.8319 -0.0838  0.2244
 1030PF6-    F715200   1.823   1.743   3.016  0.0024 -0.0222  0.1447
 1031PF6-    P115201   4.785   3.309   2.084  0.0313 -0.0679 -0.1023
 1031PF6-    F215202   4.644   3.367   2.029 -0.7037  0.5215  0.8304
 1031PF6-    F315203   4.923   3.257   2.137 -0.4440 -0.5573 -0.2078
 1031PF6-    F415204   4.811   3.234   1.945  0.2192  0.4023  0.1058
 1031PF6-    F515205   4.759   3.383   2.230 -0.3642  0.2968 -0.3238
 1031PF6-    F615206   4.706   3.184   2.139 -0.0640 -0.2165 -0.2460
 1031PF6-    F715207   4.869   3.437   2.027  0.4447  0.2403  0.1030
 1032PF6-    P115208   1.945   3.246   1.589 -0.5757  0.4049  0.1475
 1032PF6-    F215209   1.879   3.361   1.503  0.2337  0.0701  0.5625
 1032PF6-    F315210   2.011   3.133   1.676 -0.0424 -0.0145  0.2445
 1032PF6-    F415211   2.081   3.317   1.566 -0.0847  0.0441 -0.2057
 1032PF6-    F515212   1.804   3.183   1.622  0.2515  0.3476 -0.3304
 1032PF6-    F615213   1.956   3.153   1.453  0.0005 -0.0947 -0.5260
 1032PF6-    F715214   1.936   3.336   1.722 -0.3487 -0.3697  0.2982
 1033PF6-    P115215   0.892   5.224   1.641 -0.1111 -0.2516  0.2576
 1033PF6-    F215216   0.960   5.165   1.767  0.0140  0.6973  0.7907
 1033PF6-    F315217   0.824   5.279   1.511 -0.6178  0.3853  0.1829
 1033PF6-    F415218   0.920   5.081   1.570  0.3026 -0.3575 -0.2389
 1033PF6-    F515219   0.864   5.368   1.709 -0.0970  0.3291  0.6984
 1033PF6-    F615220   1.036   5.281   1.594  0.0644  0.3437 -0.1044
 1033PF6-    F715221   0.755   5.174   1.688  0.0295 -0.2671  0.1317
 1034PF6-    P115222   5.253   1.919   1.667  0.2101  0.0711 -0.1836
 1034PF6-    F215223   5.199   1.825   1.551 -0.2607  0.0095  0.4204
 1034PF6-    F315224   5.307   2.023   1.777 -0.1895 -0.0761 -0.0697
 1034PF6-    F415225   5.395   1.927   1.584  0.4884 -0.0553  0.0587
 1034PF6-    F515226   5.115   1.910   1.748 -0.0398 -0.0607 -0.1214
 1034PF6-    F615227   5.314   1.801   1.752  0.3844 -0.3727 -0.0616
 1034PF6-    F715228   5.200   2.050   1.590  0.0956  0.1394 -0.1298
 1035PF6-    P115229   2.241   3.975   5.156 -0.4033 -0.0415  0.3252
 1035PF6-    F215230   2.308   3.988   5.011  0.2306  0.1079  0.0887
 1035PF6-    F315231   2.166   3.966   5.299 -0.5414 -0.4826 -0.4336
 1035PF6-    F415232   2.137   4.090   5.105  0.0782 -0.7506 -0.2885
 1035PF6-    F515233   2.352   3.867   5.200  0.0240  0.0693  0.4297
 1035PF6-    F615234   2.339   4.093   5.207 -0.3389  0.1984 -0.5273
 1035PF6-    F715235   2.146   3.858   5.098 -0.3278 -0.5882  0.5199
 1036PF6-    P115236   3.716   4.374   5.207  0.3268 -0.1433  0.3113
 1036PF6-    F215237   3.820   4.306   5.108  0.5150 -0.0343 -0.0659
 1036PF6-    F315238   3.604   4.439   5.308 -0.0825  0.3745  0.2032
 1036PF6-    F415239   3.598   4.324   5.114 -0.3322  0.5607 -0.6089
 1036PF6-    F515240   3.834   4.433   5.300 -0.3656  0.3896  0.1661
 1036PF6-    F615241   3.724   4.513   5.127  0.1391  0.0220  0.3584
 1036PF6-    F715242   3.708   4.240   5.297 -0.0660  0.1760 -0.2136
 1037PF6-    P115243   1.275   0.400   4.082 -0.0906 -0.6361 -0.1983
 1037PF6-    F215244   1.135   0.343   4.052 -0.5412  0.0331 -0.2036
 1037PF6-    F315245   1.427   0.458   4.107  0.2838  0.6414 -0.0842
 1037PF6-    F415246   1.208   0.546   4.098  0.1554 -0.3397 -0.3997
 1037PF6-    F515247   1.341   0.254   4.077 -0.0491 -0.1535  0.1838
 1037PF6-    F615248   1.302   0.415   3.924  0.1214 -0.0530  0.3702
 1037PF6-    F715249   1.260   0.377   4.239  0.0366  0.4191  0.2969
 1038PF6-    P115250   0.157   0.961   4.160 -0.2511 -0.0284 -0.0854
 1038PF6-    F215251   0.278   0.877   4.090  0.2153  0.5640 -0.1837
 1038PF6-    F315252   0.041   1.049   4.229  0.2918  0.2455  0.2063
 1038PF6-    F415253   0.153   1.068   4.040 -0.2671  0.1385 -0.4375
 1038PF6-    F515254   0.157   0.852   4.280  0.2226 -0.2587 -0.2235
 1038PF6-    F615255   0.265   1.050   4.238 -0.7345  0.2947 -0.7277
 1038PF6-    F715256   0.056   0.871   4.083  0.7095 -0.2286 -0.1532
 1039PF6-    P115257   5.416   3.606   0.007 -0.4919  0.1091  0.1688
 1039PF6-    F215258   5.410   3.762  -0.012 -0.4767 -0.5517 -0.3053
 1039PF6-    F315259   5.427   3.449   0.030  0.1209  0.4210 -0.3082
 1039PF6-    F415260   5.563   3.597  -0.039  0.4411 -0.5852  0.1374
 1039PF6-    F515261   5.260   3.607   0.055 -0.0012 -0.2896  0.3123
 1039PF6-    F615262   5.378   3.580  -0.144 -0.2749  0.0190  0.1031
 1039PF6-    F715263   5.464   3.618   0.161  0.3171  0.0821  0.2332
 1040PF6-    P115264   3.158   3.913   0.941 -0.1503  0.1335 -0.7882
 1040PF6-    F215265   3.147   3.903   0.782 -0.0601 -0.4111 -0.1669
 1040PF6-    F315266   3.180   3.917   1.101  0.2380  0.6077  0.4621
 1040PF6-    F415267   3.315   3.946   0.915  0.0789 -0.2743 -0.3017
 1040PF6-    F515268   3.004   3.875   0.957  0.3094 -0.1623 -0.1590
 1040PF6-    F615269   3.191   3.756   0.942  0.0457  0.0953  0.8643
 1040PF6-    F715270   3.120   4.066   0.935  0.2030  0.7973 -0.0536
 1041Na+     N115271   1.552   0.513   1.118 -0.4062  0.0121  0.0798
 1042Na+     N115272   4.424   4.258   4.899  0.2349 -0.0042 -0.1159
 1043Na+     N115273   2.966   3.173   0.848 -0.3412 -0.3071 -0.2897
 1044Na+     N115274   1.429   0.082   2.005 -0.0218 -0.2593 -0.0688
 1045Na+     N115275   4.023   5.117   5.361  0.2168  0.1629 -0.1529
 1046Na+     N115276   3.839   0.236   2.539 -0.2990  0.0832 -0.1205
 1047Na+     N115277   1.645   2.594   1.418  0.5460  0.1538 -0.1399
 1048Na+     N115278   3.774   1.559   2.279  0.1350 -0.3855 -0.1803
 1049Na+     N115279   2.989   1.244   0.980 -0.0763 -0.5060 -0.2458
 1050Na+     N115280   2.456   4.248   4.961 -0.6921 -0.2232  0.1987
 1051Na+     N115281   3.132   1.793   1.454  0.5983  0.1906  0.2253
 1052Na+     N115282   1.471   2.081   3.753 -0.1117  0.2544 -0.0790
 1053Na+     N115283   4.927   0.079   3.330 -0.4851  0.2315 -0.0669
 1054Na+     N115284   0.385   0.905   0.562  0.2936 -0.0354  0.3573
 1055Na+     N115285   3.721   4.744   3.518  0.0438 -0.1004  0.2620
 1056Na+     N115286   3.641   4.932   1.244  0.0679 -0.3620 -0.1487
 1057Na+     N115287   2.321   0.986   1.661  0.2844  0.3936  0.2907
 1058Na+     N115288   2.340   0.762   0.886 -0.5538  0.3274 -0.3902
 1059Na+     N115289   1.889   0.118   4.132  0.1572 -0.1699 -0.3715
 1060Na+     N115290   2.982   2.404   2.241 -0.2577 -0.1095 -0.6315
 1061Na+     N115291   2.879   5.449   3.894 -0.3910 -0.1088 -0.1566
 1062Na+     N115292   3.232   1.792   4.593  0.1694 -0.6700 -0.3938
 1063Na+     N115293   0.340   0.252   4.180  0.1598 -0.1773  0.5160
 1064Na+     N115294   3.517   3.692   1.482 -0.5171 -0.1398  0.4893
 1065Na+     N115295   3.990   1.012   1.065 -0.0713 -0.4482  0.3190
 1066Na+     N115296   1.689   4.821   3.447 -0.1748  0.1213 -0.1218
 1067Na+     N115297   4.413   5.029   2.157  0.4037 -0.1456 -0.2044
 1068Na+     N115298   1.158   1.167   0.483  0.5157 -0.1368 -0.0509
 1069Na+     N115299   4.656   0.808   4.109  0.0014 -0.2002 -0.2134
 1070Na+     N115300   4.229   0.139   3.823  0.1923  0.1895 -0.3474
 1071Na+     N115301   4.919   0.049   4.452 -0.1193  0.2387  0.1804
 1072Na+     N115302   3.655   4.405   0.037 -0.2293 -0.6310 -0.1900
 1073Na+     N115303   2.551   4.333   1.902  0.3223 -0.5017 -0.0913
 1074Na+     N115304   5.320   0.421   1.284  0.0045 -0.4250 -0.1187
 1075Na+     N115305   1.755   3.114   4.337 -0.0101  0.1008  0.5603
 1076Na+     N115306   2.396   3.299   5.373  0.1719 -0.3293 -0.1422
 1077Na+     N115307   1.124   4.768   4.798 -0.2929  0.4290 -0.6705
 1078Na+     N115308   4.334   1.738   3.026  0.4039  0.0101 -0.0897
 1079Na+     N115309   4.703   2.750   0.625 -0.0397 -0.5076  0.1795
 1080Na+     N115310   0.483   4.943   1.123 -0.0501 -0.3768 -0.2052
 1081Na+     N115311   1.130   4.534   1.833 -0.3537 -0.3311  0.5273
 1082Na+     N115312   2.284   2.070   4.209 -0.0047 -0.0950  0.2009
 1083Na+     N115313   1.702   1.543   2.683 -0.4074 -0.2178 -0.3378
 1084Na+     N115314   4.208   3.027   2.470 -0.1636 -0.0691  0.0235
 1085Na+     N115315   4.618   2.689   5.091 -0.4659  0.5603 -0.1113
 1086Na+     N115316   5.067   2.499   2.194 -0.0669  0.0411 -0.2617
 1087Na+     N115317   2.724   0.500   3.119  0.1569 -0.8038 -0.1664
 1088Na+     N115318   0.139   3.201   0.477  0.2238  0.1375 -0.0200
 1089Na+     N115319   2.920   4.510   4.117 -0.2562  0.1746  0.0679
 1090Na+     N115320   3.194   3.036   3.008 -0.3102 -0.0116 -0.2314
 1091Na+     N115321   1.224   4.198   3.928  0.3973 -0.3144 -0.6307
 1092Na+     N115322   2.599   3.571   4.124  0.2716  0.0515  0.0995
 1093Na+     N115323   5.180   2.824   3.446  0.3259  0.0010 -0.1159
 1094Na+     N115324   2.050   1.929   5.313  0.0615  0.2965  0.2120
 1095Na+     N115325   0.343   2.195   5.012  0.1115 -0.3100 -0.0476
 1096Na+     N115326   4.121   1.841   4.742 -0.4897  0.5305 -0.0643
 1097Na+     N115327   4.282   0.134   0.726 -0.0332  0.2200  0.2828
 1098Na+     N115328   2.879   1.285   2.151 -0.3569  0.7150 -0.4927
 1099Na+     N115329   4.034   3.276   4.102  0.1076 -0.4889 -0.4706
 1100Na+     N115330   2.023   4.703   4.039 -0.6125  0.0283 -0.0810
 1101Na+     N115331   3.841   1.222   0.074 -0.2836  0.3456 -0.6369
 1102Na+     N115332   5.359   3.720   1.825 -0.2831 -0.2077 -0.2078
 1103Na+     N115333   4.966   3.359   1.352 -0.1758 -0.3111 -0.3496
 1104Na+     N115334   3.504   0.538   5.358 -0.1331  0.0220  0.1340
 1105Na+     N115335   1.150   1.973   4.874 -0.2107  0.3184 -0.2394
 1106Na+     N115336   3.959   4.170   0.683  0.6480 -0.1874 -0.0239
 1107Na+     N115337   1.879   4.671   2.563 -0.0636  0.2453  0.0522
 1108Na+     N115338   2.932   3.557   3.415 -0.0008 -0.1082  0.3057
 1109Na+     N115339   1.283   4.217   2.725 -0.3151  0.2557 -0.1619
 1110Na+     N115340   1.178   3.076   5.108  0.0470  0.4710 -0.2817
 1111Na+     N115341   1.353   2.158   0.554  0.0471 -0.2084  0.6597
 1112Na+     N115342   3.251   2.116   0.374  0.4022  0.5727 -0.0503
 1113Na+     N115343   2.688   2.624   4.299 -0.1526 -0.5089  0.7813
 1114Na+     N115344   1.958   0.622   5.030 -0.3941  0.3992  0.7226
 1115Na+     N115345   0.329   4.436   4.487 -0.3451  0.3557  0.2580
 1116Na+     N115346   0.190   1.219   4.396  1.0439 -0.5011 -0.2945
 1117Na+     N115347   3.433   4.574   2.232  0.0158 -0.2723 -0.0144
 1118Na+     N115348   3.423   5.471   3.293 -0.0169 -0.1240 -0.0960
 1119Na+     N115349   2.473   3.727   1.366 -0.3729 -0.2039 -0.3786
 1120Na+     N115350   1.239   0.078   3.304 -0.5894 -0.1629  0.0556
 1121Na+     N115351   2.904   2.437   5.057  0.0641 -0.2394 -0.2438
 1122Na+     N115352   3.113   0.104   1.934 -0.2113 -0.7943  0.2604
 1123Na+     N115353   4.108   3.995   4.001  0.0311  0.8327 -0.5518
 1124Na+     N115354   2.360   1.093   4.234  0.0661  0.0879 -0.0447
 1125Na+     N115355   2.926   1.590   3.255 -0.2824  0.1977  0.4273
 1126Na+     N115356   2.227   2.095   1.643 -0.5787 -0.0625 -0.2893
 1127Na+     N115357   1.324   3.025   0.516 -0.0779 -0.0222  0.0197
 1128Na+     N115358   3.868   3.779   2.653 -0.8876 -0.2480 -0.9164
 1129Na+     N115359   4.951   1.146   1.392 -0.0096  0.0620 -0.0505
 1130Na+     N115360   4.844   5.369   0.966  0.5434  0.1834  0.1482
 1131Na+     N115361   0.077   4.098   0.332  0.2231  0.1544 -0.2146
 1132Na+     N115362   3.761   0.899   3.263  0.0745  0.1130  0.0778
 1133Na+     N115363   0.705   2.222   1.741  0.0397 -0.4010 -0.3126
 1134Na+     N115364   1.807   4.278   0.088  0.4149 -0.1997 -0.0643
 1135Na+     N115365   4.992   1.847   4.454  0.3832 -0.2180  0.1717
 1136Na+     N115366   3.534   0.482   0.687  0.2154 -0.0918  0.1910
 1137Na+     N115367   2.959   3.387   2.203  0.2023  0.3380 -0.3405
 1138Na+     N115368   5.372   4.089   3.533 -0.3108 -0.5169  0.3438
 1139Na+     N115369   4.085   3.721   5.432  0.1314 -0.1135  0.0460
 1140Na+     N115370   5.268   3.993   4.364 -0.1765 -0.2222 -0.1165
   5.49633   5.49633   5.49633
