DG-THF-PF6-Na    Amber RESP
15370
    1DG      C1    1   4.389   0.122   1.375 -0.1198 -0.0086 -0.1532
    1DG      C2    2   4.002   0.703   1.287 -0.1188 -0.4314  0.7969
    1DG      H3    3   4.308   0.100   1.305  0.6205 -2.1330 -0.4031
    1DG      H4    4   4.397   0.045   1.452  2.2754  3.4196  3.4004
    1DG      H5    5   4.484   0.132   1.323 -0.6844 -0.0729 -1.2300
    1DG      H6    6   3.965   0.637   1.209  0.7921 -0.7494  0.6245
    1DG      H7    7   3.909   0.743   1.328 -0.1426  0.5568 -0.1749
    1DG      H8    8   4.065   0.783   1.247  1.3230 -0.0123  3.6310
    1DG      O9    9   4.334   0.242   1.437 -0.0754 -0.1799 -0.1936
    1DG     O10   10   4.069   0.623   1.375  0.1776  0.4541 -0.6584
    1DG     C11   11   4.421   0.309   1.530 -0.2809 -0.1096 -0.2551
    1DG     C12   12   4.151   0.701   1.463 -0.0437 -0.0075  0.0899
    1DG     H13   13   4.505   0.351   1.474 -0.7111  1.6462  0.3340
    1DG     H14   14   4.452   0.234   1.602  0.5393 -0.1385 -0.6232
    1DG     H15   15   4.100   0.787   1.507  0.5362 -0.1778  1.1132
    1DG     H16   16   4.241   0.741   1.417  0.2504  0.4038  0.9942
    1DG     C17   17   4.347   0.419   1.616  0.7756 -0.3972  0.5173
    1DG     C18   18   4.203   0.615   1.576  0.0964 -0.3043 -0.3718
    1DG     O19   19   4.266   0.495   1.524  0.0503  0.0060 -0.0914
    1DG     H20   20   4.420   0.489   1.656  0.0707  0.0614  1.0250
    1DG     H21   21   4.284   0.382   1.697 -0.4917  0.0862 -0.2289
    1DG     H22   22   4.285   0.669   1.623  0.4545 -1.8047  0.8358
    1DG     H23   23   4.117   0.590   1.638  0.9054 -0.5084  0.6964
    2DG      C1   24   1.109   3.563   2.418  0.2548  0.1730  0.2556
    2DG      C2   25   1.726   3.995   2.394  0.1812  0.4587 -0.0679
    2DG      H3   26   1.096   3.455   2.412  2.2377 -0.0343 -2.3364
    2DG      H4   27   1.087   3.600   2.318  0.3470  1.2495  0.6278
    2DG      H5   28   1.024   3.601   2.473 -1.0912 -0.5772 -1.2329
    2DG      H6   29   1.687   4.093   2.421 -0.0631  0.8064 -1.5954
    2DG      H7   30   1.834   3.999   2.411 -0.0835 -0.4291  2.2723
    2DG      H8   31   1.724   3.990   2.286  1.9178 -1.5471 -0.0804
    2DG      O9   32   1.239   3.604   2.465  1.1283  0.0975  0.1897
    2DG     O10   33   1.668   3.878   2.453  0.5156  0.1430 -0.2509
    2DG     C11   34   1.267   3.562   2.599  0.2667 -0.3048 -0.2863
    2DG     C12   35   1.660   3.880   2.597 -0.1121 -0.4310  0.6437
    2DG     H13   36   1.252   3.455   2.613 -0.6587 -0.0159  1.1966
    2DG     H14   37   1.205   3.615   2.671  2.7382  1.5432  0.6326
    2DG     H15   38   1.606   3.967   2.634 -0.0322  0.3608 -1.0299
    2DG     H16   39   1.757   3.898   2.642  2.0939 -0.5561 -3.5640
    2DG     C17   40   1.421   3.591   2.628  0.4944  0.0849 -0.4473
    2DG     C18   41   1.590   3.753   2.645  0.1078 -0.5375  0.4539
    2DG     O19   42   1.463   3.720   2.583  0.6248 -0.2793 -0.1022
    2DG     H20   43   1.494   3.518   2.594  1.0769 -0.9351  2.6027
    2DG     H21   44   1.435   3.575   2.735 -0.0177 -1.5438 -0.5940
    2DG     H22   45   1.651   3.668   2.613  0.4054 -0.0306 -0.3773
    2DG     H23   46   1.582   3.744   2.753  1.0619 -3.4202  0.3672
    3DG      C1   47   0.815   3.975   1.356  0.8631 -0.5354 -0.2198
    3DG      C2   48   1.080   3.584   1.791  0.1935  0.4875 -0.1553
    3DG      H3   49   0.825   3.956   1.249  0.2112 -0.5436 -0.2819
    3DG      H4   50   0.902   4.031   1.392  1.3260 -0.0075 -2.0501
    3DG      H5   51   0.735   4.049   1.360 -0.0001 -1.4498 -0.2538
    3DG      H6   52   1.156   3.524   1.742  0.8231  1.7938 -0.8190
    3DG      H7   53   1.119   3.683   1.817  2.4175 -0.3840 -0.0053
    3DG      H8   54   1.062   3.519   1.877  0.6240  0.6768  0.0792
    3DG      O9   55   0.787   3.863   1.443  0.2728 -0.0752 -0.4836
    3DG     O10   56   0.956   3.596   1.729  1.2148  0.3952 -0.1551
    3DG     C11   57   0.692   3.772   1.389 -0.4328  0.5575 -0.0434
    3DG     C12   58   0.907   3.470   1.669  0.2966  0.3965  0.3921
    3DG     H13   59   0.722   3.729   1.294  1.2313  0.6985  0.3862
    3DG     H14   60   0.603   3.835   1.381 -1.1761 -0.1904  1.7574
    3DG     H15   61   0.889   3.394   1.745 -2.2688 -1.8852 -2.2559
    3DG     H16   62   0.970   3.441   1.585 -2.1837 -2.6207 -0.6188
    3DG     C17   63   0.659   3.666   1.493 -0.6176 -0.0897  0.1062
    3DG     C18   64   0.767   3.514   1.631 -0.2587  0.2687 -0.1280
    3DG     O19   65   0.787   3.616   1.535 -0.0393 -0.3741 -0.5835
    3DG     H20   66   0.588   3.598   1.446  0.5487 -0.3696 -1.3335
    3DG     H21   67   0.615   3.721   1.576  1.1275  0.8557  0.4408
    3DG     H22   68   0.708   3.430   1.594 -0.2883  0.0513  0.3997
    3DG     H23   69   0.727   3.559   1.721 -0.8375 -1.4125  0.4969
    4DG      C1   70   4.874   1.382   0.796 -0.4917 -0.2635  0.0667
    4DG      C2   71   5.559   1.535   0.815  0.0085 -0.5763 -0.0850
    4DG      H3   72   4.868   1.328   0.891 -1.2338 -0.7413 -0.2420
    4DG      H4   73   4.801   1.335   0.731  0.6338  0.9206 -2.1451
    4DG      H5   74   4.835   1.484   0.797 -1.7390 -0.7218  0.6703
    4DG      H6   75   5.523   1.592   0.900  3.1479  1.7078 -0.1232
    4DG      H7   76   5.666   1.516   0.822  1.1057  3.5942 -2.3983
    4DG      H8   77   5.555   1.610   0.736  1.4908  0.2636  0.5942
    4DG      O9   78   5.007   1.369   0.739 -0.0190  0.4605  0.1699
    4DG     O10   79   5.479   1.425   0.787  0.3062  0.0760  0.4501
    4DG     C11   80   5.051   1.233   0.741  0.2031  0.0591 -0.3559
    4DG     C12   81   5.493   1.379   0.648  0.7093 -0.4585 -0.2774
    4DG     H13   82   4.973   1.160   0.717  0.3738  0.1062 -1.0786
    4DG     H14   83   5.088   1.215   0.841  1.3150  3.6770  0.0131
    4DG     H15   84   5.590   1.339   0.620  1.7615  0.7955  1.4358
    4DG     H16   85   5.464   1.450   0.571  0.0153  0.1191  0.4967
    4DG     C17   86   5.167   1.214   0.646  0.1197 -0.2257 -0.2402
    4DG     C18   87   5.391   1.263   0.643  0.1772 -0.2395  0.3424
    4DG     O19   88   5.263   1.311   0.689 -0.4550  0.1933  0.5403
    4DG     H20   89   5.132   1.242   0.547  0.1132 -2.2269 -0.8360
    4DG     H21   90   5.203   1.112   0.654  3.1245  0.8173  1.0563
    4DG     H22   91   5.387   1.206   0.550 -0.2995 -0.2503  0.3664
    4DG     H23   92   5.426   1.196   0.721  0.6952  0.1941  0.4898
    5DG      C1   93   3.215   0.202   1.733 -0.1823 -0.3046 -0.0045
    5DG      C2   94   3.583   0.111   2.286 -0.4317  0.2068 -0.1694
    5DG      H3   95   3.219   0.251   1.636  2.1104 -2.1085 -0.9278
    5DG      H4   96   3.166   0.272   1.800  1.2785  0.7674 -0.0230
    5DG      H5   97   3.152   0.113   1.740  0.7148 -0.9668 -0.1859
    5DG      H6   98   3.626   0.031   2.345 -0.5023  1.3671  1.5209
    5DG      H7   99   3.617   0.204   2.331 -0.3074 -0.5456  1.3413
    5DG      H8  100   3.479   0.096   2.314 -0.2701 -4.4856 -1.3946
    5DG      O9  101   3.351   0.181   1.775 -0.3111 -0.0317  0.7165
    5DG     O10  102   3.594   0.116   2.149 -0.1523  0.0827  0.3435
    5DG     C11  103   3.411   0.084   1.691 -0.9887  0.8291  0.3594
    5DG     C12  104   3.639  -0.012   2.092  0.0729  0.1863  0.1326
    5DG     H13  105   3.396   0.112   1.587 -0.5936 -1.2292 -0.3144
    5DG     H14  106   3.361  -0.012   1.705 -1.6136  0.9135 -1.0729
    5DG     H15  107   3.571  -0.095   2.114  0.0324  0.6772  2.1012
    5DG     H16  108   3.740  -0.038   2.125 -0.4660 -1.0026  0.9301
    5DG     C17  109   3.557   0.060   1.736  0.1757  0.0324  0.2998
    5DG     C18  110   3.665   0.000   1.943  0.3251 -0.4336 -0.0111
    5DG     O19  111   3.549   0.042   1.879 -0.3445 -0.3344 -0.1210
    5DG     H20  112   3.622   0.146   1.720  0.3771  0.1537  1.6700
    5DG     H21  113   3.601  -0.028   1.689  2.8934  0.2299  2.2576
    5DG     H22  114   3.745   0.066   1.909  1.3102 -1.4755  0.2404
    5DG     H23  115   3.698  -0.100   1.916  0.4311 -0.6817  1.0217
    6DG      C1  116   0.735   4.362   2.754 -0.2237 -0.3087 -0.8426
    6DG      C2  117   0.160   4.304   2.396 -0.0380 -0.0508 -0.2521
    6DG      H3  118   0.675   4.437   2.805  0.6343 -0.6372  0.7126
    6DG      H4  119   0.801   4.415   2.685  1.1095  0.6271  1.0551
    6DG      H5  120   0.806   4.323   2.828 -1.1776  0.7310  0.6654
    6DG      H6  121   0.084   4.255   2.335 -0.7792 -1.7931  1.9366
    6DG      H7  122   0.095   4.358   2.466 -1.5789 -1.0509 -0.8678
    6DG      H8  123   0.190   4.397   2.347  1.2316 -1.1122 -1.5596
    6DG      O9  124   0.660   4.257   2.703  0.1276 -0.0784  0.2533
    6DG     O10  125   0.267   4.225   2.450  0.1950  0.6252  0.3929
    6DG     C11  126   0.609   4.163   2.793  0.2936 -0.1444  0.3725
    6DG     C12  127   0.230   4.107   2.501  0.2911  0.5212 -0.4565
    6DG     H13  128   0.562   4.218   2.875 -1.2246 -1.0372  0.1497
    6DG     H14  129   0.699   4.121   2.838  0.2482 -0.5226  0.1127
    6DG     H15  130   0.189   4.048   2.419 -0.1398  1.7601 -1.1694
    6DG     H16  131   0.147   4.118   2.571  0.4931 -1.2288  0.0930
    6DG     C17  132   0.511   4.061   2.734  0.2480  0.1775 -0.6908
    6DG     C18  133   0.357   4.036   2.564 -0.8556 -0.4380  0.1476
    6DG     O19  134   0.407   4.128   2.662 -0.6875  0.0121  0.0110
    6DG     H20  135   0.470   4.014   2.824  1.6524  2.2996  1.1379
    6DG     H21  136   0.569   3.998   2.667  1.9341  0.5013  0.3848
    6DG     H22  137   0.344   3.931   2.588 -1.4109 -0.2084  0.8820
    6DG     H23  138   0.436   4.038   2.489 -1.2082 -2.1966 -0.3120
    7DG      C1  139   1.700   3.293   2.484 -0.2799  0.1512 -0.0101
    7DG      C2  140   1.483   2.657   2.347 -0.7221  0.2177 -0.7267
    7DG      H3  141   1.659   3.264   2.581 -0.6377 -0.5429 -0.3598
    7DG      H4  142   1.611   3.335   2.437 -1.7157 -0.6080  1.8848
    7DG      H5  143   1.778   3.367   2.496  0.1917 -0.7168  3.2281
    7DG      H6  144   1.385   2.698   2.372 -1.4975 -0.3945 -2.5967
    7DG      H7  145   1.463   2.589   2.265 -1.6477  1.2586 -1.3999
    7DG      H8  146   1.511   2.590   2.428  0.8990  2.0794  0.3554
    7DG      O9  147   1.748   3.185   2.410 -0.1776 -0.2331  0.8481
    7DG     O10  148   1.581   2.767   2.325  0.1190  0.0680 -0.1134
    7DG     C11  149   1.793   3.213   2.275  0.3374 -0.1915  0.4674
    7DG     C12  150   1.617   2.781   2.187 -0.2949  0.0089  0.5440
    7DG     H13  151   1.871   3.288   2.266 -0.5721  0.6448 -0.8744
    7DG     H14  152   1.712   3.248   2.211  0.4325  0.7789  0.8590
    7DG     H15  153   1.529   2.816   2.135 -1.0044 -1.3986  0.7391
    7DG     H16  154   1.653   2.686   2.148 -2.1964 -0.6015  0.1941
    7DG     C17  155   1.838   3.084   2.210 -0.0835 -0.1601 -0.0334
    7DG     C18  156   1.729   2.877   2.158  0.2698  0.1507  0.0692
    7DG     O19  157   1.731   2.996   2.243  0.1944  0.4843  0.5340
    7DG     H20  158   1.923   3.048   2.268 -0.5411  0.3479  0.9801
    7DG     H21  159   1.871   3.072   2.107 -0.8938 -0.2218 -0.2927
    7DG     H22  160   1.827   2.830   2.154  1.5905  2.8030 -2.2785
    7DG     H23  161   1.715   2.915   2.057  0.8195  0.2050  0.0137
    8DG      C1  162   4.287   5.044   3.865 -0.9220 -0.2268  0.6766
    8DG      C2  163   3.666   5.346   4.056 -0.4511 -0.7086 -0.3170
    8DG      H3  164   4.314   5.146   3.839  0.9798 -0.9551 -0.4444
    8DG      H4  165   4.322   4.964   3.799 -1.0840 -1.8112  2.4182
    8DG      H5  166   4.347   5.032   3.954  1.2259 -0.6666 -0.7487
    8DG      H6  167   3.678   5.423   4.132  0.6225  1.2504 -2.3479
    8DG      H7  168   3.705   5.382   3.961  0.7584 -0.3238  0.3109
    8DG      H8  169   3.558   5.334   4.051 -0.3799 -1.7775  0.3912
    8DG      O9  170   4.148   5.035   3.904 -0.1865  0.0747 -0.8141
    8DG     O10  171   3.730   5.222   4.063 -0.3794 -0.4203  0.2068
    8DG     C11  172   4.104   4.911   3.958 -0.2208  0.4545 -0.3249
    8DG     C12  173   3.675   5.128   3.972  0.0345 -0.0166 -0.3816
    8DG     H13  174   4.124   4.924   4.064  1.7139  1.2678 -0.7361
    8DG     H14  175   4.171   4.831   3.927  0.4452  0.9399 -0.1811
    8DG     H15  176   3.670   5.163   3.869 -2.3545 -0.8132 -0.5930
    8DG     H16  177   3.569   5.118   3.994  0.3336  1.4657  2.1582
    8DG     C17  178   3.958   4.890   3.927  0.4326 -0.3151 -0.5610
    8DG     C18  179   3.747   4.994   3.979  0.0485 -0.8459  0.2539
    8DG     O19  180   3.890   5.007   3.978 -0.0899 -0.5285  0.7817
    8DG     H20  181   3.921   4.800   3.976  1.4756  0.0031  0.8538
    8DG     H21  182   3.943   4.888   3.819 -0.6481 -1.4438 -0.4202
    8DG     H22  183   3.723   4.952   4.076  0.2418  2.9576  2.1460
    8DG     H23  184   3.712   4.933   3.896  1.7269  0.6035 -1.6509
    9DG      C1  185   1.281   5.001   1.755  0.8236  0.7889 -0.6097
    9DG      C2  186   1.298   4.351   1.407 -0.1485  0.1033  0.4333
    9DG      H3  187   1.358   5.063   1.801 -1.0765  1.9372  1.2146
    9DG      H4  188   1.197   4.995   1.824 -1.4566 -2.1879 -3.3710
    9DG      H5  189   1.250   5.061   1.669  1.6313  1.8045 -0.2156
    9DG      H6  190   1.198   4.334   1.447 -1.4019 -0.4440 -2.6813
    9DG      H7  191   1.267   4.379   1.307 -1.5686  0.2170  0.8792
    9DG      H8  192   1.348   4.256   1.386 -1.0098 -0.9562  2.8310
    9DG      O9  193   1.327   4.868   1.728  0.1758  0.0576 -0.1133
    9DG     O10  194   1.377   4.442   1.487 -0.8762  0.7956 -0.1393
    9DG     C11  195   1.371   4.808   1.848 -0.1235 -0.1798  0.6574
    9DG     C12  196   1.420   4.389   1.611  0.1174  0.2880  0.8544
    9DG     H13  197   1.282   4.789   1.908 -0.3332 -2.3097 -0.2461
    9DG     H14  198   1.425   4.872   1.918 -1.3412  0.6366  0.8844
    9DG     H15  199   1.484   4.302   1.591  2.7104  2.4506 -0.9324
    9DG     H16  200   1.330   4.358   1.664  0.4296 -0.7009  0.8266
    9DG     C17  201   1.462   4.691   1.824 -0.0955 -0.3207 -0.1584
    9DG     C18  202   1.495   4.484   1.697 -0.4710 -0.3718  0.1226
    9DG     O19  203   1.407   4.600   1.722  0.0519 -0.3319 -0.0045
    9DG     H20  204   1.494   4.636   1.912  2.0026  0.0795 -0.6277
    9DG     H21  205   1.554   4.726   1.777 -1.2948  0.2197 -2.2687
    9DG     H22  206   1.515   4.430   1.790  0.6277 -0.5019 -0.1763
    9DG     H23  207   1.592   4.521   1.665 -0.6989  2.2263  2.0607
   10DG      C1  208   4.438   2.161   2.216  0.4293  0.0908 -0.4280
   10DG      C2  209   5.022   2.399   2.424 -0.1420  0.4536  0.0784
   10DG      H3  210   4.388   2.170   2.312 -0.7767  0.7790 -1.1027
   10DG      H4  211   4.510   2.079   2.231  0.0237 -0.3599 -0.9173
   10DG      H5  212   4.357   2.143   2.145  0.4901  1.8222 -0.9657
   10DG      H6  213   4.982   2.380   2.524 -0.1152 -3.7387 -0.5268
   10DG      H7  214   5.100   2.326   2.401  0.0519 -0.0524  2.1739
   10DG      H8  215   5.069   2.496   2.439 -0.5319  0.4685  1.2542
   10DG      O9  216   4.515   2.275   2.199 -0.0917  0.3810  0.1075
   10DG     O10  217   4.929   2.404   2.322  0.3157  0.0576  0.6587
   10DG     C11  218   4.542   2.299   2.058  0.4248 -0.3112  0.3790
   10DG     C12  219   4.973   2.439   2.194 -0.2527 -0.4450 -0.4336
   10DG     H13  220   4.449   2.319   2.005  1.6842  0.4034 -1.6616
   10DG     H14  221   4.589   2.214   2.008  1.2192  1.1978 -1.5761
   10DG     H15  222   5.023   2.351   2.155 -0.7043 -1.5973  1.4574
   10DG     H16  223   5.049   2.517   2.191  1.5652 -2.0794  0.5804
   10DG     C17  224   4.634   2.414   2.031 -0.3243 -0.0890  0.4371
   10DG     C18  225   4.856   2.490   2.111 -0.7286 -0.1167  0.0010
   10DG     O19  226   4.757   2.389   2.099 -0.2311  0.1837  0.3305
   10DG     H20  227   4.583   2.505   2.060 -2.7724 -1.5812  1.0808
   10DG     H21  228   4.656   2.412   1.924 -0.3987 -3.7080  0.3617
   10DG     H22  229   4.807   2.576   2.158 -1.7446  0.6323 -2.2788
   10DG     H23  230   4.885   2.540   2.018  0.9131  1.3605  1.2383
   11DG      C1  231   0.961   5.332   5.217 -0.3802  0.5289 -1.1187
   11DG      C2  232   1.389   5.781   4.681  0.6044  0.1296  0.1724
   11DG      H3  233   1.029   5.316   5.301 -0.5929  0.1202 -1.0228
   11DG      H4  234   0.899   5.243   5.203 -1.6779  0.9798  1.1404
   11DG      H5  235   0.900   5.414   5.256  2.4552  2.9249 -1.4043
   11DG      H6  236   1.480   5.761   4.624 -0.1263  0.8133 -1.2991
   11DG      H7  237   1.320   5.846   4.628  0.9710 -0.4684 -1.0849
   11DG      H8  238   1.429   5.834   4.767  0.3684 -1.7282  1.4814
   11DG      O9  239   1.020   5.384   5.103  0.7674 -0.1709  0.0267
   11DG     O10  240   1.322   5.666   4.737 -0.5617  0.2624 -0.3513
   11DG     C11  241   1.096   5.294   5.030 -0.0680  0.7150 -1.0944
   11DG     C12  242   1.210   5.702   4.815  0.3693  0.3014  0.7300
   11DG     H13  243   1.036   5.204   5.026 -1.8409  1.8627 -1.3713
   11DG     H14  244   1.182   5.267   5.092  0.8841 -0.4679 -2.8268
   11DG     H15  245   1.151   5.765   4.749  0.2525 -0.8810 -0.3270
   11DG     H16  246   1.233   5.747   4.912  1.1122  1.0873  0.2011
   11DG     C17  247   1.117   5.357   4.896  0.4617  0.2700  0.1152
   11DG     C18  248   1.123   5.581   4.834  0.8508  0.6281 -0.0225
   11DG     O19  249   1.196   5.475   4.897 -0.4570  0.5289  0.1835
   11DG     H20  250   1.016   5.370   4.857  0.0728 -0.6430  0.7801
   11DG     H21  251   1.156   5.277   4.833 -2.2526  0.5294 -2.1275
   11DG     H22  252   1.037   5.598   4.900  0.9349  3.8468 -0.5540
   11DG     H23  253   1.082   5.546   4.739 -0.7482  2.0241  0.1094
   12DG      C1  254   0.050   4.254   5.470  0.1081 -0.0104  0.4479
   12DG      C2  255   0.109   4.357   6.138  0.0372  0.2463 -0.0225
   12DG      H3  256   0.116   4.183   5.519 -1.2464 -0.8372  1.1421
   12DG      H4  257   0.074   4.261   5.364 -2.5707  0.5669 -0.2117
   12DG      H5  258  -0.043   4.198   5.482 -0.7251  1.5174  1.3328
   12DG      H6  259   0.033   4.279   6.134  1.1262 -0.9939  1.8495
   12DG      H7  260   0.206   4.312   6.161  0.5457  0.3782 -1.7250
   12DG      H8  261   0.090   4.415   6.228  0.5540 -1.5440  1.3038
   12DG      O9  262   0.058   4.386   5.519  0.3127 -0.2451  0.4752
   12DG     O10  263   0.111   4.427   6.014  0.0473 -0.2737 -0.6415
   12DG     C11  264   0.188   4.451   5.506  0.0088  0.2707  0.1856
   12DG     C12  265   0.236   4.491   5.979  0.4154  0.2995 -0.2551
   12DG     H13  266   0.196   4.503   5.410 -0.0273  1.4271  0.8027
   12DG     H14  267   0.265   4.373   5.506  0.6114  0.8293 -1.1131
   12DG     H15  268   0.322   4.424   5.971  1.0381  1.0147  0.2814
   12DG     H16  269   0.261   4.556   6.063 -2.6437  0.6503  0.4911
   12DG     C17  270   0.213   4.552   5.613 -0.5399 -0.2960 -0.4533
   12DG     C18  271   0.225   4.574   5.851  0.5497 -0.3258 -0.1607
   12DG     O19  272   0.217   4.489   5.743 -0.3303  0.3526 -0.3353
   12DG     H20  273   0.138   4.631   5.615  0.0827  0.3161  1.2224
   12DG     H21  274   0.306   4.603   5.588 -0.5066  0.2676  0.7381
   12DG     H22  275   0.129   4.626   5.851  1.3716  1.4062 -2.7848
   12DG     H23  276   0.298   4.653   5.841  0.8011 -0.7646 -2.4878
   13DG      C1  277   4.381   4.293   0.654 -0.0385 -0.0512 -0.0487
   13DG      C2  278   3.823   4.260   1.017  0.4707 -0.1434 -0.1764
   13DG      H3  279   4.431   4.256   0.744 -1.5801 -1.4278  0.3038
   13DG      H4  280   4.377   4.401   0.660 -0.3862  0.0553 -1.7133
   13DG      H5  281   4.429   4.258   0.563  0.2612  1.1580 -0.3657
   13DG      H6  282   3.831   4.368   1.028  2.6152 -0.2377 -0.3955
   13DG      H7  283   3.717   4.238   1.026  0.3568  0.5060  0.1267
   13DG      H8  284   3.874   4.214   1.101  1.3176  1.5853  0.2984
   13DG      O9  285   4.248   4.251   0.638  0.3206 -0.3898 -0.3062
   13DG     O10  286   3.878   4.213   0.899 -0.2915  0.0286  0.9616
   13DG     C11  287   4.184   4.263   0.510 -0.0445  0.1991  0.1116
   13DG     C12  288   3.793   4.229   0.789 -0.7469  0.2959  0.4567
   13DG     H13  289   4.235   4.216   0.427 -1.8220 -1.3947 -0.1470
   13DG     H14  290   4.148   4.365   0.493 -2.7018 -0.5506  0.8006
   13DG     H15  291   3.772   4.335   0.773 -1.6211  0.1355  0.4921
   13DG     H16  292   3.695   4.180   0.791 -0.6101 -0.4901 -3.6359
   13DG     C17  293   4.046   4.189   0.517  0.3149  0.4104 -1.3597
   13DG     C18  294   3.861   4.172   0.668  0.3879 -0.5565  0.2800
   13DG     O19  295   3.984   4.240   0.629 -0.4287  0.0932 -0.0721
   13DG     H20  296   4.061   4.082   0.534 -1.2546  0.6143  2.2529
   13DG     H21  297   3.983   4.202   0.429 -0.7585  1.6422 -0.4373
   13DG     H22  298   3.866   4.064   0.683 -0.4386 -0.7762 -0.9321
   13DG     H23  299   3.793   4.188   0.584  0.7501 -0.6765 -0.0417
   14DG      C1  300   2.848   3.069   3.334 -0.5525 -0.7265 -0.2117
   14DG      C2  301   2.639   3.425   3.878  0.0919  0.5947  0.0267
   14DG      H3  302   2.745   3.037   3.344 -1.2462  1.5248  0.3891
   14DG      H4  303   2.918   2.986   3.343  2.3110  1.5882  0.4721
   14DG      H5  304   2.848   3.111   3.233 -0.7199 -1.2214 -0.4174
   14DG      H6  305   2.713   3.382   3.945  2.1258  0.5010 -2.1824
   14DG      H7  306   2.611   3.524   3.915 -0.3935 -0.2374  2.0357
   14DG      H8  307   2.552   3.360   3.869  1.0197 -0.3853 -2.7769
   14DG      O9  308   2.864   3.171   3.433  0.3709 -0.2096 -0.0946
   14DG     O10  309   2.706   3.436   3.751 -0.0228 -0.2522 -0.2005
   14DG     C11  310   2.973   3.255   3.419 -0.3829 -0.3889 -0.1186
   14DG     C12  311   2.820   3.518   3.749  0.2272 -0.0710  0.2325
   14DG     H13  312   2.974   3.304   3.322 -0.0488  0.7881  0.4602
   14DG     H14  313   3.063   3.195   3.413 -0.9780 -1.2404 -0.7867
   14DG     H15  314   2.906   3.456   3.777 -0.5500 -0.1018  2.8286
   14DG     H16  315   2.822   3.598   3.824 -0.9528  0.4675 -0.2915
   14DG     C17  316   2.973   3.362   3.530  0.3710  0.1226 -0.8367
   14DG     C18  317   2.847   3.561   3.605  0.1110 -0.5358 -0.1063
   14DG     O19  318   2.852   3.445   3.528  0.6325  1.2675  0.0353
   14DG     H20  319   3.058   3.429   3.520  0.0811  0.7210  0.4531
   14DG     H21  320   2.970   3.302   3.621 -0.2340  1.5399  0.1161
   14DG     H22  321   2.765   3.622   3.567  0.6086 -1.1875 -2.3194
   14DG     H23  322   2.935   3.625   3.605 -0.2293 -0.0684 -0.4033
   15DG      C1  323   3.136   4.261   4.653 -0.4400  0.4084  0.0001
   15DG      C2  324   3.256   4.267   4.100  1.0595  0.0217  0.1838
   15DG      H3  325   3.075   4.298   4.736 -0.1024 -1.0605  0.9394
   15DG      H4  326   3.212   4.337   4.635 -2.1281  2.6274  1.6116
   15DG      H5  327   3.189   4.173   4.689  3.2158  2.2249 -0.4728
   15DG      H6  328   3.218   4.355   4.048 -2.0303 -0.8299  0.7851
   15DG      H7  329   3.353   4.297   4.139  0.7227  0.6305  0.5657
   15DG      H8  330   3.282   4.184   4.034  1.9377 -0.2810  0.8907
   15DG      O9  331   3.051   4.243   4.536  0.0200  0.2455  0.3121
   15DG     O10  332   3.164   4.227   4.198  0.1943 -0.3387 -0.1045
   15DG     C11  333   2.929   4.177   4.560 -0.0439  0.2370 -0.0479
   15DG     C12  334   3.058   4.152   4.141 -0.0543 -0.4282  0.3988
   15DG     H13  335   2.887   4.211   4.655 -0.5272 -0.9148  0.1590
   15DG     H14  336   2.947   4.070   4.566  1.6414  0.3512 -2.0328
   15DG     H15  337   3.102   4.066   4.090  0.8719  0.0652  0.3441
   15DG     H16  338   3.005   4.202   4.059 -0.0667 -2.8615 -1.1971
   15DG     C17  339   2.844   4.215   4.440 -0.0625  0.2554 -1.1959
   15DG     C18  340   2.957   4.111   4.250 -0.1149  0.5455 -0.3354
   15DG     O19  341   2.916   4.232   4.315 -1.0293 -0.0345  0.7887
   15DG     H20  342   2.780   4.300   4.464 -0.2116 -0.1776  0.0006
   15DG     H21  343   2.770   4.135   4.433 -0.3360  0.3487  0.2887
   15DG     H22  344   2.870   4.059   4.209 -0.1541  0.2190  0.1490
   15DG     H23  345   3.004   4.042   4.320 -0.1646 -0.6350 -1.4076
   16DG      C1  346   1.723   2.865   0.860 -0.0374  0.0803  0.4934
   16DG      C2  347   1.985   3.335   0.536 -0.0266  0.1568 -0.3956
   16DG      H3  348   1.801   2.793   0.882  2.8640  2.1059 -2.2554
   16DG      H4  349   1.626   2.862   0.911 -0.5777  2.3680 -0.2694
   16DG      H5  350   1.763   2.958   0.901  1.7577 -0.1467 -0.6452
   16DG      H6  351   1.932   3.275   0.610 -1.4243  2.8792  0.9839
   16DG      H7  352   2.068   3.285   0.485  1.5027 -0.3576  2.3804
   16DG      H8  353   2.042   3.412   0.588 -2.5765  1.7925  0.1663
   16DG      O9  354   1.719   2.899   0.725  0.6162  0.2664 -0.7384
   16DG     O10  355   1.886   3.383   0.441 -0.6875  0.2671 -0.7282
   16DG     C11  356   1.631   3.009   0.696  0.1939  0.5348 -0.2738
   16DG     C12  357   1.838   3.283   0.353  0.8013 -0.1779 -0.2367
   16DG     H13  358   1.677   3.092   0.752  0.2247 -1.2452  2.5635
   16DG     H14  359   1.539   2.967   0.736  0.7127 -1.0798 -0.6912
   16DG     H15  360   1.918   3.217   0.321  0.2681 -1.0239  0.1308
   16DG     H16  361   1.829   3.343   0.262  2.7750  1.6474  0.6727
   16DG     C17  362   1.611   3.057   0.547 -0.6062  0.1482 -0.2701
   16DG     C18  363   1.707   3.208   0.400  0.9941 -0.1775  0.9274
   16DG     O19  364   1.719   3.143   0.525  0.0705  0.1632 -0.3722
   16DG     H20  365   1.515   3.104   0.525 -1.9489 -2.9180 -1.6493
   16DG     H21  366   1.608   2.969   0.483 -2.4760 -1.3394  1.6937
   16DG     H22  367   1.624   3.278   0.398 -1.0710 -2.4335 -1.4867
   16DG     H23  368   1.686   3.138   0.319 -0.4543 -0.4950  1.5621
   17DG      C1  369   3.221   2.848   4.690  0.3267 -0.0882  0.0955
   17DG      C2  370   2.909   3.451   4.963  0.2413  0.6863 -0.1768
   17DG      H3  371   3.129   2.803   4.729  0.8410 -1.3170 -0.0748
   17DG      H4  372   3.309   2.791   4.719  0.4244 -0.1242 -0.2667
   17DG      H5  373   3.212   2.845   4.581  1.2951  3.6634 -0.2281
   17DG      H6  374   2.906   3.559   4.973 -2.3656  0.5339  1.9553
   17DG      H7  375   2.850   3.424   4.875 -0.0938 -0.4765  0.3741
   17DG      H8  376   2.856   3.428   5.056  0.3698  0.8950 -0.0519
   17DG      O9  377   3.233   2.974   4.739  0.0955  0.3384 -0.3191
   17DG     O10  378   3.032   3.384   4.946  0.0599  0.1938 -0.3615
   17DG     C11  379   3.327   3.049   4.676 -0.1513 -0.0359  0.2871
   17DG     C12  380   3.116   3.458   4.858  0.5495  0.1103 -0.6432
   17DG     H13  381   3.283   3.071   4.578  1.8680 -2.1954 -1.2058
   17DG     H14  382   3.409   2.982   4.650 -0.6947 -0.5297 -0.1857
   17DG     H15  383   3.139   3.556   4.900 -0.4747 -0.7659  2.1696
   17DG     H16  384   3.066   3.465   4.762  2.2256 -1.2635 -1.6893
   17DG     C17  385   3.354   3.183   4.751 -0.3942 -0.5909 -0.4275
   17DG     C18  386   3.248   3.382   4.826 -0.3315 -0.2835  0.7329
   17DG     O19  387   3.235   3.256   4.768  0.2282  0.0153 -0.3918
   17DG     H20  388   3.436   3.233   4.699  0.5735  0.4800  1.9869
   17DG     H21  389   3.400   3.162   4.847  0.4600  1.3541 -0.3509
   17DG     H22  390   3.295   3.453   4.758 -0.2237  0.3747  1.4787
   17DG     H23  391   3.316   3.388   4.911  0.6876  0.7533 -0.1269
   18DG      C1  392   2.953   0.048   3.664  0.5861  0.1558  0.6826
   18DG      C2  393   2.587  -0.252   3.136 -0.6152  0.0942 -0.2808
   18DG      H3  394   2.973   0.148   3.627 -1.6169  0.3948 -0.0086
   18DG      H4  395   3.034   0.029   3.734  1.1643  0.5829  0.1346
   18DG      H5  396   2.861   0.046   3.723 -0.3940 -3.5725 -0.6610
   18DG      H6  397   2.499  -0.251   3.200 -0.1602 -0.2164  0.3631
   18DG      H7  398   2.609  -0.155   3.092  0.7713 -0.1422 -0.1681
   18DG      H8  399   2.562  -0.328   3.063 -0.0443 -0.1819 -0.1963
   18DG      O9  400   2.938  -0.043   3.548  0.0463  0.6916 -0.0030
   18DG     O10  401   2.688  -0.290   3.227 -0.0367  0.4214 -0.1140
   18DG     C11  402   2.995  -0.170   3.583  0.0602 -0.3515  0.3370
   18DG     C12  403   2.813  -0.302   3.166  0.1500 -0.7018  0.3510
   18DG     H13  404   2.927  -0.223   3.650  0.4219 -0.8806  0.2924
   18DG     H14  405   3.092  -0.153   3.629  0.2074 -0.9511  0.2635
   18DG     H15  406   2.839  -0.205   3.125 -1.1505 -0.1500  0.7739
   18DG     H16  407   2.804  -0.375   3.085 -3.2241  0.7988 -0.8240
   18DG     C17  408   3.025  -0.259   3.461 -0.7807 -0.5439  0.7526
   18DG     C18  409   2.924  -0.337   3.260  0.1931 -0.7499 -0.4394
   18DG     O19  410   2.929  -0.232   3.355 -0.2340  0.0880 -0.7407
   18DG     H20  411   3.010  -0.361   3.495 -1.2556 -0.3043  1.2650
   18DG     H21  412   3.123  -0.247   3.415 -0.9863 -1.3948  0.0530
   18DG     H22  413   2.896  -0.438   3.291  0.4527 -2.0317 -3.9885
   18DG     H23  414   3.021  -0.337   3.210  0.3093 -1.3809 -0.2289
   19DG      C1  415   1.062   3.165   4.498 -0.2686  0.3301 -0.2050
   19DG      C2  416   0.416   3.005   4.695 -0.3889  0.3400 -0.2950
   19DG      H3  417   1.031   3.190   4.397  0.9542  1.0880 -0.4178
   19DG      H4  418   1.094   3.061   4.503  1.0047  0.7695  1.6716
   19DG      H5  419   1.152   3.227   4.504 -0.2857  0.2510  1.0204
   19DG      H6  420   0.369   3.071   4.622  1.1655  2.2731  0.3520
   19DG      H7  421   0.432   2.909   4.646  0.4121  0.4349 -0.2444
   19DG      H8  422   0.347   2.997   4.779  0.1142  1.1472  0.2055
   19DG      O9  423   0.963   3.189   4.602 -0.3904 -0.4569 -0.0636
   19DG     O10  424   0.539   3.056   4.740 -0.1936  0.3635  0.4507
   19DG     C11  425   1.016   3.141   4.726 -0.5999  0.0618 -0.4033
   19DG     C12  426   0.594   2.999   4.856 -0.0621  0.4057 -0.3152
   19DG     H13  427   1.116   3.182   4.737 -0.7185  0.0779  0.8206
   19DG     H14  428   1.030   3.033   4.720 -2.4195 -0.2882  0.8847
   19DG     H15  429   0.639   2.901   4.843  2.3119  1.4881 -0.7489
   19DG     H16  430   0.534   2.993   4.947  0.8322  3.0099  0.5299
   19DG     C17  431   0.912   3.172   4.831  0.2585 -0.6877 -0.2363
   19DG     C18  432   0.709   3.091   4.908  0.2069  0.6014  0.1281
   19DG     O19  433   0.797   3.097   4.793  0.4257 -0.4622  0.3124
   19DG     H20  434   0.886   3.278   4.835 -2.8046 -1.3107 -1.1189
   19DG     H21  435   0.947   3.145   4.930  0.5839  0.0714 -0.1353
   19DG     H22  436   0.668   3.189   4.931 -1.4384 -0.3628  1.4895
   19DG     H23  437   0.748   3.050   5.001 -1.6751  0.2060  0.7843
   20DG      C1  438   0.342   0.990   3.463  0.4982 -0.5197  0.1003
   20DG      C2  439   0.058   0.740   4.021 -0.3015 -0.3065 -0.6456
   20DG      H3  440   0.247   1.042   3.471 -1.8060 -4.3469 -0.1180
   20DG      H4  441   0.348   0.957   3.359  1.5294  0.9267 -0.3436
   20DG      H5  442   0.423   1.050   3.503 -0.3955  0.1569  0.9351
   20DG      H6  443  -0.029   0.781   3.970 -0.2415 -1.2853 -1.5690
   20DG      H7  444   0.018   0.656   4.078 -0.9252 -1.3355 -2.4943
   20DG      H8  445   0.093   0.821   4.085  0.6548 -0.2737 -1.1829
   20DG      O9  446   0.336   0.878   3.546 -0.0993  0.1021  0.2390
   20DG     O10  447   0.148   0.712   3.920  0.3715  0.3901 -0.0994
   20DG     C11  448   0.451   0.791   3.540 -0.4124 -0.0486  0.5331
   20DG     C12  449   0.278   0.690   3.974 -0.0206  0.6861 -0.1674
   20DG     H13  450   0.532   0.858   3.568 -0.4930 -0.4497  1.8296
   20DG     H14  451   0.468   0.757   3.438 -0.3635  0.0083  0.5225
   20DG     H15  452   0.278   0.615   4.052  0.2779  1.6080  0.7341
   20DG     H16  453   0.323   0.778   4.020 -0.8645  1.0511 -0.0364
   20DG     C17  454   0.436   0.672   3.637 -0.0459  0.0628 -0.1031
   20DG     C18  455   0.369   0.631   3.867 -0.3688  0.1662 -0.8710
   20DG     O19  456   0.370   0.718   3.755  0.0710 -0.4249 -0.4232
   20DG     H20  457   0.533   0.626   3.657  0.7159  2.0946  1.3037
   20DG     H21  458   0.366   0.600   3.598 -1.0579  0.2437  1.2931
   20DG     H22  459   0.468   0.630   3.914 -0.4478 -4.3165 -0.3852
   20DG     H23  460   0.337   0.534   3.829 -1.5753 -0.7286  2.1800
   21DG      C1  461   2.263   2.930   2.802 -1.1955 -0.0510 -0.6948
   21DG      C2  462   2.994   2.592   2.982  0.5874 -0.3574 -0.6871
   21DG      H3  463   2.251   2.961   2.905 -0.1231  0.0840 -0.6071
   21DG      H4  464   2.224   2.829   2.789  1.0869 -0.6934 -3.6473
   21DG      H5  465   2.197   3.001   2.752 -2.6909 -1.0635 -0.2246
   21DG      H6  466   3.032   2.505   2.929 -2.2816 -1.4951 -1.0325
   21DG      H7  467   3.069   2.609   3.060  0.6425  0.9054 -0.9901
   21DG      H8  468   2.895   2.561   3.014 -0.2887  0.1905 -2.6798
   21DG      O9  469   2.401   2.947   2.779  0.5255 -0.2180 -0.2974
   21DG     O10  470   2.962   2.706   2.905 -0.4310  0.1099  0.3227
   21DG     C11  471   2.489   2.880   2.869 -0.0171  0.0653 -0.1592
   21DG     C12  472   2.937   2.817   2.995 -0.4255 -0.1081 -0.5146
   21DG     H13  473   2.486   2.776   2.837 -0.0481  0.2147 -0.6532
   21DG     H14  474   2.452   2.886   2.971 -0.1067  0.4912 -0.2161
   21DG     H15  475   3.028   2.865   3.031 -0.2297 -0.4252 -0.5786
   21DG     H16  476   2.881   2.784   3.082 -0.9519 -0.5564 -1.0165
   21DG     C17  477   2.621   2.949   2.853 -0.1826 -0.3298 -0.3234
   21DG     C18  478   2.845   2.924   2.934 -0.4539  0.2030  0.0149
   21DG     O19  479   2.718   2.868   2.920  0.4197 -0.1865 -0.0323
   21DG     H20  480   2.600   3.045   2.900 -1.7631 -0.2505 -1.1133
   21DG     H21  481   2.638   2.959   2.746  0.1332 -0.7815 -0.3163
   21DG     H22  482   2.856   3.015   2.992 -1.1846 -1.1253  2.3770
   21DG     H23  483   2.882   2.951   2.835  1.5860  1.0226  0.9566
   22DG      C1  484   1.205   0.975   3.698 -0.1503 -0.2447 -0.2097
   22DG      C2  485   1.627   0.584   3.275  0.1128 -0.3197  0.2344
   22DG      H3  486   1.276   1.056   3.680  0.0149  0.0768  1.6756
   22DG      H4  487   1.148   0.998   3.788 -0.7281  0.2921 -0.7119
   22DG      H5  488   1.129   0.973   3.620 -1.1561  0.8617  0.7103
   22DG      H6  489   1.710   0.521   3.305  1.0461  0.8227  0.1145
   22DG      H7  490   1.598   0.559   3.173  0.8823  1.6469 -0.5169
   22DG      H8  491   1.657   0.688   3.282  0.3757 -0.0711 -3.1172
   22DG      O9  492   1.273   0.852   3.708  0.8762 -0.3525 -0.3979
   22DG     O10  493   1.517   0.567   3.370 -0.0650  0.0022 -0.2404
   22DG     C11  494   1.191   0.729   3.718  0.1331 -0.4355  0.5455
   22DG     C12  495   1.388   0.628   3.334 -0.5556  0.4055 -0.0258
   22DG     H13  496   1.111   0.738   3.644 -0.4706 -0.5592  1.1704
   22DG     H14  497   1.146   0.729   3.817 -0.1743 -0.1578  0.4086
   22DG     H15  498   1.337   0.590   3.245 -0.1562 -4.3783  1.5149
   22DG     H16  499   1.385   0.737   3.323 -2.8938  0.2479 -1.7697
   22DG     C17  500   1.283   0.611   3.678  0.4690  0.5802 -0.3824
   22DG     C18  501   1.297   0.588   3.444  0.2933 -0.4102 -0.1102
   22DG     O19  502   1.354   0.641   3.567  0.3411  0.3038  0.2046
   22DG     H20  503   1.236   0.514   3.662  1.1555  0.0456  0.6786
   22DG     H21  504   1.343   0.583   3.765  0.7637  1.1238 -0.4056
   22DG     H22  505   1.195   0.618   3.418 -0.0452 -2.4766 -1.3665
   22DG     H23  506   1.289   0.479   3.439 -0.7264 -0.2898 -1.8373
   23DG      C1  507   2.097   2.434   4.563 -0.5211  0.0541 -0.2469
   23DG      C2  508   2.113   2.953   4.116 -0.0284  0.5605  0.0291
   23DG      H3  509   2.050   2.341   4.593  1.0084 -1.3195 -1.8740
   23DG      H4  510   2.044   2.512   4.618 -0.8638 -0.5896  0.3478
   23DG      H5  511   2.195   2.443   4.611 -0.6659 -0.3837  0.1328
   23DG      H6  512   2.088   2.983   4.014  2.4147 -0.2931 -0.8977
   23DG      H7  513   2.049   3.006   4.186 -1.2278 -0.1099 -0.5291
   23DG      H8  514   2.215   2.980   4.144  0.6322 -1.4849 -0.2307
   23DG      O9  515   2.094   2.451   4.419  0.2447 -0.0787 -0.0876
   23DG     O10  516   2.104   2.812   4.113 -0.5869  0.6651  0.5933
   23DG     C11  517   1.972   2.410   4.352  0.2489  0.5399 -0.2897
   23DG     C12  518   1.999   2.754   4.039 -0.4872 -0.5533 -0.5210
   23DG     H13  519   1.888   2.470   4.386 -0.1070 -0.6385  1.0548
   23DG     H14  520   1.951   2.306   4.378 -0.4563  1.2788  2.5174
   23DG     H15  521   2.001   2.797   3.939  0.3382  2.1064  0.5631
   23DG     H16  522   1.900   2.782   4.075 -0.8271  1.9409 -3.0244
   23DG     C17  523   1.980   2.419   4.200 -0.4256 -0.7955  0.7401
   23DG     C18  524   2.002   2.599   4.036 -0.6863  0.0888 -0.1326
   23DG     O19  525   1.996   2.556   4.172 -0.0028  0.0603 -0.3611
   23DG     H20  526   1.882   2.380   4.173 -1.3004  1.7885 -0.1312
   23DG     H21  527   2.063   2.366   4.154 -0.7871 -0.6974 -0.0451
   23DG     H22  528   1.917   2.578   3.971  0.5907 -0.0839 -1.8442
   23DG     H23  529   2.086   2.557   3.980 -0.7564 -2.1141  1.3061
   24DG      C1  530   5.006   3.875   3.589  0.1475  0.3597 -0.1867
   24DG      C2  531   5.469   3.664   3.133 -0.6701 -0.4281  0.2371
   24DG      H3  532   4.951   3.960   3.630  2.2350  2.3146 -1.2470
   24DG      H4  533   5.038   3.819   3.677  0.9355 -0.7700 -1.1594
   24DG      H5  534   4.942   3.805   3.535  0.5709 -0.4941  0.3881
   24DG      H6  535   5.398   3.654   3.051 -0.1736  0.8741 -0.3768
   24DG      H7  536   5.566   3.676   3.083 -1.7670  0.8901 -1.7338
   24DG      H8  537   5.468   3.567   3.182 -1.7191 -0.5375  0.0227
   24DG      O9  538   5.121   3.918   3.514 -0.7430  0.0170  0.3146
   24DG     O10  539   5.428   3.780   3.203  0.2271 -0.1651  0.5153
   24DG     C11  540   5.196   4.009   3.593 -0.6498  0.2321 -0.4794
   24DG     C12  541   5.525   3.798   3.310  0.3676  0.3886  0.1582
   24DG     H13  542   5.239   3.965   3.683  0.8328  1.2390 -0.6612
   24DG     H14  543   5.145   4.094   3.638  0.3458  0.0838  1.0104
   24DG     H15  544   5.623   3.806   3.262 -0.2160  0.2475 -1.0964
   24DG     H16  545   5.529   3.716   3.381 -0.5782  0.7252  0.6242
   24DG     C17  546   5.317   4.052   3.508 -0.4881 -0.2499 -0.0415
   24DG     C18  547   5.495   3.940   3.376 -0.2710  0.4363  0.5376
   24DG     O19  548   5.367   3.939   3.441 -0.0072  0.3535  0.1671
   24DG     H20  549   5.397   4.099   3.564 -0.0544 -1.3643  0.3050
   24DG     H21  550   5.279   4.125   3.436  0.6642  0.9197  0.4944
   24DG     H22  551   5.573   3.959   3.449 -0.0002  0.8204  0.1506
   24DG     H23  552   5.488   4.013   3.296 -1.7452 -0.2778 -0.0336
   25DG      C1  553   4.108   2.929   4.362 -1.0392 -0.1113 -0.0155
   25DG      C2  554   4.331   2.382   4.112  0.5207  0.5954  0.3827
   25DG      H3  555   4.190   2.931   4.432 -1.5650  1.2611  0.6126
   25DG      H4  556   4.035   2.999   4.404 -1.1633  0.1558 -0.6632
   25DG      H5  557   4.144   2.971   4.268 -1.1446  1.2956  0.5496
   25DG      H6  558   4.313   2.280   4.080 -0.6180  0.7029  0.6513
   25DG      H7  559   4.372   2.440   4.030  0.1263  0.9592  0.4388
   25DG      H8  560   4.411   2.379   4.186  0.1787 -0.4743  0.7225
   25DG      O9  561   4.040   2.801   4.347 -0.0510  0.0995  0.2801
   25DG     O10  562   4.209   2.437   4.166  0.1770  0.4552 -0.1275
   25DG     C11  563   3.928   2.819   4.262 -0.0682 -0.0438 -0.1280
   25DG     C12  564   4.105   2.413   4.071  0.7184 -0.0169 -0.1762
   25DG     H13  565   3.960   2.886   4.182  0.6110 -0.7721 -0.4995
   25DG     H14  566   3.851   2.876   4.313  0.7672  0.2284  0.8701
   25DG     H15  567   4.093   2.307   4.046  0.6150  0.0327 -0.3411
   25DG     H16  568   4.124   2.467   3.978 -0.0784  0.1064 -0.2753
   25DG     C17  569   3.872   2.684   4.211  0.0653  0.0370  0.2311
   25DG     C18  570   3.969   2.475   4.123 -0.7034  0.0104 -1.0374
   25DG     O19  571   3.985   2.616   4.160 -0.3651 -0.7485 -0.1154
   25DG     H20  572   3.795   2.700   4.136  1.3255  0.3357 -1.0362
   25DG     H21  573   3.828   2.627   4.293  0.5015 -0.9843 -0.2238
   25DG     H22  574   3.890   2.470   4.049 -0.5468  1.6088 -1.3493
   25DG     H23  575   3.941   2.435   4.221  0.3833 -0.0648 -0.7435
   26DG      C1  576   0.268   3.265   1.978 -0.2077 -0.2154 -0.1055
   26DG      C2  577   0.112   3.894   1.691  0.3300  0.4709 -0.4043
   26DG      H3  578   0.291   3.253   1.872  0.8615  2.7242 -0.3218
   26DG      H4  579   0.188   3.196   2.005  0.2400 -0.6977  0.0135
   26DG      H5  580   0.356   3.251   2.042 -2.2379 -0.3744  2.8850
   26DG      H6  581   0.152   3.829   1.613  3.1010 -1.1008  2.1341
   26DG      H7  582   0.010   3.926   1.667 -0.6310 -3.0730 -1.7396
   26DG      H8  583   0.184   3.972   1.715 -0.6426  0.4248  3.1338
   26DG      O9  584   0.219   3.403   1.994 -0.1780  0.0147 -0.0849
   26DG     O10  585   0.099   3.799   1.798 -0.0854 -0.0630  0.2531
   26DG     C11  586   0.190   3.437   2.129 -0.2562  0.0311 -0.1569
   26DG     C12  587   0.032   3.849   1.916  0.7681 -0.4573 -0.0998
   26DG     H13  588   0.271   3.410   2.197  0.7631  0.7569 -1.0457
   26DG     H14  589   0.096   3.386   2.151 -0.4631  0.3108 -0.3911
   26DG     H15  590  -0.075   3.864   1.900  0.9851 -0.1920 -1.3639
   26DG     H16  591   0.059   3.953   1.930  0.7956 -0.3851 -0.7025
   26DG     C17  592   0.174   3.592   2.128  0.1208  0.0176 -0.1828
   26DG     C18  593   0.082   3.781   2.037  0.1479 -0.1790 -0.5691
   26DG     O19  594   0.095   3.638   2.024  0.0846 -0.1183  0.0046
   26DG     H20  595   0.270   3.642   2.124  0.7191 -1.1749 -1.8632
   26DG     H21  596   0.125   3.625   2.220  0.9718  1.8011 -0.3347
   26DG     H22  597   0.184   3.819   2.044  0.6325 -0.5737 -3.9498
   26DG     H23  598   0.024   3.809   2.125  0.4307  0.8681 -0.7114
   27DG      C1  599   2.814   4.066   3.846  0.4063 -0.7665  0.3806
   27DG      C2  600   2.301   4.615   3.631 -0.4535 -0.0734  0.1371
   27DG      H3  601   2.880   4.106   3.769 -2.0146 -0.4193 -1.6593
   27DG      H4  602   2.837   3.959   3.849  0.1617 -0.8462 -0.2902
   27DG      H5  603   2.834   4.107   3.944 -1.3100 -0.7401  0.7638
   27DG      H6  604   2.395   4.661   3.602 -0.9005  0.3085 -0.7840
   27DG      H7  605   2.237   4.611   3.542  1.8791  1.5826 -1.7467
   27DG      H8  606   2.252   4.689   3.694  1.0410  1.4904 -0.4637
   27DG      O9  607   2.683   4.105   3.823 -0.3040  0.0423 -0.4027
   27DG     O10  608   2.325   4.484   3.682  0.0559  0.2642  0.1742
   27DG     C11  609   2.640   4.081   3.690  0.4220 -0.2283 -0.3668
   27DG     C12  610   2.416   4.490   3.787 -0.3621 -0.1039 -0.6780
   27DG     H13  611   2.638   3.976   3.660  1.1960 -1.4345  3.2638
   27DG     H14  612   2.700   4.128   3.612 -0.8940  1.9143 -0.1482
   27DG     H15  613   2.363   4.525   3.876 -1.3255 -1.0994 -0.8304
   27DG     H16  614   2.497   4.560   3.773 -0.9341  0.8190  0.4433
   27DG     C17  615   2.496   4.146   3.670  1.2464  0.0676 -0.1343
   27DG     C18  616   2.469   4.345   3.805  0.7446 -0.1686 -0.5994
   27DG     O19  617   2.503   4.288   3.676 -0.2471  0.4025 -0.6531
   27DG     H20  618   2.431   4.112   3.751  0.4649  2.4728  0.3259
   27DG     H21  619   2.448   4.112   3.577  0.5942  0.2948  0.1141
   27DG     H22  620   2.558   4.342   3.868 -0.6103  0.1895  1.4321
   27DG     H23  621   2.395   4.289   3.864  0.9723  0.0568 -0.0972
   28DG      C1  622   3.080   2.812   5.005  0.1917 -0.1720  1.3514
   28DG      C2  623   2.938   3.160   4.592  0.2568 -0.4989 -0.2430
   28DG      H3  624   3.174   2.807   4.950 -0.8710 -0.8638 -0.5094
   28DG      H4  625   3.015   2.774   4.926  0.4374  2.8173 -0.4272
   28DG      H5  626   3.085   2.736   5.083 -1.4837 -2.8713 -0.9280
   28DG      H6  627   2.860   3.151   4.516 -1.6668 -0.1105  1.5856
   28DG      H7  628   2.957   3.266   4.609 -1.1957 -0.2653  0.0256
   28DG      H8  629   3.034   3.121   4.558  0.8792 -1.0128  1.9630
   28DG      O9  630   3.047   2.946   5.042  0.1183 -0.3548  0.2616
   28DG     O10  631   2.894   3.090   4.708 -0.2360 -0.6171  0.1503
   28DG     C11  632   2.932   2.950   5.119 -0.5638  0.8782  0.4737
   28DG     C12  633   2.762   3.118   4.756  1.0174  0.1094  0.2321
   28DG     H13  634   2.953   2.934   5.225  0.2161 -3.3172 -0.1299
   28DG     H14  635   2.854   2.883   5.084 -1.3255  1.1579  1.6126
   28DG     H15  636   2.694   3.068   4.687 -0.2306  0.1363  1.4091
   28DG     H16  637   2.721   3.219   4.764 -0.3141 -0.3887 -0.0963
   28DG     C17  638   2.880   3.092   5.102 -0.4062  0.3745 -0.7722
   28DG     C18  639   2.765   3.053   4.895  1.1097 -0.5805  0.7688
   28DG     O19  640   2.862   3.126   4.970  0.8067 -0.2871  0.4242
   28DG     H20  641   2.940   3.175   5.141  1.5445 -0.8988 -0.9351
   28DG     H21  642   2.784   3.097   5.154 -1.0274  3.5719 -1.9711
   28DG     H22  643   2.673   3.061   4.954  0.4400 -2.5542  0.0751
   28DG     H23  644   2.782   2.946   4.894  0.7726 -0.6382  0.9150
   29DG      C1  645   4.215   4.410   5.425 -0.2952  0.1515  0.4260
   29DG      C2  646   3.790   4.908   5.530  0.3140  0.0296  0.8682
   29DG      H3  647   4.131   4.349   5.459  1.0668 -1.7843  0.4841
   29DG      H4  648   4.300   4.379   5.487 -0.1495  0.7859  0.5493
   29DG      H5  649   4.251   4.401   5.322 -2.3663 -1.2282 -0.2392
   29DG      H6  650   3.748   5.009   5.533  1.7899  0.7811 -1.2081
   29DG      H7  651   3.702   4.848   5.552  0.8109 -0.8579  0.4783
   29DG      H8  652   3.854   4.891   5.617  1.0568 -0.3226  0.2681
   29DG      O9  653   4.188   4.545   5.457  0.1554 -0.3705  0.1361
   29DG     O10  654   3.832   4.865   5.403 -0.2609  0.6910  0.0352
   29DG     C11  655   4.296   4.636   5.428 -0.2592  0.7998 -0.1294
   29DG     C12  656   3.936   4.935   5.346 -0.5754 -0.6103  0.1589
   29DG     H13  657   4.337   4.621   5.328 -0.6239 -2.7855  0.1177
   29DG     H14  658   4.381   4.611   5.491 -1.2401  1.5575  1.5715
   29DG     H15  659   3.903   5.036   5.325  0.5395  0.4760  3.0105
   29DG     H16  660   3.956   4.897   5.246 -0.8595 -0.6383  0.1138
   29DG     C17  661   4.253   4.782   5.435  0.3597 -0.4222 -0.4916
   29DG     C18  662   4.071   4.932   5.421 -0.5001 -0.4589  0.0318
   29DG     O19  663   4.120   4.802   5.401  0.4338  0.1942 -0.1169
   29DG     H20  664   4.311   4.839   5.363  0.3385  1.5243  0.9715
   29DG     H21  665   4.283   4.810   5.536  0.4119 -0.9157 -0.3656
   29DG     H22  666   4.148   4.992   5.372  0.2445 -1.4587 -0.0521
   29DG     H23  667   4.074   4.966   5.525  2.0171 -0.4094  0.0059
   30DG      C1  668   3.875   1.643   3.887 -0.1720  0.2210 -0.0025
   30DG      C2  669   3.409   1.287   3.731  0.6470  0.2867  0.5054
   30DG      H3  670   3.943   1.559   3.889  0.4156  0.6971  1.6855
   30DG      H4  671   3.928   1.724   3.938 -1.3619  1.8783 -1.2471
   30DG      H5  672   3.865   1.674   3.783 -0.3205  0.2254  0.0122
   30DG      H6  673   3.491   1.312   3.663  0.4089  1.5865  0.6686
   30DG      H7  674   3.442   1.200   3.787  2.3882  0.7906  0.3253
   30DG      H8  675   3.325   1.278   3.663  0.6340  0.4892  0.4961
   30DG      O9  676   3.758   1.605   3.956 -0.3136  0.9149 -0.2493
   30DG     O10  677   3.411   1.401   3.807  0.7428  0.1178  0.6052
   30DG     C11  678   3.693   1.700   4.035 -0.4647  0.1355 -0.6123
   30DG     C12  679   3.364   1.375   3.939  0.4117 -0.2254  0.2098
   30DG     H13  680   3.669   1.780   3.965  0.0271  1.0375  0.2177
   30DG     H14  681   3.760   1.745   4.108 -0.4334 -0.5295 -0.2187
   30DG     H15  682   3.397   1.279   3.979 -0.4389 -0.7859 -0.3958
   30DG     H16  683   3.256   1.360   3.931  0.1595  1.7736 -0.7774
   30DG     C17  684   3.566   1.636   4.099 -0.0519 -0.4130 -0.5261
   30DG     C18  685   3.398   1.485   4.043  0.2968 -0.2725 -0.4769
   30DG     O19  686   3.511   1.545   4.002  0.0802  0.4509  0.6204
   30DG     H20  687   3.482   1.702   4.121  1.2718  0.6162  1.7900
   30DG     H21  688   3.591   1.595   4.197 -0.3238  1.0669  0.1976
   30DG     H22  689   3.321   1.562   4.046 -0.5856 -1.1006 -1.1578
   30DG     H23  690   3.414   1.450   4.145  2.9070  1.4816 -0.1877
   31DG      C1  691   4.807   3.379   0.458  0.4028 -0.2219 -0.1223
   31DG      C2  692   4.323   3.583   0.074 -0.3738 -0.0418  0.9175
   31DG      H3  693   4.839   3.467   0.401  0.0167  0.1133  0.1761
   31DG      H4  694   4.876   3.297   0.437  1.4804  0.3414  1.0853
   31DG      H5  695   4.825   3.409   0.561  2.5113  0.7508 -0.7031
   31DG      H6  696   4.235   3.593   0.011  0.2472  0.7508  0.1439
   31DG      H7  697   4.323   3.652   0.158 -0.8824  1.6837 -0.4321
   31DG      H8  698   4.408   3.616   0.014 -0.8212  0.0360  0.3156
   31DG      O9  699   4.674   3.356   0.413  0.6632 -0.0132  0.0406
   31DG     O10  700   4.358   3.456   0.119 -0.3449 -0.7158 -0.3713
   31DG     C11  701   4.600   3.252   0.481 -0.6959 -0.3039 -0.0794
   31DG     C12  702   4.257   3.379   0.190  0.1928 -0.6648  0.7242
   31DG     H13  703   4.531   3.293   0.554  0.2845 -1.4815  1.5663
   31DG     H14  704   4.676   3.182   0.516  0.9462  1.3768 -0.1278
   31DG     H15  705   4.162   3.368   0.137  1.9354  0.3136 -2.8980
   31DG     H16  706   4.235   3.434   0.282  0.3143 -2.8758  2.1394
   31DG     C17  707   4.511   3.187   0.374 -0.2472  0.5483 -0.2887
   31DG     C18  708   4.323   3.251   0.242  0.4703  0.3204 -0.1296
   31DG     O19  709   4.446   3.292   0.307  0.2458  0.0826  0.2486
   31DG     H20  710   4.442   3.119   0.424 -1.6224  2.6466  0.7748
   31DG     H21  711   4.557   3.118   0.302  0.9194  2.2717 -1.2796
   31DG     H22  712   4.262   3.195   0.312 -0.8635 -2.5750 -3.2992
   31DG     H23  713   4.341   3.183   0.158  0.3601  0.9447 -0.6685
   32DG      C1  714   3.461   4.562   3.256 -0.3445 -0.3640  0.1742
   32DG      C2  715   3.649   4.097   2.765 -0.0211 -0.3103  0.6489
   32DG      H3  716   3.567   4.572   3.279 -0.0138 -0.3857 -1.2259
   32DG      H4  717   3.400   4.589   3.342  0.3673  0.5494  0.4042
   32DG      H5  718   3.432   4.622   3.170 -0.9091  0.3431  0.8478
   32DG      H6  719   3.599   4.025   2.700  1.7082  0.1402 -1.3127
   32DG      H7  720   3.650   4.177   2.690 -2.2407 -1.5803 -0.8809
   32DG      H8  721   3.750   4.060   2.779  0.1670 -0.3570 -0.6550
   32DG      O9  722   3.439   4.426   3.215 -0.2117 -0.0538  0.8643
   32DG     O10  723   3.582   4.136   2.876 -0.2857 -0.0373 -0.0303
   32DG     C11  724   3.445   4.326   3.313 -0.4429 -0.1550 -0.2442
   32DG     C12  725   3.588   4.035   2.971 -0.0182 -0.2308  0.0523
   32DG     H13  726   3.377   4.341   3.397  1.9704  1.0121  1.6340
   32DG     H14  727   3.546   4.321   3.352 -0.2946  0.6312 -0.5055
   32DG     H15  728   3.684   4.054   3.018  0.4469 -1.4360 -0.3810
   32DG     H16  729   3.605   3.936   2.928 -0.3427  1.1353 -3.5989
   32DG     C17  730   3.420   4.186   3.256 -0.4456 -0.3141  0.7570
   32DG     C18  731   3.470   4.047   3.064  0.7310 -0.4519 -0.2221
   32DG     O19  732   3.491   4.177   3.129 -0.4995 -0.3546 -0.1559
   32DG     H20  733   3.311   4.181   3.248 -0.5831 -1.7810  2.7972
   32DG     H21  734   3.444   4.105   3.324 -2.3092 -1.1271  0.5199
   32DG     H22  735   3.372   4.045   3.016  1.3919  2.3501 -1.8938
   32DG     H23  736   3.476   3.981   3.151  0.9220  0.4829  0.4889
   33DG      C1  737   3.198   5.444   4.195  0.4400 -0.5261 -0.2925
   33DG      C2  738   2.770   5.008   4.162  0.3944  0.0859  0.2857
   33DG      H3  739   3.241   5.385   4.114 -1.0146 -1.4016 -0.4459
   33DG      H4  740   3.222   5.392   4.287  0.1546 -0.2037 -0.0334
   33DG      H5  741   3.241   5.544   4.209 -0.8049  0.2756 -1.8529
   33DG      H6  742   2.674   4.977   4.204  0.8776 -1.2724  0.4673
   33DG      H7  743   2.792   4.966   4.064  0.8573  1.3005 -0.1446
   33DG      H8  744   2.842   4.965   4.231 -0.7749 -0.7661  1.0298
   33DG      O9  745   3.054   5.451   4.187  0.3505 -0.3446 -0.0484
   33DG     O10  746   2.783   5.152   4.164 -0.3265 -0.4387 -0.6146
   33DG     C11  747   3.012   5.543   4.086  0.4536 -0.2724  0.0779
   33DG     C12  748   2.689   5.214   4.073  0.3661  0.7479 -0.4525
   33DG     H13  749   3.061   5.521   3.991 -1.3512 -0.3371 -0.8825
   33DG     H14  750   3.043   5.638   4.128 -0.8225  0.2540 -0.1252
   33DG     H15  751   2.587   5.179   4.092 -0.9185  3.7715 -1.0786
   33DG     H16  752   2.701   5.192   3.967 -0.3240 -1.3195 -0.1350
   33DG     C17  753   2.863   5.537   4.074 -0.1670 -0.4516 -0.7131
   33DG     C18  754   2.698   5.364   4.089  0.4551  0.2449 -0.8893
   33DG     O19  755   2.824   5.409   4.035  0.4733 -0.3414 -0.4049
   33DG     H20  756   2.820   5.612   4.006 -1.0033  0.7842  1.0994
   33DG     H21  757   2.823   5.563   4.172 -0.0814  0.4952 -0.9141
   33DG     H22  758   2.609   5.411   4.048 -0.6020  0.2457  1.2575
   33DG     H23  759   2.686   5.385   4.196  1.9858  1.1354 -0.8631
   34DG      C1  760   2.911   1.386   0.213 -0.0828  0.2556 -0.2631
   34DG      C2  761   2.453   1.555   0.576 -0.1746  0.2042  0.3405
   34DG      H3  762   2.914   1.488   0.174  0.8252  0.1093 -0.5935
   34DG      H4  763   2.817   1.344   0.175 -0.4709  1.4224 -0.6655
   34DG      H5  764   3.007   1.348   0.180 -0.6478  0.0510 -1.8019
   34DG      H6  765   2.413   1.480   0.507  0.2026 -1.4288  1.8344
   34DG      H7  766   2.381   1.569   0.656 -1.4870  2.0442 -1.0742
   34DG      H8  767   2.459   1.651   0.525  0.5838 -0.1533 -0.2569
   34DG      O9  768   2.890   1.399   0.355 -0.1389  0.3214  0.1810
   34DG     O10  769   2.585   1.505   0.602  0.0958  0.2521  0.6267
   34DG     C11  770   2.899   1.270   0.408  0.0312  0.4098  0.1711
   34DG     C12  771   2.569   1.408   0.710 -0.3164  0.1426  0.4936
   34DG     H13  772   3.005   1.246   0.398 -0.5330 -1.1472 -3.6784
   34DG     H14  773   2.849   1.195   0.347  0.8654 -0.4025  0.4578
   34DG     H15  774   2.481   1.347   0.692  0.8039 -1.3218 -0.3030
   34DG     H16  775   2.556   1.465   0.802 -1.5129 -0.6027  0.8024
   34DG     C17  776   2.860   1.253   0.556 -0.7879 -0.5918  0.3431
   34DG     C18  777   2.693   1.321   0.719 -0.6642  0.2193  0.0747
   34DG     O19  778   2.730   1.299   0.581  0.1272  0.0164  0.5210
   34DG     H20  779   2.940   1.306   0.608 -1.8444  0.3716  1.0173
   34DG     H21  780   2.859   1.148   0.586 -0.3371 -1.1008 -1.2832
   34DG     H22  781   2.772   1.363   0.781  0.6868 -1.1134 -0.6947
   34DG     H23  782   2.678   1.226   0.769 -1.0923  0.4369  0.3658
   35DG      C1  783   5.371   1.326   1.968  0.7028  0.2464  0.5408
   35DG      C2  784   5.859   1.894   1.907 -0.1580 -0.1575 -0.5844
   35DG      H3  785   5.336   1.388   1.886 -1.6067 -1.9266 -0.2194
   35DG      H4  786   5.275   1.322   2.020  0.9569 -0.8056  0.9661
   35DG      H5  787   5.390   1.223   1.940 -0.7860  0.3999 -1.1744
   35DG      H6  788   5.875   1.932   1.806 -1.6654  2.0519 -0.0522
   35DG      H7  789   5.802   1.972   1.955  0.5249  0.3234 -0.5428
   35DG      H8  790   5.960   1.901   1.949 -1.1288 -1.0527  2.0939
   35DG      O9  791   5.466   1.393   2.044  0.0318 -0.0111  0.0408
   35DG     O10  792   5.831   1.754   1.918 -0.2984 -0.2826 -0.1039
   35DG     C11  793   5.596   1.333   2.044  1.3679 -0.9596 -0.4034
   35DG     C12  794   5.747   1.725   1.815 -0.0703  0.1814  0.2524
   35DG     H13  795   5.574   1.227   2.058 -1.1065 -0.7770 -2.3471
   35DG     H14  796   5.655   1.365   2.130  1.5182  0.2403 -0.9317
   35DG     H15  797   5.786   1.751   1.716 -3.1269  0.0853 -1.1251
   35DG     H16  798   5.651   1.778   1.818 -0.3678 -0.1647 -1.5946
   35DG     C17  799   5.686   1.374   1.932 -0.6808 -0.2388 -0.2333
   35DG     C18  800   5.733   1.574   1.805  0.3289  0.7147 -0.4607
   35DG     O19  801   5.705   1.517   1.935 -0.3661 -0.9447  0.4356
   35DG     H20  802   5.636   1.342   1.841 -0.5563  0.0447 -0.4041
   35DG     H21  803   5.785   1.327   1.936 -0.4167  0.2589 -0.7358
   35DG     H22  804   5.649   1.556   1.738  1.1423  1.5723 -1.7528
   35DG     H23  805   5.827   1.532   1.768 -0.2825 -0.3954 -0.7772
   36DG      C1  806   4.893   3.297   0.124 -0.3323 -0.4826 -0.1117
   36DG      C2  807   5.318   2.905   0.494 -0.2547 -0.3183  0.3491
   36DG      H3  808   4.878   3.345   0.027 -1.9453 -1.5844 -0.4542
   36DG      H4  809   4.850   3.366   0.198 -3.1072  0.6634 -2.5994
   36DG      H5  810   4.834   3.206   0.115  3.8986 -3.2750 -2.8288
   36DG      H6  811   5.339   2.909   0.601  1.0653  2.7375  0.0890
   36DG      H7  812   5.235   2.835   0.490 -1.1021  0.7029 -0.8808
   36DG      H8  813   5.399   2.870   0.431 -2.5349 -0.9075 -2.4819
   36DG      O9  814   5.033   3.263   0.149  0.6507  0.0482 -0.2149
   36DG     O10  815   5.264   3.020   0.435 -0.3317  0.5242 -0.6183
   36DG     C11  816   5.115   3.377   0.173 -0.0426  0.4153 -0.1725
   36DG     C12  817   5.350   3.123   0.466  0.2523 -0.5664  0.3255
   36DG     H13  818   5.085   3.429   0.264  0.6118  0.9446 -0.2591
   36DG     H14  819   5.096   3.452   0.097  0.2327  1.6754  0.9537
   36DG     H15  820   5.443   3.094   0.417  1.8194  2.8913  0.9261
   36DG     H16  821   5.365   3.147   0.571  0.5621  3.9697 -0.5169
   36DG     C17  822   5.268   3.348   0.174  0.6111 -0.0145  0.6813
   36DG     C18  823   5.302   3.257   0.389 -0.8238  0.1726 -0.5057
   36DG     O19  824   5.294   3.231   0.251  0.6155  0.4988  0.2388
   36DG     H20  825   5.330   3.433   0.202  1.0233  0.2894 -1.0353
   36DG     H21  826   5.302   3.329   0.072 -0.9182 -2.1274  0.5123
   36DG     H22  827   5.198   3.280   0.411 -0.5114  0.9710  0.1474
   36DG     H23  828   5.370   3.339   0.410 -0.6637 -0.1057  0.0687
   37DG      C1  829   1.932   2.911   2.658  0.3893 -0.1623  0.2583
   37DG      C2  830   1.313   3.144   2.609 -0.1574 -0.1587  0.7292
   37DG      H3  831   1.970   3.008   2.629 -0.4132 -0.1278 -0.7223
   37DG      H4  832   2.024   2.851   2.653 -0.2538 -1.0408 -2.7356
   37DG      H5  833   1.889   2.908   2.758 -0.6795 -0.9927 -0.2092
   37DG      H6  834   1.238   3.107   2.539 -1.0295  1.2342  0.8801
   37DG      H7  835   1.250   3.164   2.695 -0.1583  1.0122  0.4788
   37DG      H8  836   1.354   3.241   2.581  1.8517 -1.4255 -1.0234
   37DG      O9  837   1.837   2.878   2.558  0.1852 -0.5087 -0.4958
   37DG     O10  838   1.420   3.050   2.634 -0.4975 -0.2554  0.0293
   37DG     C11  839   1.793   2.737   2.568  0.0647 -0.1920  0.5943
   37DG     C12  840   1.372   2.920   2.673  0.3299 -0.4960 -0.6503
   37DG     H13  841   1.868   2.664   2.597  1.0407  1.3257  2.0723
   37DG     H14  842   1.769   2.721   2.462  0.3826  0.7214  0.3728
   37DG     H15  843   1.315   2.874   2.593  0.2397  0.1492 -0.9609
   37DG     H16  844   1.303   2.925   2.757  0.7601  0.6948 -0.3477
   37DG     C17  845   1.674   2.715   2.651  0.5232  0.4539 -0.0002
   37DG     C18  846   1.481   2.829   2.725  0.3449 -0.0915  0.4873
   37DG     O19  847   1.571   2.817   2.616 -0.0921 -0.5127 -0.2988
   37DG     H20  848   1.703   2.720   2.756 -0.7813 -1.1426  0.4771
   37DG     H21  849   1.634   2.615   2.634 -0.7170  1.0403 -0.6632
   37DG     H22  850   1.534   2.880   2.805  0.7687 -0.0752  0.1960
   37DG     H23  851   1.432   2.736   2.753  1.6675 -0.9761 -0.0520
   38DG      C1  852   5.039   2.572   3.687  0.1662  0.6282  0.0897
   38DG      C2  853   5.557   3.056   3.685 -0.0996  0.0095  0.6378
   38DG      H3  854   5.060   2.492   3.616 -0.8156  2.1586 -2.0523
   38DG      H4  855   4.931   2.571   3.698  0.2901 -2.3529  2.1171
   38DG      H5  856   5.087   2.558   3.784  1.6936  0.9919 -0.5763
   38DG      H6  857   5.574   3.011   3.587  0.1198  1.0876  0.1701
   38DG      H7  858   5.608   3.152   3.675  1.4245 -0.6513  1.5940
   38DG      H8  859   5.608   2.992   3.757  0.5376  0.1732  0.3425
   38DG      O9  860   5.081   2.687   3.616 -0.4068 -0.6427  0.4060
   38DG     O10  861   5.425   3.067   3.735  0.2409 -0.0714  0.5484
   38DG     C11  862   5.213   2.679   3.556  0.2504  0.5177 -0.4409
   38DG     C12  863   5.328   3.132   3.656 -0.5337  0.0171  0.1665
   38DG     H13  864   5.217   2.599   3.482 -0.9728  0.0630 -0.0278
   38DG     H14  865   5.289   2.665   3.632 -0.1018  1.0282  0.0107
   38DG     H15  866   5.379   3.211   3.600 -1.5318 -0.0150 -0.8115
   38DG     H16  867   5.242   3.163   3.714 -0.0912  0.2621  0.6971
   38DG     C17  868   5.242   2.820   3.490  0.2993 -0.3437 -0.4248
   38DG     C18  869   5.293   3.039   3.537 -0.1800 -0.1469  0.3223
   38DG     O19  870   5.264   2.913   3.598 -0.3373  0.0672  0.2152
   38DG     H20  871   5.171   2.853   3.413 -0.9796  1.6220  1.4747
   38DG     H21  872   5.330   2.806   3.428 -1.5491 -0.6640 -3.1536
   38DG     H22  873   5.208   3.083   3.485 -0.2711  0.5797  1.0706
   38DG     H23  874   5.381   3.027   3.474  1.6914  1.6365  2.4098
   39DG      C1  875   5.313   2.343   2.999 -0.3796 -0.4318 -0.0185
   39DG      C2  876   4.843   2.672   3.245 -0.2183 -0.8126  0.3706
   39DG      H3  877   5.378   2.294   3.072 -2.6458 -1.3310  1.4870
   39DG      H4  878   5.242   2.268   2.963  0.6172 -0.9108 -1.0837
   39DG      H5  879   5.246   2.413   3.048 -1.1187  0.2369 -1.8947
   39DG      H6  880   4.885   2.725   3.330  0.0922  1.0480 -0.8854
   39DG      H7  881   4.735   2.689   3.238 -0.1924 -0.7461  0.1084
   39DG      H8  882   4.853   2.565   3.264  0.6520 -0.9699 -0.8678
   39DG      O9  883   5.386   2.411   2.897 -0.2849 -0.8461  0.1141
   39DG     O10  884   4.899   2.720   3.127 -0.1867 -0.3464 -0.0341
   39DG     C11  885   5.306   2.500   2.822 -0.0836 -0.6859 -0.3622
   39DG     C12  886   5.034   2.673   3.118  0.4662  0.1581 -0.2176
   39DG     H13  887   5.205   2.460   2.811 -0.5850  0.4136  0.0832
   39DG     H14  888   5.344   2.504   2.720 -0.2346 -2.0603 -0.4912
   39DG     H15  889   5.045   2.575   3.162 -1.1889  0.7735  1.7183
   39DG     H16  890   5.101   2.735   3.177  1.0068 -0.0755 -0.5773
   39DG     C17  891   5.304   2.643   2.878 -0.6676  0.0265  0.2472
   39DG     C18  892   5.095   2.663   2.978  0.3051 -0.0960 -0.0318
   39DG     O19  893   5.233   2.644   3.002  0.0188 -0.5848 -0.3442
   39DG     H20  894   5.284   2.718   2.802 -0.6439 -1.8600 -1.7278
   39DG     H21  895   5.408   2.667   2.898 -0.5945 -1.4886  1.9214
   39DG     H22  896   5.055   2.578   2.923  0.0081  0.5942 -0.8935
   39DG     H23  897   5.070   2.752   2.921  1.8792 -0.6109 -1.6157
   40DG      C1  898   2.378   5.435   1.814  0.3657  0.5197  0.2304
   40DG      C2  899   1.868   5.878   1.771 -0.0013 -0.3105 -0.3955
   40DG      H3  900   2.442   5.523   1.806 -3.0365  3.1177 -1.0139
   40DG      H4  901   2.428   5.348   1.771  1.1057  1.0098  0.0793
   40DG      H5  902   2.369   5.428   1.923  0.4665  1.5462  0.3203
   40DG      H6  903   1.897   5.954   1.697  0.7161 -1.9700 -1.9070
   40DG      H7  904   1.766   5.912   1.786  0.7440  2.0100 -0.1630
   40DG      H8  905   1.910   5.889   1.871  0.0687 -2.4369 -0.1550
   40DG      O9  906   2.252   5.455   1.758  0.1000 -0.2685  0.1448
   40DG     O10  907   1.894   5.746   1.724  0.1622  0.2015  0.2713
   40DG     C11  908   2.157   5.348   1.788 -0.5490 -0.3883  0.2809
   40DG     C12  909   1.823   5.651   1.804 -0.1424  0.2792 -0.1574
   40DG     H13  910   2.135   5.350   1.894  0.5568  0.6270  0.5181
   40DG     H14  911   2.211   5.256   1.767  0.9719  0.6112 -0.4000
   40DG     H15  912   1.715   5.665   1.816 -0.0320 -0.9375  3.5950
   40DG     H16  913   1.864   5.660   1.905 -0.5853 -0.0201  0.0534
   40DG     C17  914   2.031   5.372   1.701 -0.5197  0.5074  0.0160
   40DG     C18  915   1.848   5.518   1.736  0.0994 -0.3151  0.0685
   40DG     O19  916   1.988   5.503   1.740 -0.4525 -0.3151  0.2459
   40DG     H20  917   1.959   5.292   1.714  0.4974 -0.1806  1.8457
   40DG     H21  918   2.059   5.392   1.598  0.1529  0.5643  0.2042
   40DG     H22  919   1.788   5.433   1.772 -0.3356 -1.7208 -3.5947
   40DG     H23  920   1.818   5.525   1.632 -0.2654 -1.7204  0.0441
   41DG      C1  921   3.394   4.423   4.434  0.2996  1.3542  0.4493
   41DG      C2  922   2.779   4.426   4.117 -0.4560 -0.5641 -0.3023
   41DG      H3  923   3.501   4.419   4.416  0.2787  0.6261  0.4743
   41DG      H4  924   3.379   4.316   4.420  0.5011  1.5165 -1.2730
   41DG      H5  925   3.361   4.455   4.533  1.8297  0.1650  1.3852
   41DG      H6  926   2.782   4.317   4.110 -0.8292 -0.6594  0.8435
   41DG      H7  927   2.751   4.450   4.219 -0.9377  1.8263 -0.9414
   41DG      H8  928   2.721   4.467   4.035 -0.0246  0.6332 -0.0398
   41DG      O9  929   3.325   4.483   4.329  0.3148  0.8041  0.6392
   41DG     O10  930   2.907   4.466   4.120  0.0687 -0.0402  0.5469
   41DG     C11  931   3.339   4.623   4.313 -0.4375  0.3892 -0.3838
   41DG     C12  932   2.914   4.612   4.118 -0.0601 -0.7577  0.0360
   41DG     H13  933   3.442   4.654   4.298  0.6818 -3.3941 -1.6620
   41DG     H14  934   3.314   4.672   4.407 -0.1266 -0.6215  0.2420
   41DG     H15  935   2.880   4.671   4.203 -0.8406 -1.4166  0.1846
   41DG     H16  936   2.856   4.636   4.029 -0.9054 -1.0669  0.4997
   41DG     C17  937   3.265   4.671   4.191 -0.3524  0.0238 -0.2882
   41DG     C18  938   3.059   4.654   4.088 -0.0333  0.0826  0.0569
   41DG     O19  939   3.139   4.615   4.198 -0.1199  0.1019 -0.1561
   41DG     H20  940   3.305   4.646   4.092  0.1231  1.8175 -0.5984
   41DG     H21  941   3.260   4.780   4.190 -0.3361  0.0313  0.2199
   41DG     H22  942   3.089   4.608   3.994 -2.3945 -2.8745  0.6058
   41DG     H23  943   3.063   4.763   4.081  1.1624 -0.0060 -0.9095
   42DG      C1  944   1.006   2.904   4.221  0.0455  0.0938  0.7428
   42DG      C2  945   1.238   2.862   3.567  0.0612  0.1346 -0.1981
   42DG      H3  946   1.019   2.904   4.329 -0.0119  0.2632  0.7500
   42DG      H4  947   0.935   2.823   4.206 -0.0585  0.4875 -1.1042
   42DG      H5  948   0.957   2.997   4.192 -3.7040 -2.5039 -2.1641
   42DG      H6  949   1.304   2.793   3.514 -0.8772  0.8115 -2.3962
   42DG      H7  950   1.139   2.817   3.579 -0.8263  1.4618 -2.0427
   42DG      H8  951   1.225   2.958   3.518  0.5853  0.0726 -0.4634
   42DG      O9  952   1.108   2.874   4.135  0.0719  0.6213 -0.1927
   42DG     O10  953   1.269   2.880   3.699  0.2352  0.0905 -0.6090
   42DG     C11  954   1.225   2.948   4.165  0.1125 -0.0605 -0.5248
   42DG     C12  955   1.368   2.983   3.718  0.9916 -0.2297 -0.7934
   42DG     H13  956   1.254   2.910   4.264 -0.7995  0.9405  0.1454
   42DG     H14  957   1.206   3.054   4.177  0.4239  0.3163 -2.9048
   42DG     H15  958   1.315   3.076   3.696 -0.1924 -0.7419 -0.1676
   42DG     H16  959   1.447   2.975   3.643  1.5508 -2.0634 -0.0663
   42DG     C17  960   1.337   2.923   4.074 -0.3211  0.1051  0.4568
   42DG     C18  961   1.425   2.980   3.861 -0.3977 -0.3681  0.1388
   42DG     O19  962   1.316   3.003   3.958 -0.4677  0.4837 -0.1042
   42DG     H20  963   1.346   2.821   4.037  2.7190 -0.3846  2.2104
   42DG     H21  964   1.434   2.953   4.116 -0.0506  1.6127 -1.1205
   42DG     H22  965   1.474   2.886   3.881 -1.4340 -0.5858  1.8504
   42DG     H23  966   1.510   3.046   3.875 -2.2437  2.6094 -1.4208
   43DG      C1  967   1.947   0.610   3.060 -0.7823 -0.5226  0.2279
   43DG      C2  968   1.667   0.338   2.356 -0.3892 -0.2899 -0.1095
   43DG      H3  969   2.055   0.620   3.066 -0.8738  0.2404  0.7509
   43DG      H4  970   1.908   0.510   3.083 -1.4721 -0.2982  0.0416
   43DG      H5  971   1.928   0.682   3.140  0.9354 -1.6345  1.7376
   43DG      H6  972   1.729   0.250   2.372 -0.8281 -0.1843  2.7289
   43DG      H7  973   1.563   0.307   2.366 -0.7161  1.0232  0.8470
   43DG      H8  974   1.686   0.371   2.254  1.8292 -1.4218 -0.1219
   43DG      O9  975   1.903   0.653   2.930  0.0419 -0.2509  0.3376
   43DG     O10  976   1.689   0.422   2.468  0.5473  0.0070 -0.2732
   43DG     C11  977   1.763   0.687   2.912 -0.0180 -0.1352  0.1238
   43DG     C12  978   1.822   0.458   2.492 -0.5725  0.5608  0.3449
   43DG     H13  979   1.743   0.787   2.951 -0.4065  0.4022 -1.3747
   43DG     H14  980   1.702   0.613   2.965  1.1551 -0.4236  1.1278
   43DG     H15  981   1.877   0.464   2.398  0.2449  0.1935  0.7891
   43DG     H16  982   1.865   0.375   2.547 -0.7628  0.4221  0.2868
   43DG     C17  983   1.732   0.685   2.761 -0.0684 -0.2637 -0.3684
   43DG     C18  984   1.832   0.584   2.570  0.7057 -0.1046 -0.3105
   43DG     O19  985   1.782   0.568   2.701 -0.1235  0.1684 -0.0252
   43DG     H20  986   1.774   0.771   2.709 -0.5917  1.4027  1.8350
   43DG     H21  987   1.625   0.689   2.745  0.0310 -1.2427 -1.4320
   43DG     H22  988   1.920   0.647   2.567  0.0406  0.8581 -3.5022
   43DG     H23  989   1.768   0.654   2.516 -1.5766 -0.9649  1.1218
   44DG      C1  990   4.003   0.480   2.591  0.3387  0.4603  0.2328
   44DG      C2  991   4.451   0.791   2.161  0.3890  0.8223 -0.0913
   44DG      H3  992   3.983   0.393   2.653 -1.4370 -1.0056 -2.2053
   44DG      H4  993   3.959   0.452   2.495  0.2975 -3.0608  1.1531
   44DG      H5  994   3.937   0.561   2.622 -0.7971 -1.1290  2.2591
   44DG      H6  995   4.359   0.846   2.179  0.0629 -0.5685  3.1845
   44DG      H7  996   4.537   0.859   2.155  0.1683  1.1463  0.3782
   44DG      H8  997   4.451   0.734   2.068 -1.5031 -0.6359  0.7437
   44DG      O9  998   4.140   0.519   2.591 -0.1939 -0.4526 -0.1080
   44DG     O10  999   4.474   0.698   2.269  0.3358  0.7261 -0.0950
   44DG     C11 1000   4.237   0.410   2.579  0.0986 -0.0499 -0.6042
   44DG     C12 1001   4.488   0.757   2.396  0.4995  0.2631  0.3210
   44DG     H13 1002   4.214   0.354   2.489  0.2866 -1.6523  0.3034
   44DG     H14 1003   4.216   0.342   2.662  1.3032 -1.5276 -1.4736
   44DG     H15 1004   4.404   0.821   2.423 -0.9880 -1.5079  0.0403
   44DG     H16 1005   4.583   0.810   2.404  0.5001  0.2097  0.6943
   44DG     C17 1006   4.379   0.473   2.585 -0.2137  0.4127 -0.1746
   44DG     C18 1007   4.502   0.651   2.500 -0.0724 -0.1268  0.7079
   44DG     O19 1008   4.379   0.577   2.492 -0.4556  0.1587 -0.2573
   44DG     H20 1009   4.450   0.395   2.557 -1.2351 -1.1570  1.3286
   44DG     H21 1010   4.388   0.507   2.689  1.6235  0.8267 -0.4283
   44DG     H22 1011   4.584   0.582   2.480 -0.2331 -0.3440  0.7909
   44DG     H23 1012   4.513   0.689   2.601  0.3411  2.1955 -0.1516
   45DG      C1 1013   2.684   4.718   0.415 -0.3811 -0.1505  0.1536
   45DG      C2 1014   2.325   5.042  -0.024 -0.6747  0.0903 -0.4201
   45DG      H3 1015   2.670   4.646   0.335 -1.9662  1.7433 -1.3662
   45DG      H4 1016   2.621   4.701   0.502  0.2144 -0.1699  0.5928
   45DG      H5 1017   2.787   4.702   0.449 -1.0003 -3.3147  0.8344
   45DG      H6 1018   2.334   4.937  -0.055  0.6939 -0.0939  0.4838
   45DG      H7 1019   2.232   5.048   0.031 -0.6385 -1.4015 -0.1378
   45DG      H8 1020   2.315   5.112  -0.107 -3.6156 -0.1231 -0.3310
   45DG      O9 1021   2.667   4.849   0.345  0.1074 -0.1478  0.0950
   45DG     O10 1022   2.437   5.074   0.065  0.1609  0.9280 -0.3905
   45DG     C11 1023   2.719   4.954   0.425  0.0152 -0.4558 -0.0543
   45DG     C12 1024   2.418   5.196   0.140 -0.1551  0.8734 -0.0045
   45DG     H13 1025   2.824   4.950   0.454  0.0547  0.3457 -0.0611
   45DG     H14 1026   2.650   4.976   0.507 -1.1408  0.3210 -1.1874
   45DG     H15 1027   2.336   5.179   0.210  0.2435  1.1701  0.5410
   45DG     H16 1028   2.394   5.278   0.072 -1.1572  0.4353 -0.1996
   45DG     C17 1029   2.708   5.079   0.330 -0.7750 -0.3885  0.4370
   45DG     C18 1030   2.549   5.219   0.221  0.4322 -0.1119  0.0753
   45DG     O19 1031   2.579   5.093   0.275 -0.3856  0.3145 -0.3654
   45DG     H20 1032   2.782   5.085   0.250 -1.9094 -1.0023 -0.6918
   45DG     H21 1033   2.725   5.171   0.385 -0.1828 -1.3416  1.9096
   45DG     H22 1034   2.630   5.261   0.161 -0.4009 -1.0686 -1.7949
   45DG     H23 1035   2.525   5.282   0.307  2.6440  1.1572 -0.1636
   46DG      C1 1036   2.411   4.733   2.483  0.4582 -0.6224 -0.2333
   46DG      C2 1037   2.246   5.403   2.884  0.2285 -0.1441 -0.6906
   46DG      H3 1038   2.481   4.703   2.405 -0.4509 -1.7419 -0.6462
   46DG      H4 1039   2.320   4.673   2.477  1.0696 -1.5497 -0.4925
   46DG      H5 1040   2.470   4.703   2.569  1.0162 -1.4302 -0.8800
   46DG      H6 1041   2.236   5.349   2.977 -0.5942  3.3199  1.4095
   46DG      H7 1042   2.308   5.489   2.910  0.5223 -0.6891  0.4370
   46DG      H8 1043   2.152   5.451   2.858 -0.4673 -2.1185 -2.0026
   46DG      O9 1044   2.387   4.867   2.490  0.9630 -0.5609  0.2273
   46DG     O10 1045   2.306   5.347   2.770  0.6477 -0.2105 -0.0995
   46DG     C11 1046   2.500   4.947   2.489 -0.5780 -0.8163 -0.1640
   46DG     C12 1047   2.395   5.245   2.814 -0.4261  0.0052 -0.4075
   46DG     H13 1048   2.549   4.921   2.396 -1.5640 -1.7711 -0.4434
   46DG     H14 1049   2.562   4.932   2.577  1.2221 -0.1771 -1.2884
   46DG     H15 1050   2.337   5.173   2.871 -1.6134  1.0640 -0.2351
   46DG     H16 1051   2.463   5.272   2.895 -0.3261 -1.1644 -0.0922
   46DG     C17 1052   2.448   5.093   2.474 -0.4925  0.0910  0.0440
   46DG     C18 1053   2.469   5.195   2.693  0.1093 -0.1232 -0.2225
   46DG     O19 1054   2.384   5.141   2.592 -0.1663 -0.0936  0.2646
   46DG     H20 1055   2.380   5.098   2.390 -1.1102 -0.0166  0.5284
   46DG     H21 1056   2.525   5.160   2.436  0.2848 -1.3179 -0.9863
   46DG     H22 1057   2.520   5.280   2.647  0.8380  0.9436  2.4157
   46DG     H23 1058   2.556   5.135   2.719  1.8779  2.1191 -0.6341
   47DG      C1 1059   4.341   3.591   5.174 -0.6322 -0.6523 -0.2651
   47DG      C2 1060   3.915   3.026   5.101  0.0540  0.4023 -0.2350
   47DG      H3 1061   4.324   3.634   5.075  1.0640  1.5710  0.3381
   47DG      H4 1062   4.417   3.515   5.152 -0.2099 -0.3313  0.0599
   47DG      H5 1063   4.380   3.670   5.237  0.0671 -1.7739  0.7594
   47DG      H6 1064   3.989   2.983   5.034  1.4615  0.5332  1.1981
   47DG      H7 1065   3.915   2.963   5.190  0.1315 -2.8710 -2.3961
   47DG      H8 1066   3.816   3.005   5.059 -0.1655  1.3573 -0.2223
   47DG      O9 1067   4.225   3.539   5.230  0.2055 -0.2190  0.1807
   47DG     O10 1068   3.941   3.162   5.128 -0.0751 -0.0804 -0.2307
   47DG     C11 1069   4.117   3.621   5.227  0.6208 -0.2419  0.5481
   47DG     C12 1070   3.840   3.231   5.195  0.4128  0.0770  0.9395
   47DG     H13 1071   4.095   3.646   5.123 -1.4359  0.4695  1.1098
   47DG     H14 1072   4.146   3.715   5.276 -0.1879  0.2248  0.1585
   47DG     H15 1073   3.775   3.167   5.255  1.2263 -1.6980  0.0216
   47DG     H16 1074   3.782   3.278   5.115  2.2925  0.0386 -0.5055
   47DG     C17 1075   4.004   3.542   5.297 -0.0899  0.5010  0.2066
   47DG     C18 1076   3.887   3.337   5.294 -0.0076 -0.1338  0.3903
   47DG     O19 1077   3.990   3.417   5.230 -0.4267 -0.4178 -0.0159
   47DG     H20 1078   3.909   3.595   5.298 -1.6612 -1.9617 -2.2016
   47DG     H21 1079   4.031   3.521   5.400  0.7330  1.2781  0.1596
   47DG     H22 1080   3.800   3.400   5.310 -2.4345 -2.7854 -1.3202
   47DG     H23 1081   3.920   3.297   5.389 -0.2253 -1.2172  0.0247
   48DG      C1 1082   2.282   0.462   1.736 -0.2230  0.6829 -0.2772
   48DG      C2 1083   1.867  -0.036   1.365 -0.6842  0.3155 -0.6865
   48DG      H3 1084   2.341   0.542   1.691  2.2668 -0.2074  1.2367
   48DG      H4 1085   2.347   0.419   1.812 -0.5617  0.0291 -0.3576
   48DG      H5 1086   2.198   0.502   1.792 -0.0983  0.9393 -0.2718
   48DG      H6 1087   1.860  -0.092   1.272 -1.6342  0.6794 -0.8424
   48DG      H7 1088   1.872  -0.105   1.449  0.5228  0.9780 -0.1924
   48DG      H8 1089   1.766   0.004   1.375 -0.7004  0.0197  0.4204
   48DG      O9 1090   2.256   0.373   1.632 -0.0504  0.5951  0.0759
   48DG     O10 1091   1.971   0.060   1.373  0.1453  0.4045  0.2265
   48DG     C11 1092   2.377   0.326   1.574  0.4198 -0.3218  0.6595
   48DG     C12 1093   2.102   0.020   1.326 -0.1360  0.0714 -0.0960
   48DG     H13 1094   2.415   0.237   1.624 -1.2421 -1.3570  0.1653
   48DG     H14 1095   2.456   0.400   1.561 -1.7258  2.0872  0.5708
   48DG     H15 1096   2.090  -0.022   1.227 -1.1774 -0.0928  0.0865
   48DG     H16 1097   2.152  -0.058   1.383 -0.0625  0.0741 -0.1579
   48DG     C17 1098   2.349   0.278   1.435  0.5063  0.1859 -0.4784
   48DG     C18 1099   2.201   0.133   1.318  0.6410  0.0479  0.6324
   48DG     O19 1100   2.258   0.167   1.439  0.0259 -0.0438  0.0737
   48DG     H20 1101   2.433   0.245   1.374  0.5999 -1.5630  0.5172
   48DG     H21 1102   2.302   0.361   1.382 -1.8395 -0.1249  0.9727
   48DG     H22 1103   2.277   0.096   1.250 -0.4296 -1.6289  0.2988
   48DG     H23 1104   2.161   0.221   1.267  1.2040  0.3499  0.7129
   49DG      C1 1105   2.337   2.742   0.789  0.2468  0.1795 -0.2221
   49DG      C2 1106   2.204   3.139   0.270  0.5455  0.7127 -0.5925
   49DG      H3 1107   2.305   2.693   0.881  1.2901 -1.4174 -0.6673
   49DG      H4 1108   2.419   2.805   0.824  0.8403 -0.2871 -0.7547
   49DG      H5 1109   2.384   2.669   0.723  0.7461  1.5992 -1.5000
   49DG      H6 1110   2.243   3.092   0.180  1.9047  3.3178 -1.4490
   49DG      H7 1111   2.130   3.214   0.242  1.3877  1.7629 -0.0577
   49DG      H8 1112   2.287   3.199   0.308 -0.5039  2.7903 -1.4449
   49DG      O9 1113   2.222   2.802   0.736 -0.2781 -0.3891 -0.3452
   49DG     O10 1114   2.147   3.051   0.363  0.3675 -0.5630 -0.4559
   49DG     C11 1115   2.125   2.705   0.702  0.8380 -0.3104 -0.3537
   49DG     C12 1116   2.084   2.941   0.302 -0.0775 -0.1655  0.1649
   49DG     H13 1117   2.067   2.669   0.788  0.0064 -0.6729 -1.0401
   49DG     H14 1118   2.157   2.616   0.648 -0.5599 -0.8241 -0.3848
   49DG     H15 1119   2.160   2.882   0.252  0.9889 -1.2499  2.8560
   49DG     H16 1120   2.009   2.967   0.227  0.0532 -0.0768  0.0639
   49DG     C17 1121   2.013   2.778   0.620  0.0252 -0.4320 -0.2758
   49DG     C18 1122   1.999   2.869   0.403 -0.0065  0.3504 -0.1744
   49DG     O19 1123   2.084   2.813   0.497 -0.1850  0.4114 -0.4323
   49DG     H20 1124   1.977   2.866   0.673 -0.1953 -1.9397  2.2572
   49DG     H21 1125   1.929   2.710   0.607  1.0695 -1.5403 -1.4511
   49DG     H22 1126   1.934   2.947   0.443  2.0264  1.0500  2.0105
   49DG     H23 1127   1.946   2.782   0.364 -1.6812  1.2049  0.1152
   50DG      C1 1128   2.075   3.957   1.538  0.4986  0.7467  0.1889
   50DG      C2 1129   2.032   3.463   2.050  0.3507  0.1959 -0.7205
   50DG      H3 1130   2.005   4.012   1.600 -1.3187 -2.0323  0.8091
   50DG      H4 1131   2.072   3.995   1.436 -1.5952 -0.0770 -0.1120
   50DG      H5 1132   2.176   3.959   1.581 -0.1477  0.0611  1.8314
   50DG      H6 1133   1.927   3.477   2.076  0.1698  0.9198 -1.7784
   50DG      H7 1134   2.052   3.362   2.084  2.2487  0.6594 -0.3443
   50DG      H8 1135   2.085   3.536   2.112  0.1580 -0.2087 -0.0737
   50DG      O9 1136   2.033   3.821   1.547  0.1752 -0.0556 -0.2247
   50DG     O10 1137   2.064   3.492   1.910  0.1922  0.5180 -0.8495
   50DG     C11 1138   2.118   3.734   1.476 -0.4084  0.2757  0.6174
   50DG     C12 1139   2.204   3.508   1.889 -0.1912  0.6199 -0.7111
   50DG     H13 1140   2.173   3.779   1.393  1.1512 -0.6390  1.1163
   50DG     H14 1141   2.064   3.646   1.441 -1.2146 -0.5468  3.6581
   50DG     H15 1142   2.262   3.426   1.931  0.9602  0.9480 -1.5911
   50DG     H16 1143   2.232   3.594   1.949 -0.3328 -0.2339  0.6093
   50DG     C17 1144   2.228   3.671   1.563 -1.3394  0.5093 -0.1650
   50DG     C18 1145   2.252   3.523   1.740 -0.1984 -0.8289 -0.3805
   50DG     O19 1146   2.167   3.616   1.678 -0.3185  0.3675 -0.5868
   50DG     H20 1147   2.304   3.737   1.605 -0.7684 -0.7955  0.9283
   50DG     H21 1148   2.274   3.590   1.506 -3.5792 -0.0660 -1.2652
   50DG     H22 1149   2.354   3.560   1.737  0.2147 -1.5198  2.4151
   50DG     H23 1150   2.271   3.428   1.691  0.5710 -1.4858  1.1135
   51DG      C1 1151   5.045   2.024   4.828 -0.4089  0.1950 -0.2628
   51DG      C2 1152   4.916   1.640   5.157  0.0684  0.6271 -0.2297
   51DG      H3 1153   5.078   1.928   4.867  0.0888  0.1730 -0.7313
   51DG      H4 1154   5.006   2.085   4.909  1.1906 -0.7483  1.2870
   51DG      H5 1155   5.126   2.078   4.779  1.6645 -2.1273  0.4094
   51DG      H6 1156   4.834   1.683   5.214  0.8052 -1.9569  3.0408
   51DG      H7 1157   4.921   1.538   5.193  1.7607  1.3456  1.7847
   51DG      H8 1158   5.011   1.689   5.182  1.7592 -2.0156 -1.0231
   51DG      O9 1159   4.945   2.007   4.732  0.8285  0.0041  0.3578
   51DG     O10 1160   4.890   1.658   5.019  0.1296  0.2865  0.0832
   51DG     C11 1161   4.963   1.924   4.615  0.1286 -0.9650 -0.0998
   51DG     C12 1162   4.986   1.585   4.945  0.5624 -0.6544 -0.6563
   51DG     H13 1163   5.057   1.964   4.577  1.0127 -0.5508  2.2949
   51DG     H14 1164   4.876   1.943   4.553 -0.7343 -2.9507  0.4243
   51DG     H15 1165   4.952   1.484   4.967 -1.6102  0.3280  0.8860
   51DG     H16 1166   5.085   1.593   4.990 -1.1951  0.1279  3.5210
   51DG     C17 1167   4.987   1.775   4.636  0.3213  0.7622 -0.8313
   51DG     C18 1168   4.982   1.605   4.801 -0.1943  0.1572 -0.2019
   51DG     O19 1169   4.996   1.740   4.777  0.3881 -0.0963  0.3903
   51DG     H20 1170   5.075   1.737   4.586 -0.2508 -0.1119 -1.2059
   51DG     H21 1171   4.900   1.729   4.590  0.0299  1.5647 -1.0944
   51DG     H22 1172   5.064   1.558   4.746 -1.1761  0.2927 -1.8643
   51DG     H23 1173   4.894   1.559   4.756  0.2402 -1.5681  0.6404
   52DG      C1 1174   2.365   0.618   0.536  0.7796  0.3524 -0.0818
   52DG      C2 1175   2.576   0.049   0.543  0.2425  0.8322  0.1931
   52DG      H3 1176   2.259   0.591   0.540  1.2253 -1.3584  1.3967
   52DG      H4 1177   2.369   0.727   0.540 -2.5653  0.5989 -0.5182
   52DG      H5 1178   2.407   0.591   0.633  0.7898  1.3486  0.2001
   52DG      H6 1179   2.647   0.074   0.622 -1.0449  0.9929  1.3229
   52DG      H7 1180   2.483   0.016   0.589 -0.1268 -0.2420 -1.2333
   52DG      H8 1181   2.613  -0.038   0.488 -0.9554  0.2529  0.2767
   52DG      O9 1182   2.430   0.553   0.431  0.1703 -0.2176 -0.1685
   52DG     O10 1183   2.544   0.166   0.460 -0.4284  0.6514  0.1365
   52DG     C11 1184   2.351   0.551   0.308  0.1458  0.0099 -0.6653
   52DG     C12 1185   2.470   0.123   0.346 -0.7666 -0.4504  0.3641
   52DG     H13 1186   2.352   0.654   0.271  1.0236  0.0909 -0.4510
   52DG     H14 1187   2.247   0.524   0.325 -0.8165  1.9318 -2.9437
   52DG     H15 1188   2.405   0.042   0.380 -0.4440  0.1599  2.6308
   52DG     H16 1189   2.532   0.074   0.271 -1.8789  0.8162 -1.4644
   52DG     C17 1190   2.410   0.464   0.201  0.1547 -0.0997 -0.1809
   52DG     C18 1191   2.382   0.237   0.297 -0.0435  0.6641  0.1212
   52DG     O19 1192   2.475   0.348   0.259  0.1103  0.5517 -0.1387
   52DG     H20 1193   2.483   0.521   0.143 -0.6818 -0.3480 -1.5161
   52DG     H21 1194   2.333   0.432   0.131 -0.3033  1.4576 -0.4356
   52DG     H22 1195   2.323   0.199   0.214 -0.2889  1.7512 -0.2144
   52DG     H23 1196   2.310   0.267   0.373  0.0540 -1.2736  1.0472
   53DG      C1 1197   2.426   2.733   2.048  0.0231  0.2232 -0.3904
   53DG      C2 1198   2.068   2.198   2.327  0.2747  0.2483  0.7287
   53DG      H3 1199   2.535   2.738   2.048 -0.0215  2.8119  0.1018
   53DG      H4 1200   2.396   2.765   2.148  2.7816  0.6625  0.3978
   53DG      H5 1201   2.377   2.798   1.976  1.3566  0.3678 -1.2007
   53DG      H6 1202   2.076   2.261   2.415 -2.5238  0.1793  1.1337
   53DG      H7 1203   1.964   2.218   2.303  0.5004 -0.3117 -0.8309
   53DG      H8 1204   2.079   2.098   2.367 -1.6693 -0.5855 -0.6638
   53DG      O9 1205   2.388   2.594   2.040  0.8814  0.4441 -0.1151
   53DG     O10 1206   2.170   2.230   2.229 -0.2159 -0.0349  0.6299
   53DG     C11 1207   2.389   2.552   1.904 -0.3613 -0.6264 -0.0748
   53DG     C12 1208   2.137   2.200   2.085  0.5791  1.0241  0.1589
   53DG     H13 1209   2.470   2.590   1.841 -1.3946 -1.8570 -2.2757
   53DG     H14 1210   2.306   2.595   1.847  0.6067  1.2280 -0.1782
   53DG     H15 1211   2.054   2.261   2.051  0.4586  0.6836 -0.1714
   53DG     H16 1212   2.105   2.098   2.064  1.1061  1.3593 -2.6347
   53DG     C17 1213   2.387   2.398   1.898 -0.2656  0.1710  0.4306
   53DG     C18 1214   2.251   2.225   1.993 -0.0304  0.1257  0.6512
   53DG     O19 1215   2.270   2.360   1.964 -0.5186 -0.4535 -0.2737
   53DG     H20 1216   2.477   2.358   1.946  0.1288 -0.5121 -0.8333
   53DG     H21 1217   2.386   2.363   1.795 -1.0038 -0.1674  0.5473
   53DG     H22 1218   2.341   2.185   2.039  0.4713 -1.6973 -1.7174
   53DG     H23 1219   2.247   2.184   1.892  2.3367  0.9539  0.1423
   54DG      C1 1220   3.936   1.107   2.812 -0.1229 -0.5616  0.1904
   54DG      C2 1221   4.044   0.966   3.408  0.0786 -0.4259  0.2508
   54DG      H3 1222   3.843   1.150   2.777 -0.7872 -0.9024  1.4725
   54DG      H4 1223   4.008   1.080   2.735 -1.4541  0.2334 -1.3833
   54DG      H5 1224   3.991   1.186   2.863  0.9060 -0.4959 -0.9667
   54DG      H6 1225   4.025   0.913   3.502  1.2196 -1.3743 -0.0189
   54DG      H7 1226   4.151   0.983   3.415 -0.2380  1.9717 -0.0338
   54DG      H8 1227   3.994   1.063   3.405 -0.8563 -0.9150 -0.5159
   54DG      O9 1228   3.909   1.002   2.905 -0.0849  0.6556 -0.3842
   54DG     O10 1229   4.017   0.881   3.302 -0.3779  0.2384  0.2877
   54DG     C11 1230   3.839   0.886   2.853 -0.0895 -0.1805  0.6738
   54DG     C12 1231   3.917   0.786   3.321  0.9015 -0.2657 -0.3444
   54DG     H13 1232   3.920   0.825   2.813  0.5088  0.4736  0.8617
   54DG     H14 1233   3.765   0.910   2.777 -1.4391 -2.3679  1.2109
   54DG     H15 1234   3.864   0.803   3.414  2.0904  1.5458  0.0560
   54DG     H16 1235   3.958   0.687   3.342 -1.1063 -1.1808 -0.5802
   54DG     C17 1236   3.769   0.816   2.968  0.0730  0.3818  0.6996
   54DG     C18 1237   3.807   0.776   3.200  0.2285 -0.3956 -0.0766
   54DG     O19 1238   3.859   0.822   3.076  0.0431  0.1184  0.7045
   54DG     H20 1239   3.759   0.709   2.945 -0.5382  0.1654  1.9103
   54DG     H21 1240   3.677   0.869   2.991 -1.1350 -2.0082  1.8413
   54DG     H22 1241   3.763   0.678   3.186 -0.4467  0.0335 -1.0127
   54DG     H23 1242   3.725   0.844   3.224  1.4983  0.7180  1.3320
   55DG      C1 1243   2.001   4.800   4.327  0.1858 -0.5048 -0.1837
   55DG      C2 1244   1.782   4.224   4.085 -0.2115  0.2992 -0.3886
   55DG      H3 1245   2.082   4.780   4.257  1.5198  0.4204  1.0276
   55DG      H4 1246   2.037   4.858   4.412 -1.2761 -1.6105  1.2423
   55DG      H5 1247   1.929   4.856   4.269  0.2105  0.3770  0.6073
   55DG      H6 1248   1.873   4.166   4.070  0.2222  0.9966 -0.4857
   55DG      H7 1249   1.695   4.158   4.086 -0.1075  0.1407 -0.9885
   55DG      H8 1250   1.761   4.289   4.000 -0.0619  1.9243  0.7743
   55DG      O9 1251   1.939   4.676   4.363 -0.0899  0.6299 -0.0545
   55DG     O10 1252   1.782   4.297   4.205 -0.0582  0.3799 -0.4585
   55DG     C11 1253   1.990   4.643   4.490  0.2238 -0.2088  0.2708
   55DG     C12 1254   1.812   4.230   4.328  0.7373 -0.0199 -0.9593
   55DG     H13 1255   1.980   4.721   4.566  0.3531  0.1983 -0.1303
   55DG     H14 1256   2.090   4.599   4.494 -0.0593 -0.8202  2.9047
   55DG     H15 1257   1.906   4.175   4.319 -0.1294 -1.4598 -1.6513
   55DG     H16 1258   1.734   4.155   4.341 -0.5880  1.2719 -1.2120
   55DG     C17 1259   1.904   4.520   4.531  0.1716  0.0751 -0.5614
   55DG     C18 1260   1.816   4.317   4.448 -0.2344 -0.2971  0.3602
   55DG     O19 1261   1.914   4.421   4.432 -0.1421  0.4437  0.0871
   55DG     H20 1262   1.801   4.548   4.554  0.4966  0.8181  0.0336
   55DG     H21 1263   1.951   4.477   4.620  0.9244 -0.1463 -1.0577
   55DG     H22 1264   1.717   4.361   4.459  0.1761  0.6907  0.1754
   55DG     H23 1265   1.826   4.248   4.532 -1.3280 -1.8295 -0.7001
   56DG      C1 1266   0.640   1.300   5.075 -0.0128 -0.3655  0.3278
   56DG      C2 1267   1.183   1.150   4.612  0.3761 -0.1020 -0.0561
   56DG      H3 1268   0.620   1.310   5.182 -2.3462 -0.1601 -0.0653
   56DG      H4 1269   0.564   1.233   5.035 -0.4867  0.9982 -1.1466
   56DG      H5 1270   0.629   1.395   5.022  1.2208 -0.9852 -1.1147
   56DG      H6 1271   1.225   1.243   4.572  0.8752 -0.5257 -0.5256
   56DG      H7 1272   1.249   1.064   4.602 -1.4246 -1.5032 -0.4560
   56DG      H8 1273   1.092   1.132   4.555 -1.1770  2.8060  1.2512
   56DG      O9 1274   0.772   1.269   5.042  0.0814 -0.5472  0.3442
   56DG     O10 1275   1.144   1.170   4.747  0.1646  0.1027  0.2461
   56DG     C11 1276   0.839   1.181   5.127  0.7631 -0.2053  0.2250
   56DG     C12 1277   1.247   1.158   4.844  0.0814  0.1120  0.0377
   56DG     H13 1278   0.820   1.075   5.111  1.1973 -0.5358  1.7538
   56DG     H14 1279   0.800   1.181   5.228  1.9751 -2.0738  0.7440
   56DG     H15 1280   1.343   1.198   4.812  0.0963 -0.2064 -0.3301
   56DG     H16 1281   1.278   1.056   4.867  2.4806  1.2203  2.0830
   56DG     C17 1282   0.993   1.219   5.114 -0.2912 -0.0236  0.1390
   56DG     C18 1283   1.195   1.213   4.980  1.4097 -0.6690  0.4315
   56DG     O19 1284   1.060   1.161   4.998  0.2811  0.1787  0.0426
   56DG     H20 1285   1.043   1.190   5.206 -5.2917 -0.1965  3.1862
   56DG     H21 1286   0.994   1.328   5.115  1.6657 -0.0200 -0.2261
   56DG     H22 1287   1.267   1.190   5.059  2.8783 -0.3043 -0.7427
   56DG     H23 1288   1.189   1.319   4.954  0.0233 -1.2188 -1.7561
   57DG      C1 1289   3.418   3.755   1.859 -0.2546 -0.3728 -0.2961
   57DG      C2 1290   3.783   4.374   1.513  0.1167  0.3785 -1.0605
   57DG      H3 1291   3.354   3.671   1.886  1.4723 -1.1555  1.5901
   57DG      H4 1292   3.390   3.830   1.933 -2.6961 -0.6085 -0.8844
   57DG      H5 1293   3.519   3.721   1.883 -0.6518 -0.6869  1.0271
   57DG      H6 1294   3.873   4.370   1.576  0.2256  1.0334 -1.1727
   57DG      H7 1295   3.812   4.435   1.428 -0.8544 -1.1451 -2.5396
   57DG      H8 1296   3.699   4.414   1.568  1.6051  1.0265  0.8745
   57DG      O9 1297   3.407   3.801   1.731  0.6283  0.0500 -0.2538
   57DG     O10 1298   3.762   4.245   1.473 -0.3367 -0.4826 -0.1388
   57DG     C11 1299   3.516   3.894   1.699 -0.0260 -0.1070  0.1478
   57DG     C12 1300   3.645   4.224   1.388  0.2993  0.2992  0.6513
   57DG     H13 1301   3.613   3.870   1.742 -0.9941  0.2951  2.7452
   57DG     H14 1302   3.504   3.993   1.742 -0.9527 -1.4399  3.2923
   57DG     H15 1303   3.661   4.254   1.285 -0.0378 -0.0358  0.4981
   57DG     H16 1304   3.565   4.295   1.411  0.1538  1.3986 -2.7252
   57DG     C17 1305   3.535   3.912   1.548 -0.7338  0.3472  0.7055
   57DG     C18 1306   3.608   4.078   1.397 -0.5371  0.0588 -0.5192
   57DG     O19 1307   3.565   4.047   1.529 -0.1993 -0.8722 -0.2540
   57DG     H20 1308   3.446   3.890   1.489  1.4144  0.1792 -2.7260
   57DG     H21 1309   3.616   3.845   1.518 -1.8156 -1.0899  0.8797
   57DG     H22 1310   3.535   4.046   1.323 -2.1622  0.4045  0.8718
   57DG     H23 1311   3.702   4.025   1.382  0.5445  2.2401 -2.0484
   58DG      C1 1312   2.005   0.387   0.417 -0.4414  0.3717 -0.1040
   58DG      C2 1313   1.677   0.950   0.606  0.5693 -0.3853 -0.6832
   58DG      H3 1314   2.101   0.420   0.457 -0.1406 -0.7743  0.1543
   58DG      H4 1315   1.977   0.430   0.321 -0.4689  1.2941  0.3031
   58DG      H5 1316   2.017   0.279   0.410  1.2238  0.6572 -2.8329
   58DG      H6 1317   1.614   0.987   0.525  2.0082  1.2181 -1.1418
   58DG      H7 1318   1.650   0.991   0.703  1.1059  0.8397 -1.0304
   58DG      H8 1319   1.771   1.002   0.587 -0.2359  0.7035 -1.8197
   58DG      O9 1320   1.909   0.421   0.521  0.6217 -0.2660  0.4081
   58DG     O10 1321   1.686   0.808   0.610  0.4593  0.2206  0.0737
   58DG     C11 1322   1.795   0.337   0.517  0.2848  0.4222 -0.4179
   58DG     C12 1323   1.562   0.736   0.608  0.3840  0.5134  0.0261
   58DG     H13 1324   1.815   0.232   0.539 -1.2092 -0.4700 -2.8713
   58DG     H14 1325   1.745   0.355   0.422 -2.0165  0.4771  0.7121
   58DG     H15 1326   1.514   0.733   0.510  1.8697  2.3986 -0.8237
   58DG     H16 1327   1.486   0.788   0.666  0.0250  1.1511 -0.9727
   58DG     C17 1328   1.705   0.398   0.618 -0.4590 -0.4388 -1.2422
   58DG     C18 1329   1.586   0.593   0.666  0.0104 -0.6397 -0.2138
   58DG     O19 1330   1.659   0.522   0.570 -0.1675  0.1521  0.2932
   58DG     H20 1331   1.753   0.405   0.716  1.7066 -2.0377 -2.0924
   58DG     H21 1332   1.619   0.334   0.640 -1.3672  0.8630 -0.9180
   58DG     H22 1333   1.648   0.611   0.755 -0.1457  4.0159 -0.8189
   58DG     H23 1334   1.496   0.538   0.695  0.6189 -0.8544  1.4256
   59DG      C1 1335   2.775   3.406   3.138  0.2868 -0.0828  0.4252
   59DG      C2 1336   2.366   3.717   2.770  0.3534  0.7825 -0.2574
   59DG      H3 1337   2.857   3.463   3.180  0.4703  0.9031 -1.1592
   59DG      H4 1338   2.818   3.353   3.053 -0.8947  1.7105 -1.3996
   59DG      H5 1339   2.729   3.330   3.201 -1.7180 -0.5684 -1.4504
   59DG      H6 1340   2.334   3.670   2.863 -0.7486  1.3144 -0.3472
   59DG      H7 1341   2.293   3.795   2.751 -0.8913  0.6793  3.3689
   59DG      H8 1342   2.345   3.637   2.699 -1.2123  1.3284 -0.4583
   59DG      O9 1343   2.682   3.519   3.096  0.1433 -0.4539 -0.8631
   59DG     O10 1344   2.503   3.761   2.766  0.5893  0.2504 -0.0820
   59DG     C11 1345   2.666   3.623   3.197 -0.7703  0.6115  0.1861
   59DG     C12 1346   2.509   3.891   2.832 -0.8475 -0.5854  0.2150
   59DG     H13 1347   2.760   3.678   3.198 -2.1093  3.1712 -1.7569
   59DG     H14 1348   2.646   3.579   3.295 -0.6642 -1.9176 -0.8769
   59DG     H15 1349   2.437   3.964   2.796 -0.3365 -1.1012 -1.9859
   59DG     H16 1350   2.603   3.937   2.805 -1.8186  0.1401 -2.1275
   59DG     C17 1351   2.558   3.720   3.156  1.2104 -0.4253  0.1439
   59DG     C18 1352   2.487   3.877   2.985  0.6625  0.1662 -0.8012
   59DG     O19 1353   2.561   3.761   3.020  0.0946  0.1800  0.1634
   59DG     H20 1354   2.550   3.813   3.214 -0.4849  0.8520 -2.0030
   59DG     H21 1355   2.462   3.673   3.175  0.4265  1.1928  0.4100
   59DG     H22 1356   2.528   3.964   3.037  1.1110 -0.0666 -0.7559
   59DG     H23 1357   2.383   3.876   3.015  0.8079  0.4755 -0.2699
   60DG      C1 1358   4.671   5.273   4.640  0.5279  1.2331 -0.4394
   60DG      C2 1359   4.592   5.891   4.971 -0.8135  0.3022  0.3191
   60DG      H3 1360   4.584   5.208   4.629  1.2565  0.1626  0.0073
   60DG      H4 1361   4.755   5.206   4.624 -0.5808 -0.3412  0.1045
   60DG      H5 1362   4.683   5.346   4.560 -0.3123  2.0882  0.1959
   60DG      H6 1363   4.487   5.901   4.945 -0.3579  0.3671 -1.6021
   60DG      H7 1364   4.615   5.946   5.063 -1.7085  0.6895  0.3163
   60DG      H8 1365   4.653   5.941   4.896 -1.3661  2.2780  1.1176
   60DG      O9 1366   4.676   5.343   4.770 -0.4203  0.0266 -0.0628
   60DG     O10 1367   4.644   5.760   4.972 -0.0533 -0.1107 -0.3535
   60DG     C11 1368   4.630   5.261   4.876 -0.2066  0.5894  0.0016
   60DG     C12 1369   4.584   5.692   5.082  0.3046 -0.2167  0.7978
   60DG     H13 1370   4.676   5.163   4.877 -1.4971 -0.0716  2.2643
   60DG     H14 1371   4.523   5.248   4.864 -0.3460  0.4523  1.2377
   60DG     H15 1372   4.476   5.677   5.072  0.2107  0.5288  0.6268
   60DG     H16 1373   4.592   5.753   5.172 -1.1739  0.9260  0.2040
   60DG     C17 1374   4.670   5.328   5.010 -0.3600 -0.1122 -0.6075
   60DG     C18 1375   4.644   5.548   5.101 -0.2147  0.4778 -0.2643
   60DG     O19 1376   4.597   5.449   5.014  0.0278 -0.2347  0.1190
   60DG     H20 1377   4.777   5.337   4.994  0.1626  0.0515  2.4853
   60DG     H21 1378   4.639   5.266   5.094  2.1766 -0.5637  0.0645
   60DG     H22 1379   4.751   5.560   5.087  0.1702  0.0949  2.0463
   60DG     H23 1380   4.627   5.514   5.203 -2.6192  0.6903 -0.5357
   61DG      C1 1381   5.359   1.446   4.721  0.1670  0.1572  0.8709
   61DG      C2 1382   5.665   0.901   5.040 -0.5690 -0.3319 -0.2706
   61DG      H3 1383   5.434   1.436   4.642 -0.6726  0.4617  0.0207
   61DG      H4 1384   5.399   1.513   4.797  0.7306  0.8047  0.0139
   61DG      H5 1385   5.268   1.494   4.686  0.1724  1.3684  2.3978
   61DG      H6 1386   5.682   0.929   5.144 -2.5165  1.5670 -0.4065
   61DG      H7 1387   5.696   0.796   5.043  0.0164 -0.1550  2.4807
   61DG      H8 1388   5.742   0.952   4.981  1.3032 -1.7069  0.8417
   61DG      O9 1389   5.327   1.317   4.778  0.7607  0.3825  0.3212
   61DG     O10 1390   5.528   0.919   5.006  0.3186 -0.1602 -0.3263
   61DG     C11 1391   5.250   1.231   4.693  0.0436  0.0872 -0.0554
   61DG     C12 1392   5.491   0.865   4.876  1.0344 -0.7826  0.0345
   61DG     H13 1393   5.305   1.219   4.600 -1.9806 -0.0136 -1.2752
   61DG     H14 1394   5.153   1.272   4.666 -0.1868  0.3412  1.0760
   61DG     H15 1395   5.492   0.756   4.877 -0.7797 -0.8361  0.0513
   61DG     H16 1396   5.558   0.890   4.794  0.1454  1.2137 -0.1461
   61DG     C17 1397   5.228   1.109   4.775  0.0365  0.5153  0.1063
   61DG     C18 1398   5.352   0.919   4.841 -0.1045 -0.5460 -0.0382
   61DG     O19 1399   5.354   1.058   4.821  0.1862  0.1413 -0.6060
   61DG     H20 1400   5.189   1.032   4.709 -2.6967  1.3580  0.6393
   61DG     H21 1401   5.163   1.128   4.860  2.5284  0.6634  2.1032
   61DG     H22 1402   5.318   0.860   4.756 -0.7466 -0.4773  0.1706
   61DG     H23 1403   5.276   0.900   4.916  0.7793 -0.6725  0.8457
   62DG      C1 1404   1.518   0.891   4.970 -0.3839  0.6433 -0.2049
   62DG      C2 1405   1.991   0.561   4.666  0.2270 -0.4279 -0.2882
   62DG      H3 1406   1.410   0.873   4.972 -0.5376  1.3457 -1.3080
   62DG      H4 1407   1.531   0.932   4.870 -0.1183  1.1893  0.0541
   62DG      H5 1408   1.550   0.974   5.032  0.5650  0.1597 -0.0275
   62DG      H6 1409   2.051   0.473   4.645  1.6128 -0.0399  1.7293
   62DG      H7 1410   1.915   0.574   4.590  0.6490  2.6420 -0.3115
   62DG      H8 1411   2.041   0.658   4.662 -0.3144 -0.0583  1.1259
   62DG      O9 1412   1.598   0.776   4.979  0.6478  0.0943 -0.0718
   62DG     O10 1413   1.938   0.533   4.796 -0.4238 -0.3339  0.1807
   62DG     C11 1414   1.528   0.667   5.050  0.9923 -0.5385 -0.0464
   62DG     C12 1415   1.849   0.421   4.783 -0.2635 -0.3049 -0.1321
   62DG     H13 1416   1.429   0.646   5.007  0.0619  1.6125  0.9096
   62DG     H14 1417   1.508   0.708   5.149 -1.9980  1.0696 -1.1776
   62DG     H15 1418   1.906   0.329   4.770  1.1763  0.5373  0.0138
   62DG     H16 1419   1.779   0.420   4.699 -1.5901 -1.3376  0.9349
   62DG     C17 1420   1.629   0.554   5.049  0.0943 -0.2444 -0.0544
   62DG     C18 1421   1.770   0.414   4.917  0.1235  0.7753 -1.1368
   62DG     O19 1422   1.682   0.523   4.922 -0.4363 -0.9296 -0.0499
   62DG     H20 1423   1.572   0.463   5.071 -1.0729 -0.8407 -4.5945
   62DG     H21 1424   1.703   0.577   5.126 -2.2223 -0.8343  2.5570
   62DG     H22 1425   1.718   0.318   4.919 -0.4068  0.9457 -3.4621
   62DG     H23 1426   1.835   0.408   5.004  0.7732  0.6796 -1.6286
   63DG      C1 1427   2.335   1.368   5.334  0.8587 -0.4946  0.9559
   63DG      C2 1428   1.957   1.562   4.814  0.2907  0.1346  0.0169
   63DG      H3 1429   2.327   1.290   5.410 -0.9520 -0.8419  0.4617
   63DG      H4 1430   2.294   1.461   5.373 -0.2127 -1.6838  2.8481
   63DG      H5 1431   2.441   1.393   5.321  0.9448  0.1696  2.6939
   63DG      H6 1432   2.007   1.659   4.815 -1.6159  1.1708  1.8682
   63DG      H7 1433   1.941   1.532   4.711  3.7029  3.2999 -1.6618
   63DG      H8 1434   1.865   1.576   4.870  0.8531 -3.4219  2.2103
   63DG      O9 1435   2.256   1.329   5.221 -0.0176 -0.2532 -0.2689
   63DG     O10 1436   2.034   1.470   4.888 -0.0617 -0.7293 -0.5268
   63DG     C11 1437   2.298   1.204   5.175  0.1015  0.6062  0.7469
   63DG     C12 1438   2.153   1.428   4.825 -0.2223 -0.2732  0.2672
   63DG     H13 1439   2.312   1.125   5.249  1.4214  0.5032  0.4147
   63DG     H14 1440   2.398   1.214   5.131 -0.5893 -1.3856 -1.5069
   63DG     H15 1441   2.214   1.506   4.779  1.2685 -2.1444 -1.0753
   63DG     H16 1442   2.127   1.373   4.735  1.1667  2.1194 -1.7324
   63DG     C17 1443   2.193   1.162   5.068 -0.0216  0.1719 -0.3878
   63DG     C18 1444   2.249   1.339   4.907  1.0559  0.3791  0.3944
   63DG     O19 1445   2.157   1.270   4.989 -0.2742 -0.0590 -0.4709
   63DG     H20 1446   2.102   1.133   5.120  0.6066  0.1543  0.7395
   63DG     H21 1447   2.223   1.079   5.004 -1.5612  2.3790 -4.3491
   63DG     H22 1448   2.326   1.300   4.841  2.2243  3.7272 -0.4275
   63DG     H23 1449   2.309   1.399   4.976  0.6545  0.0854  1.0168
   64DG      C1 1450   3.069   2.399   4.986  0.3494  0.1264 -0.5021
   64DG      C2 1451   2.710   1.791   5.157 -0.1855 -0.5024 -0.3905
   64DG      H3 1452   3.114   2.378   4.889  0.3055  2.1307 -0.9806
   64DG      H4 1453   3.108   2.322   5.053 -1.9140  0.1524  0.9588
   64DG      H5 1454   3.111   2.493   5.019  1.4406 -0.7311  0.6325
   64DG      H6 1455   2.722   1.790   5.266 -1.3980 -2.1502 -0.2313
   64DG      H7 1456   2.603   1.796   5.137 -0.1600  1.3049 -0.2523
   64DG      H8 1457   2.743   1.694   5.119  1.5492  0.0549 -0.3987
   64DG      O9 1458   2.927   2.411   4.984 -0.1459  0.0648 -0.0222
   64DG     O10 1459   2.779   1.907   5.105  0.2090  0.2138 -0.6178
   64DG     C11 1460   2.870   2.447   5.105 -0.1649 -0.3260  0.0253
   64DG     C12 1461   2.744   2.028   5.172 -0.3962  0.3062  0.2673
   64DG     H13 1462   2.782   2.503   5.072 -0.4750 -1.0379 -0.3977
   64DG     H14 1463   2.921   2.527   5.158 -0.9373  1.5704 -1.9478
   64DG     H15 1464   2.806   2.037   5.260  1.1501  1.3227 -0.8741
   64DG     H16 1465   2.636   2.029   5.186 -0.7203  0.6695 -1.8513
   64DG     C17 1466   2.830   2.331   5.192  0.3586  0.3481  0.3979
   64DG     C18 1467   2.785   2.131   5.068  0.4477  0.2421  0.2481
   64DG     O19 1468   2.743   2.250   5.112  0.3002 -0.1488  0.0375
   64DG     H20 1469   2.782   2.384   5.274 -1.3736 -0.0228 -0.3470
   64DG     H21 1470   2.915   2.268   5.220  0.2681 -0.7590 -1.6950
   64DG     H22 1471   2.889   2.123   5.036  1.0908  0.3414  2.1760
   64DG     H23 1472   2.723   2.113   4.980  1.4985  0.0201 -0.4629
   65DG      C1 1473   2.937   0.984   5.428 -0.2246  0.5813  0.5897
   65DG      C2 1474   3.423   0.709   5.041  0.5701  0.2952  0.4692
   65DG      H3 1475   2.849   0.996   5.491 -0.9521  3.3399 -0.8080
   65DG      H4 1476   2.969   1.083   5.398  1.3739  0.1133  0.6588
   65DG      H5 1477   3.013   0.944   5.496  0.6962  2.4139  0.7140
   65DG      H6 1478   3.451   0.662   4.946 -1.2595  1.0089 -0.4836
   65DG      H7 1479   3.468   0.807   5.054  1.8300  0.1800 -2.2533
   65DG      H8 1480   3.450   0.640   5.120 -0.1523  1.1430  1.4873
   65DG      O9 1481   2.918   0.904   5.312  0.3875  0.0056  0.0578
   65DG     O10 1482   3.279   0.709   5.057 -0.9199  0.1028  0.2278
   65DG     C11 1483   2.855   0.776   5.328 -0.4046 -0.5906 -0.7914
   65DG     C12 1484   3.212   0.581   5.066 -0.0479 -0.0350 -0.6516
   65DG     H13 1485   2.747   0.793   5.335 -0.4494 -0.3986 -1.7992
   65DG     H14 1486   2.891   0.721   5.414  0.8266  0.0917 -0.8543
   65DG     H15 1487   3.247   0.522   5.151 -0.1246  0.0131 -0.5865
   65DG     H16 1488   3.225   0.512   4.982  1.0119  0.0721 -0.5790
   65DG     C17 1489   2.875   0.682   5.210 -0.2361 -0.3580 -0.9260
   65DG     C18 1490   3.061   0.599   5.087  0.1562  0.0798 -0.1586
   65DG     O19 1491   3.016   0.675   5.201  0.4575 -0.6970  1.0853
   65DG     H20 1492   2.834   0.730   5.121  0.7892  2.9794  0.2758
   65DG     H21 1493   2.829   0.585   5.229  1.2296 -1.6084 -3.3070
   65DG     H22 1494   3.025   0.643   4.993 -1.1727 -0.5103  0.0410
   65DG     H23 1495   3.009   0.503   5.098 -3.4360  1.9912  1.2709
   66DG      C1 1496   2.880   4.336   0.767  0.0423 -0.0894 -0.3794
   66DG      C2 1497   3.124   3.965   0.136  0.4565  0.0085 -0.4920
   66DG      H3 1498   2.978   4.354   0.809 -0.0636  1.3796 -0.7107
   66DG      H4 1499   2.878   4.227   0.772 -0.5449 -0.0638  0.1056
   66DG      H5 1500   2.813   4.383   0.839  2.9245  2.6571  0.7067
   66DG      H6 1501   3.018   3.947   0.120  0.9978 -2.7627 -1.4802
   66DG      H7 1502   3.163   3.960   0.034  0.5726 -1.7077 -0.3952
   66DG      H8 1503   3.170   3.887   0.197  2.0574 -0.8039 -2.6071
   66DG      O9 1504   2.875   4.387   0.634  0.3655  0.1525 -0.8416
   66DG     O10 1505   3.156   4.092   0.180  0.0832  0.0630 -0.5536
   66DG     C11 1506   3.004   4.442   0.596 -0.1482 -0.2221  0.3595
   66DG     C12 1507   3.073   4.119   0.295 -0.2783 -0.4108 -0.1114
   66DG     H13 1508   3.090   4.382   0.625  0.6135  1.3920  1.6404
   66DG     H14 1509   3.001   4.540   0.644 -0.5122 -0.7970  1.5507
   66DG     H15 1510   3.096   4.063   0.386  0.0108  1.3964  0.9855
   66DG     H16 1511   2.970   4.100   0.266 -0.0842  2.7367 -3.5916
   66DG     C17 1512   2.977   4.441   0.450 -0.0195 -0.3263 -0.0469
   66DG     C18 1513   3.087   4.257   0.348  0.6475 -0.4958 -0.2870
   66DG     O19 1514   2.970   4.305   0.412 -0.0111  0.2617 -0.2790
   66DG     H20 1515   3.044   4.504   0.391 -1.0192  1.8163  1.0141
   66DG     H21 1516   2.886   4.496   0.427  0.5535  1.6417  2.0612
   66DG     H22 1517   3.162   4.255   0.427 -1.0439 -0.2808  1.4335
   66DG     H23 1518   3.112   4.314   0.259 -0.0087 -0.8739 -0.7203
   67DG      C1 1519   2.410   2.366   3.955  0.3193 -0.6782  0.3179
   67DG      C2 1520   2.071   1.618   3.604  0.0619  0.0347  0.4142
   67DG      H3 1521   2.312   2.414   3.957  0.5527 -0.1785  2.3446
   67DG      H4 1522   2.427   2.335   3.852  0.3584 -0.6047  0.3017
   67DG      H5 1523   2.493   2.431   3.983  1.6561 -1.4985 -1.5638
   67DG      H6 1524   2.076   1.539   3.679 -1.0702 -1.0021 -0.5617
   67DG      H7 1525   1.969   1.653   3.593 -0.7539 -2.5614 -1.5193
   67DG      H8 1526   2.105   1.561   3.517  1.8172  1.8283 -0.1531
   67DG      O9 1527   2.403   2.255   4.044 -0.0187 -0.2087 -0.3806
   67DG     O10 1528   2.163   1.722   3.621  0.7554  0.3512 -0.3359
   67DG     C11 1529   2.303   2.150   4.012  0.0990 -0.4648 -0.5067
   67DG     C12 1530   2.123   1.802   3.737  0.6447 -0.6541  0.3229
   67DG     H13 1531   2.199   2.185   4.014 -0.3983 -1.9127 -0.0704
   67DG     H14 1532   2.303   2.069   4.085 -3.7457 -0.7504 -0.5838
   67DG     H15 1533   2.146   1.742   3.824 -1.6392  0.1397  1.5654
   67DG     H16 1534   2.017   1.831   3.732  0.8343 -0.0840 -0.7776
   67DG     C17 1535   2.320   2.092   3.871  0.1491 -0.3875 -0.2889
   67DG     C18 1536   2.200   1.935   3.732 -0.3750  0.9587 -0.1729
   67DG     O19 1537   2.218   1.997   3.859 -0.0677  0.1518  0.0355
   67DG     H20 1538   2.418   2.048   3.855  0.6270 -0.0120  1.3791
   67DG     H21 1539   2.301   2.168   3.795  0.4130  0.9103  0.8868
   67DG     H22 1540   2.290   1.909   3.675 -1.2172  0.7864 -1.4592
   67DG     H23 1541   2.150   2.017   3.681 -0.6185  1.1039  0.2992
   68DG      C1 1542   0.412   5.208   1.435  0.1311 -0.1146  0.7219
   68DG      C2 1543  -0.231   5.668   1.507 -0.1635  0.1023 -0.2201
   68DG      H3 1544   0.513   5.169   1.444 -1.0752 -3.5334  0.9617
   68DG      H4 1545   0.415   5.263   1.341 -4.8695 -0.1313  0.2669
   68DG      H5 1546   0.341   5.126   1.426  1.9854 -1.7346  0.1996
   68DG      H6 1547  -0.320   5.651   1.567  2.0016 -0.6289  3.0652
   68DG      H7 1548  -0.212   5.775   1.518  1.4799 -0.1941  0.1124
   68DG      H8 1549  -0.238   5.639   1.402  2.5602 -1.0162 -0.1772
   68DG      O9 1550   0.387   5.295   1.542  0.0800  1.0899  0.5102
   68DG     O10 1551  -0.125   5.590   1.556  0.4305  0.0094 -0.0864
   68DG     C11 1552   0.269   5.365   1.524  0.3789 -0.4592 -0.3062
   68DG     C12 1553  -0.090   5.605   1.689 -0.2548 -0.5045 -0.3360
   68DG     H13 1554   0.198   5.322   1.454  0.1279 -1.4210  0.5260
   68DG     H14 1555   0.290   5.467   1.491 -3.1327  0.5747  0.2797
   68DG     H15 1556  -0.185   5.596   1.741  0.8518  0.2137  1.9718
   68DG     H16 1557  -0.047   5.704   1.709  0.2343 -0.4843 -1.4288
   68DG     C17 1558   0.198   5.374   1.657 -0.2907 -0.0613 -0.9176
   68DG     C18 1559   0.006   5.495   1.734 -0.6585  1.2916 -0.0140
   68DG     O19 1560   0.111   5.490   1.641 -0.0168  0.3736 -0.0086
   68DG     H20 1561   0.272   5.394   1.734 -0.4172 -2.6480 -0.0138
   68DG     H21 1562   0.161   5.275   1.687 -0.9411  1.0871  2.5452
   68DG     H22 1563   0.036   5.503   1.838  0.7222 -0.2175 -0.2495
   68DG     H23 1564  -0.044   5.399   1.722  0.1767  0.9515 -0.9658
   69DG      C1 1565   1.537   0.733   4.022 -0.5554  0.1447 -0.0487
   69DG      C2 1566   2.195   0.845   3.890 -0.1826 -0.1037  0.2409
   69DG      H3 1567   1.518   0.732   3.914 -0.6836 -0.7822 -0.0238
   69DG      H4 1568   1.450   0.751   4.085 -0.8223  0.1908 -0.4238
   69DG      H5 1569   1.549   0.627   4.046 -0.4960  0.3795  0.9814
   69DG      H6 1570   2.141   0.830   3.797  1.0288 -0.6657 -0.3922
   69DG      H7 1571   2.266   0.928   3.888  0.0858 -0.3349  0.2852
   69DG      H8 1572   2.254   0.756   3.913 -0.3900  0.0479  1.4366
   69DG      O9 1573   1.646   0.811   4.056  0.5898 -0.0977 -0.4142
   69DG     O10 1574   2.092   0.856   3.987  0.2444  0.2179 -0.3472
   69DG     C11 1575   1.677   0.794   4.190  0.0491 -0.0527  0.2454
   69DG     C12 1576   2.140   0.863   4.116  0.1085 -0.3863 -0.5669
   69DG     H13 1577   1.688   0.688   4.213  0.8320 -0.1789 -0.6513
   69DG     H14 1578   1.593   0.837   4.244  0.8428  1.0058  0.6843
   69DG     H15 1579   2.214   0.942   4.134 -0.1648 -0.5761  1.7130
   69DG     H16 1580   2.181   0.765   4.140 -1.0183 -0.9093 -0.7527
   69DG     C17 1581   1.799   0.879   4.221  0.2349  0.3903 -0.6828
   69DG     C18 1582   2.027   0.901   4.211  0.3640  0.6491  0.0809
   69DG     O19 1583   1.915   0.828   4.166  0.1128 -0.0134 -0.5696
   69DG     H20 1584   1.815   0.866   4.328 -1.2892  1.3249 -0.2984
   69DG     H21 1585   1.790   0.982   4.186  0.6233  0.3974 -0.7593
   69DG     H22 1586   2.050   0.865   4.311  2.4781  0.5949 -0.3698
   69DG     H23 1587   2.009   1.008   4.219 -0.0878  0.5150  0.9178
   70DG      C1 1588   2.942   3.014   3.718  0.1508  0.0545 -0.5179
   70DG      C2 1589   2.461   3.401   3.419  0.4041 -0.5186 -0.1707
   70DG      H3 1590   2.970   3.006   3.613 -0.2196  2.4866 -0.8769
   70DG      H4 1591   2.955   2.922   3.774 -1.2965 -0.9224 -1.6975
   70DG      H5 1592   2.981   3.101   3.771 -2.9872  0.6266  1.1021
   70DG      H6 1593   2.549   3.411   3.355  0.1675  0.6213 -0.3362
   70DG      H7 1594   2.369   3.404   3.360  0.3602  0.6441 -0.0689
   70DG      H8 1595   2.450   3.495   3.473 -0.3714 -0.8750  0.3102
   70DG      O9 1596   2.804   3.046   3.720  0.1185 -0.0189  0.3092
   70DG     O10 1597   2.489   3.289   3.497  0.4679  0.3565  0.4858
   70DG     C11 1598   2.736   3.063   3.841 -0.5374  0.4190 -0.2782
   70DG     C12 1599   2.391   3.255   3.591 -0.2071  0.0823  0.8530
   70DG     H13 1600   2.753   3.163   3.881 -0.9668  0.5474 -0.4083
   70DG     H14 1601   2.751   2.986   3.916  0.7253  3.0240  2.3447
   70DG     H15 1602   2.293   3.253   3.542  0.3383  2.6382 -0.5173
   70DG     H16 1603   2.375   3.335   3.663  0.0639 -0.2616  1.3053
   70DG     C17 1604   2.589   3.050   3.806  0.2058 -0.1014  0.2562
   70DG     C18 1605   2.421   3.133   3.667  0.7472 -0.2012  0.3064
   70DG     O19 1606   2.558   3.147   3.708 -0.3558 -0.1915  0.3646
   70DG     H20 1607   2.521   3.063   3.890  2.3161  3.2349  1.6555
   70DG     H21 1608   2.566   2.953   3.762 -0.7611  0.1147  0.2656
   70DG     H22 1609   2.362   3.136   3.759 -0.2726 -0.2129 -0.3309
   70DG     H23 1610   2.407   3.040   3.612 -0.6021  0.1153  0.0815
   71DG      C1 1611   4.534   0.978   3.927 -0.0854 -0.2022 -0.0995
   71DG      C2 1612   4.269   0.447   4.234  0.3176 -0.0624 -0.8072
   71DG      H3 1613   4.620   1.032   3.888 -1.8959  0.8976 -2.8987
   71DG      H4 1614   4.493   1.039   4.008 -1.0769 -0.4533 -0.4042
   71DG      H5 1615   4.468   0.975   3.841 -0.9890  0.2481  0.5639
   71DG      H6 1616   4.220   0.415   4.142  0.5661 -0.8668 -0.6717
   71DG      H7 1617   4.288   0.364   4.303 -0.3554  0.9717  0.6647
   71DG      H8 1618   4.204   0.519   4.283  0.4958  1.7814 -3.1487
   71DG      O9 1619   4.570   0.849   3.976  0.3508 -0.1534 -0.3223
   71DG     O10 1620   4.384   0.507   4.195  0.0859  0.0543 -0.2160
   71DG     C11 1621   4.649   0.777   3.888 -0.0829  0.1705 -0.1308
   71DG     C12 1622   4.475   0.411   4.138  0.4561 -0.5748 -0.4863
   71DG     H13 1623   4.740   0.827   3.855 -0.1020 -0.7066 -1.5744
   71DG     H14 1624   4.593   0.743   3.801  1.7366 -0.6580 -1.0231
   71DG     H15 1625   4.426   0.386   4.044 -0.2647 -0.6367 -0.1022
   71DG     H16 1626   4.485   0.324   4.204  0.1984 -2.0401 -2.2743
   71DG     C17 1627   4.700   0.650   3.958 -0.3513  0.0265 -0.0395
   71DG     C18 1628   4.606   0.474   4.095  0.5301  0.4821 -0.5455
   71DG     O19 1629   4.583   0.573   4.004  0.1850 -0.0883  0.0490
   71DG     H20 1630   4.779   0.672   4.029  1.6613 -1.1966 -1.7794
   71DG     H21 1631   4.758   0.598   3.882  0.1627 -0.6429  0.8011
   71DG     H22 1632   4.662   0.518   4.177  0.6781 -2.1696  0.8799
   71DG     H23 1633   4.675   0.399   4.055 -0.3900 -0.3675 -0.5942
   72DG      C1 1634   4.574   2.151   0.397  0.2193 -0.1416  1.2368
   72DG      C2 1635   4.946   2.445  -0.104  0.0954  0.1845 -0.8388
   72DG      H3 1636   4.513   2.241   0.403 -0.0554 -0.1111 -1.1454
   72DG      H4 1637   4.672   2.161   0.445  1.6436 -1.8555 -1.1096
   72DG      H5 1638   4.512   2.068   0.430 -0.4764 -0.1074  0.0613
   72DG      H6 1639   5.055   2.450  -0.102  0.0667  0.7713 -0.4476
   72DG      H7 1640   4.899   2.454  -0.202  0.7694  1.9959 -1.0387
   72DG      H8 1641   4.902   2.530  -0.052 -0.4613 -0.6612  0.0973
   72DG      O9 1642   4.599   2.135   0.258  0.4579 -0.1421  0.0907
   72DG     O10 1643   4.902   2.328  -0.039  0.3548 -0.5474  0.0886
   72DG     C11 1644   4.687   2.024   0.227 -0.6123 -0.3255  0.5971
   72DG     C12 1645   4.949   2.210  -0.094 -0.4849 -0.2208 -0.1048
   72DG     H13 1646   4.642   1.935   0.269 -1.2677  0.6481  2.0294
   72DG     H14 1647   4.784   2.043   0.273  1.6348 -1.5803 -3.1699
   72DG     H15 1648   5.038   2.170  -0.045  0.2156  0.2404 -0.9715
   72DG     H16 1649   4.972   2.222  -0.200 -0.2773  2.2674  0.1542
   72DG     C17 1650   4.701   2.012   0.078  0.2596 -0.8137  0.7561
   72DG     C18 1651   4.842   2.102  -0.084 -0.2609  0.1698 -0.7416
   72DG     O19 1652   4.790   2.117   0.046  0.3673  0.1679  0.1231
   72DG     H20 1653   4.616   2.008   0.010  1.5787  0.5330 -1.0978
   72DG     H21 1654   4.747   1.916   0.054  0.8947 -0.3434  0.0659
   72DG     H22 1655   4.760   2.118  -0.153 -0.5734  1.4250 -0.1175
   72DG     H23 1656   4.892   2.006  -0.099  0.7302  0.7460 -1.2710
   73DG      C1 1657   0.825   2.772   4.635 -0.6694 -0.1841  1.1026
   73DG      C2 1658   0.815   3.413   4.335  0.2686  0.1360  0.2512
   73DG      H3 1659   0.891   2.834   4.696 -0.6550  0.7979  0.1298
   73DG      H4 1660   0.885   2.699   4.580 -1.3204  0.9960 -1.2799
   73DG      H5 1661   0.768   2.712   4.705  0.9896 -1.0369  1.7792
   73DG      H6 1662   0.908   3.413   4.277  0.3626  0.0420  0.4034
   73DG      H7 1663   0.741   3.475   4.284  0.7728 -0.8163 -1.7569
   73DG      H8 1664   0.835   3.468   4.426 -1.0817  0.6443  0.2604
   73DG      O9 1665   0.753   2.857   4.554  0.7695 -0.7233  0.2317
   73DG     O10 1666   0.758   3.285   4.353 -0.2278  0.2219 -0.0892
   73DG     C11 1667   0.675   2.800   4.447  0.2158  0.1935 -0.4794
   73DG     C12 1668   0.733   3.228   4.228 -0.2256  0.3650 -0.0281
   73DG     H13 1669   0.595   2.736   4.484  0.3404  0.6243  0.5744
   73DG     H14 1670   0.734   2.727   4.391  0.6022 -0.5865  0.9006
   73DG     H15 1671   0.828   3.192   4.188  0.6540  1.3729  1.0623
   73DG     H16 1672   0.701   3.302   4.154 -2.3309 -0.4532  0.0133
   73DG     C17 1673   0.610   2.906   4.368  1.0178  0.1716 -0.1844
   73DG     C18 1674   0.638   3.109   4.242  0.4041 -0.2584 -0.2855
   73DG     O19 1675   0.690   3.013   4.333  0.1356  0.3112  0.3199
   73DG     H20 1676   0.523   2.938   4.425 -1.2272 -2.0548 -2.1546
   73DG     H21 1677   0.577   2.861   4.275  0.2908  1.3319 -0.5138
   73DG     H22 1678   0.548   3.143   4.295  0.5763 -0.2064 -0.0225
   73DG     H23 1679   0.613   3.061   4.148  1.1487  0.1102 -0.6801
   74DG      C1 1680   1.274   4.209   3.438  0.1470  0.1316  0.5513
   74DG      C2 1681   0.850   4.685   3.443 -0.8083  0.1371  0.3552
   74DG      H3 1682   1.327   4.287   3.383 -1.3730  2.2797  1.9776
   74DG      H4 1683   1.235   4.129   3.376  0.4716 -0.8182  1.5507
   74DG      H5 1684   1.349   4.175   3.509  0.3108 -1.4181 -0.3308
   74DG      H6 1685   0.886   4.757   3.517 -0.0087  0.2956 -0.1806
   74DG      H7 1686   0.905   4.698   3.350  3.1030 -2.8872  1.9811
   74DG      H8 1687   0.746   4.713   3.422 -0.0903  1.7003 -1.4300
   74DG      O9 1688   1.157   4.265   3.496 -0.1985 -0.3889  0.6618
   74DG     O10 1689   0.868   4.552   3.489 -0.2751 -0.7072  0.1175
   74DG     C11 1690   1.085   4.171   3.574  0.4739  0.8783  0.0878
   74DG     C12 1691   0.766   4.517   3.580  0.8412 -0.5720 -0.3549
   74DG     H13 1692   1.157   4.110   3.629  1.2100  0.5620 -1.1967
   74DG     H14 1693   1.030   4.096   3.518  2.6695 -0.4165 -0.4239
   74DG     H15 1694   0.688   4.472   3.519 -2.5561  0.6109  2.7113
   74DG     H16 1695   0.722   4.603   3.631  2.3109  0.3555 -0.5830
   74DG     C17 1696   0.981   4.234   3.663 -0.1443 -0.5782  0.1579
   74DG     C18 1697   0.814   4.401   3.660 -0.0828  0.4102  0.2370
   74DG     O19 1698   0.895   4.316   3.586  0.4482  0.5479  0.0695
   74DG     H20 1699   1.032   4.285   3.744  0.6270  0.0208 -0.6810
   74DG     H21 1700   0.930   4.149   3.708 -0.5390 -0.8470 -0.7636
   74DG     H22 1701   0.870   4.452   3.739  0.0857  0.7030 -0.0656
   74DG     H23 1702   0.731   4.349   3.707  2.5477 -3.0644  1.4874
   75DG      C1 1703   1.954   1.216   5.382  0.3722  0.6272 -0.3882
   75DG      C2 1704   2.300   1.702   5.137  0.1129  0.2430  0.2520
   75DG      H3 1705   1.954   1.172   5.282  1.9052  1.6408 -0.8599
   75DG      H4 1706   1.852   1.214   5.422  0.9093 -0.0668  1.0423
   75DG      H5 1707   2.012   1.148   5.445 -0.2623 -0.3589 -0.8357
   75DG      H6 1708   2.347   1.708   5.236  1.2060  1.2775 -0.3072
   75DG      H7 1709   2.366   1.645   5.071 -2.0585 -1.3098 -0.7154
   75DG      H8 1710   2.301   1.797   5.084  2.3498  0.1211 -0.0047
   75DG      O9 1711   1.986   1.351   5.393 -0.0007 -0.0497 -0.3963
   75DG     O10 1712   2.169   1.648   5.142 -0.0998  0.2175  0.0437
   75DG     C11 1713   2.016   1.406   5.519 -0.0113 -0.1536 -0.3995
   75DG     C12 1714   2.080   1.746   5.198 -0.3112  0.3736  0.3000
   75DG     H13 1715   2.109   1.357   5.551  1.2178  0.3083 -3.0088
   75DG     H14 1716   1.946   1.385   5.600  0.2789 -2.3883 -0.6673
   75DG     H15 1717   1.981   1.720   5.161 -0.2337 -0.7938  0.8816
   75DG     H16 1718   2.097   1.849   5.165  0.6846 -0.0830 -0.6990
   75DG     C17 1719   2.065   1.551   5.511 -0.8125 -0.1052 -0.3092
   75DG     C18 1720   2.088   1.725   5.351  0.1988  0.1827 -0.6639
   75DG     O19 1721   2.065   1.590   5.375  0.0848 -0.0352  0.0124
   75DG     H20 1722   2.164   1.567   5.553  0.0525  0.4815 -2.4294
   75DG     H21 1723   1.991   1.609   5.567  0.9380  2.4317 -0.4182
   75DG     H22 1724   2.182   1.759   5.394 -0.1496  0.9645 -0.5031
   75DG     H23 1725   2.012   1.785   5.401  1.2953  2.7650 -1.9126
   76DG      C1 1726   4.018   2.570   3.672 -0.1235 -0.5566  0.0419
   76DG      C2 1727   3.579   2.921   3.273 -0.3647 -0.1358  0.8311
   76DG      H3 1728   4.054   2.597   3.772  2.0710 -1.7543 -0.3455
   76DG      H4 1729   4.102   2.591   3.606  1.3964 -1.1311  1.6917
   76DG      H5 1730   4.007   2.461   3.674 -3.2460 -0.3239  0.5198
   76DG      H6 1731   3.493   2.941   3.210 -0.1809 -0.3822  0.4951
   76DG      H7 1732   3.610   3.019   3.308 -1.9151  0.5610  0.3469
   76DG      H8 1733   3.651   2.879   3.202  0.5461  3.1129 -0.3651
   76DG      O9 1734   3.884   2.606   3.652  0.4734 -0.0129  0.7665
   76DG     O10 1735   3.565   2.832   3.379  0.2847 -0.1522  0.0512
   76DG     C11 1736   3.785   2.544   3.739 -0.1280 -0.3994  0.6396
   76DG     C12 1737   3.530   2.696   3.351 -0.0349 -0.6601 -0.9328
   76DG     H13 1738   3.765   2.616   3.818  0.7697  1.3504 -0.6839
   76DG     H14 1739   3.817   2.445   3.774 -0.2019 -0.8334 -0.4957
   76DG     H15 1740   3.598   2.648   3.281 -1.1218 -3.1137 -0.4208
   76DG     H16 1741   3.435   2.680   3.300  0.2017 -2.2197 -0.9421
   76DG     C17 1742   3.662   2.511   3.645  0.2176  0.4799  0.2912
   76DG     C18 1743   3.516   2.613   3.480  0.5540 -0.2163  0.2918
   76DG     O19 1744   3.651   2.596   3.526 -0.3886  0.3670  0.4419
   76DG     H20 1745   3.569   2.494   3.700 -0.8010  0.4374 -1.3657
   76DG     H21 1746   3.677   2.411   3.604  0.4408 -0.5463  2.6893
   76DG     H22 1747   3.459   2.669   3.554 -0.4226  0.1758 -0.7306
   76DG     H23 1748   3.471   2.516   3.459  2.0394 -1.3070  1.9063
   77DG      C1 1749   4.531   0.276   0.805 -0.7818  0.3360  0.4740
   77DG      C2 1750   3.805   0.786   0.801  0.0774  0.6357 -0.2458
   77DG      H3 1751   4.613   0.344   0.829 -0.7224  0.9857 -1.4289
   77DG      H4 1752   4.559   0.218   0.717 -0.5112  0.0954  0.7174
   77DG      H5 1753   4.525   0.207   0.889  0.4385 -0.1788  0.1664
   77DG      H6 1754   3.861   0.866   0.849  0.4764 -1.0799  2.3059
   77DG      H7 1755   3.709   0.811   0.755 -0.0893 -0.4980 -0.5613
   77DG      H8 1756   3.785   0.707   0.873  0.0817  1.5369  0.7675
   77DG      O9 1757   4.406   0.333   0.778 -0.0236 -0.1024 -0.4149
   77DG     O10 1758   3.891   0.728   0.697  0.1218 -0.3897  0.1878
   77DG     C11 1759   4.422   0.416   0.662  0.5406  0.0065 -0.6474
   77DG     C12 1760   4.012   0.676   0.752 -0.0834  0.1194  0.4947
   77DG     H13 1761   4.479   0.387   0.574 -1.6534 -0.7572 -1.8936
   77DG     H14 1762   4.488   0.492   0.703 -0.0630  0.3772 -0.3414
   77DG     H15 1763   3.985   0.583   0.803  0.2690  0.1713  0.7781
   77DG     H16 1764   4.070   0.728   0.828  1.0327  0.7973 -0.7605
   77DG     C17 1765   4.284   0.469   0.609  0.1317 -0.3087  0.2853
   77DG     C18 1766   4.117   0.640   0.649 -0.3705 -0.3626  0.5704
   77DG     O19 1767   4.210   0.548   0.702  0.4531 -0.1961  0.2516
   77DG     H20 1768   4.216   0.394   0.569 -1.5392  0.7840  0.9547
   77DG     H21 1769   4.310   0.519   0.516  1.2888 -1.7258 -0.1953
   77DG     H22 1770   4.064   0.583   0.573  0.0519 -1.1210  0.8339
   77DG     H23 1771   4.169   0.726   0.607  3.6817 -1.2628  3.1783
   78DG      C1 1772   1.180   1.851   1.487 -0.3794 -0.0146 -0.1403
   78DG      C2 1773   1.478   1.305   1.742 -0.1649 -0.2069 -0.1490
   78DG      H3 1774   1.129   1.898   1.572  0.0160  2.1013 -1.0065
   78DG      H4 1775   1.092   1.824   1.428 -0.7928  1.2681 -0.1563
   78DG      H5 1776   1.218   1.936   1.430  0.6505  1.4254  2.5000
   78DG      H6 1777   1.570   1.279   1.794 -1.7300 -0.8309  2.4929
   78DG      H7 1778   1.419   1.215   1.725  1.2602 -1.6345  1.9493
   78DG      H8 1779   1.494   1.357   1.647 -1.9176 -1.4550 -1.1908
   78DG      O9 1780   1.275   1.757   1.508  0.3783  0.8785 -0.0307
   78DG     O10 1781   1.393   1.381   1.824  0.0785  0.2622  0.0329
   78DG     C11 1782   1.304   1.666   1.404 -0.1540 -0.0181 -0.1945
   78DG     C12 1783   1.269   1.406   1.776  0.3807 -0.1956 -0.1712
   78DG     H13 1784   1.361   1.718   1.328  0.4095 -0.3434 -0.0081
   78DG     H14 1785   1.211   1.625   1.366  0.1435 -1.3278  0.4142
   78DG     H15 1786   1.217   1.440   1.866  2.4422  0.9161  0.6791
   78DG     H16 1787   1.220   1.317   1.737 -0.2799  0.7937 -1.6853
   78DG     C17 1788   1.388   1.549   1.462  0.1442 -0.1327 -0.1604
   78DG     C18 1789   1.269   1.518   1.671 -0.1141  0.1153  0.1973
   78DG     O19 1790   1.301   1.473   1.547  0.0269 -0.1793 -0.2416
   78DG     H20 1791   1.470   1.587   1.522  0.2534 -1.6321  0.6970
   78DG     H21 1792   1.421   1.483   1.381  2.3898 -0.9504  1.3024
   78DG     H22 1793   1.167   1.553   1.665 -0.8795 -1.7481  1.4546
   78DG     H23 1794   1.329   1.600   1.710 -0.8986  1.2998 -1.0037
   79DG      C1 1795   4.265   2.085   3.453 -0.6360  0.0439  0.0503
   79DG      C2 1796   4.613   1.579   3.704  0.7241  0.2097 -1.0902
   79DG      H3 1797   4.359   2.106   3.402 -0.4992 -1.1451 -0.2197
   79DG      H4 1798   4.233   2.188   3.471  2.2454  0.9486  0.6263
   79DG      H5 1799   4.203   2.039   3.376  0.9119  0.5910 -1.5972
   79DG      H6 1800   4.660   1.625   3.617  1.5351 -0.7447 -1.1723
   79DG      H7 1801   4.687   1.561   3.781  0.5160  0.8229 -0.7393
   79DG      H8 1802   4.572   1.481   3.679 -1.4191  0.8929 -0.4963
   79DG      O9 1803   4.285   2.005   3.571  0.7149 -0.0023  0.0580
   79DG     O10 1804   4.520   1.677   3.748  0.8700 -0.7674 -0.2162
   79DG     C11 1805   4.158   1.993   3.649 -0.3544  0.4855 -0.1327
   79DG     C12 1806   4.418   1.617   3.828 -0.0267  0.0111  0.2544
   79DG     H13 1807   4.085   1.936   3.591  1.9291 -0.8709 -1.8498
   79DG     H14 1808   4.119   2.091   3.676 -3.1999 -1.3248  3.0441
   79DG     H15 1809   4.456   1.573   3.921  0.7784 -2.3562 -1.1267
   79DG     H16 1810   4.368   1.533   3.782  0.0893  0.7197 -1.2109
   79DG     C17 1811   4.192   1.908   3.777  0.6329  0.5401  0.2298
   79DG     C18 1812   4.314   1.728   3.862 -0.2748 -0.2081 -0.2839
   79DG     O19 1813   4.292   1.809   3.747  0.0352 -0.0049 -0.1187
   79DG     H20 1814   4.101   1.873   3.826  1.7505  1.7781  3.4899
   79DG     H21 1815   4.234   1.971   3.856 -0.4047  0.5455  0.8064
   79DG     H22 1816   4.219   1.686   3.896 -1.4759  0.5752 -2.4868
   79DG     H23 1817   4.349   1.785   3.948 -1.4782  0.6379 -0.3158
   80DG      C1 1818   4.821   2.660   1.762  0.5759  0.2694  0.1495
   80DG      C2 1819   4.768   3.373   1.691  0.0106  0.9548 -0.6611
   80DG      H3 1820   4.921   2.641   1.722 -0.7385 -0.4436 -3.1552
   80DG      H4 1821   4.754   2.691   1.681 -0.2965  0.6574  1.0032
   80DG      H5 1822   4.775   2.566   1.792  1.0311 -0.9052 -2.5192
   80DG      H6 1823   4.849   3.432   1.733  0.1406 -0.4713  1.2454
   80DG      H7 1824   4.782   3.357   1.584 -1.2341 -0.4363 -0.6598
   80DG      H8 1825   4.666   3.412   1.698  1.1177  3.8341  1.3650
   80DG      O9 1826   4.830   2.746   1.876 -0.3366  0.1741 -0.1666
   80DG     O10 1827   4.778   3.243   1.751  0.3939 -0.7643 -0.1267
   80DG     C11 1828   4.703   2.782   1.936  0.0887  0.5021  0.0654
   80DG     C12 1829   4.894   3.161   1.754 -0.3448 -0.0815 -0.0970
   80DG     H13 1830   4.683   2.704   2.009  0.1639 -0.3208 -0.7828
   80DG     H14 1831   4.624   2.779   1.860 -0.6151  1.2460  0.7423
   80DG     H15 1832   4.985   3.220   1.764 -1.1107  0.9950  0.8124
   80DG     H16 1833   4.903   3.106   1.660  1.2634 -0.5949  0.3301
   80DG     C17 1834   4.723   2.918   1.979  0.0496 -0.1967 -0.0724
   80DG     C18 1835   4.883   3.067   1.875 -0.0731  0.8016 -0.3586
   80DG     O19 1836   4.764   2.994   1.865 -0.2548 -0.1773  0.4097
   80DG     H20 1837   4.791   2.929   2.063 -0.9719 -3.9020  1.4681
   80DG     H21 1838   4.630   2.961   2.017 -1.3645 -2.0452 -1.2384
   80DG     H22 1839   4.976   3.012   1.882 -1.0018 -0.6291  4.3561
   80DG     H23 1840   4.873   3.127   1.966 -2.8791 -0.1794  0.0990
   81DG      C1 1841   2.211   3.887   5.212  0.2579 -0.3480  0.2019
   81DG      C2 1842   2.680   3.843   5.357  0.1200 -0.0453 -0.3142
   81DG      H3 1843   2.270   3.952   5.147 -0.2209 -0.6260 -0.5255
   81DG      H4 1844   2.118   3.939   5.233  0.3232 -0.1703  0.0514
   81DG      H5 1845   2.182   3.799   5.154 -2.4704 -0.5823  1.7646
   81DG      H6 1846   2.771   3.782   5.357  0.5499  0.5505  1.4041
   81DG      H7 1847   2.595   3.779   5.331 -0.9569  1.3384 -0.3068
   81DG      H8 1848   2.711   3.916   5.282  0.1496  0.8972  0.5926
   81DG      O9 1849   2.299   3.856   5.323 -0.4294 -0.5558  0.3147
   81DG     O10 1850   2.651   3.915   5.475 -0.0791 -0.1314  0.4243
   81DG     C11 1851   2.229   3.784   5.426 -0.1269  0.1923 -0.1890
   81DG     C12 1852   2.648   3.833   5.591 -0.2065 -0.1948 -0.1754
   81DG     H13 1853   2.155   3.715   5.384 -0.0929  0.9214 -1.5258
   81DG     H14 1854   2.176   3.856   5.489  0.1606  0.0091  0.2611
   81DG     H15 1855   2.653   3.886   5.686 -1.6252  0.0460 -0.2105
   81DG     H16 1856   2.742   3.778   5.589 -0.8450 -1.2984 -0.6906
   81DG     C17 1857   2.330   3.700   5.506  0.6347  0.0354  0.1371
   81DG     C18 1858   2.539   3.727   5.596  0.1425 -0.5219  0.5335
   81DG     O19 1859   2.414   3.797   5.566  0.4668  0.7185 -0.0774
   81DG     H20 1860   2.382   3.643   5.429 -2.0521  0.3414 -2.0713
   81DG     H21 1861   2.280   3.630   5.573 -1.0531 -0.8081 -1.9122
   81DG     H22 1862   2.576   3.657   5.521 -1.9302 -0.1756 -0.9193
   81DG     H23 1863   2.530   3.669   5.687 -0.2378 -3.7363 -1.4071
   82DG      C1 1864   4.793   4.208   1.899  0.9133 -0.5033  0.6368
   82DG      C2 1865   4.142   4.266   1.723 -0.2501  0.1753 -0.3781
   82DG      H3 1866   4.796   4.317   1.896 -1.2784 -0.4068  0.7444
   82DG      H4 1867   4.893   4.172   1.875  0.9208 -0.2882  0.3363
   82DG      H5 1868   4.778   4.171   2.000  1.8405 -0.2254  0.8838
   82DG      H6 1869   4.151   4.330   1.810 -2.1135  2.7422 -1.9168
   82DG      H7 1870   4.109   4.340   1.650  1.7876  1.7921  0.2655
   82DG      H8 1871   4.059   4.197   1.738  0.2858 -0.4545 -0.2803
   82DG      O9 1872   4.693   4.150   1.813  0.0259  0.0923  0.7964
   82DG     O10 1873   4.263   4.202   1.687 -0.3658  0.0141 -0.0887
   82DG     C11 1874   4.726   4.157   1.671 -0.7720 -0.3776  0.0403
   82DG     C12 1875   4.269   4.166   1.554  0.2433 -0.6123  0.1548
   82DG     H13 1876   4.827   4.120   1.651 -0.0641  1.4655 -0.0054
   82DG     H14 1877   4.725   4.259   1.633 -1.1930 -0.3277  0.1837
   82DG     H15 1878   4.276   4.255   1.492 -1.4642 -1.1805 -0.8997
   82DG     H16 1879   4.180   4.110   1.525 -0.4290  1.5776 -2.3405
   82DG     C17 1880   4.628   4.064   1.599 -0.3308 -0.2443 -0.5317
   82DG     C18 1881   4.393   4.078   1.545  0.5571  0.2233 -0.1690
   82DG     O19 1882   4.511   4.146   1.580  0.6269 -0.5470  0.0363
   82DG     H20 1883   4.603   3.976   1.658  0.9243 -0.9901 -1.0719
   82DG     H21 1884   4.668   4.028   1.504 -1.5810  1.1974 -1.6584
   82DG     H22 1885   4.370   3.995   1.611  3.9445  0.0696  1.0156
   82DG     H23 1886   4.388   4.045   1.441 -1.1294  0.4494 -0.1840
   83DG      C1 1887   3.771   4.493   3.058 -1.0464  0.3173 -0.5141
   83DG      C2 1888   3.138   4.405   3.048  0.0100  0.1850  0.0190
   83DG      H3 1889   3.776   4.417   3.136 -2.0184  1.6480  0.8962
   83DG      H4 1890   3.735   4.587   3.100  1.1028  0.6105  0.8391
   83DG      H5 1891   3.878   4.505   3.042 -0.9300 -0.9623 -0.8394
   83DG      H6 1892   3.064   4.398   2.969  0.2635  0.5482 -0.2540
   83DG      H7 1893   3.151   4.305   3.089  0.1457  0.8201  1.6190
   83DG      H8 1894   3.103   4.470   3.129  0.4207  0.3189  0.0914
   83DG      O9 1895   3.699   4.450   2.935 -0.5201  0.4164 -0.2478
   83DG     O10 1896   3.253   4.473   3.006 -0.6634  0.4904 -0.3114
   83DG     C11 1897   3.695   4.535   2.827  0.3433  0.4827  1.4676
   83DG     C12 1898   3.230   4.584   2.921  0.3019  0.2523 -0.1207
   83DG     H13 1899   3.671   4.474   2.740 -0.6805  0.3518  1.8284
   83DG     H14 1900   3.793   4.581   2.811  0.1783  1.2766  2.6499
   83DG     H15 1901   3.154   4.650   2.961  0.2984  0.3984 -0.3707
   83DG     H16 1902   3.186   4.552   2.826 -0.4315  0.1051  0.2636
   83DG     C17 1903   3.590   4.643   2.840  0.2735 -0.0919 -0.1206
   83DG     C18 1904   3.365   4.661   2.897 -0.2777  0.1322  0.1329
   83DG     O19 1905   3.475   4.574   2.869  0.5479 -0.5818  0.0274
   83DG     H20 1906   3.585   4.691   2.742  0.4167  1.7572  0.7277
   83DG     H21 1907   3.614   4.714   2.920  0.1060  0.7033 -0.7601
   83DG     H22 1908   3.350   4.745   2.830  0.6893  0.4703  0.3235
   83DG     H23 1909   3.388   4.724   2.983  2.1399 -0.9168  0.3473
   84DG      C1 1910   4.254   2.970   4.937 -0.3662 -0.3985  0.8537
   84DG      C2 1911   3.912   3.428   4.876  0.1619  0.2265  0.3483
   84DG      H3 1912   4.177   2.947   4.863  1.6953 -1.1071 -1.1923
   84DG      H4 1913   4.224   2.931   5.034  0.0682  2.3612  2.1908
   84DG      H5 1914   4.341   2.916   4.900 -0.2789  1.9398 -2.9234
   84DG      H6 1915   3.903   3.537   4.879  1.2723  0.4494 -2.1839
   84DG      H7 1916   3.859   3.402   4.785 -0.0048  0.1376  0.4695
   84DG      H8 1917   3.870   3.385   4.967  2.1488  0.2874  1.3406
   84DG      O9 1918   4.276   3.110   4.954 -0.1594 -0.3260  0.4361
   84DG     O10 1919   4.035   3.374   4.873 -0.2468 -0.7137  0.2464
   84DG     C11 1920   4.401   3.145   4.894 -0.1127  0.0334  0.1496
   84DG     C12 1921   4.116   3.430   4.764  0.5249 -0.1164  0.4628
   84DG     H13 1922   4.407   3.117   4.789 -1.4820 -0.2867  0.1368
   84DG     H14 1923   4.489   3.096   4.935  1.3351  2.6195  0.3348
   84DG     H15 1924   4.131   3.534   4.795 -1.8319 -0.1533  1.9671
   84DG     H16 1925   4.071   3.419   4.665  1.6226 -0.3621 -0.0274
   84DG     C17 1926   4.425   3.290   4.904 -0.1848 -0.2204  0.7569
   84DG     C18 1927   4.251   3.366   4.765 -0.0699 -0.0509 -0.2737
   84DG     O19 1928   4.301   3.355   4.898 -0.0424 -0.4652 -0.2419
   84DG     H20 1929   4.498   3.305   4.825  0.0824  0.1305  1.0676
   84DG     H21 1930   4.474   3.320   4.997 -1.0443  2.5150  0.4192
   84DG     H22 1931   4.242   3.271   4.711  2.0735 -0.1680 -0.5040
   84DG     H23 1932   4.313   3.429   4.701 -0.1604  1.2809  0.9063
   85DG      C1 1933   2.309   3.167   0.727  0.2331 -0.3098 -0.1271
   85DG      C2 1934   2.370   2.596   0.405 -0.7361  0.4368  0.1829
   85DG      H3 1935   2.205   3.135   0.726  0.8108 -2.5366 -3.2273
   85DG      H4 1936   2.316   3.276   0.737  1.1013 -0.5134  1.9899
   85DG      H5 1937   2.340   3.125   0.823 -1.1959  1.5691  1.2444
   85DG      H6 1938   2.423   2.540   0.482  0.3447 -0.6824 -1.3174
   85DG      H7 1939   2.262   2.597   0.420 -0.5426 -1.1535  2.0556
   85DG      H8 1940   2.389   2.571   0.300  1.1650 -0.6515  0.7392
   85DG      O9 1941   2.381   3.120   0.618  0.0157  0.3591  0.1936
   85DG     O10 1942   2.413   2.733   0.396  0.0820 -0.8819 -0.3471
   85DG     C11 1943   2.518   3.165   0.604 -0.3497  0.0775  0.0795
   85DG     C12 1944   2.544   2.762   0.359 -0.2364  0.3580 -0.2024
   85DG     H13 1945   2.563   3.123   0.694 -1.9438 -0.2100  0.7828
   85DG     H14 1946   2.522   3.273   0.601 -0.4961  0.1449  1.5058
   85DG     H15 1947   2.566   2.686   0.284 -2.4713 -2.0340  1.4257
   85DG     H16 1948   2.609   2.739   0.443 -1.2460  3.0535  1.4339
   85DG     C17 1949   2.569   3.104   0.472 -0.2986  0.1695 -0.0941
   85DG     C18 1950   2.567   2.910   0.335 -0.3929  0.2165 -0.0560
   85DG     O19 1951   2.527   2.970   0.455  0.3582  0.2411 -0.0394
   85DG     H20 1952   2.678   3.100   0.480  0.0284 -0.8211 -3.4678
   85DG     H21 1953   2.534   3.156   0.383 -1.4525  1.5586  1.1335
   85DG     H22 1954   2.669   2.929   0.303 -1.3080 -1.5265 -4.7425
   85DG     H23 1955   2.509   2.940   0.247 -0.5317 -0.2830 -0.1361
   86DG      C1 1956   5.378   3.124   5.369 -0.1840  0.3099  0.1292
   86DG      C2 1957   4.920   3.000   5.896 -0.2033  0.0266 -0.1998
   86DG      H3 1958   5.369   3.221   5.320 -0.8624  1.1026  1.7474
   86DG      H4 1959   5.436   3.062   5.301 -0.2198  0.2003  0.1975
   86DG      H5 1960   5.441   3.141   5.456 -1.7999 -0.7086  1.5697
   86DG      H6 1961   4.882   2.912   5.948  0.4276 -0.8971 -1.2404
   86DG      H7 1962   5.003   3.041   5.952  0.3698 -0.9302 -0.3207
   86DG      H8 1963   4.842   3.076   5.905 -0.0497  0.0388  1.0886
   86DG      O9 1964   5.260   3.052   5.421 -0.2001  0.1325  0.1232
   86DG     O10 1965   4.962   2.991   5.758 -0.3827  0.4476  0.2158
   86DG     C11 1966   5.150   3.066   5.333  0.2374 -0.6285  0.4674
   86DG     C12 1967   4.847   2.944   5.679 -0.2240 -0.0790  0.2538
   86DG     H13 1968   5.183   3.074   5.230  2.0085 -1.0756  0.9685
   86DG     H14 1969   5.123   3.169   5.356 -1.4453 -1.3303  1.9492
   86DG     H15 1970   4.766   3.017   5.676  0.5203  0.7347 -0.6358
   86DG     H16 1971   4.805   2.850   5.713  1.3188 -1.1517 -0.7000
   86DG     C17 1972   5.032   2.990   5.367 -0.0287 -0.1550 -0.0391
   86DG     C18 1973   4.881   2.916   5.530 -1.0150  0.1374  0.5665
   86DG     O19 1974   4.999   2.995   5.504  0.1037  0.3464 -0.3357
   86DG     H20 1975   5.018   2.889   5.328  3.0878 -0.9379  0.5905
   86DG     H21 1976   4.954   3.044   5.313  1.3480  4.0001  1.7480
   86DG     H22 1977   4.899   2.812   5.506  0.2822  0.1242  1.5251
   86DG     H23 1978   4.808   2.953   5.458  2.0145  1.0401 -2.2447
   87DG      C1 1979   2.367   2.264   2.520  0.1420  0.1727  0.6335
   87DG      C2 1980   1.961   2.525   2.173 -0.0139 -0.1589 -0.5794
   87DG      H3 1981   2.305   2.180   2.488  1.1420 -0.1546 -0.4595
   87DG      H4 1982   2.313   2.300   2.608 -0.5834  1.4787 -0.3065
   87DG      H5 1983   2.458   2.223   2.563  1.0241  1.2064 -0.2144
   87DG      H6 1984   1.965   2.462   2.084 -0.9389  1.4085 -1.7574
   87DG      H7 1985   1.935   2.462   2.258  3.3355 -1.7591 -0.5485
   87DG      H8 1986   1.887   2.603   2.159  0.7834  1.1818  1.9648
   87DG      O9 1987   2.391   2.355   2.416  0.1053  0.1808 -0.6832
   87DG     O10 1988   2.084   2.589   2.186 -0.0860  0.3518  0.4058
   87DG     C11 1989   2.443   2.483   2.454 -0.4117  0.3739  0.3443
   87DG     C12 1990   2.085   2.700   2.269  0.3968  0.2316  0.5938
   87DG     H13 1991   2.486   2.526   2.364  2.6639 -0.8903  1.0816
   87DG     H14 1992   2.531   2.485   2.519  1.3437 -1.8987 -1.7744
   87DG     H15 1993   1.996   2.764   2.265 -0.5293 -0.8113  2.7527
   87DG     H16 1994   2.159   2.765   2.222 -1.6967  1.3745 -1.3372
   87DG     C17 1995   2.329   2.564   2.510 -0.1264  0.6723 -0.0548
   87DG     C18 1996   2.137   2.678   2.412 -0.8839 -0.4239  0.0424
   87DG     O19 1997   2.233   2.579   2.408 -0.6714  0.3551  0.0235
   87DG     H20 1998   2.357   2.664   2.544  3.0625 -0.3978  0.7744
   87DG     H21 1999   2.277   2.511   2.589  0.6058 -1.4689 -0.9433
   87DG     H22 2000   2.176   2.772   2.452 -0.1960 -0.9235  0.5781
   87DG     H23 2001   2.053   2.652   2.476 -1.5234  0.0651 -0.5866
   88DG      C1 2002   1.540   2.148   4.361  0.2230 -0.7978 -0.0085
   88DG      C2 2003   0.830   2.208   4.338 -0.8590  0.1192  0.6126
   88DG      H3 2004   1.620   2.074   4.362  1.2979  0.1604 -3.0908
   88DG      H4 2005   1.542   2.210   4.451  2.3833 -0.8717  0.0471
   88DG      H5 2006   1.560   2.213   4.276 -0.6722 -0.4927  0.0065
   88DG      H6 2007   0.747   2.159   4.387 -0.0209 -1.3217  0.6385
   88DG      H7 2008   0.847   2.297   4.398 -1.2189  0.8115 -0.2881
   88DG      H8 2009   0.797   2.240   4.239 -0.7935  1.0816  0.8947
   88DG      O9 2010   1.406   2.090   4.341 -0.0421  0.4050 -0.3954
   88DG     O10 2011   0.941   2.128   4.344 -0.3863 -0.3611  0.2496
   88DG     C11 2012   1.406   1.990   4.246 -0.3724  0.3749 -0.1733
   88DG     C12 2013   0.936   2.003   4.273 -0.2126  0.5894 -0.6757
   88DG     H13 2014   1.491   1.923   4.236 -0.3269  0.4898 -0.6048
   88DG     H14 2015   1.392   2.038   4.149 -2.9279  0.6579  0.2723
   88DG     H15 2016   0.923   2.006   4.164  0.8806 -3.4253 -1.0885
   88DG     H16 2017   0.853   1.950   4.319 -1.1734  2.5268 -0.0610
   88DG     C17 2018   1.285   1.906   4.277  0.5970 -0.0365  0.0086
   88DG     C18 2019   1.047   1.912   4.299  0.6715 -0.1290  0.1148
   88DG     O19 2020   1.168   1.980   4.277 -0.5646  0.5725  0.3010
   88DG     H20 2021   1.301   1.858   4.374  0.8695  1.3568  0.6842
   88DG     H21 2022   1.279   1.826   4.204  0.8182  1.3794 -1.6250
   88DG     H22 2023   1.050   1.871   4.400  3.8872  0.8272  0.5190
   88DG     H23 2024   1.044   1.830   4.228  1.4392 -0.1523  0.0932
   89DG      C1 2025   0.489   1.424   2.186 -0.0974  0.0485 -0.0212
   89DG      C2 2026  -0.065   1.742   2.162  0.1666 -0.5588  0.9640
   89DG      H3 2027   0.520   1.454   2.086 -1.2727 -0.1349 -0.4531
   89DG      H4 2028   0.408   1.352   2.173 -0.1476  0.3110 -1.2404
   89DG      H5 2029   0.583   1.382   2.222  0.8691  0.8157 -1.5486
   89DG      H6 2030  -0.114   1.647   2.184 -3.0980  0.6854 -0.3160
   89DG      H7 2031  -0.134   1.826   2.166  0.3635 -0.2401 -1.1536
   89DG      H8 2032  -0.031   1.746   2.059 -1.5456 -1.2689  0.3305
   89DG      O9 2033   0.425   1.534   2.258  0.0982 -0.2529  0.2698
   89DG     O10 2034   0.055   1.759   2.236  0.6696 -0.0281  0.2124
   89DG     C11 2035   0.517   1.641   2.275 -0.7029  0.3412  0.1164
   89DG     C12 2036   0.103   1.889   2.253  1.6256 -0.7740 -0.2200
   89DG     H13 2037   0.565   1.685   2.188 -0.5919  1.5556  0.7566
   89DG     H14 2038   0.604   1.609   2.333 -0.8380 -1.4506 -0.6032
   89DG     H15 2039   0.037   1.944   2.319  0.2180 -1.9975 -0.5680
   89DG     H16 2040   0.098   1.949   2.162 -1.2705  0.3963  0.5983
   89DG     C17 2041   0.436   1.754   2.345 -0.4352  0.1928 -0.4129
   89DG     C18 2042   0.237   1.882   2.322 -0.6727 -0.1760 -0.1250
   89DG     O19 2043   0.315   1.779   2.268 -0.1389  0.2893 -0.5193
   89DG     H20 2044   0.493   1.844   2.368  0.1252 -0.7504  2.2365
   89DG     H21 2045   0.407   1.718   2.443 -1.3288 -0.9444 -1.0687
   89DG     H22 2046   0.292   1.975   2.316 -1.5162  0.2759 -1.3359
   89DG     H23 2047   0.231   1.865   2.429 -0.3260 -0.5226 -0.1553
   90DG      C1 2048   3.612   3.993   0.479 -0.4276 -0.5003  0.1562
   90DG      C2 2049   3.481   3.433   0.036 -0.0912  0.2060  0.1021
   90DG      H3 2050   3.544   4.017   0.560  1.4957  2.2883  1.1022
   90DG      H4 2051   3.644   4.091   0.442 -1.7383 -0.1747 -0.1688
   90DG      H5 2052   3.699   3.940   0.519 -0.4237 -0.7513 -0.1857
   90DG      H6 2053   3.390   3.394   0.082 -0.1093 -0.3088 -0.3625
   90DG      H7 2054   3.460   3.420  -0.070 -0.3332 -0.6551  0.2501
   90DG      H8 2055   3.566   3.376   0.074  1.1657  1.9559  0.0811
   90DG      O9 2056   3.545   3.922   0.379  0.9465  0.6928  0.5427
   90DG     O10 2057   3.512   3.572   0.066  0.4803 -0.3083  0.5239
   90DG     C11 2058   3.442   3.997   0.309 -1.0113  0.1256 -0.3711
   90DG     C12 2059   3.432   3.662  -0.014  0.0228 -0.3672  0.2378
   90DG     H13 2060   3.455   4.103   0.330  0.4958 -0.0027 -0.6098
   90DG     H14 2061   3.340   3.973   0.341 -1.1314 -0.5782 -1.2183
   90DG     H15 2062   3.328   3.642   0.013  0.7750 -2.2142  2.0121
   90DG     H16 2063   3.430   3.623  -0.115 -0.7788 -1.0047  0.4895
   90DG     C17 2064   3.472   3.981   0.160 -0.3707  0.5407 -0.0260
   90DG     C18 2065   3.489   3.805  -0.006 -0.0035  0.2921  0.4624
   90DG     O19 2066   3.485   3.840   0.132  0.6506  0.4930 -0.0272
   90DG     H20 2067   3.576   4.006   0.141  0.3182 -1.2324  1.1630
   90DG     H21 2068   3.404   4.034   0.094 -1.0568 -1.1540 -0.7433
   90DG     H22 2069   3.588   3.825  -0.048 -0.0759 -0.0512  0.1254
   90DG     H23 2070   3.417   3.866  -0.060 -0.8242 -0.0539  1.1515
   91DG      C1 2071   4.284   2.748   4.615 -0.7865  0.1554  0.1385
   91DG      C2 2072   4.181   2.805   3.970  0.2826  0.1679 -0.5788
   91DG      H3 2073   4.288   2.673   4.693  0.6548 -0.2927 -0.3273
   91DG      H4 2074   4.179   2.768   4.596 -0.7816  0.0307 -0.0221
   91DG      H5 2075   4.328   2.843   4.646 -1.4494  0.2397  0.8392
   91DG      H6 2076   4.097   2.735   3.967  0.7273 -0.3395 -1.9392
   91DG      H7 2077   4.158   2.897   4.023 -0.8884 -1.3428  1.7141
   91DG      H8 2078   4.203   2.824   3.865 -3.1566 -0.4679 -1.5700
   91DG      O9 2079   4.338   2.702   4.494 -0.1181 -0.3209  0.6268
   91DG     O10 2080   4.281   2.736   4.037  0.0226  0.4934 -0.2465
   91DG     C11 2081   4.474   2.688   4.497  0.1056 -0.5740 -0.2603
   91DG     C12 2082   4.414   2.800   4.025 -0.8117  0.1145 -0.0453
   91DG     H13 2083   4.500   2.611   4.570  1.1021  0.1129  0.1416
   91DG     H14 2084   4.520   2.779   4.535  0.3596 -0.0518 -1.7654
   91DG     H15 2085   4.411   2.906   4.050  0.3284  0.9625 -3.0532
   91DG     H16 2086   4.451   2.790   3.923 -0.0881  0.8310  0.1350
   91DG     C17 2087   4.516   2.651   4.357  0.3343 -0.0469  0.6851
   91DG     C18 2088   4.515   2.734   4.127  0.4141 -0.1826  0.0070
   91DG     O19 2089   4.460   2.743   4.261 -0.0739  0.3777  0.2348
   91DG     H20 2090   4.488   2.550   4.330 -3.9651  0.7701  1.2735
   91DG     H21 2091   4.625   2.658   4.356  0.4056 -1.0899  0.6046
   91DG     H22 2092   4.533   2.633   4.093  1.1873  0.3686 -1.2863
   91DG     H23 2093   4.609   2.790   4.120 -0.1599  0.8542  0.2853
   92DG      C1 2094   5.460   0.924   3.215  0.9808 -0.0172  0.7305
   92DG      C2 2095   5.134   1.440   2.950 -0.1913 -0.2388 -0.2416
   92DG      H3 2096   5.374   0.861   3.193 -1.6965  3.0906  1.4190
   92DG      H4 2097   5.439   0.969   3.312 -2.0900 -0.8325  0.5397
   92DG      H5 2098   5.551   0.864   3.220  1.2924  0.4177  0.3894
   92DG      H6 2099   5.047   1.389   2.992 -1.2832  1.8218  0.1280
   92DG      H7 2100   5.159   1.529   3.008 -1.2189 -0.0806 -0.0064
   92DG      H8 2101   5.097   1.484   2.857  0.7487  3.6362  1.0356
   92DG      O9 2102   5.468   1.016   3.107 -0.6504  0.0188 -0.2568
   92DG     O10 2103   5.248   1.360   2.931 -0.2348 -0.6552  0.2493
   92DG     C11 2104   5.589   1.089   3.105 -0.2503  0.4494  0.5190
   92DG     C12 2105   5.356   1.440   2.871  0.0678 -0.5218 -0.3677
   92DG     H13 2106   5.677   1.026   3.112 -0.8655 -0.7543 -1.5843
   92DG     H14 2107   5.604   1.141   3.199 -1.9170  2.8186 -0.4073
   92DG     H15 2108   5.368   1.519   2.945 -0.5235  0.3013 -1.1225
   92DG     H16 2109   5.321   1.487   2.779  1.4151  0.4765 -0.4047
   92DG     C17 2110   5.605   1.182   2.986  0.4497  0.1828 -0.1693
   92DG     C18 2111   5.488   1.363   2.869  0.0598 -0.4715  0.1888
   92DG     O19 2112   5.497   1.276   2.987 -0.5070 -0.2158  0.4013
   92DG     H20 2113   5.609   1.121   2.895 -0.7533 -2.8658  1.6864
   92DG     H21 2114   5.694   1.244   2.997 -1.3820  2.6346  1.8312
   92DG     H22 2115   5.497   1.314   2.772 -1.7745 -1.4121  0.4599
   92DG     H23 2116   5.570   1.435   2.872 -0.7938  0.6401 -1.3913
   93DG      C1 2117   4.706   1.471   1.251  0.2957 -0.1594  0.0405
   93DG      C2 2118   5.498   1.420   1.489 -0.0817  0.5079 -0.8086
   93DG      H3 2119   4.767   1.534   1.187  0.0416  2.8466  2.5232
   93DG      H4 2120   4.667   1.536   1.329  0.6798  0.0038  0.0966
   93DG      H5 2121   4.626   1.420   1.196  1.2417 -0.7963 -0.7822
   93DG      H6 2122   5.578   1.346   1.478 -0.1517  0.2882  0.0556
   93DG      H7 2123   5.526   1.490   1.410 -0.4244  1.2145 -0.3126
   93DG      H8 2124   5.501   1.479   1.580 -0.8664  1.2286 -1.2421
   93DG      O9 2125   4.790   1.366   1.306 -0.0069 -0.0515 -0.1818
   93DG     O10 2126   5.373   1.374   1.448 -0.2821 -0.1958  0.4792
   93DG     C11 2127   4.893   1.410   1.383  0.4680 -0.1844 -0.2183
   93DG     C12 2128   5.329   1.266   1.530  0.3503  0.5274  0.8176
   93DG     H13 2129   4.859   1.482   1.457  1.7221 -0.3038  0.4940
   93DG     H14 2130   4.965   1.466   1.322  2.3254  0.2618  2.2274
   93DG     H15 2131   5.329   1.300   1.633 -1.5347  1.2385  0.6235
   93DG     H16 2132   5.395   1.179   1.522 -0.4344  0.0826 -2.7234
   93DG     C17 2133   4.966   1.292   1.447 -0.4860  0.1416  0.3071
   93DG     C18 2134   5.189   1.216   1.490  0.3744  0.0138  0.0015
   93DG     O19 2135   5.102   1.328   1.474 -0.3818 -0.5178  0.1975
   93DG     H20 2136   4.964   1.218   1.367 -0.2347  1.6963 -1.2224
   93DG     H21 2137   4.911   1.272   1.539 -0.6387  1.5020  0.5434
   93DG     H22 2138   5.200   1.157   1.399 -0.6414 -1.7620  0.9867
   93DG     H23 2139   5.160   1.148   1.570 -0.4874 -2.3017 -2.1309
   94DG      C1 2140   4.104   4.102   1.220 -0.8081  0.4632 -0.0713
   94DG      C2 2141   3.960   4.546   0.623  0.0765 -0.5574 -0.6381
   94DG      H3 2142   4.030   4.025   1.198  0.1483 -0.6344  0.5016
   94DG      H4 2143   4.075   4.156   1.310  0.6351  0.4463  0.4200
   94DG      H5 2144   4.187   4.044   1.259 -2.2562 -1.0605  0.8965
   94DG      H6 2145   3.902   4.637   0.635  1.7853  0.3866  0.8547
   94DG      H7 2146   4.053   4.558   0.567  1.4717 -1.6600  1.3225
   94DG      H8 2147   3.908   4.466   0.569 -0.7343 -0.1773 -0.4308
   94DG      O9 2148   4.133   4.181   1.111  0.1427 -0.0482  0.0653
   94DG     O10 2149   4.002   4.502   0.747 -0.5446  0.4064  0.2710
   94DG     C11 2150   4.230   4.280   1.142 -0.7231  1.1120  0.4870
   94DG     C12 2151   4.083   4.598   0.816 -0.5833 -0.2848 -0.3189
   94DG     H13 2152   4.318   4.274   1.077  0.6104  1.2478  2.1888
   94DG     H14 2153   4.269   4.264   1.243 -2.1168 -1.9147  0.6667
   94DG     H15 2154   4.049   4.698   0.791 -1.3826 -0.6178 -0.6001
   94DG     H16 2155   4.184   4.589   0.776 -0.9771 -0.3360 -1.3338
   94DG     C17 2156   4.171   4.417   1.128 -0.4039 -0.3752 -0.1999
   94DG     C18 2157   4.091   4.564   0.963  0.0617 -0.2593  0.3651
   94DG     O19 2158   4.147   4.437   0.983 -0.2453 -0.0392  0.7228
   94DG     H20 2159   4.245   4.493   1.156 -0.5247 -0.4962  0.4674
   94DG     H21 2160   4.081   4.438   1.186  0.2226  2.3900 -0.0987
   94DG     H22 2161   4.149   4.637   1.019 -1.3696 -0.1732  1.8150
   94DG     H23 2162   3.988   4.560   0.998  0.3334 -0.7780  1.1176
   95DG      C1 2163   1.183   1.754   3.196 -0.2958 -0.2138  0.0033
   95DG      C2 2164   1.357   1.501   2.598  0.4860  0.1843 -0.4639
   95DG      H3 2165   1.104   1.683   3.222  0.6335 -0.4872  2.2641
   95DG      H4 2166   1.149   1.835   3.131 -0.7406 -1.6929 -1.6910
   95DG      H5 2167   1.213   1.803   3.288 -2.3904  1.5459 -0.1500
   95DG      H6 2168   1.291   1.583   2.570  0.8714  0.4278 -0.6741
   95DG      H7 2169   1.436   1.496   2.523 -0.7526 -1.5585 -1.7321
   95DG      H8 2170   1.298   1.410   2.602  2.2203 -0.9678  1.7835
   95DG      O9 2171   1.281   1.690   3.122 -0.4249  0.1240 -0.0934
   95DG     O10 2172   1.411   1.522   2.724 -0.5625  0.2932  0.0423
   95DG     C11 2173   1.363   1.593   3.189 -0.4755 -0.3446 -0.4731
   95DG     C12 2174   1.497   1.419   2.766 -0.8123 -0.6469  0.4590
   95DG     H13 2175   1.304   1.513   3.234 -0.8440  1.3957  2.3821
   95DG     H14 2176   1.407   1.631   3.281  1.9659  0.5706 -1.9279
   95DG     H15 2177   1.576   1.408   2.692 -1.7258  1.5614 -0.9595
   95DG     H16 2178   1.444   1.324   2.776 -1.9872  0.1154  2.0670
   95DG     C17 2179   1.489   1.555   3.104 -0.2288  0.4888  0.1315
   95DG     C18 2180   1.552   1.458   2.896  0.3287 -0.4675  0.3326
   95DG     O19 2181   1.448   1.500   2.978  0.0022  0.2209  0.1214
   95DG     H20 2182   1.543   1.488   3.170 -0.8225 -0.5610 -0.4278
   95DG     H21 2183   1.541   1.651   3.099 -1.2828  1.0750 -0.1941
   95DG     H22 2184   1.600   1.372   2.941  0.8092  0.8017  2.3999
   95DG     H23 2185   1.636   1.526   2.878 -0.3637 -0.0796 -1.8351
   96DG      C1 2186   0.969   2.704   3.854 -0.0303 -0.8187 -0.0247
   96DG      C2 2187   1.235   3.291   3.867  0.4662  0.3955  0.6817
   96DG      H3 2188   1.013   2.705   3.954  0.9614  1.5547 -0.4167
   96DG      H4 2189   1.048   2.660   3.794  1.3229  0.8337  0.4525
   96DG      H5 2190   0.886   2.634   3.864  0.2611 -0.8642  3.0096
   96DG      H6 2191   1.313   3.228   3.825 -0.5191 -0.3084 -0.1566
   96DG      H7 2192   1.259   3.395   3.844 -1.4278  1.1824  1.9687
   96DG      H8 2193   1.228   3.274   3.974 -0.9642 -1.0164  0.4129
   96DG      O9 2194   0.936   2.837   3.826 -0.0581  0.1133  0.0148
   96DG     O10 2195   1.112   3.250   3.812 -0.0860 -0.3600  0.2616
   96DG     C11 2196   0.820   2.875   3.899  0.3069  0.6878  0.5144
   96DG     C12 2197   0.997   3.310   3.874 -0.3109 -0.9461 -0.3876
   96DG     H13 2198   0.835   2.863   4.006 -1.6573  1.0999  0.8788
   96DG     H14 2199   0.736   2.812   3.870  1.6637 -0.6463 -0.6805
   96DG     H15 2200   0.999   3.418   3.860  3.0471 -0.6134  1.3526
   96DG     H16 2201   0.993   3.297   3.982 -1.4510  1.4449 -0.0679
   96DG     C17 2202   0.783   3.014   3.853 -0.0785  0.3895 -0.4359
   96DG     C18 2203   0.867   3.233   3.828 -0.2987 -0.6290 -0.8094
   96DG     O19 2204   0.898   3.100   3.861  0.6083  0.4781 -0.0865
   96DG     H20 2205   0.711   3.056   3.924  0.2843 -0.1308  0.2531
   96DG     H21 2206   0.743   3.014   3.752 -2.5934 -2.5257  0.4498
   96DG     H22 2207   0.786   3.267   3.891 -1.7920 -0.1188 -2.8935
   96DG     H23 2208   0.843   3.239   3.722  0.1159  0.1055 -0.8674
   97DG      C1 2209   2.367   4.493   3.317 -0.5795  0.3777  0.0587
   97DG      C2 2210   2.839   4.445   2.813 -0.7872  0.2998  0.3293
   97DG      H3 2211   2.307   4.436   3.387  0.5414 -1.1622 -0.1811
   97DG      H4 2212   2.295   4.521   3.240 -1.0377  1.0869  0.7313
   97DG      H5 2213   2.415   4.577   3.369  1.1681  0.9506 -2.2994
   97DG      H6 2214   2.755   4.446   2.743 -0.0710  0.0628 -0.5446
   97DG      H7 2215   2.881   4.545   2.821  5.1310 -1.7100 -1.0199
   97DG      H8 2216   2.919   4.389   2.765 -1.2985 -0.9851  0.9226
   97DG      O9 2217   2.473   4.414   3.251  0.1373  0.3294 -0.0643
   97DG     O10 2218   2.802   4.389   2.936  0.0465  0.0515  0.2445
   97DG     C11 2219   2.580   4.376   3.346  0.6263 -0.5416 -0.1211
   97DG     C12 2220   2.801   4.247   2.937  0.3329  0.0748 -0.2866
   97DG     H13 2221   2.520   4.321   3.419  0.2989 -0.9205 -0.6688
   97DG     H14 2222   2.632   4.463   3.385  0.8956 -0.8442  0.2035
   97DG     H15 2223   2.891   4.202   2.895  0.1381 -1.2632  0.6746
   97DG     H16 2224   2.713   4.210   2.885 -1.5069  3.2310  0.3055
   97DG     C17 2225   2.677   4.274   3.288 -0.5537 -0.7750  0.7098
   97DG     C18 2226   2.794   4.216   3.088 -0.0566 -0.6827  0.3704
   97DG     O19 2227   2.716   4.309   3.155  0.6528  0.0622  0.0205
   97DG     H20 2228   2.633   4.175   3.301 -1.2357 -0.6742 -0.6161
   97DG     H21 2229   2.769   4.269   3.346  0.3871 -1.7580 -0.7934
   97DG     H22 2230   2.762   4.114   3.104  0.3107 -1.0838 -1.3099
   97DG     H23 2231   2.888   4.234   3.140  0.5565 -0.1909 -0.8616
   98DG      C1 2232   1.011   0.921   2.809  0.1863  0.1595  1.1672
   98DG      C2 2233   1.476   0.609   2.437 -0.9740  0.2795  0.3961
   98DG      H3 2234   0.987   0.817   2.829  1.7258 -0.4957 -0.2214
   98DG      H4 2235   0.919   0.977   2.793 -0.3332 -0.3279  2.2819
   98DG      H5 2236   1.052   0.950   2.906 -1.3353 -0.7128  2.1108
   98DG      H6 2237   1.396   0.541   2.408 -1.2506  0.7313  0.0769
   98DG      H7 2238   1.545   0.595   2.355 -0.4751  0.8471  0.7105
   98DG      H8 2239   1.521   0.587   2.534  0.7583  1.6316 -0.0453
   98DG      O9 2240   1.096   0.930   2.692  0.4861 -0.5007 -0.4294
   98DG     O10 2241   1.426   0.743   2.429 -0.4110  0.3849 -0.4883
   98DG     C11 2242   1.155   1.059   2.691 -0.2672  0.2287  0.1033
   98DG     C12 2243   1.522   0.841   2.461  0.0815  0.4189 -0.6267
   98DG     H13 2244   1.208   1.071   2.786 -1.6562  0.5845  0.8738
   98DG     H14 2245   1.082   1.139   2.692  0.0840  0.5959 -1.5194
   98DG     H15 2246   1.602   0.830   2.388  0.8353 -0.6464  0.3275
   98DG     H16 2247   1.571   0.826   2.557 -0.3484 -0.2604 -0.5050
   98DG     C17 2248   1.261   1.080   2.575  0.9161  0.4757 -0.4445
   98DG     C18 2249   1.444   0.977   2.458 -0.2374 -0.6364 -0.4202
   98DG     O19 2250   1.347   0.971   2.568  0.1993  0.5089  0.2042
   98DG     H20 2251   1.315   1.174   2.590  0.5259  0.4480  1.2909
   98DG     H21 2252   1.206   1.088   2.481 -1.0265 -3.8525  0.0626
   98DG     H22 2253   1.511   1.061   2.474  1.3222 -1.8636 -0.2469
   98DG     H23 2254   1.374   0.992   2.376 -3.5730  1.1703  2.4632
   99DG      C1 2255   1.659   0.001   0.190 -0.1450 -0.3652 -0.8082
   99DG      C2 2256   2.032  -0.121  -0.206 -0.2994  0.0420  0.0164
   99DG      H3 2257   1.588  -0.027   0.268  1.1278 -0.9387  0.1810
   99DG      H4 2258   1.704   0.100   0.202  0.7659 -0.8625  0.0598
   99DG      H5 2259   1.741  -0.070   0.202 -1.5800 -1.6533  2.8508
   99DG      H6 2260   2.092  -0.179  -0.275  0.8677 -0.0990  1.1113
   99DG      H7 2261   2.084  -0.027  -0.189  0.6572 -0.7296  1.7200
   99DG      H8 2262   2.053  -0.181  -0.117  0.7011  0.8273  0.3248
   99DG      O9 2263   1.612  -0.024   0.057  0.4913  0.8949  0.9246
   99DG     O10 2264   1.897  -0.105  -0.240 -0.6875  0.0812  0.7027
   99DG     C11 2265   1.540  -0.154   0.043  0.3738 -0.7720 -0.1515
   99DG     C12 2266   1.847  -0.232  -0.263  0.6889  0.6447 -0.4145
   99DG     H13 2267   1.440  -0.123   0.015  0.5098  0.0285  0.2164
   99DG     H14 2268   1.530  -0.217   0.131  0.4053  0.6424  0.9069
   99DG     H15 2269   1.863  -0.307  -0.185 -0.7465  0.7987  0.0486
   99DG     H16 2270   1.898  -0.277  -0.349 -0.5885  0.1328 -0.9353
   99DG     C17 2271   1.612  -0.236  -0.062 -0.4585  0.1366  0.0069
   99DG     C18 2272   1.700  -0.212  -0.300 -0.0296  0.0163  0.3019
   99DG     O19 2273   1.629  -0.163  -0.184 -0.2283  0.0855  0.1860
   99DG     H20 2274   1.569  -0.336  -0.070  0.4870 -0.2579 -0.2062
   99DG     H21 2275   1.700  -0.245   0.002 -0.6399  1.4985  0.4883
   99DG     H22 2276   1.681  -0.131  -0.370  0.3464 -0.5787 -0.5108
   99DG     H23 2277   1.662  -0.303  -0.348  0.7030 -0.4622  0.6107
  100DG      C1 2278   0.572   0.025   2.045  0.4146  0.1371 -0.1689
  100DG      C2 2279   0.954  -0.105   2.548 -0.2696  0.0752  0.0874
  100DG      H3 2280   0.466   0.009   2.065  1.0118 -0.8957  2.5917
  100DG      H4 2281   0.583   0.023   1.937 -0.2705 -1.0008 -0.2314
  100DG      H5 2282   0.599   0.127   2.072  3.4669 -0.8481  0.8465
  100DG      H6 2283   1.047  -0.151   2.582 -0.5022  0.2172  0.9410
  100DG      H7 2284   0.963   0.001   2.524 -0.5731  0.0069 -0.3318
  100DG      H8 2285   0.895  -0.101   2.640 -0.7108  2.0168 -0.2458
  100DG      O9 2286   0.656  -0.079   2.095 -0.3318  0.0186  0.0829
  100DG     O10 2287   0.897  -0.181   2.443 -0.0777 -0.2202  0.0934
  100DG     C11 2288   0.607  -0.211   2.075  0.6967 -0.7400  0.9650
  100DG     C12 2289   0.855  -0.311   2.468 -0.5445  0.1160  0.2142
  100DG     H13 2290   0.608  -0.226   1.967  3.2537  0.7670  0.6787
  100DG     H14 2291   0.506  -0.224   2.112  0.5345 -2.9430 -0.1196
  100DG     H15 2292   0.772  -0.315   2.538 -0.3955  3.2539  0.7284
  100DG     H16 2293   0.943  -0.368   2.499 -0.6436 -0.7881 -1.1149
  100DG     C17 2294   0.695  -0.321   2.131  0.6039  0.2589 -0.5554
  100DG     C18 2295   0.808  -0.375   2.340 -0.3228 -0.5556 -0.4225
  100DG     O19 2296   0.714  -0.290   2.270 -0.4067  0.4180  0.9379
  100DG     H20 2297   0.794  -0.311   2.086  1.6914  0.7921  1.7747
  100DG     H21 2298   0.655  -0.420   2.112 -0.9240  0.8172 -0.3782
  100DG     H22 2299   0.904  -0.385   2.288  1.5360 -0.4492  2.7706
  100DG     H23 2300   0.764  -0.475   2.343 -0.7514 -0.5377 -3.0619
  101DG      C1 2301   5.096   1.060   2.608  0.0972  0.0247  0.1075
  101DG      C2 2302   5.250   1.331   3.231  0.4491  0.0578  0.0500
  101DG      H3 2303   5.183   1.107   2.562  0.0823 -1.2449 -1.2913
  101DG      H4 2304   5.020   1.111   2.549  2.3103  1.9512 -1.2964
  101DG      H5 2305   5.109   0.955   2.581  2.0199  0.3823 -0.5432
  101DG      H6 2306   5.341   1.359   3.179 -0.6497  0.2794 -1.8278
  101DG      H7 2307   5.164   1.398   3.227  0.4203  0.1661  1.7183
  101DG      H8 2308   5.268   1.312   3.337 -1.7508 -0.2800  0.4005
  101DG      O9 2309   5.094   1.093   2.749 -0.3010 -0.2643  0.3506
  101DG     O10 2310   5.211   1.201   3.185 -0.0786 -1.0549  0.2422
  101DG     C11 2311   4.998   1.009   2.813  0.1809 -1.0157  0.9104
  101DG     C12 2312   5.082   1.163   3.229 -0.1151 -0.5479  0.1764
  101DG     H13 2313   5.025   0.904   2.806  0.9012 -0.7292 -1.0630
  101DG     H14 2314   4.905   1.010   2.756  0.4000 -0.5506  0.5631
  101DG     H15 2315   5.001   1.231   3.201 -1.6520 -2.2623  0.3467
  101DG     H16 2316   5.080   1.157   3.338 -0.7608 -1.0887  0.1404
  101DG     C17 2317   4.976   1.051   2.961  0.9717  0.4377  0.2144
  101DG     C18 2318   5.056   1.022   3.186  0.0394  0.3283  0.3837
  101DG     O19 2319   5.083   1.006   3.048 -0.2164  0.5183  0.0106
  101DG     H20 2320   4.890   0.992   2.994 -0.0768  0.3278 -2.4679
  101DG     H21 2321   4.961   1.158   2.971  0.9090  0.4726 -0.2419
  101DG     H22 2322   5.120   0.960   3.248 -0.3930 -0.5340 -0.0137
  101DG     H23 2323   4.964   0.971   3.215  0.7731 -1.3632 -0.1493
  102DG      C1 2324   0.094   2.648   2.582 -0.7261 -0.1890  0.2126
  102DG      C2 2325   0.310   3.304   2.484 -0.3053 -0.1735  0.3166
  102DG      H3 2326   0.189   2.593   2.577 -0.8232 -0.3533  0.1662
  102DG      H4 2327   0.024   2.564   2.572 -0.4867 -0.3552 -0.1061
  102DG      H5 2328   0.068   2.685   2.680 -4.1595 -1.6601 -0.0052
  102DG      H6 2329   0.304   3.405   2.443  1.0360  0.0773  0.6842
  102DG      H7 2330   0.264   3.313   2.582 -0.5907 -0.9933  0.2618
  102DG      H8 2331   0.414   3.274   2.488 -0.2544  0.0980  1.2513
  102DG      O9 2332   0.090   2.741   2.469 -0.3920  0.0065 -0.2674
  102DG     O10 2333   0.241   3.204   2.415 -0.2421  0.5885 -0.0193
  102DG     C11 2334  -0.048   2.783   2.455 -0.4741  0.1228 -0.4693
  102DG     C12 2335   0.101   3.218   2.402 -0.1619 -0.0514  0.6033
  102DG     H13 2336  -0.093   2.834   2.540 -0.2570 -2.2485  1.1827
  102DG     H14 2337  -0.109   2.695   2.437 -0.2919  0.0406 -0.6942
  102DG     H15 2338   0.096   3.318   2.360 -2.8475 -0.2876  0.2057
  102DG     H16 2339   0.049   3.229   2.497  0.2327  0.1144  0.8050
  102DG     C17 2340  -0.054   2.882   2.348  0.3137 -0.4633 -0.2776
  102DG     C18 2341   0.026   3.112   2.313  0.2329 -0.3372 -0.2882
  102DG     O19 2342   0.041   2.983   2.379  0.3472 -0.4949 -0.3852
  102DG     H20 2343  -0.158   2.916   2.336  0.0923 -0.9187  0.3462
  102DG     H21 2344  -0.021   2.832   2.258  2.0945  1.9186 -1.0555
  102DG     H22 2345  -0.079   3.138   2.300  0.4118  0.4238 -0.2192
  102DG     H23 2346   0.071   3.092   2.215  3.0400  3.3987  0.0477
  103DG      C1 2347   1.149   0.781   4.868 -0.7953  1.1034 -0.3953
  103DG      C2 2348   0.772   1.352   4.677  0.4821 -0.1362 -0.1343
  103DG      H3 2349   1.249   0.806   4.834  0.1440 -2.6788 -0.8775
  103DG      H4 2350   1.144   0.672   4.866  2.2759  0.8729  0.2717
  103DG      H5 2351   1.134   0.818   4.970 -0.1563 -1.5447  0.7570
  103DG      H6 2352   0.776   1.381   4.782 -1.5091  2.6542 -0.7396
  103DG      H7 2353   0.841   1.403   4.610  1.2223 -2.0297 -0.8767
  103DG      H8 2354   0.667   1.359   4.651  0.6747 -1.6038 -1.4484
  103DG      O9 2355   1.046   0.837   4.790  0.1331 -0.1815 -0.6546
  103DG     O10 2356   0.805   1.211   4.655 -0.4765  0.0957 -0.1197
  103DG     C11 2357   1.066   0.806   4.650  0.4391 -0.4907  0.5136
  103DG     C12 2358   0.782   1.166   4.521  0.1976  0.0621  0.4215
  103DG     H13 2359   1.102   0.704   4.637 -2.2284 -1.7535  2.2514
  103DG     H14 2360   1.134   0.883   4.612  0.4053 -0.2956  0.8446
  103DG     H15 2361   0.852   1.212   4.452 -0.4555  1.3862  0.6110
  103DG     H16 2362   0.686   1.201   4.484 -0.5352  1.6622  3.4710
  103DG     C17 2363   0.934   0.829   4.571 -0.3296 -0.0638 -0.3873
  103DG     C18 2364   0.789   1.012   4.512 -0.1981 -0.5691  1.1775
  103DG     O19 2365   0.892   0.965   4.594 -0.2627 -0.0027  0.1054
  103DG     H20 2366   0.858   0.759   4.606 -0.8039  1.3197  1.4798
  103DG     H21 2367   0.945   0.814   4.463  1.6098  2.5566 -0.6328
  103DG     H22 2368   0.694   0.968   4.545 -1.7731  0.1488 -2.0204
  103DG     H23 2369   0.812   0.990   4.408  1.7547  0.6034  1.3151
  104DG      C1 2370   4.500   4.120   2.091  0.2686  0.2275 -0.4783
  104DG      C2 2371   4.497   4.465   1.514  0.3546 -0.1621 -0.2483
  104DG      H3 2372   4.585   4.077   2.039  0.4466 -0.4738  0.3584
  104DG      H4 2373   4.416   4.053   2.070  0.0154  0.6267 -0.7538
  104DG      H5 2374   4.519   4.127   2.198 -1.4391  0.1951 -0.1307
  104DG      H6 2375   4.416   4.433   1.449  1.4195 -0.7500 -1.3115
  104DG      H7 2376   4.538   4.562   1.484 -1.5157  0.3635 -1.2565
  104DG      H8 2377   4.579   4.394   1.508 -1.1650 -2.1296  1.0849
  104DG      O9 2378   4.465   4.245   2.046  0.0641 -0.7482  0.2915
  104DG     O10 2379   4.457   4.465   1.650  0.5925  0.2536 -0.2870
  104DG     C11 2380   4.342   4.290   2.097 -0.5039 -0.0449  0.1356
  104DG     C12 2381   4.365   4.567   1.687  0.0552  0.5154  0.5280
  104DG     H13 2382   4.335   4.300   2.205 -1.8062  0.8217 -0.0017
  104DG     H14 2383   4.262   4.229   2.054  0.1869 -0.7257 -0.2093
  104DG     H15 2384   4.267   4.546   1.644  0.3353  2.6358 -1.3033
  104DG     H16 2385   4.397   4.668   1.662  0.3932  0.5055  0.8944
  104DG     C17 2386   4.312   4.434   2.039  0.0373 -0.1764  0.4354
  104DG     C18 2387   4.347   4.574   1.842 -0.1342 -0.9258 -0.0103
  104DG     O19 2388   4.345   4.440   1.900  0.2918 -0.6387 -0.0283
  104DG     H20 2389   4.381   4.498   2.094  1.2146 -0.4138 -0.7082
  104DG     H21 2390   4.210   4.464   2.064 -0.6388 -3.0410  1.4354
  104DG     H22 2391   4.433   4.627   1.885 -1.3148  2.2823 -1.3328
  104DG     H23 2392   4.264   4.634   1.879  0.1180 -1.0713  0.8323
  105DG      C1 2393   3.148   1.283   3.313 -0.2395 -0.1529 -0.0426
  105DG      C2 2394   3.106   1.512   2.735 -0.0341 -0.0917 -0.3114
  105DG      H3 2395   3.074   1.351   3.355 -1.1632  0.4771 -2.5313
  105DG      H4 2396   3.239   1.343   3.305  1.8665 -3.2375 -0.8239
  105DG      H5 2397   3.160   1.193   3.372 -1.4295 -0.8824 -0.8837
  105DG      H6 2398   3.149   1.487   2.638 -0.7870  2.2568 -1.3215
  105DG      H7 2399   3.039   1.598   2.739  0.8618  0.5794  2.0389
  105DG      H8 2400   3.187   1.540   2.802 -0.8604  0.7386  0.3714
  105DG      O9 2401   3.091   1.249   3.184 -0.3793 -0.7433  0.0118
  105DG     O10 2402   3.048   1.401   2.802 -0.3824  0.2409  0.5346
  105DG     C11 2403   2.968   1.178   3.187  0.7742 -0.1313 -0.3304
  105DG     C12 2404   2.932   1.349   2.738 -0.3516  0.1699 -0.3046
  105DG     H13 2405   2.887   1.236   3.230  0.9563 -0.8697  1.0851
  105DG     H14 2406   2.993   1.089   3.245  2.7980  0.0608 -0.8262
  105DG     H15 2407   2.960   1.308   2.641 -2.8227 -1.6653 -0.3337
  105DG     H16 2408   2.852   1.422   2.724 -0.5215  0.3803  1.5097
  105DG     C17 2409   2.922   1.131   3.048  1.0670 -0.2000  0.1014
  105DG     C18 2410   2.872   1.228   2.825 -0.2555 -0.6020 -0.0529
  105DG     O19 2411   2.906   1.251   2.964  0.2545  0.7422 -0.1984
  105DG     H20 2412   2.828   1.079   3.068 -0.0893  1.6289 -0.2769
  105DG     H21 2413   2.983   1.049   3.010  1.0546 -0.7227  1.1738
  105DG     H22 2414   2.763   1.226   2.830 -0.3845  2.6953  1.6342
  105DG     H23 2415   2.920   1.132   2.805  0.4223 -0.6212  1.4711
  106DG      C1 2416   2.530   4.048   0.575  0.3571  0.2691  0.0788
  106DG      C2 2417   2.771   3.528   0.402 -0.4798 -0.4533  0.0182
  106DG      H3 2418   2.480   3.999   0.491  0.9740 -0.8911  0.3794
  106DG      H4 2419   2.538   4.153   0.546  1.6775  0.0178 -0.5375
  106DG      H5 2420   2.465   4.039   0.662  1.0777  0.6026  0.6661
  106DG      H6 2421   2.768   3.457   0.320  1.6869 -2.9852  1.9134
  106DG      H7 2422   2.683   3.508   0.463 -0.8547 -1.0697 -0.7108
  106DG      H8 2423   2.779   3.624   0.351  1.6921 -0.3321  0.4780
  106DG      O9 2424   2.659   3.993   0.601  0.2576  0.2311 -0.2159
  106DG     O10 2425   2.899   3.496   0.465  0.0056 -0.0586 -0.0210
  106DG     C11 2426   2.760   3.997   0.499  0.2131 -0.4671 -0.1850
  106DG     C12 2427   2.914   3.546   0.592  0.7823  0.0415  0.0806
  106DG     H13 2428   2.783   4.102   0.481 -0.6280 -0.6331 -2.6912
  106DG     H14 2429   2.721   3.968   0.401  2.0018  0.1411 -1.1202
  106DG     H15 2430   2.991   3.481   0.633 -0.2795  0.7875  3.6284
  106DG     H16 2431   2.820   3.541   0.648 -0.6654  1.1014 -2.1289
  106DG     C17 2432   2.889   3.914   0.534 -0.1753 -0.3551  0.0394
  106DG     C18 2433   2.958   3.694   0.581 -0.2985  1.3219 -0.6860
  106DG     O19 2434   2.853   3.773   0.532  0.5610 -0.3949 -0.0261
  106DG     H20 2435   2.912   3.939   0.638  1.7827 -2.7379  0.2571
  106DG     H21 2436   2.970   3.944   0.468 -0.8328  0.1782 -0.5407
  106DG     H22 2437   2.996   3.728   0.678 -0.2696  2.7410 -1.1750
  106DG     H23 2438   3.038   3.703   0.508  0.7170  1.7754  0.4530
  107DG      C1 2439   2.111   3.622   4.112 -0.3565 -0.4910  0.6946
  107DG      C2 2440   1.525   3.346   4.209 -0.2384  0.1025 -0.4802
  107DG      H3 2441   2.218   3.641   4.125 -0.7010  1.2150  1.4317
  107DG      H4 2442   2.064   3.687   4.186  0.1549 -0.3120  0.8685
  107DG      H5 2443   2.077   3.652   4.013  1.5717 -0.0431  0.1289
  107DG      H6 2444   1.452   3.266   4.195  0.7698 -0.7102 -1.2926
  107DG      H7 2445   1.509   3.404   4.299  3.7779  0.6308  0.0439
  107DG      H8 2446   1.492   3.418   4.134 -1.3018 -0.6823 -0.8027
  107DG      O9 2447   2.069   3.492   4.155  0.1607  0.1797 -0.4738
  107DG     O10 2448   1.657   3.317   4.208 -0.0883 -0.6991  0.4423
  107DG     C11 2449   2.142   3.430   4.258 -0.1704  0.6522 -0.2456
  107DG     C12 2450   1.698   3.251   4.331 -0.6829  0.3399  0.7296
  107DG     H13 2451   2.130   3.480   4.354  0.8701 -1.2488  0.9449
  107DG     H14 2452   2.250   3.422   4.254 -0.3154 -2.4876 -1.1081
  107DG     H15 2453   1.628   3.168   4.343 -0.2688 -0.2021 -0.4190
  107DG     H16 2454   1.685   3.314   4.419  1.2082  1.2967  0.3731
  107DG     C17 2455   2.072   3.292   4.271  0.1552 -0.4952 -0.6110
  107DG     C18 2456   1.845   3.201   4.322  0.3297 -0.2236  0.1867
  107DG     O19 2457   1.930   3.311   4.283 -0.0666 -0.3330 -0.1121
  107DG     H20 2458   2.103   3.247   4.365 -1.8566 -1.2287 -0.2464
  107DG     H21 2459   2.087   3.226   4.186 -1.7396 -0.2325 -1.1948
  107DG     H22 2460   1.889   3.167   4.416  0.7879 -0.0124  0.0501
  107DG     H23 2461   1.861   3.113   4.260  3.5152  0.2171  0.1805
  108DG      C1 2462   5.172   0.042   5.314  0.1234 -0.4692  0.8633
  108DG      C2 2463   5.195  -0.463   4.999  0.1068  0.3780 -0.3318
  108DG      H3 2464   5.089  -0.015   5.356 -0.1684  0.6834  1.9212
  108DG      H4 2465   5.155   0.052   5.207  1.2209  2.0752  0.8516
  108DG      H5 2466   5.171   0.136   5.371 -1.2002 -0.3223  0.6439
  108DG      H6 2467   5.142  -0.392   4.935 -2.8775 -2.3543 -1.1908
  108DG      H7 2468   5.268  -0.517   4.939 -0.7916 -2.0667  0.6663
  108DG      H8 2469   5.124  -0.538   5.033 -0.6343  0.6133 -1.3186
  108DG      O9 2470   5.291  -0.029   5.323  0.1217 -0.1015  0.3258
  108DG     O10 2471   5.271  -0.403   5.104 -0.4948 -0.5863 -0.3524
  108DG     C11 2472   5.326  -0.072   5.451 -0.1209 -0.0038 -0.3718
  108DG     C12 2473   5.292  -0.482   5.218  0.2559  0.1544 -0.1871
  108DG     H13 2474   5.232  -0.093   5.501 -0.1297 -0.0425 -0.4046
  108DG     H14 2475   5.383   0.001   5.508  1.1825 -0.8283 -0.5812
  108DG     H15 2476   5.341  -0.571   5.179  0.3325  1.0205 -2.2020
  108DG     H16 2477   5.198  -0.517   5.259  0.6548  0.0367  0.6550
  108DG     C17 2478   5.400  -0.204   5.437  0.4484  0.4921 -0.1970
  108DG     C18 2479   5.377  -0.421   5.328 -0.9454  0.2281 -0.3673
  108DG     O19 2480   5.314  -0.294   5.368 -0.4630 -0.1293 -0.2752
  108DG     H20 2481   5.420  -0.236   5.539 -0.9192 -1.2056 -0.4184
  108DG     H21 2482   5.494  -0.178   5.389 -0.4760  0.9070 -1.8539
  108DG     H22 2483   5.375  -0.482   5.418 -0.4520  1.9900  0.9010
  108DG     H23 2484   5.482  -0.400   5.310 -0.5815  0.2292  1.5454
  109DG      C1 2485   2.207   5.030   1.532 -0.0288 -0.7540 -0.0716
  109DG      C2 2486   1.792   4.736   1.930  0.4252 -0.3223  0.2893
  109DG      H3 2487   2.256   5.103   1.468  0.0465  1.9009  2.7576
  109DG      H4 2488   2.203   4.939   1.473 -0.1002 -1.8421  1.5323
  109DG      H5 2489   2.274   5.008   1.615  0.3746 -0.8842 -0.4291
  109DG      H6 2490   1.706   4.752   1.996 -1.4262 -0.8735 -1.8800
  109DG      H7 2491   1.781   4.639   1.882 -0.9044  0.0664 -0.2168
  109DG      H8 2492   1.880   4.729   1.994  1.0483 -1.6763 -0.6721
  109DG      O9 2493   2.082   5.081   1.575 -0.3316 -0.0200  0.0885
  109DG     O10 2494   1.776   4.823   1.820  0.0282 -0.2417  0.1707
  109DG     C11 2495   1.991   5.080   1.474 -0.3591  0.7246  0.3909
  109DG     C12 2496   1.755   4.958   1.858 -0.1173 -0.2094  0.9415
  109DG     H13 2497   1.990   4.991   1.412 -1.0384  1.4764 -0.7261
  109DG     H14 2498   2.013   5.163   1.408 -2.9160  0.1562 -1.3303
  109DG     H15 2499   1.849   4.977   1.910  0.2001  1.8420 -0.2944
  109DG     H16 2500   1.670   4.970   1.926 -0.4517 -0.7226  0.6211
  109DG     C17 2501   1.852   5.083   1.537  0.2265 -0.7248 -0.3981
  109DG     C18 2502   1.743   5.052   1.740  0.4611  0.0992  0.2161
  109DG     O19 2503   1.850   5.016   1.660  0.7230  0.2340 -0.2701
  109DG     H20 2504   1.775   5.040   1.473 -0.9734  1.2504 -0.3547
  109DG     H21 2505   1.807   5.182   1.541  0.2607 -0.7413  1.0781
  109DG     H22 2506   1.653   5.028   1.684 -0.1977  1.0239  0.8345
  109DG     H23 2507   1.737   5.156   1.774  1.5403 -0.2630  1.6430
  110DG      C1 2508   1.652   4.447   1.248 -0.3629  0.6043 -0.0815
  110DG      C2 2509   1.673   3.794   0.980  1.0891  0.1304  0.1146
  110DG      H3 2510   1.562   4.468   1.189 -0.4905 -0.4295 -0.2820
  110DG      H4 2511   1.735   4.490   1.193 -0.8596 -0.9643 -2.1986
  110DG      H5 2512   1.635   4.495   1.344  0.0759  1.3088 -0.3528
  110DG      H6 2513   1.602   3.739   1.042  0.1165 -0.4242 -1.4265
  110DG      H7 2514   1.611   3.846   0.908  0.3894 -0.7434  0.0701
  110DG      H8 2515   1.742   3.717   0.945  0.7747 -2.1543  3.8851
  110DG      O9 2516   1.663   4.299   1.253 -0.3679  0.2946 -0.2674
  110DG     O10 2517   1.738   3.883   1.064 -0.1395  0.0648  0.0643
  110DG     C11 2518   1.726   4.266   1.375  0.1431 -0.0674 -0.8804
  110DG     C12 2519   1.812   3.836   1.172  0.0809  0.3287  0.7244
  110DG     H13 2520   1.668   4.306   1.459 -1.4548  0.6565 -2.2581
  110DG     H14 2521   1.829   4.303   1.372 -0.0207  0.5271  0.1407
  110DG     H15 2522   1.917   3.842   1.144 -0.5557  0.6851 -1.8022
  110DG     H16 2523   1.798   3.729   1.191 -0.0568  0.1064 -0.5542
  110DG     C17 2524   1.725   4.117   1.400  0.4182  0.2235 -0.3771
  110DG     C18 2525   1.764   3.911   1.298 -0.7426  0.2377 -0.1983
  110DG     O19 2526   1.772   4.051   1.286  0.2428 -0.1612  0.1199
  110DG     H20 2527   1.625   4.084   1.427  0.6717 -0.4577 -0.2635
  110DG     H21 2528   1.790   4.087   1.482 -2.6006 -1.5154  1.5438
  110DG     H22 2529   1.663   3.892   1.332 -0.4428 -0.5059  0.3057
  110DG     H23 2530   1.829   3.871   1.375 -0.4504 -1.6327 -1.3551
  111DG      C1 2531   2.432   0.579   1.189  0.0287  0.0733  0.0843
  111DG      C2 2532   2.049   0.918   0.694  0.1369 -0.3408 -1.0154
  111DG      H3 2533   2.466   0.673   1.145  0.6919 -0.9167 -1.6265
  111DG      H4 2534   2.519   0.513   1.188 -0.0459 -0.0837  1.6039
  111DG      H5 2535   2.407   0.599   1.293 -2.5781  0.0566 -0.4881
  111DG      H6 2536   2.118   0.990   0.650 -0.1841  0.1220 -0.7855
  111DG      H7 2537   1.967   0.900   0.624 -1.8441 -1.2852  1.3868
  111DG      H8 2538   1.998   0.960   0.781  0.1619 -1.8755 -0.2375
  111DG      O9 2539   2.323   0.515   1.134  0.1270 -0.3245 -0.1772
  111DG     O10 2540   2.105   0.799   0.739 -0.3910  0.2951 -0.4359
  111DG     C11 2541   2.354   0.448   1.009  0.1439 -0.0603 -0.0765
  111DG     C12 2542   2.007   0.699   0.760  0.1116 -0.2407 -0.6163
  111DG     H13 2543   2.388   0.349   1.040  0.3237 -0.2708 -0.9231
  111DG     H14 2544   2.442   0.479   0.952 -0.3316 -1.6866 -1.8227
  111DG     H15 2545   1.946   0.679   0.672  1.3622  0.7670 -1.7545
  111DG     H16 2546   1.933   0.737   0.830  1.0962  3.7172 -1.4954
  111DG     C17 2547   2.222   0.442   0.925  0.1068  0.6343 -0.2145
  111DG     C18 2548   2.063   0.560   0.791 -0.5035  0.1241 -0.5554
  111DG     O19 2549   2.181   0.570   0.880  0.4025  0.5282  0.5997
  111DG     H20 2550   2.143   0.391   0.979 -1.3733  2.3593 -0.6586
  111DG     H21 2551   2.235   0.390   0.830  1.2498  0.1591  0.1766
  111DG     H22 2552   1.997   0.497   0.850  0.3825 -0.1365  0.1790
  111DG     H23 2553   2.095   0.510   0.700  1.0707  0.4668 -0.2164
  112DG      C1 2554   3.071   3.861   1.905 -0.7355 -0.2707  0.5693
  112DG      C2 2555   2.416   4.532   2.093 -0.1290 -0.8525  0.1006
  112DG      H3 2556   3.136   3.837   1.821 -1.0229  0.3365  0.1646
  112DG      H4 2557   3.024   3.769   1.940  1.8356 -2.0173 -0.2629
  112DG      H5 2558   3.129   3.909   1.984 -0.4685  1.5498 -0.6735
  112DG      H6 2559   2.371   4.467   2.169 -1.1172  1.2500  1.4115
  112DG      H7 2560   2.468   4.603   2.157 -2.7878 -0.6117  2.2189
  112DG      H8 2561   2.335   4.589   2.048  0.0262  0.1772  1.0821
  112DG      O9 2562   2.973   3.952   1.850 -0.3856  0.7596 -0.4363
  112DG     O10 2563   2.497   4.471   2.002 -0.2494  0.0978 -0.4274
  112DG     C11 2564   2.896   4.014   1.950  0.2672 -0.5468  0.0531
  112DG     C12 2565   2.582   4.371   2.058 -0.2806  0.3972  0.1511
  112DG     H13 2566   2.971   4.061   2.015  0.3387 -0.3440 -0.1710
  112DG     H14 2567   2.844   3.936   2.004  1.8506 -0.1460  2.2697
  112DG     H15 2568   2.524   4.294   2.108  0.1076  0.3481  0.5275
  112DG     H16 2569   2.654   4.416   2.126  2.0053  0.0555 -1.8973
  112DG     C17 2570   2.804   4.123   1.891  0.4057  0.6100  0.2488
  112DG     C18 2571   2.657   4.306   1.942 -0.1594  1.0694 -0.6668
  112DG     O19 2572   2.743   4.207   1.988 -0.6627  0.2291 -0.6643
  112DG     H20 2573   2.720   4.078   1.837  0.8523  2.0946 -1.7992
  112DG     H21 2574   2.855   4.178   1.812 -1.6208  1.8932 -0.2361
  112DG     H22 2575   2.581   4.262   1.878 -0.1290  0.0695 -0.0412
  112DG     H23 2576   2.697   4.388   1.883 -2.1411  1.2806 -1.7786
  113DG      C1 2577   5.451   3.093   4.075 -0.0987 -0.4533  0.4319
  113DG      C2 2578   5.707   2.705   4.516  0.2627  0.3271  0.7306
  113DG      H3 2579   5.513   3.175   4.112 -0.4864  0.3929 -0.7348
  113DG      H4 2580   5.364   3.136   4.024 -0.4877 -0.4394  1.0898
  113DG      H5 2581   5.495   3.019   4.008  0.3096  1.1812 -1.1831
  113DG      H6 2582   5.678   2.612   4.566  4.5574 -0.8727  1.3739
  113DG      H7 2583   5.769   2.679   4.431 -0.6046  2.2072 -0.5435
  113DG      H8 2584   5.768   2.752   4.593  2.3653 -0.9910 -0.0662
  113DG      O9 2585   5.405   3.021   4.188 -0.0320 -0.3505 -0.2842
  113DG     O10 2586   5.603   2.794   4.481 -0.3211 -0.2948  0.7202
  113DG     C11 2587   5.341   3.097   4.292  0.5221 -0.4046 -0.1195
  113DG     C12 2588   5.509   2.799   4.584 -0.3963 -0.6994  1.0542
  113DG     H13 2589   5.259   3.151   4.245 -0.7514 -0.1824  2.2183
  113DG     H14 2590   5.413   3.165   4.338  1.1687 -0.9612 -0.2866
  113DG     H15 2591   5.555   2.823   4.680 -1.0418 -1.3797  1.5560
  113DG     H16 2592   5.453   2.705   4.590  1.6314 -2.2304 -1.6910
  113DG     C17 2593   5.277   3.013   4.398  0.0620  1.1988  0.0611
  113DG     C18 2594   5.412   2.919   4.554 -0.1667 -0.2532 -0.1950
  113DG     O19 2595   5.361   2.907   4.426  0.2333  0.0849  0.2168
  113DG     H20 2596   5.190   2.978   4.341  1.4573  1.3301 -2.2607
  113DG     H21 2597   5.233   3.066   4.483 -0.9732  1.6438 -0.7343
  113DG     H22 2598   5.334   2.921   4.630 -0.3931 -0.6262 -0.4069
  113DG     H23 2599   5.475   3.005   4.573 -0.8030  0.3084 -0.5973
  114DG      C1 2600   5.137   3.899   3.082  0.5712 -0.1245  0.4876
  114DG      C2 2601   5.312   3.575   3.617  0.1021 -0.1443  0.4167
  114DG      H3 2602   5.237   3.898   3.038 -0.2644 -0.9931 -1.4848
  114DG      H4 2603   5.119   3.988   3.143 -0.1769 -0.1247  0.2732
  114DG      H5 2604   5.077   3.920   2.993  1.3584  2.0160  0.3970
  114DG      H6 2605   5.276   3.506   3.694  1.8194 -0.6920  0.7795
  114DG      H7 2606   5.413   3.545   3.590  0.0065  1.7266 -2.4494
  114DG      H8 2607   5.321   3.677   3.653  0.4652 -0.4018  1.0826
  114DG      O9 2608   5.088   3.781   3.139 -0.0532 -0.4802  0.5175
  114DG     O10 2609   5.235   3.565   3.497  0.7957  0.1391  0.5443
  114DG     C11 2610   5.089   3.677   3.052 -0.2494 -1.1076  0.7109
  114DG     C12 2611   5.253   3.448   3.420  0.3083  0.0425 -0.0906
  114DG     H13 2612   5.187   3.671   3.004 -0.3415  1.3474  0.0951
  114DG     H14 2613   5.019   3.697   2.971 -0.8915 -0.1637  1.4703
  114DG     H15 2614   5.224   3.374   3.494 -0.8368 -0.2627 -0.8234
  114DG     H16 2615   5.357   3.433   3.388  1.5200  0.2045  3.3496
  114DG     C17 2616   5.058   3.545   3.126 -0.3887  0.0124  0.1698
  114DG     C18 2617   5.152   3.431   3.305 -0.3048  0.1030 -0.4749
  114DG     O19 2618   5.147   3.551   3.241 -0.1451  0.0786  1.1445
  114DG     H20 2619   5.089   3.469   3.054  3.5774  0.7447  0.8577
  114DG     H21 2620   4.956   3.520   3.157 -1.7731 -0.6526 -4.2094
  114DG     H22 2621   5.172   3.354   3.231 -1.9746  0.2501 -1.1221
  114DG     H23 2622   5.049   3.413   3.337  0.1917 -0.7067  0.7421
  115DG      C1 2623   1.156   2.531   2.430  0.4000  0.1931 -0.2854
  115DG      C2 2624   0.665   2.062   2.502  0.1315 -0.2640 -0.0976
  115DG      H3 2625   1.194   2.597   2.351  0.3611  1.2999  0.5952
  115DG      H4 2626   1.235   2.478   2.481 -0.6058 -0.7397  0.3567
  115DG      H5 2627   1.106   2.589   2.508 -1.9947  1.0317 -2.2909
  115DG      H6 2628   0.717   2.072   2.597  0.8639 -1.1301 -0.3895
  115DG      H7 2629   0.572   2.118   2.502  0.9366  1.2857  2.7098
  115DG      H8 2630   0.637   1.957   2.505 -2.6341  0.2531 -2.8778
  115DG      O9 2631   1.086   2.436   2.362 -0.2493 -0.4508  0.5282
  115DG     O10 2632   0.752   2.103   2.397 -1.1499  0.5696  0.4483
  115DG     C11 2633   1.168   2.345   2.294 -0.2036  0.3336 -0.3423
  115DG     C12 2634   0.839   1.999   2.348 -0.7967 -0.1336 -0.2584
  115DG     H13 2635   1.216   2.287   2.372  1.5349  1.3528 -0.5966
  115DG     H14 2636   1.244   2.397   2.236  1.7818 -0.7254  1.2146
  115DG     H15 2637   0.761   1.935   2.306 -3.0057  0.7097  2.2733
  115DG     H16 2638   0.892   1.952   2.431 -1.7572  3.7546  2.8632
  115DG     C17 2639   1.088   2.242   2.203  0.5746  0.4622  0.2674
  115DG     C18 2640   0.931   2.062   2.239 -0.4007  0.0500  0.0767
  115DG     O19 2641   0.996   2.174   2.288 -0.6907  0.0228 -0.6049
  115DG     H20 2642   1.168   2.181   2.161  1.2028  1.2046  0.3682
  115DG     H21 2643   1.025   2.293   2.130 -2.1902 -0.3729  1.8978
  115DG     H22 2644   1.001   1.990   2.196 -0.2524  0.9004 -1.1701
  115DG     H23 2645   0.868   2.099   2.158  2.1833  1.5914 -1.3760
  116DG      C1 2646   2.368   2.387   4.345  0.0547 -0.2732  0.6125
  116DG      C2 2647   1.910   2.808   4.439 -0.2733 -0.4513 -0.3012
  116DG      H3 2648   2.469   2.348   4.334  0.7832  1.5123  0.5749
  116DG      H4 2649   2.304   2.365   4.259 -0.9895  1.6767  0.8300
  116DG      H5 2650   2.329   2.345   4.437  3.2767 -1.5430  1.5213
  116DG      H6 2651   1.870   2.897   4.390 -2.0812  0.9043  3.2521
  116DG      H7 2652   1.875   2.722   4.382  1.3689 -1.5139  0.2375
  116DG      H8 2653   1.875   2.807   4.542  3.1718 -0.6706  1.0128
  116DG      O9 2654   2.370   2.525   4.353 -0.0639 -0.2435 -0.2038
  116DG     O10 2655   2.055   2.822   4.445 -0.3062 -0.7078 -0.1614
  116DG     C11 2656   2.460   2.580   4.455 -0.0831 -0.0466  0.3900
  116DG     C12 2657   2.109   2.890   4.558  0.6117 -0.3573  0.3453
  116DG     H13 2658   2.566   2.573   4.431  0.0757 -0.1123  1.0844
  116DG     H14 2659   2.440   2.529   4.550 -0.0566 -1.8479 -0.5236
  116DG     H15 2660   2.074   2.845   4.651 -0.6026 -0.5788 -0.2053
  116DG     H16 2661   2.083   2.996   4.557 -0.1163 -0.5341  0.4831
  116DG     C17 2662   2.433   2.726   4.465 -0.0500 -0.2488  0.4395
  116DG     C18 2663   2.259   2.882   4.537  0.4007  0.4931 -0.1962
  116DG     O19 2664   2.294   2.747   4.500  0.0737  0.6622 -0.3511
  116DG     H20 2665   2.460   2.784   4.376 -0.7269 -1.1461 -0.3627
  116DG     H21 2666   2.487   2.765   4.551 -1.6505  2.0653  0.4811
  116DG     H22 2667   2.284   2.951   4.456 -0.5270 -0.5602 -1.4231
  116DG     H23 2668   2.320   2.903   4.625  0.1845  1.6072 -0.2934
  117DG      C1 2669   0.140   2.730   3.583 -0.3634  0.0081 -0.0921
  117DG      C2 2670   0.591   2.485   3.260  0.4718 -0.4236  0.7115
  117DG      H3 2671   0.074   2.769   3.661  0.0918  2.2704 -0.7835
  117DG      H4 2672   0.094   2.643   3.536  0.6105 -1.2610  1.1994
  117DG      H5 2673   0.151   2.790   3.494  1.2531 -1.0201 -0.6286
  117DG      H6 2674   0.568   2.380   3.243  2.2651 -0.8667  0.8502
  117DG      H7 2675   0.514   2.546   3.212  0.0804 -1.2447  0.2745
  117DG      H8 2676   0.680   2.511   3.202  0.1115  2.3515  1.2746
  117DG      O9 2677   0.266   2.701   3.633  0.1706  0.4129  0.0105
  117DG     O10 2678   0.606   2.519   3.397 -0.4154  0.2168  0.1385
  117DG     C11 2679   0.342   2.813   3.664  0.2274  0.0724  0.2580
  117DG     C12 2680   0.694   2.630   3.411 -0.7288  0.3391 -0.4468
  117DG     H13 2681   0.302   2.865   3.751 -2.3852  0.5567 -1.1190
  117DG     H14 2682   0.335   2.887   3.584  2.1686 -2.2618 -2.2658
  117DG     H15 2683   0.696   2.701   3.329  1.2806  1.6405  0.6556
  117DG     H16 2684   0.796   2.594   3.404 -0.6980  0.4640 -0.6201
  117DG     C17 2685   0.489   2.780   3.676 -0.0765  0.4706  0.5568
  117DG     C18 2686   0.674   2.696   3.546  0.0796 -0.2442 -0.2608
  117DG     O19 2687   0.535   2.728   3.549  0.0108  0.1877  0.1730
  117DG     H20 2688   0.488   2.715   3.764 -2.1277  1.6187  1.4566
  117DG     H21 2689   0.543   2.873   3.696 -0.9401  0.8354  1.2261
  117DG     H22 2690   0.694   2.622   3.623  3.7085 -0.6518 -1.3921
  117DG     H23 2691   0.731   2.788   3.565  1.8102 -1.4420  0.6276
  118DG      C1 2692   0.225   1.938   5.386  0.4536  0.0029  0.1870
  118DG      C2 2693   0.432   2.294   5.915 -0.3674  0.3165 -0.0885
  118DG      H3 2694   0.133   1.993   5.364 -1.0314 -2.3275  0.2669
  118DG      H4 2695   0.235   1.844   5.333  1.1037 -0.1035  0.4971
  118DG      H5 2696   0.293   2.005   5.333 -0.5914  1.3983  0.5413
  118DG      H6 2697   0.439   2.213   5.988 -1.4564  0.4755  0.2136
  118DG      H7 2698   0.526   2.299   5.860 -1.2734  1.4029 -1.6092
  118DG      H8 2699   0.419   2.390   5.965 -2.0832 -0.4488  1.0432
  118DG      O9 2700   0.256   1.930   5.529 -0.4186 -0.0007  0.6082
  118DG     O10 2701   0.339   2.277   5.815  0.2123  0.0769 -0.0182
  118DG     C11 2702   0.153   1.903   5.619  0.6747 -0.3358 -0.2371
  118DG     C12 2703   0.205   2.300   5.856  0.1267 -0.1972 -0.0248
  118DG     H13 2704   0.193   1.849   5.705  3.5315  1.4299 -0.2980
  118DG     H14 2705   0.079   1.840   5.571 -1.2069 -0.6945  2.8760
  118DG     H15 2706   0.178   2.402   5.882  0.3743  0.0608 -0.7440
  118DG     H16 2707   0.170   2.245   5.943 -3.3736 -2.2652 -2.5156
  118DG     C17 2708   0.075   2.022   5.662  0.0660 -0.8600 -0.3156
  118DG     C18 2709   0.116   2.245   5.751  0.9153  0.0479 -0.0028
  118DG     O19 2710   0.167   2.108   5.725 -0.2381  0.4647 -0.5479
  118DG     H20 2711  -0.005   2.005   5.734 -0.1629 -1.3334 -0.6760
  118DG     H21 2712   0.022   2.065   5.577 -1.4267 -0.1382  0.9250
  118DG     H22 2713   0.011   2.254   5.777  0.8860 -0.2137 -0.0289
  118DG     H23 2714   0.124   2.301   5.658  4.5921  0.8921  0.6727
  119DG      C1 2715   1.419   4.018   1.173 -0.2055  0.1307  0.5777
  119DG      C2 2716   1.981   4.275   0.999  0.7398 -0.2471  0.5185
  119DG      H3 2717   1.311   4.027   1.169 -0.0150  3.1120 -0.9783
  119DG      H4 2718   1.448   4.082   1.257  0.3177 -0.2539  0.6962
  119DG      H5 2719   1.456   3.917   1.194  0.1359  0.4765  1.7121
  119DG      H6 2720   2.069   4.307   0.944  0.2940  0.7287  0.3426
  119DG      H7 2721   1.995   4.320   1.098  0.6346  0.8849  0.0349
  119DG      H8 2722   1.983   4.167   1.012 -1.9739 -0.2832  1.4019
  119DG      O9 2723   1.495   4.067   1.065  0.2278 -0.1197  0.6309
  119DG     O10 2724   1.850   4.301   0.945 -0.2318  0.4176  0.6029
  119DG     C11 2725   1.421   4.157   0.979 -0.4573 -0.4101  0.1656
  119DG     C12 2726   1.845   4.267   0.808  0.5257  1.2075 -0.0767
  119DG     H13 2727   1.422   4.251   1.033 -0.6019 -0.1127 -0.3455
  119DG     H14 2728   1.318   4.122   0.985  0.5388 -3.4073  2.0686
  119DG     H15 2729   1.873   4.162   0.801 -2.0115  0.3077  1.6779
  119DG     H16 2730   1.912   4.317   0.737  0.6927 -0.4712 -1.1613
  119DG     C17 2731   1.486   4.190   0.845 -0.3399  0.0587 -0.4638
  119DG     C18 2732   1.696   4.272   0.763 -0.0156  0.2674 -0.0526
  119DG     O19 2733   1.621   4.209   0.866 -0.2477 -0.0701 -0.6384
  119DG     H20 2734   1.449   4.289   0.819 -0.6006  0.3758  1.0593
  119DG     H21 2735   1.469   4.111   0.771  3.0037 -1.5208  0.2615
  119DG     H22 2736   1.662   4.376   0.758  1.0329  0.7251  1.4046
  119DG     H23 2737   1.684   4.215   0.671  0.5213 -1.7324  1.0513
  120DG      C1 2738   3.177   0.751   3.884 -1.0095  0.3200 -0.5691
  120DG      C2 2739   3.038   0.371   3.357  0.2161 -0.0296 -0.1197
  120DG      H3 2740   3.277   0.781   3.856 -1.2180 -1.6707 -4.1522
  120DG      H4 2741   3.191   0.652   3.928 -0.3506  0.1692 -1.1164
  120DG      H5 2742   3.140   0.808   3.969 -1.1678  0.0639 -0.4606
  120DG      H6 2743   3.117   0.333   3.422  1.1789 -1.2060 -1.8995
  120DG      H7 2744   2.947   0.313   3.373 -0.6372  0.6116 -2.2824
  120DG      H8 2745   3.065   0.368   3.251 -1.0411 -2.4133 -0.4282
  120DG      O9 2746   3.097   0.770   3.771  0.4328  0.4899 -0.1918
  120DG     O10 2747   3.017   0.504   3.406 -0.3142  0.0574 -0.2363
  120DG     C11 2748   2.965   0.794   3.803  0.5705  0.1020 -0.8069
  120DG     C12 2749   2.875   0.551   3.394 -0.6182 -0.1241 -0.1669
  120DG     H13 2750   2.956   0.880   3.870  0.7291  0.2068 -0.9183
  120DG     H14 2751   2.918   0.712   3.856 -0.3848  2.3603  2.1035
  120DG     H15 2752   2.809   0.478   3.441  0.4260 -1.5055 -0.7704
  120DG     H16 2753   2.850   0.543   3.288 -0.2739 -0.8407 -0.2015
  120DG     C17 2754   2.901   0.817   3.661 -0.1274  0.1792  0.0863
  120DG     C18 2755   2.856   0.697   3.453  0.4911  0.4062  0.6373
  120DG     O19 2756   2.913   0.698   3.585 -0.1561  0.0113  0.0129
  120DG     H20 2757   2.955   0.896   3.608  1.2005 -1.8721 -1.7701
  120DG     H21 2758   2.795   0.843   3.668 -0.7471 -1.9760 -0.4670
  120DG     H22 2759   2.916   0.760   3.387  1.8289 -1.1615  0.3152
  120DG     H23 2760   2.754   0.735   3.450  0.2897 -0.1587  0.2397
  121DG      C1 2761   2.403   3.045   3.206 -0.5145  0.0055  0.0591
  121DG      C2 2762   1.998   3.457   3.512 -0.2902  0.6797 -0.1941
  121DG      H3 2763   2.425   3.071   3.102 -1.1474 -1.0364 -0.3533
  121DG      H4 2764   2.497   3.057   3.260 -0.3408 -0.7083 -0.0696
  121DG      H5 2765   2.347   3.124   3.255  0.0065  0.5376 -0.1824
  121DG      H6 2766   2.040   3.528   3.440 -1.2775 -1.5319 -3.1239
  121DG      H7 2767   1.891   3.474   3.515 -0.3145  0.7291 -1.0326
  121DG      H8 2768   2.043   3.462   3.611 -2.8536 -1.3615  1.1980
  121DG      O9 2769   2.347   2.912   3.221 -0.0311 -0.4457  0.0525
  121DG     O10 2770   2.017   3.326   3.461  0.8600  0.2077 -0.6985
  121DG     C11 2771   2.260   2.901   3.334  0.1135 -0.2887 -0.2803
  121DG     C12 2772   1.980   3.298   3.325  0.5660 -0.4505  0.2173
  121DG     H13 2773   2.300   2.939   3.428  0.0876 -1.7579  0.3453
  121DG     H14 2774   2.245   2.798   3.366  0.9394 -0.1675  0.5446
  121DG     H15 2775   2.046   3.354   3.258 -0.5922 -1.9293 -2.3158
  121DG     H16 2776   1.877   3.326   3.301 -0.9309 -3.8972  1.9163
  121DG     C17 2777   2.119   2.954   3.304  0.2676  0.4003  0.0416
  121DG     C18 2778   1.975   3.140   3.310 -0.6284  0.2618  0.0547
  121DG     O19 2779   2.107   3.093   3.308 -0.1202  0.2020 -0.4161
  121DG     H20 2780   2.054   2.914   3.382 -1.5237 -0.4756 -1.8360
  121DG     H21 2781   2.080   2.909   3.213  3.0568 -1.0165 -0.5677
  121DG     H22 2782   1.912   3.092   3.385  1.0743 -0.9691  0.7572
  121DG     H23 2783   1.946   3.125   3.206  1.3232  0.6858 -0.6037
  122DG      C1 2784   5.125   3.993   0.081  1.3880 -0.1811  0.4244
  122DG      C2 2785   4.535   4.366  -0.320  0.6491  0.0275  0.6383
  122DG      H3 2786   5.121   4.001   0.189  2.3746 -2.0239  0.6352
  122DG      H4 2787   5.231   3.969   0.074  1.1909 -3.1163  4.3617
  122DG      H5 2788   5.063   3.909   0.050 -1.8905  1.5790  1.7249
  122DG      H6 2789   4.524   4.382  -0.427 -2.4367 -1.0639  0.6789
  122DG      H7 2790   4.440   4.330  -0.279  0.9777 -0.1874  1.2105
  122DG      H8 2791   4.573   4.459  -0.276  4.2183 -0.1822 -1.5851
  122DG      O9 2792   5.083   4.109   0.014  0.3515 -0.6804 -0.5373
  122DG     O10 2793   4.637   4.268  -0.306  0.0095 -0.4558 -0.1330
  122DG     C11 2794   4.963   4.157   0.065 -0.3084  0.0972  0.3236
  122DG     C12 2795   4.769   4.298  -0.346 -0.8591  0.2897  0.7420
  122DG     H13 2796   4.969   4.174   0.173  2.8579 -0.7064  0.3689
  122DG     H14 2797   4.894   4.073   0.063  1.6376 -1.6577  1.7564
  122DG     H15 2798   4.764   4.364  -0.433  0.0829 -0.7925 -0.1516
  122DG     H16 2799   4.823   4.211  -0.381 -1.3478  0.0238  0.6356
  122DG     C17 2800   4.917   4.284  -0.006 -0.1644  0.1043 -0.0287
  122DG     C18 2801   4.842   4.354  -0.224  0.0927 -0.8640  0.0252
  122DG     O19 2802   4.891   4.248  -0.138  0.3229 -0.4585 -0.0685
  122DG     H20 2803   4.991   4.364  -0.013  1.5865 -1.4776 -0.5531
  122DG     H21 2804   4.822   4.319   0.035 -0.2070  0.3992 -0.3740
  122DG     H22 2805   4.918   4.420  -0.266 -2.4536  1.2375 -1.5536
  122DG     H23 2806   4.775   4.423  -0.173  0.4797 -0.3694 -0.1222
  123DG      C1 2807   3.372   1.623   5.214 -0.9380 -0.0124  0.3070
  123DG      C2 2808   3.442   1.664   5.946  0.0913  0.2491 -0.0048
  123DG      H3 2809   3.352   1.519   5.240 -1.1978 -0.0571 -0.0709
  123DG      H4 2810   3.462   1.611   5.153 -2.5051  0.1601 -2.1723
  123DG      H5 2811   3.310   1.666   5.135  0.5199  0.1150 -0.8163
  123DG      H6 2812   3.378   1.747   5.916  1.2871  2.1070  2.2841
  123DG      H7 2813   3.398   1.642   6.043 -0.8467 -1.1297 -0.7032
  123DG      H8 2814   3.536   1.718   5.958 -1.1888  2.1836  2.0156
  123DG      O9 2815   3.385   1.714   5.325  0.3896  0.1270 -0.0288
  123DG     O10 2816   3.445   1.565   5.849 -0.6240  0.4147 -0.4857
  123DG     C11 2817   3.496   1.678   5.414 -0.7072  0.7648  0.9120
  123DG     C12 2818   3.320   1.511   5.806 -0.2122  0.4418 -0.8204
  123DG     H13 2819   3.584   1.742   5.411 -0.4139  0.3888  1.4181
  123DG     H14 2820   3.540   1.580   5.396  2.7300  2.1380  1.2241
  123DG     H15 2821   3.255   1.481   5.888 -0.7732 -0.5317 -1.5984
  123DG     H16 2822   3.338   1.415   5.759 -0.6224  0.0760 -0.2442
  123DG     C17 2823   3.450   1.682   5.562  0.4277 -1.1044 -0.0302
  123DG     C18 2824   3.254   1.590   5.690 -0.2915 -0.0610 -0.4953
  123DG     O19 2825   3.338   1.585   5.575  0.2618  0.5442 -0.1416
  123DG     H20 2826   3.422   1.785   5.584  1.7672  0.3800 -4.3225
  123DG     H21 2827   3.536   1.659   5.625  0.1066  0.2697  0.9507
  123DG     H22 2828   3.165   1.533   5.663 -0.0828 -0.1359 -1.0341
  123DG     H23 2829   3.226   1.693   5.712 -0.9724 -0.4401  0.5052
  124DG      C1 2830   0.713   4.183   2.290  0.3334  0.4599  0.6800
  124DG      C2 2831   0.390   4.475   2.784 -0.6083 -0.4895 -0.5642
  124DG      H3 2832   0.652   4.201   2.201 -0.2698  2.3554  1.4179
  124DG      H4 2833   0.681   4.084   2.322 -1.9051 -1.0319 -4.8977
  124DG      H5 2834   0.818   4.179   2.262 -0.1556  0.1354 -1.2775
  124DG      H6 2835   0.454   4.532   2.851 -0.0230 -1.8605  0.1010
  124DG      H7 2836   0.284   4.487   2.807 -0.5857 -0.5718 -0.4137
  124DG      H8 2837   0.410   4.369   2.801  1.3664  0.0878  1.0759
  124DG      O9 2838   0.688   4.298   2.371 -0.2130  0.4176 -0.3953
  124DG     O10 2839   0.421   4.492   2.646  0.2062 -0.6479  0.4652
  124DG     C11 2840   0.739   4.422   2.319  0.2414 -0.3048  0.8519
  124DG     C12 2841   0.441   4.628   2.597 -0.3110 -0.2215  0.2838
  124DG     H13 2842   0.711   4.428   2.214  0.7663  1.2846  0.7643
  124DG     H14 2843   0.848   4.425   2.328  0.4932 -1.1791 -1.4454
  124DG     H15 2844   0.538   4.664   2.633  1.1483 -2.6135 -0.9472
  124DG     H16 2845   0.363   4.695   2.632 -1.2579  0.0713 -2.1651
  124DG     C17 2846   0.672   4.549   2.385  0.6300  0.4179 -0.0604
  124DG     C18 2847   0.451   4.629   2.451  0.4215 -0.8541  0.3175
  124DG     O19 2848   0.529   4.518   2.387 -0.0005  0.3169 -0.4575
  124DG     H20 2849   0.679   4.642   2.328 -0.2852 -0.0052 -0.8984
  124DG     H21 2850   0.705   4.562   2.488  1.1207  1.3627 -0.3211
  124DG     H22 2851   0.349   4.618   2.412  1.1104  0.2017 -1.9557
  124DG     H23 2852   0.475   4.730   2.419  0.3528 -0.5912  1.0924
  125DG      C1 2853   3.723   5.217   1.186  0.0749 -0.0795 -0.2617
  125DG      C2 2854   3.888   5.057   0.541 -0.6096  0.4984  0.5096
  125DG      H3 2855   3.725   5.321   1.218 -1.2980  0.3108 -1.3639
  125DG      H4 2856   3.719   5.160   1.279 -1.5450 -0.7931 -0.7360
  125DG      H5 2857   3.632   5.206   1.129  0.7016  0.7725 -1.4673
  125DG      H6 2858   3.834   4.963   0.551  0.3329  0.1556  3.4828
  125DG      H7 2859   3.825   5.139   0.506  0.4686  1.7004  1.2905
  125DG      H8 2860   3.964   5.050   0.462  0.0205  2.3911  0.8824
  125DG      O9 2861   3.818   5.183   1.091 -0.2853  0.0635 -0.0091
  125DG     O10 2862   3.941   5.088   0.663 -0.1627 -0.0912 -0.5230
  125DG     C11 2863   3.941   5.152   1.156  0.2227 -0.4386 -0.3146
  125DG     C12 2864   4.041   4.997   0.700  0.0820 -0.2757  0.1835
  125DG     H13 2865   3.923   5.063   1.215 -0.8532  1.2523  2.0589
  125DG     H14 2866   3.971   5.237   1.218 -0.6299 -0.7077  0.4813
  125DG     H15 2867   4.113   4.995   0.619 -0.0430  1.0554  0.0170
  125DG     H16 2868   4.011   4.895   0.721  0.9835 -0.3323  1.2934
  125DG     C17 2869   4.051   5.126   1.044 -0.0449  0.0893 -0.2526
  125DG     C18 2870   4.109   5.051   0.826 -0.0150 -0.2630 -0.5501
  125DG     O19 2871   4.003   5.062   0.924 -0.4916  0.3554 -0.0986
  125DG     H20 2872   4.128   5.064   1.089  0.7015  0.0303 -1.5497
  125DG     H21 2873   4.102   5.216   1.010  0.3955  0.0231  0.2208
  125DG     H22 2874   4.186   4.986   0.868  0.3076  1.3755  1.5730
  125DG     H23 2875   4.156   5.148   0.810 -1.6680  0.7455  0.3969
  126DG      C1 2876   0.546   2.126   1.320  0.3363 -0.4461 -0.4755
  126DG      C2 2877   0.715   2.148   0.656  0.1428  0.2361  0.4752
  126DG      H3 2878   0.652   2.107   1.300  0.7074  0.1345  0.8504
  126DG      H4 2879   0.497   2.029   1.329 -0.5610  0.1643  1.7785
  126DG      H5 2880   0.546   2.167   1.421  0.1910 -2.5502  0.4471
  126DG      H6 2881   0.732   2.197   0.560  0.9693 -1.6839 -0.4062
  126DG      H7 2882   0.803   2.147   0.720 -0.9591 -0.0241  2.0249
  126DG      H8 2883   0.698   2.043   0.634  0.2159  0.5432 -1.1936
  126DG      O9 2884   0.479   2.205   1.228  0.5136 -0.2488 -0.1822
  126DG     O10 2885   0.602   2.203   0.724 -0.2428 -0.4453 -0.3557
  126DG     C11 2886   0.544   2.333   1.213  0.0030 -0.4814  0.6189
  126DG     C12 2887   0.627   2.344   0.752  0.3851 -0.6301  0.3477
  126DG     H13 2888   0.652   2.319   1.219  0.2997  1.5816  0.7708
  126DG     H14 2889   0.511   2.392   1.298 -2.1875  0.3221 -0.7124
  126DG     H15 2890   0.626   2.399   0.657  1.3522 -2.3077 -0.6866
  126DG     H16 2891   0.724   2.359   0.799 -0.2191 -0.3654  1.5346
  126DG     C17 2892   0.489   2.396   1.084  0.4804  0.4868 -0.1338
  126DG     C18 2893   0.523   2.395   0.848  0.1615  0.4909  0.5727
  126DG     O19 2894   0.542   2.326   0.972 -0.0535  0.3560 -0.1485
  126DG     H20 2895   0.533   2.496   1.086  2.2303 -0.2538  0.9176
  126DG     H21 2896   0.381   2.410   1.081  0.3607 -0.3976 -2.8607
  126DG     H22 2897   0.545   2.500   0.869 -0.2759  0.3779  1.7039
  126DG     H23 2898   0.426   2.383   0.799 -0.1264  2.2686  0.6535
  127DG      C1 2899   2.381   3.211   1.271  0.1421  0.0616 -0.5805
  127DG      C2 2900   2.085   2.845   1.923 -0.7670  0.4354  0.2007
  127DG      H3 2901   2.418   3.313   1.279 -2.1964  0.9288 -0.0263
  127DG      H4 2902   2.290   3.225   1.213 -1.0467  1.6366  1.4993
  127DG      H5 2903   2.448   3.142   1.221 -0.9727  0.1967 -2.3406
  127DG      H6 2904   1.983   2.884   1.922 -0.7781  0.5660 -3.0426
  127DG      H7 2905   2.092   2.740   1.896 -0.4799  0.3111  0.7417
  127DG      H8 2906   2.138   2.847   2.018  0.2994  0.5501 -0.3856
  127DG      O9 2907   2.341   3.169   1.399 -0.0137  0.0078 -0.2830
  127DG     O10 2908   2.146   2.921   1.825  0.6450  0.0170 -0.4278
  127DG     C11 2909   2.426   3.091   1.469 -0.4643  0.4040  0.2758
  127DG     C12 2910   2.150   3.061   1.853  0.0754 -0.2507 -0.3675
  127DG     H13 2911   2.530   3.115   1.445 -0.7772  0.9092 -0.6181
  127DG     H14 2912   2.409   2.985   1.452  0.0621  0.2781  0.4847
  127DG     H15 2913   2.106   3.087   1.949 -2.0066 -0.8629 -1.0884
  127DG     H16 2914   2.074   3.102   1.787 -0.9002  0.9863  1.4368
  127DG     C17 2915   2.418   3.124   1.623  0.1336  0.3366  0.0382
  127DG     C18 2916   2.288   3.112   1.816  0.2693 -0.5374 -0.4645
  127DG     O19 2917   2.299   3.070   1.682  0.5983  0.1383  0.2485
  127DG     H20 2918   2.428   3.233   1.632  1.6510  0.1652  0.7548
  127DG     H21 2919   2.497   3.073   1.678  0.8586 -2.3099 -3.1441
  127DG     H22 2920   2.296   3.220   1.826  0.7894 -0.5986 -0.2209
  127DG     H23 2921   2.364   3.064   1.876 -1.6408 -2.0478  0.8848
  128DG      C1 2922   4.601   4.046   1.185  0.0113 -0.4147  0.5682
  128DG      C2 2923   4.905   3.789   1.811 -0.0448  0.3248 -0.3103
  128DG      H3 2924   4.542   3.978   1.123 -0.4446 -0.3744  0.9542
  128DG      H4 2925   4.620   4.122   1.108 -1.2998 -0.1358  0.5043
  128DG      H5 2926   4.554   4.096   1.269 -2.0803 -1.1037 -0.1221
  128DG      H6 2927   4.881   3.686   1.839  0.6786  0.8571  2.6311
  128DG      H7 2928   5.012   3.801   1.829 -0.0085 -0.7972  0.3226
  128DG      H8 2929   4.843   3.848   1.878 -0.2623  0.2806 -0.4717
  128DG      O9 2930   4.724   3.996   1.238  0.1298 -0.5789  0.1930
  128DG     O10 2931   4.865   3.830   1.679  0.4485 -0.6588 -0.4998
  128DG     C11 2932   4.833   4.088   1.255 -0.1505  0.3542 -0.9163
  128DG     C12 2933   4.938   3.771   1.577 -0.2865  0.6190 -0.1943
  128DG     H13 2934   4.806   4.166   1.326  2.6295 -0.8765  1.7120
  128DG     H14 2935   4.856   4.138   1.160  0.6550  1.0869 -0.3557
  128DG     H15 2936   4.897   3.670   1.582 -0.6409  0.8089  1.4406
  128DG     H16 2937   5.045   3.759   1.590 -0.7161 -2.1630  1.6707
  128DG     C17 2938   4.969   4.029   1.321  0.0997 -0.4416 -0.2337
  128DG     C18 2939   4.897   3.838   1.446  1.1562 -0.3884  0.0560
  128DG     O19 2940   4.944   3.974   1.443  0.0913  0.3723 -0.2378
  128DG     H20 2941   5.038   4.107   1.350  0.4318 -0.5657 -0.6928
  128DG     H21 2942   5.020   3.960   1.254 -0.9520 -0.9336 -0.5479
  128DG     H22 2943   4.943   3.792   1.358 -1.3552  1.6936 -2.5347
  128DG     H23 2944   4.789   3.829   1.431  1.1937 -1.2408  0.2313
  129DG      C1 2945   5.080   5.052   1.076  0.3052  0.0706 -0.3800
  129DG      C2 2946   4.357   4.985   1.195 -0.2936 -0.2948  0.6314
  129DG      H3 2947   5.090   4.996   0.983  2.3707  1.3042 -0.9718
  129DG      H4 2948   5.172   5.041   1.134  0.4326  0.5994 -0.4771
  129DG      H5 2949   5.049   5.154   1.051 -2.1679 -0.5091  0.0511
  129DG      H6 2950   4.281   4.959   1.270  0.7268 -0.6121  1.5823
  129DG      H7 2951   4.345   5.086   1.156  0.8789 -1.3097 -2.6644
  129DG      H8 2952   4.337   4.924   1.107  0.3697 -1.5963  1.3488
  129DG      O9 2953   4.967   5.004   1.155  0.3189 -0.6477  0.0306
  129DG     O10 2954   4.487   4.972   1.247  0.0515 -0.3432 -0.1260
  129DG     C11 2955   4.977   4.864   1.173  0.7688  0.3687  0.3437
  129DG     C12 2956   4.513   4.846   1.303  0.4117 -0.7736 -1.0047
  129DG     H13 2957   5.079   4.833   1.197 -0.1553 -1.2431  2.5952
  129DG     H14 2958   4.966   4.818   1.075 -1.7659  0.7412  0.3978
  129DG     H15 2959   4.480   4.775   1.226 -3.2389 -0.5272  0.1541
  129DG     H16 2960   4.452   4.828   1.391  0.7611  1.4281 -0.2778
  129DG     C17 2961   4.876   4.807   1.271  0.4514  0.5210 -0.3575
  129DG     C18 2962   4.653   4.819   1.343  0.0555  0.3384  0.1472
  129DG     O19 2963   4.749   4.859   1.245  0.3108  0.0502  0.4056
  129DG     H20 2964   4.914   4.836   1.369  1.5358  1.6301 -1.0798
  129DG     H21 2965   4.873   4.699   1.262 -0.2208  0.5289 -0.2547
  129DG     H22 2966   4.677   4.878   1.431  1.6375  2.0035 -1.3198
  129DG     H23 2967   4.668   4.713   1.366 -1.7721 -0.0042 -0.1287
  130DG      C1 2968   3.773   4.801   0.974  0.4588  0.2669 -0.6662
  130DG      C2 2969   3.757   5.424   0.683 -0.0032  0.1848  0.8811
  130DG      H3 2970   3.871   4.843   0.998  0.2372  0.3599  0.0645
  130DG      H4 2971   3.790   4.693   0.967 -0.9274 -0.2564  2.5437
  130DG      H5 2972   3.693   4.834   1.040 -0.3257 -1.4136 -0.7253
  130DG      H6 2973   3.848   5.438   0.740  0.2150  2.6268  0.0598
  130DG      H7 2974   3.796   5.394   0.586  1.6392 -0.2263  1.6448
  130DG      H8 2975   3.714   5.522   0.661 -3.2796 -1.3654 -0.3163
  130DG      O9 2976   3.747   4.854   0.849  0.0103 -0.3266  0.2117
  130DG     O10 2977   3.682   5.324   0.753 -0.0361  0.2216  0.0247
  130DG     C11 2978   3.626   4.809   0.790  0.1409  0.8401  0.3113
  130DG     C12 2979   3.549   5.295   0.705 -0.4184  0.7940  0.4764
  130DG     H13 2980   3.588   4.715   0.830  0.0294  0.5240 -0.5240
  130DG     H14 2981   3.653   4.796   0.685  0.0039 -0.7003  0.4444
  130DG     H15 2982   3.557   5.272   0.599 -1.0063  0.8888  0.4117
  130DG     H16 2983   3.467   5.366   0.708 -0.6815  0.5000  0.3093
  130DG     C17 2984   3.528   4.925   0.805 -0.5393 -0.1051 -0.3656
  130DG     C18 2985   3.495   5.165   0.769 -0.3319 -0.1324 -0.1708
  130DG     O19 2986   3.581   5.047   0.750 -0.3590 -0.1093 -0.4122
  130DG     H20 2987   3.497   4.939   0.908  0.0206 -1.2421 -0.0259
  130DG     H21 2988   3.431   4.901   0.761 -1.1152  0.2281  0.7109
  130DG     H22 2989   3.473   5.191   0.873 -1.3264 -0.9308 -0.1647
  130DG     H23 2990   3.400   5.139   0.722 -0.3471  0.0719 -0.2546
  131DG      C1 2991   1.368   2.451   3.492 -0.3435  0.2696 -0.0285
  131DG      C2 2992   1.842   1.886   3.433  0.3767 -0.3967  0.4648
  131DG      H3 2993   1.363   2.462   3.600  0.9616  0.6754  0.0095
  131DG      H4 2994   1.277   2.407   3.451 -1.3713  0.6925  1.6702
  131DG      H5 2995   1.349   2.550   3.452 -2.4185  0.2099  0.7018
  131DG      H6 2996   1.943   1.871   3.393 -0.1782 -1.8167 -0.4491
  131DG      H7 2997   1.844   1.875   3.541  0.3762  1.0907  0.6371
  131DG      H8 2998   1.778   1.806   3.397  1.7091 -0.7745 -1.2148
  131DG      O9 2999   1.489   2.404   3.441 -0.6970  0.1256  0.5086
  131DG     O10 3000   1.790   2.018   3.417  0.3360  0.6082 -0.2549
  131DG     C11 3001   1.483   2.402   3.302 -0.2112  0.3158  0.4919
  131DG     C12 3002   1.765   2.044   3.281  0.0313  0.0008  0.5003
  131DG     H13 3003   1.446   2.490   3.250  1.4666  1.6633  1.4878
  131DG     H14 3004   1.411   2.326   3.272  1.3554 -0.8958 -0.3559
  131DG     H15 3005   1.676   1.996   3.240 -0.7056  0.6121  1.3627
  131DG     H16 3006   1.849   1.992   3.233 -0.3480  0.8958 -1.2180
  131DG     C17 3007   1.618   2.378   3.245  0.5885  0.3330 -0.3915
  131DG     C18 3008   1.770   2.191   3.244  0.0020  0.7745 -0.6380
  131DG     O19 3009   1.651   2.241   3.285  0.4629 -0.2120 -0.0123
  131DG     H20 3010   1.693   2.451   3.275  0.7079  0.9993 -2.1955
  131DG     H21 3011   1.612   2.373   3.136  0.3010 -0.0860 -0.3603
  131DG     H22 3012   1.856   2.247   3.279 -0.6806  1.1645  0.4934
  131DG     H23 3013   1.783   2.200   3.136  0.0301 -2.0073 -0.9426
  132DG      C1 3014   0.294   2.770   3.163 -0.4430  0.3646 -0.5288
  132DG      C2 3015   0.423   2.382   3.691  0.0811  0.7066  0.1087
  132DG      H3 3016   0.330   2.851   3.227 -2.7533  1.5291 -0.5974
  132DG      H4 3017   0.223   2.817   3.095 -1.0182  1.6143  0.8788
  132DG      H5 3018   0.374   2.735   3.098 -1.2346 -1.1739 -0.7350
  132DG      H6 3019   0.391   2.351   3.790  1.2396  1.0857  0.6187
  132DG      H7 3020   0.487   2.311   3.639 -0.8379  0.5776 -0.8562
  132DG      H8 3021   0.485   2.470   3.709 -0.7342  0.7892  2.9291
  132DG      O9 3022   0.234   2.666   3.241  0.0161 -0.1098  0.6741
  132DG     O10 3023   0.307   2.420   3.612  0.3014 -0.1888 -0.1321
  132DG     C11 3024   0.150   2.581   3.165 -0.4284 -0.7512 -0.2855
  132DG     C12 3025   0.238   2.305   3.557  0.6708 -0.1895 -0.2969
  132DG     H13 3026   0.195   2.545   3.073 -1.1294 -3.3582  0.3064
  132DG     H14 3027   0.064   2.634   3.121  0.6848  0.3411 -1.2187
  132DG     H15 3028   0.202   2.251   3.645 -2.4010  2.7266  0.4533
  132DG     H16 3029   0.306   2.255   3.489  3.1476 -0.1303  1.9821
  132DG     C17 3030   0.094   2.462   3.250  0.0310 -0.3631  0.2611
  132DG     C18 3031   0.125   2.351   3.455  0.5819  0.4512  0.1329
  132DG     O19 3032   0.177   2.444   3.361 -0.0916  0.2462  0.1560
  132DG     H20 3033   0.082   2.362   3.207 -1.3354 -1.2276  2.4673
  132DG     H21 3034  -0.005   2.483   3.291  0.5140  0.7721  0.8794
  132DG     H22 3035   0.092   2.259   3.406  1.6913 -1.0967  2.1480
  132DG     H23 3036   0.035   2.381   3.508 -0.4729 -3.1438  0.5826
  133DG      C1 3037   0.434   1.551   3.132 -0.3639  0.3103 -0.0026
  133DG      C2 3038   0.173   1.950   3.573  0.1466  1.1086  0.3249
  133DG      H3 3039   0.478   1.464   3.083  0.3187  1.0117 -0.6439
  133DG      H4 3040   0.531   1.601   3.141  1.1982 -2.6544  1.4170
  133DG      H5 3041   0.368   1.604   3.064  0.9168  1.0672 -0.6861
  133DG      H6 3042   0.145   2.022   3.496  0.8579 -1.5124 -2.5513
  133DG      H7 3043   0.116   1.958   3.666 -0.0954 -0.2975  0.3140
  133DG      H8 3044   0.276   1.971   3.601  1.7014 -5.2001  0.6058
  133DG      O9 3045   0.372   1.519   3.257  0.5493  0.0609  0.0907
  133DG     O10 3046   0.161   1.819   3.524  0.0530  0.2550 -0.3909
  133DG     C11 3047   0.248   1.450   3.226 -0.3040 -0.3628  0.4664
  133DG     C12 3048   0.030   1.759   3.499  0.7608 -0.4335  0.2417
  133DG     H13 3049   0.260   1.343   3.210  1.7437  0.0349 -1.0277
  133DG     H14 3050   0.197   1.491   3.139 -0.9143  0.8941  1.3818
  133DG     H15 3051  -0.004   1.786   3.399  0.8912  0.4246  0.4244
  133DG     H16 3052  -0.049   1.792   3.566  1.8233  0.0837  1.2843
  133DG     C17 3053   0.150   1.464   3.339  0.0772  0.4969 -0.8000
  133DG     C18 3054   0.043   1.605   3.490 -0.2861  0.6983 -0.2078
  133DG     O19 3055   0.126   1.593   3.373  0.5123 -0.1229 -0.4676
  133DG     H20 3056   0.198   1.414   3.423  4.0715  0.5852 -2.8150
  133DG     H21 3057   0.054   1.415   3.323  0.4238 -0.6798  0.5271
  133DG     H22 3058   0.075   1.556   3.582  2.2959 -0.4608 -1.5950
  133DG     H23 3059  -0.058   1.576   3.461 -1.4462  0.7061  3.3176
  134DG      C1 3060   0.834   0.576   1.311 -0.2585  1.0603 -0.3807
  134DG      C2 3061   0.479   0.998   0.924 -0.2710  0.2427 -0.1555
  134DG      H3 3062   0.927   0.626   1.281  1.9542 -1.9762  0.8239
  134DG      H4 3063   0.807   0.508   1.231 -0.4806 -1.1730  1.4958
  134DG      H5 3064   0.870   0.516   1.394  1.4483 -1.1564 -2.5510
  134DG      H6 3065   0.377   0.970   0.896 -1.7888 -0.5738  5.0903
  134DG      H7 3066   0.487   1.104   0.902  1.3577  0.2508  0.3705
  134DG      H8 3067   0.548   0.943   0.860  1.3526  0.3953  1.3877
  134DG      O9 3068   0.732   0.666   1.331  0.7961  0.2440 -0.7288
  134DG     O10 3069   0.517   0.949   1.052  0.0154 -0.2682 -0.2027
  134DG     C11 3070   0.613   0.616   1.399  0.2220 -0.2068  0.9450
  134DG     C12 3071   0.411   0.969   1.142 -0.1610 -0.3961 -0.6757
  134DG     H13 3072   0.630   0.573   1.497  0.3065 -2.2364  0.0882
  134DG     H14 3073   0.560   0.540   1.342 -1.4096  0.7759  1.0719
  134DG     H15 3074   0.317   0.925   1.109 -0.5400  0.2628 -0.4995
  134DG     H16 3075   0.396   1.077   1.154  3.4747  0.1195  0.3936
  134DG     C17 3076   0.508   0.728   1.413 -0.5609 -0.1345  0.0256
  134DG     C18 3077   0.459   0.915   1.279  0.1064 -0.0284 -0.6822
  134DG     O19 3078   0.507   0.782   1.284 -0.3971  0.0953 -0.8091
  134DG     H20 3079   0.555   0.796   1.484  1.6015  1.4239 -2.6920
  134DG     H21 3080   0.409   0.690   1.438 -1.0667  1.4139  0.4820
  134DG     H22 3081   0.534   0.981   1.322 -1.3470  2.9712 -2.3344
  134DG     H23 3082   0.373   0.930   1.345  1.2702 -0.7998  1.0602
  135DG      C1 3083   4.923   5.279   1.791  0.0882  0.1615 -0.0527
  135DG      C2 3084   4.586   5.240   2.414  0.6553  0.3415  0.5546
  135DG      H3 3085   4.965   5.179   1.778  0.8819  0.4791 -0.0127
  135DG      H4 3086   4.944   5.346   1.707  2.1676 -0.8598 -0.4383
  135DG      H5 3087   4.816   5.264   1.796 -0.2252  2.2479  0.2431
  135DG      H6 3088   4.584   5.267   2.520 -0.7186 -0.2730  0.7120
  135DG      H7 3089   4.480   5.235   2.386  0.7770  2.6137 -0.6144
  135DG      H8 3090   4.626   5.140   2.402  0.4776  0.3748 -0.3603
  135DG      O9 3091   4.956   5.332   1.918  0.4124  0.0940 -0.1894
  135DG     O10 3092   4.660   5.326   2.331 -0.3862  0.0841  0.1282
  135DG     C11 3093   4.925   5.473   1.937 -0.1451  0.1343 -0.3060
  135DG     C12 3094   4.792   5.345   2.382 -0.7315 -0.3825  0.0614
  135DG     H13 3095   4.820   5.486   1.910 -0.6414 -1.0808  0.9172
  135DG     H14 3096   4.988   5.530   1.868  1.6702  0.3175  1.4021
  135DG     H15 3097   4.851   5.258   2.353  0.4157 -0.2526  1.8350
  135DG     H16 3098   4.792   5.363   2.489  0.7111 -0.1542  0.0533
  135DG     C17 3099   4.933   5.516   2.083 -0.0797 -1.0159  0.2082
  135DG     C18 3100   4.857   5.464   2.302  0.2183 -0.1739  0.4659
  135DG     O19 3101   4.863   5.424   2.163 -0.5319 -0.2160  0.4492
  135DG     H20 3102   4.894   5.615   2.106 -2.2943 -1.4705 -1.2800
  135DG     H21 3103   5.037   5.502   2.113 -0.6072  0.1182  2.8538
  135DG     H22 3104   4.787   5.548   2.308  0.4903 -0.0288  2.4622
  135DG     H23 3105   4.951   5.485   2.354  0.4303 -1.5312  0.6664
  136DG      C1 3106   4.034   4.713   0.343  0.6551 -0.1078  0.3340
  136DG      C2 3107   3.897   4.549  -0.274  0.7359 -0.3725 -0.5114
  136DG      H3 3108   4.114   4.639   0.351 -0.2097 -1.0406  0.6497
  136DG      H4 3109   4.001   4.746   0.441 -1.1570 -0.2511 -0.1893
  136DG      H5 3110   4.095   4.795   0.308  1.7009 -1.2917 -0.7105
  136DG      H6 3111   3.950   4.644  -0.284 -0.3481  0.2134 -0.8183
  136DG      H7 3112   3.958   4.458  -0.279  1.2981  0.0702 -2.1970
  136DG      H8 3113   3.831   4.538  -0.360 -0.7630  0.5293  0.4748
  136DG      O9 3114   3.916   4.695   0.261 -0.2644 -0.3033 -0.1708
  136DG     O10 3115   3.822   4.559  -0.153 -0.8624 -0.9396  0.1371
  136DG     C11 3116   3.810   4.618   0.328  0.1767 -0.6744  0.4681
  136DG     C12 3117   3.738   4.454  -0.109 -0.9983 -0.3599 -0.2338
  136DG     H13 3118   3.774   4.669   0.417  0.7745 -1.3782  1.1175
  136DG     H14 3119   3.847   4.522   0.364 -3.5392 -2.3518  0.3102
  136DG     H15 3120   3.792   4.360  -0.106 -0.7013 -0.1695  0.6348
  136DG     H16 3121   3.657   4.447  -0.182 -1.8650  0.0701  0.6677
  136DG     C17 3122   3.702   4.571   0.235 -0.8754  0.1124  0.3868
  136DG     C18 3123   3.673   4.479   0.023 -0.0888 -0.3233  0.4403
  136DG     O19 3124   3.770   4.517   0.119  0.0894  0.1593  0.0389
  136DG     H20 3125   3.658   4.665   0.203  1.6375  1.3771  0.4444
  136DG     H21 3126   3.627   4.506   0.280  2.0626 -1.1160  4.0436
  136DG     H22 3127   3.593   4.553   0.014 -1.2572 -1.3014  2.3251
  136DG     H23 3128   3.623   4.384   0.039 -0.9784  0.3042  1.5209
  137DG      C1 3129   0.135   5.265   3.197 -0.7808 -0.2826  0.1439
  137DG      C2 3130  -0.040   5.899   3.076  0.5952 -0.7418 -0.6919
  137DG      H3 3131   0.069   5.285   3.281 -1.3425  0.6106 -0.4955
  137DG      H4 3132   0.230   5.252   3.249 -0.6151  1.6333  0.3856
  137DG      H5 3133   0.098   5.179   3.140  0.0335  0.1556 -1.1006
  137DG      H6 3134  -0.059   5.981   3.007  0.7271  0.2118  0.3642
  137DG      H7 3135  -0.136   5.870   3.119  0.5172  0.6947  0.1685
  137DG      H8 3136   0.010   5.940   3.163 -3.0654  1.1000  0.7892
  137DG      O9 3137   0.145   5.379   3.118  0.2863 -0.1746  0.0471
  137DG     O10 3138   0.024   5.801   3.008  0.3960 -0.0566 -0.2409
  137DG     C11 3139   0.250   5.377   3.022  0.4778 -0.6297 -0.1777
  137DG     C12 3140   0.147   5.843   2.943  0.8377 -0.1536 -0.3844
  137DG     H13 3141   0.262   5.279   2.975 -0.5080 -1.6277  1.5592
  137DG     H14 3142   0.337   5.410   3.080  0.5209  3.4465 -2.2602
  137DG     H15 3143   0.231   5.868   3.007  0.5280 -1.9944  0.8117
  137DG     H16 3144   0.138   5.926   2.873 -0.5473 -0.3349 -0.4595
  137DG     C17 3145   0.243   5.484   2.911  0.6881 -0.1716  0.0757
  137DG     C18 3146   0.193   5.719   2.858  0.0090 -0.7028 -0.0510
  137DG     O19 3147   0.202   5.611   2.956 -0.5009 -0.0259 -0.4138
  137DG     H20 3148   0.171   5.458   2.833 -1.2722 -0.3147  1.8556
  137DG     H21 3149   0.336   5.482   2.854  0.7056 -1.0460  0.1337
  137DG     H22 3150   0.121   5.692   2.781 -1.4718 -0.2798  1.1417
  137DG     H23 3151   0.287   5.744   2.808  0.0211 -0.1396  0.2470
  138DG      C1 3152   1.223   3.964   2.266 -0.0191 -0.6803 -0.0213
  138DG      C2 3153   1.738   3.606   2.251 -0.6125  0.3657  0.0679
  138DG      H3 3154   1.179   4.054   2.223 -1.6189 -1.6304 -0.4521
  138DG      H4 3155   1.266   3.986   2.364  0.1375  1.0971 -0.4588
  138DG      H5 3156   1.139   3.895   2.280 -1.1404  0.3676 -1.2833
  138DG      H6 3157   1.759   3.662   2.342  0.3853  2.3498 -1.3069
  138DG      H7 3158   1.811   3.525   2.247 -1.3035 -0.2362 -2.0849
  138DG      H8 3159   1.748   3.678   2.170  0.6066  0.5758  0.3884
  138DG      O9 3160   1.332   3.913   2.191 -0.0034 -0.2972 -0.5600
  138DG     O10 3161   1.596   3.564   2.253  0.1887  0.4384  0.2168
  138DG     C11 3162   1.282   3.870   2.068 -0.5221 -0.0933  0.2519
  138DG     C12 3163   1.549   3.482   2.146 -0.4526 -0.0900 -0.1416
  138DG     H13 3164   1.254   3.957   2.008 -0.5795 -0.2626  0.0293
  138DG     H14 3165   1.199   3.800   2.073  0.2702 -0.9949  1.0581
  138DG     H15 3166   1.451   3.442   2.172 -0.9743  1.2705  0.0544
  138DG     H16 3167   1.609   3.393   2.127  0.0169  0.0151  0.8156
  138DG     C17 3168   1.390   3.783   1.999  0.2042 -0.1833 -0.0098
  138DG     C18 3169   1.525   3.586   2.038  0.3690 -0.1673  0.2681
  138DG     O19 3170   1.430   3.679   2.092 -0.4093  0.3657  0.3941
  138DG     H20 3171   1.469   3.850   1.962 -0.5012  0.2115 -0.8429
  138DG     H21 3172   1.351   3.738   1.908 -3.7339  1.9169  0.4577
  138DG     H22 3173   1.611   3.628   1.986 -1.5179  1.7725 -1.4583
  138DG     H23 3174   1.467   3.531   1.964 -0.2215 -0.0210  0.6204
  139DG      C1 3175   2.194   4.900   2.782  0.8674 -0.0403 -0.0185
  139DG      C2 3176   1.658   5.197   2.617  0.8382  0.5018  0.1076
  139DG      H3 3177   2.188   4.875   2.676  2.4546 -0.1651 -0.1069
  139DG      H4 3178   2.185   4.805   2.834  0.0365  0.5463  0.9514
  139DG      H5 3179   2.292   4.941   2.808 -0.2102  1.4586  1.9986
  139DG      H6 3180   1.603   5.125   2.678  1.6194  0.9988  1.4484
  139DG      H7 3181   1.592   5.282   2.596 -0.1789 -0.6521 -1.5840
  139DG      H8 3182   1.671   5.146   2.522  1.0339  1.5318 -0.4308
  139DG      O9 3183   2.088   4.990   2.823 -0.8238 -0.0029  0.0380
  139DG     O10 3184   1.781   5.227   2.675 -0.4322 -0.5502 -0.2584
  139DG     C11 3185   2.098   5.035   2.960 -0.3814 -0.6885 -0.9315
  139DG     C12 3186   1.752   5.287   2.800 -0.3093  0.1752 -0.2630
  139DG     H13 3187   2.191   5.087   2.982  0.5663 -1.8872 -1.9458
  139DG     H14 3188   2.082   4.950   3.026 -2.3422 -0.9600 -1.6769
  139DG     H15 3189   1.684   5.226   2.860 -2.1677  1.8273 -0.5685
  139DG     H16 3190   1.697   5.381   2.787 -1.3202 -0.2239  0.9314
  139DG     C17 3191   1.983   5.135   2.973  0.5980 -0.4504 -0.1556
  139DG     C18 3192   1.889   5.324   2.864 -0.4900  0.2695 -0.4958
  139DG     O19 3193   1.993   5.228   2.866 -0.1168 -0.0464 -0.2730
  139DG     H20 3194   1.995   5.183   3.070  0.2680 -1.6754  0.5123
  139DG     H21 3195   1.891   5.077   2.974  0.8087 -0.9079 -2.0155
  139DG     H22 3196   1.917   5.410   2.804 -1.3703  1.0615  0.1840
  139DG     H23 3197   1.855   5.358   2.962 -2.2333  0.6293 -1.1948
  140DG      C1 3198   0.044   3.154   1.245  0.3624 -0.4066 -0.5106
  140DG      C2 3199  -0.073   2.464   1.383  0.1344 -0.3207 -0.5498
  140DG      H3 3200  -0.039   3.208   1.200  0.7706 -1.0866 -2.1744
  140DG      H4 3201   0.096   3.110   1.160  0.4847  0.9632 -1.1738
  140DG      H5 3202   0.117   3.225   1.283  0.4385 -0.0156 -1.3817
  140DG      H6 3203  -0.010   2.439   1.298 -0.4353 -0.8949 -0.8188
  140DG      H7 3204  -0.060   2.398   1.469 -0.9779 -0.3817 -0.4012
  140DG      H8 3205  -0.179   2.457   1.358  0.6438 -0.9225 -2.7789
  140DG      O9 3206   0.017   3.050   1.341 -0.1843 -0.3043 -0.2234
  140DG     O10 3207  -0.052   2.595   1.420 -0.3519  0.0105  0.2137
  140DG     C11 3208  -0.066   3.105   1.439 -0.4601  0.3650 -0.0953
  140DG     C12 3209  -0.120   2.630   1.538 -0.2960 -0.0001 -0.1950
  140DG     H13 3210  -0.164   3.131   1.398 -0.6014 -1.8728 -1.3664
  140DG     H14 3211  -0.027   3.195   1.487 -1.8132  0.2154  1.3855
  140DG     H15 3212  -0.105   2.554   1.615 -0.5258 -0.8388 -0.9539
  140DG     H16 3213  -0.228   2.631   1.521 -0.1690  0.6527 -1.0081
  140DG     C17 3214  -0.071   3.006   1.553  0.3189  0.3770 -0.6526
  140DG     C18 3215  -0.089   2.765   1.599  0.0899  0.1936 -0.1168
  140DG     O19 3216  -0.114   2.872   1.511 -0.4355  0.1719  0.6669
  140DG     H20 3217  -0.133   3.043   1.634  1.4216 -0.4224  0.5904
  140DG     H21 3218   0.030   3.010   1.595  1.4932 -1.5748 -3.0097
  140DG     H22 3219  -0.146   2.782   1.690  1.0789  0.2334  0.5078
  140DG     H23 3220   0.015   2.771   1.630 -0.3378 -1.3705  1.8615
  141DG      C1 3221   4.364   4.212   2.512  0.4912 -0.4876 -0.3389
  141DG      C2 3222   3.633   4.476   2.310 -0.1503 -0.1260  0.2504
  141DG      H3 3223   4.358   4.215   2.621  1.4242 -0.4904 -0.2801
  141DG      H4 3224   4.401   4.310   2.485 -2.2763  0.3226 -1.6405
  141DG      H5 3225   4.435   4.143   2.467 -2.1727 -2.5416 -1.7579
  141DG      H6 3226   3.691   4.547   2.252 -1.3397 -0.1919 -1.0876
  141DG      H7 3227   3.532   4.469   2.269 -0.5671  1.9321  0.7770
  141DG      H8 3228   3.629   4.515   2.412  1.9433  0.2608  0.2204
  141DG      O9 3229   4.232   4.195   2.455  0.5375 -0.0253 -0.4929
  141DG     O10 3230   3.675   4.335   2.320  0.0354 -0.5053  0.4487
  141DG     C11 3231   4.173   4.070   2.492  0.1027 -0.2125 -0.0103
  141DG     C12 3232   3.815   4.330   2.355  0.0842 -0.2075 -0.4140
  141DG     H13 3233   4.145   4.059   2.597 -0.6307  0.8468 -0.0831
  141DG     H14 3234   4.241   3.988   2.471 -0.6813 -1.8361  3.1485
  141DG     H15 3235   3.833   4.378   2.451  0.8408 -0.8725 -0.2122
  141DG     H16 3236   3.884   4.375   2.284  0.2896  1.2924  0.6900
  141DG     C17 3237   4.050   4.052   2.408 -0.0885 -0.1221  0.1100
  141DG     C18 3238   3.860   4.186   2.371  0.5743 -0.2061  0.1940
  141DG     O19 3239   3.991   4.180   2.407  0.1818 -0.1457 -0.6212
  141DG     H20 3240   3.987   3.974   2.453  0.3070  0.2816  1.4062
  141DG     H21 3241   4.072   4.011   2.310 -0.2126  1.0359 -0.4160
  141DG     H22 3242   3.808   4.131   2.449  0.1425  0.3087  0.2792
  141DG     H23 3243   3.840   4.139   2.274  1.4520 -0.4556  0.1312
  142DG      C1 3244   2.458   5.485   4.404 -0.5534 -0.2896 -0.2207
  142DG      C2 3245   2.054   5.963   4.331  0.1289  0.0316 -0.1345
  142DG      H3 3246   2.505   5.502   4.308  1.1855 -2.4756  0.1812
  142DG      H4 3247   2.506   5.397   4.447  3.5494  0.4977 -2.7454
  142DG      H5 3248   2.489   5.573   4.461  0.8333 -1.6453  1.1839
  142DG      H6 3249   1.966   6.020   4.361 -0.3282 -1.2495  1.1014
  142DG      H7 3250   2.141   6.010   4.375 -0.4695 -0.5113  1.7281
  142DG      H8 3251   2.069   5.975   4.224  0.5672  2.1078  0.1130
  142DG      O9 3252   2.318   5.492   4.387  0.3809 -0.6236  0.0827
  142DG     O10 3253   2.057   5.828   4.379 -0.0402  0.6824  0.7578
  142DG     C11 3254   2.251   5.459   4.511 -0.4218 -0.1469  0.0153
  142DG     C12 3255   1.928   5.769   4.385 -0.7470  0.1713  0.2797
  142DG     H13 3256   2.281   5.529   4.588 -2.8193  0.7977  0.1889
  142DG     H14 3257   2.278   5.360   4.549  0.5764 -0.0158 -0.3300
  142DG     H15 3258   1.898   5.746   4.283  0.3785  1.4322 -0.3602
  142DG     H16 3259   1.840   5.819   4.426 -3.4820 -1.9867 -2.4346
  142DG     C17 3260   2.100   5.463   4.497  0.4329 -0.2456 -0.0429
  142DG     C18 3261   1.941   5.638   4.465  0.7391 -0.7889 -0.0709
  142DG     O19 3262   2.069   5.586   4.428  0.0362  0.1811  0.5348
  142DG     H20 3263   2.055   5.453   4.596 -0.7862  1.0949 -0.4333
  142DG     H21 3264   2.062   5.372   4.449 -0.0221 -0.7980  1.3109
  142DG     H22 3265   1.938   5.656   4.573 -3.7997  0.5284 -0.2280
  142DG     H23 3266   1.860   5.569   4.444 -0.5219  0.1523  1.4831
  143DG      C1 3267   4.939   3.194   3.553  0.0611 -0.3413 -0.3878
  143DG      C2 3268   5.436   2.893   3.175  0.4279 -0.2042 -0.0989
  143DG      H3 3269   4.833   3.218   3.539  0.2925  0.1635 -1.3818
  143DG      H4 3270   4.987   3.265   3.621  0.4552 -0.2094 -0.7968
  143DG      H5 3271   4.932   3.099   3.605 -3.0568  0.6031  1.2215
  143DG      H6 3272   5.499   2.873   3.262 -1.9541 -0.8281  1.6064
  143DG      H7 3273   5.359   2.817   3.185 -0.4615  0.8976  2.2373
  143DG      H8 3274   5.485   2.874   3.080 -1.4497 -2.3534 -0.7120
  143DG      O9 3275   4.994   3.176   3.422 -0.1426 -0.5283 -0.1474
  143DG     O10 3276   5.394   3.029   3.196 -0.2837  0.7192 -0.0910
  143DG     C11 3277   4.948   3.061   3.355 -0.0841  0.2929  0.5028
  143DG     C12 3278   5.329   3.093   3.088 -0.4492 -0.5240  0.5859
  143DG     H13 3279   4.839   3.064   3.358 -0.0788  2.4293  0.0834
  143DG     H14 3280   4.980   2.969   3.404  0.2331  0.6789  1.0241
  143DG     H15 3281   5.377   3.083   2.991  1.4474 -2.4068  1.6383
  143DG     H16 3282   5.329   3.197   3.123 -2.3702  0.5243 -2.1850
  143DG     C17 3283   4.993   3.053   3.210  0.2590 -0.1510 -0.0001
  143DG     C18 3284   5.190   3.043   3.067  0.8332 -0.4298 -0.5530
  143DG     O19 3285   5.133   3.038   3.198  0.5189  0.2178 -0.4186
  143DG     H20 3286   4.976   3.153   3.169 -0.2439  0.2082  1.0387
  143DG     H21 3287   4.941   2.977   3.153 -0.0381  0.3136 -0.3567
  143DG     H22 3288   5.138   3.129   3.026  0.5313  0.6014  1.7906
  143DG     H23 3289   5.158   2.951   3.018 -2.5621 -1.5138  3.1384
  144DG      C1 3290   1.590   1.079   3.891  0.0364  0.0001  0.2974
  144DG      C2 3291   1.853   0.525   3.944 -0.0677  0.3347 -0.6780
  144DG      H3 3292   1.623   1.082   3.994  1.7541  0.8034 -0.2374
  144DG      H4 3293   1.481   1.083   3.891 -0.0016 -0.5487  1.6565
  144DG      H5 3294   1.631   1.167   3.842  1.0083 -0.2982  0.5470
  144DG      H6 3295   1.753   0.482   3.956 -0.1294  0.9778  1.4156
  144DG      H7 3296   1.920   0.439   3.943  0.6400  0.8414  1.0612
  144DG      H8 3297   1.876   0.577   4.036  0.8829 -1.8653  0.3924
  144DG      O9 3298   1.637   0.959   3.834 -0.1530  0.0066  0.7190
  144DG     O10 3299   1.869   0.627   3.845 -0.1800  0.6750  0.3763
  144DG     C11 3300   1.599   0.953   3.698 -0.6185  0.0095 -0.3815
  144DG     C12 3301   1.819   0.580   3.718  0.6366  0.2939 -0.4420
  144DG     H13 3302   1.649   1.031   3.641 -2.2816  1.0241 -0.5286
  144DG     H14 3303   1.490   0.959   3.689 -0.7996  0.3026  1.6093
  144DG     H15 3304   1.714   0.548   3.715  1.2357 -1.7722 -1.3601
  144DG     H16 3305   1.871   0.489   3.689  1.2855  0.5394 -0.0540
  144DG     C17 3306   1.651   0.818   3.640 -0.1333 -1.0223 -0.3498
  144DG     C18 3307   1.839   0.688   3.615  0.2346  0.0748  0.4210
  144DG     O19 3308   1.788   0.808   3.673 -0.5023 -0.1372 -0.8657
  144DG     H20 3309   1.630   0.828   3.534 -0.9717  0.2313 -0.0881
  144DG     H21 3310   1.590   0.735   3.677 -0.0856 -0.9073 -0.0113
  144DG     H22 3311   1.947   0.695   3.598  0.0987 -2.5469 -2.2853
  144DG     H23 3312   1.798   0.658   3.519  2.4507 -0.4669 -0.4244
  145DG      C1 3313   3.879   1.264   3.981  0.4345  0.4851  0.2199
  145DG      C2 3314   3.459   1.677   3.591 -0.3749 -0.5670 -0.2486
  145DG      H3 3315   3.857   1.171   4.032 -0.9913  0.4874 -0.3455
  145DG      H4 3316   3.871   1.348   4.049 -0.7317  0.4491  0.1401
  145DG      H5 3317   3.982   1.262   3.943  0.1790 -0.6480 -0.4597
  145DG      H6 3318   3.370   1.638   3.541 -1.2138 -1.3503  1.7673
  145DG      H7 3319   3.419   1.714   3.685 -2.0601  0.7008 -1.4150
  145DG      H8 3320   3.488   1.771   3.543 -0.1163  0.4665  1.8385
  145DG      O9 3321   3.791   1.284   3.873 -0.3301 -0.0925  0.0498
  145DG     O10 3322   3.564   1.580   3.617 -0.0008 -0.3325 -0.8556
  145DG     C11 3323   3.806   1.199   3.762 -0.1390  0.1649 -0.3258
  145DG     C12 3324   3.613   1.524   3.490  0.2035 -0.0280  0.3079
  145DG     H13 3325   3.724   1.127   3.756  1.5809 -2.1124  1.5795
  145DG     H14 3326   3.892   1.132   3.768 -1.1446 -1.1738 -0.4477
  145DG     H15 3327   3.613   1.599   3.411 -0.1019  1.0939  1.3409
  145DG     H16 3328   3.531   1.454   3.469  1.2482 -1.5677  1.1260
  145DG     C17 3329   3.820   1.276   3.632 -0.2594  0.1195  0.2316
  145DG     C18 3330   3.741   1.454   3.510  0.3527 -0.2154  0.5963
  145DG     O19 3331   3.723   1.375   3.620  0.3420  0.5755 -0.1091
  145DG     H20 3332   3.809   1.201   3.555 -0.7680 -0.0721  0.4875
  145DG     H21 3333   3.915   1.329   3.636  0.4542 -0.6948 -2.9966
  145DG     H22 3334   3.751   1.391   3.422 -2.6456 -3.4625  2.3424
  145DG     H23 3335   3.821   1.528   3.514 -0.3877  0.7048 -0.9233
  146DG      C1 3336   2.357   3.600   3.768  0.1512 -0.2829 -0.0529
  146DG      C2 3337   2.349   4.143   3.158  0.6591  0.5002 -0.1999
  146DG      H3 3338   2.464   3.579   3.767  0.1153 -0.4716 -0.2737
  146DG      H4 3339   2.297   3.510   3.785  0.6704 -0.7097 -0.4433
  146DG      H5 3340   2.334   3.669   3.849  1.6559  2.7024 -1.9732
  146DG      H6 3341   2.327   4.120   3.054 -2.6100 -2.5723  0.9818
  146DG      H7 3342   2.277   4.215   3.198 -0.2749 -0.2487 -0.5121
  146DG      H8 3343   2.452   4.179   3.169  1.2019 -1.1095  0.3349
  146DG      O9 3344   2.309   3.659   3.645  0.0326  0.2752  0.5192
  146DG     O10 3345   2.330   4.012   3.219 -0.4177  0.0271 -0.2468
  146DG     C11 3346   2.381   3.770   3.591 -0.8915 -0.4316  0.0723
  146DG     C12 3347   2.195   3.980   3.239  0.4181  0.4528  0.8015
  146DG     H13 3348   2.486   3.741   3.604 -0.7661  0.2109  0.5211
  146DG     H14 3349   2.350   3.862   3.640 -0.5729  1.8025 -3.5820
  146DG     H15 3350   2.155   3.985   3.138 -1.2653 -1.7989  1.2784
  146DG     H16 3351   2.136   4.048   3.301 -0.0092  0.5244  0.3202
  146DG     C17 3352   2.343   3.784   3.441 -0.0379 -0.3180 -0.8810
  146DG     C18 3353   2.169   3.839   3.288 -0.0627 -0.4051  0.2123
  146DG     O19 3354   2.211   3.817   3.423  0.2622 -0.4269 -0.1046
  146DG     H20 3355   2.370   3.689   3.394  2.5801  0.0918 -0.3547
  146DG     H21 3356   2.409   3.861   3.403  1.6604 -1.8164 -1.1120
  146DG     H22 3357   2.060   3.834   3.292 -0.1327 -0.0100 -0.8325
  146DG     H23 3358   2.195   3.770   3.208  0.0878  1.1936 -1.1835
  147DG      C1 3359   4.290   1.695   3.435 -0.3047 -0.0476  0.2766
  147DG      C2 3360   4.636   2.163   3.371 -0.2237 -0.1367  0.0913
  147DG      H3 3361   4.305   1.654   3.535 -2.0115  0.2782  0.6926
  147DG      H4 3362   4.236   1.626   3.370  0.7200  0.2247 -0.9139
  147DG      H5 3363   4.233   1.787   3.438  0.1720  0.2368  0.6807
  147DG      H6 3364   4.723   2.227   3.356 -2.7002  3.3054 -0.7489
  147DG      H7 3365   4.585   2.165   3.274  0.4235  2.6943 -0.2688
  147DG      H8 3366   4.578   2.217   3.445 -0.1189  2.1985 -1.4444
  147DG      O9 3367   4.427   1.726   3.399  0.1028 -0.3273  0.7204
  147DG     O10 3368   4.670   2.038   3.424  0.5498  0.1567 -0.1753
  147DG     C11 3369   4.504   1.610   3.370  0.4334  0.4694 -0.4017
  147DG     C12 3370   4.763   1.959   3.352 -0.1691 -0.6239  0.7556
  147DG     H13 3371   4.478   1.532   3.299 -0.4718  0.6135 -0.2432
  147DG     H14 3372   4.514   1.538   3.451 -0.8396 -0.5818 -1.1410
  147DG     H15 3373   4.862   2.005   3.349  0.8318 -2.7168 -1.6190
  147DG     H16 3374   4.723   1.945   3.252  0.1621  3.1146 -0.0287
  147DG     C17 3375   4.642   1.671   3.345 -0.2223 -0.0249 -0.6525
  147DG     C18 3376   4.790   1.839   3.431  0.2395 -0.1000  0.4636
  147DG     O19 3377   4.670   1.772   3.440  0.0384 -0.1421 -0.0174
  147DG     H20 3378   4.644   1.717   3.246 -0.2701  1.8030  0.1715
  147DG     H21 3379   4.729   1.604   3.339 -0.4010 -0.4120  0.7409
  147DG     H22 3380   4.879   1.787   3.398  2.3323  3.8324 -0.7894
  147DG     H23 3381   4.822   1.884   3.525 -0.5218  2.0424 -0.2248
  148DG      C1 3382   2.647   3.627   2.540  0.4529  0.0509  0.8962
  148DG      C2 3383   2.242   3.438   3.058 -0.1855  0.2118 -0.2309
  148DG      H3 3384   2.739   3.612   2.483  0.2105 -2.1724  0.9874
  148DG      H4 3385   2.663   3.727   2.580 -0.7211 -0.1586  1.9755
  148DG      H5 3386   2.562   3.628   2.471  1.7645  2.0984 -0.7884
  148DG      H6 3387   2.254   3.533   3.109  0.5901  0.7613 -1.3959
  148DG      H7 3388   2.147   3.449   3.007 -0.3192  4.3171  0.5363
  148DG      H8 3389   2.234   3.364   3.138  2.3684  0.4598  0.3364
  148DG      O9 3390   2.651   3.532   2.643 -0.4053  0.1869 -0.5410
  148DG     O10 3391   2.340   3.414   2.961 -0.1195  0.3281  0.3123
  148DG     C11 3392   2.619   3.400   2.596  0.4333  0.2520 -0.0056
  148DG     C12 3393   2.314   3.296   2.898  0.5551  0.4258 -0.2438
  148DG     H13 3394   2.681   3.371   2.512 -0.1983 -0.6658 -0.1715
  148DG     H14 3395   2.520   3.391   2.552  0.8177 -0.0741 -0.8229
  148DG     H15 3396   2.210   3.273   2.873  0.6346  1.6508 -1.8374
  148DG     H16 3397   2.340   3.215   2.966 -0.7313  0.1892  0.0087
  148DG     C17 3398   2.630   3.295   2.704 -0.9213 -0.0224  0.3555
  148DG     C18 3399   2.403   3.291   2.772  1.1107 -0.1629 -0.1477
  148DG     O19 3400   2.535   3.329   2.798 -0.0571 -0.0248  0.5302
  148DG     H20 3401   2.726   3.312   2.753  0.6949 -0.4361 -2.4248
  148DG     H21 3402   2.615   3.188   2.691 -0.5665  0.0454 -0.6758
  148DG     H22 3403   2.385   3.192   2.729 -0.6735  0.4146 -0.8508
  148DG     H23 3404   2.359   3.369   2.709  0.8016  0.2759  0.6003
  149DG      C1 3405   1.902   2.349   3.549  0.0168 -0.0971  0.0974
  149DG      C2 3406   1.372   1.988   3.452  0.4042  0.3173  0.1102
  149DG      H3 3407   1.881   2.400   3.455 -0.2788  1.2864  0.8854
  149DG      H4 3408   1.945   2.251   3.528 -0.1555  0.3306 -2.6972
  149DG      H5 3409   1.973   2.399   3.615 -0.5048 -0.8260  1.2259
  149DG      H6 3410   1.270   1.982   3.490  0.7640  3.3209  1.9376
  149DG      H7 3411   1.362   2.023   3.349 -2.9333 -0.7011 -0.0432
  149DG      H8 3412   1.415   1.888   3.457 -0.6169 -0.0929  1.1599
  149DG      O9 3413   1.782   2.340   3.626 -0.1728 -0.0149  0.0921
  149DG     O10 3414   1.437   2.082   3.544  0.1010 -0.1522  0.8260
  149DG     C11 3415   1.803   2.310   3.772  0.4431 -0.1399 -0.2267
  149DG     C12 3416   1.404   2.047   3.678 -0.2359 -0.4491  0.3161
  149DG     H13 3417   1.841   2.399   3.821 -0.7708  1.0247 -1.3236
  149DG     H14 3418   1.871   2.224   3.775  1.0615  0.3398 -0.3981
  149DG     H15 3419   1.439   1.946   3.695  0.1787 -0.8587 -2.4227
  149DG     H16 3420   1.297   2.045   3.694 -0.4013 -0.5673 -0.7008
  149DG     C17 3421   1.668   2.268   3.838 -0.5299  0.2892  0.8354
  149DG     C18 3422   1.461   2.145   3.783 -0.5618 -0.9340  0.0240
  149DG     O19 3423   1.602   2.167   3.758 -0.5400 -0.0393  0.2296
  149DG     H20 3424   1.603   2.355   3.844  0.5859  1.2580 -0.5579
  149DG     H21 3425   1.672   2.227   3.939  1.3088 -0.3860  0.5245
  149DG     H22 3426   1.403   2.237   3.781  1.0305  0.1011 -0.6001
  149DG     H23 3427   1.457   2.102   3.883 -2.2428 -0.3718  0.2205
  150DG      C1 3428   5.064   2.758   2.581 -0.7455  0.8227  0.0272
  150DG      C2 3429   4.774   3.284   2.257  0.1366  0.1940  0.6598
  150DG      H3 3430   5.171   2.738   2.583 -0.0682  3.7671  2.4925
  150DG      H4 3431   5.049   2.802   2.482  2.8765 -0.3226 -1.1739
  150DG      H5 3432   5.027   2.656   2.585  2.2683 -0.3364  2.5936
  150DG      H6 3433   4.826   3.377   2.232 -2.1997  1.2422 -0.6167
  150DG      H7 3434   4.749   3.221   2.171  0.9994 -0.3390  0.7794
  150DG      H8 3435   4.683   3.327   2.298 -0.2058  1.4693 -1.2735
  150DG      O9 3436   5.019   2.840   2.684  0.7365  0.0050  0.3591
  150DG     O10 3437   4.842   3.200   2.343  0.3675 -0.2446 -0.2681
  150DG     C11 3438   5.101   2.953   2.709  0.2285  0.0091  0.7885
  150DG     C12 3439   4.950   3.146   2.282 -0.5405 -0.2884  0.1439
  150DG     H13 3440   5.195   2.923   2.753  1.9906  1.5155 -1.6459
  150DG     H14 3441   5.042   3.016   2.775  0.3231 -0.1320  1.0055
  150DG     H15 3442   4.990   3.203   2.199  2.4239 -4.0750 -1.3419
  150DG     H16 3443   4.930   3.042   2.255 -2.8864  0.1749 -0.0803
  150DG     C17 3444   5.130   3.046   2.585  0.2779  0.2354  0.1948
  150DG     C18 3445   5.054   3.139   2.393  0.1544 -0.4145 -0.0438
  150DG     O19 3446   5.014   3.046   2.493 -0.4023  0.0772 -0.7987
  150DG     H20 3447   5.228   3.037   2.538 -1.2382  1.5365 -3.6196
  150DG     H21 3448   5.144   3.140   2.638  2.7587  0.5371 -0.8655
  150DG     H22 3449   5.153   3.119   2.353  2.3390  2.8147  3.2029
  150DG     H23 3450   5.061   3.232   2.448 -0.5555 -0.4633  0.1412
  151DG      C1 3451   0.789   3.173   0.520 -0.6537 -0.5226 -0.9684
  151DG      C2 3452   0.567   3.807   0.413  0.2118 -1.0619 -0.4572
  151DG      H3 3453   0.888   3.156   0.563 -0.1489 -0.5229 -2.0725
  151DG      H4 3454   0.809   3.172   0.412  0.0450 -2.8144 -0.8700
  151DG      H5 3455   0.722   3.090   0.542  1.5731 -2.6925 -1.7729
  151DG      H6 3456   0.494   3.888   0.416  0.5288 -0.8042  0.7303
  151DG      H7 3457   0.655   3.853   0.456 -0.9713  3.3245 -2.2469
  151DG      H8 3458   0.589   3.773   0.311  1.5516  1.5559 -1.1204
  151DG      O9 3459   0.724   3.289   0.571 -0.4185 -0.3869  0.9661
  151DG     O10 3460   0.526   3.694   0.490  0.9673  0.0240 -0.6576
  151DG     C11 3461   0.722   3.310   0.706  0.1147 -0.3741  0.2882
  151DG     C12 3462   0.510   3.733   0.631 -0.4439  0.5071  0.7377
  151DG     H13 3463   0.809   3.364   0.742 -0.3176 -0.4874  1.5227
  151DG     H14 3464   0.690   3.217   0.752  0.5095 -1.4670 -1.5345
  151DG     H15 3465   0.415   3.785   0.646  0.6602  3.1607 -0.8182
  151DG     H16 3466   0.579   3.812   0.663  1.1712 -0.2043 -0.8539
  151DG     C17 3467   0.595   3.400   0.739  0.5237  0.1665  0.0408
  151DG     C18 3468   0.503   3.606   0.722 -0.4244  0.3872 -0.3161
  151DG     O19 3469   0.600   3.524   0.673  0.1345 -0.2978  0.4277
  151DG     H20 3470   0.600   3.419   0.847 -1.1402 -0.0590  0.1788
  151DG     H21 3471   0.501   3.349   0.717 -0.9508  2.2400  1.1716
  151DG     H22 3472   0.531   3.641   0.821  0.4057  1.1201 -0.7952
  151DG     H23 3473   0.407   3.556   0.731 -0.3412  0.2208 -0.3514
  152DG      C1 3474   5.245   5.434   3.804 -0.3415 -0.2727  0.0442
  152DG      C2 3475   5.973   5.609   4.000  0.3426 -0.2390 -0.6874
  152DG      H3 3476   5.188   5.479   3.886  1.1518  0.9578  0.4608
  152DG      H4 3477   5.281   5.336   3.834 -0.3418 -0.3861 -0.3334
  152DG      H5 3478   5.177   5.422   3.720 -0.2675 -3.0919  0.2949
  152DG      H6 3479   5.951   5.509   3.962 -1.5897 -0.5157  0.9927
  152DG      H7 3480   6.060   5.640   3.943  1.0577 -2.5009 -0.9396
  152DG      H8 3481   6.003   5.605   4.105  0.1308 -1.1100 -0.6465
  152DG      O9 3482   5.347   5.536   3.768  0.2446 -0.3707 -0.4605
  152DG     O10 3483   5.863   5.702   3.982 -0.4115 -0.1554  0.3894
  152DG     C11 3484   5.353   5.647   3.858  0.2201 -0.3333 -0.0060
  152DG     C12 3485   5.838   5.736   3.843  0.1316  0.2777  0.0800
  152DG     H13 3486   5.357   5.628   3.965 -0.2313  3.0446  0.7050
  152DG     H14 3487   5.258   5.698   3.847  0.2975 -0.2071 -0.0963
  152DG     H15 3488   5.842   5.649   3.778 -0.4382  0.3757 -0.0932
  152DG     H16 3489   5.905   5.816   3.809 -1.0676  0.7961 -1.1229
  152DG     C17 3490   5.465   5.740   3.826  0.8040 -0.7330 -0.0596
  152DG     C18 3491   5.692   5.795   3.845 -0.0767 -0.2134 -0.1192
  152DG     O19 3492   5.592   5.688   3.838 -0.5464 -0.2638  0.5265
  152DG     H20 3493   5.442   5.830   3.883  1.7603  0.0173 -0.8255
  152DG     H21 3494   5.457   5.777   3.724  0.4097 -0.6586 -0.0051
  152DG     H22 3495   5.665   5.855   3.932 -0.7333 -0.3780 -0.2026
  152DG     H23 3496   5.685   5.862   3.759  0.6705 -0.2200 -0.1910
  153DG      C1 3497   0.734   2.757   0.512  0.0484 -0.5650 -0.3101
  153DG      C2 3498   1.152   2.636   0.003  0.2139 -0.5063  0.2817
  153DG      H3 3499   0.793   2.705   0.588 -0.4832  0.4010  0.8035
  153DG      H4 3500   0.628   2.771   0.534 -0.1303 -0.7600 -1.0216
  153DG      H5 3501   0.782   2.856   0.512  1.9279 -1.3613  2.3079
  153DG      H6 3502   1.169   2.649  -0.103 -1.1391 -0.1415  0.0894
  153DG      H7 3503   1.181   2.728   0.055  1.9332  0.0898 -1.6250
  153DG      H8 3504   1.219   2.555   0.031  1.3967  0.3721  0.0567
  153DG      O9 3505   0.757   2.692   0.385  0.2858 -0.2076  0.6032
  153DG     O10 3506   1.015   2.602   0.035  0.0960  0.0551  0.3785
  153DG     C11 3507   0.705   2.560   0.386 -0.3230  0.8075 -0.4355
  153DG     C12 3508   0.940   2.517  -0.045  0.1894  0.0712 -0.5103
  153DG     H13 3509   0.606   2.556   0.431 -0.7361 -3.2459 -1.3433
  153DG     H14 3510   0.767   2.496   0.448 -0.9824 -0.5815 -1.1806
  153DG     H15 3511   0.999   2.426  -0.055  0.2632 -0.0491  0.9287
  153DG     H16 3512   0.913   2.562  -0.141  0.6361 -0.2876 -0.8074
  153DG     C17 3513   0.697   2.503   0.241  1.0070  0.0914 -0.2325
  153DG     C18 3514   0.810   2.489   0.031  0.0419 -0.8435  0.6659
  153DG     O19 3515   0.816   2.528   0.170  0.2310 -0.2624  0.1507
  153DG     H20 3516   0.619   2.556   0.187 -0.8859 -1.2951  1.0038
  153DG     H21 3517   0.664   2.399   0.244 -0.4032  0.4491 -1.5824
  153DG     H22 3518   0.741   2.561  -0.013  2.2442  2.9352  2.9120
  153DG     H23 3519   0.775   2.386   0.023 -3.6669  0.2745  0.3947
  154DG      C1 3520   0.714   3.366   2.952 -0.2033  0.0476 -0.1633
  154DG      C2 3521   0.927   3.575   3.511  0.2377 -0.5551 -0.5216
  154DG      H3 3522   0.632   3.410   3.007  0.4466  0.2602  0.6558
  154DG      H4 3523   0.687   3.262   2.930 -1.3586 -0.1350  1.9503
  154DG      H5 3524   0.737   3.415   2.857 -0.4923  0.1491 -0.1811
  154DG      H6 3525   0.990   3.531   3.589  0.0802 -1.4360 -0.8777
  154DG      H7 3526   0.951   3.681   3.512 -2.3264  0.1249 -2.2234
  154DG      H8 3527   0.821   3.576   3.535  0.3825  2.6548  0.3710
  154DG      O9 3528   0.824   3.365   3.039 -0.2955 -0.5936 -0.0406
  154DG     O10 3529   0.949   3.513   3.384  0.2369  0.3399 -0.1055
  154DG     C11 3530   0.949   3.323   2.973  0.5064  0.2653 -0.2187
  154DG     C12 3531   1.088   3.510   3.351 -0.3120 -0.5630 -0.3859
  154DG     H13 3532   0.999   3.411   2.931  2.8187 -0.0631  1.6221
  154DG     H14 3533   0.925   3.259   2.888 -1.8903  1.2892 -0.3924
  154DG     H15 3534   1.145   3.453   3.424 -2.1010 -1.9058  0.0366
  154DG     H16 3535   1.127   3.612   3.346 -2.4250  0.2328 -2.8213
  154DG     C17 3536   1.059   3.264   3.074  0.0378 -0.3446  0.0023
  154DG     C18 3537   1.106   3.457   3.207  0.1423  0.2775  0.2446
  154DG     O19 3538   1.046   3.327   3.205  0.5432 -0.2363 -0.1938
  154DG     H20 3539   1.163   3.257   3.042 -0.0595 -0.0888 -0.3788
  154DG     H21 3540   1.049   3.156   3.081 -1.9745 -0.1926  0.1944
  154DG     H22 3541   1.052   3.521   3.137  2.9562  1.9587 -0.5208
  154DG     H23 3542   1.211   3.441   3.184  0.7414 -1.7719  3.6548
  155DG      C1 3543   5.293   2.791   3.940 -0.3499  0.0011  0.1075
  155DG      C2 3544   5.737   3.060   4.371  0.1366  0.0573 -0.1149
  155DG      H3 3545   5.314   2.816   3.836  1.4925  1.3450  0.7418
  155DG      H4 3546   5.238   2.880   3.973  1.6638  0.9052  1.2431
  155DG      H5 3547   5.223   2.708   3.943 -1.7267  1.1075  3.3177
  155DG      H6 3548   5.714   3.041   4.475  0.7026 -1.1655 -0.1968
  155DG      H7 3549   5.820   3.131   4.377  1.0276 -0.9703  0.0724
  155DG      H8 3550   5.651   3.101   4.318 -1.3344 -2.5959  0.0824
  155DG      O9 3551   5.420   2.770   4.002  0.0783 -0.4204  0.0184
  155DG     O10 3552   5.773   2.943   4.306  0.5028 -0.6284 -0.1569
  155DG     C11 3553   5.494   2.651   3.952 -0.2333  0.6190 -0.2549
  155DG     C12 3554   5.791   2.963   4.167 -0.6023 -0.0524 -0.0714
  155DG     H13 3555   5.479   2.633   3.845  2.5307  1.3752 -0.8439
  155DG     H14 3556   5.476   2.561   4.010 -2.4452 -0.5494 -2.5679
  155DG     H15 3557   5.886   3.015   4.168 -0.0681 -0.9992  0.3171
  155DG     H16 3558   5.712   3.024   4.124  0.2557  1.5214  0.5354
  155DG     C17 3559   5.641   2.687   3.974  0.4318  0.3579  0.4273
  155DG     C18 3560   5.797   2.830   4.093  0.3649 -0.1654 -0.1047
  155DG     O19 3561   5.661   2.784   4.071 -0.8160  0.6223 -0.3445
  155DG     H20 3562   5.688   2.720   3.882  0.4234 -0.3885  0.1507
  155DG     H21 3563   5.700   2.603   4.011  1.5066  0.3454 -1.2419
  155DG     H22 3564   5.846   2.839   3.997  0.6764 -0.5508  0.0162
  155DG     H23 3565   5.857   2.766   4.158  1.9868  0.6940 -0.7227
  156DG      C1 3566   4.392   3.594   0.513  0.0514 -0.5686  0.2318
  156DG      C2 3567   4.658   3.474  -0.067  0.0547 -0.4018  0.1584
  156DG      H3 3568   4.388   3.487   0.533  0.7273 -0.3349  1.7449
  156DG      H4 3569   4.314   3.629   0.445  1.5638  1.9098 -0.3784
  156DG      H5 3570   4.385   3.651   0.605 -0.0983  0.2228 -0.2606
  156DG      H6 3571   4.743   3.449  -0.131 -0.7491 -1.6027 -0.4686
  156DG      H7 3572   4.635   3.380  -0.017  1.8533 -0.7094  0.5067
  156DG      H8 3573   4.571   3.516  -0.116  0.5443  2.2930  1.4177
  156DG      O9 3574   4.511   3.632   0.447 -0.1548 -0.2289  0.5531
  156DG     O10 3575   4.703   3.549   0.042 -0.7150 -0.1219 -0.4666
  156DG     C11 3576   4.528   3.772   0.437  0.4753  0.0243  0.3136
  156DG     C12 3577   4.728   3.689   0.010 -0.5173 -0.2448 -0.3901
  156DG     H13 3578   4.532   3.812   0.538 -0.2642 -1.4114  0.9304
  156DG     H14 3579   4.448   3.825   0.385 -1.1400 -1.9941  0.6000
  156DG     H15 3580   4.637   3.726  -0.036  0.2166  0.2581 -1.4652
  156DG     H16 3581   4.808   3.688  -0.063 -1.1991 -1.0499 -1.1442
  156DG     C17 3582   4.657   3.789   0.365  0.1818 -0.3054  0.2747
  156DG     C18 3583   4.752   3.753   0.149 -0.1676  0.8342  0.4061
  156DG     O19 3584   4.641   3.723   0.237  0.0812 -0.0933  0.1926
  156DG     H20 3585   4.745   3.753   0.418  1.3093 -1.0019 -1.9305
  156DG     H21 3586   4.671   3.895   0.347  1.3849 -0.6087 -0.7391
  156DG     H22 3587   4.845   3.720   0.194  0.5472  0.4016 -1.3045
  156DG     H23 3588   4.765   3.860   0.131  1.2980  0.5331 -0.4936
  157DG      C1 3589   3.333   2.135   4.968  0.0516 -0.0742 -0.3012
  157DG      C2 3590   3.641   2.056   4.328  0.3091  0.7024  0.1725
  157DG      H3 3591   3.226   2.112   4.963 -0.3050  0.7838  2.0537
  157DG      H4 3592   3.340   2.230   4.916 -2.2287  1.0402  1.2392
  157DG      H5 3593   3.358   2.145   5.074 -3.1840 -1.5274  0.7426
  157DG      H6 3594   3.692   1.972   4.281 -0.6837 -0.4773  1.1091
  157DG      H7 3595   3.551   2.068   4.268  0.2142 -1.6682 -0.2309
  157DG      H8 3596   3.709   2.140   4.313  0.7038  0.6720  1.5989
  157DG      O9 3597   3.416   2.041   4.903 -0.0918  0.5023 -0.7023
  157DG     O10 3598   3.611   2.019   4.465  0.4894 -0.6499  0.0823
  157DG     C11 3599   3.539   2.006   4.967  0.0101  0.4886  0.1645
  157DG     C12 3600   3.720   1.973   4.527  0.2483  0.0943  0.2548
  157DG     H13 3601   3.504   1.968   5.063 -1.4481  2.3180  0.4122
  157DG     H14 3602   3.603   2.092   4.987  1.6420 -0.6194 -0.0251
  157DG     H15 3603   3.797   2.049   4.538 -0.3843  0.9450 -0.8502
  157DG     H16 3604   3.771   1.907   4.456  3.3507  0.0873  2.3251
  157DG     C17 3605   3.610   1.902   4.876 -0.0500 -0.2637 -0.0252
  157DG     C18 3606   3.693   1.897   4.658  0.2290  0.0607 -0.7479
  157DG     O19 3607   3.628   1.972   4.755 -0.2216 -0.4987 -0.1452
  157DG     H20 3608   3.556   1.809   4.860 -0.2112 -0.2091  0.2055
  157DG     H21 3609   3.708   1.881   4.918 -0.5459 -0.7263  0.9234
  157DG     H22 3610   3.626   1.815   4.635 -0.2406 -0.6726  2.6686
  157DG     H23 3611   3.783   1.859   4.707 -0.0767  0.3450  0.0508
  158DG      C1 3612   2.144   4.443   4.174  0.0755  0.6280  0.0407
  158DG      C2 3613   1.628   4.795   4.388  0.3745 -0.3910  0.2888
  158DG      H3 3614   2.121   4.367   4.249 -0.0491  0.3602 -0.2661
  158DG      H4 3615   2.180   4.523   4.240 -0.6605  0.1864  0.9986
  158DG      H5 3616   2.214   4.399   4.103  0.8753  1.3349  0.3661
  158DG      H6 3617   1.530   4.843   4.388  0.1184 -0.8972  0.8583
  158DG      H7 3618   1.607   4.732   4.474 -0.3963 -1.3471 -0.5765
  158DG      H8 3619   1.710   4.860   4.417  0.5238 -1.0879  1.4429
  158DG      O9 3620   2.023   4.479   4.101  0.0014 -1.0679  0.0368
  158DG     O10 3621   1.653   4.720   4.276  0.2060  0.6177  0.1538
  158DG     C11 3622   2.044   4.587   4.007  0.0473  0.0875 -0.3521
  158DG     C12 3623   1.655   4.799   4.155  0.0546 -0.3967  0.3719
  158DG     H13 3624   2.089   4.557   3.912 -0.1025  0.5012 -0.5543
  158DG     H14 3625   2.086   4.681   4.044 -1.1470  0.3709  0.3288
  158DG     H15 3626   1.733   4.873   4.163 -0.2865 -0.1263  1.5411
  158DG     H16 3627   1.558   4.849   4.148  0.1161 -0.3379 -0.0498
  158DG     C17 3628   1.901   4.616   3.960  0.4428 -0.3720 -0.3949
  158DG     C18 3629   1.695   4.710   4.035  0.5204 -0.4687 -0.1519
  158DG     O19 3630   1.820   4.671   4.066 -0.4502 -0.3840 -0.8851
  158DG     H20 3631   1.857   4.519   3.934  0.6107  0.4559 -4.3746
  158DG     H21 3632   1.919   4.684   3.877 -0.4626  1.6360  0.9756
  158DG     H22 3633   1.638   4.617   4.026 -0.2963 -0.0610  0.6223
  158DG     H23 3634   1.680   4.759   3.939 -2.5802 -2.3082 -0.7624
  159DG      C1 3635   4.553   4.315   2.999 -0.6969 -0.6230  0.4772
  159DG      C2 3636   4.372   5.098   2.809 -0.0871 -0.3813  0.0569
  159DG      H3 3637   4.461   4.345   3.048  0.7306  3.2750  1.1519
  159DG      H4 3638   4.626   4.365   3.062 -1.2112  3.1150 -1.5854
  159DG      H5 3639   4.559   4.207   2.991  2.1991 -0.4886 -0.7867
  159DG      H6 3640   4.282   5.131   2.757  0.2394 -0.3493 -0.4963
  159DG      H7 3641   4.347   5.104   2.915 -0.4997  0.1540 -0.0633
  159DG      H8 3642   4.456   5.156   2.772 -0.1657 -0.5531 -0.3959
  159DG      O9 3643   4.564   4.369   2.873  0.5430 -0.1442 -0.0620
  159DG     O10 3644   4.407   4.965   2.788  0.2210 -0.0998  0.2707
  159DG     C11 3645   4.500   4.494   2.866  0.7865 -0.8675  0.4233
  159DG     C12 3646   4.413   4.913   2.655  0.2379 -0.1740  0.2083
  159DG     H13 3647   4.551   4.559   2.937  1.2489 -0.8173  0.0559
  159DG     H14 3648   4.395   4.483   2.892  0.6250  0.7675  0.5856
  159DG     H15 3649   4.439   4.990   2.581 -1.7019 -1.0517 -1.4823
  159DG     H16 3650   4.316   4.884   2.615 -0.7102  1.5283  1.1241
  159DG     C17 3651   4.515   4.554   2.725 -0.8433  0.1322  0.0502
  159DG     C18 3652   4.500   4.783   2.636  0.6575 -0.1473 -0.3080
  159DG     O19 3653   4.456   4.683   2.735 -0.0746  0.2208 -0.0779
  159DG     H20 3654   4.474   4.491   2.646  0.0464 -0.7007  0.2315
  159DG     H21 3655   4.622   4.562   2.706 -1.0717  0.8489 -1.0400
  159DG     H22 3656   4.486   4.750   2.533 -1.0121  1.0974 -0.5208
  159DG     H23 3657   4.605   4.804   2.655  0.3947  1.7720 -0.8024
  160DG      C1 3658   3.743   2.073   2.622 -0.6451  0.0116 -0.0441
  160DG      C2 3659   3.386   2.707   2.948 -0.0312 -0.1562  0.1122
  160DG      H3 3660   3.758   2.178   2.599 -3.5995  0.4784 -0.2192
  160DG      H4 3661   3.704   2.019   2.536 -1.8778  0.3791  0.2725
  160DG      H5 3662   3.842   2.030   2.641  0.0954  0.2830 -2.7636
  160DG      H6 3663   3.467   2.743   2.884  0.6053 -1.8503 -0.0943
  160DG      H7 3664   3.296   2.721   2.888  0.5719 -0.4287 -0.8861
  160DG      H8 3665   3.383   2.774   3.033 -2.5735  0.6014 -0.5044
  160DG      O9 3666   3.647   2.062   2.731  0.1290  0.3701 -0.0455
  160DG     O10 3667   3.392   2.576   3.002  0.3730 -0.0358  0.5305
  160DG     C11 3668   3.691   2.093   2.859  0.1076 -0.0460  0.2299
  160DG     C12 3669   3.408   2.478   2.903 -0.6827  0.5414 -0.5662
  160DG     H13 3670   3.771   2.168   2.858 -1.8215  2.1373  0.2475
  160DG     H14 3671   3.725   2.000   2.903  0.4831 -0.1213 -0.2102
  160DG     H15 3672   3.461   2.512   2.814 -1.2885  0.0259 -1.1360
  160DG     H16 3673   3.318   2.438   2.855 -1.2992  1.4748 -0.2190
  160DG     C17 3674   3.581   2.146   2.946  0.4077 -0.2607  0.4590
  160DG     C18 3675   3.482   2.363   2.971 -0.2195 -0.1082 -0.0606
  160DG     O19 3676   3.530   2.262   2.880 -0.4338  0.3739 -0.0719
  160DG     H20 3677   3.612   2.170   3.048 -0.7968 -0.0936  0.8013
  160DG     H21 3678   3.499   2.079   2.971  0.1381 -0.3817 -0.7070
  160DG     H22 3679   3.563   2.408   3.029 -1.4102  1.0441  0.7865
  160DG     H23 3680   3.415   2.325   3.048  2.0633  0.6210  2.4466
  161DG      C1 3681   4.195   0.522   3.889  0.4432 -0.3311  0.6879
  161DG      C2 3682   4.531   0.896   4.309 -1.1399  0.3879 -0.3411
  161DG      H3 3683   4.197   0.428   3.945  0.2728 -0.7125  0.0622
  161DG      H4 3684   4.291   0.524   3.837  0.6096 -0.9493  0.9599
  161DG      H5 3685   4.122   0.533   3.809  1.9960  0.7594 -0.6588
  161DG      H6 3686   4.551   0.797   4.349 -0.3783  0.1269 -1.3296
  161DG      H7 3687   4.604   0.911   4.230  0.0134 -0.1635  0.5713
  161DG      H8 3688   4.545   0.981   4.377 -5.1065  3.1206 -2.5110
  161DG      O9 3689   4.179   0.638   3.975  0.3559  0.4858 -0.0218
  161DG     O10 3690   4.400   0.905   4.256  0.1724 -0.0406  0.1130
  161DG     C11 3691   4.048   0.685   4.008  0.3087  0.1975 -0.3283
  161DG     C12 3692   4.288   0.918   4.342  0.1478 -0.0866  0.2720
  161DG     H13 3693   4.003   0.609   4.073 -0.0808  0.0499 -0.7610
  161DG     H14 3694   3.992   0.697   3.915  2.2533  0.1812 -1.5424
  161DG     H15 3695   4.307   0.999   4.413  0.5252 -1.3343  1.6386
  161DG     H16 3696   4.274   0.825   4.396 -4.0996  0.3561  0.2813
  161DG     C17 3697   4.059   0.821   4.078 -0.1065  0.2699  0.4981
  161DG     C18 3698   4.159   0.928   4.262 -0.4753 -0.0202 -0.6500
  161DG     O19 3699   4.156   0.808   4.187  0.6275  0.0084  0.6989
  161DG     H20 3700   3.961   0.851   4.117 -0.4816  1.3368 -1.1536
  161DG     H21 3701   4.080   0.895   4.001 -0.1518  0.6090  0.8071
  161DG     H22 3702   4.066   0.942   4.317 -0.1334  1.0515 -0.3120
  161DG     H23 3703   4.166   1.012   4.192 -0.3087 -1.0692 -1.9173
  162DG      C1 3704   3.018   1.277   3.662 -0.3548  0.1370  0.1114
  162DG      C2 3705   2.612   1.767   3.850 -0.3511  0.0715  0.6637
  162DG      H3 3706   3.089   1.281   3.745 -0.1521  1.1602 -0.0989
  162DG      H4 3707   3.059   1.224   3.576 -2.1390  0.2610 -0.8777
  162DG      H5 3708   2.926   1.228   3.696 -0.1117 -0.7923 -0.5445
  162DG      H6 3709   2.680   1.831   3.907 -0.4727 -0.1549  1.0723
  162DG      H7 3710   2.520   1.823   3.832 -0.8068 -1.4665 -2.4530
  162DG      H8 3711   2.579   1.683   3.912 -2.7960  0.1387 -0.4059
  162DG      O9 3712   2.974   1.405   3.627  0.4057 -0.5644  0.0611
  162DG     O10 3713   2.678   1.728   3.729  0.2206 -0.3469 -0.1408
  162DG     C11 3714   3.070   1.498   3.572 -0.1839  0.0015 -0.2330
  162DG     C12 3715   2.736   1.842   3.660  0.1121 -0.3012  0.4305
  162DG     H13 3716   3.156   1.456   3.519  0.9652  0.8732  0.8831
  162DG     H14 3717   3.110   1.543   3.663  0.6288 -0.7314 -0.2201
  162DG     H15 3718   2.791   1.912   3.723  2.3334 -0.3827 -1.2666
  162DG     H16 3719   2.663   1.908   3.613  0.9338 -0.2189 -0.7894
  162DG     C17 3720   2.997   1.613   3.502  0.1125 -0.1984  0.3330
  162DG     C18 3721   2.843   1.796   3.559  0.0615  0.3226  0.0593
  162DG     O19 3722   2.906   1.670   3.599 -0.5443  0.5533  0.7287
  162DG     H20 3723   2.934   1.583   3.419  2.0820  0.4690 -1.4967
  162DG     H21 3724   3.073   1.680   3.461  0.2692  0.0697  1.0396
  162DG     H22 3725   2.799   1.782   3.460  1.3715  2.7527 -0.9752
  162DG     H23 3726   2.920   1.873   3.553  0.1897  0.4369  2.2276
  163DG      C1 3727   0.393   4.143   0.547  0.8801 -0.5689 -0.1282
  163DG      C2 3728  -0.157   4.462   0.334  0.0215  0.4852 -0.6686
  163DG      H3 3729   0.437   4.241   0.565  1.0428 -0.9478  1.6793
  163DG      H4 3730   0.469   4.072   0.514 -0.2769 -2.3679  0.9442
  163DG      H5 3731   0.364   4.114   0.647 -0.3818 -1.8149 -0.8207
  163DG      H6 3732  -0.156   4.467   0.442  0.7740  0.9810 -0.6904
  163DG      H7 3733  -0.085   4.529   0.287  0.4539 -0.0933 -0.8502
  163DG      H8 3734  -0.257   4.490   0.302 -0.9934 -1.2405  0.8296
  163DG      O9 3735   0.277   4.126   0.466  0.5230  0.2503  0.1603
  163DG     O10 3736  -0.118   4.331   0.293  0.4211  0.1798  0.4343
  163DG     C11 3737   0.210   4.002   0.489  0.0016 -0.3786 -0.0602
  163DG     C12 3738  -0.189   4.226   0.367  0.5855  0.1091  0.4756
  163DG     H13 3739   0.180   3.993   0.593 -1.2839 -0.6388 -0.4374
  163DG     H14 3740   0.277   3.917   0.478  0.1510 -0.9469  3.9070
  163DG     H15 3741  -0.287   4.227   0.321  0.9622 -0.5654 -0.3692
  163DG     H16 3742  -0.211   4.245   0.472  0.4681 -1.9919  0.8768
  163DG     C17 3743   0.082   3.980   0.402 -0.2071  0.1288 -0.5656
  163DG     C18 3744  -0.127   4.086   0.360 -0.4045 -0.8841  0.4818
  163DG     O19 3745   0.007   4.102   0.404 -0.2785  0.3415 -0.0526
  163DG     H20 3746   0.022   3.891   0.423 -1.2238  0.6802 -1.0178
  163DG     H21 3747   0.116   3.981   0.298 -0.4142 -0.1190 -0.6380
  163DG     H22 3748  -0.182   4.028   0.433  0.0573 -0.3683  1.2598
  163DG     H23 3749  -0.139   4.028   0.269 -0.4325 -1.2001  0.6858
  164DG      C1 3750   1.753   3.982   4.704 -0.4220 -0.0680  0.6129
  164DG      C2 3751   2.205   3.971   3.970  0.1131  0.0265  0.6055
  164DG      H3 3752   1.744   4.088   4.729 -1.0081 -0.3572  1.6828
  164DG      H4 3753   1.773   3.917   4.789  3.1598 -1.0224 -0.7692
  164DG      H5 3754   1.667   3.951   4.645  1.2228 -0.4499 -1.7638
  164DG      H6 3755   2.109   3.983   3.921  0.8301  0.5734 -0.7406
  164DG      H7 3756   2.272   4.056   3.953 -1.0517  0.7924 -0.2670
  164DG      H8 3757   2.256   3.898   3.907 -1.2345 -0.4837  0.0724
  164DG      O9 3758   1.854   3.958   4.615  0.2578 -0.2137 -0.2889
  164DG     O10 3759   2.210   3.938   4.104 -0.2486  0.5416  0.2636
  164DG     C11 3760   1.983   4.013   4.661  0.4474  0.0011  0.3615
  164DG     C12 3761   2.130   4.023   4.186 -0.4146 -0.5338 -0.0178
  164DG     H13 3762   2.015   3.975   4.758  0.2145 -0.8946  0.0914
  164DG     H14 3763   1.993   4.121   4.675  0.1816  0.1666 -0.6589
  164DG     H15 3764   2.023   4.007   4.174 -0.2716 -3.4169  1.5954
  164DG     H16 3765   2.149   4.127   4.161 -0.6372 -0.5221 -0.1479
  164DG     C17 3766   2.083   3.963   4.558  0.5375  0.0640  0.5248
  164DG     C18 3767   2.167   3.990   4.340 -0.6529 -1.1422  0.6019
  164DG     O19 3768   2.061   4.021   4.428  0.3625 -0.8316 -1.0962
  164DG     H20 3769   2.094   3.857   4.534 -0.0628  0.5706 -2.3494
  164DG     H21 3770   2.184   3.991   4.588  1.1222  0.4094 -1.5760
  164DG     H22 3771   2.171   3.881   4.344  1.5918 -1.0901  0.9575
  164DG     H23 3772   2.261   4.040   4.360 -1.1209  0.8063 -1.6336
  165DG      C1 3773   0.421   3.621   1.829 -0.2189  0.0986  0.2182
  165DG      C2 3774  -0.224   3.625   1.695  0.0487 -0.2683 -0.4704
  165DG      H3 3775   0.403   3.726   1.806  0.3810 -0.3459 -2.6400
  165DG      H4 3776   0.521   3.591   1.797 -0.3042 -0.5974  0.5723
  165DG      H5 3777   0.410   3.594   1.934 -2.1029 -0.2993 -0.0368
  165DG      H6 3778  -0.269   3.529   1.719 -0.3683 -0.3838 -1.6597
  165DG      H7 3779  -0.253   3.679   1.786  0.2612 -0.1627 -0.4654
  165DG      H8 3780  -0.284   3.666   1.613 -0.0047  1.8309  0.5371
  165DG      O9 3781   0.331   3.531   1.758  0.2381  0.7185  0.2261
  165DG     O10 3782  -0.092   3.612   1.658 -0.2775  0.7435 -0.3116
  165DG     C11 3783   0.357   3.522   1.620  0.2974 -0.2692  0.2694
  165DG     C12 3784  -0.075   3.529   1.540 -0.0876  0.0002  0.0458
  165DG     H13 3785   0.464   3.500   1.618  0.4067  0.2868  0.0506
  165DG     H14 3786   0.334   3.622   1.584  0.7794  0.5741  2.1468
  165DG     H15 3787  -0.132   3.573   1.458 -0.4369 -0.1233  0.2190
  165DG     H16 3788  -0.119   3.433   1.566 -0.8690  0.4316  0.3632
  165DG     C17 3789   0.276   3.409   1.558 -0.5029 -0.0358  0.2686
  165DG     C18 3790   0.073   3.511   1.496  0.3318 -0.6005  0.0951
  165DG     O19 3791   0.137   3.423   1.584 -0.7945  0.2832 -0.1866
  165DG     H20 3792   0.314   3.316   1.601 -0.0544  1.2004  2.7346
  165DG     H21 3793   0.293   3.394   1.452  1.6372 -1.1680  0.7135
  165DG     H22 3794   0.071   3.462   1.399  0.0874 -0.5071  0.0537
  165DG     H23 3795   0.118   3.610   1.492 -0.5566 -0.1311  1.1615
  166DG      C1 3796   1.716   4.807   2.762 -0.0075 -0.1961 -0.3733
  166DG      C2 3797   1.477   4.221   3.079 -0.2039  0.4121 -0.4213
  166DG      H3 3798   1.820   4.824   2.791 -0.2431 -1.4907  1.3942
  166DG      H4 3799   1.647   4.852   2.834  1.1504  1.3986 -0.2056
  166DG      H5 3800   1.706   4.869   2.673 -1.1136 -0.7138 -0.6187
  166DG      H6 3801   1.468   4.286   3.166 -2.9138 -0.5442  0.1180
  166DG      H7 3802   1.377   4.186   3.055  1.2651 -2.6864 -2.6748
  166DG      H8 3803   1.535   4.133   3.104  0.8708  0.4530 -2.5958
  166DG      O9 3804   1.682   4.664   2.749 -0.0169 -0.2343 -0.7619
  166DG     O10 3805   1.539   4.291   2.981  0.4291 -0.2704  0.5743
  166DG     C11 3806   1.792   4.591   2.693  0.1544  0.0923 -1.0470
  166DG     C12 3807   1.608   4.203   2.890  0.1059  0.0013 -0.2767
  166DG     H13 3808   1.876   4.582   2.761  1.4100  1.2094 -2.3884
  166DG     H14 3809   1.827   4.637   2.600  1.1035  0.4338 -0.5293
  166DG     H15 3810   1.560   4.107   2.869  0.8338 -0.3013 -0.5949
  166DG     H16 3811   1.706   4.173   2.925 -0.0047  0.0171  0.0466
  166DG     C17 3812   1.746   4.446   2.665  0.4218 -0.1522 -0.3370
  166DG     C18 3813   1.632   4.267   2.758 -0.2098 -0.0703 -0.4153
  166DG     O19 3814   1.691   4.393   2.786  0.1820 -0.3618 -0.0624
  166DG     H20 3815   1.823   4.380   2.624  0.0296 -1.4428  0.8882
  166DG     H21 3816   1.669   4.449   2.588 -3.3754  1.6196  3.1519
  166DG     H22 3817   1.707   4.207   2.706 -1.4345  0.7792 -3.4073
  166DG     H23 3818   1.537   4.269   2.705 -0.9143 -0.4701  0.8147
  167DG      C1 3819   2.364   0.597   3.195 -0.5423  0.0093 -0.1983
  167DG      C2 3820   2.287   1.272   3.191  0.0934 -0.7146  0.4167
  167DG      H3 3821   2.300   0.627   3.278  1.5504  2.3840  0.6947
  167DG      H4 3822   2.448   0.546   3.241  1.6296  4.0175  0.7658
  167DG      H5 3823   2.310   0.534   3.125 -0.0812 -0.4824 -0.1158
  167DG      H6 3824   2.366   1.308   3.256  1.8241 -0.2549 -1.8011
  167DG      H7 3825   2.269   1.344   3.111  2.0295 -0.6633 -0.0237
  167DG      H8 3826   2.200   1.232   3.241  0.6221 -1.1382  1.0079
  167DG      O9 3827   2.386   0.725   3.139 -0.1208  0.0710  0.1433
  167DG     O10 3828   2.327   1.158   3.117 -0.1213  0.6554 -0.1530
  167DG     C11 3829   2.500   0.716   3.057 -0.2281 -0.3971 -0.4537
  167DG     C12 3830   2.434   1.187   3.032  0.2987 -0.1350  0.4332
  167DG     H13 3831   2.512   0.618   3.010 -0.9511 -0.1949 -1.0911
  167DG     H14 3832   2.581   0.740   3.126  0.2504  0.7567 -1.3791
  167DG     H15 3833   2.515   1.214   3.099  2.2216 -1.0910 -1.4080
  167DG     H16 3834   2.410   1.266   2.962 -1.8626 -0.7642  0.3921
  167DG     C17 3835   2.512   0.831   2.957 -0.6055 -0.2391 -0.4291
  167DG     C18 3836   2.476   1.072   2.953 -0.4149  0.0993 -0.2767
  167DG     O19 3837   2.479   0.954   3.034  0.0167 -0.3565 -0.3453
  167DG     H20 3838   2.437   0.826   2.878 -0.1168  0.8705 -0.9806
  167DG     H21 3839   2.606   0.829   2.903 -0.2390  0.2936  0.1753
  167DG     H22 3840   2.398   1.065   2.877 -0.2092  0.4911 -0.5269
  167DG     H23 3841   2.579   1.094   2.925 -0.1482 -0.6355  0.1015
  168DG      C1 3842   4.720   1.345   5.032 -0.0325 -0.6973  0.3690
  168DG      C2 3843   4.179   1.180   4.657 -0.2929  0.4582 -0.4134
  168DG      H3 3844   4.813   1.335   5.089  0.5716  0.8001 -0.3037
  168DG      H4 3845   4.642   1.283   5.075 -1.4430  0.1005 -0.9304
  168DG      H5 3846   4.685   1.448   5.030 -0.8849 -0.9929 -0.4366
  168DG      H6 3847   4.111   1.108   4.612  0.3357 -0.0626 -0.5390
  168DG      H7 3848   4.132   1.214   4.749  2.2325  2.3892  0.2801
  168DG      H8 3849   4.177   1.261   4.583  0.5077  1.0912  0.2364
  168DG      O9 3850   4.749   1.303   4.901  0.2664 -0.8708 -0.1220
  168DG     O10 3851   4.315   1.144   4.677  0.0856 -0.4763 -0.7545
  168DG     C11 3852   4.785   1.166   4.893 -0.3379  0.0495  0.1410
  168DG     C12 3853   4.320   1.048   4.779  0.7232  0.3027  0.2782
  168DG     H13 3854   4.875   1.155   4.954  0.2404  0.9253 -0.5238
  168DG     H14 3855   4.815   1.138   4.792 -2.8740  0.9296 -0.9334
  168DG     H15 3856   4.255   0.967   4.748 -0.7386  1.7025 -0.5093
  168DG     H16 3857   4.288   1.083   4.877 -0.0748 -3.3001  1.4188
  168DG     C17 3858   4.666   1.068   4.927 -0.3501  0.5075  0.5170
  168DG     C18 3859   4.462   1.002   4.808 -1.1126 -0.1735 -0.3843
  168DG     O19 3860   4.535   1.105   4.870 -0.3012 -0.2875  0.2177
  168DG     H20 3861   4.647   1.061   5.034  2.3467 -0.1811  1.0275
  168DG     H21 3862   4.691   0.965   4.903 -0.7249  0.2138  1.3507
  168DG     H22 3863   4.456   0.919   4.878 -2.2334  0.1043 -0.1239
  168DG     H23 3864   4.516   0.981   4.716  0.0137  2.6777 -0.4743
  169DG      C1 3865   3.412   0.935   4.665  0.6429  0.3609 -0.1686
  169DG      C2 3866   3.645   0.800   4.071 -0.3961 -0.3976  0.0295
  169DG      H3 3867   3.334   0.866   4.635 -1.2244  2.5421 -0.6742
  169DG      H4 3868   3.362   1.009   4.728  2.8284  1.9773 -0.1928
  169DG      H5 3869   3.492   0.887   4.720 -0.2393 -1.1705 -0.1575
  169DG      H6 3870   3.690   0.721   4.132 -0.0567  1.0673  1.7769
  169DG      H7 3871   3.543   0.772   4.045 -0.5844  1.5785 -1.6668
  169DG      H8 3872   3.694   0.823   3.976 -0.7538  0.0146 -0.0583
  169DG      O9 3873   3.471   1.000   4.563  0.8422 -0.6403  0.5621
  169DG     O10 3874   3.642   0.916   4.152 -0.2020  0.3021 -0.1307
  169DG     C11 3875   3.399   1.106   4.507  0.0644 -1.1452  0.0552
  169DG     C12 3876   3.591   1.031   4.092  0.2068  0.5265  0.0803
  169DG     H13 3877   3.357   1.178   4.576  0.6408  0.0483 -0.8035
  169DG     H14 3878   3.312   1.063   4.455  0.2456  0.7451 -1.9651
  169DG     H15 3879   3.494   1.014   4.044  0.9330  0.6016 -1.4576
  169DG     H16 3880   3.656   1.065   4.011 -1.8699  2.3073 -0.9578
  169DG     C17 3881   3.483   1.179   4.403  0.1560  0.4187  0.4983
  169DG     C18 3882   3.585   1.146   4.196 -0.2700 -0.3999  0.4385
  169DG     O19 3883   3.510   1.085   4.303  0.4708 -0.3137 -0.0060
  169DG     H20 3884   3.574   1.214   4.453 -0.5164  2.2126  0.5446
  169DG     H21 3885   3.435   1.270   4.370  0.5989  0.0198 -1.3429
  169DG     H22 3886   3.686   1.174   4.223 -0.4353 -0.2885  0.9526
  169DG     H23 3887   3.541   1.226   4.136  2.1979 -0.0918 -1.1338
  170DG      C1 3888   1.304   1.888   2.584  0.6918  0.0817  0.2540
  170DG      C2 3889   1.057   1.347   2.981  0.6424  0.6769  0.6483
  170DG      H3 3890   1.376   1.814   2.548 -0.1784 -1.7642  2.0646
  170DG      H4 3891   1.350   1.984   2.605  0.2991  0.5051 -0.7184
  170DG      H5 3892   1.241   1.885   2.495 -0.2222  1.1194  0.8407
  170DG      H6 3893   1.156   1.329   3.023  1.8261  0.1895 -2.1320
  170DG      H7 3894   0.991   1.295   3.050  3.4509 -3.1916  0.7396
  170DG      H8 3895   1.046   1.303   2.882  1.4833  1.4147  0.1975
  170DG      O9 3896   1.221   1.839   2.697 -0.0092 -0.8553 -0.7282
  170DG     O10 3897   1.048   1.486   2.972 -0.4135  0.0677 -0.1465
  170DG     C11 3898   1.106   1.919   2.725  0.3540  0.4134 -0.0329
  170DG     C12 3899   0.926   1.528   2.917 -0.3175  0.5091  0.1410
  170DG     H13 3900   1.042   1.908   2.637  0.1836 -0.5902  0.2051
  170DG     H14 3901   1.133   2.024   2.723 -1.9456  1.0865  0.5285
  170DG     H15 3902   0.843   1.484   2.971 -1.1175 -0.8728 -2.0752
  170DG     H16 3903   0.904   1.492   2.816  0.7138  1.5014 -0.4754
  170DG     C17 3904   1.019   1.877   2.843  0.0576 -0.2173  0.0446
  170DG     C18 3905   0.919   1.685   2.928  0.3044 -0.1301  0.0365
  170DG     O19 3906   1.014   1.735   2.840 -0.3523 -0.5142  0.2814
  170DG     H20 3907   0.921   1.920   2.822  0.4300  1.3420  1.3026
  170DG     H21 3908   1.052   1.916   2.939 -2.0306  0.4714  0.5328
  170DG     H22 3909   0.816   1.715   2.908  1.0255 -0.0952 -4.7429
  170DG     H23 3910   0.949   1.722   3.026  3.7201 -1.5528 -0.3225
  171DG      C1 3911   1.928   3.659   4.903 -0.4382 -0.1025 -0.1550
  171DG      C2 3912   2.560   3.450   4.990  0.0006  0.2531 -0.6992
  171DG      H3 3913   1.835   3.607   4.881  0.3897 -1.2949 -0.9842
  171DG      H4 3914   1.979   3.663   4.807  0.0186 -0.1773  0.0792
  171DG      H5 3915   1.923   3.759   4.947  0.7450 -0.1312  0.0794
  171DG      H6 3916   2.611   3.360   5.023  0.2637  0.6615  0.0298
  171DG      H7 3917   2.556   3.446   4.881 -0.8583  2.4965 -0.8049
  171DG      H8 3918   2.619   3.539   5.010  0.5625 -0.3408  0.3437
  171DG      O9 3919   1.998   3.562   4.981 -0.1117 -0.0876 -0.2411
  171DG     O10 3920   2.426   3.451   5.043 -0.3807 -0.1950 -0.6707
  171DG     C11 3921   1.940   3.545   5.106 -0.0640 -0.5860 -0.6900
  171DG     C12 3922   2.418   3.504   5.179 -0.3300 -0.0177 -0.3144
  171DG     H13 3923   1.840   3.500   5.100 -2.2098  3.3840  1.2296
  171DG     H14 3924   1.925   3.639   5.158  0.1083 -1.3544  0.8152
  171DG     H15 3925   2.435   3.611   5.190  0.9989 -0.2542  0.1535
  171DG     H16 3926   2.490   3.449   5.240 -0.6953  0.6217  0.7286
  171DG     C17 3927   2.040   3.465   5.193 -0.0898  0.9373 -0.1568
  171DG     C18 3928   2.282   3.459   5.234 -0.1365 -0.0660  0.0066
  171DG     O19 3929   2.177   3.516   5.161 -0.1588 -0.2458 -0.6334
  171DG     H20 3930   2.039   3.358   5.172 -0.8553  1.0005 -0.4489
  171DG     H21 3931   2.008   3.464   5.297  0.2011 -2.8133  0.0298
  171DG     H22 3932   2.270   3.351   5.230 -2.6986  0.1143  0.7169
  171DG     H23 3933   2.282   3.497   5.336  0.5747 -0.5737  0.1972
  172DG      C1 3934   3.859   2.329   3.353  0.6549  0.2511  0.7812
  172DG      C2 3935   4.115   2.895   3.464 -0.0885 -0.3794  0.1142
  172DG      H3 3936   3.798   2.265   3.289  2.6435 -0.7667 -0.2032
  172DG      H4 3937   3.786   2.372   3.421  2.2512  1.9069  1.5348
  172DG      H5 3938   3.933   2.268   3.405  0.0399 -0.3538  0.9745
  172DG      H6 3939   4.149   2.796   3.433  0.8584 -1.4281  3.8528
  172DG      H7 3940   4.178   2.963   3.407  0.5701  0.2161  1.4984
  172DG      H8 3941   4.149   2.907   3.567  3.0920  0.5780 -0.9368
  172DG      O9 3942   3.916   2.435   3.285  0.1063  0.2357  0.1743
  172DG     O10 3943   3.980   2.929   3.450  0.3587 -0.3515  1.0159
  172DG     C11 3944   3.835   2.484   3.179  0.3288  0.2947 -0.6288
  172DG     C12 3945   3.941   2.952   3.317 -0.2062  0.0429  0.6411
  172DG     H13 3946   3.734   2.495   3.217  0.5034  0.6623 -0.2603
  172DG     H14 3947   3.824   2.416   3.094 -1.9298 -1.9506  1.3390
  172DG     H15 3948   3.984   3.043   3.273  0.1255  0.2305  1.3350
  172DG     H16 3949   3.834   2.975   3.321  0.4858  3.9721  4.5372
  172DG     C17 3950   3.892   2.622   3.137  0.6937  0.3260 -0.5457
  172DG     C18 3951   3.967   2.832   3.222  0.4621 -0.5288 -0.4948
  172DG     O19 3952   3.893   2.713   3.251  0.0647 -0.5154  0.4828
  172DG     H20 3953   3.826   2.667   3.063  0.2543  1.8383  0.6810
  172DG     H21 3954   3.995   2.623   3.103  0.8054  1.4397 -0.2153
  172DG     H22 3955   3.941   2.853   3.118  0.2687 -2.0112 -0.7759
  172DG     H23 3956   4.075   2.818   3.222  0.7406  1.3644 -1.7167
  173DG      C1 3957   2.459   4.411   2.853 -0.2591 -0.4158  0.4358
  173DG      C2 3958   2.886   4.767   3.217  0.3601  0.0314  0.3999
  173DG      H3 3959   2.367   4.378   2.902 -0.0827 -3.7585 -1.2284
  173DG      H4 3960   2.521   4.327   2.881  1.3792  0.5910 -0.0251
  173DG      H5 3961   2.447   4.397   2.745 -0.5984 -0.4454  0.4746
  173DG      H6 3962   2.954   4.686   3.190  0.6659  0.0506  1.0851
  173DG      H7 3963   2.876   4.835   3.132 -0.7324 -1.2884 -0.5838
  173DG      H8 3964   2.930   4.811   3.306  1.0780 -1.1057  0.6231
  173DG      O9 3965   2.507   4.532   2.906  0.3327 -0.0584  0.0043
  173DG     O10 3966   2.758   4.715   3.244  0.5230  0.5428 -0.0322
  173DG     C11 3967   2.397   4.618   2.915  0.2393 -0.6529 -0.0131
  173DG     C12 3968   2.654   4.811   3.273 -0.4157  1.1351  1.1226
  173DG     H13 3969   2.313   4.591   2.979  0.6416  0.9272  1.2334
  173DG     H14 3970   2.360   4.634   2.814 -0.2722 -0.7254  0.1575
  173DG     H15 3971   2.709   4.892   3.323  1.2233  1.0024 -0.3599
  173DG     H16 3972   2.592   4.755   3.343  1.7209 -0.3320  1.9478
  173DG     C17 3973   2.465   4.757   2.959 -0.3892  0.0239 -0.1896
  173DG     C18 3974   2.573   4.853   3.148 -0.4165  0.0436  0.6201
  173DG     O19 3975   2.531   4.738   3.082  0.1808  0.2876  0.7168
  173DG     H20 3976   2.391   4.836   2.965  1.2760  1.6303  0.2523
  173DG     H21 3977   2.542   4.789   2.889 -0.5225  2.1932  0.5829
  173DG     H22 3978   2.498   4.932   3.158  2.4515  2.9220  0.9937
  173DG     H23 3979   2.651   4.898   3.087 -0.7676  0.5271  0.5134
  174DG      C1 3980   1.147   4.624   4.932  0.1439  0.9197  0.5159
  174DG      C2 3981   0.818   4.182   5.301 -0.1229  0.4100 -0.2698
  174DG      H3 3982   1.199   4.702   4.987  2.6161 -0.8778  0.8471
  174DG      H4 3983   1.159   4.631   4.824  2.1774 -2.9597  0.3130
  174DG      H5 3984   1.205   4.538   4.965  1.0783  1.1617 -0.4651
  174DG      H6 3985   0.842   4.107   5.226  0.4498  0.3486 -0.0286
  174DG      H7 3986   0.905   4.165   5.363 -0.0496 -1.7561 -0.8807
  174DG      H8 3987   0.731   4.143   5.355 -0.6630 -1.7436 -2.5144
  174DG      O9 3988   1.016   4.592   4.979 -0.5503  0.5273  0.5147
  174DG     O10 3989   0.788   4.308   5.248  0.3653  0.1624  0.0311
  174DG     C11 3990   0.929   4.709   5.002  0.5116 -0.5972 -0.1890
  174DG     C12 3991   0.753   4.414   5.336 -0.4978 -0.7752  1.1489
  174DG     H13 3992   0.897   4.766   4.915  1.2761  2.7270  1.5549
  174DG     H14 3993   0.981   4.789   5.054 -1.1228 -0.4612  1.3307
  174DG     H15 3994   0.825   4.430   5.416  1.1878 -0.7881 -0.3259
  174DG     H16 3995   0.667   4.380   5.393 -1.4841 -0.9295 -0.3650
  174DG     C17 3996   0.799   4.670   5.067 -0.4947  0.1609 -0.2147
  174DG     C18 3997   0.719   4.536   5.247 -0.0456  0.3257  0.8436
  174DG     O19 3998   0.832   4.590   5.180  0.1087 -0.3359  0.2028
  174DG     H20 3999   0.730   4.616   5.003 -1.9035  1.6259  0.0050
  174DG     H21 4000   0.740   4.756   5.097  1.4877  1.0699  1.2910
  174DG     H22 4001   0.643   4.501   5.177 -0.0015  0.4273  0.7455
  174DG     H23 4002   0.670   4.623   5.291  4.7251  3.8895 -0.0968
  175DG      C1 4003   5.306   0.139   2.847  0.3408  0.3902 -1.0582
  175DG      C2 4004   5.621   0.126   3.404 -0.1167  0.3858 -0.4763
  175DG      H3 4005   5.400   0.155   2.794  0.9894  1.3782  0.3425
  175DG      H4 4006   5.260   0.234   2.874 -1.8729 -1.1317  0.9243
  175DG      H5 4007   5.230   0.089   2.785  0.4953 -1.6383  0.3001
  175DG      H6 4008   5.661   0.113   3.505  1.6362 -0.8872 -1.2886
  175DG      H7 4009   5.707   0.119   3.338  0.7315  0.3916  0.5986
  175DG      H8 4010   5.584   0.228   3.394  2.8165  1.8042  1.5153
  175DG      O9 4011   5.322   0.065   2.970  0.0287  0.7351 -0.3225
  175DG     O10 4012   5.527   0.021   3.374 -0.5874 -0.0762 -0.3729
  175DG     C11 4013   5.200   0.023   3.024 -0.7215 -0.4516 -0.3884
  175DG     C12 4014   5.415   0.016   3.457 -1.0401 -0.3237  0.5198
  175DG     H13 4015   5.159  -0.048   2.952  0.1986 -0.0074 -1.3789
  175DG     H14 4016   5.128   0.103   3.038 -1.5655 -1.2824  0.1655
  175DG     H15 4017   5.390   0.116   3.493 -2.5335 -1.0338  1.5450
  175DG     H16 4018   5.431  -0.050   3.543  0.5993 -1.7925 -0.8395
  175DG     C17 4019   5.225  -0.055   3.153 -0.2579 -0.4547  0.4117
  175DG     C18 4020   5.302  -0.042   3.371  0.2565  0.0109 -0.3774
  175DG     O19 4021   5.294   0.023   3.249  0.2214 -0.8596  0.2291
  175DG     H20 4022   5.273  -0.146   3.117  0.6952  0.2644 -0.1657
  175DG     H21 4023   5.123  -0.073   3.187  0.2936 -1.8551  1.4317
  175DG     H22 4024   5.328  -0.145   3.347 -1.3979 -0.4490 -0.3301
  175DG     H23 4025   5.212  -0.052   3.432  1.7536 -0.9734  1.8321
  176DG      C1 4026   2.317   1.474   1.156  0.2764 -0.5673  0.1912
  176DG      C2 4027   1.760   1.291   1.441 -0.0804 -0.0608  0.4853
  176DG      H3 4028   2.350   1.578   1.157  0.9896 -0.7761 -0.4681
  176DG      H4 4029   2.333   1.429   1.058  0.0150 -2.4157  0.9468
  176DG      H5 4030   2.387   1.419   1.220  0.4604  1.0029  1.3971
  176DG      H6 4031   1.806   1.356   1.515  0.0132  0.8519 -0.3530
  176DG      H7 4032   1.703   1.347   1.367 -1.7261 -2.5822 -0.2982
  176DG      H8 4033   1.691   1.218   1.484 -0.4922 -0.4625 -0.7957
  176DG      O9 4034   2.189   1.443   1.211  0.6913  0.5973 -0.4104
  176DG     O10 4035   1.865   1.221   1.386 -0.1344  0.6715 -0.0187
  176DG     C11 4036   2.086   1.495   1.130 -0.1714 -0.5762 -0.1036
  176DG     C12 4037   1.820   1.135   1.278 -0.0478 -0.5342 -0.7448
  176DG     H13 4038   2.109   1.482   1.024  0.6372 -1.1571  0.1298
  176DG     H14 4039   2.072   1.599   1.160  0.1198 -0.5934  0.0978
  176DG     H15 4040   1.713   1.113   1.280 -0.2325  0.3512  0.4766
  176DG     H16 4041   1.879   1.044   1.289 -0.0136 -0.7541 -2.4727
  176DG     C17 4042   1.955   1.415   1.157 -0.0898 -0.2007  0.6674
  176DG     C18 4043   1.853   1.203   1.143  0.6554 -0.5632 -0.5914
  176DG     O19 4044   1.976   1.277   1.156 -0.6702 -0.3826  0.0209
  176DG     H20 4045   1.873   1.454   1.097  1.7759  0.3178 -1.6942
  176DG     H21 4046   1.928   1.428   1.262 -2.1941  1.2216  0.0132
  176DG     H22 4047   1.860   1.131   1.062 -3.2780  0.1404 -1.8008
  176DG     H23 4048   1.762   1.260   1.122  1.6174  1.3314  0.1512
  177DG      C1 4049   4.339   4.894   2.136 -0.5351 -0.3798  0.1420
  177DG      C2 4050   4.390   5.499   1.803  0.1862 -0.1540  0.0425
  177DG      H3 4051   4.232   4.915   2.131 -0.4694 -0.3347 -1.7049
  177DG      H4 4052   4.381   4.952   2.219 -1.3205 -0.0367  0.3129
  177DG      H5 4053   4.362   4.791   2.161  4.3208  1.0893  3.3476
  177DG      H6 4054   4.304   5.478   1.740 -0.0190 -1.6112  0.7661
  177DG      H7 4055   4.369   5.588   1.862  1.5203  0.7449 -0.7996
  177DG      H8 4056   4.463   5.517   1.724  0.5320 -0.9932  0.1568
  177DG      O9 4057   4.404   4.911   2.011  0.1837  0.1387 -0.1476
  177DG     O10 4058   4.433   5.393   1.884  0.0955 -0.4479 -0.6772
  177DG     C11 4059   4.548   4.917   2.020  0.1640 -0.0962 -0.3038
  177DG     C12 4060   4.565   5.397   1.935 -0.4245 -0.1224  0.1711
  177DG     H13 4061   4.596   4.892   1.926  0.5371  1.8739 -0.6748
  177DG     H14 4062   4.579   4.846   2.097 -1.3726  0.0007  0.4670
  177DG     H15 4063   4.571   5.494   1.985  1.4856  1.1451 -2.2985
  177DG     H16 4064   4.637   5.390   1.854 -1.7076 -0.1370 -0.9967
  177DG     C17 4065   4.606   5.054   2.071  0.5355  0.4641  0.3234
  177DG     C18 4066   4.589   5.292   2.038 -0.1187  0.4648  0.4404
  177DG     O19 4067   4.556   5.164   1.985 -0.2864  0.1944 -0.3491
  177DG     H20 4068   4.714   5.066   2.069  0.6593 -0.6299  0.0553
  177DG     H21 4069   4.583   5.068   2.176 -3.4122 -0.1067 -0.3022
  177DG     H22 4070   4.694   5.299   2.064  0.7965 -4.0865 -1.0374
  177DG     H23 4071   4.521   5.308   2.122 -2.4687 -0.2068 -1.2248
  178DG      C1 4072   3.135   0.368   3.823  0.4105  0.2411  0.0097
  178DG      C2 4073   3.188   0.853   3.336 -0.1677  0.1410 -0.2556
  178DG      H3 4074   3.118   0.261   3.820  0.8516  0.0474  2.2579
  178DG      H4 4075   3.035   0.410   3.822  0.7543  1.3448  2.5800
  178DG      H5 4076   3.187   0.374   3.919 -0.2117 -1.2001  0.4661
  178DG      H6 4077   3.231   0.918   3.259 -0.3252  1.5143  0.7824
  178DG      H7 4078   3.082   0.877   3.330 -0.1774  0.1357 -0.1090
  178DG      H8 4079   3.221   0.887   3.434 -0.5561 -1.0124  0.2821
  178DG      O9 4080   3.211   0.425   3.714  0.2854  0.1446  0.5614
  178DG     O10 4081   3.205   0.714   3.323 -0.0412 -0.0128  0.0228
  178DG     C11 4082   3.348   0.408   3.710  0.4994  0.1094  0.5939
  178DG     C12 4083   3.344   0.676   3.296  0.3563 -0.7926  0.5601
  178DG     H13 4084   3.372   0.309   3.750 -1.9987 -0.5389  0.6511
  178DG     H14 4085   3.399   0.493   3.756  0.2763  0.4669  0.1886
  178DG     H15 4086   3.414   0.745   3.341  0.6653  0.4440 -1.6911
  178DG     H16 4087   3.366   0.680   3.189 -0.3658  2.3306  0.4461
  178DG     C17 4088   3.380   0.419   3.557 -0.2301 -0.2592  0.6734
  178DG     C18 4089   3.375   0.535   3.357 -0.4065 -0.6798 -0.0017
  178DG     O19 4090   3.340   0.537   3.494 -0.1151  0.2116 -0.2262
  178DG     H20 4091   3.327   0.337   3.509 -2.9296  1.7713 -0.0514
  178DG     H21 4092   3.486   0.398   3.545 -1.0860 -4.8564 -0.8806
  178DG     H22 4093   3.326   0.451   3.308 -0.4783 -2.5482  2.9513
  178DG     H23 4094   3.483   0.521   3.348 -0.5418 -0.3903 -3.0612
  179DG      C1 4095   1.892   2.514   0.222  0.2093 -0.7119 -0.6322
  179DG      C2 4096   2.140   1.801   0.268  0.6712  0.6784 -0.7568
  179DG      H3 4097   1.905   2.622   0.213 -0.4110 -0.7295 -1.9814
  179DG      H4 4098   1.806   2.500   0.288  1.0373  1.2777  1.0000
  179DG      H5 4099   1.878   2.465   0.126 -1.5761 -2.0958  0.2614
  179DG      H6 4100   2.228   1.830   0.326  0.5465 -0.2915 -0.0477
  179DG      H7 4101   2.079   1.738   0.332  2.4861  0.0006  0.3931
  179DG      H8 4102   2.177   1.730   0.193 -0.2106 -0.0976 -0.4686
  179DG      O9 4103   1.995   2.461   0.303 -0.6813  0.4727 -0.5579
  179DG     O10 4104   2.076   1.910   0.208  0.3124  0.1031  0.5100
  179DG     C11 4105   1.984   2.333   0.355 -0.0551 -0.3388 -0.0600
  179DG     C12 4106   2.170   1.988   0.137 -0.6642  0.1121  0.8313
  179DG     H13 4107   1.898   2.320   0.422  0.2408  0.7800  0.5567
  179DG     H14 4108   2.071   2.318   0.419 -0.0224 -4.2737 -0.7730
  179DG     H15 4109   2.202   1.927   0.052  0.7414 -2.6531  3.1784
  179DG     H16 4110   2.258   2.018   0.193 -1.6623  1.5308  1.6909
  179DG     C17 4111   1.986   2.216   0.254 -0.2678 -0.7477  0.2730
  179DG     C18 4112   2.110   2.120   0.072 -0.2221 -0.2152 -0.0596
  179DG     O19 4113   2.097   2.229   0.169  0.6034 -0.3746 -0.4331
  179DG     H20 4114   1.888   2.222   0.209 -0.6883  0.0360  1.2410
  179DG     H21 4115   1.994   2.124   0.312  0.4143 -0.8972 -0.0440
  179DG     H22 4116   2.181   2.152  -0.004 -0.6357 -1.8228 -1.1576
  179DG     H23 4117   2.025   2.094   0.009  0.3206 -0.5192 -0.6782
  180DG      C1 4118   1.305   4.522   2.721 -0.1485  0.2495  0.4598
  180DG      C2 4119   1.621   4.514   3.295 -0.3601 -0.2306  0.3693
  180DG      H3 4120   1.197   4.514   2.729 -0.1986 -1.4148 -1.2062
  180DG      H4 4121   1.348   4.423   2.736 -1.7218 -0.3543  1.1509
  180DG      H5 4122   1.345   4.561   2.628  1.4785  0.6965  1.3137
  180DG      H6 4123   1.638   4.411   3.264  1.5064 -0.6531  2.5258
  180DG      H7 4124   1.717   4.548   3.333  0.5857 -0.6020 -1.5662
  180DG      H8 4125   1.546   4.495   3.372 -2.8707  1.2906 -1.5262
  180DG      O9 4126   1.357   4.593   2.831  0.2293  0.0306  0.3741
  180DG     O10 4127   1.577   4.603   3.189  0.0019  0.5196 -0.0691
  180DG     C11 4128   1.325   4.733   2.812 -0.5416  0.0274  0.1328
  180DG     C12 4129   1.550   4.731   3.236  0.5143  0.4701  0.7461
  180DG     H13 4130   1.219   4.744   2.792 -0.5126 -0.2783 -0.1919
  180DG     H14 4131   1.378   4.780   2.729 -1.7710 -0.6065 -1.0337
  180DG     H15 4132   1.628   4.765   3.304  0.6013 -0.7858  1.3095
  180DG     H16 4133   1.465   4.715   3.302 -0.0249  0.4524  0.0571
  180DG     C17 4134   1.356   4.804   2.939 -0.1126 -0.2021 -0.1504
  180DG     C18 4135   1.505   4.823   3.125 -0.1868 -0.9552 -0.4892
  180DG     O19 4136   1.468   4.747   3.009  0.3676 -0.5635 -0.0317
  180DG     H20 4137   1.268   4.800   3.003  0.9725  1.2962  1.5438
  180DG     H21 4138   1.379   4.911   2.929 -0.7322  0.1208  1.5163
  180DG     H22 4139   1.423   4.885   3.158  1.0139  0.9041 -0.8610
  180DG     H23 4140   1.585   4.897   3.119 -0.4344 -0.2232  3.0875
  181DG      C1 4141   0.147   3.060   2.791 -0.4181 -0.1704 -0.4051
  181DG      C2 4142   0.460   3.013   2.241  0.3155  0.1355  0.0670
  181DG      H3 4143   0.158   3.055   2.899  0.9047 -1.7616 -0.5737
  181DG      H4 4144   0.042   3.046   2.764 -0.9482  3.7411 -1.0619
  181DG      H5 4145   0.156   3.162   2.754  0.5661 -0.3620 -0.7328
  181DG      H6 4146   0.512   2.986   2.149  0.4166 -0.0598  0.1792
  181DG      H7 4147   0.363   3.057   2.218 -0.0968 -0.1855  1.1346
  181DG      H8 4148   0.520   3.093   2.284  0.5727  1.5315 -2.7032
  181DG      O9 4149   0.229   2.969   2.724  0.0679  0.7212 -0.4939
  181DG     O10 4150   0.438   2.896   2.320 -0.3827  0.4560  0.1255
  181DG     C11 4151   0.357   2.946   2.784 -0.5707 -0.5477  0.0239
  181DG     C12 4152   0.555   2.855   2.384  0.2377  0.0833 -0.0912
  181DG     H13 4153   0.341   2.928   2.891 -1.1555 -3.8413 -0.5125
  181DG     H14 4154   0.424   3.031   2.772 -0.2496 -0.7237  0.5559
  181DG     H15 4155   0.623   2.939   2.396 -0.5077  0.9739 -1.8630
  181DG     H16 4156   0.617   2.788   2.324  0.0196 -2.1317  2.0113
  181DG     C17 4157   0.416   2.827   2.716  0.4104 -0.0901 -0.2070
  181DG     C18 4158   0.517   2.784   2.514 -0.0382 -0.1535  0.0952
  181DG     O19 4159   0.445   2.875   2.589 -1.0956  0.0106  0.5523
  181DG     H20 4160   0.350   2.741   2.713  1.1066 -0.6734  0.8308
  181DG     H21 4161   0.507   2.795   2.766 -1.2962 -1.8839  1.9501
  181DG     H22 4162   0.464   2.693   2.487  0.2290  0.0671 -1.2553
  181DG     H23 4163   0.611   2.757   2.563  0.8933  1.1162 -0.9037
  182DG      C1 4164   3.109   1.909   4.790  0.1927  0.6059  0.4965
  182DG      C2 4165   3.639   2.331   4.658 -0.2147 -0.2106 -0.4377
  182DG      H3 4166   3.054   1.960   4.869  0.3997  1.8703 -0.1555
  182DG      H4 4167   3.191   1.859   4.841 -0.9971 -0.3568  1.5454
  182DG      H5 4168   3.038   1.838   4.746 -0.6625  0.0834  2.5500
  182DG      H6 4169   3.641   2.440   4.655 -0.7121 -0.2062 -2.6616
  182DG      H7 4170   3.694   2.299   4.746  0.3336  0.3140 -0.5862
  182DG      H8 4171   3.684   2.307   4.561  2.3758  0.4808  0.5126
  182DG      O9 4172   3.171   2.005   4.701  0.5488  0.2445 -0.4632
  182DG     O10 4173   3.500   2.296   4.671 -0.0639  0.1863  0.2181
  182DG     C11 4174   3.072   2.076   4.628 -0.2207  0.1400 -0.1483
  182DG     C12 4175   3.431   2.382   4.571  0.1046 -0.1364 -0.9279
  182DG     H13 4176   2.992   2.126   4.684 -2.2517 -1.7479 -1.1848
  182DG     H14 4177   3.019   2.004   4.565  0.6556 -0.7857  0.1504
  182DG     H15 4178   3.503   2.407   4.493 -0.0371 -0.6245 -1.2181
  182DG     H16 4179   3.401   2.478   4.614 -1.7301  0.8147 -3.9964
  182DG     C17 4180   3.135   2.168   4.527 -0.3024 -0.1431  0.9058
  182DG     C18 4181   3.313   2.320   4.506 -0.2753 -0.3246  0.9003
  182DG     O19 4182   3.249   2.222   4.585 -0.6720  0.3261  0.3385
  182DG     H20 4183   3.061   2.241   4.493 -1.6765 -2.2618 -0.9386
  182DG     H21 4184   3.172   2.123   4.435  1.9373  1.4516  0.9630
  182DG     H22 4185   3.246   2.397   4.470 -1.1079 -1.8029 -0.9441
  182DG     H23 4186   3.335   2.276   4.408 -4.1328  0.6071 -0.5378
  183DG      C1 4187   2.645   0.358   0.739 -0.1300 -0.8776  1.2722
  183DG      C2 4188   2.740   0.294   0.103  0.6017 -0.0169 -0.0473
  183DG      H3 4189   2.647   0.403   0.838  0.5451 -1.9611  1.7672
  183DG      H4 4190   2.702   0.266   0.731  1.1003  0.0332 -2.1884
  183DG      H5 4191   2.539   0.333   0.727  0.2931 -1.4276 -2.6946
  183DG      H6 4192   2.651   0.233   0.087  1.9152 -1.5792 -2.0089
  183DG      H7 4193   2.725   0.397   0.072 -1.2678  0.4349  2.0876
  183DG      H8 4194   2.804   0.253   0.024 -0.1600  0.5875 -1.0021
  183DG      O9 4195   2.696   0.446   0.639 -0.6718  0.4411 -0.0255
  183DG     O10 4196   2.801   0.292   0.228  0.1262  0.1563  0.4161
  183DG     C11 4197   2.836   0.466   0.641 -0.1168  0.1532 -0.0626
  183DG     C12 4198   2.857   0.172   0.270 -0.4620  1.1313 -0.2683
  183DG     H13 4199   2.879   0.491   0.738 -0.2431  0.2951 -0.0427
  183DG     H14 4200   2.849   0.547   0.569 -3.2932  0.3742 -0.5432
  183DG     H15 4201   2.921   0.124   0.196 -0.4443  1.3755 -0.4109
  183DG     H16 4202   2.789   0.096   0.310  0.4568  0.4047 -0.0254
  183DG     C17 4203   2.908   0.336   0.594 -0.2146  0.6295  0.1343
  183DG     C18 4204   2.937   0.210   0.393  0.0040  0.1879  0.1590
  183DG     O19 4205   2.858   0.299   0.471  0.2303  0.4189  0.9110
  183DG     H20 4206   2.903   0.254   0.665 -2.6577 -0.0701 -0.7092
  183DG     H21 4207   3.013   0.345   0.568 -0.2761  0.6892 -0.1023
  183DG     H22 4208   2.947   0.114   0.445  1.2582  0.3328  0.2151
  183DG     H23 4209   3.033   0.254   0.366  0.7908 -1.1314  0.6879
  184DG      C1 4210   4.569   5.107   1.615 -0.1949  0.2195 -0.1041
  184DG      C2 4211   4.047   5.011   1.908  0.5704  0.1054  0.2366
  184DG      H3 4212   4.592   5.037   1.534 -0.7903 -0.6683  0.4843
  184DG      H4 4213   4.597   5.071   1.714  0.6303 -1.5274 -0.9174
  184DG      H5 4214   4.620   5.203   1.602  0.1781  0.0912  0.3740
  184DG      H6 4215   4.066   4.979   1.806 -0.4946 -0.8497  0.3223
  184DG      H7 4216   4.088   4.943   1.983  1.9239  1.2432  0.5852
  184DG      H8 4217   3.939   5.000   1.914  0.3777  0.7692 -1.3811
  184DG      O9 4218   4.425   5.114   1.615  0.3638  0.0762  0.9411
  184DG     O10 4219   4.096   5.144   1.914  0.1234  0.0204 -0.2276
  184DG     C11 4220   4.380   5.219   1.529  0.2703  0.2622  0.2873
  184DG     C12 4221   4.019   5.239   1.841 -0.2003  0.4278  0.3320
  184DG     H13 4222   4.402   5.193   1.425  0.1672 -0.4165  0.4326
  184DG     H14 4223   4.433   5.311   1.555  1.1713 -0.3330  0.6052
  184DG     H15 4224   4.046   5.339   1.875  1.8849  0.7702 -2.0780
  184DG     H16 4225   3.911   5.226   1.851 -0.2186 -1.2201 -1.4170
  184DG     C17 4226   4.222   5.222   1.523 -0.4096  0.3072 -0.2928
  184DG     C18 4227   4.046   5.231   1.684 -0.0499 -0.1696 -0.0598
  184DG     O19 4228   4.189   5.236   1.662  0.4103 -0.6186 -0.1958
  184DG     H20 4229   4.179   5.126   1.496  0.1684  0.0540 -0.3300
  184DG     H21 4230   4.188   5.308   1.465  2.2933  0.2964 -2.1180
  184DG     H22 4231   3.995   5.138   1.659 -0.8647 -0.0569  1.0719
  184DG     H23 4232   3.994   5.312   1.633  1.5625  1.1270  0.2757
  185DG      C1 4233   1.864   4.710   3.594  0.2087  0.8461  0.1570
  185DG      C2 4234   2.042   5.451   3.658  0.3119  0.0564  0.1673
  185DG      H3 4235   1.962   4.666   3.573 -0.1026 -0.5824  1.4933
  185DG      H4 4236   1.798   4.676   3.514  1.3560  0.0598 -0.4800
  185DG      H5 4237   1.832   4.665   3.688  1.5103  0.9084  0.6481
  185DG      H6 4238   2.075   5.507   3.745 -2.7171  2.8941 -0.3255
  185DG      H7 4239   2.112   5.454   3.575 -0.6580 -1.7689 -0.8001
  185DG      H8 4240   1.950   5.499   3.625 -0.9121 -2.8775 -1.0790
  185DG      O9 4241   1.869   4.852   3.615 -0.0069  0.0977  0.7764
  185DG     O10 4242   2.012   5.317   3.683  0.0135 -0.0421 -0.3778
  185DG     C11 4243   1.738   4.904   3.631  0.4584  0.8031 -0.0521
  185DG     C12 4244   1.926   5.307   3.795 -0.3231  1.1999 -0.5098
  185DG     H13 4245   1.660   4.833   3.658  2.6830 -1.0132  2.1021
  185DG     H14 4246   1.682   4.942   3.545 -1.0934 -0.5039  0.3603
  185DG     H15 4247   1.834   5.364   3.787 -2.3470 -1.9641 -2.2613
  185DG     H16 4248   1.973   5.348   3.884 -3.1240  0.0382  1.6571
  185DG     C17 4249   1.740   5.006   3.749  0.3584 -0.2900 -0.0889
  185DG     C18 4250   1.881   5.167   3.828  0.0335 -0.0110  1.0351
  185DG     O19 4251   1.834   5.097   3.710  0.1398 -0.4145  0.2871
  185DG     H20 4252   1.783   4.953   3.835  2.5378  0.2277 -0.8019
  185DG     H21 4253   1.638   5.038   3.769  0.5047  0.0325  0.1499
  185DG     H22 4254   1.960   5.115   3.881 -1.7141 -2.4783  1.4017
  185DG     H23 4255   1.801   5.181   3.901  0.4082  2.3055  1.0551
  186DG      C1 4256   1.164   3.774   4.877 -0.1892 -0.4115 -0.2323
  186DG      C2 4257   0.549   3.970   4.618 -0.2506 -0.0224  0.5572
  186DG      H3 4258   1.236   3.840   4.926 -1.3825  0.1180  0.8666
  186DG      H4 4259   1.211   3.720   4.795  0.7512  0.6322 -0.4082
  186DG      H5 4260   1.149   3.712   4.965  2.0683  2.6149  2.5289
  186DG      H6 4261   0.491   3.918   4.694 -0.0978 -0.2006  0.5524
  186DG      H7 4262   0.564   4.073   4.650  1.2216  0.4189 -1.3248
  186DG      H8 4263   0.478   3.985   4.536 -1.5625 -0.0956  1.6392
  186DG      O9 4264   1.048   3.844   4.835  0.0613 -0.3121  0.4951
  186DG     O10 4265   0.669   3.909   4.574 -0.5592 -0.7567 -0.3051
  186DG     C11 4266   0.955   3.747   4.782  0.2799  0.2998  0.3511
  186DG     C12 4267   0.750   3.999   4.498  0.3949  0.0949 -0.3822
  186DG     H13 4268   0.859   3.792   4.808  1.3142  2.5356  0.5624
  186DG     H14 4269   0.972   3.649   4.828 -0.4392  1.4692  3.3555
  186DG     H15 4270   0.764   4.094   4.549  0.5087  0.1287 -0.4752
  186DG     H16 4271   0.704   4.037   4.407  0.2956 -1.8767 -1.1991
  186DG     C17 4272   0.960   3.757   4.622  0.3413 -0.1314 -0.1885
  186DG     C18 4273   0.886   3.939   4.476 -0.3460 -0.2011 -0.4233
  186DG     O19 4274   0.942   3.903   4.605  0.0348  0.4768  0.4780
  186DG     H20 4275   0.885   3.699   4.569  1.0890  0.0119 -1.4375
  186DG     H21 4276   1.055   3.728   4.577  0.6261 -0.3630  0.5338
  186DG     H22 4277   0.893   3.862   4.399  3.3616  0.3269 -0.7781
  186DG     H23 4278   0.949   4.013   4.427  0.4426  0.5639  1.6389
  187DG      C1 4279   4.298   0.044   4.813  0.0168  0.4247 -0.4891
  187DG      C2 4280   4.887   0.317   4.715  0.3476  0.1038 -0.7706
  187DG      H3 4281   4.248   0.133   4.849 -0.8672  0.0933 -0.8726
  187DG      H4 4282   4.360   0.006   4.894 -1.2098  1.0592  0.7745
  187DG      H5 4283   4.228  -0.033   4.780  0.5659 -0.7230  0.9239
  187DG      H6 4284   4.950   0.239   4.756  1.6500  1.4545 -0.1316
  187DG      H7 4285   4.951   0.376   4.650 -0.0784  1.0129 -0.3871
  187DG      H8 4286   4.835   0.366   4.798 -0.1383  0.1381 -1.0865
  187DG      O9 4287   4.361   0.093   4.695 -0.4894  0.0589 -0.0713
  187DG     O10 4288   4.769   0.271   4.642 -0.4534  0.0300 -0.5982
  187DG     C11 4289   4.371  -0.002   4.581 -0.6043 -0.4715 -0.6601
  187DG     C12 4290   4.810   0.185   4.535 -0.2354  0.5638 -0.0944
  187DG     H13 4291   4.274  -0.005   4.530 -0.8852 -0.9137 -0.1182
  187DG     H14 4292   4.395  -0.102   4.615  3.0939  0.8862  1.2793
  187DG     H15 4293   4.860   0.098   4.577 -1.6469 -0.6536 -0.8414
  187DG     H16 4294   4.875   0.244   4.469 -0.1826 -0.0266 -0.5823
  187DG     C17 4295   4.466   0.051   4.481 -0.2285  0.1810 -0.5403
  187DG     C18 4296   4.677   0.150   4.450  0.3045 -0.2098  0.2377
  187DG     O19 4297   4.595   0.076   4.536 -0.2105  0.3509 -0.5356
  187DG     H20 4298   4.414   0.137   4.438 -3.3767 -2.2863 -2.1131
  187DG     H21 4299   4.467  -0.023   4.400  0.1623 -1.5017  0.9456
  187DG     H22 4300   4.641   0.246   4.413 -3.1523 -1.6001 -0.3773
  187DG     H23 4301   4.695   0.089   4.362  0.5569  0.4902 -0.2098
  188DG      C1 4302   5.485   2.579   1.037  0.6867 -0.8114  0.2832
  188DG      C2 4303   5.048   2.783   1.515 -0.4361  0.4836  0.8789
  188DG      H3 4304   5.543   2.575   0.945 -0.0058  0.2169 -0.2260
  188DG      H4 4305   5.400   2.521   0.998  0.7190  0.8067 -2.4598
  188DG      H5 4306   5.547   2.524   1.108 -1.4008 -0.5331  2.4574
  188DG      H6 4307   5.102   2.750   1.604  1.0281  2.9697  1.0260
  188DG      H7 4308   5.026   2.883   1.554  0.5359  0.2247  2.1705
  188DG      H8 4309   4.961   2.722   1.494 -0.8175  0.0703  3.3676
  188DG      O9 4310   5.445   2.711   1.074 -0.6615 -0.1068 -0.2565
  188DG     O10 4311   5.135   2.803   1.403 -0.3469  0.0228  0.3962
  188DG     C11 4312   5.381   2.764   0.966  0.1482  0.0262 -0.9378
  188DG     C12 4313   5.063   2.851   1.291 -0.3960 -0.4144 -0.1322
  188DG     H13 4314   5.317   2.694   0.910 -2.2293  0.1605  1.3847
  188DG     H14 4315   5.457   2.790   0.892 -0.3587  0.2967 -1.3727
  188DG     H15 4316   4.978   2.913   1.320  0.3362 -0.1624  1.5939
  188DG     H16 4317   5.037   2.767   1.228  3.6911 -2.6564  0.8106
  188DG     C17 4318   5.298   2.887   1.011  0.0493  1.0101  0.1196
  188DG     C18 4319   5.143   2.933   1.189  0.1439  1.0961  0.0413
  188DG     O19 4320   5.249   2.855   1.144 -0.7275  0.1453  0.5177
  188DG     H20 4321   5.212   2.896   0.944 -1.2646  0.0981  1.6198
  188DG     H21 4322   5.347   2.984   1.016  3.2411 -0.5102  0.5842
  188DG     H22 4323   5.072   2.965   1.113 -1.0224 -1.2300  0.0975
  188DG     H23 4324   5.176   3.030   1.228 -0.2228  0.9221  0.7986
  189DG      C1 4325   2.555   4.211   5.172  0.4358  0.1858  0.1569
  189DG      C2 4326   2.240   4.017   5.780  0.6255  0.0109  0.2383
  189DG      H3 4327   2.521   4.173   5.076  0.8953  0.9925 -0.3359
  189DG      H4 4328   2.633   4.140   5.200 -0.2767 -0.2148  1.2237
  189DG      H5 4329   2.608   4.305   5.157  2.2936 -0.9589 -0.6960
  189DG      H6 4330   2.295   3.923   5.788 -1.2472 -1.0967  0.5924
  189DG      H7 4331   2.292   4.086   5.846  1.2797 -0.3985  0.1585
  189DG      H8 4332   2.139   3.988   5.810  0.1737  0.0554 -1.1517
  189DG      O9 4333   2.467   4.216   5.280  0.3983 -0.3780 -0.4960
  189DG     O10 4334   2.233   4.048   5.641  0.3279 -0.4145 -0.0866
  189DG     C11 4335   2.376   4.327   5.264 -0.2844 -0.3733 -0.0768
  189DG     C12 4336   2.142   4.162   5.622  0.5414 -0.1652  0.4252
  189DG     H13 4337   2.324   4.315   5.170 -0.0122 -0.4610 -0.2176
  189DG     H14 4338   2.433   4.419   5.273 -0.6281  0.0725 -2.0625
  189DG     H15 4339   2.180   4.255   5.666 -2.5141  2.1181 -1.4149
  189DG     H16 4340   2.044   4.142   5.664 -0.3332  0.5695 -1.1837
  189DG     C17 4341   2.271   4.316   5.384  0.5225 -0.9064  0.3978
  189DG     C18 4342   2.107   4.170   5.473 -0.1991 -0.7709 -0.1432
  189DG     O19 4343   2.226   4.180   5.393  0.2479  0.3840 -0.8229
  189DG     H20 4344   2.180   4.374   5.366  0.5055 -1.3099 -0.8629
  189DG     H21 4345   2.305   4.357   5.480  0.4527  0.0033  0.0453
  189DG     H22 4346   2.058   4.079   5.438 -0.8289 -0.1219 -1.0003
  189DG     H23 4347   2.036   4.253   5.462  2.5296  1.4876 -2.3537
  190DG      C1 4348   1.413   5.411   2.071 -0.5790 -0.0364  0.5898
  190DG      C2 4349   0.759   5.778   2.299 -0.1412 -0.7660  0.7925
  190DG      H3 4350   1.482   5.398   2.154 -0.0683  1.6517  0.4764
  190DG      H4 4351   1.422   5.516   2.042  0.0816  0.2762  1.8784
  190DG      H5 4352   1.448   5.347   1.989  1.3615  1.2967  0.2886
  190DG      H6 4353   0.755   5.869   2.240  2.5875 -0.7703  0.4446
  190DG      H7 4354   0.666   5.760   2.353  0.7632 -0.6424  2.4952
  190DG      H8 4355   0.834   5.802   2.375  0.0585 -0.1120  0.3945
  190DG      O9 4356   1.277   5.384   2.108  0.1166  0.2646 -0.1451
  190DG     O10 4357   0.804   5.665   2.224  1.1566 -0.3725 -1.1337
  190DG     C11 4358   1.178   5.379   2.003 -0.3820 -0.4566  0.4806
  190DG     C12 4359   0.915   5.705   2.147  0.4202 -0.2983  0.2388
  190DG     H13 4360   1.186   5.293   1.937  0.9221  1.3443 -1.9106
  190DG     H14 4361   1.182   5.462   1.932 -0.9789  0.8970  1.9523
  190DG     H15 4362   0.989   5.750   2.213  1.0249 -2.5437  1.1581
  190DG     H16 4363   0.876   5.774   2.072 -1.5498 -3.6981 -2.1240
  190DG     C17 4364   1.048   5.359   2.078 -0.6107 -0.3336  0.2049
  190DG     C18 4365   0.970   5.582   2.071 -0.0418 -0.2120  0.2689
  190DG     O19 4366   0.999   5.469   2.147 -0.4356 -0.7446 -0.3016
  190DG     H20 4367   1.057   5.283   2.156 -0.8354  1.1891  1.7815
  190DG     H21 4368   0.974   5.317   2.010 -0.8417  1.6771 -0.8778
  190DG     H22 4369   0.896   5.550   1.997  1.0246 -0.7791 -0.5731
  190DG     H23 4370   1.048   5.621   2.007 -0.0309 -0.4871  0.1162
  191DG      C1 4371   2.045   3.283   1.459  0.3620  0.1599 -0.6125
  191DG      C2 4372   1.864   3.768   1.845  0.0036 -0.8378 -0.4067
  191DG      H3 4373   2.115   3.326   1.387 -1.4871  3.8421 -0.4011
  191DG      H4 4374   2.007   3.181   1.453  0.4687  0.1407 -1.0064
  191DG      H5 4375   2.114   3.291   1.544  0.1649  1.5464 -0.5710
  191DG      H6 4376   1.956   3.787   1.791 -1.4060  0.0306 -2.6374
  191DG      H7 4377   1.822   3.867   1.859 -0.3719 -1.0188 -0.2360
  191DG      H8 4378   1.894   3.725   1.940 -1.2561 -1.2443 -0.1705
  191DG      O9 4379   1.949   3.393   1.477  0.0180 -0.2218  1.1232
  191DG     O10 4380   1.790   3.677   1.769  0.0790  0.1657  0.3760
  191DG     C11 4381   1.860   3.414   1.368  0.0098 -0.1455 -0.9231
  191DG     C12 4382   1.712   3.750   1.675 -0.3711 -0.5188  0.0744
  191DG     H13 4383   1.838   3.324   1.310 -0.2004  1.4204 -3.4605
  191DG     H14 4384   1.915   3.480   1.301 -1.8442  1.0958 -1.3177
  191DG     H15 4385   1.764   3.832   1.626 -0.3588  2.0655  3.9773
  191DG     H16 4386   1.629   3.787   1.735  0.8966  1.0326  0.9464
  191DG     C17 4387   1.737   3.490   1.414  0.5373 -0.8611  0.5547
  191DG     C18 4388   1.662   3.658   1.566  0.2038 -0.4598 -0.1278
  191DG     O19 4389   1.775   3.593   1.512 -0.1497 -0.8235  0.3892
  191DG     H20 4390   1.661   3.422   1.452  1.3689 -0.6845  2.6333
  191DG     H21 4391   1.693   3.537   1.325  2.2521 -0.4282 -0.1268
  191DG     H22 4392   1.597   3.584   1.613 -1.7282  0.2797 -1.5058
  191DG     H23 4393   1.587   3.692   1.495  0.3905 -0.3160 -0.2579
  192DG      C1 4394   0.277   0.653   3.121 -0.4137 -0.2212 -0.1516
  192DG      C2 4395  -0.047   0.432   2.515 -0.5344 -0.5279 -0.4240
  192DG      H3 4396   0.252   0.549   3.140  1.4756 -1.0420 -1.7876
  192DG      H4 4397   0.203   0.725   3.156 -0.2744  0.3052 -0.9238
  192DG      H5 4398   0.369   0.675   3.177 -2.0517  2.2663  1.8029
  192DG      H6 4399  -0.060   0.355   2.440 -0.3304 -1.2125  0.2248
  192DG      H7 4400  -0.141   0.420   2.570 -1.5583  0.3833 -1.9008
  192DG      H8 4401  -0.040   0.529   2.466  2.0137  0.9490  2.4743
  192DG      O9 4402   0.306   0.669   2.986  0.4328  0.0744  0.2172
  192DG     O10 4403   0.066   0.415   2.600  0.8270 -0.0006 -0.8568
  192DG     C11 4404   0.410   0.593   2.928  0.3382 -0.6078 -0.6626
  192DG     C12 4405   0.189   0.430   2.538 -0.5931 -0.5569  0.3520
  192DG     H13 4406   0.397   0.490   2.963  0.4041 -0.0018  1.2254
  192DG     H14 4407   0.503   0.639   2.961  0.0938 -1.0914  0.7511
  192DG     H15 4408   0.177   0.448   2.431 -1.4493  0.6100  0.6175
  192DG     H16 4409   0.251   0.345   2.565  0.6740 -0.3585 -1.7245
  192DG     C17 4410   0.407   0.600   2.780 -0.0626 -0.2554 -0.1669
  192DG     C18 4411   0.261   0.559   2.593  0.1122  0.3985 -0.4032
  192DG     O19 4412   0.296   0.529   2.730 -0.5450  0.1112 -0.1921
  192DG     H20 4413   0.498   0.553   2.743  1.1584 -1.1840  3.5589
  192DG     H21 4414   0.390   0.704   2.750  1.0095 -0.1608 -0.4778
  192DG     H22 4415   0.355   0.573   2.538 -0.5999  1.0482 -1.5084
  192DG     H23 4416   0.196   0.647   2.589  0.6949  0.8726  0.2627
  193DG      C1 4417   4.278   0.641   3.515 -0.3238  0.0110  0.1138
  193DG      C2 4418   5.073   0.898   3.559  0.0120 -0.0289 -0.0989
  193DG      H3 4419   4.206   0.561   3.528  1.3584 -1.6649 -0.3484
  193DG      H4 4420   4.285   0.662   3.408 -1.1579 -0.1465  0.0290
  193DG      H5 4421   4.244   0.732   3.564  0.8114 -0.6500  2.2540
  193DG      H6 4422   5.181   0.889   3.549  0.1696  1.4423  0.1140
  193DG      H7 4423   5.036   0.974   3.490 -0.1539  0.3557  0.4177
  193DG      H8 4424   5.053   0.930   3.661  3.8093  0.2990  0.6875
  193DG      O9 4425   4.404   0.622   3.570 -0.2461 -0.3689  0.0694
  193DG     O10 4426   5.015   0.769   3.545  0.1433 -0.7792  0.2456
  193DG     C11 4427   4.468   0.512   3.504  0.2795 -0.0267 -0.5164
  193DG     C12 4428   4.871   0.765   3.551  0.4774 -0.6734  0.8973
  193DG     H13 4429   4.454   0.515   3.396  0.6758 -0.1000 -0.5738
  193DG     H14 4430   4.419   0.422   3.541 -0.1028  0.0284 -0.8919
  193DG     H15 4431   4.835   0.815   3.461  2.0613  0.0132  0.6079
  193DG     H16 4432   4.841   0.828   3.635 -2.2504 -1.7230  0.8021
  193DG     C17 4433   4.612   0.505   3.559 -0.2265 -0.0875  0.0375
  193DG     C18 4434   4.820   0.621   3.556 -0.2937 -0.4719 -0.7157
  193DG     O19 4435   4.682   0.622   3.531  0.2273  0.3639 -0.0963
  193DG     H20 4436   4.666   0.418   3.520 -2.6962 -1.7249  0.0285
  193DG     H21 4437   4.602   0.489   3.667 -2.6708 -0.6964 -0.2266
  193DG     H22 4438   4.875   0.575   3.474  0.8827  0.1082 -0.2711
  193DG     H23 4439   4.850   0.575   3.650  0.1092  1.6015  0.2422
  194DG      C1 4440   1.407   0.812   2.897  0.1512  0.1411  0.9537
  194DG      C2 4441   1.037   0.658   2.354  0.2238  0.3661 -0.4565
  194DG      H3 4442   1.315   0.851   2.942  2.0984  4.4430  1.6976
  194DG      H4 4443   1.447   0.897   2.843 -5.0033  1.4628 -1.4722
  194DG      H5 4444   1.471   0.793   2.983 -1.2847  1.2089  2.3259
  194DG      H6 4445   1.081   0.753   2.324 -1.0559  1.1526  0.0675
  194DG      H7 4446   1.014   0.598   2.267 -1.5397 -0.0166  0.2292
  194DG      H8 4447   0.943   0.692   2.398  0.5177 -0.2326  0.6641
  194DG      O9 4448   1.406   0.700   2.812 -0.1772 -0.0970 -0.5155
  194DG     O10 4449   1.134   0.596   2.433 -0.3981  0.3741 -0.5672
  194DG     C11 4450   1.375   0.580   2.878  0.1500  0.5774  0.3446
  194DG     C12 4451   1.083   0.481   2.496  0.6773  0.3621  0.3565
  194DG     H13 4452   1.307   0.587   2.963  1.2482  0.5881  1.2402
  194DG     H14 4453   1.461   0.528   2.921 -0.9400 -2.7109 -1.1088
  194DG     H15 4454   1.048   0.403   2.429 -1.7728  1.2087  0.5448
  194DG     H16 4455   0.994   0.508   2.554 -1.8747 -1.3766 -2.4588
  194DG     C17 4456   1.320   0.476   2.771  0.1993 -0.2094  0.5118
  194DG     C18 4457   1.186   0.424   2.588 -0.4603  0.6541  0.1753
  194DG     O19 4458   1.244   0.526   2.664  0.8213  0.1153 -0.2400
  194DG     H20 4459   1.263   0.399   2.825  0.5261  0.4966  1.9133
  194DG     H21 4460   1.406   0.438   2.716  1.2709 -0.6523  2.3996
  194DG     H22 4461   1.153   0.338   2.646 -0.9187 -1.0459 -2.4446
  194DG     H23 4462   1.269   0.377   2.534 -0.4446  1.5159 -0.5786
  195DG      C1 4463   0.647   0.574   2.438 -0.1550 -0.3529  0.0090
  195DG      C2 4464   0.163   0.067   2.096  0.0852 -0.6965 -0.5800
  195DG      H3 4465   0.611   0.632   2.523 -2.0315 -1.6331  0.1301
  195DG      H4 4466   0.728   0.637   2.401  0.2294  0.9539  2.7796
  195DG      H5 4467   0.704   0.496   2.488  1.2279  0.8938  0.4399
  195DG      H6 4468   0.071   0.011   2.112 -1.6682  2.1221 -0.0928
  195DG      H7 4469   0.180   0.060   1.989 -0.7385 -2.5178 -0.6268
  195DG      H8 4470   0.237   0.014   2.156  0.4137  0.5578  0.1729
  195DG      O9 4471   0.551   0.514   2.355  0.0783 -0.8466  0.0740
  195DG     O10 4472   0.123   0.198   2.136 -0.3038  0.6083  0.5109
  195DG     C11 4473   0.526   0.594   2.238 -0.5536 -0.1058  0.0359
  195DG     C12 4474   0.227   0.294   2.172 -0.7266 -0.2246 -0.2779
  195DG     H13 4475   0.615   0.591   2.176  1.1002  2.2867  2.1002
  195DG     H14 4476   0.501   0.699   2.255  1.7258  1.1313 -3.1576
  195DG     H15 4477   0.283   0.263   2.260 -0.1098 -3.3438 -1.6265
  195DG     H16 4478   0.177   0.385   2.204  1.9297  1.0526  0.5837
  195DG     C17 4479   0.413   0.537   2.150 -0.2895  0.2029 -0.3273
  195DG     C18 4480   0.335   0.320   2.074  0.1821 -0.2554  0.7539
  195DG     O19 4481   0.436   0.395   2.145  0.7063 -0.4221 -0.2162
  195DG     H20 4482   0.413   0.579   2.050  3.7263  0.6073 -0.2907
  195DG     H21 4483   0.314   0.551   2.195 -0.7778  0.2114 -1.3831
  195DG     H22 4484   0.376   0.225   2.038 -1.6291 -1.2403  1.1673
  195DG     H23 4485   0.295   0.375   1.989  0.2843 -1.2176  0.0609
  196DG      C1 4486   3.278   3.594   0.343  0.8421  0.5293 -0.5627
  196DG      C2 4487   3.921   3.574   0.256 -0.1475  0.2900 -0.3098
  196DG      H3 4488   3.280   3.533   0.253  2.2772 -0.6904  0.2341
  196DG      H4 4489   3.253   3.698   0.322 -1.3332  0.0701 -0.4673
  196DG      H5 4490   3.198   3.548   0.401 -0.6283  1.7712 -1.5693
  196DG      H6 4491   3.967   3.667   0.222  0.7283 -0.0758 -0.1746
  196DG      H7 4492   3.995   3.507   0.301 -0.8638 -0.2679  0.0489
  196DG      H8 4493   3.884   3.517   0.171  3.4284 -1.7016 -0.7674
  196DG      O9 4494   3.402   3.582   0.413  0.1293 -0.5237 -0.2853
  196DG     O10 4495   3.822   3.601   0.350  0.4538  0.1883  0.4938
  196DG     C11 4496   3.402   3.647   0.541  0.0043 -0.1305 -0.0705
  196DG     C12 4497   3.876   3.647   0.476  0.1946  0.0403 -0.2436
  196DG     H13 4498   3.320   3.615   0.605  0.3285  1.0102  0.9589
  196DG     H14 4499   3.381   3.753   0.523  0.2271 -0.1608 -0.5522
  196DG     H15 4500   3.897   3.753   0.458  2.4662 -0.4590 -0.8980
  196DG     H16 4501   3.967   3.590   0.495 -0.7059 -1.5888 -0.6445
  196DG     C17 4502   3.538   3.631   0.610 -0.0077  0.9038 -0.4989
  196DG     C18 4503   3.772   3.636   0.590  0.7270 -0.5174 -0.4356
  196DG     O19 4504   3.649   3.663   0.531 -0.4818  0.0654  0.0476
  196DG     H20 4505   3.534   3.522   0.614 -2.3041  0.9556 -0.0796
  196DG     H21 4506   3.534   3.661   0.715 -1.6648 -2.2905  0.4770
  196DG     H22 4507   3.785   3.537   0.633  0.7372  0.2933  1.5297
  196DG     H23 4508   3.790   3.709   0.669 -0.2271  0.3153 -0.9483
  197DG      C1 4509   2.380   0.858   3.557 -0.4046 -0.3292  0.3378
  197DG      C2 4510   2.121   0.882   2.896  0.0069  0.0148  0.1985
  197DG      H3 4511   2.467   0.842   3.493 -0.3743  1.1276 -0.0060
  197DG      H4 4512   2.342   0.768   3.605 -1.1537 -0.4274 -0.4256
  197DG      H5 4513   2.397   0.937   3.630  2.2505 -1.2823  0.8635
  197DG      H6 4514   2.178   0.794   2.866  1.4991  1.0945 -0.2416
  197DG      H7 4515   2.023   0.859   2.856 -0.7284  0.9789  1.3963
  197DG      H8 4516   2.154   0.965   2.834 -0.7802 -0.2643 -0.6043
  197DG      O9 4517   2.282   0.895   3.460  0.1632 -0.1631 -0.8253
  197DG     O10 4518   2.105   0.893   3.037  0.4237  0.3561 -0.0240
  197DG     C11 4519   2.181   0.981   3.509 -1.1690 -0.9189  0.7739
  197DG     C12 4520   2.023   1.005   3.071  0.5422 -0.1535  0.6071
  197DG     H13 4521   2.202   1.087   3.493 -1.5092 -0.6905  1.8174
  197DG     H14 4522   2.166   0.973   3.616 -0.7202  1.3581  1.0474
  197DG     H15 4523   1.935   1.010   3.006  1.3462 -0.2800 -0.5162
  197DG     H16 4524   2.082   1.095   3.053 -1.4968  1.1996  0.3088
  197DG     C17 4525   2.048   0.951   3.441 -0.0556 -0.3624  0.4993
  197DG     C18 4526   1.970   0.988   3.220 -0.1195 -0.2187 -0.0559
  197DG     O19 4527   2.080   0.957   3.304 -0.5410 -0.2041 -0.4151
  197DG     H20 4528   1.970   1.019   3.473  1.0189  1.8321 -1.2327
  197DG     H21 4529   2.014   0.850   3.465 -2.0947 -0.8237 -3.4826
  197DG     H22 4530   1.940   1.087   3.255  2.1934  0.9086 -0.9898
  197DG     H23 4531   1.891   0.914   3.226 -0.8218  0.5283  0.1120
  198DG      C1 4532   1.783   3.601   3.879  0.2254 -0.1191 -0.3388
  198DG      C2 4533   1.892   3.474   4.565  0.8635 -0.1793  0.2278
  198DG      H3 4534   1.815   3.497   3.884 -1.5427 -0.7195 -0.9560
  198DG      H4 4535   1.864   3.658   3.833  0.7689 -0.3959  0.2497
  198DG      H5 4536   1.698   3.613   3.813  0.8763 -0.4599 -1.2634
  198DG      H6 4537   1.907   3.369   4.539  2.1642 -0.2392  1.1455
  198DG      H7 4538   1.993   3.513   4.563  2.4522 -3.8086  1.0041
  198DG      H8 4539   1.844   3.485   4.662 -0.5620  0.7144 -0.5572
  198DG      O9 4540   1.755   3.642   4.014 -0.7337  0.5333  0.5068
  198DG     O10 4541   1.813   3.540   4.457  0.1086  0.1653 -0.1393
  198DG     C11 4542   1.745   3.780   4.030  0.8464  0.1723 -0.5555
  198DG     C12 4543   1.813   3.681   4.484 -0.4255  0.1437  0.2011
  198DG     H13 4544   1.676   3.815   3.954  1.4575  0.1242 -1.1374
  198DG     H14 4545   1.842   3.829   4.031  1.1804 -0.4446  0.9663
  198DG     H15 4546   1.908   3.734   4.470  0.3548 -0.9212  1.1914
  198DG     H16 4547   1.786   3.686   4.590 -1.0666  1.4339 -0.0029
  198DG     C17 4548   1.680   3.801   4.162  0.1370 -0.0287  0.4417
  198DG     C18 4549   1.707   3.754   4.391  0.2288 -0.1549 -0.6158
  198DG     O19 4550   1.770   3.757   4.268 -0.4305  0.2945 -0.0814
  198DG     H20 4551   1.580   3.758   4.163 -0.3437  1.0228 -0.1753
  198DG     H21 4552   1.651   3.905   4.176  1.8382  0.5410  0.0658
  198DG     H22 4553   1.617   3.692   4.392  1.4643 -2.0989  2.0758
  198DG     H23 4554   1.678   3.855   4.418  1.0227  0.1954 -1.0552
  199DG      C1 4555   3.981   1.006   0.616  0.8160 -0.3982  0.3615
  199DG      C2 4556   4.401   1.208   0.268 -0.9874 -0.7585 -0.1787
  199DG      H3 4557   3.876   0.999   0.643  0.7074 -1.9400 -0.3587
  199DG      H4 4558   4.040   0.996   0.707 -1.0949  1.1726  1.8735
  199DG      H5 4559   4.009   0.931   0.543  1.0056  1.5265 -1.6579
  199DG      H6 4560   4.456   1.245   0.354 -1.0789  1.1493 -0.8920
  199DG      H7 4561   4.405   1.100   0.266  1.5555 -0.7134 -0.6427
  199DG      H8 4562   4.454   1.226   0.174  0.6015 -2.5471  0.3309
  199DG      O9 4563   4.026   1.115   0.545  0.1490 -0.6615  0.4990
  199DG     O10 4564   4.263   1.243   0.255 -0.6413  0.0186 -0.1933
  199DG     C11 4565   4.011   1.248   0.599  0.4771 -0.4011  0.5531
  199DG     C12 4566   4.244   1.387   0.245 -0.3004  0.3357  0.4453
  199DG     H13 4567   4.059   1.244   0.697  0.4002 -3.5416  0.5486
  199DG     H14 4568   3.906   1.277   0.604  0.2645 -1.0189 -0.2183
  199DG     H15 4569   4.282   1.427   0.151 -1.3934  0.2090 -0.0734
  199DG     H16 4570   4.292   1.436   0.329  0.4312  2.4026 -1.0898
  199DG     C17 4571   4.082   1.337   0.498  0.4219 -0.1403  0.2598
  199DG     C18 4572   4.090   1.412   0.262 -0.0079 -0.6952  0.3213
  199DG     O19 4573   4.026   1.334   0.364  0.1266  0.5475 -0.3346
  199DG     H20 4574   4.185   1.299   0.499  0.2370 -1.0774 -3.6329
  199DG     H21 4575   4.081   1.444   0.519 -0.8665  0.0873 -0.8961
  199DG     H22 4576   4.076   1.514   0.299 -1.3005  0.0439 -1.9907
  199DG     H23 4577   4.037   1.394   0.169  0.4940  3.4034 -0.9721
  200DG      C1 4578   0.607   1.942   0.233  0.7687  0.4926 -0.3369
  200DG      C2 4579   0.321   2.506   0.097  0.4803 -0.4792  0.1007
  200DG      H3 4580   0.515   1.886   0.252 -0.2382  2.1330 -0.1589
  200DG      H4 4581   0.613   2.024   0.305  0.8189  0.4777 -0.3240
  200DG      H5 4582   0.693   1.876   0.242  1.2071  1.2774  1.9900
  200DG      H6 4583   0.329   2.600   0.041 -1.6811 -0.3739 -0.1330
  200DG      H7 4584   0.218   2.471   0.089  1.0047 -1.8629 -0.9041
  200DG      H8 4585   0.339   2.537   0.199 -1.1890  0.1728  0.2390
  200DG      O9 4586   0.590   1.998   0.103  0.3471  0.4684 -0.1172
  200DG     O10 4587   0.414   2.412   0.041  0.1085  0.2219  0.3586
  200DG     C11 4588   0.702   2.070   0.062  0.2769 -0.2084  1.2075
  200DG     C12 4589   0.370   2.352  -0.079 -0.1788 -0.2055  0.2014
  200DG     H13 4590   0.788   2.003   0.052  0.8232  0.5252  0.9173
  200DG     H14 4591   0.717   2.138   0.146  0.7413 -2.1109  2.7416
  200DG     H15 4592   0.317   2.411  -0.155  0.0489 -0.5902 -0.2577
  200DG     H16 4593   0.299   2.273  -0.055 -0.8259  0.3399  0.1212
  200DG     C17 4594   0.671   2.144  -0.067  0.2946  0.6625 -0.0389
  200DG     C18 4595   0.489   2.282  -0.138  0.5363 -0.0093 -0.0878
  200DG     O19 4596   0.555   2.221  -0.037  0.5497  0.4993  0.2679
  200DG     H20 4597   0.642   2.076  -0.147  0.6143  0.6589 -0.1555
  200DG     H21 4598   0.763   2.197  -0.093  0.9950  0.9455  2.6917
  200DG     H22 4599   0.458   2.203  -0.207 -0.6394 -0.9147  1.3930
  200DG     H23 4600   0.559   2.349  -0.187  0.8534 -0.6818 -0.5768
  201DG      C1 4601   3.406   5.206   4.997  0.0212 -0.9228 -0.5900
  201DG      C2 4602   3.615   5.814   5.030 -0.2516 -0.8245 -0.0875
  201DG      H3 4603   3.486   5.136   4.976  2.3746  2.1907 -3.0081
  201DG      H4 4604   3.312   5.152   4.987 -0.9174  0.3791  0.7730
  201DG      H5 4605   3.421   5.235   5.101  1.5074 -2.4214 -0.3504
  201DG      H6 4606   3.559   5.770   5.112  0.0406  0.6418  0.9409
  201DG      H7 4607   3.715   5.836   5.068 -0.2236 -0.3601 -0.4165
  201DG      H8 4608   3.571   5.912   5.012 -0.2316 -0.9953 -1.1187
  201DG      O9 4609   3.428   5.317   4.914  0.2373  0.4559  0.0581
  201DG     O10 4610   3.609   5.722   4.922  0.1001 -0.6316 -0.3678
  201DG     C11 4611   3.404   5.307   4.778 -0.4877  0.5763 -0.9239
  201DG     C12 4612   3.516   5.757   4.820 -0.4449 -0.3227 -0.0311
  201DG     H13 4613   3.297   5.305   4.758 -0.3384 -0.5525 -1.7435
  201DG     H14 4614   3.429   5.207   4.741 -0.2907  0.7846 -1.3511
  201DG     H15 4615   3.531   5.856   4.775 -1.9076 -1.0947 -2.4541
  201DG     H16 4616   3.416   5.758   4.863  0.2214 -0.7455  1.5835
  201DG     C17 4617   3.452   5.423   4.691  0.5867 -1.2831 -0.2577
  201DG     C18 4618   3.520   5.651   4.711 -0.0973  0.0330 -0.1217
  201DG     O19 4619   3.450   5.542   4.774 -0.4330 -0.0350 -0.1488
  201DG     H20 4620   3.386   5.425   4.605 -0.9376 -1.4336  0.8617
  201DG     H21 4621   3.556   5.414   4.660  1.1789  3.6388 -0.4195
  201DG     H22 4622   3.456   5.684   4.629 -0.8915 -1.0157  0.0434
  201DG     H23 4623   3.622   5.630   4.680  0.0863  3.3582 -2.1491
  202DG      C1 4624   1.669   1.268   0.369  0.4954 -0.4206 -0.4611
  202DG      C2 4625   1.776   0.922  -0.176 -0.0757 -0.8218 -0.1141
  202DG      H3 4626   1.617   1.347   0.423 -0.0340 -0.7037 -0.5416
  202DG      H4 4627   1.746   1.319   0.311  0.2374  0.6521  0.1095
  202DG      H5 4628   1.722   1.212   0.446  0.6610  1.7511  1.0825
  202DG      H6 4629   1.747   0.821  -0.206  1.9911 -1.2047 -1.0287
  202DG      H7 4630   1.798   0.982  -0.264  0.7740  1.0580  1.3112
  202DG      H8 4631   1.874   0.911  -0.130  0.7369  0.9430 -1.3094
  202DG      O9 4632   1.566   1.191   0.298 -0.0533 -0.4590  0.2783
  202DG     O10 4633   1.692   0.993  -0.089 -0.2238 -0.0589  0.0419
  202DG     C11 4634   1.498   1.259   0.198  0.3749  0.1003  0.0426
  202DG     C12 4635   1.556   0.995  -0.141 -0.1458  0.3703  0.7950
  202DG     H13 4636   1.568   1.291   0.121 -0.2595  1.9019  0.1561
  202DG     H14 4637   1.452   1.344   0.249 -0.5007 -1.3730  1.7921
  202DG     H15 4638   1.504   0.899  -0.134 -0.3211  0.2519 -1.5468
  202DG     H16 4639   1.567   1.009  -0.248  1.3531  0.9326  1.0036
  202DG     C17 4640   1.392   1.176   0.130  0.1752 -0.4540 -0.0224
  202DG     C18 4641   1.477   1.107  -0.079  0.0746  0.6941  0.3554
  202DG     O19 4642   1.441   1.066   0.057 -0.0546  0.4963 -0.1192
  202DG     H20 4643   1.339   1.240   0.059  1.2578  0.9536  0.3980
  202DG     H21 4644   1.326   1.132   0.205  1.0836 -3.1830 -0.7464
  202DG     H22 4645   1.537   1.197  -0.087  0.0058  0.7079 -0.0288
  202DG     H23 4646   1.386   1.143  -0.127 -0.8471 -0.5349  1.0841
  203DG      C1 4647   0.167   2.169   0.926 -0.7384 -0.5218 -0.1266
  203DG      C2 4648   0.755   1.840   0.855 -0.3467  0.6157  0.2899
  203DG      H3 4649   0.179   2.185   0.819  1.6330 -2.8398 -0.3120
  203DG      H4 4650   0.209   2.249   0.988  1.2829 -0.1192 -1.8933
  203DG      H5 4651   0.060   2.159   0.940 -0.3464 -1.7019  2.9501
  203DG      H6 4652   0.819   1.912   0.906  0.8704 -0.1614 -0.0776
  203DG      H7 4653   0.816   1.750   0.863  0.1043  0.4418 -3.3224
  203DG      H8 4654   0.760   1.865   0.749 -0.0123 -0.3490  0.0685
  203DG      O9 4655   0.225   2.044   0.952  0.0791 -0.0992  0.1744
  203DG     O10 4656   0.627   1.846   0.918  0.1585 -0.7117  0.7025
  203DG     C11 4657   0.211   1.990   1.088  0.3640  0.2687  0.4792
  203DG     C12 4658   0.627   1.763   1.033 -0.3783  0.0504 -0.2965
  203DG     H13 4659   0.105   1.981   1.113  0.2392 -0.5837 -0.2889
  203DG     H14 4660   0.259   2.067   1.149  0.6765  2.6183 -2.4402
  203DG     H15 4661   0.690   1.807   1.110 -0.6159  2.1723 -1.2144
  203DG     H16 4662   0.661   1.665   1.001  0.0937 -0.9263  2.9489
  203DG     C17 4663   0.278   1.855   1.091  0.0123 -0.0546 -0.5613
  203DG     C18 4664   0.488   1.744   1.087  0.3377 -0.2889 -0.1390
  203DG     O19 4665   0.415   1.869   1.080 -0.2570 -0.1585  0.0544
  203DG     H20 4666   0.228   1.804   1.009 -1.3472 -1.3575  1.0053
  203DG     H21 4667   0.258   1.801   1.184 -3.5921 -1.8876 -2.2145
  203DG     H22 4668   0.435   1.666   1.031 -1.3792 -0.1136  1.1481
  203DG     H23 4669   0.494   1.709   1.190 -2.5064 -0.5789  0.0256
  204DG      C1 4670   0.012   1.203   4.183 -0.5372 -0.3898 -0.1868
  204DG      C2 4671   0.394   0.684   4.490 -0.0335  0.0375  0.1853
  204DG      H3 4672   0.112   1.240   4.160  0.7927 -2.4795  1.8123
  204DG      H4 4673  -0.031   1.275   4.253  2.3532 -0.2345  1.5803
  204DG      H5 4674  -0.061   1.205   4.101 -0.6212  1.8516 -0.1231
  204DG      H6 4675   0.472   0.689   4.414  1.8520  0.9433  2.0756
  204DG      H7 4676   0.427   0.758   4.563 -0.4216 -1.7917  2.3297
  204DG      H8 4677   0.404   0.586   4.538 -1.3990 -0.9371 -1.4319
  204DG      O9 4678   0.020   1.076   4.234  0.4786 -0.0124  0.0894
  204DG     O10 4679   0.265   0.719   4.437  0.4991  0.0871 -0.1394
  204DG     C11 4680  -0.110   1.043   4.296  0.0484 -0.7595  0.3728
  204DG     C12 4681   0.183   0.759   4.547  0.7924  0.9165  0.2406
  204DG     H13 4682  -0.187   1.032   4.220 -0.7447  4.6381  0.0274
  204DG     H14 4683  -0.160   1.123   4.349  0.4689 -1.3161  1.6403
  204DG     H15 4684   0.202   0.850   4.605  3.5978  0.4298  0.1999
  204DG     H16 4685   0.174   0.669   4.608 -3.7143  1.3295  0.5279
  204DG     C17 4686  -0.107   0.913   4.389  0.4108  0.1675  0.3368
  204DG     C18 4687   0.038   0.768   4.495 -0.2304  0.3404  0.0811
  204DG     O19 4688   0.026   0.890   4.419 -0.4280  0.9262  0.1153
  204DG     H20 4689  -0.142   0.830   4.328 -1.2649 -0.2224  1.7784
  204DG     H21 4690  -0.161   0.932   4.482  0.8202 -1.5622  0.9641
  204DG     H22 4691   0.009   0.683   4.435  0.5678  0.2597 -0.2019
  204DG     H23 4692  -0.032   0.778   4.578  0.3656 -0.9112  0.7612
  205DG      C1 4693   3.647   3.381   2.506  0.2012  0.4320  0.4430
  205DG      C2 4694   3.146   2.878   2.657 -0.5836  0.4637  0.5072
  205DG      H3 4695   3.735   3.423   2.456  0.5919 -1.6772 -0.7808
  205DG      H4 4696   3.617   3.426   2.601 -1.8703  0.7031 -0.2828
  205DG      H5 4697   3.568   3.406   2.435  0.3288  1.4944  0.6597
  205DG      H6 4698   3.059   2.844   2.600 -1.0695  1.2391  0.7799
  205DG      H7 4699   3.169   2.802   2.731  1.7660  0.5601 -0.0326
  205DG      H8 4700   3.119   2.971   2.706 -1.7294  0.7901 -0.6798
  205DG      O9 4701   3.654   3.241   2.522 -0.4967 -0.2051 -0.5648
  205DG     O10 4702   3.245   2.884   2.552  0.3991 -0.5551  0.0412
  205DG     C11 4703   3.644   3.165   2.396 -0.5144 -0.3224 -0.2043
  205DG     C12 4704   3.377   2.900   2.602  0.4954 -1.0766  0.5912
  205DG     H13 4705   3.715   3.085   2.419  0.1330  0.3179  0.0539
  205DG     H14 4706   3.705   3.213   2.319  1.3469  2.3898  2.7377
  205DG     H15 4707   3.433   2.811   2.630  2.3754  0.0568  0.6316
  205DG     H16 4708   3.381   2.976   2.680  0.7540  1.4176 -1.7025
  205DG     C17 4709   3.501   3.140   2.350 -0.3233 -0.3270 -0.0962
  205DG     C18 4710   3.463   2.955   2.486  0.5564  0.1830 -0.1638
  205DG     O19 4711   3.427   3.087   2.457  0.2740  0.1040  0.1547
  205DG     H20 4712   3.515   3.066   2.271 -0.1918 -1.1796  0.7086
  205DG     H21 4713   3.463   3.230   2.301 -0.7311 -0.2801  0.2964
  205DG     H22 4714   3.565   2.969   2.523  0.1803  0.0124  0.9793
  205DG     H23 4715   3.476   2.888   2.401  2.1164 -0.4768  0.5570
  206DG      C1 4716   2.180   1.377   1.541  0.9358  0.0647 -0.4437
  206DG      C2 4717   2.152   0.932   1.032 -0.1659 -0.1533  0.2173
  206DG      H3 4718   2.075   1.403   1.556  0.4661 -1.8824 -0.0140
  206DG      H4 4719   2.206   1.429   1.448 -0.0937 -0.8966 -1.2973
  206DG      H5 4720   2.237   1.420   1.623 -0.3283  2.3149 -0.6698
  206DG      H6 4721   2.208   0.846   0.995  0.0164  0.5042 -1.1180
  206DG      H7 4722   2.044   0.939   1.022 -0.5193 -0.1623  3.1966
  206DG      H8 4723   2.196   1.018   0.982 -3.3073  0.8733 -1.0270
  206DG      O9 4724   2.197   1.247   1.520  0.4016  0.5945 -0.2086
  206DG     O10 4725   2.184   0.946   1.168  0.0624 -0.8772 -0.3779
  206DG     C11 4726   2.188   1.144   1.619  0.1012 -0.1209  0.6254
  206DG     C12 4727   2.138   0.832   1.246  0.1816  0.1806  0.2796
  206DG     H13 4728   2.086   1.121   1.650  0.4680 -1.2305  1.0296
  206DG     H14 4729   2.252   1.161   1.705  1.8500  0.8100 -0.7974
  206DG     H15 4730   2.155   0.734   1.203 -0.0512  0.9951 -1.7996
  206DG     H16 4731   2.030   0.827   1.259  0.0245 -1.2495 -1.3624
  206DG     C17 4732   2.246   1.008   1.556 -0.3699 -0.0536 -0.5491
  206DG     C18 4733   2.211   0.846   1.383  0.4233  0.5188 -0.4390
  206DG     O19 4734   2.194   0.978   1.428  0.2488 -0.0015 -0.3190
  206DG     H20 4735   2.217   0.925   1.621 -3.4879  1.4710  0.1620
  206DG     H21 4736   2.353   1.013   1.536 -0.5079  0.5975 -1.1860
  206DG     H22 4737   2.179   0.769   1.454  0.7731 -0.9785 -1.8346
  206DG     H23 4738   2.317   0.820   1.384  0.6092  1.2521  0.7901
  207DG      C1 4739   1.323   0.868   0.244  0.3122 -0.0303  0.1136
  207DG      C2 4740   1.959   1.089   0.238  0.5019  0.9726 -0.2459
  207DG      H3 4741   1.307   0.964   0.291  0.1199 -0.0269  0.0431
  207DG      H4 4742   1.257   0.786   0.273 -0.5296  0.0238 -1.5155
  207DG      H5 4743   1.312   0.879   0.136  1.2950 -0.9085 -0.0987
  207DG      H6 4744   1.900   1.175   0.208 -0.9918 -0.0791 -0.4370
  207DG      H7 4745   2.014   1.109   0.329 -0.9329 -0.5756  1.0257
  207DG      H8 4746   2.026   1.061   0.156 -0.7599 -0.9593 -0.6756
  207DG      O9 4747   1.457   0.830   0.259 -0.2857  0.2767  0.6638
  207DG     O10 4748   1.877   0.973   0.262  0.2384 -0.4720  0.0805
  207DG     C11 4749   1.487   0.711   0.189 -0.2929 -0.1158  1.0776
  207DG     C12 4750   1.940   0.844   0.240 -0.4364  0.4549 -0.1346
  207DG     H13 4751   1.488   0.740   0.084 -0.6182  0.4668  1.2293
  207DG     H14 4752   1.416   0.630   0.204  1.0214 -1.9447 -1.6894
  207DG     H15 4753   2.023   0.848   0.311 -2.2425 -0.6524  2.1588
  207DG     H16 4754   1.970   0.839   0.135 -0.3061 -0.0193 -0.0808
  207DG     C17 4755   1.619   0.656   0.243  0.6491  0.0155  0.2360
  207DG     C18 4756   1.836   0.738   0.283 -0.8722  0.0568 -0.0910
  207DG     O19 4757   1.716   0.756   0.212 -0.1687  0.2865  0.4719
  207DG     H20 4758   1.650   0.562   0.198  0.5994  0.5529 -0.9746
  207DG     H21 4759   1.613   0.638   0.350  0.1462  0.1361  0.2328
  207DG     H22 4760   1.879   0.638   0.278  2.4762  1.3883 -0.2741
  207DG     H23 4761   1.801   0.765   0.383 -0.0257  1.2112 -0.0923
  208DG      C1 4762   0.378   3.533   0.149  0.0267 -0.1370 -0.1415
  208DG      C2 4763   0.881   3.704   0.457 -0.5183 -0.1758  0.6185
  208DG      H3 4764   0.305   3.453   0.156  0.1931 -0.2759  0.0044
  208DG      H4 4765   0.381   3.572   0.047 -0.8519 -0.9788 -0.5028
  208DG      H5 4766   0.352   3.613   0.218  0.1736 -0.9860  0.9253
  208DG      H6 4767   0.977   3.677   0.502  0.2872 -0.7435 -1.3087
  208DG      H7 4768   0.884   3.793   0.394  2.8526  1.2718  2.5491
  208DG      H8 4769   0.817   3.735   0.539 -2.0410  0.7707 -0.8684
  208DG      O9 4770   0.506   3.484   0.190 -0.1497 -0.2997 -0.4048
  208DG     O10 4771   0.824   3.592   0.393  0.1293  0.5767  0.2992
  208DG     C11 4772   0.541   3.367   0.126 -0.2788  0.1358 -0.2885
  208DG     C12 4773   0.890   3.570   0.261 -0.1179 -0.3090  0.1971
  208DG     H13 4774   0.503   3.349   0.026 -0.1682 -1.6540 -0.0552
  208DG     H14 4775   0.523   3.279   0.188  1.1764 -0.1400 -0.2046
  208DG     H15 4776   0.997   3.591   0.261  0.6037 -3.5121  0.4521
  208DG     H16 4777   0.852   3.645   0.192 -0.7161 -1.1871 -0.4544
  208DG     C17 4778   0.690   3.381   0.110  0.4179 -0.4226  0.2612
  208DG     C18 4779   0.883   3.416   0.226 -0.4720 -0.6570 -0.2501
  208DG     O19 4780   0.754   3.371   0.237  1.0084  0.0134  0.3385
  208DG     H20 4781   0.710   3.472   0.052  0.4086 -0.0259  0.8656
  208DG     H21 4782   0.727   3.300   0.048  0.3316  0.2615 -0.6952
  208DG     H22 4783   0.941   3.389   0.138  1.4845 -0.2734  0.8500
  208DG     H23 4784   0.936   3.371   0.310  0.6060  2.7208  1.0916
  209DG      C1 4785   2.292   3.108   5.077  0.6054  0.2671 -0.1475
  209DG      C2 4786   2.292   3.733   4.826  0.3265  0.1492  0.8165
  209DG      H3 4787   2.328   3.005   5.069  1.4180  0.6718 -2.6673
  209DG      H4 4788   2.202   3.104   5.138  0.0167 -2.0391 -1.0354
  209DG      H5 4789   2.374   3.155   5.131  0.2371  0.2556  0.4281
  209DG      H6 4790   2.223   3.801   4.876  1.5464  0.0451  2.7066
  209DG      H7 4791   2.366   3.712   4.903  0.5779  0.6482  0.7153
  209DG      H8 4792   2.344   3.792   4.749 -0.5807 -0.1833 -0.0785
  209DG      O9 4793   2.266   3.170   4.943  0.0038  0.1903 -0.2249
  209DG     O10 4794   2.244   3.613   4.764  0.2521  0.2566 -0.4037
  209DG     C11 4795   2.380   3.148   4.861  0.0910  0.1298  0.7851
  209DG     C12 4796   2.332   3.555   4.666 -0.4444 -0.1640 -0.1550
  209DG     H13 4797   2.387   3.040   4.850 -1.1251 -0.0864  1.8633
  209DG     H14 4798   2.474   3.182   4.904  0.5506  0.1748 -0.2397
  209DG     H15 4799   2.438   3.562   4.688 -0.1705  0.7653 -1.6161
  209DG     H16 4800   2.310   3.598   4.568  1.6823  0.0851 -0.5713
  209DG     C17 4801   2.346   3.199   4.721  0.7109 -0.2810 -0.3186
  209DG     C18 4802   2.306   3.411   4.633 -0.2278 -0.1880 -0.3231
  209DG     O19 4803   2.346   3.335   4.741  0.3834  0.3316  0.1427
  209DG     H20 4804   2.247   3.162   4.695  0.6326 -0.1575 -0.2000
  209DG     H21 4805   2.419   3.172   4.645  0.4850 -0.0740 -0.6124
  209DG     H22 4806   2.200   3.391   4.618 -0.2900 -0.6858  0.6870
  209DG     H23 4807   2.366   3.383   4.546  0.3742  2.3353 -0.7820
  210DG      C1 4808   4.047   1.350   3.354 -0.3427 -0.5009 -0.1296
  210DG      C2 4809   4.256   0.795   2.757 -0.4809  0.2796 -0.6169
  210DG      H3 4810   3.981   1.298   3.423 -2.1301 -0.7013 -1.9198
  210DG      H4 4811   3.996   1.437   3.314  0.8890 -0.5705 -1.9714
  210DG      H5 4812   4.140   1.379   3.403 -0.6231 -0.0980  0.1753
  210DG      H6 4813   4.282   0.872   2.684 -0.5615  0.1065 -0.8287
  210DG      H7 4814   4.296   0.700   2.721  0.2796 -0.3082  1.6258
  210DG      H8 4815   4.149   0.777   2.753 -0.5072 -1.9212  3.7278
  210DG      O9 4816   4.086   1.267   3.250 -0.1319  0.5324 -0.4518
  210DG     O10 4817   4.323   0.816   2.882 -0.6125 -0.0263  0.0741
  210DG     C11 4818   4.136   1.338   3.142 -0.1043  0.0554  0.2264
  210DG     C12 4819   4.244   0.885   2.976 -0.2089 -0.5213 -0.6326
  210DG     H13 4820   4.189   1.426   3.178 -0.7543  0.6817 -0.3142
  210DG     H14 4821   4.045   1.364   3.088 -0.6676  1.4363  1.7894
  210DG     H15 4822   4.283   0.868   3.076  2.0235  1.0011 -1.1780
  210DG     H16 4823   4.139   0.858   2.972 -0.2327 -0.5501  0.1042
  210DG     C17 4824   4.224   1.247   3.056 -0.1267 -0.6401 -0.1932
  210DG     C18 4825   4.269   1.034   2.961  0.8477  0.3687  0.1692
  210DG     O19 4826   4.206   1.104   3.071 -0.6815  0.4929 -0.3065
  210DG     H20 4827   4.326   1.273   3.086  0.0076 -0.8052 -0.5028
  210DG     H21 4828   4.230   1.274   2.951  1.2346 -0.2142 -0.0327
  210DG     H22 4829   4.376   1.056   2.957  0.8951  0.0529 -0.4309
  210DG     H23 4830   4.225   1.063   2.866 -0.3578 -1.8220  0.0061
  211DG      C1 4831   3.487   2.418   2.562 -0.3598  0.2102  0.3307
  211DG      C2 4832   3.576   3.084   1.983  0.2871  0.3626 -0.4368
  211DG      H3 4833   3.517   2.367   2.654 -0.3085 -0.0420  0.1734
  211DG      H4 4834   3.448   2.351   2.485  2.3609  1.2523 -2.1448
  211DG      H5 4835   3.400   2.480   2.587 -0.5826  0.5234 -1.1237
  211DG      H6 4836   3.470   3.070   1.964 -0.5715  3.5965  1.1103
  211DG      H7 4837   3.593   3.187   2.016 -1.2240  0.0543  1.5023
  211DG      H8 4838   3.632   3.091   1.890  0.7475  0.1746 -0.1776
  211DG      O9 4839   3.586   2.498   2.498 -0.1622  0.2529 -0.0293
  211DG     O10 4840   3.646   2.998   2.083 -0.0295 -0.4468 -0.5291
  211DG     C11 4841   3.540   2.589   2.396 -0.0853  0.2188 -0.0388
  211DG     C12 4842   3.663   2.867   2.029 -0.4486 -0.0831 -0.1290
  211DG     H13 4843   3.464   2.654   2.437  0.0905  1.4821 -1.5805
  211DG     H14 4844   3.489   2.527   2.323 -0.8344 -0.2188  0.8506
  211DG     H15 4845   3.729   2.878   1.943 -1.4375  2.4339 -0.6432
  211DG     H16 4846   3.570   2.823   1.994 -2.5351  1.8439  2.5251
  211DG     C17 4847   3.662   2.656   2.327 -0.5549 -0.0756  0.1542
  211DG     C18 4848   3.726   2.769   2.126 -0.2618  0.6362 -0.0830
  211DG     O19 4849   3.619   2.731   2.211 -0.3125 -0.0402 -0.6569
  211DG     H20 4850   3.737   2.581   2.304  1.1467  1.4475  0.4888
  211DG     H21 4851   3.708   2.720   2.402 -1.8610 -1.1091  1.9267
  211DG     H22 4852   3.761   2.677   2.079 -1.8181  0.3761 -0.8106
  211DG     H23 4853   3.803   2.828   2.175 -0.6358 -0.1940  1.5860
  212DG      C1 4854   1.214   4.588   3.452 -0.3278 -0.7470 -0.2076
  212DG      C2 4855   0.845   4.077   3.233  0.3060  0.6405 -0.3020
  212DG      H3 4856   1.130   4.585   3.522 -0.9408  1.2782 -0.8009
  212DG      H4 4857   1.273   4.680   3.453  1.4533 -1.8352 -0.3752
  212DG      H5 4858   1.278   4.508   3.491  2.2230  0.3188 -1.9159
  212DG      H6 4859   0.919   4.004   3.266  1.4479  1.3571 -1.1962
  212DG      H7 4860   0.775   4.101   3.313 -1.6102 -2.2617 -0.9659
  212DG      H8 4861   0.781   4.032   3.158 -0.7728 -2.6450  2.3738
  212DG      O9 4862   1.161   4.548   3.324  0.1945  0.3324 -0.1018
  212DG     O10 4863   0.907   4.194   3.185  0.4915  0.4126 -0.3528
  212DG     C11 4864   1.262   4.549   3.224  0.8735 -0.1231 -0.0650
  212DG     C12 4865   0.984   4.173   3.064  0.1447 -0.0464 -0.2668
  212DG     H13 4866   1.356   4.500   3.250  2.1202  2.2123  0.1025
  212DG     H14 4867   1.289   4.652   3.198 -0.0762  0.4642  1.1573
  212DG     H15 4868   0.922   4.136   2.983  2.0457 -0.1244 -1.7718
  212DG     H16 4869   1.054   4.090   3.072  2.5157  1.8245 -0.2319
  212DG     C17 4870   1.208   4.484   3.092 -0.0538  0.4814  0.0634
  212DG     C18 4871   1.038   4.312   3.030 -0.0769 -0.1332 -0.5675
  212DG     O19 4872   1.114   4.380   3.138 -0.6391  0.2179 -0.0180
  212DG     H20 4873   1.287   4.461   3.021 -2.2889  2.1412 -3.2521
  212DG     H21 4874   1.156   4.554   3.027 -3.1570 -0.4343  1.3747
  212DG     H22 4875   1.092   4.306   2.935  0.5769  1.0668 -0.2940
  212DG     H23 4876   0.954   4.377   3.002 -1.1982 -1.7217 -1.0144
  213DG      C1 4877   3.991   1.046   0.190  0.9543  0.0921  0.4915
  213DG      C2 4878   3.299   1.023   0.092 -1.1389 -0.0261 -0.0605
  213DG      H3 4879   4.077   0.981   0.173  0.6439 -0.4882  1.0638
  213DG      H4 4880   3.966   1.052   0.296 -1.0338  2.1136 -0.0098
  213DG      H5 4881   4.013   1.152   0.176 -3.7690  1.4267  1.4281
  213DG      H6 4882   3.308   1.083   0.183  1.4951  0.9918 -0.9114
  213DG      H7 4883   3.252   1.085   0.015 -0.0115  1.0630  0.0963
  213DG      H8 4884   3.247   0.928   0.106  1.8232 -1.7471 -0.0224
  213DG      O9 4885   3.872   1.018   0.118 -0.1840  0.1538 -0.1455
  213DG     O10 4886   3.430   0.992   0.046  0.0513 -0.3884  0.1729
  213DG     C11 4887   3.897   0.990  -0.018  0.1458  0.5888 -0.2548
  213DG     C12 4888   3.425   0.881  -0.049  0.7802  0.0529 -0.4178
  213DG     H13 4889   3.996   0.947  -0.033  0.6316  1.4851  0.2876
  213DG     H14 4890   3.890   1.089  -0.064  1.7180  1.2198  0.7630
  213DG     H15 4891   3.347   0.882  -0.124 -0.0246 -1.3907  0.3575
  213DG     H16 4892   3.415   0.788   0.006  1.8645 -0.8884 -1.7566
  213DG     C17 4893   3.787   0.890  -0.068  0.7658 -0.1594 -0.7122
  213DG     C18 4894   3.557   0.883  -0.122  0.7840  0.4408  0.0064
  213DG     O19 4895   3.653   0.916  -0.020 -0.3182 -0.1606  0.0884
  213DG     H20 4896   3.822   0.789  -0.044 -2.1337 -1.4932 -1.6529
  213DG     H21 4897   3.791   0.884  -0.177  1.3756  1.7441 -0.8257
  213DG     H22 4898   3.583   0.789  -0.171 -1.7919 -0.8225  0.8759
  213DG     H23 4899   3.555   0.957  -0.203  0.6868 -0.3107 -0.6927
  214DG      C1 4900   3.904   5.418   4.859  0.0582 -0.6182  0.0423
  214DG      C2 4901   3.338   5.563   5.172  0.8442  0.3829 -0.2191
  214DG      H3 4902   3.874   5.489   4.782 -0.3084 -1.6529 -0.8091
  214DG      H4 4903   3.946   5.325   4.819 -0.0812 -0.3668 -0.7095
  214DG      H5 4904   3.993   5.468   4.897  0.5848 -2.0488  0.7812
  214DG      H6 4905   3.337   5.655   5.115  0.2954  1.2136  1.0839
  214DG      H7 4906   3.316   5.477   5.109 -0.0164  0.1171  0.4278
  214DG      H8 4907   3.256   5.568   5.243 -0.6207  1.0012 -1.9102
  214DG      O9 4908   3.813   5.388   4.952 -0.4464 -0.1454 -0.0100
  214DG     O10 4909   3.468   5.546   5.223 -0.8658 -0.2482 -0.3898
  214DG     C11 4910   3.847   5.277   5.041 -0.0483 -0.2364 -0.8204
  214DG     C12 4911   3.492   5.444   5.324 -0.1886 -0.0616 -0.1740
  214DG     H13 4912   3.953   5.254   5.040 -0.2997 -1.4891 -1.1341
  214DG     H14 4913   3.795   5.186   5.010  0.5840 -0.3039 -1.7176
  214DG     H15 4914   3.426   5.356   5.322  1.2016 -1.1503  0.2835
  214DG     H16 4915   3.469   5.497   5.416 -1.2092  0.9930 -1.0067
  214DG     C17 4916   3.797   5.314   5.182 -0.2047  0.4043  0.0736
  214DG     C18 4917   3.638   5.403   5.315 -0.2247 -0.0711 -0.8882
  214DG     O19 4918   3.666   5.358   5.186  0.0680  0.7497  0.0722
  214DG     H20 4919   3.856   5.396   5.224 -0.7052  1.1268 -0.5841
  214DG     H21 4920   3.806   5.224   5.242 -0.0380 -1.2903 -2.3359
  214DG     H22 4921   3.699   5.489   5.345  0.2143 -1.0583  1.2248
  214DG     H23 4922   3.657   5.332   5.395 -1.3261 -0.0733 -0.6178
  215DG      C1 4923   3.720   0.474   2.164 -0.3516  0.0951  0.0010
  215DG      C2 4924   3.236  -0.038   2.018  0.4316  0.4035 -0.1808
  215DG      H3 4925   3.744   0.385   2.222 -1.4617  0.0600  0.4370
  215DG      H4 4926   3.742   0.560   2.228 -2.0104  1.5600 -1.3055
  215DG      H5 4927   3.781   0.481   2.074 -0.0721  1.4096  0.2660
  215DG      H6 4928   3.294  -0.089   2.095 -0.6076  2.2871  1.9432
  215DG      H7 4929   3.131  -0.065   2.027  0.2636  1.7686  3.3341
  215DG      H8 4930   3.269  -0.076   1.921 -1.8601 -0.6241 -0.6386
  215DG      O9 4931   3.585   0.474   2.146 -0.6465 -0.1072 -0.1632
  215DG     O10 4932   3.258   0.101   2.040 -0.0043 -0.4658 -0.5060
  215DG     C11 4933   3.513   0.481   2.263 -1.0648 -0.1519 -0.0922
  215DG     C12 4934   3.196   0.157   2.155 -0.1886 -0.6810 -0.2509
  215DG     H13 4935   3.529   0.578   2.311  2.5924 -0.5372 -0.2502
  215DG     H14 4936   3.545   0.419   2.346 -0.0170  0.7621  0.2134
  215DG     H15 4937   3.231   0.102   2.242  1.3213 -1.9012 -1.5584
  215DG     H16 4938   3.089   0.134   2.155 -0.0439 -1.4802 -1.5260
  215DG     C17 4939   3.362   0.474   2.222 -0.6634  0.0543 -0.3905
  215DG     C18 4940   3.208   0.308   2.168  0.6684 -0.1306  0.0044
  215DG     O19 4941   3.338   0.331   2.202 -0.2246 -0.0953 -0.6837
  215DG     H20 4942   3.353   0.534   2.132 -0.1081 -0.5355 -0.8467
  215DG     H21 4943   3.304   0.517   2.303  0.0702 -0.8242  0.6287
  215DG     H22 4944   3.174   0.361   2.080 -1.8642  0.5950  1.3092
  215DG     H23 4945   3.129   0.337   2.238 -1.5553 -0.4010 -2.2340
  216DG      C1 4946   1.942   2.751   1.565  0.3319  0.4680  0.2335
  216DG      C2 4947   2.602   2.834   1.744  0.2948  0.5262 -0.2292
  216DG      H3 4948   1.896   2.720   1.659 -2.6609 -0.2877 -1.3729
  216DG      H4 4949   1.872   2.716   1.490 -0.8697 -1.2297  2.0443
  216DG      H5 4950   1.935   2.860   1.561 -1.2081  0.3377 -2.5429
  216DG      H6 4951   2.679   2.896   1.697  2.6453 -1.4465  0.7618
  216DG      H7 4952   2.547   2.898   1.813  0.6596  0.1871  0.3870
  216DG      H8 4953   2.652   2.756   1.802 -1.6311 -1.2866 -0.9242
  216DG      O9 4954   2.074   2.711   1.548  0.7082  0.4160  0.1708
  216DG     O10 4955   2.511   2.784   1.646  0.2666 -0.4552 -0.2070
  216DG     C11 4956   2.102   2.584   1.599 -0.3333 -0.0555  0.0930
  216DG     C12 4957   2.564   2.700   1.547  1.3939  0.2722 -0.3322
  216DG     H13 4958   2.021   2.512   1.588  1.5701 -2.2479 -0.3268
  216DG     H14 4959   2.119   2.595   1.706  1.3660  0.5194 -0.2143
  216DG     H15 4960   2.661   2.667   1.582  1.3485  0.7436  0.2568
  216DG     H16 4961   2.566   2.748   1.449 -1.3088  0.5152 -0.3694
  216DG     C17 4962   2.236   2.520   1.548 -0.9674 -0.7171 -0.4915
  216DG     C18 4963   2.466   2.582   1.534  0.4560 -0.2508  0.5067
  216DG     O19 4964   2.334   2.624   1.563 -0.5506  0.1986  0.4097
  216DG     H20 4965   2.232   2.489   1.444 -2.3983 -0.2966 -0.5832
  216DG     H21 4966   2.262   2.435   1.612  0.0477  0.3002  0.4805
  216DG     H22 4967   2.464   2.540   1.434 -0.7718 -1.4423  0.9906
  216DG     H23 4968   2.494   2.504   1.605  1.8888  0.6266  0.9622
  217DG      C1 4969   4.838   5.235   1.391 -0.3995  0.2978  0.5455
  217DG      C2 4970   4.822   5.095   0.766  0.2228  0.1339 -0.1532
  217DG      H3 4971   4.876   5.324   1.341 -2.9736  1.6056  0.7352
  217DG      H4 4972   4.909   5.154   1.379  2.1148  2.3759  0.5136
  217DG      H5 4973   4.810   5.251   1.495  2.4540 -0.4748  1.5029
  217DG      H6 4974   4.858   4.997   0.801  0.2019  0.3587  0.5179
  217DG      H7 4975   4.735   5.084   0.702 -0.1433  1.3857  0.1117
  217DG      H8 4976   4.906   5.139   0.711 -1.1718  2.2772 -0.6590
  217DG      O9 4977   4.726   5.205   1.305  0.1179 -0.5506 -0.4652
  217DG     O10 4978   4.781   5.165   0.878  0.1511 -0.7250 -0.3973
  217DG     C11 4979   4.631   5.314   1.295  0.4873 -0.0300 -0.5144
  217DG     C12 4980   4.716   5.291   0.839 -0.6306 -0.4668  0.5604
  217DG     H13 4981   4.635   5.369   1.389 -0.7237 -1.4151  0.3908
  217DG     H14 4982   4.529   5.285   1.270  0.6764 -1.8287  0.6091
  217DG     H15 4983   4.607   5.284   0.837 -0.6794  0.2461 -1.1176
  217DG     H16 4984   4.753   5.334   0.746 -1.9779  1.0265  0.6764
  217DG     C17 4985   4.663   5.410   1.177  0.2894 -0.1412  0.1016
  217DG     C18 4986   4.745   5.387   0.960 -0.2517  0.5782  1.2803
  217DG     O19 4987   4.665   5.337   1.058 -0.1860  0.8518 -0.5744
  217DG     H20 4988   4.757   5.460   1.198 -0.5737  0.2070  3.6650
  217DG     H21 4989   4.590   5.489   1.157 -1.7926 -1.7528  0.9850
  217DG     H22 4990   4.849   5.396   0.989 -0.1409 -0.3348  1.1787
  217DG     H23 4991   4.710   5.483   0.922 -0.3172  0.1472  0.2208
  218DG      C1 4992   1.600   4.794   1.418 -0.3882  0.0474 -0.3255
  218DG      C2 4993   1.024   4.638   1.724 -0.4608 -0.2355  0.4837
  218DG      H3 4994   1.628   4.694   1.449 -2.1285 -0.2103  0.5614
  218DG      H4 4995   1.614   4.862   1.502  0.4051  0.1657 -0.5506
  218DG      H5 4996   1.665   4.814   1.333 -0.1751 -2.3461 -0.7883
  218DG      H6 4997   0.918   4.628   1.749 -0.7779 -1.8282 -1.2480
  218DG      H7 4998   1.079   4.554   1.764  1.6551 -0.2948 -2.2882
  218DG      H8 4999   1.053   4.724   1.783  0.9416 -0.5201  0.2422
  218DG      O9 5000   1.465   4.776   1.372 -0.4653 -0.4178 -0.3240
  218DG     O10 5001   1.052   4.652   1.584  0.0948  0.1270  0.4615
  218DG     C11 5002   1.404   4.906   1.340  0.2434  0.1744  0.2196
  218DG     C12 5003   0.979   4.751   1.519 -0.5937  0.0082 -0.2302
  218DG     H13 5004   1.452   4.954   1.254 -0.2985  1.1633  0.4554
  218DG     H14 5005   1.406   4.973   1.426 -0.6219 -1.7238  1.8079
  218DG     H15 5006   0.961   4.829   1.593  1.8165  0.6922 -0.2670
  218DG     H16 5007   0.886   4.708   1.484 -1.3763  3.1753 -2.3700
  218DG     C17 5008   1.259   4.896   1.306 -0.0388 -0.5303  0.3154
  218DG     C18 5009   1.051   4.801   1.393 -0.2424 -0.4367  0.3458
  218DG     O19 5010   1.187   4.850   1.423 -0.0016  0.0992  0.1231
  218DG     H20 5011   1.253   4.833   1.217 -1.3195 -0.0546  0.0415
  218DG     H21 5012   1.213   4.991   1.278 -2.0022 -1.7777 -1.0084
  218DG     H22 5013   1.053   4.725   1.314 -2.4511 -2.0815  1.7512
  218DG     H23 5014   0.997   4.883   1.346 -2.0025 -1.4206  0.5681
  219DG      C1 5015   5.470   4.782   1.239 -0.2609 -0.5090 -0.4080
  219DG      C2 5016   5.826   5.454   0.791  0.0851  0.4725 -0.0017
  219DG      H3 5017   5.480   4.715   1.153 -2.8200  0.0138 -1.1996
  219DG      H4 5018   5.373   4.831   1.241 -0.2438 -0.4802  0.8211
  219DG      H5 5019   5.475   4.711   1.322 -1.9374  0.9488  1.0044
  219DG      H6 5020   5.787   5.553   0.814  0.6653  0.9051 -0.8215
  219DG      H7 5021   5.932   5.475   0.783  0.6707 -1.2408  2.2483
  219DG      H8 5022   5.784   5.423   0.695  0.7159 -1.7531  0.3874
  219DG      O9 5023   5.578   4.866   1.242 -0.1675  0.2035 -0.0144
  219DG     O10 5024   5.802   5.353   0.894  0.6960  0.1406  0.0119
  219DG     C11 5025   5.597   4.935   1.116  0.0230 -0.0164 -0.0213
  219DG     C12 5026   5.880   5.237   0.869  0.3776 -0.2750 -0.5985
  219DG     H13 5027   5.524   5.014   1.100 -0.0081 -0.1773 -0.6954
  219DG     H14 5028   5.595   4.879   1.022 -0.4245 -0.5377  0.2890
  219DG     H15 5029   5.984   5.260   0.845  0.4003  0.5241  0.2108
  219DG     H16 5030   5.836   5.193   0.779 -0.4425 -0.1889 -0.2488
  219DG     C17 5031   5.729   5.006   1.124  0.3403  0.0817  0.3756
  219DG     C18 5032   5.876   5.140   0.986 -0.6151 -1.0358  0.2881
  219DG     O19 5033   5.751   5.074   1.002  0.4230 -0.2907  0.6125
  219DG     H20 5034   5.806   4.933   1.146 -0.4570 -0.5575  1.1205
  219DG     H21 5035   5.718   5.083   1.201 -2.1772  0.8196 -0.6347
  219DG     H22 5036   5.936   5.051   0.968 -1.3437 -1.9837  2.2143
  219DG     H23 5037   5.919   5.172   1.081 -0.7178  0.7031 -0.2285
  220DG      C1 5038   4.400   3.199   2.134 -0.0178 -0.5683 -0.7441
  220DG      C2 5039   4.912   3.326   2.696 -0.0381 -0.0511 -0.2455
  220DG      H3 5040   4.370   3.277   2.064 -2.8949  1.3678  2.3444
  220DG      H4 5041   4.327   3.119   2.124 -0.7374 -0.3304  1.8262
  220DG      H5 5042   4.501   3.162   2.116  0.6529 -0.1044  1.6490
  220DG      H6 5043   4.938   3.339   2.591 -2.3337 -0.8287 -0.9784
  220DG      H7 5044   4.956   3.411   2.748  1.0810  0.0643 -1.3336
  220DG      H8 5045   4.958   3.231   2.725 -0.5678 -0.4812 -0.7847
  220DG      O9 5046   4.391   3.255   2.263 -0.9456 -0.2654 -0.0861
  220DG     O10 5047   4.774   3.329   2.701  0.4070  0.3736 -0.0268
  220DG     C11 5048   4.406   3.159   2.370 -0.6614 -0.0116  0.6293
  220DG     C12 5049   4.719   3.428   2.621  0.5764 -0.4099  0.3161
  220DG     H13 5050   4.494   3.096   2.356  1.2746  1.6311  4.0680
  220DG     H14 5051   4.315   3.099   2.364 -0.0354 -0.9890  0.7192
  220DG     H15 5052   4.766   3.442   2.524  1.1988  1.8177  0.8772
  220DG     H16 5053   4.730   3.531   2.655  0.3151  0.7945 -2.9485
  220DG     C17 5054   4.422   3.237   2.507 -1.3431  0.2275  0.0709
  220DG     C18 5055   4.568   3.396   2.614 -0.1660 -0.4354  0.5622
  220DG     O19 5056   4.558   3.281   2.522 -0.1343 -0.0078  0.0991
  220DG     H20 5057   4.392   3.175   2.592 -2.8074  2.4342  1.2857
  220DG     H21 5058   4.350   3.317   2.524  0.9584  2.4354 -0.0150
  220DG     H22 5059   4.542   3.357   2.713 -0.2665 -2.0200 -0.0735
  220DG     H23 5060   4.509   3.484   2.586 -1.2032 -1.1599  0.4250
  221DG      C1 5061   5.325   1.772   0.508  0.3363  0.5442 -0.4956
  221DG      C2 5062   5.128   1.386   1.104 -0.1428 -0.2491  0.0399
  221DG      H3 5063   5.334   1.676   0.458 -1.7254 -0.3478  0.6877
  221DG      H4 5064   5.404   1.842   0.483  0.2355  1.2791  1.0991
  221DG      H5 5065   5.230   1.800   0.461 -0.0739  0.3078  0.1746
  221DG      H6 5066   5.144   1.377   1.211 -1.5131  1.2547  0.4063
  221DG      H7 5067   5.021   1.371   1.100  0.1525 -2.5526 -1.2437
  221DG      H8 5068   5.167   1.298   1.052 -2.0551 -0.6138 -0.8597
  221DG      O9 5069   5.311   1.746   0.650 -0.2025  0.0976  0.7469
  221DG     O10 5070   5.161   1.510   1.038 -0.8817 -0.0113 -0.5265
  221DG     C11 5071   5.285   1.875   0.714 -0.0497 -0.4930 -0.0244
  221DG     C12 5072   5.250   1.586   1.110  0.1487 -0.3708 -0.5093
  221DG     H13 5073   5.185   1.916   0.708 -0.6529 -1.8978  0.0879
  221DG     H14 5074   5.355   1.954   0.685 -0.8420  0.0762 -0.4006
  221DG     H15 5075   5.340   1.528   1.094  0.8217  0.7333 -0.8401
  221DG     H16 5076   5.223   1.582   1.215 -0.3094 -2.1848 -0.6720
  221DG     C17 5077   5.322   1.858   0.859  0.0350  0.5704 -0.0978
  221DG     C18 5078   5.260   1.731   1.054 -0.2263 -0.1218  0.6157
  221DG     O19 5079   5.273   1.732   0.914  0.6685  0.3447 -0.2500
  221DG     H20 5080   5.280   1.943   0.913 -1.3775  0.6349 -1.2362
  221DG     H21 5081   5.429   1.858   0.878 -0.0572 -1.1231  0.6388
  221DG     H22 5082   5.163   1.779   1.061 -0.0534  0.5564 -1.0926
  221DG     H23 5083   5.319   1.803   1.112  0.1636  0.3503 -0.3417
  222DG      C1 5084   3.274   1.113   0.483  0.2833  0.0849 -0.5738
  222DG      C2 5085   3.566   1.259  -0.079 -0.2822  0.1939  0.4028
  222DG      H3 5086   3.274   1.095   0.590 -0.2406 -1.7972 -0.8516
  222DG      H4 5087   3.228   1.033   0.425  0.5284  0.2317 -0.9852
  222DG      H5 5088   3.218   1.203   0.460 -0.5166 -0.5602 -1.2288
  222DG      H6 5089   3.481   1.326  -0.093  1.5769  2.7447  0.6381
  222DG      H7 5090   3.635   1.298  -0.154 -3.3850  3.3910 -1.1088
  222DG      H8 5091   3.531   1.162  -0.116 -0.7789  1.0247 -1.4217
  222DG      O9 5092   3.411   1.136   0.436 -0.7003 -0.4987  0.1811
  222DG     O10 5093   3.608   1.245   0.051 -0.0516 -0.5325 -0.1891
  222DG     C11 5094   3.479   1.225   0.517  0.9010 -1.2600 -0.7699
  222DG     C12 5095   3.683   1.355   0.098 -0.4432 -0.0023 -0.2189
  222DG     H13 5096   3.487   1.184   0.617 -1.7414 -1.6137 -0.6459
  222DG     H14 5097   3.434   1.322   0.536 -1.7271 -2.6987  1.0028
  222DG     H15 5098   3.624   1.447   0.097 -1.7499 -0.6836  2.7332
  222DG     H16 5099   3.760   1.382   0.027 -0.4446 -0.4781 -0.4048
  222DG     C17 5100   3.614   1.242   0.451 -0.2309 -0.0926 -0.2469
  222DG     C18 5101   3.719   1.332   0.247  0.3821  0.1915 -0.0320
  222DG     O19 5102   3.605   1.268   0.310  0.1034  0.8293  0.4502
  222DG     H20 5103   3.681   1.161   0.480  1.2189  1.0756 -0.1784
  222DG     H21 5104   3.668   1.326   0.495 -0.4674  0.1965 -0.5003
  222DG     H22 5105   3.801   1.261   0.257 -0.1310 -0.6703 -1.5815
  222DG     H23 5106   3.748   1.423   0.299  1.6516  0.8258 -1.7437
  223DG      C1 5107   1.245   2.150   4.617  0.6662 -0.1479  0.1870
  223DG      C2 5108   1.095   2.355   4.042 -0.1599  0.3464 -0.1242
  223DG      H3 5109   1.211   2.053   4.582  2.3272 -0.8404  0.3931
  223DG      H4 5110   1.259   2.148   4.725  1.5415 -2.1538  0.0733
  223DG      H5 5111   1.338   2.167   4.563  0.0992 -1.7101 -1.3564
  223DG      H6 5112   1.202   2.362   4.021 -0.2882  0.6936 -0.6766
  223DG      H7 5113   1.050   2.255   4.043 -0.9744  0.6601  2.5408
  223DG      H8 5114   1.041   2.419   3.972  0.1188 -0.8853 -1.5394
  223DG      O9 5115   1.149   2.247   4.582  0.5578 -0.8951  0.0677
  223DG     O10 5116   1.066   2.390   4.177 -0.0661  0.0406  0.1551
  223DG     C11 5117   1.167   2.369   4.651 -0.5240  0.1643  0.3361
  223DG     C12 5118   1.073   2.526   4.210  0.4289  0.0794 -0.2241
  223DG     H13 5119   1.271   2.398   4.639 -0.7334  0.7214 -0.1402
  223DG     H14 5120   1.140   2.366   4.757 -2.3875  1.1439 -0.0763
  223DG     H15 5121   1.017   2.585   4.138 -1.7091  1.8273  2.6740
  223DG     H16 5122   1.176   2.558   4.192  0.3707  0.7408  0.5837
  223DG     C17 5123   1.079   2.468   4.572 -0.3192  0.0139 -0.5805
  223DG     C18 5124   1.032   2.544   4.355 -0.3152 -0.7926 -0.0757
  223DG     O19 5125   1.111   2.457   4.433 -0.4697 -0.0816 -0.4922
  223DG     H20 5126   1.112   2.562   4.617 -0.3661 -0.5506  0.6811
  223DG     H21 5127   0.972   2.465   4.593 -0.2894 -2.6144 -0.4807
  223DG     H22 5128   1.030   2.648   4.388  2.6865 -0.5971 -0.2653
  223DG     H23 5129   0.927   2.514   4.352 -0.9551  1.2395 -0.1787
  224DG      C1 5130   2.581   2.065   3.320 -0.1605  0.0939 -0.0744
  224DG      C2 5131   2.152   2.483   3.269  0.1891  0.3263 -0.4414
  224DG      H3 5132   2.508   2.145   3.318 -2.9097 -2.2424 -2.5310
  224DG      H4 5133   2.635   2.063   3.224 -0.2662 -0.8270 -0.1191
  224DG      H5 5134   2.661   2.081   3.393  1.3882 -0.1906 -1.6220
  224DG      H6 5135   2.065   2.541   3.242 -0.0854 -0.1112 -0.5109
  224DG      H7 5136   2.247   2.536   3.269  0.6506 -0.3330  2.2947
  224DG      H8 5137   2.150   2.412   3.186 -0.5517  1.2800 -1.2538
  224DG      O9 5138   2.504   1.947   3.347  0.1788 -0.0417  0.3597
  224DG     O10 5139   2.132   2.428   3.399 -0.4275  0.5149  0.2229
  224DG     C11 5140   2.388   1.928   3.262 -0.8624  0.2876  0.0979
  224DG     C12 5141   2.223   2.326   3.436 -0.9098 -0.2906 -0.5920
  224DG     H13 5142   2.379   1.822   3.241 -0.8751  0.0064  1.4368
  224DG     H14 5143   2.404   1.989   3.173  2.5185  1.5038  1.3491
  224DG     H15 5144   2.232   2.314   3.544 -0.3049  0.0285 -0.6019
  224DG     H16 5145   2.326   2.351   3.408 -0.9534  1.0383  0.2988
  224DG     C17 5146   2.263   1.976   3.337  0.0226 -0.4563 -0.0988
  224DG     C18 5147   2.182   2.196   3.372 -0.6215  0.0822 -0.5171
  224DG     O19 5148   2.291   2.108   3.387  0.4971  0.0379 -0.6336
  224DG     H20 5149   2.233   1.917   3.423 -1.7951 -0.0419 -0.3963
  224DG     H21 5150   2.184   1.985   3.262 -0.0823  1.9174  0.2151
  224DG     H22 5151   2.092   2.149   3.413  0.2470 -0.2130  1.1109
  224DG     H23 5152   2.165   2.210   3.265 -0.1795 -0.2715 -0.6399
  225DG      C1 5153   4.944   0.205   2.589  0.1499 -0.4006 -0.8681
  225DG      C2 5154   5.076   0.389   1.865  0.0304  0.1412 -0.1596
  225DG      H3 5155   4.945   0.306   2.628  1.8938 -0.4951 -0.6169
  225DG      H4 5156   4.922   0.127   2.662 -0.6208  0.1256 -0.5223
  225DG      H5 5157   4.857   0.198   2.524 -0.9572  1.6015  0.3040
  225DG      H6 5158   5.158   0.373   1.796 -0.2993  2.9673 -1.3395
  225DG      H7 5159   4.999   0.311   1.868  1.4884 -1.3706 -0.7112
  225DG      H8 5160   5.040   0.490   1.845  1.9714  1.0282  0.6387
  225DG      O9 5161   5.066   0.168   2.526 -0.0514  0.6039  0.4376
  225DG     O10 5162   5.132   0.385   1.990 -0.3679 -0.4571 -0.5172
  225DG     C11 5163   5.108   0.264   2.431  0.6728  0.0505 -0.1995
  225DG     C12 5164   5.207   0.268   2.015 -0.8748  0.3212 -0.0484
  225DG     H13 5165   5.161   0.344   2.483 -0.7532  1.1040 -0.3485
  225DG     H14 5166   5.025   0.320   2.390  0.1200 -0.8353 -0.3173
  225DG     H15 5167   5.271   0.250   1.929  0.6264  1.2019  0.8254
  225DG     H16 5168   5.138   0.187   2.037 -0.5290  0.7937  3.4609
  225DG     C17 5169   5.192   0.206   2.323  0.4999  0.2833 -0.0927
  225DG     C18 5170   5.305   0.295   2.129 -0.0763  0.3408 -0.2594
  225DG     O19 5171   5.231   0.317   2.245 -0.0062 -0.5737 -0.1720
  225DG     H20 5172   5.132   0.148   2.253 -1.1231  1.1184  0.5475
  225DG     H21 5173   5.271   0.142   2.364  0.7578  1.2851  1.0331
  225DG     H22 5174   5.369   0.209   2.151 -0.6862  0.2080  1.1024
  225DG     H23 5175   5.366   0.380   2.098 -1.2661  0.3753 -2.7747
  226DG      C1 5176   0.694   3.660   3.254 -0.1795  0.7132 -0.5912
  226DG      C2 5177   0.943   3.057   3.413 -0.3770 -0.7482 -0.4069
  226DG      H3 5178   0.618   3.734   3.230 -1.2352 -0.1722 -0.1037
  226DG      H4 5179   0.756   3.645   3.166  1.8462  0.9820  0.7254
  226DG      H5 5180   0.768   3.703   3.322  1.1573  0.5941 -1.9329
  226DG      H6 5181   0.924   2.964   3.467 -0.0193  0.3768  1.7832
  226DG      H7 5182   0.953   3.042   3.305 -2.0267 -1.4935 -0.4934
  226DG      H8 5183   1.038   3.083   3.459 -1.0782 -0.4893  0.9283
  226DG      O9 5184   0.648   3.531   3.291  0.1602 -0.0864  0.1611
  226DG     O10 5185   0.839   3.151   3.452  0.1718  0.0611 -0.0470
  226DG     C11 5186   0.552   3.537   3.394  0.1477 -0.4201  0.1859
  226DG     C12 5187   0.707   3.098   3.444 -0.2481  0.6114 -0.3351
  226DG     H13 5188   0.464   3.589   3.358  1.7678  2.0431 -0.5246
  226DG     H14 5189   0.591   3.593   3.480 -2.2275  2.4818 -0.4660
  226DG     H15 5190   0.703   3.006   3.503  0.6301 -0.4873 -1.9306
  226DG     H16 5191   0.685   3.070   3.341  1.0651 -2.3085  0.0753
  226DG     C17 5192   0.509   3.390   3.430 -0.0640  0.0958 -0.0599
  226DG     C18 5193   0.613   3.192   3.518 -0.6614  0.1518  0.3889
  226DG     O19 5194   0.632   3.326   3.475  0.4253  0.0446 -0.2811
  226DG     H20 5195   0.473   3.338   3.341 -0.5883  1.9889 -1.0151
  226DG     H21 5196   0.429   3.389   3.504  0.1525 -0.6629  0.1740
  226DG     H22 5197   0.518   3.143   3.494 -0.6101 -0.7145  1.8222
  226DG     H23 5198   0.627   3.180   3.626 -1.0932  0.5661  0.4964
  227DG      C1 5199   3.775   0.396   1.252  0.4893 -0.4405  0.1166
  227DG      C2 5200   4.389   0.640   1.199 -0.1998 -0.4674  0.0995
  227DG      H3 5201   3.683   0.344   1.225  0.1452  0.3032 -0.1866
  227DG      H4 5202   3.738   0.498   1.266  0.0829 -0.5545 -0.1047
  227DG      H5 5203   3.822   0.368   1.346  2.8543  1.4719 -0.3671
  227DG      H6 5204   4.331   0.731   1.185  2.4010  1.0538 -1.7867
  227DG      H7 5205   4.423   0.660   1.301  0.5414 -1.7678  0.1346
  227DG      H8 5206   4.482   0.652   1.143  0.3104  1.1046  1.2142
  227DG      O9 5207   3.865   0.383   1.144 -0.0489 -0.7168  0.0005
  227DG     O10 5208   4.329   0.523   1.172 -0.5249 -0.1622 -0.2668
  227DG     C11 5209   3.918   0.250   1.125  0.1586 -0.0683  0.0643
  227DG     C12 5210   4.310   0.524   1.030  0.0998  0.1937 -0.0368
  227DG     H13 5211   3.848   0.192   1.064 -1.4563  1.1286  0.7053
  227DG     H14 5212   3.932   0.192   1.217 -1.3740 -0.1414  0.2911
  227DG     H15 5213   4.400   0.531   0.970 -0.2816  2.1837 -0.4273
  227DG     H16 5214   4.252   0.612   1.001  1.8266  2.1737  2.1156
  227DG     C17 5215   4.037   0.265   1.031  0.2433 -0.1016  0.3875
  227DG     C18 5216   4.238   0.392   0.988  0.1337 -0.1588  0.4737
  227DG     O19 5217   4.125   0.368   1.075 -0.4011 -0.0161  0.3915
  227DG     H20 5218   3.994   0.293   0.935 -0.9053 -0.1040  0.8937
  227DG     H21 5219   4.095   0.172   1.037  1.0280  0.4279  1.2988
  227DG     H22 5220   4.201   0.398   0.886 -0.3095 -1.2814  0.5589
  227DG     H23 5221   4.305   0.309   1.009 -0.2390 -0.4290  0.6215
  228DG      C1 5222   0.792   4.227   4.938  0.0935 -0.5137  0.0769
  228DG      C2 5223   1.189   4.587   5.373  0.2677  0.0286  0.2326
  228DG      H3 5224   0.773   4.173   4.846 -0.6292 -1.8606  0.9697
  228DG      H4 5225   0.746   4.325   4.944  0.8822 -0.2001  1.5949
  228DG      H5 5226   0.745   4.179   5.024  0.6532  0.3346  0.8723
  228DG      H6 5227   1.129   4.661   5.318 -0.5890  0.0579  1.1854
  228DG      H7 5228   1.151   4.596   5.474  1.1090  0.8754  0.4914
  228DG      H8 5229   1.293   4.615   5.390  0.3737 -0.6818  0.8023
  228DG      O9 5230   0.930   4.258   4.967  0.2791  0.2086  0.1487
  228DG     O10 5231   1.175   4.460   5.316 -0.2506 -0.2137 -0.4210
  228DG     C11 5232   1.016   4.145   4.980 -0.9280 -0.1470  0.2822
  228DG     C12 5233   1.297   4.422   5.252  0.6120 -0.2780 -0.1595
  228DG     H13 5234   1.015   4.090   4.885 -0.3800 -1.8493  1.2078
  228DG     H14 5235   0.970   4.072   5.047 -2.2952  2.5505  2.4485
  228DG     H15 5236   1.391   4.426   5.306  1.0208  0.4239 -0.9153
  228DG     H16 5237   1.315   4.500   5.179  1.4032  1.0458  1.4045
  228DG     C17 5238   1.159   4.190   4.999  0.7846 -0.3777  0.3045
  228DG     C18 5239   1.288   4.286   5.180 -0.1079  0.3518  0.0428
  228DG     O19 5240   1.155   4.266   5.121  0.5290 -0.0955  1.0338
  228DG     H20 5241   1.191   4.249   4.912 -0.5562 -2.2381 -1.5443
  228DG     H21 5242   1.232   4.110   5.003  0.7163 -0.5152 -0.8600
  228DG     H22 5243   1.363   4.268   5.102  0.7541  1.0055  0.6992
  228DG     H23 5244   1.298   4.199   5.245 -0.8535 -0.2180 -0.5855
  229DG      C1 5245   0.359   2.034   3.239 -0.1719 -0.3471 -0.1947
  229DG      C2 5246   0.407   1.459   3.632  0.5430 -0.2341 -0.6646
  229DG      H3 5247   0.417   2.091   3.167 -0.6790 -1.6958 -1.7209
  229DG      H4 5248   0.271   2.095   3.259  0.7921  0.5841  1.4532
  229DG      H5 5249   0.329   1.938   3.195 -1.2733 -1.1461  2.1190
  229DG      H6 5250   0.381   1.378   3.563 -2.1644  0.0280 -0.0607
  229DG      H7 5251   0.433   1.408   3.726  0.7828 -1.6882 -1.4932
  229DG      H8 5252   0.309   1.501   3.655 -0.1751 -1.9023 -0.5034
  229DG      O9 5253   0.427   1.989   3.356 -0.0374  0.0235 -0.4621
  229DG     O10 5254   0.491   1.558   3.591 -0.0995  0.0271 -0.3837
  229DG     C11 5255   0.541   1.912   3.314  0.0050 -1.1535 -0.1915
  229DG     C12 5256   0.526   1.660   3.684 -0.1070  0.2635 -0.1170
  229DG     H13 5257   0.593   1.964   3.234  0.0488 -0.0858  0.5159
  229DG     H14 5258   0.493   1.820   3.280 -2.1944  0.0953 -0.6444
  229DG     H15 5259   0.555   1.618   3.780 -0.7956 -2.7045 -1.1012
  229DG     H16 5260   0.433   1.713   3.701  0.3458  0.7417  0.9472
  229DG     C17 5261   0.636   1.893   3.428 -0.7569 -0.6863  0.3704
  229DG     C18 5262   0.629   1.752   3.618  1.2225 -0.3503 -0.8316
  229DG     O19 5263   0.567   1.798   3.500  0.7824  0.1535 -0.4869
  229DG     H20 5264   0.658   1.987   3.478  0.1211 -0.4176 -0.4852
  229DG     H21 5265   0.722   1.838   3.391  0.4564  0.3018  1.6145
  229DG     H22 5266   0.655   1.839   3.679  0.9706 -0.8403 -0.0070
  229DG     H23 5267   0.722   1.697   3.605  0.9530 -1.5069  1.6240
  230DG      C1 5268   4.469   0.811   0.196  0.0267 -0.5751  0.0178
  230DG      C2 5269   4.269   0.104   0.240 -0.0741  0.1835 -0.2881
  230DG      H3 5270   4.514   0.821   0.295 -1.4777  1.1604  0.5865
  230DG      H4 5271   4.420   0.902   0.160 -1.0309 -0.9808  0.3901
  230DG      H5 5272   4.540   0.775   0.121  2.5344 -0.1452  2.0473
  230DG      H6 5273   4.196   0.074   0.316  1.5507 -0.7105  0.9762
  230DG      H7 5274   4.245   0.068   0.140  0.5516  0.8237 -0.6762
  230DG      H8 5275   4.372   0.078   0.263  0.0408  1.5633  0.8974
  230DG      O9 5276   4.366   0.713   0.195 -0.2528  0.1096 -0.1334
  230DG     O10 5277   4.256   0.248   0.226 -0.0753 -0.5968 -0.1184
  230DG     C11 5278   4.255   0.736   0.278 -0.4180 -0.6516 -0.4302
  230DG     C12 5279   4.136   0.295   0.157 -0.0760 -0.3964  0.1058
  230DG     H13 5280   4.238   0.844   0.280  0.2040 -0.5669  0.7230
  230DG     H14 5281   4.296   0.710   0.375 -0.4134  0.2088 -0.1897
  230DG     H15 5282   4.055   0.222   0.148 -0.8517  0.3962  0.4597
  230DG     H16 5283   4.161   0.312   0.052  0.3278 -1.0241  0.0953
  230DG     C17 5284   4.132   0.654   0.251  0.4738  0.2203 -0.1951
  230DG     C18 5285   4.082   0.423   0.232 -0.3270 -0.2735  0.1887
  230DG     O19 5286   4.182   0.523   0.249  0.5377 -0.0291 -0.4174
  230DG     H20 5287   4.090   0.679   0.153  1.2324 -1.1004 -0.8931
  230DG     H21 5288   4.064   0.670   0.334  0.9292  1.1109  0.0128
  230DG     H22 5289   3.987   0.460   0.192 -0.8375 -1.2121  0.4918
  230DG     H23 5290   4.054   0.395   0.334 -0.0803 -2.1424 -0.2194
  231DG      C1 5291   3.319   0.713   4.265  0.0061 -0.6489  0.2523
  231DG      C2 5292   3.811   1.046   4.463 -0.6502 -0.2410  0.6477
  231DG      H3 5293   3.258   0.720   4.355  2.6155 -0.3096  2.1176
  231DG      H4 5294   3.283   0.625   4.211  1.4491 -0.4971 -1.0440
  231DG      H5 5295   3.301   0.805   4.209  3.1343 -0.6392 -0.9889
  231DG      H6 5296   3.888   1.089   4.526  0.5512 -1.9347  0.4207
  231DG      H7 5297   3.790   1.111   4.378 -2.3045  0.0464  1.2270
  231DG      H8 5298   3.722   1.058   4.525 -1.7700 -1.0933 -0.7223
  231DG      O9 5299   3.457   0.705   4.299 -0.3431  0.0949  0.3997
  231DG     O10 5300   3.836   0.917   4.408  0.1754 -0.1037 -0.3607
  231DG     C11 5301   3.483   0.583   4.355 -0.3572  0.4659 -0.6343
  231DG     C12 5302   3.859   0.813   4.503  0.5290  0.3441 -0.1646
  231DG     H13 5303   3.440   0.503   4.294 -1.1474  0.0471  0.4275
  231DG     H14 5304   3.427   0.577   4.448 -2.6118  0.8088 -1.8853
  231DG     H15 5305   3.798   0.830   4.592  2.4741  0.2639  1.2561
  231DG     H16 5306   3.961   0.819   4.539  0.1676  0.4797  0.8746
  231DG     C17 5307   3.630   0.551   4.376 -0.3134 -0.6431  0.5570
  231DG     C18 5308   3.823   0.674   4.448 -0.5029  0.4402 -0.1161
  231DG     O19 5309   3.686   0.671   4.423  0.5153  0.6170  0.2601
  231DG     H20 5310   3.662   0.523   4.276 -2.8943  0.5892 -0.6936
  231DG     H21 5311   3.650   0.469   4.445 -0.6970 -2.1786 -1.0968
  231DG     H22 5312   3.874   0.651   4.355 -1.7577 -1.9929 -0.2854
  231DG     H23 5313   3.866   0.602   4.518  0.5551  2.1032  1.0319
  232DG      C1 5314   2.256   0.007   3.989 -0.1927 -0.2581  0.0303
  232DG      C2 5315   2.308   0.346   4.619 -0.2209  0.5429  0.6880
  232DG      H3 5316   2.153  -0.015   4.014 -1.4239  0.7953 -3.4677
  232DG      H4 5317   2.322  -0.072   4.024  0.1731 -0.2626 -0.6385
  232DG      H5 5318   2.264   0.012   3.880  0.4371 -1.3711  0.0113
  232DG      H6 5319   2.359   0.282   4.692  0.0640  0.9035  0.8098
  232DG      H7 5320   2.310   0.452   4.645 -3.6486  1.6079 -2.5469
  232DG      H8 5321   2.203   0.320   4.617  0.1325 -1.0142 -2.0132
  232DG      O9 5322   2.284   0.137   4.041 -0.8226  0.6155  0.4123
  232DG     O10 5323   2.355   0.334   4.483 -0.3009  0.1549 -0.1547
  232DG     C11 5324   2.421   0.170   4.013  0.0245 -0.5552 -0.4132
  232DG     C12 5325   2.483   0.378   4.449 -0.1904  0.0117 -0.1577
  232DG     H13 5326   2.440   0.182   3.906 -0.2334  0.0782 -0.3921
  232DG     H14 5327   2.487   0.095   4.056 -1.0840  0.0737  2.6199
  232DG     H15 5328   2.551   0.294   4.464 -0.7812 -0.3219  0.7175
  232DG     H16 5329   2.519   0.464   4.505 -1.3387  0.4485 -0.0796
  232DG     C17 5330   2.467   0.306   4.079  0.1647  0.5406  0.2991
  232DG     C18 5331   2.497   0.405   4.296  0.6679  0.4415 -0.6797
  232DG     O19 5332   2.431   0.305   4.214 -0.3897  0.1269 -0.1810
  232DG     H20 5333   2.411   0.393   4.044  1.3556  1.9367  1.7302
  232DG     H21 5334   2.574   0.314   4.065  0.1415 -1.3273 -1.5405
  232DG     H22 5335   2.452   0.501   4.271 -1.7529 -0.9585 -2.0479
  232DG     H23 5336   2.603   0.414   4.273  1.9187 -1.4866  3.2552
  233DG      C1 5337   2.408   0.320   5.291  0.2040  0.2801  0.0773
  233DG      C2 5338   2.623   0.023   4.724  0.6010 -0.4524  0.1002
  233DG      H3 5339   2.508   0.310   5.334  0.7296  1.9600 -0.6831
  233DG      H4 5340   2.363   0.223   5.315  1.0371 -0.1714 -0.1266
  233DG      H5 5341   2.351   0.398   5.341 -1.5139 -0.8769  0.0066
  233DG      H6 5342   2.550  -0.057   4.738  0.9617 -0.9597 -0.8096
  233DG      H7 5343   2.632   0.033   4.616 -0.3089 -0.0002  0.0495
  233DG      H8 5344   2.714  -0.011   4.774  1.0261 -2.5674 -1.9438
  233DG      O9 5345   2.424   0.342   5.152 -0.3095 -0.5338 -0.4002
  233DG     O10 5346   2.580   0.159   4.774  0.0803  0.0518  0.0618
  233DG     C11 5347   2.491   0.464   5.130  0.3333  0.4440 -0.1914
  233DG     C12 5348   2.685   0.246   4.753 -0.0549  0.1820  0.0945
  233DG     H13 5349   2.590   0.464   5.176  0.8585  1.6831 -1.2684
  233DG     H14 5350   2.446   0.553   5.176 -1.3233  0.2332 -1.3344
  233DG     H15 5351   2.709   0.249   4.647 -0.2561 -2.6300 -0.0940
  233DG     H16 5352   2.773   0.230   4.815  0.6460  0.8305 -0.6981
  233DG     C17 5353   2.512   0.490   4.977  0.7867 -0.3372 -0.1679
  233DG     C18 5354   2.627   0.391   4.793 -0.3870 -0.4665  0.3797
  233DG     O19 5355   2.567   0.375   4.925 -0.6957 -0.6443  0.2170
  233DG     H20 5356   2.579   0.576   4.962 -0.0518  0.1666 -1.1446
  233DG     H21 5357   2.429   0.507   4.908  0.6290  0.6234  0.2328
  233DG     H22 5358   2.709   0.463   4.798 -1.2925  0.6385 -0.1835
  233DG     H23 5359   2.546   0.422   4.727 -0.1020  0.3899  0.4099
  234DG      C1 5360   4.639   1.227   4.484 -0.2829 -0.4003 -0.0734
  234DG      C2 5361   4.377   1.400   5.066 -0.8042  0.1579  0.1994
  234DG      H3 5362   4.582   1.143   4.524 -1.2205  0.0852 -0.3391
  234DG      H4 5363   4.743   1.227   4.514  0.0053  0.3856 -1.0307
  234DG      H5 5364   4.637   1.226   4.375  1.3417 -3.9023 -0.2000
  234DG      H6 5365   4.271   1.421   5.080 -1.1630 -1.4482  0.0916
  234DG      H7 5366   4.394   1.292   5.068  1.4847  0.4524  0.0683
  234DG      H8 5367   4.442   1.447   5.141 -0.6146 -0.4503  0.4243
  234DG      O9 5368   4.573   1.343   4.533  0.2162  1.0072 -0.2723
  234DG     O10 5369   4.422   1.440   4.937  0.4145  0.1674 -0.0294
  234DG     C11 5370   4.644   1.463   4.528  0.2695  0.2895 -0.4737
  234DG     C12 5371   4.415   1.585   4.924 -0.5576  0.6223 -0.3111
  234DG     H13 5372   4.673   1.493   4.427  1.4340  1.7113  0.2426
  234DG     H14 5373   4.731   1.469   4.593 -0.3651 -3.1269  0.8733
  234DG     H15 5374   4.504   1.621   4.975 -0.8036 -0.1676  0.7092
  234DG     H16 5375   4.331   1.635   4.973  0.8274  0.8424  2.0175
  234DG     C17 5376   4.541   1.566   4.582 -0.1234  0.2291 -0.0621
  234DG     C18 5377   4.429   1.622   4.779 -0.2491 -0.0949  0.2482
  234DG     O19 5378   4.537   1.541   4.725 -0.1775 -0.4002  0.3051
  234DG     H20 5379   4.447   1.538   4.534  0.0985 -2.6924  1.0058
  234DG     H21 5380   4.577   1.664   4.553  2.5332 -0.3512  0.9500
  234DG     H22 5381   4.332   1.599   4.735 -0.2544 -0.7923  0.6147
  234DG     H23 5382   4.448   1.729   4.773 -0.0706  0.2180  3.9686
  235DG      C1 5383   2.458   1.600   3.488 -0.5488  0.8039  0.0412
  235DG      C2 5384   2.919   1.541   3.945  0.2727  0.2449  0.3476
  235DG      H3 5385   2.353   1.603   3.458 -0.8486 -1.3332  0.7085
  235DG      H4 5386   2.533   1.586   3.410 -1.0550 -2.8777  0.0222
  235DG      H5 5387   2.476   1.695   3.538 -0.1910  0.6266  0.2547
  235DG      H6 5388   2.904   1.648   3.931 -1.2321 -0.0667 -0.6536
  235DG      H7 5389   2.949   1.525   4.048  2.1797 -0.9092 -0.3300
  235DG      H8 5390   3.006   1.518   3.884  1.0843  1.0389  1.1886
  235DG      O9 5391   2.478   1.494   3.569  0.3911  0.2961 -0.2694
  235DG     O10 5392   2.814   1.448   3.900 -0.0372 -0.2282 -0.2311
  235DG     C11 5393   2.381   1.460   3.660 -0.0070  0.7286  0.3641
  235DG     C12 5394   2.714   1.432   4.001 -0.3383 -0.3730 -0.4957
  235DG     H13 5395   2.300   1.418   3.600  0.2717 -0.6176  0.8923
  235DG     H14 5396   2.350   1.546   3.719  0.5623  0.5807  0.8873
  235DG     H15 5397   2.684   1.520   4.058  1.8592 -0.4735  0.9186
  235DG     H16 5398   2.747   1.361   4.076  0.4046 -1.7355 -2.0368
  235DG     C17 5399   2.432   1.358   3.763  0.3986 -0.6949 -0.1587
  235DG     C18 5400   2.606   1.349   3.938  0.8810 -0.8846 -0.2316
  235DG     O19 5401   2.528   1.430   3.843 -0.1221 -0.0118  0.5768
  235DG     H20 5402   2.491   1.271   3.736 -1.2624 -2.2075  0.9249
  235DG     H21 5403   2.345   1.325   3.820  0.8144 -0.7514  0.4501
  235DG     H22 5404   2.671   1.280   3.885 -0.0705 -2.3348  0.4046
  235DG     H23 5405   2.542   1.294   4.008 -1.5174 -0.2081 -1.7761
  236THF     O1 5406   2.744   2.170   1.432 -0.0347  0.2682 -0.2791
  236THF     C2 5407   2.622   2.166   1.364 -0.4922  0.7036 -0.4734
  236THF     C3 5408   2.720   2.221   1.563  0.6295 -0.2063  0.6488
  236THF     H4 5409   2.630   2.097   1.279  0.7876  1.7562 -1.2328
  236THF     H5 5410   2.606   2.272   1.343 -0.5004  1.2877  2.1517
  236THF     H6 5411   2.804   2.211   1.632  1.2272 -0.9160 -0.1685
  236THF     H7 5412   2.686   2.324   1.557  1.1161  0.0306  1.7385
  236THF     C8 5413   2.601   2.138   1.598 -0.6230 -0.5196 -0.2206
  236THF     C9 5414   2.525   2.116   1.466  0.4744 -0.3214 -0.9180
  236THF    H10 5415   2.538   2.191   1.670  0.9187 -2.2874  2.6638
  236THF    H11 5416   2.637   2.047   1.646 -0.1145  0.7199  1.9378
  236THF    H12 5417   2.488   2.014   1.453 -0.0153 -0.3260  0.3249
  236THF    H13 5418   2.440   2.184   1.473  0.8887  0.2542 -1.4221
  237THF     O1 5419   1.022   4.811   0.597  0.0777 -0.3630  0.0977
  237THF     C2 5420   0.980   4.678   0.610  0.5413  1.1901 -0.0101
  237THF     C3 5421   1.116   4.829   0.491  0.3582  0.2176  0.2659
  237THF     H4 5422   0.875   4.668   0.584  0.8315 -2.9082 -0.2830
  237THF     H5 5423   0.964   4.654   0.716 -1.8686  1.9867 -0.1329
  237THF     H6 5424   1.061   4.904   0.434 -0.5982  2.1579  3.5152
  237THF     H7 5425   1.210   4.873   0.523 -1.0410  2.8366  1.1062
  237THF     C8 5426   1.122   4.691   0.425  0.2898  0.1956  0.0427
  237THF     C9 5427   1.081   4.584   0.533  0.5161  0.1989  0.0284
  237THF    H10 5428   1.220   4.674   0.380  0.5543 -1.9040  1.2573
  237THF    H11 5429   1.052   4.703   0.343  0.6183 -0.7060 -0.3829
  237THF    H12 5430   1.033   4.497   0.487  0.8111 -0.8308  1.5978
  237THF    H13 5431   1.169   4.556   0.590  2.1582  0.6717 -2.1658
  238THF     O1 5432   5.016   0.901   5.062 -0.6013 -0.4719  0.1500
  238THF     C2 5433   4.972   0.838   4.943 -0.4237 -0.4697 -0.5648
  238THF     C3 5434   5.030   0.804   5.169 -0.5861 -0.0921  0.7252
  238THF     H4 5435   5.050   0.777   4.898 -1.1484 -2.1543  0.3630
  238THF     H5 5436   4.937   0.908   4.867 -0.2762  1.2029  0.8378
  238THF     H6 5437   5.134   0.780   5.190 -0.1923 -1.8099 -2.6092
  238THF     H7 5438   4.989   0.862   5.252  1.5306  0.8446  1.1577
  238THF     C8 5439   4.954   0.684   5.119  0.2663 -0.1595  0.0206
  238THF     C9 5440   4.874   0.738   5.006 -0.6989 -0.2055  0.1083
  238THF    H10 5441   4.888   0.645   5.196 -1.4634 -0.4230 -1.5304
  238THF    H11 5442   5.028   0.608   5.094  2.1937  0.8634  2.2057
  238THF    H12 5443   4.847   0.654   4.942  0.1072  0.5393 -1.2480
  238THF    H13 5444   4.786   0.789   5.046  0.0728  1.6840 -0.4948
  239THF     O1 5445   0.434   1.461   1.173  0.0538 -0.5640 -0.6580
  239THF     C2 5446   0.540   1.370   1.200 -0.0874  0.6190 -0.3130
  239THF     C3 5447   0.345   1.454   1.277  0.1164 -0.9284  0.4729
  239THF     H4 5448   0.639   1.401   1.168  0.3941 -1.3029 -0.8054
  239THF     H5 5449   0.514   1.281   1.142 -0.4337  0.8581 -0.5257
  239THF     H6 5450   0.272   1.534   1.275  1.7529  0.5999 -0.9156
  239THF     H7 5451   0.289   1.360   1.277  0.9508 -1.4307  0.3137
  239THF     C8 5452   0.439   1.444   1.398 -0.2508 -0.5203 -0.1021
  239THF     C9 5453   0.530   1.337   1.347 -0.6310 -0.3641 -0.8050
  239THF    H10 5454   0.385   1.408   1.486  0.5783 -2.4580 -0.3381
  239THF    H11 5455   0.485   1.540   1.423  0.6581 -1.3714  1.6349
  239THF    H12 5456   0.631   1.347   1.387  0.5725  2.1108 -4.0390
  239THF    H13 5457   0.489   1.239   1.368 -1.0615 -0.2984 -1.3049
  240THF     O1 5458   2.940   1.775   2.237 -0.3965  0.5759 -0.2813
  240THF     C2 5459   3.054   1.794   2.319 -1.2076 -0.3596 -0.4117
  240THF     C3 5460   2.861   1.672   2.296  0.1966  0.1972 -0.0503
  240THF     H4 5461   3.030   1.857   2.405 -2.9044 -1.2650 -0.1698
  240THF     H5 5462   3.133   1.839   2.260 -2.0078 -1.2198 -2.1974
  240THF     H6 5463   2.809   1.722   2.377 -1.1444  0.8598 -1.2905
  240THF     H7 5464   2.789   1.629   2.227  0.3836 -0.3524  0.0860
  240THF     C8 5465   2.969   1.574   2.364 -0.6425  0.2731  0.3661
  240THF     C9 5466   3.092   1.666   2.371  0.1189  0.2189  0.3803
  240THF    H10 5467   2.984   1.481   2.309 -2.3466 -1.7135  3.0045
  240THF    H11 5468   2.936   1.541   2.463  0.6241 -1.3211  0.3182
  240THF    H12 5469   3.138   1.680   2.470  1.1347 -2.2314  0.3139
  240THF    H13 5470   3.179   1.637   2.312  0.2301  1.0479  0.1148
  241THF     O1 5471   3.664   0.879   0.353  0.0348  0.0458  0.1247
  241THF     C2 5472   3.785   0.801   0.357  0.6511 -0.0692 -0.3374
  241THF     C3 5473   3.571   0.816   0.436 -0.1253  0.4207 -0.2045
  241THF     H4 5474   3.828   0.794   0.457  3.3894 -0.3111 -1.4668
  241THF     H5 5475   3.864   0.818   0.284  0.4308 -1.8469 -1.0418
  241THF     H6 5476   3.611   0.824   0.537  3.9995  1.0128 -1.6976
  241THF     H7 5477   3.475   0.866   0.425 -2.0103 -2.9483 -0.4203
  241THF     C8 5478   3.594   0.667   0.384 -0.2452 -0.2325 -0.4181
  241THF     C9 5479   3.723   0.673   0.313 -0.8172  0.1721  0.0131
  241THF    H10 5480   3.509   0.636   0.322  1.2718  0.6613 -3.1377
  241THF    H11 5481   3.582   0.604   0.471 -2.1089  0.7054  0.0651
  241THF    H12 5482   3.788   0.585   0.318  0.8963  1.3647 -0.1863
  241THF    H13 5483   3.713   0.686   0.205  4.5562 -0.6054 -0.8744
  242THF     O1 5484   1.361   4.461   0.370 -0.2116  0.2378  0.6575
  242THF     C2 5485   1.407   4.423   0.239  0.0736 -0.1781 -0.2652
  242THF     C3 5486   1.377   4.348   0.457  0.2744  0.2009  0.7304
  242THF     H4 5487   1.513   4.447   0.226 -0.1509  1.1155  0.0929
  242THF     H5 5488   1.359   4.494   0.171  0.8560  0.2083 -0.4250
  242THF     H6 5489   1.469   4.344   0.515 -1.0563  0.0588  2.9259
  242THF     H7 5490   1.289   4.339   0.520  0.6074 -4.4338  0.8775
  242THF     C8 5491   1.381   4.228   0.366 -0.2471 -0.2602 -0.6031
  242THF     C9 5492   1.366   4.281   0.226  0.3922  0.8495 -0.1928
  242THF    H10 5493   1.303   4.159   0.399  0.1871 -0.7934 -0.6598
  242THF    H11 5494   1.478   4.181   0.384  0.6548  1.8446  0.3403
  242THF    H12 5495   1.440   4.224   0.170  2.4748  1.2572  1.9889
  242THF    H13 5496   1.261   4.285   0.196  0.0879 -0.9967  0.5022
  243THF     O1 5497   0.911   2.403   3.647 -0.0287  0.0043  0.5156
  243THF     C2 5498   1.046   2.391   3.604 -0.3190 -0.1306 -0.4569
  243THF     C3 5499   0.836   2.310   3.568  0.2220 -0.2018  0.4917
  243THF     H4 5500   1.117   2.440   3.672  1.4539 -1.8733 -0.9472
  243THF     H5 5501   1.066   2.434   3.506 -0.5005 -1.0792 -0.9211
  243THF     H6 5502   0.742   2.300   3.621  0.1679 -0.4095  0.3571
  243THF     H7 5503   0.822   2.351   3.468 -0.0596 -1.1876  0.1194
  243THF     C8 5504   0.929   2.189   3.570  0.4969  0.4352 -0.2850
  243THF     C9 5505   1.070   2.248   3.607  0.3402  0.6205 -0.1646
  243THF    H10 5506   0.930   2.142   3.472 -1.3747  2.1705 -1.2211
  243THF    H11 5507   0.899   2.117   3.646 -1.4095  1.1609 -0.2869
  243THF    H12 5508   1.098   2.223   3.709 -1.5039  0.7359  0.3979
  243THF    H13 5509   1.149   2.214   3.539  0.3525 -1.2873  0.7256
  244THF     O1 5510   4.470   2.271   5.456 -0.7028  0.0007  0.5231
  244THF     C2 5511   4.353   2.237   5.533  0.2274  0.1925 -0.3220
  244THF     C3 5512   4.432   2.290   5.321 -0.2294  0.0747 -0.6677
  244THF     H4 5513   4.339   2.293   5.625  1.9044 -0.5393  0.4147
  244THF     H5 5514   4.347   2.130   5.555 -0.6402 -0.0978 -1.8239
  244THF     H6 5515   4.508   2.348   5.267 -0.5225 -1.1570 -2.5050
  244THF     H7 5516   4.433   2.188   5.282 -0.9250 -0.8582  1.6228
  244THF     C8 5517   4.292   2.345   5.331 -0.5247 -0.4302  0.0338
  244THF     C9 5518   4.234   2.268   5.447  0.6077  0.0993 -0.4339
  244THF    H10 5519   4.234   2.318   5.243 -0.6488 -0.3586  0.0931
  244THF    H11 5520   4.282   2.452   5.346 -0.1108 -0.5274  1.1532
  244THF    H12 5521   4.161   2.332   5.496 -1.7684 -2.6603 -0.0896
  244THF    H13 5522   4.184   2.182   5.401  0.2510  0.0359  0.0634
  245THF     O1 5523   3.709   2.062   5.494  0.5177 -0.2260  0.5015
  245THF     C2 5524   3.742   1.992   5.371  0.2636 -0.5122  0.1923
  245THF     C3 5525   3.679   2.196   5.466 -0.3811 -0.1949  0.5887
  245THF     H4 5526   3.646   1.967   5.326 -1.4800  2.1783  2.1048
  245THF     H5 5527   3.813   1.911   5.387  0.6263 -0.2859 -0.2808
  245THF     H6 5528   3.574   2.222   5.480 -0.8042 -0.1654 -2.1359
  245THF     H7 5529   3.738   2.264   5.527  0.6898 -1.4024  0.9288
  245THF     C8 5530   3.722   2.215   5.322  0.2883 -0.4057 -0.2344
  245THF     C9 5531   3.811   2.097   5.296 -0.9026 -0.0379  1.2386
  245THF    H10 5532   3.775   2.309   5.310  1.3318 -0.8932  0.3907
  245THF    H11 5533   3.633   2.206   5.259  2.0415  1.6668 -3.2320
  245THF    H12 5534   3.829   2.079   5.190  0.9985 -0.5821  1.6299
  245THF    H13 5535   3.905   2.118   5.345  0.6664 -0.2207 -1.4750
  246THF     O1 5536   4.147   4.720   4.903 -0.8651  0.7395 -0.4820
  246THF     C2 5537   4.279   4.745   4.951  0.2996 -0.0199 -0.2814
  246THF     C3 5538   4.126   4.583   4.928  0.5975  0.1482  0.1863
  246THF     H4 5539   4.278   4.753   5.060 -0.9973 -0.1606 -0.2654
  246THF     H5 5540   4.314   4.839   4.909 -1.0040  1.2875  1.3698
  246THF     H6 5541   4.075   4.581   5.024  0.3814  0.7702  0.0884
  246THF     H7 5542   4.055   4.547   4.853  0.3097  1.1106 -0.0120
  246THF     C8 5543   4.261   4.515   4.924  0.2900  0.4755 -0.5765
  246THF     C9 5544   4.366   4.624   4.921  0.2682  0.4500  0.3841
  246THF    H10 5545   4.278   4.452   4.837 -2.1520  0.2089 -0.9334
  246THF    H11 5546   4.258   4.447   5.009  0.4593  0.7560 -0.3443
  246THF    H12 5547   4.450   4.602   4.986  0.2715  0.1652  0.2811
  246THF    H13 5548   4.407   4.631   4.820  0.9061 -0.3653  0.5796
  247THF     O1 5549   2.968   3.635   4.581  0.1958  0.6892  0.4213
  247THF     C2 5550   2.920   3.570   4.460 -0.2270 -0.5054  0.0391
  247THF     C3 5551   2.866   3.715   4.637  0.0668  0.5305 -0.5437
  247THF     H4 5552   2.971   3.479   4.427  1.1916  0.1600  0.3057
  247THF     H5 5553   2.920   3.639   4.376  2.0787  1.6453  1.6363
  247THF     H6 5554   2.889   3.735   4.742 -1.5296 -2.0631  0.3984
  247THF     H7 5555   2.853   3.813   4.592 -1.1642  0.2761 -0.7591
  247THF     C8 5556   2.748   3.609   4.621 -0.0095 -0.5601 -0.2171
  247THF     C9 5557   2.779   3.523   4.502 -0.6343  0.3267  0.4549
  247THF    H10 5558   2.647   3.651   4.617  0.0322 -0.4459 -0.0777
  247THF    H11 5559   2.764   3.541   4.705  0.5666  0.5531  0.6063
  247THF    H12 5560   2.781   3.415   4.519  0.5684 -0.2291 -2.6267
  247THF    H13 5561   2.707   3.540   4.422  0.8924 -0.2018 -1.0965
  248THF     O1 5562   0.737   5.282   1.529  0.5262 -0.7127 -0.0421
  248THF     C2 5563   0.833   5.198   1.467  0.6641 -0.3804  0.1915
  248THF     C3 5564   0.701   5.225   1.656  0.4386  0.5494  0.8592
  248THF     H4 5565   0.892   5.251   1.392 -0.6354  0.7142 -0.1163
  248THF     H5 5566   0.778   5.114   1.425  0.7473 -0.3318 -0.0123
  248THF     H6 5567   0.648   5.297   1.719 -0.6369  1.2600 -0.7710
  248THF     H7 5568   0.639   5.136   1.643  1.0495  0.5078 -2.9025
  248THF     C8 5569   0.838   5.208   1.703 -0.1995  0.1599 -0.3907
  248THF     C9 5570   0.912   5.147   1.585 -0.5364  0.8605 -0.7309
  248THF    H10 5571   0.839   5.151   1.796 -0.8108  0.3043 -0.2892
  248THF    H11 5572   0.899   5.297   1.720 -0.6366  0.4024 -0.0694
  248THF    H12 5573   1.015   5.177   1.566 -0.7969  1.7566 -0.7599
  248THF    H13 5574   0.911   5.038   1.586  1.8641  0.7777 -1.5199
  249THF     O1 5575   5.127   3.658   3.939 -0.1505 -0.0738 -0.4563
  249THF     C2 5576   5.121   3.643   4.074  0.5258 -0.2167 -0.1475
  249THF     C3 5577   5.029   3.562   3.894  0.2438  0.1207  0.1176
  249THF     H4 5578   5.028   3.688   4.108  1.0555 -0.3434  1.5516
  249THF     H5 5579   5.210   3.678   4.127  0.4889  0.6141 -0.6175
  249THF     H6 5580   4.930   3.594   3.925 -0.8561  0.1932 -3.0594
  249THF     H7 5581   5.029   3.561   3.785 -1.8231  1.9746  0.0258
  249THF     C8 5582   5.071   3.435   3.963  0.2685 -0.5702 -0.1642
  249THF     C9 5583   5.104   3.498   4.098  0.2429  0.1367 -0.5525
  249THF    H10 5584   5.147   3.387   3.901  0.6449 -1.3698  0.8857
  249THF    H11 5585   4.997   3.356   3.973  0.0936 -0.1981  2.2460
  249THF    H12 5586   5.030   3.484   4.177  0.4792  1.6709 -0.0372
  249THF    H13 5587   5.195   3.455   4.140 -1.2993 -1.4196  1.4207
  250THF     O1 5588   4.843   0.974   1.057 -0.1180 -0.4746 -0.2973
  250THF     C2 5589   4.871   0.955   0.917  0.1802 -0.1064 -0.1111
  250THF     C3 5590   4.962   1.038   1.107  0.0483  0.1134 -0.2062
  250THF     H4 5591   4.846   1.048   0.866 -2.7394 -1.3531 -1.1729
  250THF     H5 5592   4.797   0.889   0.870 -1.2802  0.8534  0.7624
  250THF     H6 5593   4.960   1.145   1.087  1.7048  0.2781  0.3178
  250THF     H7 5594   4.964   1.036   1.216  2.1493  0.2078 -0.1966
  250THF     C8 5595   5.081   0.976   1.036 -0.4540  0.5018  0.2387
  250THF     C9 5596   5.011   0.914   0.913 -0.9296  0.9743  0.2009
  250THF    H10 5597   5.113   0.893   1.098  1.6354  0.7293 -0.4547
  250THF    H11 5598   5.160   1.046   1.010 -0.3262 -0.7845 -3.3495
  250THF    H12 5599   5.068   0.938   0.823 -2.4737 -0.8965 -1.3731
  250THF    H13 5600   5.016   0.807   0.929  0.0153  1.2103  1.6412
  251THF     O1 5601   3.754   0.227   0.799  0.7270 -0.1295 -0.3578
  251THF     C2 5602   3.617   0.226   0.854 -0.5943 -0.9137  0.1907
  251THF     C3 5603   3.764   0.352   0.725  0.6320 -0.1263  0.1553
  251THF     H4 5604   3.607   0.208   0.961  0.5165 -0.2764  0.4193
  251THF     H5 5605   3.555   0.149   0.808  0.7255 -1.8971 -0.0050
  251THF     H6 5606   3.867   0.386   0.734  0.1690  1.2521  0.4760
  251THF     H7 5607   3.724   0.335   0.625 -0.1327  1.0274  0.2430
  251THF     C8 5608   3.667   0.450   0.796  0.5547 -0.1371  0.1547
  251THF     C9 5609   3.553   0.361   0.833  0.0978 -0.0931  0.6470
  251THF    H10 5610   3.632   0.540   0.745  0.4210 -0.4879 -0.3837
  251THF    H11 5611   3.706   0.480   0.894 -0.3364 -1.2727  0.8860
  251THF    H12 5612   3.500   0.399   0.920 -0.7812 -0.9754  0.5159
  251THF    H13 5613   3.481   0.346   0.752 -0.6678 -1.6108  1.5712
  252THF     O1 5614   0.366   0.557   0.223  0.5080 -0.2082  0.0384
  252THF     C2 5615   0.246   0.626   0.214  0.1410 -0.1356  0.0001
  252THF     C3 5616   0.353   0.456   0.325 -0.9292 -0.7146  0.5198
  252THF     H4 5617   0.196   0.583   0.127 -1.2341 -1.4787  1.3865
  252THF     H5 5618   0.264   0.734   0.209 -1.3169  0.1993  1.0818
  252THF     H6 5619   0.298   0.377   0.273 -0.7377 -0.3229 -0.3035
  252THF     H7 5620   0.447   0.411   0.356 -0.6919 -3.6971 -3.6084
  252THF     C8 5621   0.256   0.520   0.429 -0.0349  0.1332 -0.2322
  252THF     C9 5622   0.167   0.606   0.337  0.0051  0.9930 -0.5865
  252THF    H10 5623   0.309   0.586   0.498 -1.2282 -0.8704  1.7555
  252THF    H11 5624   0.197   0.447   0.485  0.1229  0.1279 -0.0698
  252THF    H12 5625   0.071   0.556   0.325  0.2606  0.1606  0.7096
  252THF    H13 5626   0.140   0.700   0.386  0.1502  1.1860 -0.8706
  253THF     O1 5627   2.284   4.302   4.599 -0.1145 -0.3277 -0.0047
  253THF     C2 5628   2.330   4.383   4.492 -0.1123 -0.9400 -0.0015
  253THF     C3 5629   2.395   4.277   4.685  0.5987 -0.0534 -0.2812
  253THF     H4 5630   2.332   4.489   4.517 -0.5170 -0.0188 -3.4233
  253THF     H5 5631   2.267   4.372   4.404 -0.7367 -0.0512  0.3229
  253THF     H6 5632   2.404   4.373   4.737  0.6311  0.2545 -0.8490
  253THF     H7 5633   2.382   4.192   4.752  3.3244 -0.1149  0.3050
  253THF     C8 5634   2.511   4.263   4.584 -0.5042 -0.2001  0.1252
  253THF     C9 5635   2.464   4.328   4.452 -1.0952  0.7011  0.3141
  253THF    H10 5636   2.533   4.159   4.560 -0.6624 -0.8162  2.4482
  253THF    H11 5637   2.605   4.311   4.608  0.4892 -0.1384 -3.3411
  253THF    H12 5638   2.530   4.411   4.425  0.4947 -1.1306 -1.7660
  253THF    H13 5639   2.459   4.257   4.370  0.0117 -2.5557  2.8705
  254THF     O1 5640   1.674   2.294   0.120  0.0873 -0.5456 -0.3709
  254THF     C2 5641   1.611   2.169   0.133 -0.6998 -0.1704 -0.9294
  254THF     C3 5642   1.575   2.391   0.087  0.2197 -0.4628 -0.1658
  254THF     H4 5643   1.673   2.102   0.193  0.3114  1.6322  0.1412
  254THF     H5 5644   1.581   2.126   0.037 -0.0893 -2.5071 -0.1291
  254THF     H6 5645   1.613   2.492   0.107  2.0535 -0.8659 -1.3576
  254THF     H7 5646   1.558   2.381  -0.020 -0.0240 -0.2478 -0.1468
  254THF     C8 5647   1.457   2.345   0.177 -0.0645 -0.0635 -0.2923
  254THF     C9 5648   1.477   2.193   0.196  0.3377 -0.8977  0.2760
  254THF    H10 5649   1.359   2.372   0.140 -0.3551  0.4058  0.7886
  254THF    H11 5650   1.473   2.399   0.270 -2.2042 -0.2519  0.2162
  254THF    H12 5651   1.482   2.171   0.303 -0.6778 -0.0038  0.5318
  254THF    H13 5652   1.397   2.133   0.152  0.2210 -1.5157  1.2972
  255THF     O1 5653   4.631   1.244   2.414 -0.3469 -0.0774 -0.3721
  255THF     C2 5654   4.563   1.352   2.348  0.0277  0.5296  0.3866
  255THF     C3 5655   4.643   1.136   2.320 -0.4287 -0.8169  0.0522
  255THF     H4 5656   4.634   1.387   2.274  0.1575 -0.9934 -0.2482
  255THF     H5 5657   4.535   1.426   2.423 -0.7657 -0.0275  0.6518
  255THF     H6 5658   4.728   1.159   2.255 -0.7950 -0.0933 -0.1822
  255THF     H7 5659   4.659   1.044   2.377 -0.9309 -1.3327 -0.6171
  255THF     C8 5660   4.509   1.141   2.247 -0.2569 -0.2667  0.4105
  255THF     C9 5661   4.448   1.279   2.285  0.1321 -0.4052 -0.6741
  255THF    H10 5662   4.446   1.065   2.294 -0.3320  0.9121  2.3074
  255THF    H11 5663   4.515   1.120   2.140 -0.1266 -1.5908  0.6504
  255THF    H12 5664   4.406   1.321   2.193 -0.6444  1.5731  0.5155
  255THF    H13 5665   4.375   1.265   2.364 -2.3127  2.0684 -2.3103
  256THF     O1 5666   0.642   0.062   2.463  0.3535  0.4342 -0.4770
  256THF     C2 5667   0.513   0.056   2.410 -0.1069  0.4064  0.2732
  256THF     C3 5668   0.624   0.078   2.605 -0.0219  0.0544  0.3896
  256THF     H4 5669   0.464  -0.042   2.409  1.1198 -0.2192 -1.0441
  256THF     H5 5670   0.533   0.088   2.308 -0.1483  0.4384  0.2752
  256THF     H6 5671   0.611  -0.008   2.670  1.2125  0.6197  1.4280
  256THF     H7 5672   0.714   0.132   2.637  1.5190 -1.7914 -0.6034
  256THF     C8 5673   0.491   0.152   2.630  0.3766  0.6603  0.5417
  256THF     C9 5674   0.421   0.144   2.492 -0.0648  0.1632 -0.6327
  256THF    H10 5675   0.503   0.253   2.669  0.1811  0.6736  0.5668
  256THF    H11 5676   0.435   0.103   2.709 -0.3290  1.6306  0.6593
  256THF    H12 5677   0.315   0.121   2.499 -0.0188  0.0105 -0.4279
  256THF    H13 5678   0.418   0.246   2.453  0.3132  1.6640  2.8409
  257THF     O1 5679   5.125   0.524   3.290  0.2049  0.3665  0.4666
  257THF     C2 5680   5.108   0.643   3.210 -0.6044 -0.4740  0.0524
  257THF     C3 5681   5.041   0.424   3.231 -0.2747  0.0789 -0.4093
  257THF     H4 5682   5.195   0.709   3.215  0.5004 -1.8889  0.2693
  257THF     H5 5683   5.023   0.709   3.226  0.5997  1.2159 -0.2196
  257THF     H6 5684   5.075   0.323   3.252 -1.0101 -0.7757 -2.9818
  257THF     H7 5685   4.935   0.427   3.254 -0.5251 -2.2508 -1.1118
  257THF     C8 5686   5.060   0.450   3.074 -0.6617 -0.0292 -0.5518
  257THF     C9 5687   5.089   0.594   3.067 -0.0729  0.0692  0.1907
  257THF    H10 5688   4.966   0.425   3.024 -0.5319 -2.6846  0.3389
  257THF    H11 5689   5.140   0.385   3.038 -0.4592 -0.6769  0.9782
  257THF    H12 5690   5.184   0.604   3.014  0.0289  0.8557  0.5064
  257THF    H13 5691   5.021   0.651   3.003  1.5280  0.0593 -1.6244
  258THF     O1 5692   0.094   5.036   0.566  0.2982  0.1197 -0.7619
  258THF     C2 5693   0.079   4.968   0.693  0.4921  0.1249 -0.1813
  258THF     C3 5694   0.068   5.176   0.581 -0.2538 -0.3976  0.3979
  258THF     H4 5695   0.178   4.966   0.740  0.2119  0.4400  0.4260
  258THF     H5 5696   0.058   4.861   0.688  1.0233 -0.0100  0.3372
  258THF     H6 5697   0.155   5.239   0.565  0.7930 -2.3880 -2.4771
  258THF     H7 5698  -0.008   5.201   0.508 -0.7182  1.7455  1.5275
  258THF     C8 5699   0.011   5.187   0.722  0.1636 -0.0101  0.2035
  258THF     C9 5700  -0.028   5.050   0.763 -0.6945  1.0141  0.0262
  258THF    H10 5701  -0.066   5.262   0.739 -2.8261 -2.8802  0.1267
  258THF    H11 5702   0.092   5.225   0.786 -1.2090 -0.2296  2.1504
  258THF    H12 5703  -0.018   5.041   0.871  1.5498  0.7221 -0.1539
  258THF    H13 5704  -0.130   5.027   0.734 -0.7424 -0.6139  1.3174
  259THF     O1 5705   3.986   3.882   3.672 -0.0901  0.8559 -0.0343
  259THF     C2 5706   3.994   3.978   3.785 -0.7428  0.4721 -0.0355
  259THF     C3 5707   3.990   3.761   3.737 -0.3573  0.2209 -0.3126
  259THF     H4 5708   3.897   3.972   3.834 -0.8903  2.8712  0.0807
  259THF     H5 5709   4.016   4.078   3.748 -1.4020 -0.5598 -3.6315
  259THF     H6 5710   3.889   3.724   3.751 -0.7312  1.1537 -0.5439
  259THF     H7 5711   4.035   3.689   3.667  1.2899  1.4544 -0.5944
  259THF     C8 5712   4.069   3.772   3.868 -0.4733  0.7843  0.3298
  259THF     C9 5713   4.101   3.919   3.885 -0.0897 -0.1232 -0.1562
  259THF    H10 5714   4.159   3.711   3.878 -0.8076  0.1335 -0.6013
  259THF    H11 5715   4.001   3.745   3.948  0.3602  1.0012  1.1361
  259THF    H12 5716   4.073   3.958   3.984  1.6935  0.6739  0.0635
  259THF    H13 5717   4.201   3.951   3.859 -0.1875 -0.7735 -1.3710
  260THF     O1 5718   1.505   4.971   2.125 -0.1292  0.2207  0.3105
  260THF     C2 5719   1.583   5.048   2.208  0.3508 -0.2008 -0.2327
  260THF     C3 5720   1.380   5.029   2.116  0.1554 -0.0418  0.4350
  260THF     H4 5721   1.610   5.137   2.152  0.0329 -0.2819 -0.5216
  260THF     H5 5722   1.679   5.006   2.237  0.5337 -0.0235 -0.5845
  260THF     H6 5723   1.398   5.127   2.073  2.1037 -0.8268 -0.6465
  260THF     H7 5724   1.308   4.970   2.061 -0.6483  1.4471 -0.1709
  260THF     C8 5725   1.345   5.047   2.264  0.3500 -0.7702  0.1375
  260THF     C9 5726   1.477   5.089   2.320 -0.4638  0.2858 -0.7266
  260THF    H10 5727   1.309   4.956   2.311  0.2144 -0.5578  0.4415
  260THF    H11 5728   1.267   5.121   2.279 -0.4569 -1.0509 -2.2063
  260THF    H12 5729   1.469   5.194   2.346 -0.5000 -0.4255  2.6673
  260THF    H13 5730   1.496   5.047   2.419  1.3204  3.0071  0.1963
  261THF     O1 5731   1.154   5.039   0.207 -0.0602  0.4471 -0.0219
  261THF     C2 5732   1.283   4.975   0.193 -0.6598  0.4982 -0.3269
  261THF     C3 5733   1.144   5.142   0.113  0.4255 -0.6619  1.7087
  261THF     H4 5734   1.273   4.873   0.228 -0.9611  0.8937  0.7985
  261THF     H5 5735   1.362   5.020   0.255 -0.3499  0.8180 -0.9403
  261THF     H6 5736   1.038   5.156   0.092  0.7911  0.3506  0.3869
  261THF     H7 5737   1.188   5.234   0.151  1.5326 -0.6521  0.4768
  261THF     C8 5738   1.224   5.089  -0.015  0.1293  0.8615 -0.6753
  261THF     C9 5739   1.316   4.984   0.042  0.3083 -0.7768 -0.4426
  261THF    H10 5740   1.295   5.162  -0.055  1.6304 -1.6882 -3.0742
  261THF    H11 5741   1.164   5.038  -0.090  0.7859 -1.9494  0.5415
  261THF    H12 5742   1.308   4.887  -0.008 -1.8744 -0.9893  0.2000
  261THF    H13 5743   1.420   5.009   0.026  1.0394 -1.0887  3.0952
  262THF     O1 5744   1.138   3.947   0.949  0.5932  0.3342 -0.1685
  262THF     C2 5745   1.011   3.935   1.020  0.1751 -0.3104  0.4433
  262THF     C3 5746   1.168   3.817   0.893 -0.4217 -0.4730 -0.7210
  262THF     H4 5747   0.953   4.028   1.016 -0.0449 -0.4362  0.6630
  262THF     H5 5748   1.035   3.920   1.125 -0.6660  0.3751  0.7517
  262THF     H6 5749   1.199   3.827   0.788 -0.1218  0.5043 -0.5474
  262THF     H7 5750   1.251   3.769   0.945 -0.3674  0.0573 -0.3234
  262THF     C8 5751   1.046   3.726   0.911 -0.2618 -0.8010 -0.1335
  262THF     C9 5752   0.938   3.821   0.954 -0.6836 -0.2033 -0.3147
  262THF    H10 5753   1.074   3.642   0.976  2.7772  0.9391  1.0503
  262THF    H11 5754   1.013   3.689   0.815  1.4389  1.7498 -1.8249
  262THF    H12 5755   0.884   3.865   0.870 -0.9411 -0.1201 -0.1082
  262THF    H13 5756   0.873   3.769   1.025  1.5598  0.7588  2.6983
  263THF     O1 5757   4.554   5.076   3.316 -0.0683 -0.3834  0.2140
  263THF     C2 5758   4.454   5.025   3.240 -0.1717 -0.4436 -0.5407
  263THF     C3 5759   4.516   5.086   3.450 -0.1710 -0.0792  0.2503
  263THF     H4 5760   4.501   4.975   3.155 -2.0569 -2.8214 -0.2874
  263THF     H5 5761   4.382   5.096   3.200  0.2355 -0.3151 -1.0556
  263THF     H6 5762   4.607   5.093   3.510  0.0667  1.2551 -0.2349
  263THF     H7 5763   4.478   5.188   3.454  3.2637  1.5316 -2.5679
  263THF     C8 5764   4.418   4.980   3.477  0.5632  0.5116 -0.0975
  263THF     C9 5765   4.390   4.931   3.342  1.0105  0.3661  0.2143
  263THF    H10 5766   4.332   5.016   3.534  0.2779  0.3461 -0.4181
  263THF    H11 5767   4.456   4.892   3.529 -2.0384 -0.4034  0.4240
  263THF    H12 5768   4.433   4.832   3.329  1.0557  0.3243  0.6787
  263THF    H13 5769   4.282   4.920   3.325  0.2953  0.3378  3.8989
  264THF     O1 5770   0.927   0.140   1.693 -0.0988  0.2363  0.2770
  264THF     C2 5771   0.919   0.274   1.639 -0.2025 -0.4928  0.9158
  264THF     C3 5772   0.977   0.045   1.598 -0.1823  0.2467 -0.1658
  264THF     H4 5773   0.971   0.343   1.705 -1.4990 -0.2859  1.7435
  264THF     H5 5774   0.816   0.303   1.620  0.1956 -0.0719 -0.7987
  264THF     H6 5775   1.036  -0.026   1.657 -0.7260  0.6719  0.9281
  264THF     H7 5776   0.893  -0.011   1.555 -0.6564 -0.1667  1.2308
  264THF     C8 5777   1.056   0.122   1.497 -0.1065 -0.2538 -0.4791
  264THF     C9 5778   0.981   0.258   1.495 -0.2263  0.1164 -0.3877
  264THF    H10 5779   1.047   0.064   1.405  1.2396 -0.5711 -0.4300
  264THF    H11 5780   1.161   0.126   1.524 -0.6725  0.3988  1.8785
  264THF    H12 5781   1.054   0.336   1.475 -1.5877  1.5546  0.0905
  264THF    H13 5782   0.908   0.265   1.415 -0.3768  2.2797 -0.1270
  265THF     O1 5783   4.907   5.353   2.947  0.1127  0.0417  0.5339
  265THF     C2 5784   4.853   5.342   2.817  0.4235  0.7086  0.7856
  265THF     C3 5785   4.905   5.229   3.004  0.5239 -0.4690  0.3253
  265THF     H4 5786   4.929   5.300   2.751 -1.2385  2.5066 -2.4862
  265THF     H5 5787   4.822   5.436   2.773 -0.2283  0.8562  1.5348
  265THF     H6 5788   4.993   5.175   2.969  1.4707  0.2438  1.5129
  265THF     H7 5789   4.916   5.253   3.110  0.7426  0.3089  0.1288
  265THF     C8 5790   4.771   5.170   2.957  0.3000  0.3517 -0.4207
  265THF     C9 5791   4.730   5.259   2.842 -0.2732  0.1857 -0.1911
  265THF    H10 5792   4.696   5.165   3.035 -0.4106  0.9771 -1.0432
  265THF    H11 5793   4.787   5.066   2.929 -0.5796 -0.0214  0.4236
  265THF    H12 5794   4.705   5.190   2.761  3.2289 -0.2974 -1.0299
  265THF    H13 5795   4.647   5.328   2.857 -2.0485 -1.6224 -1.2770
  266THF     O1 5796   2.901   2.968   0.537 -0.2562 -0.6123 -0.0428
  266THF     C2 5797   2.933   2.840   0.491 -0.3683 -0.0882 -0.2753
  266THF     C3 5798   2.840   2.954   0.670  0.0369 -0.2003 -0.3678
  266THF     H4 5799   3.014   2.843   0.419 -0.4339  1.3823 -0.3207
  266THF     H5 5800   2.841   2.807   0.442 -1.0110  2.1708 -0.6812
  266THF     H6 5801   2.834   3.049   0.723 -2.9299  0.4307 -1.6546
  266THF     H7 5802   2.739   2.920   0.649  0.3078 -2.2387  1.2328
  266THF     C8 5803   2.929   2.850   0.728 -0.3796 -0.2288  0.2426
  266THF     C9 5804   2.968   2.758   0.613 -0.3240 -0.1798  0.1745
  266THF    H10 5805   2.874   2.797   0.806  0.9402  0.1376  1.4748
  266THF    H11 5806   3.023   2.891   0.766 -0.0307 -1.2894  0.5556
  266THF    H12 5807   3.075   2.741   0.598  0.0580  1.9090  0.2068
  266THF    H13 5808   2.919   2.661   0.610 -1.8667  0.4785  2.3265
  267THF     O1 5809   3.700   3.777   4.086 -0.4623  0.5878 -0.4125
  267THF     C2 5810   3.677   3.809   4.220  0.6337  0.9067 -0.2310
  267THF     C3 5811   3.677   3.890   4.008  0.3238  0.6997  0.1479
  267THF     H4 5812   3.773   3.834   4.265 -0.0906  1.6211  0.9696
  267THF     H5 5813   3.633   3.721   4.266  0.3973  1.1352 -0.0150
  267THF     H6 5814   3.756   3.961   4.030  0.8870  0.8425 -2.1347
  267THF     H7 5815   3.677   3.871   3.901 -2.7317 -0.8522  0.3006
  267THF     C8 5816   3.555   3.947   4.063  0.7938 -0.4847 -0.2569
  267THF     C9 5817   3.578   3.931   4.209  0.4437 -0.1654  0.7003
  267THF    H10 5818   3.470   3.895   4.018 -0.0259  1.2351 -0.7865
  267THF    H11 5819   3.552   4.052   4.037  1.8488 -0.5171 -0.5654
  267THF    H12 5820   3.619   4.021   4.254  1.7360 -1.4143  2.1482
  267THF    H13 5821   3.483   3.918   4.262 -0.6540  0.8938 -0.9297
  268THF     O1 5822   1.355   0.982   3.195  0.1606  0.0467 -0.5140
  268THF     C2 5823   1.385   1.031   3.325 -0.7701  0.1748  1.1750
  268THF     C3 5824   1.331   1.099   3.112  0.1229 -0.1838 -0.2592
  268THF     H4 5825   1.406   0.956   3.401 -2.7668  2.2504  3.9813
  268THF     H5 5826   1.305   1.094   3.362 -0.6185  2.1212 -1.5316
  268THF     H6 5827   1.321   1.063   3.009 -0.2746  2.0204 -1.0504
  268THF     H7 5828   1.242   1.153   3.143 -0.8892 -0.9329 -1.7232
  268THF     C8 5829   1.454   1.172   3.142 -0.0792  0.6343 -0.2960
  268THF     C9 5830   1.505   1.111   3.273  0.2494 -0.1215 -0.0833
  268THF    H10 5831   1.434   1.278   3.154  0.1685  0.7284 -0.7218
  268THF    H11 5832   1.529   1.162   3.064  0.9047 -2.0860  0.8714
  268THF    H12 5833   1.593   1.048   3.267  0.4519 -0.1448  2.2168
  268THF    H13 5834   1.530   1.188   3.346  1.4556 -1.1918  0.6713
  269THF     O1 5835   4.776   5.465   3.934 -0.0077  0.3754  0.0335
  269THF     C2 5836   4.778   5.492   4.074 -0.9485 -0.0802  0.1724
  269THF     C3 5837   4.774   5.325   3.922  0.5666 -0.3884  0.3027
  269THF     H4 5838   4.753   5.593   4.103 -0.7486 -0.2639  0.9932
  269THF     H5 5839   4.877   5.464   4.111 -1.8078  0.1935  2.8053
  269THF     H6 5840   4.744   5.303   3.819  1.5329  0.7105 -0.2350
  269THF     H7 5841   4.869   5.280   3.948 -0.1780 -1.2520  1.6782
  269THF     C8 5842   4.666   5.287   4.025 -1.1023 -0.3080 -0.3424
  269THF     C9 5843   4.676   5.397   4.130 -0.1676 -0.5189 -0.0314
  269THF    H10 5844   4.677   5.187   4.068  1.3199  0.2699  0.5939
  269THF    H11 5845   4.573   5.285   3.969  0.6618 -1.1246 -3.5163
  269THF    H12 5846   4.576   5.442   4.136 -0.0076 -0.3181  2.3969
  269THF    H13 5847   4.702   5.371   4.233 -1.4554 -0.1860  0.4076
  270THF     O1 5848   1.052   1.828   0.682  0.1887  0.7347  0.3066
  270THF     C2 5849   1.134   1.873   0.785  0.2096  0.2817  0.1543
  270THF     C3 5850   1.089   1.883   0.558  0.1458 -0.1271 -0.0107
  270THF     H4 5851   1.211   1.797   0.797  0.6847  0.7883  0.3559
  270THF     H5 5852   1.085   1.885   0.882 -3.2457  1.5589 -1.5799
  270THF     H6 5853   1.166   1.817   0.518 -1.7239 -3.0111  0.8593
  270THF     H7 5854   1.002   1.878   0.493  0.5324 -0.8692 -0.4987
  270THF     C8 5855   1.131   2.028   0.598  0.8058  0.1546  0.0962
  270THF     C9 5856   1.194   2.006   0.731  0.4864 -0.3056 -0.7091
  270THF    H10 5857   1.034   2.075   0.617  0.1663 -0.9447 -0.3052
  270THF    H11 5858   1.194   2.070   0.520  0.3876  0.0312 -0.3196
  270THF    H12 5859   1.303   2.006   0.724  0.4106 -1.1725 -2.9502
  270THF    H13 5860   1.159   2.090   0.790 -0.3482 -1.4440  0.4587
  271THF     O1 5861   3.838   1.590   5.287  0.0283  0.0728  0.4591
  271THF     C2 5862   3.927   1.679   5.231  0.4954 -0.0097  0.1101
  271THF     C3 5863   3.767   1.532   5.181 -0.0930 -0.5983  0.1143
  271THF     H4 5864   4.024   1.630   5.231  0.4524 -0.1205  1.0877
  271THF     H5 5865   3.952   1.768   5.289 -0.9126  1.1117 -0.9316
  271THF     H6 5866   3.831   1.455   5.138 -0.6081 -0.4191 -1.0044
  271THF     H7 5867   3.672   1.486   5.207 -1.3551  1.0032 -1.3547
  271THF     C8 5868   3.744   1.647   5.086 -0.1904 -0.5903  0.8461
  271THF     C9 5869   3.875   1.718   5.094  0.3743  0.6811 -0.1643
  271THF    H10 5870   3.664   1.716   5.118 -0.6197 -0.5174 -0.3393
  271THF    H11 5871   3.721   1.611   4.986  0.3286 -0.5275  0.7033
  271THF    H12 5872   3.941   1.674   5.020  0.7546  2.4056 -0.9217
  271THF    H13 5873   3.868   1.825   5.072  3.1849  0.7223 -1.2612
  272THF     O1 5874   2.084   2.958   1.317 -0.2915 -0.1254  0.6254
  272THF     C2 5875   2.184   2.883   1.249 -0.6338  0.4208  0.2997
  272THF     C3 5876   2.030   3.047   1.218  0.4100  0.2708 -0.2932
  272THF     H4 5877   2.210   2.792   1.303 -2.8143  0.1670  1.0052
  272THF     H5 5878   2.257   2.964   1.247 -2.0523  1.8938  2.6745
  272THF     H6 5879   1.927   3.068   1.248  0.8793  1.6236  0.4234
  272THF     H7 5880   2.077   3.144   1.204 -0.9614  1.2563  1.4105
  272THF     C8 5881   2.032   2.965   1.085  0.8095 -0.8235 -0.3359
  272THF     C9 5882   2.139   2.859   1.106 -0.1455 -0.3267 -0.2390
  272THF    H10 5883   2.033   3.022   0.992 -2.3333  2.0551  1.1511
  272THF    H11 5884   1.938   2.911   1.079  1.0729 -1.1991 -1.2752
  272THF    H12 5885   2.092   2.764   1.083  1.9807 -1.3897 -0.4769
  272THF    H13 5886   2.229   2.863   1.043  1.4595 -3.4022  1.6100
  273THF     O1 5887   2.504   1.299   0.323  0.3805  0.4936  0.3029
  273THF     C2 5888   2.460   1.201   0.422  0.4914  0.2997  0.0750
  273THF     C3 5889   2.472   1.249   0.194 -0.1379  0.8049  0.3531
  273THF     H4 5890   2.416   1.247   0.510 -2.8451  1.0707 -1.8226
  273THF     H5 5891   2.537   1.125   0.438 -0.7618 -1.2809 -1.0163
  273THF     H6 5892   2.478   1.329   0.120 -0.9350 -1.4396 -2.3045
  273THF     H7 5893   2.541   1.173   0.158 -1.5492  0.4300 -1.7222
  273THF     C8 5894   2.327   1.196   0.225 -0.0862 -0.1365 -0.7093
  273THF     C9 5895   2.349   1.111   0.353 -0.3446 -0.1549 -0.4659
  273THF    H10 5896   2.285   1.135   0.145  0.5994 -1.3138 -0.2083
  273THF    H11 5897   2.272   1.288   0.246 -0.7135 -0.6703  0.0387
  273THF    H12 5898   2.264   1.083   0.415  2.0192 -2.1167  2.1496
  273THF    H13 5899   2.394   1.017   0.323  0.4441  0.4960 -1.4077
  274THF     O1 5900   2.387   1.135   1.188  0.0950  0.3744  0.1982
  274THF     C2 5901   2.442   1.128   1.058 -0.5226 -0.2858 -0.6833
  274THF     C3 5902   2.505   1.114   1.273 -0.3302 -0.0356 -0.1266
  274THF     H4 5903   2.376   1.179   0.988 -0.9455  1.0765  0.6277
  274THF     H5 5904   2.458   1.023   1.037  0.9048 -1.3855  4.5283
  274THF     H6 5905   2.484   1.166   1.367 -1.5713 -1.5347  0.4828
  274THF     H7 5906   2.511   1.009   1.302 -0.7533  0.4815  2.0804
  274THF     C8 5907   2.636   1.152   1.200  0.3115 -0.4460  0.6278
  274THF     C9 5908   2.574   1.190   1.070 -0.3605 -0.1199  0.0948
  274THF    H10 5909   2.706   1.069   1.186  0.1565 -0.5478  0.4414
  274THF    H11 5910   2.688   1.238   1.239 -0.1845 -0.0937  0.5222
  274THF    H12 5911   2.560   1.297   1.055 -1.7490 -0.4685 -1.4508
  274THF    H13 5912   2.643   1.165   0.989  0.1302  0.9484  0.1647
  275THF     O1 5913   2.326   1.544   2.738  0.4359 -0.0232  0.5728
  275THF     C2 5914   2.440   1.525   2.649  0.2552  0.3360 -0.5104
  275THF     C3 5915   2.239   1.439   2.718 -0.4617 -0.3578  0.2938
  275THF     H4 5916   2.517   1.464   2.698 -0.6852 -0.4837 -0.0101
  275THF     H5 5917   2.482   1.625   2.635  0.4111  0.6728  1.9118
  275THF     H6 5918   2.277   1.346   2.761 -0.7624 -0.2630  0.7718
  275THF     H7 5919   2.144   1.463   2.766 -1.4508 -2.5109 -0.4760
  275THF     C8 5920   2.243   1.425   2.563  1.0335 -0.7358  0.7803
  275THF     C9 5921   2.387   1.457   2.527  0.3949  0.1942  0.2531
  275THF    H10 5922   2.179   1.502   2.521  1.8211  0.5396  1.8492
  275THF    H11 5923   2.206   1.327   2.532 -0.7456 -0.1114  0.8453
  275THF    H12 5924   2.437   1.364   2.498 -1.0247 -0.0093 -1.8090
  275THF    H13 5925   2.386   1.522   2.439 -1.3549  0.3273  0.3387
  276THF     O1 5926   2.580   4.840   0.007  0.4067 -0.0607 -0.1728
  276THF     C2 5927   2.621   4.710   0.027  0.3564  0.0482 -0.5386
  276THF     C3 5928   2.673   4.908  -0.073 -0.0162 -0.0659  0.1545
  276THF     H4 5929   2.599   4.650  -0.062 -2.3758  1.6361 -1.0507
  276THF     H5 5930   2.579   4.666   0.117  0.1326  2.3501  0.5486
  276THF     H6 5931   2.639   4.900  -0.176  0.2740 -3.7688  0.1850
  276THF     H7 5932   2.675   5.009  -0.032 -1.3720  0.4533 -0.9624
  276THF     C8 5933   2.804   4.831  -0.058  0.1588  0.2284  0.2184
  276THF     C9 5934   2.770   4.731   0.050 -0.3953  0.3833 -0.3857
  276THF    H10 5935   2.888   4.894  -0.028  0.3983 -1.0634  2.4790
  276THF    H11 5936   2.841   4.777  -0.145  1.7208 -0.8272  1.4853
  276THF    H12 5937   2.830   4.644   0.024 -1.2287  0.3568 -2.4542
  276THF    H13 5938   2.789   4.763   0.152 -0.6401 -0.1321 -0.1804
  277THF     O1 5939   4.873   0.661   5.461 -0.2100 -0.3081  0.0021
  277THF     C2 5940   4.804   0.575   5.548 -0.0311  0.4069  0.2594
  277THF     C3 5941   4.982   0.719   5.528  0.1649  0.0906 -0.0762
  277THF     H4 5942   4.847   0.475   5.536  0.0146  0.4631 -0.0694
  277THF     H5 5943   4.707   0.553   5.504  0.4305 -0.5480 -0.3200
  277THF     H6 5944   5.051   0.635   5.533 -2.8367 -2.6962 -1.0748
  277THF     H7 5945   5.023   0.797   5.464  2.6649 -2.3139 -1.6268
  277THF     C8 5946   4.915   0.754   5.656  0.5321 -0.1867  0.3206
  277THF     C9 5947   4.822   0.634   5.692 -0.1316  0.3024 -0.0192
  277THF    H10 5948   4.855   0.844   5.649 -1.2022 -1.4145 -1.8068
  277THF    H11 5949   4.990   0.755   5.735  0.4428  2.2865  0.4411
  277THF    H12 5950   4.885   0.564   5.746  0.0164  0.0355 -0.5269
  277THF    H13 5951   4.731   0.639   5.752 -0.0952 -0.5238  0.1275
  278THF     O1 5952   3.112   2.741   2.165 -0.1246  0.3491  0.0828
  278THF     C2 5953   3.122   2.864   2.230  0.1173  0.3079  0.2953
  278THF     C3 5954   3.230   2.713   2.090  0.0138 -0.2046  0.3913
  278THF     H4 5955   3.177   2.842   2.322 -0.9359 -0.4869  0.7544
  278THF     H5 5956   3.027   2.907   2.261 -1.5524 -1.4492 -2.0089
  278THF     H6 5957   3.314   2.693   2.157 -1.2077 -0.3090  1.9465
  278THF     H7 5958   3.228   2.623   2.029 -1.0880  0.8628 -1.2378
  278THF     C8 5959   3.246   2.848   2.024 -0.1954 -0.7125 -0.1138
  278THF     C9 5960   3.202   2.952   2.130  0.1212  0.1450 -0.4392
  278THF    H10 5961   3.179   2.851   1.938  2.5060  1.2801 -2.3544
  278THF    H11 5962   3.342   2.879   1.983 -0.0099  1.5124  1.7920
  278THF    H12 5963   3.284   3.008   2.175 -0.5374  2.0346 -1.4628
  278THF    H13 5964   3.136   3.031   2.094 -0.9677 -1.2343 -1.6045
  279THF     O1 5965   5.428   5.292   1.190 -0.3427  0.4401  0.2499
  279THF     C2 5966   5.414   5.386   1.296  0.1441  0.2093  0.1622
  279THF     C3 5967   5.557   5.322   1.125  0.0531  0.0865 -0.0567
  279THF     H4 5968   5.465   5.354   1.387  1.7766  0.0716 -0.7516
  279THF     H5 5969   5.309   5.405   1.319  0.2263  1.2937 -0.3093
  279THF     H6 5970   5.632   5.291   1.198 -0.3831 -2.4425 -0.6022
  279THF     H7 5971   5.570   5.266   1.033  1.6945  0.5469 -0.1544
  279THF     C8 5972   5.558   5.475   1.116  0.2622  0.0286 -0.0548
  279THF     C9 5973   5.482   5.513   1.245  0.7198  0.5906 -0.1025
  279THF    H10 5974   5.507   5.507   1.026 -0.2284 -0.3635  0.0800
  279THF    H11 5975   5.659   5.517   1.113  0.9361 -1.1554  2.5549
  279THF    H12 5976   5.545   5.544   1.328 -1.1745 -1.6285  2.3208
  279THF    H13 5977   5.410   5.593   1.230 -0.2655  0.0323  1.4748
  280THF     O1 5978   1.068   3.456   5.245  0.4990  0.2300  0.0667
  280THF     C2 5979   0.981   3.546   5.179 -0.2034  0.3342 -0.3302
  280THF     C3 5980   0.998   3.347   5.303  0.0794 -0.0625  0.4399
  280THF     H4 5981   1.040   3.603   5.107  2.1671 -0.7376  0.6515
  280THF     H5 5982   0.921   3.600   5.252 -1.3679 -2.1576  0.6716
  280THF     H6 5983   1.056   3.255   5.314 -0.2348 -0.4333 -0.8398
  280THF     H7 5984   0.984   3.367   5.409 -1.6124 -0.4209  0.3077
  280THF     C8 5985   0.862   3.335   5.230 -0.3344 -0.0973 -0.0358
  280THF     C9 5986   0.885   3.442   5.122  0.2513 -0.5266  0.4087
  280THF    H10 5987   0.776   3.351   5.294  1.1257  1.0427  1.7568
  280THF    H11 5988   0.861   3.240   5.178  0.9012 -0.5569  0.7317
  280THF    H12 5989   0.931   3.398   5.034  0.5542 -2.8245  1.6467
  280THF    H13 5990   0.784   3.478   5.104  0.3189 -0.1311  0.7966
  281THF     O1 5991   4.041   3.692   2.512  0.6824  0.2962  0.4212
  281THF     C2 5992   3.988   3.669   2.376  0.2834  0.2729 -0.4661
  281THF     C3 5993   4.132   3.591   2.546  0.6508  0.2560 -0.4602
  281THF     H4 5994   3.999   3.766   2.328  3.2904 -0.5411 -1.6602
  281THF     H5 5995   3.883   3.641   2.368  0.7383 -1.6330 -0.2953
  281THF     H6 5996   4.195   3.618   2.631  1.2726 -0.3475 -0.7136
  281THF     H7 5997   4.083   3.497   2.572 -0.2412  0.9949  0.6242
  281THF     C8 5998   4.213   3.572   2.426  1.2649 -0.0721  0.1887
  281THF     C9 5999   4.100   3.580   2.322  0.2149 -0.1748  0.3455
  281THF    H10 6000   4.262   3.474   2.422 -2.1648 -1.8897 -1.9908
  281THF    H11 6001   4.287   3.652   2.423 -0.8194  2.0631  1.5829
  281THF    H12 6002   4.141   3.616   2.228 -1.3174 -2.0169 -1.1031
  281THF    H13 6003   4.077   3.477   2.293  0.4340 -0.5588  1.4924
  282THF     O1 6004   5.313   2.715   2.075 -0.0466  0.2968 -0.0517
  282THF     C2 6005   5.322   2.618   1.969 -0.0572 -0.2497  0.5916
  282THF     C3 6006   5.256   2.824   2.005  0.1153  0.0242  0.6925
  282THF     H4 6007   5.321   2.519   2.015 -0.3511 -0.2848  0.5121
  282THF     H5 6008   5.415   2.630   1.914  1.4308 -1.1078  2.7900
  282THF     H6 6009   5.200   2.901   2.058 -2.4883 -1.1297 -0.2050
  282THF     H7 6010   5.338   2.858   1.942 -0.5692  0.4053 -0.0187
  282THF     C8 6011   5.149   2.765   1.917  0.3603  0.5659 -0.4590
  282THF     C9 6012   5.193   2.630   1.895  0.6328  0.8179  0.1239
  282THF    H10 6013   5.138   2.818   1.822 -4.5997 -1.1023 -1.0797
  282THF    H11 6014   5.052   2.772   1.967 -0.1309  0.0185 -1.3123
  282THF    H12 6015   5.124   2.553   1.930  1.2299  0.7188  1.1082
  282THF    H13 6016   5.200   2.608   1.788 -2.8195  4.1375 -1.0546
  283THF     O1 6017   4.684   0.270   0.170  0.0502  0.4520  0.3373
  283THF     C2 6018   4.552   0.324   0.164 -0.0732 -0.3258 -0.2386
  283THF     C3 6019   4.669   0.133   0.119 -0.1041 -0.4445  0.4536
  283THF     H4 6020   4.544   0.432   0.176 -1.8386 -0.5968  1.6735
  283THF     H5 6021   4.503   0.273   0.247  1.6024 -1.2995  0.2074
  283THF     H6 6022   4.768   0.096   0.092  0.1527 -0.8165  1.8374
  283THF     H7 6023   4.631   0.069   0.199 -1.2586  0.4652  0.6660
  283THF     C8 6024   4.575   0.147  -0.001  0.0889  0.9049 -0.3881
  283THF     C9 6025   4.502   0.274   0.028  1.0141  0.2111 -0.7238
  283THF    H10 6026   4.509   0.061   0.012  3.0176 -1.5295 -0.4361
  283THF    H11 6027   4.631   0.147  -0.094  0.0515  0.8339 -0.4107
  283THF    H12 6028   4.530   0.349  -0.046 -0.7770 -0.7639 -2.4767
  283THF    H13 6029   4.394   0.261   0.028  1.0552 -1.4842 -4.6784
  284THF     O1 6030   0.987   0.786   3.400 -0.0229  0.3917  0.0549
  284THF     C2 6031   1.058   0.830   3.285 -0.0380  0.0473 -0.6106
  284THF     C3 6032   0.851   0.813   3.383  0.3781  0.1870  0.4116
  284THF     H4 6033   1.056   0.742   3.220  1.5577 -3.1263  3.1675
  284THF     H5 6034   1.162   0.850   3.308 -0.5097  1.1599  0.6521
  284THF     H6 6035   0.795   0.729   3.342  0.8261  0.5798 -1.0960
  284THF     H7 6036   0.810   0.835   3.481  1.0824  1.3284  0.4660
  284THF     C8 6037   0.842   0.938   3.291 -0.3930 -0.3038  0.0216
  284THF     C9 6038   0.990   0.957   3.238 -0.3089 -0.4839 -0.1478
  284THF    H10 6039   0.809   1.023   3.351 -0.5494  0.7782 -1.5370
  284THF    H11 6040   0.767   0.923   3.213 -0.4752 -2.0517  0.3968
  284THF    H12 6041   0.999   0.982   3.132 -1.5460 -1.7637 -0.5941
  284THF    H13 6042   1.025   1.044   3.293  0.1554 -1.4620  1.1405
  285THF     O1 6043   0.130   3.708   5.356 -0.2095  0.0666  0.0738
  285THF     C2 6044   0.210   3.810   5.419 -0.1100  0.5115 -0.6196
  285THF     C3 6045   0.010   3.686   5.422  0.2058  0.5073 -0.7902
  285THF     H4 6046   0.203   3.905   5.367  0.9282  0.0950 -1.5489
  285THF     H5 6047   0.317   3.793   5.420  0.0714  1.5751 -0.8946
  285THF     H6 6048  -0.076   3.745   5.389 -0.5975  0.0219  0.3663
  285THF     H7 6049  -0.017   3.581   5.410  0.3597  0.1773  1.3719
  285THF     C8 6050   0.044   3.713   5.565 -0.0570 -0.3129 -0.5029
  285THF     C9 6051   0.143   3.824   5.561 -0.6552  0.3633  0.6821
  285THF    H10 6052   0.087   3.623   5.609  1.3416  0.1338 -0.9296
  285THF    H11 6053  -0.044   3.745   5.622  0.5046 -0.5788  0.5365
  285THF    H12 6054   0.092   3.919   5.570 -0.2143  0.4846  2.2267
  285THF    H13 6055   0.212   3.816   5.646 -0.0523  1.2290  0.2939
  286THF     O1 6056   3.766   1.660   0.702  0.5600  0.1374  0.1940
  286THF     C2 6057   3.886   1.598   0.672 -0.7964 -0.2333  0.2095
  286THF     C3 6058   3.701   1.572   0.798 -0.1531  0.1650  0.0523
  286THF     H4 6059   3.953   1.664   0.617 -0.3769 -1.5462 -0.9030
  286THF     H5 6060   3.861   1.514   0.608 -0.8119 -3.1894  3.7560
  286THF     H6 6061   3.638   1.629   0.865  0.2239  0.6697 -0.0128
  286THF     H7 6062   3.642   1.493   0.753  0.3350  0.6769 -1.5492
  286THF     C8 6063   3.818   1.520   0.878 -0.3096  0.3839 -0.3510
  286THF     C9 6064   3.944   1.561   0.806  0.0905  0.6511 -0.1663
  286THF    H10 6065   3.821   1.412   0.883 -0.7940  0.3847 -0.0723
  286THF    H11 6066   3.831   1.560   0.978  0.2936  0.4315 -0.4422
  286THF    H12 6067   3.986   1.651   0.851  1.2560 -0.1919  0.4793
  286THF    H13 6068   4.013   1.477   0.799  0.8088  1.1490  0.7687
  287THF     O1 6069   4.461   2.671   4.871 -0.0574  0.0908 -0.4742
  287THF     C2 6070   4.568   2.754   4.837  0.1663 -0.3757  0.7400
  287THF     C3 6071   4.500   2.602   4.985 -0.7629  0.3979  0.6905
  287THF     H4 6072   4.563   2.838   4.906 -1.0749 -0.8075  1.2008
  287THF     H5 6073   4.577   2.794   4.736 -0.0196  0.3797  1.0182
  287THF     H6 6074   4.503   2.659   5.078 -0.0919  0.7014  0.4900
  287THF     H7 6075   4.434   2.517   5.000 -0.1199  0.0666  1.7898
  287THF     C8 6076   4.631   2.552   4.942 -0.0144 -0.0755 -0.3530
  287THF     C9 6077   4.690   2.665   4.863  0.3531 -0.3357 -0.0428
  287THF    H10 6078   4.611   2.468   4.875 -0.9994 -0.3408  0.2456
  287THF    H11 6079   4.692   2.510   5.021 -0.1876 -1.2131 -0.7990
  287THF    H12 6080   4.772   2.719   4.909 -1.1442 -0.1249  2.5893
  287THF    H13 6081   4.729   2.624   4.770 -0.0971 -1.1110  0.0976
  288THF     O1 6082   0.352   3.084   0.965  0.0125 -0.0651 -0.4972
  288THF     C2 6083   0.316   3.021   0.844 -0.2278 -0.5209  0.0214
  288THF     C3 6084   0.317   3.215   0.965  0.9479 -0.9635  0.3543
  288THF     H4 6085   0.310   2.918   0.880 -1.2874  0.2156  2.0853
  288THF     H5 6086   0.396   3.035   0.770 -0.0159 -0.5457  0.2435
  288THF     H6 6087   0.303   3.252   1.067 -0.1506 -1.1818  0.2929
  288THF     H7 6088   0.400   3.271   0.922  0.7349  1.2167  2.5422
  288THF     C8 6089   0.194   3.222   0.882 -0.0881 -0.1412  0.2015
  288THF     C9 6090   0.184   3.087   0.812  0.4832  0.4479  0.3307
  288THF    H10 6091   0.213   3.307   0.816  2.2173  0.3659  1.4154
  288THF    H11 6092   0.105   3.234   0.944 -1.7585 -0.0990 -2.0506
  288THF    H12 6093   0.107   3.023   0.855  1.1816 -1.1192 -0.6720
  288THF    H13 6094   0.167   3.086   0.705  2.0141  0.5027  0.0621
  289THF     O1 6095   3.056   5.319   0.195  0.1909  0.6912  0.3633
  289THF     C2 6096   3.062   5.344   0.057 -0.2466 -0.1234  0.0854
  289THF     C3 6097   3.168   5.377   0.258  0.5438  0.2756 -0.0479
  289THF     H4 6098   2.965   5.328   0.011 -0.2683 -0.1196  0.1298
  289THF     H5 6099   3.121   5.269   0.004 -0.8243 -1.8569  1.7810
  289THF     H6 6100   3.155   5.393   0.365  0.4768 -0.5556  0.0725
  289THF     H7 6101   3.256   5.314   0.252  1.0572  0.9115  0.6538
  289THF     C8 6102   3.194   5.506   0.186 -0.5840  0.6847 -0.5484
  289THF     C9 6103   3.144   5.477   0.044  0.1105 -0.3884 -0.1215
  289THF    H10 6104   3.299   5.538   0.183 -0.7138  1.0749 -1.0212
  289THF    H11 6105   3.136   5.587   0.228  0.7384  0.6732  1.4561
  289THF    H12 6106   3.080   5.549  -0.007 -0.0351  0.1634  0.8255
  289THF    H13 6107   3.234   5.465  -0.016  1.5599  1.3150  1.6069
  290THF     O1 6108   3.787   5.488   3.305  0.0909  0.1394 -0.2136
  290THF     C2 6109   3.721   5.608   3.269  0.2966 -0.4706  0.2734
  290THF     C3 6110   3.695   5.384   3.274 -0.2251 -0.1544 -0.1985
  290THF     H4 6111   3.796   5.686   3.258 -0.5549  0.0398 -2.7068
  290THF     H5 6112   3.657   5.632   3.353  0.4843 -0.6155  0.4596
  290THF     H6 6113   3.741   5.285   3.274  0.2139  0.0467 -0.5441
  290THF     H7 6114   3.615   5.383   3.348  0.4635 -0.6426  0.5560
  290THF     C8 6115   3.633   5.430   3.140 -0.5103  0.6120  0.0856
  290THF     C9 6116   3.645   5.582   3.142 -0.5388  0.1712  0.0600
  290THF    H10 6117   3.534   5.397   3.109 -0.1836 -1.4275  1.0242
  290THF    H11 6118   3.710   5.393   3.072  0.1224  3.7291 -1.0903
  290THF    H12 6119   3.711   5.607   3.059 -0.7369 -0.1090 -0.1842
  290THF    H13 6120   3.554   5.642   3.139  0.0505  1.0639 -2.2932
  291THF     O1 6121   4.379   0.539   5.242  0.0671  0.6957 -0.6171
  291THF     C2 6122   4.395   0.608   5.362  0.2688  0.0398  0.3738
  291THF     C3 6123   4.334   0.632   5.141 -0.1912 -0.1122 -0.0511
  291THF     H4 6124   4.489   0.663   5.366 -0.6142  1.5897  0.7591
  291THF     H5 6125   4.396   0.534   5.442  1.2821 -0.2979  0.0615
  291THF     H6 6126   4.412   0.673   5.077  0.7862  2.3552  2.4928
  291THF     H7 6127   4.259   0.587   5.076 -0.3912  0.8758 -0.5281
  291THF     C8 6128   4.271   0.749   5.222 -0.6968  0.6187 -0.4632
  291THF     C9 6129   4.272   0.693   5.361  0.6099  0.6182  0.8343
  291THF    H10 6130   4.173   0.763   5.175 -0.5821  2.6063 -0.1767
  291THF    H11 6131   4.321   0.845   5.216 -1.5976  1.0548 -1.3103
  291THF    H12 6132   4.286   0.749   5.453  1.9097 -1.3847  1.9421
  291THF    H13 6133   4.187   0.627   5.378 -0.9454  2.7567  1.9214
  292THF     O1 6134   0.501   3.855   4.173  0.2270  0.2339 -0.1133
  292THF     C2 6135   0.375   3.887   4.113 -0.2420 -0.2008  0.3108
  292THF     C3 6136   0.486   3.747   4.263  0.0971  0.3208  0.6253
  292THF     H4 6137   0.342   3.822   4.032  1.1853  1.4288 -1.7033
  292THF     H5 6138   0.373   3.988   4.072 -1.5524  0.5661  2.1119
  292THF     H6 6139   0.489   3.654   4.206  0.5420  0.1226  0.9734
  292THF     H7 6140   0.571   3.746   4.331  0.5318  2.3347  0.1830
  292THF     C8 6141   0.349   3.755   4.324 -0.6107 -1.0911  0.1516
  292THF     C9 6142   0.291   3.874   4.243 -0.7184  0.3831 -0.6668
  292THF    H10 6143   0.360   3.784   4.429 -0.9769 -0.1499 -0.0595
  292THF    H11 6144   0.288   3.666   4.306 -2.5598  0.4458 -1.3299
  292THF    H12 6145   0.182   3.870   4.233 -0.8134  1.6136 -0.2124
  292THF    H13 6146   0.299   3.964   4.303 -0.9795  1.0234 -1.5711
  293THF     O1 6147   3.664   3.942   3.433  0.3236  0.4806  0.3221
  293THF     C2 6148   3.711   4.071   3.482 -0.5151 -0.3236 -0.1143
  293THF     C3 6149   3.784   3.892   3.380 -0.5374  0.5625  0.7059
  293THF     H4 6150   3.754   4.069   3.582 -2.2251  2.2817  0.7765
  293THF     H5 6151   3.618   4.128   3.491 -0.0767  0.5730 -1.0953
  293THF     H6 6152   3.817   3.823   3.457 -4.2875  0.4702  2.4401
  293THF     H7 6153   3.758   3.830   3.295  2.3585  0.2481 -0.0557
  293THF     C8 6154   3.879   4.001   3.333 -0.3473  0.1416  0.1074
  293THF     C9 6155   3.811   4.119   3.386  0.5347  0.0739  0.0720
  293THF    H10 6156   3.895   3.997   3.225  2.3062  1.0331  0.3831
  293THF    H11 6157   3.979   3.999   3.377 -0.7407 -0.0591  1.0069
  293THF    H12 6158   3.880   4.189   3.435 -1.0373  1.7286  0.0492
  293THF    H13 6159   3.769   4.173   3.300 -0.9171 -1.4287 -0.2093
  294THF     O1 6160   1.279   1.486   5.479 -0.6059 -0.0912  0.3649
  294THF     C2 6161   1.227   1.619   5.490 -0.2461  0.6198 -0.1066
  294THF     C3 6162   1.230   1.427   5.355  0.1188 -0.1204  0.0970
  294THF     H4 6163   1.306   1.684   5.528  0.4853  0.3305 -1.0936
  294THF     H5 6164   1.149   1.608   5.565 -0.2742 -1.1679 -0.3589
  294THF     H6 6165   1.310   1.430   5.280  1.1780  1.4009  1.2045
  294THF     H7 6166   1.188   1.330   5.380  0.2884  0.3661  2.4974
  294THF     C8 6167   1.129   1.526   5.296 -0.6583  0.2187  0.5477
  294THF     C9 6168   1.183   1.657   5.347 -0.2321 -0.8826  0.0149
  294THF    H10 6169   1.036   1.511   5.350  0.1498  2.1441  2.6468
  294THF    H11 6170   1.119   1.516   5.188 -0.9725  0.8258  0.5179
  294THF    H12 6171   1.264   1.697   5.287 -1.2709 -2.4566 -2.6347
  294THF    H13 6172   1.100   1.725   5.366 -0.2380 -0.4822 -1.3172
  295THF     O1 6173   4.151   1.446   4.222  0.7750  0.4292 -0.2885
  295THF     C2 6174   4.201   1.430   4.097  0.7998  0.0229 -0.2356
  295THF     C3 6175   4.258   1.448   4.307  0.3102 -0.0469  0.2760
  295THF     H4 6176   4.246   1.525   4.068  1.7404  0.2527  1.8032
  295THF     H5 6177   4.116   1.414   4.031  1.2590  0.0856 -0.8496
  295THF     H6 6178   4.286   1.553   4.293 -0.5462  0.3600  1.4139
  295THF     H7 6179   4.229   1.433   4.411 -0.1359  1.7000  0.4441
  295THF     C8 6180   4.357   1.349   4.257  0.0022  0.2668  0.5596
  295THF     C9 6181   4.305   1.324   4.117 -0.7813 -0.4567  0.0821
  295THF    H10 6182   4.358   1.258   4.318  0.3903 -0.9776 -1.2017
  295THF    H11 6183   4.455   1.394   4.245 -0.0940  0.3720  0.1590
  295THF    H12 6184   4.373   1.320   4.032 -0.9647 -0.2485 -0.0768
  295THF    H13 6185   4.266   1.223   4.130  0.0600 -0.7451  0.4487
  296THF     O1 6186   0.913   5.409   4.614 -0.1028  0.1869  0.4994
  296THF     C2 6187   0.818   5.482   4.689  0.3165  0.5680 -0.2159
  296THF     C3 6188   0.840   5.305   4.544 -0.8263 -0.5009 -0.1439
  296THF     H4 6189   0.857   5.582   4.710  1.3654  0.7405 -2.6166
  296THF     H5 6190   0.795   5.427   4.779 -0.3862 -1.8845 -1.8018
  296THF     H6 6191   0.903   5.258   4.468 -2.3195 -0.6148 -1.3727
  296THF     H7 6192   0.822   5.227   4.617  2.3639 -0.5646  0.7203
  296THF     C8 6193   0.713   5.375   4.496  0.1461 -1.4386  0.4205
  296THF     C9 6194   0.687   5.488   4.598  0.0938 -0.1554  0.3288
  296THF    H10 6195   0.635   5.300   4.483 -0.9056 -0.3409  0.1657
  296THF    H11 6196   0.737   5.418   4.398  0.4570 -1.8991  0.2916
  296THF    H12 6197   0.673   5.584   4.549 -1.1073  0.3926  1.6689
  296THF    H13 6198   0.606   5.468   4.668 -1.3008 -0.8910 -1.3974
  297THF     O1 6199   2.064   4.992   2.482 -0.0981 -0.5125 -0.3804
  297THF     C2 6200   2.081   4.947   2.343  0.0363  0.3936  0.5287
  297THF     C3 6201   1.962   4.903   2.537 -0.5780  0.3429 -0.3557
  297THF     H4 6202   2.160   4.872   2.340 -1.0202 -0.7236 -2.0396
  297THF     H5 6203   2.120   5.022   2.275  0.4194 -0.6021 -0.3706
  297THF     H6 6204   2.006   4.808   2.567  0.8885  1.3264  0.7498
  297THF     H7 6205   1.915   4.943   2.626 -0.0789 -0.3778  0.2412
  297THF     C8 6206   1.859   4.894   2.423 -0.4180  0.0978 -0.1795
  297THF     C9 6207   1.949   4.885   2.300 -0.5023 -0.5285  0.2597
  297THF    H10 6208   1.803   4.986   2.437  0.8764  0.5873  2.5593
  297THF    H11 6209   1.796   4.807   2.443  0.7607 -0.1169  3.4551
  297THF    H12 6210   1.966   4.781   2.272 -1.3372 -0.6983  0.3502
  297THF    H13 6211   1.908   4.938   2.214  0.3997 -0.2145  0.0141
  298THF     O1 6212   0.142   0.704   2.319 -0.3384  0.6653  0.5973
  298THF     C2 6213   0.212   0.824   2.362  0.0694  0.2577  0.2374
  298THF     C3 6214   0.048   0.728   2.218  0.3080  0.3911  0.2348
  298THF     H4 6215   0.291   0.793   2.432 -1.9166 -2.4857  1.4275
  298THF     H5 6216   0.144   0.882   2.424 -0.6285  1.6269 -1.7068
  298THF     H6 6217   0.005   0.639   2.173 -0.6887 -0.1836  2.2373
  298THF     H7 6218  -0.033   0.791   2.254 -0.5461  0.7415 -2.1037
  298THF     C8 6219   0.135   0.821   2.133  0.2919  0.6956 -0.1375
  298THF     C9 6220   0.229   0.888   2.225 -0.8237  0.1610  0.3754
  298THF    H10 6221   0.075   0.893   2.077 -4.5815 -2.5897  0.3566
  298THF    H11 6222   0.197   0.760   2.066  0.0911 -1.2839  1.4043
  298THF    H12 6223   0.331   0.877   2.189 -0.5223  1.0862  0.8905
  298THF    H13 6224   0.221   0.997   2.227  0.5847  0.2888  0.5362
  299THF     O1 6225   2.376   2.019   2.751  0.0600  0.2974  0.2678
  299THF     C2 6226   2.244   2.015   2.798 -0.1330  0.0102 -0.1264
  299THF     C3 6227   2.409   1.897   2.681  0.1113  0.4974 -0.4035
  299THF     H4 6228   2.202   2.111   2.826  1.1797  0.7445 -0.5875
  299THF     H5 6229   2.244   1.945   2.881  1.2930  0.7770  0.5473
  299THF     H6 6230   2.477   1.907   2.597 -1.2601  0.7317 -1.5234
  299THF     H7 6231   2.444   1.827   2.757  0.1081  0.0013 -0.8600
  299THF     C8 6232   2.273   1.853   2.632  0.1694  0.6067  0.4139
  299THF     C9 6233   2.171   1.948   2.684 -0.8299 -0.7411  0.0939
  299THF    H10 6234   2.248   1.755   2.671  1.2598  0.9333  2.0426
  299THF    H11 6235   2.281   1.863   2.524  3.2732 -0.5805  0.4338
  299THF    H12 6236   2.153   2.017   2.601 -0.4982 -1.0495 -0.2418
  299THF    H13 6237   2.088   1.911   2.744 -0.9420  1.3945  1.3367
  300THF     O1 6238   3.317   3.839   4.486  0.2323 -0.1077 -0.2702
  300THF     C2 6239   3.328   3.943   4.586 -0.2953 -0.1591 -0.3392
  300THF     C3 6240   3.353   3.720   4.548 -0.2152 -0.1779  0.1725
  300THF     H4 6241   3.267   4.025   4.548 -0.9785  0.3101  1.6077
  300THF     H5 6242   3.433   3.964   4.604 -0.5178  1.5213 -0.8549
  300THF     H6 6243   3.318   3.626   4.504  0.1331 -0.1234 -0.2354
  300THF     H7 6244   3.461   3.707   4.555 -0.4149 -1.7314  0.8712
  300THF     C8 6245   3.304   3.733   4.686  0.0403  0.7414 -0.4069
  300THF     C9 6246   3.267   3.876   4.708  0.1886 -0.0303  0.2467
  300THF    H10 6247   3.389   3.690   4.739  0.4539 -0.5893 -2.0581
  300THF    H11 6248   3.210   3.680   4.704  0.0790  0.3452 -1.2911
  300THF    H12 6249   3.159   3.880   4.699  0.1892  1.5566  0.6012
  300THF    H13 6250   3.298   3.924   4.801 -0.5084  1.3470 -0.2083
  301THF     O1 6251   4.000   2.105   0.997  0.0044  0.2992 -0.2357
  301THF     C2 6252   3.961   1.979   1.043  0.7363  0.2128  0.6340
  301THF     C3 6253   3.957   2.126   0.864 -0.1487  0.4681 -0.2135
  301THF     H4 6254   3.923   1.997   1.144 -0.8772  1.2668 -0.1222
  301THF     H5 6255   4.031   1.896   1.051  1.7198  1.0867  1.6130
  301THF     H6 6256   3.941   2.233   0.850 -0.5546  0.0954 -3.5691
  301THF     H7 6257   4.031   2.076   0.801 -0.2920 -0.3772  0.2707
  301THF     C8 6258   3.822   2.057   0.876  0.1317  0.0618 -0.0285
  301THF     C9 6259   3.841   1.936   0.960 -0.2677  0.3348  0.0163
  301THF    H10 6260   3.781   2.034   0.778  1.0771  1.6254 -0.8152
  301THF    H11 6261   3.750   2.126   0.919  0.1331 -0.6207  1.1125
  301THF    H12 6262   3.754   1.916   1.023  0.3171  0.6105  0.9212
  301THF    H13 6263   3.858   1.846   0.901  1.9382  1.6684 -1.5497
  302THF     O1 6264   0.724   2.902   1.101  0.0881  0.7020 -0.3738
  302THF     C2 6265   0.833   2.812   1.063 -0.2468  0.6201 -0.9112
  302THF     C3 6266   0.643   2.917   0.990  0.3096  0.2304  0.0353
  302THF     H4 6267   0.784   2.715   1.070 -3.1850  2.0084 -0.5650
  302THF     H5 6268   0.911   2.814   1.139  0.8611  1.8240 -2.0343
  302THF     H6 6269   0.569   2.838   0.989  1.4861 -0.9028 -0.4883
  302THF     H7 6270   0.596   3.015   0.981 -0.8620 -0.4640 -1.9883
  302THF     C8 6271   0.731   2.902   0.875  0.2800 -0.2653  1.5817
  302THF     C9 6272   0.857   2.836   0.920  1.1072 -0.8763  0.0128
  302THF    H10 6273   0.748   3.002   0.834  3.1350 -1.0231  0.7136
  302THF    H11 6274   0.683   2.852   0.792  0.3745  0.0130  1.3558
  302THF    H12 6275   0.865   2.750   0.854 -1.9627 -1.2056 -0.0887
  302THF    H13 6276   0.935   2.911   0.907  0.4242  0.8933  4.3047
  303THF     O1 6277   3.560   4.474   3.759 -0.9876  0.3681 -0.2954
  303THF     C2 6278   3.547   4.566   3.862  0.2936 -0.0370 -0.0135
  303THF     C3 6279   3.545   4.546   3.641 -0.5033 -0.5280  0.8106
  303THF     H4 6280   3.646   4.611   3.877  0.6308 -0.6204 -0.4377
  303THF     H5 6281   3.521   4.514   3.955 -1.3439  0.4846 -0.1502
  303THF     H6 6282   3.638   4.589   3.604 -1.5313  1.4273  0.3780
  303THF     H7 6283   3.509   4.482   3.561 -0.3128 -0.1528  0.4214
  303THF     C8 6284   3.444   4.653   3.673  0.1177  0.1889 -0.2756
  303THF     C9 6285   3.433   4.660   3.828 -0.4066  0.3919  0.4710
  303THF    H10 6286   3.347   4.626   3.631  1.0259 -0.1406 -2.2453
  303THF    H11 6287   3.462   4.750   3.628  0.0634 -0.7331 -2.3710
  303THF    H12 6288   3.447   4.764   3.857  0.0601  0.1349  1.1923
  303THF    H13 6289   3.337   4.625   3.866 -1.6046  2.2422 -0.6858
  304THF     O1 6290   3.417   0.595   1.301 -0.2051  0.5987 -0.5902
  304THF     C2 6291   3.404   0.545   1.167  0.2190 -0.5823 -0.0443
  304THF     C3 6292   3.290   0.655   1.336 -0.1550  0.2184  0.9268
  304THF     H4 6293   3.468   0.460   1.145  0.5153 -0.5450  0.6734
  304THF     H5 6294   3.421   0.618   1.088 -1.1059  0.1580  0.3121
  304THF     H6 6295   3.256   0.641   1.438 -4.2207  1.0845 -0.1268
  304THF     H7 6296   3.300   0.763   1.321  0.6766 -0.2299 -2.8147
  304THF     C8 6297   3.182   0.589   1.247 -0.4612 -0.2022  0.1079
  304THF     C9 6298   3.260   0.498   1.159  0.6537  0.6854 -0.8916
  304THF    H10 6299   3.136   0.662   1.180 -1.7136 -0.8822  0.2135
  304THF    H11 6300   3.107   0.535   1.303 -0.2724 -2.1142 -1.3708
  304THF    H12 6301   3.256   0.396   1.195 -0.8762  0.0864 -2.6024
  304THF    H13 6302   3.214   0.512   1.061  1.3416  0.4664 -1.2483
  305THF     O1 6303   2.623   2.733   2.444  0.8130 -0.2039 -0.3824
  305THF     C2 6304   2.742   2.767   2.514 -0.6897  0.3040  0.5375
  305THF     C3 6305   2.566   2.852   2.387 -0.1341  0.4629 -0.3157
  305THF     H4 6306   2.829   2.713   2.475 -0.6011  1.5697 -1.1272
  305THF     H5 6307   2.734   2.736   2.618 -0.0137  0.1792  0.5563
  305THF     H6 6308   2.600   2.869   2.285 -0.3208  1.9644 -0.1566
  305THF     H7 6309   2.457   2.848   2.393 -0.0598  0.0521  2.3289
  305THF     C8 6310   2.619   2.966   2.475 -0.1849  0.8223  0.4529
  305THF     C9 6311   2.761   2.917   2.501 -0.0641 -0.3392  0.0738
  305THF    H10 6312   2.556   2.977   2.564  0.5503  0.9017  0.9714
  305THF    H11 6313   2.620   3.051   2.407  1.6577  0.6282  0.1962
  305THF    H12 6314   2.836   2.946   2.427 -1.1012  2.1756 -0.0843
  305THF    H13 6315   2.800   2.961   2.593 -1.4018 -0.2527  0.6220
  306THF     O1 6316   3.183   0.051   1.354 -0.1077  0.5124 -0.6358
  306THF     C2 6317   3.166  -0.090   1.345 -0.1321 -0.2238  0.1152
  306THF     C3 6318   3.290   0.083   1.263 -0.1299  0.5356  0.6800
  306THF     H4 6319   3.073  -0.124   1.391 -1.0170  0.9632 -0.7358
  306THF     H5 6320   3.261  -0.128   1.382 -0.0204  0.0257  0.0879
  306THF     H6 6321   3.280   0.184   1.222 -0.2280  0.0498 -0.5447
  306THF     H7 6322   3.389   0.074   1.308 -0.8876 -1.5720  2.0746
  306THF     C8 6323   3.272  -0.018   1.151 -0.1453  0.3159 -0.2129
  306THF     C9 6324   3.153  -0.097   1.194  0.1488  0.0690  0.6226
  306THF    H10 6325   3.357  -0.087   1.150  0.2975  0.8655 -1.3415
  306THF    H11 6326   3.257   0.019   1.050  0.5660  1.4570  0.0898
  306THF    H12 6327   3.065  -0.043   1.162  0.2499 -0.4129 -0.5261
  306THF    H13 6328   3.155  -0.202   1.163  0.1821  0.4029 -0.5454
  307THF     O1 6329   2.193   2.575   3.732 -0.2539  0.5643 -0.1526
  307THF     C2 6330   2.325   2.598   3.678  0.5760  0.5885 -0.4922
  307THF     C3 6331   2.114   2.682   3.695 -0.6231 -0.9847 -0.5894
  307THF     H4 6332   2.344   2.548   3.583  0.9412  1.0448 -0.6585
  307THF     H5 6333   2.400   2.561   3.748 -1.4102 -0.6914  1.0928
  307THF     H6 6334   2.091   2.689   3.588 -0.3691  1.9002 -0.5237
  307THF     H7 6335   2.019   2.687   3.748 -0.2216 -2.6223  0.3606
  307THF     C8 6336   2.207   2.798   3.726 -0.3543 -0.0989 -0.2907
  307THF     C9 6337   2.339   2.747   3.674  0.2066 -0.1472 -0.0238
  307THF    H10 6338   2.229   2.806   3.833  2.3650 -0.0622 -0.7686
  307THF    H11 6339   2.191   2.900   3.693  0.1624  0.6106  1.5056
  307THF    H12 6340   2.334   2.761   3.566 -2.3222 -0.6535 -0.0355
  307THF    H13 6341   2.429   2.791   3.716 -0.2002  0.7582 -0.0774
  308THF     O1 6342   5.375   3.936   2.716  0.2197  0.0893  0.0230
  308THF     C2 6343   5.399   3.865   2.600 -0.3327 -0.2575 -0.0841
  308THF     C3 6344   5.418   3.843   2.821 -0.2894  0.3510 -0.0152
  308THF     H4 6345   5.411   3.938   2.520  1.1853 -0.6094 -0.2084
  308THF     H5 6346   5.309   3.810   2.572 -0.2138  0.6681 -2.5821
  308THF     H6 6347   5.423   3.880   2.924  0.2550 -0.6445  0.3306
  308THF     H7 6348   5.364   3.749   2.819  1.6047 -0.7834 -0.1197
  308THF     C8 6349   5.547   3.800   2.770 -0.2372 -0.5975 -0.6962
  308THF     C9 6350   5.525   3.783   2.620 -0.6526  0.4268 -0.6030
  308THF    H10 6351   5.594   3.718   2.825 -1.9141 -0.7986  0.5190
  308THF    H11 6352   5.622   3.877   2.787 -0.3682  0.0955 -2.9464
  308THF    H12 6353   5.605   3.828   2.562 -2.1141  2.0665 -1.4496
  308THF    H13 6354   5.513   3.677   2.600  0.0920  0.2184  0.0334
  309THF     O1 6355   3.095   1.980   3.990 -0.6622 -0.3706 -0.0348
  309THF     C2 6356   3.184   1.870   4.012 -0.1809  0.4344  0.4791
  309THF     C3 6357   3.073   2.002   3.852 -0.4178 -0.0321 -0.7232
  309THF     H4 6358   3.109   1.794   4.032 -0.4962  0.4739 -0.4678
  309THF     H5 6359   3.256   1.885   4.092  2.0122 -1.7364 -0.9648
  309THF     H6 6360   2.968   2.018   3.826 -0.8847  2.2750  2.0575
  309THF     H7 6361   3.125   2.090   3.812  1.7241 -0.8832  0.0698
  309THF     C8 6362   3.138   1.874   3.786 -0.0309 -0.7921  0.9273
  309THF     C9 6363   3.254   1.841   3.881 -0.5089 -0.1356  0.1112
  309THF    H10 6364   3.179   1.905   3.690  1.0804  0.8879  1.8833
  309THF    H11 6365   3.075   1.786   3.772  1.4608 -1.5218 -2.0493
  309THF    H12 6366   3.285   1.739   3.860  0.1490  0.4880 -2.2648
  309THF    H13 6367   3.341   1.903   3.858 -1.9989  2.2017  0.4049
  310THF     O1 6368   5.188   2.069   2.723 -0.0478  0.2909 -0.2103
  310THF     C2 6369   5.148   1.997   2.603  0.4529  0.3906 -0.4008
  310THF     C3 6370   5.323   2.117   2.711  0.1891 -0.8034 -0.0888
  310THF     H4 6371   5.144   2.069   2.521  2.0386 -0.5173 -1.3158
  310THF     H5 6372   5.059   1.942   2.633  0.4269  0.4331 -0.3999
  310THF     H6 6373   5.339   2.191   2.633  0.3290 -0.7967 -0.0544
  310THF     H7 6374   5.357   2.154   2.808 -0.8772  3.2230 -1.0521
  310THF     C8 6375   5.380   1.986   2.653  0.0376  0.1042  0.3059
  310THF     C9 6376   5.270   1.911   2.574  0.6278  0.0359 -0.4472
  310THF    H10 6377   5.422   1.924   2.732 -1.0853  1.1808  1.7955
  310THF    H11 6378   5.464   2.005   2.586 -0.0590  1.5603  0.5562
  310THF    H12 6379   5.291   1.903   2.467  2.3914 -0.4116 -0.0966
  310THF    H13 6380   5.246   1.812   2.612 -2.1331  0.8267  0.0627
  311THF     O1 6381   3.642   0.351   0.397  0.5153  0.7041 -0.1132
  311THF     C2 6382   3.513   0.294   0.407 -0.1917 -0.2057 -0.0272
  311THF     C3 6383   3.706   0.282   0.296  0.6891  0.0213 -0.1572
  311THF     H4 6384   3.449   0.311   0.321  0.0703 -1.5476 -0.5174
  311THF     H5 6385   3.448   0.310   0.493 -3.6679  0.6882 -2.5931
  311THF     H6 6386   3.671   0.310   0.196  3.2188 -0.6304 -1.3178
  311THF     H7 6387   3.814   0.289   0.289  0.7090 -0.3516 -0.2506
  311THF     C8 6388   3.665   0.135   0.315 -0.3619 -0.3161  0.1000
  311THF     C9 6389   3.548   0.140   0.412 -0.5329  0.0599 -0.2234
  311THF    H10 6390   3.752   0.084   0.355 -0.6675 -2.2820 -1.5956
  311THF    H11 6391   3.641   0.080   0.224 -0.5868 -1.4224  0.8096
  311THF    H12 6392   3.465   0.073   0.390 -0.4434  0.1220 -0.7520
  311THF    H13 6393   3.583   0.128   0.515  0.6869 -0.8337 -0.7285
  312THF     O1 6394   2.794   1.770   2.856  0.4380  0.3836 -0.4187
  312THF     C2 6395   2.777   1.776   2.716  0.0945 -0.4331 -0.5259
  312THF     C3 6396   2.727   1.892   2.894  0.3957 -0.5237  0.3926
  312THF     H4 6397   2.671   1.755   2.698 -0.1806  0.7605 -0.3833
  312THF     H5 6398   2.844   1.711   2.661  0.9043 -0.5079  0.5189
  312THF     H6 6399   2.619   1.879   2.892  0.2664  0.5166 -0.2510
  312THF     H7 6400   2.752   1.924   2.995 -1.4186 -0.6251  0.9027
  312THF     C8 6401   2.747   2.003   2.785 -0.9192  0.9039  0.4428
  312THF     C9 6402   2.817   1.923   2.682 -0.0461  0.0224  1.0793
  312THF    H10 6403   2.813   2.079   2.824  0.7310 -0.5040  0.5201
  312THF    H11 6404   2.647   2.042   2.766 -1.4264 -0.7055 -0.4378
  312THF    H12 6405   2.781   1.970   2.591 -0.1567 -2.5457 -0.2996
  312THF    H13 6406   2.926   1.932   2.683 -0.2339  4.3987  1.9977
  313THF     O1 6407   4.034   2.907   1.132 -0.2998  0.7750  0.2920
  313THF     C2 6408   4.110   3.019   1.095 -0.2930 -0.0571 -0.2805
  313THF     C3 6409   4.077   2.864   1.261 -0.7215  0.1331 -0.4795
  313THF     H4 6410   4.074   3.108   1.147 -1.9436 -1.1006  0.4692
  313THF     H5 6411   4.098   3.046   0.990 -0.1844  0.0564 -0.2631
  313THF     H6 6412   4.052   2.927   1.346  0.2072 -0.4555  0.2364
  313THF     H7 6413   4.054   2.763   1.293 -0.8437  0.0957 -0.6796
  313THF     C8 6414   4.233   2.877   1.248  0.4113  0.0838  0.3686
  313THF     C9 6415   4.253   2.984   1.136 -0.0952  0.1578 -0.6155
  313THF    H10 6416   4.294   2.790   1.223  0.7306  0.0646  1.1871
  313THF    H11 6417   4.267   2.927   1.338 -0.7865  1.2747  0.1841
  313THF    H12 6418   4.301   3.071   1.180  1.5873 -1.4282  0.8289
  313THF    H13 6419   4.302   2.937   1.051  1.4540 -1.9624  1.3066
  314THF     O1 6420   4.595   4.097   0.140  0.2426  0.0733 -0.0006
  314THF     C2 6421   4.476   4.035   0.170  0.7418 -0.5616 -0.3968
  314THF     C3 6422   4.606   4.115   0.002 -0.3050 -0.5564 -0.2766
  314THF     H4 6423   4.430   4.065   0.264  0.8108  1.6219 -1.0201
  314THF     H5 6424   4.496   3.928   0.178  2.1617 -0.3040 -0.2173
  314THF     H6 6425   4.611   4.222  -0.016  1.4096  0.1945  3.5304
  314THF     H7 6426   4.697   4.074  -0.043  1.5217  0.8186  1.9034
  314THF     C8 6427   4.476   4.061  -0.055  0.2686 -0.2675 -0.1701
  314THF     C9 6428   4.380   4.072   0.065  0.6489 -0.0000  0.6571
  314THF    H10 6429   4.488   3.958  -0.087  1.4070 -0.1471 -0.1611
  314THF    H11 6430   4.434   4.120  -0.136 -0.7175  1.9669  1.8505
  314THF    H12 6431   4.331   4.169   0.067 -1.3825 -0.9696  1.2936
  314THF    H13 6432   4.299   3.999   0.058 -0.7019  1.5766 -1.4574
  315THF     O1 6433   0.499   1.392   0.459  0.5080  0.2621  0.1254
  315THF     C2 6434   0.436   1.508   0.407  0.1224 -0.0055 -0.0528
  315THF     C3 6435   0.570   1.334   0.351  0.0354  0.1926  0.4262
  315THF     H4 6436   0.510   1.583   0.377  0.0872 -0.4441 -1.3258
  315THF     H5 6437   0.373   1.550   0.485  0.6595 -1.7558  1.3967
  315THF     H6 6438   0.665   1.379   0.323  0.5925  0.7323  2.9278
  315THF     H7 6439   0.603   1.234   0.377  0.3571  0.3142  0.4838
  315THF     C8 6440   0.452   1.339   0.250 -1.0299 -0.0219  0.2069
  315THF     C9 6441   0.371   1.461   0.279 -0.0515  0.1533 -0.1555
  315THF    H10 6442   0.389   1.253   0.274 -0.2771 -0.2555  1.4202
  315THF    H11 6443   0.476   1.330   0.144  1.9284 -1.4385  0.8998
  315THF    H12 6444   0.372   1.533   0.197 -0.1442  0.4168  0.0716
  315THF    H13 6445   0.272   1.428   0.312  0.1885 -0.8621 -0.4166
  316THF     O1 6446   2.275   5.067   1.958  0.0710  0.6664 -0.2141
  316THF     C2 6447   2.281   4.922   1.969  0.3713 -0.0004  0.5620
  316THF     C3 6448   2.397   5.128   1.982  0.0921  0.2420 -0.4351
  316THF     H4 6449   2.316   4.865   1.883  1.4133 -1.3306  1.8106
  316THF     H5 6450   2.181   4.888   1.992  0.1636  0.9473  1.1576
  316THF     H6 6451   2.462   5.149   1.897  1.0229  2.9578  0.8211
  316THF     H7 6452   2.370   5.221   2.032  0.5196  1.0147 -1.5998
  316THF     C8 6453   2.477   5.038   2.077  0.0888 -0.3523  0.3230
  316THF     C9 6454   2.380   4.919   2.094  0.2198  0.1065 -1.0966
  316THF    H10 6455   2.504   5.084   2.172  2.4872 -1.3205  0.1801
  316THF    H11 6456   2.576   5.010   2.040  1.6120  0.4713  3.4531
  316THF    H12 6457   2.438   4.827   2.092  2.3834  1.3835 -4.1088
  316THF    H13 6458   2.325   4.934   2.187  2.2184  2.1651 -0.1368
  317THF     O1 6459   2.898   1.287   1.882 -0.5460  0.1267 -0.0372
  317THF     C2 6460   2.824   1.179   1.821 -0.1605 -0.3775 -0.3059
  317THF     C3 6461   2.919   1.256   2.017 -0.1396 -0.1562 -0.0419
  317THF     H4 6462   2.860   1.148   1.723  1.1681 -0.8188  0.2946
  317THF     H5 6463   2.717   1.198   1.820 -0.6318 -2.5563  1.2706
  317THF     H6 6464   3.009   1.301   2.060  0.2771 -0.3605 -0.6833
  317THF     H7 6465   2.833   1.299   2.069 -0.4585 -1.2738  0.3722
  317THF     C8 6466   2.937   1.107   2.014  0.1071  0.2219  0.4969
  317THF     C9 6467   2.839   1.055   1.911  0.1090 -0.2130 -0.0825
  317THF    H10 6468   2.917   1.070   2.115  0.5934 -0.4190  0.3621
  317THF    H11 6469   3.039   1.091   1.979 -0.6997 -1.0387 -1.4352
  317THF    H12 6470   2.858   0.957   1.867  0.3558  0.3447 -1.2313
  317THF    H13 6471   2.748   1.040   1.969  0.6411 -0.4291  0.7171
  318THF     O1 6472   2.690   4.950   3.798 -0.2100  0.2756  0.3665
  318THF     C2 6473   2.825   4.946   3.750 -0.1988  0.3384 -0.1971
  318THF     C3 6474   2.629   4.833   3.751 -0.5344 -0.4962 -0.3518
  318THF     H4 6475   2.883   4.867   3.798 -0.1801 -1.2443 -2.6383
  318THF     H5 6476   2.884   5.036   3.762  0.1787  0.0313  0.2876
  318THF     H6 6477   2.662   4.748   3.809  2.7371  3.4792  4.4646
  318THF     H7 6478   2.524   4.840   3.780  0.0626  0.5251  1.7726
  318THF     C8 6479   2.654   4.837   3.602 -0.5542  1.0119 -1.0614
  318THF     C9 6480   2.803   4.896   3.597 -0.2736 -0.0577 -0.7013
  318THF    H10 6481   2.587   4.904   3.549  0.0505  2.9648  0.4672
  318THF    H11 6482   2.652   4.734   3.568 -1.2992  0.9582 -0.8658
  318THF    H12 6483   2.880   4.824   3.570  1.0382  1.7413 -2.0184
  318THF    H13 6484   2.817   4.980   3.529 -0.8789 -0.7041 -1.6507
  319THF     O1 6485   1.381   1.048   1.532 -0.4841  0.7504  0.2205
  319THF     C2 6486   1.291   0.939   1.522 -0.1621 -0.2353 -0.0897
  319THF     C3 6487   1.363   1.130   1.417 -0.0258 -0.1931 -0.2478
  319THF     H4 6488   1.194   0.974   1.556 -0.0804 -0.3455  0.2562
  319THF     H5 6489   1.322   0.857   1.586 -0.6754  0.1656  0.6822
  319THF     H6 6490   1.277   1.195   1.431  0.6026  1.2077 -2.3570
  319THF     H7 6491   1.453   1.189   1.401 -0.1939  0.1918  0.1944
  319THF     C8 6492   1.345   1.026   1.309 -0.4520  0.4209  0.3297
  319THF     C9 6493   1.282   0.900   1.376 -0.1664 -0.0334 -0.1310
  319THF    H10 6494   1.441   0.994   1.268 -0.4249 -0.1566  0.8329
  319THF    H11 6495   1.280   1.058   1.227  0.1275 -1.2290 -0.8113
  319THF    H12 6496   1.178   0.878   1.350 -0.0199  0.0378 -0.7913
  319THF    H13 6497   1.335   0.805   1.377  0.1510  0.1101  1.9202
  320THF     O1 6498   1.290   5.206   1.161  0.0130 -0.4313  0.5224
  320THF     C2 6499   1.279   5.263   1.027  0.2816  0.1028  0.4986
  320THF     C3 6500   1.329   5.320   1.235 -0.2974 -0.0778 -0.2622
  320THF     H4 6501   1.218   5.186   0.980  1.0799  0.4922 -1.2473
  320THF     H5 6502   1.378   5.253   0.983  0.5016  0.2040  0.9699
  320THF     H6 6503   1.295   5.297   1.336  0.8183  1.7618  0.5902
  320THF     H7 6504   1.433   5.351   1.221 -0.0491 -0.4802  0.6032
  320THF     C8 6505   1.236   5.428   1.179  0.4409 -0.5353  0.0644
  320THF     C9 6506   1.228   5.401   1.029  0.3125  0.0607 -0.2636
  320THF    H10 6507   1.278   5.527   1.197  0.7822 -0.3309 -1.6978
  320THF    H11 6508   1.135   5.423   1.219  0.5198  0.6137  0.4266
  320THF    H12 6509   1.131   5.420   0.982  0.4647  0.6159 -0.3539
  320THF    H13 6510   1.305   5.459   0.980  1.1796 -1.3114 -0.5701
  321THF     O1 6511   1.008   0.956   4.254 -0.2075 -0.0263  0.5572
  321THF     C2 6512   1.066   0.832   4.225  0.0090 -0.0818 -0.7023
  321THF     C3 6513   1.112   1.053   4.247 -0.3438  0.0580  0.0572
  321THF     H4 6514   0.989   0.764   4.189 -0.3185  0.4570 -1.0214
  321THF     H5 6515   1.109   0.785   4.314 -1.8845 -0.4235  0.0738
  321THF     H6 6516   1.073   1.154   4.234  0.9087  0.2517 -2.9807
  321THF     H7 6517   1.171   1.053   4.339 -1.2556 -1.6403  0.6865
  321THF     C8 6518   1.200   1.009   4.134  0.2780 -0.1145 -0.7679
  321THF     C9 6519   1.170   0.862   4.119  0.4031 -0.1181  0.1129
  321THF    H10 6520   1.306   1.021   4.156  0.2725 -0.4637 -0.5400
  321THF    H11 6521   1.178   1.072   4.048  1.1243  0.5959 -0.4725
  321THF    H12 6522   1.133   0.848   4.018  1.4374 -1.2846 -0.1280
  321THF    H13 6523   1.250   0.789   4.130  1.8429  1.3737  0.0345
  322THF     O1 6524   4.280   1.931   4.155 -0.2797 -0.8311 -0.2064
  322THF     C2 6525   4.156   1.876   4.165 -0.4488 -0.0924  0.1826
  322THF     C3 6526   4.322   1.979   4.277 -0.0304  0.0248  0.5781
  322THF     H4 6527   4.160   1.779   4.115  2.0000  0.9754 -1.9469
  322THF     H5 6528   4.096   1.946   4.108 -0.4774 -0.4366 -0.2196
  322THF     H6 6529   4.431   1.969   4.279 -0.0413 -0.0132  1.9889
  322THF     H7 6530   4.299   2.083   4.295 -0.6159  0.1181 -0.6245
  322THF     C8 6531   4.249   1.884   4.379  0.3343  0.0408  0.5871
  322THF     C9 6532   4.113   1.861   4.309  0.2207 -0.0404 -0.2389
  322THF    H10 6533   4.246   1.936   4.475  0.5682  0.3074  0.4497
  322THF    H11 6534   4.304   1.793   4.406  2.6948  1.6574  1.5828
  322THF    H12 6535   4.074   1.760   4.322 -1.9057  0.7390 -0.1354
  322THF    H13 6536   4.034   1.933   4.332  0.1740  0.3872 -1.6350
  323THF     O1 6537   4.146   5.470   0.761  0.1879  0.5138 -0.4211
  323THF     C2 6538   4.163   5.396   0.642 -0.3468 -0.7279  0.6216
  323THF     C3 6539   4.264   5.525   0.815  0.0921 -0.2379 -0.5288
  323THF     H4 6540   4.143   5.462   0.557 -1.7414 -0.4494  1.1448
  323THF     H5 6541   4.085   5.323   0.623 -0.3622 -0.7825  0.8942
  323THF     H6 6542   4.247   5.632   0.825 -0.5371 -0.2229 -1.5897
  323THF     H7 6543   4.281   5.467   0.906 -1.1210 -1.7915 -1.2436
  323THF     C8 6544   4.364   5.490   0.708 -0.1576  0.4259 -0.2623
  323THF     C9 6545   4.308   5.360   0.644 -0.2735 -1.0086 -0.4681
  323THF    H10 6546   4.462   5.468   0.752  0.6913  2.1215 -1.2102
  323THF    H11 6547   4.379   5.574   0.641  0.9393  1.1829  0.8707
  323THF    H12 6548   4.352   5.343   0.546  1.4040 -3.5285  0.6218
  323THF    H13 6549   4.331   5.275   0.708 -0.8675  0.0638  1.2371
  324THF     O1 6550   0.742   1.046   1.161 -0.4384  0.2231  0.2718
  324THF     C2 6551   0.828   1.099   1.068  0.0869  0.5283  0.0007
  324THF     C3 6552   0.788   1.080   1.285 -0.2702 -0.0078 -0.3744
  324THF     H4 6553   0.795   1.201   1.052 -0.0772  0.3729 -0.6999
  324THF     H5 6554   0.805   1.047   0.975 -2.2775  0.4899  0.5371
  324THF     H6 6555   0.758   1.183   1.307 -0.5487 -0.2153  0.2400
  324THF     H7 6556   0.753   1.009   1.360  0.6432 -0.3685 -0.2709
  324THF     C8 6557   0.942   1.069   1.269 -0.5735 -0.1615 -0.2852
  324THF     C9 6558   0.971   1.089   1.120  0.4574  0.2876  0.9649
  324THF    H10 6559   0.978   0.971   1.301  2.5513  0.7609 -0.7182
  324THF    H11 6560   0.980   1.137   1.345  0.5493 -1.3661  0.2788
  324THF    H12 6561   1.016   1.186   1.098  1.1594 -0.6001 -1.8962
  324THF    H13 6562   1.032   1.013   1.072  0.7925  1.1173  0.0430
  325THF     O1 6563   0.782   1.007   1.989 -0.1817 -0.3365 -0.4858
  325THF     C2 6564   0.724   0.886   1.965  0.0526 -0.5956 -0.2181
  325THF     C3 6565   0.730   1.064   2.109  0.5336 -0.7696  0.2741
  325THF     H4 6566   0.775   0.809   2.023 -0.5425 -0.6579  0.2318
  325THF     H5 6567   0.726   0.863   1.859 -0.9325 -0.3812 -0.2945
  325THF     H6 6568   0.794   1.030   2.191 -0.4750 -0.7778  1.0723
  325THF     H7 6569   0.739   1.172   2.100 -2.3919 -0.5254 -0.5548
  325THF     C8 6570   0.581   1.018   2.114  0.3962  0.0114 -0.2201
  325THF     C9 6571   0.575   0.915   2.005  0.4124 -0.3511  0.6854
  325THF    H10 6572   0.521   1.106   2.089 -0.9114 -0.7099  0.2905
  325THF    H11 6573   0.551   0.981   2.212 -0.7130 -0.0479 -0.5664
  325THF    H12 6574   0.519   0.822   2.018 -3.7280  1.9598  1.2544
  325THF    H13 6575   0.520   0.966   1.925  2.7309  0.9481 -0.1670
  326THF     O1 6576   0.986   2.062   5.191 -0.4021  0.4141  0.4937
  326THF     C2 6577   0.973   2.192   5.133 -0.2885  0.0974 -0.6118
  326THF     C3 6578   0.892   1.981   5.121  0.0136  0.7009 -0.5682
  326THF     H4 6579   1.076   2.218   5.108 -1.1139  2.7905 -1.6473
  326THF     H5 6580   0.922   2.260   5.201 -1.1902 -1.5487  0.4011
  326THF     H6 6581   0.920   1.875   5.118 -0.8168  0.2196  3.1789
  326THF     H7 6582   0.802   1.989   5.182 -0.0204 -0.5987 -0.4038
  326THF     C8 6583   0.872   2.045   4.982 -0.0389 -0.1362  0.0389
  326THF     C9 6584   0.888   2.193   5.007 -0.2558  0.9895  0.3122
  326THF    H10 6585   0.782   2.024   4.925  0.2010  0.1687 -0.4545
  326THF    H11 6586   0.955   2.011   4.920  0.1110  0.0911  0.1128
  326THF    H12 6587   0.930   2.238   4.917  1.2684 -2.7468 -1.0626
  326THF    H13 6588   0.789   2.232   5.028 -0.6674  0.1575 -0.0691
  327THF     O1 6589   2.862   2.129   3.591  0.5991 -0.0608 -0.0139
  327THF     C2 6590   2.780   2.223   3.655  0.3988  0.7558 -0.3871
  327THF     C3 6591   2.952   2.189   3.500 -0.6710  0.0339 -0.2309
  327THF     H4 6592   2.745   2.180   3.749  0.3199  0.4862 -0.5408
  327THF     H5 6593   2.698   2.257   3.592 -0.3411 -0.3190 -0.0295
  327THF     H6 6594   3.037   2.124   3.483 -1.2632 -0.1958 -2.7139
  327THF     H7 6595   2.891   2.204   3.410 -0.8069  1.1332  0.0282
  327THF     C8 6596   2.983   2.328   3.570 -0.7708 -0.1049 -0.1121
  327THF     C9 6597   2.885   2.337   3.682  0.3483  0.2738  0.1621
  327THF    H10 6598   2.970   2.416   3.507  1.8533  1.3454  1.1877
  327THF    H11 6599   3.082   2.344   3.613 -0.2863 -1.5996 -0.6254
  327THF    H12 6600   2.927   2.314   3.779 -0.0907 -0.5070  0.1766
  327THF    H13 6601   2.838   2.435   3.690  0.8495  0.4433  1.1505
  328THF     O1 6602   5.115   4.261   1.700  0.7399  0.0700  0.2459
  328THF     C2 6603   5.175   4.139   1.719  0.6910 -0.7836 -0.1550
  328THF     C3 6604   5.160   4.351   1.801 -0.8012 -0.3616 -0.1960
  328THF     H4 6605   5.220   4.093   1.631 -0.5547  0.3099 -1.4246
  328THF     H5 6606   5.092   4.075   1.750 -1.7831  1.6839 -1.2263
  328THF     H6 6607   5.233   4.414   1.751 -3.0853  0.0205 -3.3704
  328THF     H7 6608   5.074   4.412   1.827 -1.2659 -0.8253 -0.6177
  328THF     C8 6609   5.215   4.271   1.914  0.6550  0.0889 -0.2955
  328THF     C9 6610   5.269   4.152   1.842 -0.3366 -0.0181 -0.0308
  328THF    H10 6611   5.131   4.242   1.977  0.4978  0.8947 -0.1253
  328THF    H11 6612   5.287   4.320   1.980 -1.4657  0.6462  1.7125
  328THF    H12 6613   5.370   4.172   1.806  0.0619  0.8951  1.5200
  328THF    H13 6614   5.261   4.060   1.899  1.3851  0.5453  1.1815
  329THF     O1 6615   1.166   1.924   0.051  0.2873 -0.5736 -0.0527
  329THF     C2 6616   1.076   1.905   0.161  0.0209 -0.5914  0.1242
  329THF     C3 6617   1.128   2.039  -0.018 -0.2154 -0.1315 -0.6358
  329THF     H4 6618   1.106   1.828   0.231  1.0600  0.3211  0.7156
  329THF     H5 6619   0.977   1.871   0.133  0.1506 -0.7018 -0.2073
  329THF     H6 6620   1.205   2.073  -0.088  0.6833  1.1949  0.9132
  329THF     H7 6621   1.042   2.011  -0.077 -0.6845 -2.5257  1.0619
  329THF     C8 6622   1.100   2.139   0.095 -0.2896 -1.1286 -0.2160
  329THF     C9 6623   1.053   2.057   0.210 -0.1399  0.5781 -0.8078
  329THF    H10 6624   1.030   2.221   0.077  0.2965 -0.5505  0.0787
  329THF    H11 6625   1.195   2.182   0.127  0.2628 -1.1283 -1.7634
  329THF    H12 6626   1.108   2.071   0.303  1.6199  1.2998 -1.8982
  329THF    H13 6627   0.946   2.068   0.227  0.0468 -0.8449  1.6247
  330THF     O1 6628   1.959   0.355   1.412 -0.2924 -0.1544 -0.2105
  330THF     C2 6629   2.022   0.477   1.383  0.0868  0.4027 -0.3747
  330THF     C3 6630   1.832   0.366   1.356  0.0336  0.5944 -0.8723
  330THF     H4 6631   2.125   0.480   1.417  0.9825  1.0910 -2.9280
  330THF     H5 6632   1.965   0.557   1.430 -0.2855  0.0632 -0.2389
  330THF     H6 6633   1.796   0.264   1.371 -0.1979  0.7543 -0.3037
  330THF     H7 6634   1.761   0.434   1.404  0.0473  0.4781 -0.6870
  330THF     C8 6635   1.870   0.404   1.210  0.0880  0.8384  0.4867
  330THF     C9 6636   2.004   0.475   1.236  0.5888  0.1344  0.5613
  330THF    H10 6637   1.802   0.470   1.156 -0.0499  1.0130  0.8736
  330THF    H11 6638   1.885   0.309   1.160 -0.6971  0.2426  1.3519
  330THF    H12 6639   2.086   0.413   1.199 -0.1933 -1.3697  1.2726
  330THF    H13 6640   1.999   0.575   1.194  0.0805 -1.4988 -3.8245
  331THF     O1 6641   0.017   0.261   0.688 -0.1012  0.6307 -0.4727
  331THF     C2 6642  -0.114   0.208   0.725 -0.4137  0.0345  0.5472
  331THF     C3 6643   0.087   0.305   0.807  0.5091 -0.1898  0.0899
  331THF     H4 6644  -0.103   0.099   0.722 -1.1913 -0.0407  0.2318
  331THF     H5 6645  -0.194   0.229   0.654 -1.0193 -2.7924  0.2695
  331THF     H6 6646   0.123   0.216   0.858  0.9301 -1.5611 -2.4183
  331THF     H7 6647   0.165   0.377   0.782 -0.3183  0.4188 -0.8464
  331THF     C8 6648  -0.028   0.364   0.892  0.6086  0.7195  0.0233
  331THF     C9 6649  -0.146   0.260   0.866 -0.0135 -0.5608  0.1380
  331THF    H10 6650  -0.061   0.467   0.877 -0.5005  0.4359  0.4032
  331THF    H11 6651  -0.007   0.355   0.998 -1.6420 -0.2472  0.4454
  331THF    H12 6652  -0.152   0.180   0.940 -2.2153 -0.0401  0.6034
  331THF    H13 6653  -0.241   0.313   0.872  0.3602  0.3384 -1.3701
  332THF     O1 6654   0.410   2.919   0.069  0.1684 -0.2065  0.3227
  332THF     C2 6655   0.303   2.920  -0.031 -0.4418 -0.1080 -0.4950
  332THF     C3 6656   0.356   2.859   0.189 -0.1511 -0.1004  0.3224
  332THF     H4 6657   0.297   2.819  -0.074 -1.6340  0.7134 -2.4194
  332THF     H5 6658   0.325   2.983  -0.117  2.9997  1.5944  1.4540
  332THF     H6 6659   0.370   2.752   0.205 -1.0887 -0.3439 -0.3544
  332THF     H7 6660   0.398   2.915   0.273  1.4912  0.3356 -0.7346
  332THF     C8 6661   0.205   2.879   0.183  0.1009 -0.4351 -0.1596
  332THF     C9 6662   0.182   2.956   0.055 -0.0263  0.1057  0.6389
  332THF    H10 6663   0.162   2.939   0.263 -1.2896 -1.2858 -0.2406
  332THF    H11 6664   0.156   2.782   0.173 -0.0577 -0.3108 -0.6448
  332THF    H12 6665   0.088   2.913   0.020  0.3760 -0.0582 -0.2432
  332THF    H13 6666   0.166   3.061   0.079  0.4331  0.6694 -1.3538
  333THF     O1 6667   4.360   3.794   1.871  0.4897  0.3076 -0.0780
  333THF     C2 6668   4.270   3.742   1.962 -0.3547 -0.1302 -0.0003
  333THF     C3 6669   4.438   3.695   1.812 -0.0648 -0.1720 -0.1098
  333THF     H4 6670   4.173   3.791   1.947 -0.6459 -0.2194  1.4524
  333THF     H5 6671   4.296   3.775   2.063  1.6030 -0.3251 -0.4131
  333THF     H6 6672   4.445   3.719   1.706 -2.1070  0.4628 -0.1434
  333THF     H7 6673   4.534   3.682   1.862  0.2535  2.3447  0.0958
  333THF     C8 6674   4.351   3.568   1.817 -0.4615 -0.0024 -0.3409
  333THF     C9 6675   4.275   3.592   1.939 -0.3137 -0.3530  0.8442
  333THF    H10 6676   4.414   3.479   1.826  0.3651  0.3569 -2.0927
  333THF    H11 6677   4.289   3.553   1.729 -1.1759 -2.6103  0.5164
  333THF    H12 6678   4.175   3.547   1.936 -0.0978 -0.9032  1.6006
  333THF    H13 6679   4.326   3.552   2.026  0.0322  0.3741  0.9809
  334THF     O1 6680   5.433   4.370   3.010  0.1687 -0.1050 -0.0692
  334THF     C2 6681   5.432   4.395   2.872 -0.8122  0.1633  0.2663
  334THF     C3 6682   5.539   4.279   3.030  0.5419  0.2962 -0.1106
  334THF     H4 6683   5.522   4.448   2.840 -0.9108  0.2627  0.1535
  334THF     H5 6684   5.344   4.441   2.828  0.1561  0.5106 -1.4079
  334THF     H6 6685   5.633   4.334   3.036  0.4589  0.4820 -0.5313
  334THF     H7 6686   5.521   4.229   3.125 -1.7133  0.7457 -0.2560
  334THF     C8 6687   5.525   4.178   2.915 -0.1816 -0.0508 -0.0620
  334THF     C9 6688   5.446   4.256   2.817  0.5291  0.7088  0.1615
  334THF    H10 6689   5.490   4.078   2.942  0.5487 -1.0435 -2.4960
  334THF    H11 6690   5.628   4.170   2.878 -0.2821 -2.5815  0.0108
  334THF    H12 6691   5.493   4.245   2.720 -0.7635 -1.2640 -0.3123
  334THF    H13 6692   5.346   4.211   2.817  1.4564 -1.5016  0.8206
  335THF     O1 6693   4.002   1.196   5.257 -0.4285  0.0525  0.4172
  335THF     C2 6694   4.070   1.289   5.338  0.0460 -0.1510 -0.1902
  335THF     C3 6695   4.096   1.148   5.164  0.0804  0.8735 -0.2815
  335THF     H4 6696   4.016   1.307   5.432  0.6285 -1.5405  0.4289
  335THF     H5 6697   4.068   1.385   5.285  1.9391  1.3597  2.2241
  335THF     H6 6698   4.062   1.053   5.123  0.9359 -0.8240  2.6699
  335THF     H7 6699   4.121   1.220   5.086  3.2574  0.3232  0.0979
  335THF     C8 6700   4.207   1.110   5.260 -0.0883  0.3097  0.0218
  335THF     C9 6701   4.205   1.221   5.369 -0.3464 -0.5915 -0.1459
  335THF    H10 6702   4.303   1.101   5.209  0.7927 -0.4149  1.7139
  335THF    H11 6703   4.185   1.018   5.313  0.5828  0.1364  0.0168
  335THF    H12 6704   4.215   1.190   5.473 -1.1387  0.1123  0.1483
  335THF    H13 6705   4.289   1.290   5.364 -1.2053  0.8310  2.9003
  336THF     O1 6706   4.338   4.577   0.371 -0.1723  0.2079 -0.7680
  336THF     C2 6707   4.465   4.597   0.424 -0.8857  0.2564 -0.2169
  336THF     C3 6708   4.347   4.518   0.242  0.2081  0.3173  0.3021
  336THF     H4 6709   4.471   4.588   0.533  2.3128  2.4205 -0.0898
  336THF     H5 6710   4.496   4.699   0.402  2.3690  0.3425  3.6356
  336THF     H6 6711   4.256   4.473   0.203  0.5239  0.3312 -0.4762
  336THF     H7 6712   4.379   4.603   0.182 -1.0479 -0.1668 -1.1376
  336THF     C8 6713   4.455   4.417   0.270  0.5822 -0.4191 -0.5341
  336THF     C9 6714   4.550   4.493   0.363  0.0177  0.6793 -0.2682
  336THF    H10 6715   4.503   4.387   0.177 -2.2464  0.7872 -2.5076
  336THF    H11 6716   4.415   4.330   0.321 -1.4591  1.1098  0.5892
  336THF    H12 6717   4.595   4.427   0.437 -1.1221 -1.3429 -1.2700
  336THF    H13 6718   4.632   4.536   0.306  1.0984  0.1549  0.8535
  337THF     O1 6719   2.624   5.337   2.068  0.3824  0.1201  0.6680
  337THF     C2 6720   2.624   5.342   2.208  0.1082 -0.6468 -0.5806
  337THF     C3 6721   2.734   5.421   2.021  0.1558  0.3494 -1.1047
  337THF     H4 6722   2.690   5.275   2.265 -0.5612 -0.1729  0.8098
  337THF     H5 6723   2.524   5.315   2.242 -1.1834  1.7802 -2.1501
  337THF     H6 6724   2.832   5.375   2.032 -0.2478 -0.8483 -2.2579
  337THF     H7 6725   2.727   5.438   1.914  1.1915 -0.5796 -1.3276
  337THF     C8 6726   2.715   5.546   2.104 -0.4466  0.7089 -0.1240
  337THF     C9 6727   2.644   5.497   2.234 -0.2548  0.0281 -0.0468
  337THF    H10 6728   2.653   5.617   2.049 -0.9444  1.6252  1.5466
  337THF    H11 6729   2.804   5.598   2.139  2.0472 -1.5242 -2.6701
  337THF    H12 6730   2.697   5.516   2.327 -1.3684  0.5557  0.4899
  337THF    H13 6731   2.546   5.544   2.236 -0.5144 -0.5278  0.5558
  338THF     O1 6732   2.815   2.484   1.843  0.1829 -0.0132 -0.5015
  338THF     C2 6733   2.897   2.576   1.927  0.1397  0.3437 -0.3512
  338THF     C3 6734   2.779   2.373   1.926  0.9674 -0.2726 -0.2182
  338THF     H4 6735   2.899   2.681   1.896  0.6638  0.0754 -1.2700
  338THF     H5 6736   3.000   2.543   1.921 -0.2777 -1.8356  2.7010
  338THF     H6 6737   2.691   2.323   1.884 -1.2287  1.2049  2.3047
  338THF     H7 6738   2.863   2.304   1.936 -0.2823 -1.8040  0.2129
  338THF     C8 6739   2.751   2.434   2.063  0.5111  0.5722  0.3267
  338THF     C9 6740   2.851   2.550   2.070 -0.4221  0.0133 -0.3067
  338THF    H10 6741   2.758   2.351   2.134 -2.3540  0.0328  0.0929
  338THF    H11 6742   2.651   2.474   2.078  0.0356 -0.3784 -0.1918
  338THF    H12 6743   2.816   2.651   2.093  0.8099  1.2435 -3.2303
  338THF    H13 6744   2.941   2.540   2.131  0.1720  2.0664 -0.7636
  339THF     O1 6745   4.108   4.807   2.792 -0.0311 -0.0000  0.1019
  339THF     C2 6746   4.003   4.889   2.821  0.0949 -0.3397 -0.0207
  339THF     C3 6747   4.130   4.737   2.907  0.1085  0.6099 -0.0765
  339THF     H4 6748   3.911   4.832   2.811  1.1517 -1.6718 -3.7076
  339THF     H5 6749   4.016   4.967   2.746  1.0091 -0.8114 -0.3625
  339THF     H6 6750   4.049   4.671   2.938  0.0697  0.8630  0.3644
  339THF     H7 6751   4.221   4.677   2.900 -0.1186  0.2478  0.0959
  339THF     C8 6752   4.147   4.842   3.017 -0.1030 -0.0576 -0.3830
  339THF     C9 6753   4.036   4.940   2.966 -0.3830 -0.3144  0.8317
  339THF    H10 6754   4.236   4.903   3.008  0.7699 -1.3550 -0.7652
  339THF    H11 6755   4.122   4.812   3.119  1.3797 -1.0934 -0.3038
  339THF    H12 6756   3.951   4.934   3.033 -0.9585 -2.4625 -0.0085
  339THF    H13 6757   4.081   5.039   2.971  0.1864 -0.4649 -0.6647
  340THF     O1 6758   0.750   0.341   4.515 -0.1256  0.0829 -0.1488
  340THF     C2 6759   0.742   0.454   4.603  0.1656 -0.5286 -0.1182
  340THF     C3 6760   0.870   0.344   4.444  0.2010 -0.3279  0.4344
  340THF     H4 6761   0.673   0.435   4.685  1.5868 -0.0864  1.2361
  340THF     H5 6762   0.721   0.553   4.562  0.0382 -0.2049  0.6962
  340THF     H6 6763   0.905   0.241   4.437 -1.2697 -0.7316 -3.0141
  340THF     H7 6764   0.856   0.372   4.340  2.4628 -1.4389 -0.2178
  340THF     C8 6765   0.959   0.442   4.521 -0.4809 -0.3748  0.2429
  340THF     C9 6766   0.884   0.462   4.655 -0.0076  0.7424 -0.2979
  340THF    H10 6767   0.953   0.536   4.466 -1.9028 -0.1531  0.7401
  340THF    H11 6768   1.061   0.411   4.541 -0.0786  0.3232 -0.6667
  340THF    H12 6769   0.903   0.376   4.719 -2.1489  0.5538  0.1826
  340THF    H13 6770   0.926   0.548   4.708 -0.9058 -0.0575  1.8218
  341THF     O1 6771   3.343   3.300   1.454 -0.0996 -0.1398  0.4282
  341THF     C2 6772   3.406   3.426   1.477  0.8619 -0.2061  0.6135
  341THF     C3 6773   3.445   3.205   1.408  0.3138  0.6131 -1.1506
  341THF     H4 6774   3.348   3.477   1.553  0.6298 -1.6676  1.4326
  341THF     H5 6775   3.380   3.466   1.379 -0.6350  0.0555  1.1040
  341THF     H6 6776   3.413   3.107   1.442 -0.6937  1.0845 -0.6895
  341THF     H7 6777   3.471   3.202   1.302  1.0786  1.7583 -1.0097
  341THF     C8 6778   3.573   3.248   1.494  0.3988  0.4251 -0.0647
  341THF     C9 6779   3.557   3.403   1.488 -0.8813 -0.3301  0.3282
  341THF    H10 6780   3.666   3.204   1.461  0.4211  1.7151 -1.8676
  341THF    H11 6781   3.558   3.212   1.596 -0.1683 -0.9020 -0.6078
  341THF    H12 6782   3.574   3.447   1.586 -3.0888  0.8889  0.2312
  341THF    H13 6783   3.620   3.436   1.405 -1.4043 -4.1160 -1.7504
  342THF     O1 6784   4.383   3.015   1.640  0.1205 -0.5272  0.2687
  342THF     C2 6785   4.333   3.117   1.559  0.4468 -0.2319 -0.5621
  342THF     C3 6786   4.478   3.073   1.737  0.1372  0.4893  0.3330
  342THF     H4 6787   4.236   3.086   1.520  0.1458 -2.8259  1.8988
  342THF     H5 6788   4.400   3.144   1.478  0.6104  1.8460  0.2070
  342THF     H6 6789   4.500   3.002   1.816  1.8046  2.9719  2.2544
  342THF     H7 6790   4.569   3.103   1.685  0.0620 -1.6674 -1.1785
  342THF     C8 6791   4.394   3.186   1.787  0.0327 -0.3987  0.2843
  342THF     C9 6792   4.325   3.232   1.659 -0.0895 -0.7227 -0.0762
  342THF    H10 6793   4.463   3.259   1.829  2.2223 -1.7559 -0.8029
  342THF    H11 6794   4.322   3.156   1.863  1.3151 -0.3509  1.5475
  342THF    H12 6795   4.228   3.282   1.666 -0.3033 -1.1929  0.3479
  342THF    H13 6796   4.395   3.309   1.626  2.3191 -2.9851 -0.5959
  343THF     O1 6797   0.879   1.716   1.871  0.1670  0.1979 -0.2854
  343THF     C2 6798   0.772   1.667   1.956 -0.2544 -0.1656 -0.0467
  343THF     C3 6799   1.004   1.678   1.919 -0.0353  0.3166 -0.3361
  343THF     H4 6800   0.703   1.598   1.908 -2.0133  0.7988  0.9702
  343THF     H5 6801   0.704   1.748   1.986 -1.2635 -1.3195  0.8787
  343THF     H6 6802   1.072   1.652   1.839  0.4018  1.8616 -0.4936
  343THF     H7 6803   1.040   1.771   1.963 -1.7518  1.5018 -1.3473
  343THF     C8 6804   0.977   1.565   2.026 -0.8833  0.6784  0.3905
  343THF     C9 6805   0.846   1.615   2.081 -0.7426  0.2239 -0.0938
  343THF    H10 6806   1.044   1.567   2.112 -2.0718  2.0113  1.3439
  343THF    H11 6807   0.974   1.467   1.980 -0.6592  1.1919 -0.7574
  343THF    H12 6808   0.785   1.543   2.137  0.2868 -0.8449 -0.3069
  343THF    H13 6809   0.864   1.696   2.152 -2.3827  1.2645 -0.8045
  344THF     O1 6810   4.757   1.371   2.828  0.1287 -0.1588  0.1039
  344THF     C2 6811   4.765   1.287   2.712  0.8136 -0.4791 -0.2846
  344THF     C3 6812   4.617   1.383   2.864 -0.5091  0.7224  0.0915
  344THF     H4 6813   4.864   1.250   2.685  2.0423  3.0677 -1.2081
  344THF     H5 6814   4.744   1.351   2.626  3.0581 -0.1263 -0.6456
  344THF     H6 6815   4.596   1.401   2.970 -0.4122 -1.4985  0.5561
  344THF     H7 6816   4.570   1.450   2.793 -0.1174  0.1434 -0.7272
  344THF     C8 6817   4.565   1.247   2.837  0.3460 -0.3494 -0.4108
  344THF     C9 6818   4.656   1.183   2.744 -1.1709  0.0951  0.6666
  344THF    H10 6819   4.468   1.258   2.788  0.0237  1.8670  0.5815
  344THF    H11 6820   4.571   1.180   2.923  2.1609 -1.2577 -1.1981
  344THF    H12 6821   4.702   1.093   2.784  1.5491  1.0026 -0.2036
  344THF    H13 6822   4.607   1.153   2.652 -2.3534 -1.3261  1.7129
  345THF     O1 6823   3.727   4.049   5.043  0.3219 -0.7838  0.1489
  345THF     C2 6824   3.784   4.085   5.170  0.3481 -0.4724 -0.2309
  345THF     C3 6825   3.587   4.015   5.057 -0.6817 -0.5859 -0.0309
  345THF     H4 6826   3.829   4.184   5.174  1.2786 -0.8752 -0.5019
  345THF     H5 6827   3.855   4.008   5.201 -1.0687 -1.7749 -0.1256
  345THF     H6 6828   3.532   4.107   5.034  0.2642 -0.7205 -3.4480
  345THF     H7 6829   3.553   3.935   4.991 -2.1444 -1.1858  1.3920
  345THF     C8 6830   3.575   3.976   5.203  0.2231 -1.4421  0.3633
  345THF     C9 6831   3.669   4.075   5.267  0.2855  0.1427  0.5828
  345THF    H10 6832   3.595   3.871   5.224  0.0721 -1.3530  0.9530
  345THF    H11 6833   3.472   4.001   5.230 -0.3828 -0.6400 -2.3361
  345THF    H12 6834   3.624   4.174   5.264 -0.2456 -0.1182 -0.9643
  345THF    H13 6835   3.697   4.037   5.365 -1.5013  0.8682  1.4231
  346THF     O1 6836   5.164   5.242   0.263 -0.4277 -0.1361  1.0245
  346THF     C2 6837   5.148   5.136   0.168 -0.2454  0.5304  0.9895
  346THF     C3 6838   5.186   5.189   0.396 -0.7907 -0.2245  0.2376
  346THF     H4 6839   5.193   5.149   0.070 -0.4995 -1.7526  0.5209
  346THF     H5 6840   5.050   5.089   0.164 -0.4395  0.9918 -0.2630
  346THF     H6 6841   5.266   5.244   0.445  0.1255  2.1294 -3.4683
  346THF     H7 6842   5.099   5.208   0.459 -1.1918 -0.4697 -0.2339
  346THF     C8 6843   5.215   5.044   0.389 -0.7348 -0.1400 -0.7529
  346THF     C9 6844   5.250   5.036   0.238 -0.1029  0.0632  0.0230
  346THF    H10 6845   5.131   4.976   0.405 -1.1396  0.2875 -1.0426
  346THF    H11 6846   5.293   5.014   0.459 -1.0911  2.0365  0.6603
  346THF    H12 6847   5.350   5.072   0.216 -0.2858  0.2523 -0.5235
  346THF    H13 6848   5.248   4.932   0.204  2.3753  0.3839 -1.2865
  347THF     O1 6849   4.338   2.531   3.071  0.2163 -0.1802 -0.2700
  347THF     C2 6850   4.240   2.440   3.118 -0.1173  0.2496  1.1633
  347THF     C3 6851   4.437   2.523   3.167 -0.2310 -0.2634 -0.2129
  347THF     H4 6852   4.285   2.342   3.108 -1.4817 -0.2212 -0.9450
  347THF     H5 6853   4.146   2.434   3.063  0.0234 -1.2614  1.0421
  347THF     H6 6854   4.497   2.432   3.154  1.2018  0.4315  1.1837
  347THF     H7 6855   4.501   2.611   3.159 -0.4401 -0.1591 -0.7452
  347THF     C8 6856   4.353   2.528   3.295 -0.0440  0.8380  0.0802
  347THF     C9 6857   4.217   2.477   3.258  0.4914 -0.0848  0.0804
  347THF    H10 6858   4.359   2.632   3.326 -0.2483  0.7162  0.5439
  347THF    H11 6859   4.394   2.471   3.378 -1.8474 -0.9747 -0.1888
  347THF    H12 6860   4.195   2.382   3.307  1.4219 -0.5802 -0.4366
  347THF    H13 6861   4.141   2.555   3.263  0.2664 -0.1939 -1.3121
  348THF     O1 6862   1.106   3.805   5.463 -0.3351 -0.3848  0.5878
  348THF     C2 6863   1.208   3.902   5.455 -0.5928  0.6949  0.6232
  348THF     C3 6864   0.985   3.873   5.511  0.0140  0.3293  0.0845
  348THF     H4 6865   1.218   3.919   5.348  0.2864  0.5876  0.6792
  348THF     H5 6866   1.304   3.864   5.491 -0.4505  0.3430 -0.0912
  348THF     H6 6867   0.924   3.911   5.430  1.0742 -2.0004 -1.9469
  348THF     H7 6868   0.920   3.818   5.580 -0.9574  2.4209  0.9194
  348THF     C8 6869   1.035   3.991   5.591 -0.1411 -0.4363  0.1311
  348THF     C9 6870   1.160   4.034   5.517  0.4023 -0.5537  0.6973
  348THF    H10 6871   1.057   3.953   5.691  0.7515 -1.2595 -0.3668
  348THF    H11 6872   0.952   4.062   5.599  0.6700  0.3987  1.5739
  348THF    H12 6873   1.126   4.114   5.451 -1.0013 -0.4019  1.5614
  348THF    H13 6874   1.231   4.073   5.589  0.7683 -0.1946  0.1522
  349THF     O1 6875   1.399   5.459   4.315  0.2830 -0.1219 -0.8345
  349THF     C2 6876   1.330   5.339   4.296  0.3135  0.3012 -0.1519
  349THF     C3 6877   1.339   5.525   4.428  0.3371  0.1576 -0.1612
  349THF     H4 6878   1.389   5.252   4.323 -1.4637 -0.8555  0.1931
  349THF     H5 6879   1.301   5.321   4.193  1.6379 -0.7752 -0.3600
  349THF     H6 6880   1.411   5.582   4.486  0.6794 -1.9179  1.5888
  349THF     H7 6881   1.282   5.604   4.380 -0.0029  0.6866  1.0527
  349THF     C8 6882   1.248   5.424   4.497  0.5770 -0.1174  0.2324
  349THF     C9 6883   1.203   5.339   4.384  0.2608  0.5652  0.0846
  349THF    H10 6884   1.160   5.465   4.548 -1.1570 -1.7592 -1.2791
  349THF    H11 6885   1.299   5.362   4.570  2.1505  1.3102  0.3885
  349THF    H12 6886   1.165   5.240   4.407  0.4462  0.9017  1.9480
  349THF    H13 6887   1.126   5.394   4.329 -0.6959 -1.0379 -0.2707
  350THF     O1 6888   0.080   0.654   3.584 -0.3999 -0.4462  0.2898
  350THF     C2 6889   0.062   0.685   3.444  0.4384  0.2833  0.1372
  350THF     C3 6890  -0.048   0.622   3.642 -0.0980 -0.6647 -0.5128
  350THF     H4 6891   0.154   0.672   3.388  0.6896  1.5869  0.2176
  350THF     H5 6892   0.032   0.789   3.440  2.4398  0.8755 -0.4247
  350THF     H6 6893  -0.033   0.572   3.737  1.1737 -0.2072 -0.4541
  350THF     H7 6894  -0.103   0.712   3.667 -0.8516 -1.3191  0.2285
  350THF     C8 6895  -0.124   0.548   3.537  0.3427 -0.0220 -0.9652
  350THF     C9 6896  -0.045   0.576   3.410 -0.1482  0.0195 -0.4916
  350THF    H10 6897  -0.221   0.596   3.528 -0.0257 -0.8724 -1.5964
  350THF    H11 6898  -0.133   0.442   3.561  0.7729  0.4952  1.9202
  350THF    H12 6899   0.003   0.481   3.386 -1.2680 -0.5390 -0.6102
  350THF    H13 6900  -0.106   0.608   3.325  0.1462  3.6545  0.4829
  351THF     O1 6901   4.138   2.133   0.373 -0.3119 -0.7993 -0.4519
  351THF     C2 6902   4.083   2.237   0.295 -0.2246  0.6709 -0.3726
  351THF     C3 6903   4.091   2.158   0.504  0.8921 -0.4948  0.2267
  351THF     H4 6904   3.975   2.227   0.288 -0.1410 -0.0051 -0.7855
  351THF     H5 6905   4.118   2.234   0.191  2.2498 -0.6396  0.4193
  351THF     H6 6906   3.982   2.152   0.509  0.8274 -0.0664 -0.6244
  351THF     H7 6907   4.138   2.092   0.578 -2.6627 -1.8006  1.5486
  351THF     C8 6908   4.143   2.304   0.516  0.0283 -1.1011 -0.2300
  351THF     C9 6909   4.133   2.354   0.373 -0.5491 -0.2230  0.5621
  351THF    H10 6910   4.245   2.322   0.550  1.3764  0.0965 -4.2677
  351THF    H11 6911   4.081   2.351   0.592 -1.3066 -3.4437  0.2270
  351THF    H12 6912   4.054   2.427   0.356 -1.0939 -1.0665 -0.6461
  351THF    H13 6913   4.225   2.392   0.329  0.3864 -0.6850  2.0553
  352THF     O1 6914   1.520   2.472   0.493  0.0988  0.0397 -0.3528
  352THF     C2 6915   1.582   2.355   0.546  0.5115 -0.6566 -0.1153
  352THF     C3 6916   1.542   2.578   0.586  0.6057  0.1231  0.6381
  352THF     H4 6917   1.662   2.335   0.476  0.7554  0.3339 -0.1374
  352THF     H5 6918   1.504   2.279   0.557 -1.1163  1.0033  0.4815
  352THF     H6 6919   1.552   2.677   0.540  0.8523 -1.1489 -2.2757
  352THF     H7 6920   1.451   2.584   0.645 -1.7327 -1.7694 -2.4618
  352THF     C8 6921   1.675   2.547   0.654  0.4670 -1.1465  0.0379
  352THF     C9 6922   1.649   2.403   0.680 -0.2004  0.0289 -0.4041
  352THF    H10 6923   1.694   2.590   0.753 -3.8084 -3.7553  2.2814
  352THF    H11 6924   1.767   2.556   0.596 -0.3252  2.7924 -0.9330
  352THF    H12 6925   1.737   2.342   0.699 -0.7016 -1.0055 -1.3513
  352THF    H13 6926   1.581   2.382   0.763  2.2301  0.5532  1.8636
  353THF     O1 6927   1.433   3.579   4.945 -0.1589 -0.0643  0.2735
  353THF     C2 6928   1.465   3.478   4.846  0.8431  0.3261 -0.3247
  353THF     C3 6929   1.368   3.501   5.049  0.3351  0.1360  0.3627
  353THF     H4 6930   1.549   3.418   4.879 -0.7379 -1.0155  1.4543
  353THF     H5 6931   1.496   3.525   4.753  0.3264 -1.6241 -1.5460
  353THF     H6 6932   1.423   3.427   5.107  1.9771 -0.0811 -1.4063
  353THF     H7 6933   1.328   3.573   5.121 -1.1115  0.6299 -0.8645
  353THF     C8 6934   1.271   3.421   4.968 -0.2361  0.5158 -0.7250
  353THF     C9 6935   1.334   3.397   4.832 -0.0224  0.3900  0.3508
  353THF    H10 6936   1.182   3.483   4.960 -0.9354 -0.6024 -2.3934
  353THF    H11 6937   1.235   3.328   5.014  0.6489  1.4973  2.1337
  353THF    H12 6938   1.363   3.296   4.804  2.2372  1.3211 -0.8999
  353THF    H13 6939   1.278   3.443   4.750  3.6577 -0.0931 -2.7161
  354THF     O1 6940   4.549   1.197   5.302 -0.0241 -0.1751  0.3288
  354THF     C2 6941   4.550   1.061   5.336  0.6740  0.7067 -0.7290
  354THF     C3 6942   4.628   1.263   5.400 -0.0327  0.7355  0.0896
  354THF     H4 6943   4.533   0.996   5.249 -0.4674  1.0331 -0.7727
  354THF     H5 6944   4.474   1.028   5.407  1.6433  2.0070  0.9967
  354THF     H6 6945   4.669   1.359   5.370 -0.0725  1.5116  2.2921
  354THF     H7 6946   4.557   1.286   5.480 -4.0166  0.0626 -2.9061
  354THF     C8 6947   4.739   1.163   5.439 -0.2286 -1.0156  0.5774
  354THF     C9 6948   4.689   1.032   5.390  0.3031  0.0973  0.4610
  354THF    H10 6949   4.775   1.167   5.542  2.9710  1.4010 -0.4681
  354THF    H11 6950   4.824   1.183   5.374 -0.6704 -1.0822 -0.0227
  354THF    H12 6951   4.752   0.991   5.310  0.5803  1.5624 -0.1141
  354THF    H13 6952   4.694   0.958   5.469  0.0579 -0.3157  0.0953
  355THF     O1 6953   5.229   1.645   3.681 -0.0620  0.0836 -0.2672
  355THF     C2 6954   5.110   1.702   3.717  0.3341  0.8047  0.1159
  355THF     C3 6955   5.230   1.503   3.683 -0.2484  0.0527 -0.9797
  355THF     H4 6956   5.097   1.803   3.677 -3.3735 -0.5319 -2.6813
  355THF     H5 6957   5.102   1.714   3.825 -1.7468 -2.5737  0.5066
  355THF     H6 6958   5.315   1.466   3.625  0.8229 -0.3292  0.7305
  355THF     H7 6959   5.229   1.465   3.786  0.1247 -0.2143 -1.0734
  355THF     C8 6960   5.089   1.487   3.622  0.4535 -0.0974 -0.4231
  355THF     C9 6961   5.001   1.598   3.680 -0.3244 -0.1131 -0.4236
  355THF    H10 6962   5.042   1.391   3.641  0.1253  0.0306 -0.5855
  355THF    H11 6963   5.082   1.500   3.514  1.1359  1.9625 -0.2735
  355THF    H12 6964   4.923   1.647   3.622 -1.0317  1.3194  1.6285
  355THF    H13 6965   4.959   1.557   3.771 -2.4104  1.4183 -0.6128
  356THF     O1 6966   4.679   3.614   4.057 -0.0107 -0.2800  0.4716
  356THF     C2 6967   4.646   3.481   4.067 -0.1812  0.1971 -0.5584
  356THF     C3 6968   4.582   3.684   3.978 -0.1428  0.2100  0.2211
  356THF     H4 6969   4.697   3.429   4.148  0.1531 -0.3589 -1.1134
  356THF     H5 6970   4.672   3.441   3.969  1.8010 -1.3425  0.5031
  356THF     H6 6971   4.568   3.790   4.001 -2.4008  0.1739 -0.7381
  356THF     H7 6972   4.613   3.692   3.874  1.9715  0.2659  0.8039
  356THF     C8 6973   4.451   3.601   3.999 -0.8271 -0.7902  0.5016
  356THF     C9 6974   4.494   3.481   4.077 -1.4843  0.4666 -0.2733
  356THF    H10 6975   4.395   3.596   3.906  0.1814  2.1578 -0.3954
  356THF    H11 6976   4.398   3.668   4.066  0.4689  1.0588 -0.2083
  356THF    H12 6977   4.476   3.506   4.181 -1.4208  2.9466 -0.7895
  356THF    H13 6978   4.444   3.387   4.057 -1.5856 -0.4275  3.5978
  357THF     O1 6979   1.949   4.901   0.851  0.1408 -0.4973 -0.5231
  357THF     C2 6980   2.022   4.812   0.764 -0.1445  0.4147  0.1744
  357THF     C3 6981   1.906   4.826   0.965 -0.0657  0.2373 -0.1456
  357THF     H4 6982   2.130   4.822   0.758  0.1307 -1.1767  1.8572
  357THF     H5 6983   1.978   4.802   0.664  2.4177 -4.1730 -0.7813
  357THF     H6 6984   1.908   4.880   1.060  0.0538 -0.3252  0.1789
  357THF     H7 6985   1.799   4.811   0.953 -0.2005 -0.6879  1.8172
  357THF     C8 6986   1.976   4.697   0.963 -0.1006 -0.2910 -0.7908
  357THF     C9 6987   2.002   4.674   0.817  0.0116 -0.0539 -0.9382
  357THF    H10 6988   1.908   4.620   0.998  1.1829 -1.9846 -1.7870
  357THF    H11 6989   2.066   4.707   1.024 -0.7745 -1.0196  0.3576
  357THF    H12 6990   2.085   4.605   0.804 -0.4028 -1.3408  2.2320
  357THF    H13 6991   1.918   4.619   0.776 -0.0448 -0.6421 -0.0609
  358THF     O1 6992   5.382   1.122   1.235 -0.2188  0.3895  0.3109
  358THF     C2 6993   5.465   1.230   1.189  0.0357  0.2346 -0.6429
  358THF     C3 6994   5.446   1.001   1.194  0.1862  0.4161 -0.2580
  358THF     H4 6995   5.552   1.245   1.253  0.7115  0.9150 -1.6811
  358THF     H5 6996   5.412   1.325   1.201  1.6715  0.9875  1.2372
  358THF     H6 6997   5.527   0.959   1.253  0.5268 -1.5985 -2.0185
  358THF     H7 6998   5.382   0.914   1.175 -0.0201  0.2961  0.9104
  358THF     C8 6999   5.493   1.045   1.054 -0.0462 -0.4629  0.2621
  358THF     C9 7000   5.498   1.195   1.048  0.2536 -0.2365  0.2350
  358THF    H10 7001   5.421   1.006   0.981  0.3264  0.8855 -0.8565
  358THF    H11 7002   5.580   0.984   1.028  1.3616  1.8168 -0.6154
  358THF    H12 7003   5.590   1.244   1.017  0.7774  0.7291  2.9931
  358THF    H13 7004   5.410   1.227   0.993  0.5445 -1.6905 -1.1310
  359THF     O1 7005   4.234   4.211   5.150  0.0754  0.0917 -0.4608
  359THF     C2 7006   4.277   4.141   5.037 -0.2148  0.3470  0.2802
  359THF     C3 7007   4.169   4.126   5.238  0.4353  0.3642 -0.1972
  359THF     H4 7008   4.368   4.180   4.992 -0.0569  0.9947  1.1364
  359THF     H5 7009   4.200   4.133   4.960 -0.4301 -1.2480  0.6057
  359THF     H6 7010   4.200   4.140   5.342 -0.0866 -3.9607  0.7269
  359THF     H7 7011   4.065   4.158   5.241  0.9395  2.3860 -1.5951
  359THF     C8 7012   4.197   3.977   5.206  0.1068  0.0387  1.0998
  359THF     C9 7013   4.295   4.005   5.088 -1.0213  0.1649 -0.0064
  359THF    H10 7014   4.113   3.925   5.159  0.8933 -1.8971  1.7741
  359THF    H11 7015   4.242   3.915   5.283 -2.2065  0.3554  2.8042
  359THF    H12 7016   4.395   3.992   5.129 -1.5584  0.5682  1.4598
  359THF    H13 7017   4.289   3.933   5.006 -0.1730  1.1629 -0.9906
  360THF     O1 7018   1.609   1.826   0.382  0.2781 -0.6456 -0.2541
  360THF     C2 7019   1.506   1.881   0.468  0.3129 -0.5317  0.2407
  360THF     C3 7020   1.647   1.695   0.438 -0.1316 -0.2758  0.1445
  360THF     H4 7021   1.415   1.853   0.413  1.4177  0.2936 -2.1670
  360THF     H5 7022   1.516   1.989   0.479 -0.8370 -0.4600  0.7108
  360THF     H6 7023   1.621   1.615   0.368  0.1349  0.7054 -1.1059
  360THF     H7 7024   1.754   1.678   0.437 -0.2067 -1.0670 -2.5115
  360THF     C8 7025   1.592   1.679   0.578  0.1038  0.4086  0.9156
  360THF     C9 7026   1.528   1.815   0.603  0.0566 -0.2921  0.6291
  360THF    H10 7027   1.656   1.649   0.661  1.4674  0.3485 -0.1247
  360THF    H11 7028   1.507   1.612   0.588  0.2761 -0.0596 -0.5544
  360THF    H12 7029   1.435   1.796   0.657 -0.6750 -0.6368 -0.7259
  360THF    H13 7030   1.590   1.888   0.656 -0.9369 -0.4526  2.0813
  361THF     O1 7031   4.175   3.162   3.570  0.0688 -0.0020 -0.5031
  361THF     C2 7032   4.210   3.266   3.485 -0.1333 -0.2706  0.5063
  361THF     C3 7033   4.081   3.219   3.666  0.3409  0.1958  1.4906
  361THF     H4 7034   4.131   3.293   3.415 -1.2601  2.1257  2.5682
  361THF     H5 7035   4.301   3.250   3.427 -0.5351  1.1125 -0.5641
  361THF     H6 7036   3.982   3.233   3.622  0.8696  0.0202  0.1945
  361THF     H7 7037   4.078   3.168   3.762  0.7780 -0.7845  0.9977
  361THF     C8 7038   4.138   3.363   3.687  0.1795  0.2775  0.3441
  361THF     C9 7039   4.237   3.384   3.573  0.8488  0.0619 -0.2796
  361THF    H10 7040   4.189   3.372   3.783  1.4426  2.0476 -0.4530
  361THF    H11 7041   4.065   3.444   3.680 -1.0447 -0.9247 -1.7680
  361THF    H12 7042   4.208   3.481   3.534  1.1928 -0.0551 -0.8329
  361THF    H13 7043   4.340   3.391   3.610  0.6324  1.1331  0.1579
  362THF     O1 7044   2.032   4.130   3.704  0.2910  0.1391 -0.1383
  362THF     C2 7045   2.143   4.201   3.651 -0.3886  0.7393 -0.7310
  362THF     C3 7046   1.933   4.228   3.745 -0.5944  0.1975  0.0633
  362THF     H4 7047   2.217   4.129   3.615 -0.7567 -0.9663  1.6355
  362THF     H5 7048   2.181   4.251   3.740 -2.0513 -0.6454  0.8385
  362THF     H6 7049   1.836   4.180   3.740 -1.0617  1.1964 -0.8290
  362THF     H7 7050   1.949   4.264   3.847 -2.0521 -1.4487  0.9242
  362THF     C8 7051   1.941   4.344   3.640 -0.5206  0.1301 -0.6126
  362THF     C9 7052   2.070   4.295   3.561  0.0778 -0.6393 -0.2874
  362THF    H10 7053   1.964   4.440   3.686  0.1272 -0.2079 -0.2227
  362THF    H11 7054   1.850   4.353   3.581  0.2254  2.9394 -1.4981
  362THF    H12 7055   2.042   4.245   3.468 -1.8604 -2.1605  1.0099
  362THF    H13 7056   2.129   4.382   3.534  0.3617 -0.3865  1.0715
  363THF     O1 7057   3.975   2.509   2.750  0.4687 -0.5477  0.3173
  363THF     C2 7058   3.875   2.583   2.677  0.0284 -0.3940  1.1278
  363THF     C3 7059   4.091   2.521   2.661 -0.2002  0.7229  0.4904
  363THF     H4 7060   3.789   2.605   2.740 -1.1092  1.0113 -0.7999
  363THF     H5 7061   3.831   2.536   2.589 -1.2231  3.5577 -0.6192
  363THF     H6 7062   4.186   2.501   2.711  0.4604  1.1270 -0.5739
  363THF     H7 7063   4.065   2.451   2.581 -0.8141  1.8230 -0.2942
  363THF     C8 7064   4.091   2.665   2.611  0.4155  0.3430 -0.1465
  363THF     C9 7065   3.947   2.704   2.627  0.3247 -0.2588 -0.3031
  363THF    H10 7066   4.112   2.676   2.504  1.0292  0.4550 -0.0197
  363THF    H11 7067   4.150   2.734   2.672 -1.3105  1.9973 -0.2458
  363THF    H12 7068   3.945   2.787   2.697  0.0664 -1.2198  0.8700
  363THF    H13 7069   3.911   2.730   2.528 -3.0072 -0.0474  0.8420
  364THF     O1 7070   5.320   0.606   4.744  0.0551  0.2348  0.5286
  364THF     C2 7071   5.394   0.488   4.755 -0.4739  0.4757  0.0490
  364THF     C3 7072   5.211   0.581   4.660  0.7953 -0.2182 -0.4290
  364THF     H4 7073   5.354   0.424   4.834 -0.4429  1.5225  0.9351
  364THF     H5 7074   5.492   0.514   4.796  0.3728  0.4735 -1.9022
  364THF     H6 7075   5.135   0.526   4.717  1.5575 -0.6447  0.1937
  364THF     H7 7076   5.168   0.669   4.612 -0.2515 -0.8047 -0.5909
  364THF     C8 7077   5.261   0.481   4.553  0.5490  0.4274  0.6988
  364THF     C9 7078   5.391   0.416   4.618  0.5253 -0.7368 -0.7841
  364THF    H10 7079   5.298   0.532   4.464  1.0530 -1.6395 -0.3445
  364THF    H11 7080   5.181   0.414   4.520  0.8111  0.7348 -0.6059
  364THF    H12 7081   5.384   0.308   4.631  0.2217 -0.6358 -0.0293
  364THF    H13 7082   5.484   0.427   4.562  1.3854 -0.8553  0.5811
  365THF     O1 7083   3.616   1.031   1.345  0.2871 -0.2989  0.7564
  365THF     C2 7084   3.707   1.056   1.240 -0.4945 -0.3413  0.2628
  365THF     C3 7085   3.555   0.907   1.328 -0.2188 -0.2985 -0.2222
  365THF     H4 7086   3.803   1.011   1.265 -0.1457 -0.2400 -0.8389
  365THF     H5 7087   3.718   1.163   1.218 -2.0556 -0.4286 -1.1185
  365THF     H6 7088   3.626   0.832   1.364  0.6824 -0.9093 -2.9965
  365THF     H7 7089   3.462   0.903   1.385 -0.5368 -1.6227 -0.7905
  365THF     C8 7090   3.545   0.894   1.177 -0.0919 -0.0599  0.5893
  365THF     C9 7091   3.637   0.998   1.124  0.6358 -0.0962  0.8807
  365THF    H10 7092   3.444   0.896   1.138 -0.1539  0.4758  0.7649
  365THF    H11 7093   3.580   0.795   1.148 -0.5001 -0.2091  0.5993
  365THF    H12 7094   3.704   0.952   1.050 -0.0042 -1.2017  0.9614
  365THF    H13 7095   3.578   1.070   1.068 -0.3729 -1.3212  0.3241
  366THF     O1 7096   3.408   5.128   0.439 -0.2757  0.0806 -0.3287
  366THF     C2 7097   3.305   5.027   0.436 -0.0932 -0.6573 -0.3856
  366THF     C3 7098   3.504   5.097   0.338  0.0102 -0.3014  0.1116
  366THF     H4 7099   3.228   5.042   0.360 -1.8028 -2.0477  0.9719
  366THF     H5 7100   3.256   5.025   0.533  1.0492  0.7229  0.2382
  366THF     H6 7101   3.453   5.105   0.242  0.2533 -0.9553 -0.0755
  366THF     H7 7102   3.600   5.148   0.340 -0.5506  0.8025 -0.0327
  366THF     C8 7103   3.524   4.951   0.350  0.8910  1.1560 -0.1998
  366THF     C9 7104   3.387   4.901   0.416 -0.5892  0.2909 -0.0297
  366THF    H10 7105   3.609   4.926   0.413 -0.9344 -1.0459  1.5526
  366THF    H11 7106   3.541   4.906   0.252  0.0849  1.3747 -0.4469
  366THF    H12 7107   3.339   4.816   0.367  0.4488  0.3551 -1.2038
  366THF    H13 7108   3.409   4.860   0.514  0.7557 -1.8729 -1.1641
  367THF     O1 7109   4.232   3.981   3.306 -0.3333 -0.4043  0.1711
  367THF     C2 7110   4.208   3.847   3.253 -0.5671 -0.6621 -0.1666
  367THF     C3 7111   4.289   3.976   3.432 -0.7901 -0.4548 -0.2089
  367THF     H4 7112   4.285   3.804   3.190  0.3675 -0.2904  0.6975
  367THF     H5 7113   4.112   3.850   3.202 -0.0076 -3.6488 -1.6303
  367THF     H6 7114   4.379   4.034   3.450 -0.3195 -1.1901 -0.1262
  367THF     H7 7115   4.206   4.022   3.485 -1.3285  0.5332 -1.8351
  367THF     C8 7116   4.310   3.832   3.470  0.5145 -0.4287  0.9357
  367THF     C9 7117   4.200   3.765   3.385 -0.6345 -0.6809  0.0633
  367THF    H10 7118   4.291   3.810   3.575  0.9523 -0.8327  0.9364
  367THF    H11 7119   4.410   3.793   3.451  0.8741  0.7175  0.3949
  367THF    H12 7120   4.215   3.657   3.384  1.3650 -0.4892  1.7029
  367THF    H13 7121   4.104   3.784   3.433 -1.6126 -0.3980 -1.9247
  368THF     O1 7122   4.348   3.943   4.647 -0.2768  0.3146  0.4080
  368THF     C2 7123   4.452   3.994   4.726  0.1537 -0.1971  0.4475
  368THF     C3 7124   4.276   4.054   4.603 -0.0867  0.0009 -0.2648
  368THF     H4 7125   4.538   3.929   4.737  1.0786  0.4885 -1.9500
  368THF     H5 7126   4.416   4.024   4.824  0.0860  0.7936  0.1338
  368THF     H6 7127   4.194   4.032   4.535  0.3956  1.0637 -1.2207
  368THF     H7 7128   4.223   4.090   4.691  2.1669  2.0657  0.3570
  368THF     C8 7129   4.375   4.158   4.561  0.6333  1.0846 -0.1014
  368THF     C9 7130   4.494   4.114   4.642  1.0969  0.4175  0.5819
  368THF    H10 7131   4.332   4.254   4.589 -2.0280 -0.0234 -0.1826
  368THF    H11 7132   4.404   4.170   4.456 -1.2732  0.2556 -0.7505
  368THF    H12 7133   4.576   4.078   4.580 -0.3416  1.2308 -1.8970
  368THF    H13 7134   4.530   4.192   4.709  0.9712  0.1293  0.9901
  369THF     O1 7135   1.556   3.857   0.383  0.6801 -0.1344 -0.4400
  369THF     C2 7136   1.525   3.787   0.506 -0.2033  0.1335 -0.3364
  369THF     C3 7137   1.460   3.840   0.281  0.0183  0.1558 -0.3486
  369THF     H4 7138   1.568   3.855   0.580 -0.1157 -0.2812 -0.0012
  369THF     H5 7139   1.587   3.697   0.514 -2.7752 -1.8413 -1.1989
  369THF     H6 7140   1.424   3.939   0.255  0.3963  0.5961  0.7348
  369THF     H7 7141   1.519   3.793   0.203  0.3795 -0.6271  0.3811
  369THF     C8 7142   1.347   3.756   0.345 -0.5358 -0.0835 -0.0948
  369THF     C9 7143   1.377   3.753   0.499  0.4660 -0.4879  0.2978
  369THF    H10 7144   1.364   3.657   0.302  0.9608  1.0852 -2.4100
  369THF    H11 7145   1.247   3.796   0.326 -0.2326  0.1278 -1.3501
  369THF    H12 7146   1.339   3.841   0.550  1.4991  0.5683 -0.6884
  369THF    H13 7147   1.353   3.662   0.554 -0.0714 -0.0514  0.7996
  370THF     O1 7148   3.329   0.276   2.619  0.0427 -0.1853 -0.6450
  370THF     C2 7149   3.226   0.358   2.553  0.0577 -0.5771 -0.2828
  370THF     C3 7150   3.283   0.146   2.635  0.1009  0.0790 -0.3543
  370THF     H4 7151   3.233   0.373   2.445 -1.7670  1.7754 -0.1398
  370THF     H5 7152   3.224   0.454   2.604  0.4942  0.1731 -1.6264
  370THF     H6 7153   3.292   0.091   2.540  0.7553  0.8338 -0.7394
  370THF     H7 7154   3.329   0.084   2.712 -0.2066 -0.4907 -0.6152
  370THF     C8 7155   3.138   0.173   2.681 -0.5007  0.5876  0.1852
  370THF     C9 7156   3.103   0.282   2.581 -0.1418  0.0567 -0.4382
  370THF    H10 7157   3.140   0.227   2.776  0.3477 -0.1146  0.5842
  370THF    H11 7158   3.064   0.093   2.675 -0.7540  0.9337 -2.6675
  370THF    H12 7159   3.052   0.241   2.494 -2.7317 -2.0676  1.9029
  370THF    H13 7160   3.022   0.350   2.607 -1.5856 -1.3908 -1.0512
  371THF     O1 7161   2.604   5.377   3.570  0.2772  0.2578  0.2667
  371THF     C2 7162   2.487   5.325   3.518  0.0749  0.6489  0.2383
  371THF     C3 7163   2.643   5.294   3.680 -0.2743 -0.8315  0.5712
  371THF     H4 7164   2.501   5.223   3.483 -0.2895 -0.1748  2.3615
  371THF     H5 7165   2.431   5.389   3.449 -0.4400 -0.8731 -0.8033
  371THF     H6 7166   2.702   5.208   3.649  0.4546 -0.5247  1.1047
  371THF     H7 7167   2.714   5.350   3.739  1.7451 -3.2252  0.5703
  371THF     C8 7168   2.517   5.240   3.747 -0.2879  0.7703 -0.1671
  371THF     C9 7169   2.411   5.301   3.651 -0.4298  0.0733  0.6193
  371THF    H10 7170   2.505   5.277   3.848  0.8138 -0.0165  0.2615
  371THF    H11 7171   2.513   5.131   3.744  1.3384  0.5419  2.7752
  371THF    H12 7172   2.330   5.230   3.639 -0.5951  0.2726  0.5433
  371THF    H13 7173   2.373   5.399   3.680  1.1859  1.0082 -0.2768
  372THF     O1 7174   4.935   0.716   2.632  0.2601 -0.1829  0.1319
  372THF     C2 7175   5.042   0.654   2.564  0.1081  0.0369 -0.5242
  372THF     C3 7176   4.862   0.792   2.536  0.2705  0.3063  1.2156
  372THF     H4 7177   5.087   0.568   2.613 -1.3427  0.2117  1.2076
  372THF     H5 7178   5.112   0.738   2.563 -0.9810  1.2011  3.1389
  372THF     H6 7179   4.763   0.828   2.561 -1.6254 -1.3152 -2.9285
  372THF     H7 7180   4.924   0.880   2.518  0.1799  0.1738  0.2012
  372THF     C8 7181   4.869   0.706   2.401 -0.2942  0.0708 -0.0291
  372THF     C9 7182   4.994   0.623   2.420 -0.4435 -0.0620 -0.2153
  372THF    H10 7183   4.877   0.765   2.310 -2.3697 -1.2882 -1.1813
  372THF    H11 7184   4.787   0.633   2.402 -0.8298  0.6447  1.7882
  372THF    H12 7185   4.971   0.516   2.419 -3.2268  0.4606 -0.0781
  372THF    H13 7186   5.074   0.648   2.351 -1.9112  0.0490 -1.9563
  373THF     O1 7187   5.001   0.982   2.244 -0.4136  0.0244 -0.1173
  373THF     C2 7188   5.126   0.925   2.218 -0.2910  0.8300  0.8173
  373THF     C3 7189   5.010   1.117   2.225  0.0681  0.5238 -0.1392
  373THF     H4 7190   5.136   0.913   2.110  1.5047 -0.0612  1.0415
  373THF     H5 7191   5.136   0.828   2.267 -0.8812  0.1106 -0.4176
  373THF     H6 7192   4.991   1.142   2.120 -0.2443 -2.4059 -0.8697
  373THF     H7 7193   4.940   1.168   2.292 -1.7522  1.0877 -2.3367
  373THF     C8 7194   5.150   1.159   2.263 -0.3479  0.3981 -0.6352
  373THF     C9 7195   5.228   1.027   2.277 -0.8730  0.3092  0.0564
  373THF    H10 7196   5.147   1.208   2.360  0.7721  0.2213 -0.5055
  373THF    H11 7197   5.192   1.225   2.188  1.7014  0.0526  0.1428
  373THF    H12 7198   5.327   1.018   2.232 -1.0462  0.7350 -0.4100
  373THF    H13 7199   5.239   1.015   2.385 -3.7793 -0.8201  0.3217
  374THF     O1 7200   0.339   1.252   2.744 -0.7754  0.0080  0.5035
  374THF     C2 7201   0.270   1.219   2.625  0.1793  0.0360  0.7547
  374THF     C3 7202   0.421   1.371   2.713  0.3236  0.3980  0.0614
  374THF     H4 7203   0.181   1.278   2.604  0.0020 -1.0710 -2.0080
  374THF     H5 7204   0.233   1.117   2.622 -1.5065  0.6275 -0.8035
  374THF     H6 7205   0.354   1.456   2.710  0.2888  0.4660  1.6923
  374THF     H7 7206   0.497   1.389   2.790  0.3857 -0.5133  0.2281
  374THF     C8 7207   0.491   1.319   2.587 -0.7516  0.1242  1.0015
  374THF     C9 7208   0.374   1.245   2.514  0.1226 -0.6087 -0.2177
  374THF    H10 7209   0.560   1.246   2.628 -0.7844 -0.2652  0.3793
  374THF    H11 7210   0.536   1.392   2.519 -1.3990  1.0466  1.5393
  374THF    H12 7211   0.326   1.306   2.437 -0.0103 -0.1495  0.2190
  374THF    H13 7212   0.411   1.157   2.461  2.7875  0.7791 -0.8395
  375THF     O1 7213   0.853   0.609   1.839 -0.0069 -0.1343  0.5010
  375THF     C2 7214   0.986   0.608   1.870 -0.3012  0.6056  0.2275
  375THF     C3 7215   0.824   0.642   1.710  0.1216 -0.0185 -0.0432
  375THF     H4 7216   1.029   0.508   1.875  0.6886  1.0680  1.8497
  375THF     H5 7217   1.013   0.655   1.965 -0.2895  1.8536 -0.3622
  375THF     H6 7218   0.836   0.552   1.650 -0.7577  1.3159 -2.3481
  375THF     H7 7219   0.719   0.670   1.699  0.6517  1.5121 -1.5982
  375THF     C8 7220   0.936   0.738   1.677 -0.7176  0.0991  0.2151
  375THF     C9 7221   1.049   0.664   1.746 -0.3372 -0.3141  0.2038
  375THF    H10 7222   0.925   0.833   1.729 -1.0669  0.3183 -0.2452
  375THF    H11 7223   0.949   0.762   1.571  0.3501  0.6861  0.4606
  375THF    H12 7224   1.079   0.580   1.683  0.3538 -0.1914  0.3585
  375THF    H13 7225   1.137   0.724   1.770 -1.0319  0.6314  0.4538
  376THF     O1 7226   3.232   3.343   3.720  0.2290  0.1490  0.1386
  376THF     C2 7227   3.302   3.463   3.689 -0.0352  0.2347 -0.3899
  376THF     C3 7228   3.325   3.257   3.778  0.4047  0.8696  0.0144
  376THF     H4 7229   3.239   3.549   3.663 -1.2947 -0.6912 -0.5100
  376THF     H5 7230   3.360   3.437   3.601  0.3164 -2.3779  0.5310
  376THF     H6 7231   3.283   3.184   3.848  1.1471  1.5650  1.2199
  376THF     H7 7232   3.389   3.210   3.703  0.4839  0.4065  0.3623
  376THF     C8 7233   3.424   3.346   3.857  0.1705  0.7370 -0.1596
  376THF     C9 7234   3.403   3.486   3.801 -0.4382  0.9669  0.1617
  376THF    H10 7235   3.525   3.308   3.846 -0.7849 -2.8786  1.9371
  376THF    H11 7236   3.404   3.346   3.964  1.2823 -1.2957  0.0835
  376THF    H12 7237   3.360   3.543   3.882  0.4057 -0.4963  1.7095
  376THF    H13 7238   3.487   3.543   3.760 -0.8488  0.7342 -1.0469
  377THF     O1 7239   1.794   5.471   4.720  0.3672 -0.8071 -0.2406
  377THF     C2 7240   1.657   5.511   4.707  0.4502  0.0258 -0.4069
  377THF     C3 7241   1.814   5.388   4.836 -0.0971  0.6211  0.3312
  377THF     H4 7242   1.635   5.507   4.600 -0.4711  1.9864 -0.3384
  377THF     H5 7243   1.643   5.607   4.757 -0.4859 -0.2478 -0.1279
  377THF     H6 7244   1.910   5.336   4.838 -0.5346 -0.1903  0.6073
  377THF     H7 7245   1.821   5.460   4.918  1.3388 -1.4794  2.1750
  377THF     C8 7246   1.688   5.297   4.829  0.0281 -0.1597  0.7070
  377THF     C9 7247   1.585   5.390   4.771  0.0236 -0.0558  0.0915
  377THF    H10 7248   1.662   5.252   4.924  1.2503 -1.2793  0.5263
  377THF    H11 7249   1.710   5.213   4.764 -2.1725 -1.4272  1.5149
  377THF    H12 7250   1.518   5.350   4.695  1.0827 -0.8940 -0.4279
  377THF    H13 7251   1.526   5.426   4.855 -0.9522  0.2320 -0.7055
  378THF     O1 7252   1.947   4.436   0.505  0.2821 -0.6724  0.3432
  378THF     C2 7253   1.858   4.542   0.483  0.2805 -0.3902  0.9096
  378THF     C3 7254   1.885   4.324   0.446 -0.4349  0.3183 -0.1908
  378THF     H4 7255   1.904   4.641   0.485  2.5669 -1.3856  0.3372
  378THF     H5 7256   1.766   4.533   0.540 -1.4267  1.1775 -1.4012
  378THF     H6 7257   1.965   4.252   0.430 -0.9909  0.0727 -2.2174
  378THF     H7 7258   1.805   4.289   0.512 -1.0211  2.0423  0.0632
  378THF     C8 7259   1.819   4.373   0.312  0.2819 -0.2297 -0.5145
  378THF     C9 7260   1.812   4.527   0.339 -0.0451 -0.3765 -0.6729
  378THF    H10 7261   1.724   4.320   0.303 -0.2705 -0.1425  3.2055
  378THF    H11 7262   1.887   4.346   0.231  1.0951 -2.1933  0.7448
  378THF    H12 7263   1.885   4.578   0.274 -0.3201 -0.9774 -1.4687
  378THF    H13 7264   1.719   4.580   0.321  1.1719  1.7316 -1.1487
  379THF     O1 7265   4.430   3.677   2.802 -0.0497  0.3120 -0.2345
  379THF     C2 7266   4.339   3.776   2.847 -0.3801 -0.0191 -0.7451
  379THF     C3 7267   4.556   3.750   2.773  0.1561 -0.4040  0.5363
  379THF     H4 7268   4.368   3.812   2.945  0.8831 -1.8459 -0.4034
  379THF     H5 7269   4.234   3.752   2.868 -0.9011  1.7310 -1.1815
  379THF     H6 7270   4.630   3.743   2.854  3.0953 -2.0555 -2.0521
  379THF     H7 7271   4.600   3.709   2.682  0.9855  0.9187  0.3232
  379THF     C8 7272   4.506   3.901   2.756 -0.5326  0.4093  0.2541
  379THF     C9 7273   4.355   3.892   2.757  0.0626 -0.9858  0.0950
  379THF    H10 7274   4.540   3.931   2.657 -0.4327  0.0612  0.1831
  379THF    H11 7275   4.548   3.966   2.833 -0.2174  1.9220 -1.1478
  379THF    H12 7276   4.312   3.981   2.803 -0.5546 -1.3439  0.2218
  379THF    H13 7277   4.315   3.867   2.659  2.1824  1.4287 -1.5232
  380THF     O1 7278   0.656   2.044   1.853 -0.3476  0.0311 -0.4244
  380THF     C2 7279   0.609   2.131   1.752 -0.0085  0.3396  0.9719
  380THF     C3 7280   0.795   2.029   1.817  0.0010  0.4061 -0.4868
  380THF     H4 7281   0.518   2.182   1.783 -0.0628  2.3752 -2.0402
  380THF     H5 7282   0.588   2.085   1.655  2.3591 -1.7792  1.3530
  380THF     H6 7283   0.865   1.992   1.891  0.2622  1.7982 -0.0162
  380THF     H7 7284   0.800   1.962   1.731  1.2084 -0.4055  0.1890
  380THF     C8 7285   0.844   2.162   1.757 -0.6581  0.2277  0.5008
  380THF     C9 7286   0.714   2.239   1.743  0.0721 -0.2295  0.4430
  380THF    H10 7287   0.903   2.143   1.668 -0.2542 -0.6864  0.9421
  380THF    H11 7288   0.922   2.196   1.825  0.3841  1.6878 -1.3521
  380THF    H12 7289   0.703   2.300   1.832 -0.8283  0.8708 -0.3981
  380THF    H13 7290   0.693   2.292   1.651  1.8896  1.0295  0.7048
  381THF     O1 7291   2.425   2.262   1.051  0.1635  0.2945  0.0702
  381THF     C2 7292   2.305   2.205   1.093  0.2967  0.1375  0.2439
  381THF     C3 7293   2.429   2.397   1.095  0.4156  0.2796  0.4267
  381THF     H4 7294   2.302   2.194   1.201 -0.3047 -1.2652  0.1029
  381THF     H5 7295   2.279   2.110   1.047 -1.5476  0.4225  0.6317
  381THF     H6 7296   2.458   2.415   1.199 -0.5303 -0.4332  0.8269
  381THF     H7 7297   2.500   2.458   1.039  1.5097 -0.2943  1.1545
  381THF     C8 7298   2.281   2.438   1.076 -0.1038 -0.1454 -0.5903
  381THF     C9 7299   2.199   2.309   1.068  0.3925 -0.0754 -0.8010
  381THF    H10 7300   2.267   2.491   0.982 -3.1407  0.6778  0.2013
  381THF    H11 7301   2.248   2.499   1.160  0.8734  0.9476 -0.9773
  381THF    H12 7302   2.132   2.314   1.154 -0.8660  3.3244 -1.8075
  381THF    H13 7303   2.143   2.294   0.975 -1.2212 -2.1413  0.3941
  382THF     O1 7304   5.092   5.204   3.379  0.1159 -0.0276  0.0205
  382THF     C2 7305   5.113   5.079   3.452  0.6205 -1.2656  0.2047
  382THF     C3 7306   4.962   5.252   3.411  0.7936 -1.0106  0.6706
  382THF     H4 7307   5.214   5.038   3.454  1.0781 -0.2039 -0.3793
  382THF     H5 7308   5.055   5.002   3.401  2.1248 -2.3338  0.0575
  382THF     H6 7309   4.934   5.352   3.376 -0.5704 -0.8589  2.0989
  382THF     H7 7310   4.891   5.188   3.358 -0.2373  2.6339 -2.9011
  382THF     C8 7311   4.960   5.230   3.566 -0.3148  0.0626  0.2332
  382THF     C9 7312   5.067   5.120   3.586 -0.5808 -0.0016 -0.6029
  382THF    H10 7313   4.865   5.204   3.612 -0.3659 -0.3007 -0.0694
  382THF    H11 7314   4.992   5.314   3.628 -0.7234 -0.6484  1.4532
  382THF    H12 7315   5.146   5.159   3.651 -0.8323  1.1456 -0.9562
  382THF    H13 7316   5.030   5.033   3.641  2.3765 -0.3349  1.0667
  383THF     O1 7317   2.259   4.341   1.238  0.0231 -0.3068 -0.1497
  383THF     C2 7318   2.374   4.276   1.184 -0.2706  0.7562  0.4012
  383THF     C3 7319   2.254   4.470   1.182  0.4198 -0.7542 -0.2981
  383THF     H4 7320   2.334   4.232   1.093 -0.6230  1.3800  0.2469
  383THF     H5 7321   2.408   4.192   1.244 -1.4015  0.1138  0.1757
  383THF     H6 7322   2.203   4.462   1.086 -1.6063 -1.0825  0.7457
  383THF     H7 7323   2.196   4.532   1.251  1.5465 -0.3303  0.2920
  383THF     C8 7324   2.403   4.521   1.170  0.4849  0.3559 -0.1506
  383THF     C9 7325   2.479   4.391   1.163  0.0181  0.3195 -0.4226
  383THF    H10 7326   2.432   4.577   1.259  1.2541  0.7071 -0.6112
  383THF    H11 7327   2.408   4.585   1.082  0.1264 -0.6794 -0.9437
  383THF    H12 7328   2.522   4.385   1.063 -1.1290 -0.8685 -0.8841
  383THF    H13 7329   2.558   4.387   1.238 -0.6715 -1.6211  0.2638
  384THF     O1 7330   4.137   5.360   2.993 -0.3067 -0.3517  0.1043
  384THF     C2 7331   4.039   5.399   3.094  0.4772  0.0399  0.2112
  384THF     C3 7332   4.264   5.374   3.053  0.1627  0.2749  0.3259
  384THF     H4 7333   3.933   5.377   3.083 -0.3366  2.8009  1.7136
  384THF     H5 7334   4.042   5.506   3.112 -2.0266 -0.0185  1.3769
  384THF     H6 7335   4.333   5.298   3.017 -0.4027 -0.2937  0.4233
  384THF     H7 7336   4.296   5.476   3.032  1.5254  0.4282  2.8648
  384THF     C8 7337   4.239   5.368   3.205  0.3587 -0.3990 -0.0174
  384THF     C9 7338   4.093   5.344   3.222 -0.1824  0.8373  0.4570
  384THF    H10 7339   4.271   5.464   3.246  1.3890 -1.3884  1.6296
  384THF    H11 7340   4.297   5.294   3.260  0.5492 -0.9881 -0.9937
  384THF    H12 7341   4.065   5.239   3.227  0.9994  0.4713 -0.3564
  384THF    H13 7342   4.051   5.389   3.312 -2.1139 -0.4346  0.2704
  385THF     O1 7343   2.117   1.853   2.203 -0.2776  0.3993 -0.1407
  385THF     C2 7344   2.173   1.744   2.285  0.4012  0.4984  0.4027
  385THF     C3 7345   2.022   1.800   2.110 -0.3936  0.1921  0.4688
  385THF     H4 7346   2.150   1.773   2.388 -0.9697 -1.2978  0.6627
  385THF     H5 7347   2.278   1.728   2.264  0.2666 -3.5601  1.9563
  385THF     H6 7348   1.922   1.799   2.155 -0.7906  0.5116 -0.3885
  385THF     H7 7349   2.020   1.851   2.014  1.1939 -0.2660  0.1717
  385THF     C8 7350   2.055   1.654   2.092  0.0075  0.4989  0.4465
  385THF     C9 7351   2.096   1.621   2.237 -0.2035  0.0407 -0.0232
  385THF    H10 7352   2.133   1.640   2.017  0.7541 -0.4889  1.3772
  385THF    H11 7353   1.968   1.595   2.063  1.5121 -1.7390  0.2233
  385THF    H12 7354   2.016   1.608   2.309  0.3135 -1.5695  0.2916
  385THF    H13 7355   2.161   1.535   2.249 -0.3082  0.0352  0.5437
  386THF     O1 7356   2.177   5.386   2.502  0.1208 -0.1559 -0.6882
  386THF     C2 7357   2.085   5.497   2.503  0.1523 -0.0960 -0.5480
  386THF     C3 7358   2.289   5.447   2.433  0.1780  0.3077  0.2189
  386THF     H4 7359   2.007   5.473   2.575 -0.8930 -3.5323 -2.5746
  386THF     H5 7360   2.040   5.514   2.406 -0.2910  1.9101 -0.0353
  386THF     H6 7361   2.376   5.382   2.442 -0.6147 -1.0363 -1.3433
  386THF     H7 7362   2.266   5.470   2.329 -1.6169  1.3186  0.7895
  386THF     C8 7363   2.317   5.578   2.507 -0.1442 -0.5974 -0.2053
  386THF     C9 7364   2.173   5.622   2.537 -0.8560  0.6165  0.0154
  386THF    H10 7365   2.371   5.650   2.445 -0.2197 -0.6982 -0.3871
  386THF    H11 7366   2.375   5.569   2.599 -0.5438 -1.8816 -0.0612
  386THF    H12 7367   2.164   5.652   2.642 -4.0801  2.3916 -0.6476
  386THF    H13 7368   2.146   5.714   2.484  0.7762  1.3712  0.4282
  387THF     O1 7369   4.817   4.459   4.657 -0.4142  0.1948  0.2617
  387THF     C2 7370   4.717   4.560   4.646 -0.3597 -0.1511  0.2099
  387THF     C3 7371   4.929   4.520   4.730  0.0439 -0.3343  0.7041
  387THF     H4 7372   4.627   4.502   4.624 -1.7353  2.0695 -0.2974
  387THF     H5 7373   4.752   4.603   4.552  0.7760 -0.3821  0.5207
  387THF     H6 7374   4.948   4.448   4.809 -0.3733  0.8278  1.8881
  387THF     H7 7375   5.025   4.525   4.679 -1.7162 -0.9775 -3.0444
  387THF     C8 7376   4.875   4.649   4.792  0.0912  0.0996  0.3163
  387THF     C9 7377   4.729   4.646   4.764 -0.8028  0.5726  0.1377
  387THF    H10 7378   4.920   4.737   4.746 -2.6401  1.5035  0.1463
  387THF    H11 7379   4.894   4.651   4.899 -0.6767 -0.2450  0.4610
  387THF    H12 7380   4.669   4.607   4.846 -0.1973  1.7418  1.1584
  387THF    H13 7381   4.685   4.742   4.737 -0.0114  0.7500 -0.5626
  388THF     O1 7382   2.008   5.396   3.347  0.1881  0.5135  0.6600
  388THF     C2 7383   2.146   5.375   3.322  0.3084 -0.0138  0.2420
  388THF     C3 7384   1.966   5.481   3.242  0.3662  0.2893  0.3620
  388THF     H4 7385   2.158   5.308   3.237 -2.5049  0.1695 -0.3777
  388THF     H5 7386   2.202   5.338   3.408  0.8713 -0.1018 -0.1554
  388THF     H6 7387   1.953   5.426   3.149 -0.6654  1.6398 -0.3375
  388THF     H7 7388   1.861   5.507   3.253 -0.1690 -0.8086 -1.6472
  388THF     C8 7389   2.066   5.591   3.237  0.8353  0.9266  0.5455
  388THF     C9 7390   2.193   5.519   3.279  0.1933 -0.3796 -0.0657
  388THF    H10 7391   2.030   5.672   3.301 -0.6109  0.0071  0.9495
  388THF    H11 7392   2.067   5.626   3.134 -0.5219  0.6104  0.4056
  388THF    H12 7393   2.263   5.505   3.197  1.0642 -0.5366  0.6903
  388THF    H13 7394   2.237   5.574   3.362 -0.4674  0.9509 -0.5493
  389THF     O1 7395   4.811   3.807   4.416  0.0664 -0.2262 -0.6600
  389THF     C2 7396   4.742   3.930   4.427  0.8320  0.6375  0.0540
  389THF     C3 7397   4.724   3.706   4.458  0.8418  0.2006 -0.3512
  389THF     H4 7398   4.802   4.002   4.370  0.4609  3.3346  2.8369
  389THF     H5 7399   4.732   3.957   4.532 -0.5772 -0.1438  0.1450
  389THF     H6 7400   4.764   3.610   4.425  1.5734  0.6046 -0.6625
  389THF     H7 7401   4.729   3.697   4.566  1.1763 -1.9219 -0.4929
  389THF     C8 7402   4.584   3.754   4.417  0.1348  0.1180  0.2841
  389THF     C9 7403   4.603   3.896   4.365 -0.4507 -0.0763 -0.3861
  389THF    H10 7404   4.520   3.749   4.505 -1.3295 -2.4170 -0.8179
  389THF    H11 7405   4.535   3.687   4.347 -0.6222 -0.3514  1.2281
  389THF    H12 7406   4.601   3.891   4.256  0.9599  0.4659 -0.4607
  389THF    H13 7407   4.528   3.970   4.394 -1.6811 -0.5507 -2.1985
  390THF     O1 7408   5.119   4.567   0.942 -0.1944  0.0315  0.0306
  390THF     C2 7409   5.230   4.645   0.984 -0.2510 -0.7411 -0.6103
  390THF     C3 7410   5.130   4.558   0.796  0.2192  0.5449  0.2909
  390THF     H4 7411   5.305   4.594   1.045 -0.8908  0.2959  1.0962
  390THF     H5 7412   5.198   4.729   1.045 -0.3737 -0.5823 -0.8875
  390THF     H6 7413   5.180   4.466   0.767 -0.7424  0.0013  0.3166
  390THF     H7 7414   5.027   4.543   0.763  0.1917 -0.9229  0.9752
  390THF     C8 7415   5.202   4.676   0.743 -0.6815  0.0861 -0.3103
  390THF     C9 7416   5.301   4.695   0.853  0.0445 -0.5853 -0.3559
  390THF    H10 7417   5.131   4.758   0.737 -2.7726 -1.5694  0.3338
  390THF    H11 7418   5.253   4.651   0.650 -1.7795  0.7867 -1.1288
  390THF    H12 7419   5.385   4.630   0.829 -1.5805 -2.2718 -1.7974
  390THF    H13 7420   5.338   4.796   0.871  1.2309 -1.0616 -0.0351
  391THF     O1 7421   0.517   5.349   0.543 -0.3313  0.5247  0.2009
  391THF     C2 7422   0.634   5.285   0.592  0.3058 -0.6903 -0.0407
  391THF     C3 7423   0.528   5.406   0.413 -0.5043 -0.5496 -0.0401
  391THF     H4 7424   0.609   5.190   0.638  1.1058 -1.4337 -1.0911
  391THF     H5 7425   0.683   5.335   0.676 -1.1472 -0.2251  0.5518
  391THF     H6 7426   0.430   5.409   0.365 -0.6683 -2.3406  0.1070
  391THF     H7 7427   0.573   5.504   0.397 -0.4976 -1.0663 -3.9734
  391THF     C8 7428   0.633   5.308   0.357  0.2582  0.2199  0.0734
  391THF     C9 7429   0.728   5.287   0.470 -0.3235 -0.0722  0.3014
  391THF    H10 7430   0.687   5.347   0.271  0.9088 -1.4265 -0.2881
  391THF    H11 7431   0.589   5.214   0.326  3.0634 -0.7193 -1.3892
  391THF    H12 7432   0.791   5.198   0.468  0.9700  0.8114  0.2416
  391THF    H13 7433   0.783   5.381   0.464  0.1548 -0.4248 -1.2985
  392THF     O1 7434   2.909   4.996   5.089  0.1293 -0.2975 -0.2893
  392THF     C2 7435   3.010   4.939   4.998  0.9161  0.6378 -0.1743
  392THF     C3 7436   2.944   5.138   5.089 -1.0646  0.5133 -0.3424
  392THF     H4 7437   2.979   4.840   4.965  1.4201 -0.2220  1.7720
  392THF     H5 7438   3.101   4.939   5.058 -0.0625  0.2935  1.3825
  392THF     H6 7439   2.864   5.200   5.131 -2.0577 -0.5038 -0.6743
  392THF     H7 7440   3.031   5.159   5.150 -0.2365  2.1231 -2.0014
  392THF     C8 7441   2.962   5.162   4.938  0.3490 -0.2830 -0.4965
  392THF     C9 7442   3.014   5.031   4.882  0.0432 -0.5143  0.7217
  392THF    H10 7443   3.030   5.242   4.911  0.0236  0.0391 -0.3770
  392THF    H11 7444   2.861   5.183   4.901  0.5523  0.0415 -0.8709
  392THF    H12 7445   2.958   4.993   4.796  2.2702 -0.5448 -0.7999
  392THF    H13 7446   3.117   5.046   4.851 -0.0856 -1.2579 -0.0932
  393THF     O1 7447   5.391   0.969   2.792  0.7169  0.1737  0.1136
  393THF     C2 7448   5.482   0.953   2.682  0.0295 -0.1552 -0.0922
  393THF     C3 7449   5.346   0.840   2.839 -0.9848  0.0781 -0.4484
  393THF     H4 7450   5.579   0.929   2.725  0.2996  1.0069 -0.0206
  393THF     H5 7451   5.483   1.050   2.632 -1.5804 -0.3264 -0.5096
  393THF     H6 7452   5.387   0.813   2.936  1.6073 -0.1945 -1.5488
  393THF     H7 7453   5.237   0.830   2.847 -0.8241 -0.3188  1.8434
  393THF     C8 7454   5.394   0.744   2.730  0.3250  0.3075 -0.1474
  393THF     C9 7455   5.424   0.827   2.606 -0.2892  0.4455  0.8287
  393THF    H10 7456   5.312   0.676   2.707  0.6775 -0.3833  0.5951
  393THF    H11 7457   5.480   0.693   2.773 -0.9589 -1.1541  0.7841
  393THF    H12 7458   5.496   0.778   2.542 -1.2949 -2.4731  1.7716
  393THF    H13 7459   5.332   0.846   2.552  1.0443  0.2155 -1.6531
  394THF     O1 7460   2.895   2.733   4.030 -0.1803 -0.2623 -0.7591
  394THF     C2 7461   2.785   2.716   4.120  0.1983  0.0062  0.0317
  394THF     C3 7462   2.882   2.634   3.932  0.2062  0.4049  0.5067
  394THF     H4 7463   2.740   2.812   4.145 -3.2066 -1.3876 -0.1975
  394THF     H5 7464   2.831   2.658   4.200 -1.0773  1.6891  2.0811
  394THF     H6 7465   2.951   2.659   3.851  2.3358 -0.8330  1.8470
  394THF     H7 7466   2.913   2.534   3.963 -2.4635 -0.4958  0.5192
  394THF     C8 7467   2.733   2.657   3.895 -0.2665  0.7111 -0.8157
  394THF     C9 7468   2.673   2.645   4.036  0.4920 -0.6123  0.0715
  394THF    H10 7469   2.689   2.579   3.833 -1.4993  1.5926 -1.0930
  394THF    H11 7470   2.706   2.749   3.843 -1.2172  0.8392 -0.1411
  394THF    H12 7471   2.578   2.698   4.047  0.4797 -0.4140 -0.9270
  394THF    H13 7472   2.654   2.540   4.060  0.5740 -0.6258  0.0761
  395THF     O1 7473   3.310   3.737   2.650  0.7959  0.1805  0.2745
  395THF     C2 7474   3.350   3.611   2.599 -0.0446  0.0023 -0.0604
  395THF     C3 7475   3.365   3.759   2.773  0.2705 -0.0229 -0.2805
  395THF     H4 7476   3.445   3.615   2.547 -0.6623 -2.4525 -1.5511
  395THF     H5 7477   3.276   3.585   2.522  0.2564  0.3646 -0.4782
  395THF     H6 7478   3.440   3.838   2.770 -0.3047  0.4895 -2.3022
  395THF     H7 7479   3.283   3.800   2.833  1.9523  1.5955  1.0576
  395THF     C8 7480   3.409   3.615   2.825  0.1139 -0.0005 -0.2032
  395THF     C9 7481   3.356   3.519   2.714 -0.2025 -0.7950 -0.4445
  395THF    H10 7482   3.370   3.592   2.924  0.0435  1.9245  0.2476
  395THF    H11 7483   3.517   3.621   2.823  0.1032  0.0449 -1.4341
  395THF    H12 7484   3.421   3.431   2.705  0.4435 -0.5009  0.9770
  395THF    H13 7485   3.252   3.499   2.737 -0.3766  1.7865  1.4991
  396THF     O1 7486   0.602   3.945   5.135 -0.2451 -0.0298 -0.1253
  396THF     C2 7487   0.468   3.905   5.153 -0.0193  0.5109 -0.5605
  396THF     C3 7488   0.657   3.872   5.020 -0.3395 -0.1139  0.2532
  396THF     H4 7489   0.398   3.948   5.081 -0.0037 -0.0094 -0.8878
  396THF     H5 7490   0.445   3.942   5.253 -1.1789 -0.8763 -0.2862
  396THF     H6 7491   0.660   3.930   4.928  0.3641  0.0210  0.3578
  396THF     H7 7492   0.761   3.853   5.045 -0.0905 -0.6466 -1.1348
  396THF     C8 7493   0.578   3.746   5.014  0.1059  0.4990  0.0733
  396THF     C9 7494   0.484   3.751   5.133 -0.6855  0.3011  0.0531
  396THF    H10 7495   0.644   3.660   5.004  0.6995  1.1418 -2.3071
  396THF    H11 7496   0.510   3.761   4.930 -1.2557  3.0691  1.4994
  396THF    H12 7497   0.390   3.696   5.121 -1.5274  1.7982 -0.5416
  396THF    H13 7498   0.529   3.692   5.212 -0.8600 -0.2680 -0.2729
  397THF     O1 7499   5.135   3.152   0.866 -0.3642 -0.1667 -0.0602
  397THF     C2 7500   4.993   3.169   0.885 -0.1908 -0.4174  0.6993
  397THF     C3 7501   5.186   3.285   0.829 -0.1513  0.2685  0.3960
  397THF     H4 7502   4.977   3.200   0.988 -0.1914  1.5619  0.1575
  397THF     H5 7503   4.947   3.072   0.870 -0.8869  0.1249 -0.9017
  397THF     H6 7504   5.245   3.319   0.914 -0.1909 -0.3772  0.6883
  397THF     H7 7505   5.256   3.300   0.747 -1.6522  0.4509 -0.9120
  397THF     C8 7506   5.062   3.375   0.790 -0.4868 -0.2736 -0.3425
  397THF     C9 7507   4.946   3.279   0.782 -0.7219 -0.7454 -0.6596
  397THF    H10 7508   5.072   3.435   0.700 -0.1534 -0.3961 -0.3881
  397THF    H11 7509   5.053   3.454   0.865 -0.6275  1.1616 -1.8258
  397THF    H12 7510   4.853   3.329   0.809 -0.3599 -0.6014  0.3830
  397THF    H13 7511   4.932   3.242   0.681  0.6356  2.0303 -1.9637
  398THF     O1 7512   0.845   3.752   3.781  0.3533 -0.7022  0.0015
  398THF     C2 7513   0.804   3.665   3.889 -0.9737  0.1400 -1.1176
  398THF     C3 7514   0.724   3.832   3.767 -0.1743 -0.2921  0.0372
  398THF     H4 7515   0.813   3.720   3.983 -1.1134  1.7750 -2.0264
  398THF     H5 7516   0.862   3.576   3.913  1.3283  1.6493 -0.7338
  398THF     H6 7517   0.721   3.910   3.842  1.0062  1.4749 -1.6543
  398THF     H7 7518   0.716   3.881   3.670 -0.1227 -1.4533 -0.5839
  398THF     C8 7519   0.617   3.728   3.777 -0.2074 -0.7172  0.6471
  398THF     C9 7520   0.675   3.608   3.848 -0.3705 -0.6963 -0.0572
  398THF    H10 7521   0.562   3.718   3.684  0.2763 -0.2809  0.3051
  398THF    H11 7522   0.550   3.770   3.852  0.1793 -0.1491  0.6783
  398THF    H12 7523   0.618   3.566   3.932  1.2401 -2.2059  0.3513
  398THF    H13 7524   0.683   3.516   3.791  0.9447  0.4615 -1.8312
  399THF     O1 7525   0.357   5.055   2.081 -0.4860  0.4288 -0.0724
  399THF     C2 7526   0.216   5.078   2.087 -0.0339  0.7717 -0.1152
  399THF     C3 7527   0.388   4.922   2.059 -0.4942 -0.3923  0.1926
  399THF     H4 7528   0.175   5.156   2.024 -3.7162  1.2142  2.5051
  399THF     H5 7529   0.200   5.112   2.189  1.8009  0.4714  0.3192
  399THF     H6 7530   0.414   4.912   1.953  1.6212 -0.8016  0.7031
  399THF     H7 7531   0.481   4.904   2.113 -0.9744  0.1303  1.2147
  399THF     C8 7532   0.271   4.845   2.110 -0.6581  0.4428 -0.2515
  399THF     C9 7533   0.155   4.939   2.063  0.5953 -1.1284  0.3591
  399THF    H10 7534   0.282   4.837   2.218 -2.6178 -1.1968 -0.1013
  399THF    H11 7535   0.250   4.744   2.075  0.6177 -1.4610  3.8625
  399THF    H12 7536   0.124   4.919   1.961 -1.1025 -0.0567  0.6222
  399THF    H13 7537   0.060   4.930   2.117  0.9755 -1.0191  1.0567
  400THF     O1 7538   1.875   2.163   5.321  0.1146  0.2194 -0.5228
  400THF     C2 7539   1.766   2.145   5.236  0.5855 -0.1977 -0.3634
  400THF     C3 7540   1.921   2.297   5.323  0.0021 -0.3833  0.3918
  400THF     H4 7541   1.672   2.160   5.288  1.2779  0.2299  0.8130
  400THF     H5 7542   1.773   2.048   5.187  1.9571 -0.1182 -0.3884
  400THF     H6 7543   1.921   2.345   5.420  1.6515  2.4993 -0.8946
  400THF     H7 7544   2.027   2.296   5.299 -0.5906 -1.1797 -2.6103
  400THF     C8 7545   1.836   2.371   5.216 -0.2320  0.8359 -0.0106
  400THF     C9 7546   1.775   2.263   5.138  0.3275  0.0268 -0.0201
  400THF    H10 7547   1.890   2.443   5.154 -0.6135  2.1651  1.1385
  400THF    H11 7548   1.753   2.429   5.256 -1.0977  0.7995 -1.6728
  400THF    H12 7549   1.676   2.294   5.101  0.8966  0.3123 -1.3792
  400THF    H13 7550   1.838   2.243   5.051  0.9361  1.0031  0.1842
  401THF     O1 7551   3.758   4.504   4.886 -1.1444  0.0375 -0.1565
  401THF     C2 7552   3.773   4.383   4.820 -0.0134  0.2592  0.1769
  401THF     C3 7553   3.623   4.549   4.878  0.3902 -0.1597  0.3072
  401THF     H4 7554   3.738   4.297   4.878 -0.7515 -0.1807 -0.8989
  401THF     H5 7555   3.877   4.368   4.790 -0.1602 -0.7432  0.1118
  401THF     H6 7556   3.573   4.497   4.960  1.0375 -1.0827  0.1218
  401THF     H7 7557   3.609   4.655   4.900 -0.8696 -0.3952  0.7287
  401THF     C8 7558   3.576   4.492   4.742  0.1317  0.2676  0.2472
  401THF     C9 7559   3.677   4.390   4.701  0.2570  0.0631 -0.1201
  401THF    H10 7560   3.584   4.575   4.672  0.8615  0.0490  0.0616
  401THF    H11 7561   3.472   4.462   4.736  0.2345 -0.3452  1.3300
  401THF    H12 7562   3.640   4.289   4.684  2.3587 -0.6475 -0.8713
  401THF    H13 7563   3.743   4.426   4.622 -1.0313  0.0865 -1.2039
  402THF     O1 7564   0.225   4.892   0.196  0.8273 -0.3101  0.6087
  402THF     C2 7565   0.191   5.028   0.236 -0.5325  0.3073 -0.2989
  402THF     C3 7566   0.323   4.894   0.098 -1.2610 -0.2078  0.3754
  402THF     H4 7567   0.213   5.045   0.341  0.3659  1.8054 -0.7040
  402THF     H5 7568   0.088   5.052   0.210  0.0661  0.7411 -2.5019
  402THF     H6 7569   0.420   4.859   0.131 -0.0501  2.1227 -0.5194
  402THF     H7 7570   0.296   4.815   0.028  1.0516  0.2550 -1.1520
  402THF     C8 7571   0.305   5.029   0.030 -0.1882  0.6082 -0.0084
  402THF     C9 7572   0.277   5.116   0.146  0.9236  0.0813 -0.2722
  402THF    H10 7573   0.216   5.026  -0.033  1.0765 -1.7162 -1.8542
  402THF    H11 7574   0.389   5.062  -0.031 -0.3655 -0.5833 -0.9414
  402THF    H12 7575   0.369   5.144   0.197 -0.2443 -0.6072  2.3973
  402THF    H13 7576   0.239   5.215   0.120 -0.2487 -0.0697  0.7648
  403THF     O1 7577   3.888   4.276   1.875 -0.7377  0.2856  0.2903
  403THF     C2 7578   3.919   4.228   2.006  0.5301  0.2398 -0.2768
  403THF     C3 7579   3.803   4.179   1.813  0.8092  0.2405  0.3064
  403THF     H4 7580   3.841   4.264   2.072  0.5552 -2.0766  1.1104
  403THF     H5 7581   4.011   4.266   2.050 -0.0684  0.1503  1.0946
  403THF     H6 7582   3.699   4.207   1.828 -0.1172 -3.9652  3.7163
  403THF     H7 7583   3.827   4.174   1.707 -1.0244  0.4839 -0.1580
  403THF     C8 7584   3.821   4.046   1.887  0.0569  0.3580  0.3110
  403THF     C9 7585   3.934   4.073   1.986  0.0699  0.0184  0.4603
  403THF    H10 7586   3.840   3.954   1.831 -0.9602  0.2506  0.1362
  403THF    H11 7587   3.731   4.019   1.943  0.4419  0.0926  0.8175
  403THF    H12 7588   3.909   4.025   2.080  0.7249 -0.9999  0.1312
  403THF    H13 7589   4.035   4.044   1.956  0.8977  0.8371  2.3191
  404THF     O1 7590   2.732   0.651   0.359 -0.1580  0.3106 -0.0107
  404THF     C2 7591   2.696   0.790   0.349  0.2046  0.1446 -0.0656
  404THF     C3 7592   2.866   0.635   0.309  0.1633  0.0914  0.5993
  404THF     H4 7593   2.618   0.818   0.420  1.1844  2.2441  0.2435
  404THF     H5 7594   2.660   0.805   0.247 -2.9716 -0.4487  0.8602
  404THF     H6 7595   2.927   0.550   0.340 -1.2974 -1.6692 -1.0977
  404THF     H7 7596   2.851   0.632   0.201  1.5964 -2.6823  0.3548
  404THF     C8 7597   2.938   0.759   0.344 -0.3834 -0.6324 -0.2545
  404THF     C9 7598   2.834   0.859   0.375 -0.4475 -0.1198  1.3925
  404THF    H10 7599   2.999   0.796   0.261 -0.6355 -1.6089 -0.8823
  404THF    H11 7600   3.001   0.759   0.433  0.9177  0.9867 -1.1008
  404THF    H12 7601   2.848   0.871   0.483  1.4079 -0.6651  1.2367
  404THF    H13 7602   2.842   0.958   0.331 -0.8836 -1.0773 -1.0199
  405THF     O1 7603   0.942   1.337   3.399  0.1378 -0.4056 -0.1368
  405THF     C2 7604   1.012   1.465   3.424  0.3653  0.5619  0.5763
  405THF     C3 7605   0.798   1.357   3.378  0.1400  0.3772  0.2550
  405THF     H4 7606   1.100   1.487   3.364 -0.4256 -1.4385 -1.4761
  405THF     H5 7607   1.024   1.474   3.532 -1.0302  0.9205  0.7288
  405THF     H6 7608   0.778   1.329   3.274  0.1621  1.4346 -0.0495
  405THF     H7 7609   0.733   1.298   3.442 -0.6463 -0.0979 -0.9438
  405THF     C8 7610   0.772   1.500   3.405  0.8390  0.1663 -0.1107
  405THF     C9 7611   0.898   1.567   3.378 -0.5100 -0.2293 -0.1403
  405THF    H10 7612   0.749   1.511   3.511 -1.5048 -1.2295 -0.4176
  405THF    H11 7613   0.684   1.532   3.349  0.5885  0.7733  0.5973
  405THF    H12 7614   0.905   1.598   3.274 -0.5798 -0.2061 -0.1379
  405THF    H13 7615   0.909   1.646   3.452 -0.5707  0.3531 -0.7368
  406THF     O1 7616   4.705   2.189   3.041 -0.1158  0.3372 -0.7095
  406THF     C2 7617   4.727   2.325   3.030  0.0395 -0.4842 -0.2590
  406THF     C3 7618   4.807   2.108   2.986 -0.9290  0.1160 -0.5844
  406THF     H4 7619   4.723   2.379   3.125 -0.7719 -0.1601 -0.4668
  406THF     H5 7620   4.657   2.369   2.959  0.7688  0.7611 -0.2453
  406THF     H6 7621   4.887   2.083   3.056 -0.7946 -0.5244 -0.9597
  406THF     H7 7622   4.778   2.014   2.940  0.1343 -0.7282  0.3957
  406THF     C8 7623   4.862   2.213   2.890  0.3828  0.1276  0.4341
  406THF     C9 7624   4.859   2.340   2.963  0.2032 -0.1597 -0.2271
  406THF    H10 7625   4.800   2.238   2.804  0.8670 -0.7982 -0.2012
  406THF    H11 7626   4.957   2.201   2.837  0.3160  2.2798 -0.2704
  406THF    H12 7627   4.933   2.330   3.042 -1.9252 -2.1304  1.6658
  406THF    H13 7628   4.874   2.425   2.895  3.4069 -0.0029  0.5413
  407THF     O1 7629   3.354   4.178   2.748 -0.3167  0.0610 -0.2833
  407THF     C2 7630   3.222   4.128   2.728 -0.4134 -0.7758  0.0863
  407THF     C3 7631   3.391   4.241   2.629  0.4203  0.4504 -0.7849
  407THF     H4 7632   3.181   4.097   2.824  1.5203  0.3643  1.3653
  407THF     H5 7633   3.226   4.041   2.662 -0.8639  0.5967 -1.7901
  407THF     H6 7634   3.448   4.330   2.654 -1.3131  1.0964  1.1927
  407THF     H7 7635   3.445   4.168   2.568 -0.3423 -0.9312  0.1316
  407THF     C8 7636   3.260   4.284   2.563 -0.2889 -0.7105 -0.1698
  407THF     C9 7637   3.150   4.254   2.668  0.3403 -0.1211  0.5137
  407THF    H10 7638   3.240   4.219   2.478  0.8792 -1.4570  0.0942
  407THF    H11 7639   3.255   4.386   2.523 -2.1794  0.1712  2.0779
  407THF    H12 7640   3.134   4.334   2.741  0.6600  0.7859 -0.3812
  407THF    H13 7641   3.052   4.233   2.626  0.7171 -1.4664  0.2826
  408THF     O1 7642   5.353   2.289   1.994  0.1582  0.1788  0.2599
  408THF     C2 7643   5.426   2.230   1.883 -0.3172 -0.2740 -0.0320
  408THF     C3 7644   5.239   2.207   2.008 -0.1340  0.1411 -0.3946
  408THF     H4 7645   5.529   2.265   1.885 -0.8487  1.3731  1.4543
  408THF     H5 7646   5.372   2.265   1.795 -1.7930 -2.4311 -0.0770
  408THF     H6 7647   5.216   2.194   2.113 -0.1606  0.0159 -0.4159
  408THF     H7 7648   5.150   2.253   1.965 -0.6079  0.8572  1.2853
  408THF     C8 7649   5.274   2.072   1.931  0.4814  0.0299  0.2452
  408THF     C9 7650   5.420   2.075   1.892 -0.2426  0.2300  0.0891
  408THF    H10 7651   5.216   2.068   1.839  0.1745  2.5967  0.2790
  408THF    H11 7652   5.239   1.993   1.998 -0.6232 -1.5430 -2.0560
  408THF    H12 7653   5.480   2.033   1.973 -1.5835 -0.1858  0.8821
  408THF    H13 7654   5.437   2.002   1.813  0.0746 -1.0879  1.3394
  409THF     O1 7655   4.835   0.265   1.003  0.0299  0.2841 -0.7585
  409THF     C2 7656   4.743   0.318   1.103 -0.1874 -0.9605 -0.8124
  409THF     C3 7657   4.929   0.366   0.967 -0.3075  0.0142 -0.1409
  409THF     H4 7658   4.784   0.311   1.204 -1.3529 -1.7133 -0.3628
  409THF     H5 7659   4.649   0.263   1.103 -2.5652  2.7029  0.5853
  409THF     H6 7660   5.014   0.383   1.033  2.5226 -0.2853 -3.4347
  409THF     H7 7661   4.972   0.334   0.871 -1.5463 -3.7206  0.3804
  409THF     C8 7662   4.840   0.485   0.956 -0.4708  0.4051 -0.0144
  409THF     C9 7663   4.727   0.457   1.061  0.0316 -0.1760  0.5941
  409THF    H10 7664   4.791   0.473   0.860  0.2916 -1.1075 -0.2517
  409THF    H11 7665   4.891   0.582   0.951  0.8748 -0.2249  0.7998
  409THF    H12 7666   4.729   0.533   1.139  2.6442  0.1887  0.2389
  409THF    H13 7667   4.630   0.479   1.016 -0.0481 -0.5002  0.6097
  410THF     O1 7668   5.069   3.523   1.374 -0.1244  0.0267  0.7177
  410THF     C2 7669   5.105   3.399   1.425  0.7046 -0.3981 -0.2354
  410THF     C3 7670   5.003   3.495   1.250 -0.1560 -0.6315  0.2137
  410THF     H4 7671   5.122   3.402   1.533  1.0820 -0.2068 -0.2961
  410THF     H5 7672   5.201   3.367   1.384  1.1653  0.3507  0.2123
  410THF     H6 7673   4.939   3.574   1.211 -0.4355 -0.8865  0.1505
  410THF     H7 7674   5.075   3.470   1.172 -1.0624 -1.5311 -0.3719
  410THF     C8 7675   4.923   3.366   1.272 -0.3655  0.3066 -0.5077
  410THF     C9 7676   5.006   3.297   1.382  0.0684  1.2226 -0.5117
  410THF    H10 7677   4.925   3.300   1.185 -0.5635 -1.4697  0.7845
  410THF    H11 7678   4.822   3.386   1.308 -0.0733  1.4439 -0.3061
  410THF    H12 7679   4.937   3.258   1.457 -1.4561 -2.1914 -3.3643
  410THF    H13 7680   5.057   3.202   1.366  0.9710  1.4432  0.8664
  411THF     O1 7681   3.395   2.705   1.746 -0.0584  0.0816 -0.3490
  411THF     C2 7682   3.300   2.682   1.643  0.0998 -0.3255 -0.8509
  411THF     C3 7683   3.475   2.808   1.690  0.3851  0.1682  0.4023
  411THF     H4 7684   3.236   2.768   1.627  0.2756  0.3483  1.5853
  411THF     H5 7685   3.242   2.596   1.678  2.0759 -1.0200  0.9829
  411THF     H6 7686   3.417   2.900   1.685  1.7282  1.1215  1.7792
  411THF     H7 7687   3.560   2.842   1.749 -0.1217  0.7376  0.8150
  411THF     C8 7688   3.517   2.742   1.561 -0.4530 -0.2453 -0.4547
  411THF     C9 7689   3.397   2.655   1.529  0.6137  0.3851  0.4943
  411THF    H10 7690   3.605   2.679   1.577 -1.2058 -0.6210  3.0859
  411THF    H11 7691   3.533   2.820   1.487  0.9374 -0.9277 -0.9145
  411THF    H12 7692   3.349   2.679   1.435  0.4297 -0.9779  0.2124
  411THF    H13 7693   3.424   2.549   1.531  0.0849  0.2396  0.0109
  412THF     O1 7694   0.965   0.458   3.676 -0.0658 -1.0902  0.0304
  412THF     C2 7695   0.992   0.321   3.638 -0.1927 -0.4525 -0.1116
  412THF     C3 7696   0.853   0.509   3.595  0.0388 -0.3245 -0.2392
  412THF     H4 7697   0.905   0.269   3.678 -2.6297  2.2636 -1.5006
  412THF     H5 7698   1.087   0.280   3.673  0.1323  0.8135  0.5423
  412THF     H6 7699   0.767   0.451   3.630 -0.7930  0.1394 -1.4387
  412THF     H7 7700   0.843   0.618   3.601 -1.6363 -0.4458 -0.4255
  412THF     C8 7701   0.903   0.461   3.460 -0.4786  0.4550  0.5889
  412THF     C9 7702   0.981   0.331   3.488  0.0303 -1.4322 -0.7948
  412THF    H10 7703   0.947   0.539   3.399 -2.2214  0.6059 -0.5241
  412THF    H11 7704   0.818   0.432   3.399 -0.3157 -0.1391  0.6314
  412THF    H12 7705   0.943   0.242   3.437 -0.0300 -2.3097  0.7221
  412THF    H13 7706   1.084   0.339   3.452  0.2911  0.0955  0.2084
  413THF     O1 7707   0.361   4.542   4.705  0.5161 -0.4365  0.0871
  413THF     C2 7708   0.297   4.639   4.618 -0.2083 -0.0422 -0.7959
  413THF     C3 7709   0.499   4.557   4.681  0.9577  0.0434 -0.1900
  413THF     H4 7710   0.189   4.644   4.632 -0.2029 -0.6624 -0.4624
  413THF     H5 7711   0.316   4.625   4.512  0.0713 -0.8335 -0.6537
  413THF     H6 7712   0.567   4.504   4.748 -0.1861 -2.3482 -0.8102
  413THF     H7 7713   0.522   4.523   4.580 -0.5054  1.2819 -0.9809
  413THF     C8 7714   0.514   4.709   4.693 -0.4798 -0.5844  0.3989
  413THF     C9 7715   0.380   4.766   4.646 -0.0520 -0.1879  0.4018
  413THF    H10 7716   0.602   4.750   4.642 -0.7227 -0.7752 -0.1827
  413THF    H11 7717   0.520   4.724   4.801 -1.4261  0.3040  0.3389
  413THF    H12 7718   0.333   4.826   4.724 -1.5229 -1.5085  0.5747
  413THF    H13 7719   0.396   4.827   4.558  1.8343 -1.0562  0.1045
  414THF     O1 7720   1.699   0.708   1.099  0.7556 -0.2545  0.3192
  414THF     C2 7721   1.735   0.843   1.126  0.1300 -0.3100  0.1947
  414THF     C3 7722   1.557   0.715   1.075  0.4653  0.1190  0.5880
  414THF     H4 7723   1.844   0.848   1.118  0.1126  1.1188  0.6298
  414THF     H5 7724   1.693   0.859   1.225 -0.8666  1.6129 -0.4958
  414THF     H6 7725   1.518   0.640   1.007  0.5574 -0.4678  1.1693
  414THF     H7 7726   1.510   0.700   1.172 -0.9415 -3.0005 -0.4450
  414THF     C8 7727   1.540   0.847   0.998 -0.1391  0.8840  0.0886
  414THF     C9 7728   1.667   0.926   1.023 -0.0957  0.5535  0.7018
  414THF    H10 7729   1.454   0.909   1.025 -1.3230  0.5137 -2.4415
  414THF    H11 7730   1.548   0.821   0.892  2.8461  0.4483  0.3331
  414THF    H12 7731   1.716   0.930   0.926 -2.7378 -0.0350 -0.7825
  414THF    H13 7732   1.647   1.026   1.061  0.3888 -0.0440  2.6401
  415THF     O1 7733   5.148   4.529   2.722 -0.3790  0.0304  0.2474
  415THF     C2 7734   5.068   4.412   2.733 -1.2965 -0.2040  0.7307
  415THF     C3 7735   5.054   4.638   2.724  0.2415 -0.2009  0.4076
  415THF     H4 7736   5.125   4.333   2.782 -0.2668 -0.6478 -1.1152
  415THF     H5 7737   5.032   4.369   2.640 -1.5936 -0.8923  1.1514
  415THF     H6 7738   5.103   4.734   2.743 -0.1435  0.6489 -2.4485
  415THF     H7 7739   4.993   4.647   2.634  0.1719 -0.8902  0.3799
  415THF     C8 7740   4.964   4.598   2.834 -0.1415 -0.4096 -0.6596
  415THF     C9 7741   4.954   4.450   2.820 -0.3142  0.3677 -0.7596
  415THF    H10 7742   4.868   4.648   2.834  0.2565  0.4515  1.3587
  415THF    H11 7743   5.025   4.632   2.918 -2.2728  0.1828  0.7097
  415THF    H12 7744   4.964   4.399   2.916  0.9005  1.6733 -0.1586
  415THF    H13 7745   4.863   4.418   2.769 -0.7198  0.0756  0.1297
  416THF     O1 7746   5.175   4.845   3.206  0.5159 -0.4208  0.5680
  416THF     C2 7747   5.240   4.894   3.094  0.4669 -0.1914  0.5018
  416THF     C3 7748   5.162   4.705   3.191  0.9822  0.3967  0.1122
  416THF     H4 7749   5.272   4.997   3.109 -0.5459  0.1376  0.4701
  416THF     H5 7750   5.178   4.878   3.006 -1.6603 -0.9551  2.0443
  416THF     H6 7751   5.159   4.666   3.293 -2.2218 -0.0982 -0.0984
  416THF     H7 7752   5.064   4.680   3.151  0.7537 -2.0440  1.9395
  416THF     C8 7753   5.277   4.653   3.096 -0.4371 -0.2632 -0.7117
  416THF     C9 7754   5.356   4.789   3.089  0.9848 -0.5368 -0.4293
  416THF    H10 7755   5.231   4.633   3.000  0.3650  0.0113 -1.1716
  416THF    H11 7756   5.330   4.561   3.122  0.8066 -0.0774 -2.4191
  416THF    H12 7757   5.426   4.806   3.171 -1.1027 -0.9717  1.5682
  416THF    H13 7758   5.417   4.791   2.999  0.4448  1.5933 -0.8075
  417THF     O1 7759   1.347   4.403   4.433  0.3861  0.1834  0.0511
  417THF     C2 7760   1.308   4.536   4.460 -0.2322  0.1034  0.0897
  417THF     C3 7761   1.425   4.416   4.313 -0.5548 -0.3265  0.0762
  417THF     H4 7762   1.397   4.577   4.509 -0.2455  0.1421  0.0812
  417THF     H5 7763   1.226   4.560   4.528 -0.2609  1.4667 -0.3941
  417THF     H6 7764   1.529   4.426   4.344  0.0625 -3.1181 -0.7936
  417THF     H7 7765   1.428   4.326   4.251 -0.5799  0.2043 -0.7038
  417THF     C8 7766   1.368   4.527   4.234 -0.2474 -0.6178 -0.1643
  417THF     C9 7767   1.296   4.614   4.333 -0.1001  0.3823 -0.6023
  417THF    H10 7768   1.290   4.492   4.166  1.1055 -1.9787 -1.0821
  417THF    H11 7769   1.434   4.586   4.170 -0.2398  1.3191  1.5149
  417THF    H12 7770   1.356   4.705   4.348  1.6141 -1.0933  2.3379
  417THF    H13 7771   1.190   4.621   4.312 -0.1732 -0.2931 -0.4605
  418THF     O1 7772   5.033   0.103   3.613 -0.1783  0.2682 -0.2190
  418THF     C2 7773   5.095   0.224   3.561  0.9423  0.0648 -0.0687
  418THF     C3 7774   4.939   0.136   3.711 -0.4375 -0.5334 -0.1593
  418THF     H4 7775   5.142   0.207   3.465  1.1440  2.6107 -0.5010
  418THF     H5 7776   5.177   0.262   3.621  1.1563  1.2229 -1.0577
  418THF     H6 7777   4.866   0.055   3.714 -2.3997  1.0710 -1.5509
  418THF     H7 7778   5.002   0.150   3.799  2.8916 -0.3952 -2.4167
  418THF     C8 7779   4.883   0.269   3.657 -0.3207 -0.2300 -0.5645
  418THF     C9 7780   4.983   0.328   3.558  0.0423 -0.0566  0.0161
  418THF    H10 7781   4.867   0.344   3.735  1.6104 -0.8531  0.5149
  418THF    H11 7782   4.799   0.240   3.594 -0.5837 -0.0266 -0.3151
  418THF    H12 7783   4.940   0.324   3.458  1.1890 -0.6286 -0.4635
  418THF    H13 7784   5.026   0.425   3.582  2.7067 -0.6892 -1.8458
  419THF     O1 7785   2.338   3.999   2.062 -0.0280 -0.0151  0.3868
  419THF     C2 7786   2.441   3.973   1.965 -0.0773 -0.6618 -0.0761
  419THF     C3 7787   2.221   4.018   1.986 -0.6181  0.2009 -0.0587
  419THF     H4 7788   2.543   3.943   1.989  0.5376 -0.9695 -2.7554
  419THF     H5 7789   2.452   4.062   1.904 -2.0846 -0.0203  0.4451
  419THF     H6 7790   2.139   4.009   2.057 -0.2354  1.7940  0.6232
  419THF     H7 7791   2.231   4.116   1.941  1.4836 -0.5701 -1.4084
  419THF     C8 7792   2.224   3.898   1.902  0.3500  0.0857  0.5725
  419THF     C9 7793   2.376   3.859   1.899  0.6093 -0.4220 -0.6926
  419THF    H10 7794   2.188   3.911   1.800  1.3991 -1.2528 -0.0019
  419THF    H11 7795   2.174   3.807   1.934 -0.3292 -1.3587 -3.9291
  419THF    H12 7796   2.399   3.765   1.951  1.5249  1.3847  2.4698
  419THF    H13 7797   2.416   3.845   1.799  4.0966  0.6016  0.3874
  420THF     O1 7798   1.868   3.744   5.463 -0.7640 -0.1358 -0.5229
  420THF     C2 7799   1.785   3.852   5.511  1.1632  0.7068  0.2355
  420THF     C3 7800   1.837   3.642   5.557  0.0814  0.2348  0.3193
  420THF     H4 7801   1.677   3.844   5.497  0.9262  2.7539  0.5340
  420THF     H5 7802   1.811   3.939   5.451  3.2173 -0.4134 -0.5995
  420THF     H6 7803   1.738   3.605   5.533 -1.1587  3.5638 -0.3149
  420THF     H7 7804   1.907   3.559   5.556 -0.6552 -0.3945  0.4906
  420THF     C8 7805   1.837   3.710   5.688  0.6048  0.0428 -0.4410
  420THF     C9 7806   1.822   3.853   5.659  0.4258  0.0043 -0.1770
  420THF    H10 7807   1.930   3.686   5.741  1.5028  0.2673 -1.8770
  420THF    H11 7808   1.745   3.680   5.738  0.9748 -0.5704 -0.1121
  420THF    H12 7809   1.748   3.903   5.721  0.4708 -0.7923  0.5363
  420THF    H13 7810   1.917   3.907   5.655  1.3617 -1.6654 -2.4537
  421THF     O1 7811   3.485   2.345   1.064 -0.1546  0.0329  0.0112
  421THF     C2 7812   3.346   2.384   1.062  0.7421 -0.1005  0.2795
  421THF     C3 7813   3.549   2.391   0.938  0.8139  0.1778 -0.0874
  421THF     H4 7814   3.331   2.455   1.142  1.7368  1.2574 -0.6854
  421THF     H5 7815   3.279   2.298   1.069 -1.2690  1.2952 -0.8365
  421THF     H6 7816   3.650   2.432   0.948  1.4514 -1.6676  1.6237
  421THF     H7 7817   3.536   2.316   0.861  1.5527  0.7578 -0.8061
  421THF     C8 7818   3.470   2.515   0.908  0.5430  0.1311  0.1361
  421THF     C9 7819   3.330   2.462   0.932  0.4208  0.1690  0.5277
  421THF    H10 7820   3.490   2.555   0.809 -0.3673 -1.1133 -0.5815
  421THF    H11 7821   3.500   2.593   0.978 -1.3622  2.1394 -1.1678
  421THF    H12 7822   3.245   2.530   0.937 -0.3814 -0.8654  1.3927
  421THF    H13 7823   3.308   2.388   0.855  2.5899  0.2034 -0.1805
  422THF     O1 7824   3.502   0.649   2.787 -0.0108  0.4600  0.3705
  422THF     C2 7825   3.550   0.575   2.676  0.1335 -0.0913 -0.5933
  422THF     C3 7826   3.495   0.564   2.903  0.0735 -0.6079  0.3851
  422THF     H4 7827   3.592   0.642   2.602 -0.9824  0.8121 -0.4407
  422THF     H5 7828   3.477   0.519   2.618 -0.1866 -1.8551  1.4015
  422THF     H6 7829   3.493   0.620   2.996 -0.5161 -0.0566  0.0484
  422THF     H7 7830   3.403   0.506   2.900 -3.4505  4.3686  1.2719
  422THF     C8 7831   3.616   0.478   2.885  0.2716  0.5651 -0.1106
  422THF     C9 7832   3.659   0.488   2.743 -0.2268 -0.5696  0.8643
  422THF    H10 7833   3.587   0.375   2.907 -4.2786  1.2928 -1.6736
  422THF    H11 7834   3.695   0.515   2.950  0.3737 -0.4464  0.3676
  422THF    H12 7835   3.757   0.533   2.758  0.7997 -3.2539  2.9908
  422THF    H13 7836   3.670   0.396   2.686 -0.6198  0.3677 -0.7990
  423THF     O1 7837   0.339   1.835   0.466  0.3998  0.1935 -0.5015
  423THF     C2 7838   0.418   1.832   0.589  0.4929 -0.1799 -0.3130
  423THF     C3 7839   0.224   1.913   0.500  0.2142 -0.3407  0.0760
  423THF     H4 7840   0.482   1.920   0.597  0.5175 -0.3639  2.2663
  423THF     H5 7841   0.475   1.739   0.585  1.1690  0.1920  0.4084
  423THF     H6 7842   0.251   2.017   0.480 -1.4045  0.4698  1.8398
  423THF     H7 7843   0.149   1.892   0.424  1.2394 -1.3360 -0.6930
  423THF     C8 7844   0.174   1.879   0.640  0.0126 -0.4881  0.6312
  423THF     C9 7845   0.308   1.834   0.696  0.0718 -0.2070  0.5595
  423THF    H10 7846   0.102   1.797   0.650 -1.7901  0.9824  0.1196
  423THF    H11 7847   0.124   1.956   0.699 -0.7059  1.0382 -1.8307
  423THF    H12 7848   0.333   1.869   0.796  4.2525 -0.3536 -0.2590
  423THF    H13 7849   0.307   1.728   0.719  1.9698 -0.6754 -1.2697
  424THF     O1 7850   3.182   1.173   4.966 -0.1473  0.3168 -0.3424
  424THF     C2 7851   3.165   1.041   5.017 -0.5536  0.8400 -0.0347
  424THF     C3 7852   3.188   1.261   5.077 -0.3754  0.9935  0.0297
  424THF     H4 7853   3.185   0.964   4.942  0.1420  0.7532  0.2353
  424THF     H5 7854   3.067   1.024   5.063 -0.1750 -0.4252  0.3363
  424THF     H6 7855   3.237   1.355   5.053  1.3479  0.4060  1.1451
  424THF     H7 7856   3.091   1.288   5.118 -0.7934  2.1026 -1.5574
  424THF     C8 7857   3.266   1.186   5.184 -0.3764  0.3711 -0.4683
  424THF     C9 7858   3.265   1.045   5.130 -0.2073 -0.1600  0.1319
  424THF    H10 7859   3.216   1.199   5.280  0.2860  1.2294 -0.2205
  424THF    H11 7860   3.366   1.227   5.198  0.0645 -0.6856 -0.4467
  424THF    H12 7861   3.365   1.031   5.089 -0.0833 -0.3943  0.5020
  424THF    H13 7862   3.241   0.968   5.204  1.2483 -0.7253  0.0514
  425THF     O1 7863   2.000   3.240   2.745  0.2423  0.0581  0.2107
  425THF     C2 7864   1.906   3.349   2.778 -0.4537  0.3805 -0.3329
  425THF     C3 7865   2.043   3.277   2.611  0.0824  0.9553 -0.1178
  425THF     H4 7866   1.891   3.332   2.885  0.0430 -0.8298 -0.4385
  425THF     H5 7867   1.808   3.342   2.731 -0.9512  0.6083  0.6389
  425THF     H6 7868   2.143   3.237   2.590 -0.2039  0.9792 -1.6413
  425THF     H7 7869   1.979   3.221   2.543 -0.2344 -0.8714  1.6035
  425THF     C8 7870   2.049   3.430   2.602  0.5339  0.1567  0.4711
  425THF     C9 7871   1.965   3.480   2.724  0.2173  0.0377 -0.3474
  425THF    H10 7872   2.005   3.464   2.508  0.3085  0.1079  0.5575
  425THF    H11 7873   2.154   3.460   2.593  0.8234 -1.3731 -4.8559
  425THF    H12 7874   2.030   3.523   2.800 -1.3143 -0.6771  1.4337
  425THF    H13 7875   1.892   3.553   2.688 -2.7699 -3.3993 -1.8611
  426THF     O1 7876   4.123   3.529   4.460  0.5096 -0.2280  0.1415
  426THF     C2 7877   3.995   3.603   4.468  0.2291  0.4485 -0.3658
  426THF     C3 7878   4.218   3.639   4.461  0.5040  0.2091 -0.3279
  426THF     H4 7879   3.981   3.644   4.568  0.0845 -1.7975  0.5951
  426THF     H5 7880   3.910   3.548   4.427 -0.8961  1.8576 -0.0059
  426THF     H6 7881   4.232   3.673   4.563 -2.1650 -2.7098  1.1654
  426THF     H7 7882   4.319   3.603   4.441  0.0082 -2.0008  0.8685
  426THF     C8 7883   4.161   3.749   4.364 -0.5120  0.0052  0.5422
  426THF     C9 7884   4.012   3.724   4.368  0.7178  0.0684  0.0987
  426THF    H10 7885   4.194   3.713   4.266 -0.4462 -0.3387  0.6872
  426THF    H11 7886   4.192   3.850   4.388  0.1503 -0.2683  0.8807
  426THF    H12 7887   3.961   3.813   4.404  1.7416 -0.2223  2.4924
  426THF    H13 7888   3.989   3.690   4.268 -1.6553 -0.4078  0.7578
  427THF     O1 7889   2.146   2.052   1.349  0.5603  0.0094 -0.2205
  427THF     C2 7890   2.076   1.968   1.255  0.8579 -0.6699 -0.2244
  427THF     C3 7891   2.041   2.103   1.433  0.4093 -0.4467  0.0732
  427THF     H4 7892   2.034   1.880   1.303  2.7066 -1.1310  0.6217
  427THF     H5 7893   2.151   1.935   1.184  0.2326 -1.6055 -0.4595
  427THF     H6 7894   2.002   2.028   1.502 -0.0246 -0.8455 -0.5930
  427THF     H7 7895   2.062   2.185   1.501 -0.0494  0.6511 -1.0617
  427THF     C8 7896   1.936   2.144   1.335  0.1450  0.7003 -0.3921
  427THF     C9 7897   1.964   2.059   1.205  0.2148  0.6635 -0.4090
  427THF    H10 7898   1.946   2.247   1.300  3.0614  1.0341  1.1570
  427THF    H11 7899   1.836   2.125   1.373  0.2721 -0.8948 -0.7914
  427THF    H12 7900   1.888   1.994   1.161  0.3733  1.0069 -1.2220
  427THF    H13 7901   2.002   2.116   1.120 -0.8156 -0.2160 -1.5092
  428THF     O1 7902   2.981   5.128   1.850  0.5237 -0.0871  0.7439
  428THF     C2 7903   3.102   5.119   1.784  0.3712  0.4493  0.8262
  428THF     C3 7904   2.884   5.201   1.782  0.7445 -0.5720  0.4490
  428THF     H4 7905   3.099   5.026   1.727  0.8361  0.8230  0.1823
  428THF     H5 7906   3.181   5.134   1.857  0.4041  0.4153  0.7974
  428THF     H6 7907   2.840   5.128   1.714 -1.6827  1.3000 -0.1213
  428THF     H7 7908   2.810   5.236   1.854  0.6126  0.5193 -0.2031
  428THF     C8 7909   2.963   5.313   1.720 -0.0765  0.1143  0.1337
  428THF     C9 7910   3.093   5.240   1.691 -0.0842  0.2882  0.3171
  428THF    H10 7911   2.985   5.391   1.792  0.2614 -1.2857  1.5883
  428THF    H11 7912   2.932   5.350   1.622  1.4119  3.3234  0.7410
  428THF    H12 7913   3.078   5.208   1.588 -0.9635  2.3054 -0.2447
  428THF    H13 7914   3.177   5.308   1.706 -0.8517  1.2157  0.5410
  429THF     O1 7915   3.237   0.159   3.188 -0.6413 -0.1762 -0.2685
  429THF     C2 7916   3.195   0.030   3.228 -1.0544 -0.2184  0.0732
  429THF     C3 7917   3.251   0.168   3.049 -0.1140  0.5424 -0.1525
  429THF     H4 7918   3.122   0.047   3.308  0.5883 -3.0504  2.4002
  429THF     H5 7919   3.274  -0.034   3.267 -0.8869  0.3030  0.6066
  429THF     H6 7920   3.269   0.268   3.009  1.0430  0.2706 -0.3569
  429THF     H7 7921   3.343   0.117   3.019 -0.4312 -1.3322  1.8199
  429THF     C8 7922   3.136   0.079   3.004 -0.5497  0.4529 -0.2471
  429THF     C9 7923   3.134  -0.036   3.102 -0.1916 -0.1367 -0.0937
  429THF    H10 7924   3.149   0.041   2.903  0.4028 -1.1838  0.4468
  429THF    H11 7925   3.037   0.122   3.019 -1.3332 -0.8511 -1.4129
  429THF    H12 7926   3.033  -0.075   3.111 -0.5934  0.5718 -1.3640
  429THF    H13 7927   3.196  -0.121   3.074  0.0259  0.2107 -0.6867
  430THF     O1 7928   1.723   3.974   3.252  0.3924 -0.4333 -0.4948
  430THF     C2 7929   1.676   3.896   3.362 -0.3012  0.6061  0.3140
  430THF     C3 7930   1.780   4.092   3.306  0.2093 -0.5104  0.6757
  430THF     H4 7931   1.748   3.817   3.382 -0.2053  0.8132  0.7744
  430THF     H5 7932   1.584   3.837   3.352 -0.0509 -0.5011  3.5172
  430THF     H6 7933   1.886   4.097   3.282  0.2412 -1.4233  0.6026
  430THF     H7 7934   1.737   4.180   3.257  0.0442  0.2643  2.1480
  430THF     C8 7935   1.750   4.107   3.448  0.5137 -0.3579  0.8905
  430THF     C9 7936   1.680   3.982   3.488 -0.1838 -0.3615 -0.4906
  430THF    H10 7937   1.691   4.197   3.463 -0.7427 -1.3697  2.3716
  430THF    H11 7938   1.844   4.127   3.499  0.3272 -0.9587  1.4836
  430THF    H12 7939   1.729   3.936   3.574 -0.5495  2.2547  1.2313
  430THF    H13 7940   1.577   3.991   3.520 -0.3678 -0.2663 -1.1057
  431THF     O1 7941   0.436   3.360   5.284  0.2386  0.0121 -0.1421
  431THF     C2 7942   0.317   3.418   5.312  0.4165 -0.3076  0.3900
  431THF     C3 7943   0.446   3.322   5.151 -0.5969  0.7666  0.4039
  431THF     H4 7944   0.340   3.524   5.311  1.1438 -0.4656  0.0027
  431THF     H5 7945   0.276   3.395   5.410 -1.8923 -2.0220 -0.8615
  431THF     H6 7946   0.535   3.354   5.097  0.1523 -2.9612 -0.8450
  431THF     H7 7947   0.456   3.213   5.148  0.2825  0.8670 -0.7750
  431THF     C8 7948   0.316   3.362   5.084 -0.1681  0.2318  0.7075
  431THF     C9 7949   0.214   3.391   5.200 -0.5432  0.1113 -0.0462
  431THF    H10 7950   0.281   3.285   5.016  0.8604  0.4045 -0.0607
  431THF    H11 7951   0.345   3.458   5.038 -0.2661  0.8183  1.8420
  431THF    H12 7952   0.147   3.475   5.183  2.1381  2.8087  1.6138
  431THF    H13 7953   0.149   3.304   5.208  0.6391 -0.8282 -0.3490
  432THF     O1 7954   4.789   2.138   2.280  0.7067 -0.0328  0.3876
  432THF     C2 7955   4.805   2.070   2.155  0.3251 -0.7251  0.4822
  432THF     C3 7956   4.874   2.071   2.363 -0.0773 -0.3132 -0.2226
  432THF     H4 7957   4.776   2.141   2.078 -4.1870 -2.3093  0.4245
  432THF     H5 7958   4.732   1.990   2.162 -0.6173  0.2100  1.9811
  432THF     H6 7959   4.893   2.133   2.450 -2.1508 -0.3634  0.3195
  432THF     H7 7960   4.837   1.977   2.404  1.2820  0.4492  3.0678
  432THF     C8 7961   4.995   2.043   2.283 -0.2986  0.0532 -0.4737
  432THF     C9 7962   4.946   2.006   2.140 -0.3248 -0.6968  0.2727
  432THF    H10 7963   5.050   1.962   2.331 -1.0172 -1.0600 -1.4813
  432THF    H11 7964   5.068   2.123   2.278  1.9460 -1.8768  0.0006
  432THF    H12 7965   5.006   2.049   2.060 -0.1646 -0.4389  0.5326
  432THF    H13 7966   4.956   1.897   2.132  1.5294 -0.5280 -0.1640
  433THF     O1 7967   2.565   2.689   3.367  0.6237 -0.1657  0.0547
  433THF     C2 7968   2.673   2.708   3.279 -0.1939 -0.1072 -0.1023
  433THF     C3 7969   2.622   2.732   3.494 -0.1611 -0.4173 -0.1315
  433THF     H4 7970   2.680   2.816   3.266 -0.4808  0.0700  1.0443
  433THF     H5 7971   2.666   2.657   3.183  0.6321 -0.3112 -0.0583
  433THF     H6 7972   2.581   2.828   3.524 -0.2908 -0.8575  1.1855
  433THF     H7 7973   2.578   2.660   3.564 -1.0613 -0.6028 -0.8609
  433THF     C8 7974   2.774   2.719   3.490 -0.2335 -0.5911 -0.0678
  433THF     C9 7975   2.801   2.661   3.353 -0.1864 -0.7991 -0.3628
  433THF    H10 7976   2.817   2.662   3.572  0.4197 -0.3918 -0.2679
  433THF    H11 7977   2.810   2.822   3.498 -0.9157 -0.3674  0.2314
  433THF    H12 7978   2.896   2.689   3.308  0.3654 -0.3705  1.0214
  433THF    H13 7979   2.794   2.554   3.368 -2.8063 -0.7579 -0.7638
  434THF     O1 7980   4.498   2.705   0.699 -0.2581 -0.1337  0.0494
  434THF     C2 7981   4.527   2.822   0.780 -0.2060 -0.5136  0.2628
  434THF     C3 7982   4.416   2.735   0.594  0.2656 -0.0853  0.4043
  434THF     H4 7983   4.616   2.813   0.842  0.3280 -0.4815 -0.4853
  434THF     H5 7984   4.444   2.847   0.846 -0.8638  2.2723 -1.4209
  434THF     H6 7985   4.415   2.647   0.529  0.0678  1.3782 -1.6677
  434THF     H7 7986   4.321   2.760   0.640 -0.0487  2.0528 -1.2574
  434THF     C8 7987   4.487   2.861   0.539 -0.1689 -0.8352  0.0054
  434THF     C9 7988   4.530   2.932   0.669 -0.3056  0.0499 -0.6975
  434THF    H10 7989   4.422   2.918   0.472 -1.4518 -0.0609  1.8389
  434THF    H11 7990   4.568   2.835   0.471 -0.1964  0.3866 -0.5248
  434THF    H12 7991   4.626   2.983   0.659 -0.9648  1.1605 -1.6786
  434THF    H13 7992   4.458   3.007   0.700 -0.2963  0.0527 -0.6832
  435THF     O1 7993   2.770   1.694   0.455 -0.3317 -0.1560 -0.0557
  435THF     C2 7994   2.906   1.722   0.420  0.5266  0.4564  0.8335
  435THF     C3 7995   2.723   1.799   0.538 -0.0695  0.3335  0.0440
  435THF     H4 7996   2.930   1.652   0.340  4.4872  0.4090  1.8644
  435THF     H5 7997   2.961   1.704   0.513 -1.0723  0.7392  1.8745
  435THF     H6 7998   2.616   1.819   0.537 -0.4264 -1.3906 -0.6840
  435THF     H7 7999   2.759   1.770   0.637  1.8278 -0.0457 -0.7103
  435THF     C8 8000   2.800   1.920   0.495  0.4568  0.6792  0.1709
  435THF     C9 8001   2.892   1.866   0.387 -0.5322  0.6754  0.1534
  435THF    H10 8002   2.855   1.968   0.577 -0.3268 -1.3712  2.0081
  435THF    H11 8003   2.729   1.990   0.453 -1.7609 -0.3571  1.9727
  435THF    H12 8004   2.854   1.880   0.286 -0.4996 -1.1746 -0.1611
  435THF    H13 8005   2.988   1.917   0.380 -1.0073  1.5365 -0.2484
  436THF     O1 8006   5.257   2.030   0.221  0.0842  0.0596 -0.3806
  436THF     C2 8007   5.200   2.151   0.271  0.1743 -0.2819 -0.4888
  436THF     C3 8008   5.156   1.946   0.170  0.1517  0.5629 -0.1125
  436THF     H4 8009   5.219   2.243   0.215 -0.0569  1.5291  2.2013
  436THF     H5 8010   5.248   2.172   0.367  0.8370  0.7806 -1.0389
  436THF     H6 8011   5.132   1.967   0.066  0.0215 -1.0078 -0.4194
  436THF     H7 8012   5.188   1.842   0.176  0.5706  0.6368 -0.8898
  436THF     C8 8013   5.041   1.970   0.261 -0.3790  0.2342  0.3988
  436THF     C9 8014   5.049   2.124   0.280  1.0878 -0.2071 -0.1537
  436THF    H10 8015   5.049   1.914   0.354 -2.4593 -0.5550  0.1649
  436THF    H11 8016   4.951   1.934   0.212  0.3902  0.3651 -1.1538
  436THF    H12 8017   4.997   2.174   0.198 -1.1347 -1.1390  0.6021
  436THF    H13 8018   5.000   2.151   0.374 -0.2526  1.2076 -1.1975
  437THF     O1 8019   4.114   1.784   1.212  0.3045 -0.3807 -0.2204
  437THF     C2 8020   4.018   1.768   1.313  0.1119 -0.7594 -0.1196
  437THF     C3 8021   4.183   1.664   1.186 -0.0267 -0.3360  0.7756
  437THF     H4 8022   3.922   1.761   1.262  0.0811 -0.5263 -0.0941
  437THF     H5 8023   4.002   1.854   1.378 -0.5117 -0.2498 -0.9240
  437THF     H6 8024   4.155   1.598   1.104  2.7070 -0.3726 -0.2129
  437THF     H7 8025   4.284   1.698   1.162 -0.9179  1.6401 -0.4662
  437THF     C8 8026   4.182   1.594   1.323  0.1658 -0.1586 -1.1035
  437THF     C9 8027   4.054   1.640   1.389  0.1889 -0.4991 -0.3623
  437THF    H10 8028   4.262   1.625   1.390  1.3753 -1.7992 -1.7130
  437THF    H11 8029   4.188   1.485   1.321 -0.1859 -0.2239  0.1143
  437THF    H12 8030   3.973   1.568   1.376  0.0329  0.0693 -3.3923
  437THF    H13 8031   4.060   1.651   1.497 -1.2736 -0.6063 -0.2580
  438THF     O1 8032   3.189   2.334   1.909 -0.2029 -0.0766  0.3029
  438THF     C2 8033   3.210   2.319   2.053  0.0656 -0.2287 -0.0447
  438THF     C3 8034   3.217   2.197   1.867  0.2261  0.0996 -0.6653
  438THF     H4 8035   3.180   2.400   2.119  0.2045 -0.7554  0.6778
  438THF     H5 8036   3.316   2.304   2.073  0.0233  0.8734  1.1040
  438THF     H6 8037   3.199   2.181   1.761 -1.0684  0.1015 -0.4615
  438THF     H7 8038   3.324   2.181   1.884 -0.0826 -1.2631  0.1365
  438THF     C8 8039   3.131   2.108   1.961 -0.0713 -1.1859  0.2504
  438THF     C9 8040   3.142   2.183   2.093 -0.1329  0.2501 -0.0866
  438THF    H10 8041   3.167   2.005   1.970 -0.5791 -1.5872 -1.7547
  438THF    H11 8042   3.034   2.109   1.912 -0.2697  0.6365  0.6035
  438THF    H12 8043   3.041   2.207   2.124 -0.2096 -0.3613  0.1473
  438THF    H13 8044   3.195   2.111   2.156 -0.6383  0.1290  0.2062
  439THF     O1 8045   0.303   0.158   4.390 -0.2081 -0.2815  0.8840
  439THF     C2 8046   0.412   0.250   4.380 -0.1699  0.1437  0.1459
  439THF     C3 8047   0.201   0.202   4.304  0.0465 -0.8172 -0.2310
  439THF     H4 8048   0.506   0.208   4.344 -1.0831 -0.9678 -1.0340
  439THF     H5 8049   0.436   0.284   4.481  1.8662 -2.5024  0.6472
  439THF     H6 8050   0.206   0.166   4.201 -2.6699 -0.4518 -0.5411
  439THF     H7 8051   0.104   0.174   4.343  0.2006  0.4889  1.1881
  439THF     C8 8052   0.220   0.359   4.297  0.3219 -0.0686 -0.1315
  439THF     C9 8053   0.372   0.361   4.282 -0.3016  0.4909 -0.2186
  439THF    H10 8054   0.184   0.409   4.387  0.1223  1.9713 -1.2732
  439THF    H11 8055   0.159   0.411   4.224 -0.5249  1.2727  1.4651
  439THF    H12 8056   0.413   0.336   4.184 -0.8008  0.1485 -0.3447
  439THF    H13 8057   0.416   0.456   4.313  0.9659  0.6557 -2.3233
  440THF     O1 8058   1.818   3.877   0.578  0.3623 -0.6171 -0.5341
  440THF     C2 8059   1.912   3.977   0.543  0.0251  0.1932  0.2612
  440THF     C3 8060   1.880   3.750   0.583 -0.1996  0.0008 -0.4558
  440THF     H4 8061   1.868   4.071   0.576  0.2529 -0.4453  2.5125
  440THF     H5 8062   1.924   3.974   0.434 -4.0109  1.6582 -0.3910
  440THF     H6 8063   1.818   3.683   0.643  0.4641  0.0639  0.3262
  440THF     H7 8064   1.882   3.691   0.491 -2.0674 -2.0146  0.7062
  440THF     C8 8065   2.018   3.789   0.633 -0.1036  0.1786  0.4930
  440THF     C9 8066   2.035   3.939   0.620  0.3473 -0.0074 -0.0089
  440THF    H10 8067   2.091   3.755   0.561  0.1989  2.5147 -0.3778
  440THF    H11 8068   2.033   3.756   0.736 -1.6755  1.0167  1.0362
  440THF    H12 8069   2.038   3.996   0.714 -0.1791  0.4308 -0.2546
  440THF    H13 8070   2.118   3.988   0.569 -0.7046  2.1349  0.2260
  441THF     O1 8071   4.904   1.698   0.212 -0.2900 -0.4455 -0.3112
  441THF     C2 8072   4.887   1.575   0.281 -0.4559  0.8767  0.5821
  441THF     C3 8073   4.913   1.669   0.072 -0.0869  0.3422  0.1633
  441THF     H4 8074   4.791   1.533   0.252  0.5970 -1.9021  0.7493
  441THF     H5 8075   4.888   1.590   0.389  2.2601  0.3234  0.7126
  441THF     H6 8076   4.813   1.657   0.031 -0.9455  2.4921  1.4361
  441THF     H7 8077   4.954   1.741   0.002  1.3823 -1.0437 -0.4472
  441THF     C8 8078   4.991   1.530   0.071  0.0056 -0.6867 -0.6809
  441THF     C9 8079   4.998   1.487   0.221  0.6446  0.0918  0.4094
  441THF    H10 8080   5.098   1.539   0.050 -0.0374 -0.1359 -0.6799
  441THF    H11 8081   4.948   1.461  -0.001 -0.4941 -1.4289  0.3020
  441THF    H12 8082   4.970   1.382   0.216 -0.4539  0.3620  0.4326
  441THF    H13 8083   5.092   1.511   0.270  0.1492  0.1333  1.3756
  442THF     O1 8084   0.190   5.048   3.474 -0.0268  0.0366  0.7556
  442THF     C2 8085   0.082   4.963   3.520  0.8484  0.1393 -0.2627
  442THF     C3 8086   0.219   5.140   3.571  0.0841  0.0341  0.1770
  442THF     H4 8087   0.102   4.890   3.599 -1.5111  0.1741  0.4546
  442THF     H5 8088   0.032   4.897   3.449 -0.5487 -0.5656  1.2971
  442THF     H6 8089   0.297   5.102   3.636  1.2900  1.1825 -0.5388
  442THF     H7 8090   0.252   5.230   3.518 -0.0515 -1.0131 -1.8035
  442THF     C8 8091   0.085   5.174   3.648  0.6627  0.6464 -0.0186
  442THF     C9 8092  -0.009   5.070   3.581 -0.2033 -0.6128  0.8283
  442THF    H10 8093   0.049   5.274   3.624 -0.8018 -0.3247 -2.2149
  442THF    H11 8094   0.087   5.173   3.757  0.1693 -2.6999  0.0684
  442THF    H12 8095  -0.070   5.021   3.656 -2.2668  1.1623  0.4155
  442THF    H13 8096  -0.076   5.112   3.506  0.7201 -0.6328 -0.0320
  443THF     O1 8097   2.103   0.182   2.157  0.2225  0.4143  0.0757
  443THF     C2 8098   2.187   0.131   2.060 -0.0894 -0.0039 -0.0014
  443THF     C3 8099   2.103   0.319   2.162  0.9151 -0.5267 -0.2298
  443THF     H4 8100   2.136   0.129   1.964 -0.1366  0.1733  0.0208
  443THF     H5 8101   2.216   0.032   2.096  1.1013  0.8511  1.5440
  443THF     H6 8102   2.007   0.357   2.127  1.7947  1.4343 -0.6249
  443THF     H7 8103   2.133   0.348   2.262  1.2073 -0.8295 -0.2248
  443THF     C8 8104   2.205   0.364   2.066  0.0098  0.5589  0.3100
  443THF     C9 8105   2.295   0.242   2.061 -0.0269  0.4413 -0.0990
  443THF    H10 8106   2.251   0.456   2.102  1.7516  0.2422 -0.9824
  443THF    H11 8107   2.156   0.403   1.977  0.4016  0.8483  0.2185
  443THF    H12 8108   2.353   0.231   1.970 -3.3122  0.1546 -2.3430
  443THF    H13 8109   2.358   0.235   2.150 -0.1215  0.3307 -0.0401
  444THF     O1 8110   0.249   4.220   4.986 -0.2227 -0.1215 -0.0279
  444THF     C2 8111   0.326   4.232   5.110 -0.9284  0.0058 -0.0870
  444THF     C3 8112   0.289   4.322   4.899  0.3243  0.9422  0.2514
  444THF     H4 8113   0.430   4.198   5.103 -0.8156  0.4551 -0.7498
  444THF     H5 8114   0.281   4.161   5.179  0.3927 -3.4299 -2.4629
  444THF     H6 8115   0.395   4.307   4.876  0.4556  0.7313  0.9559
  444THF     H7 8116   0.229   4.319   4.808 -0.6235 -0.1454  0.8758
  444THF     C8 8117   0.278   4.442   4.992 -0.0034 -0.2335  0.1559
  444THF     C9 8118   0.298   4.378   5.132 -0.7928 -0.5679  0.1713
  444THF    H10 8119   0.182   4.491   4.980  0.2096  0.0974 -0.2352
  444THF    H11 8120   0.362   4.511   4.984 -0.9505  0.8601 -0.7800
  444THF    H12 8121   0.376   4.423   5.194 -0.7622  0.4074 -0.5458
  444THF    H13 8122   0.214   4.398   5.198  1.1785  1.5695  2.2248
  445THF     O1 8123   1.513   1.637   1.117 -0.4202 -0.1213 -0.3006
  445THF     C2 8124   1.635   1.640   1.197 -0.2047 -0.5956 -0.1778
  445THF     C3 8125   1.555   1.628   0.981 -0.2879  0.5226 -0.1127
  445THF     H4 8126   1.678   1.540   1.205  2.0056  0.2966 -0.2389
  445THF     H5 8127   1.616   1.684   1.295  1.1815 -2.0584  0.8134
  445THF     H6 8128   1.593   1.527   0.963  1.7400  1.1872  0.2029
  445THF     H7 8129   1.478   1.649   0.907  2.6538 -1.4794 -4.1257
  445THF     C8 8130   1.677   1.709   0.975 -0.0836  0.2878  0.6076
  445THF     C9 8131   1.731   1.724   1.110 -0.5888  0.3887  0.6546
  445THF    H10 8132   1.656   1.803   0.925 -1.7092 -0.1095  0.4768
  445THF    H11 8133   1.756   1.664   0.915 -0.4862  0.7610 -0.2871
  445THF    H12 8134   1.834   1.689   1.125  0.5649  0.0114 -5.5607
  445THF    H13 8135   1.735   1.828   1.143 -0.6081  1.2966 -1.9716
  446THF     O1 8136   0.460   4.091   3.756 -0.4731 -0.1549 -0.4435
  446THF     C2 8137   0.527   4.119   3.632 -0.0378  0.0184  0.3678
  446THF     C3 8138   0.456   4.202   3.834  0.1036  0.2551 -0.4424
  446THF     H4 8139   0.503   4.046   3.554 -1.5204  1.2969 -0.4522
  446THF     H5 8140   0.635   4.124   3.641 -0.0362 -2.2799  2.6382
  446THF     H6 8141   0.400   4.193   3.927  0.3762 -1.0943 -0.3956
  446THF     H7 8142   0.557   4.225   3.867  0.2181  1.5449 -1.5597
  446THF     C8 8143   0.421   4.313   3.736  0.1412 -0.1429 -0.3367
  446THF     C9 8144   0.454   4.253   3.604 -0.1057 -0.1715  0.5662
  446THF    H10 8145   0.468   4.410   3.750 -3.7475  2.5905 -3.5247
  446THF    H11 8146   0.315   4.338   3.734  0.0065 -0.7132 -1.5335
  446THF    H12 8147   0.374   4.249   3.530  0.2404 -1.4557  0.2276
  446THF    H13 8148   0.527   4.319   3.556 -0.8390 -0.8274 -1.5595
  447THF     O1 8149   0.818   1.126   0.528 -0.3974 -0.1609 -0.3246
  447THF     C2 8150   0.936   1.058   0.481 -0.3382  0.4835  0.3087
  447THF     C3 8151   0.746   1.035   0.612 -0.1552  0.2766 -0.2961
  447THF     H4 8152   1.009   1.043   0.560 -0.4818 -0.1938  0.3234
  447THF     H5 8153   0.974   1.119   0.399 -0.5255 -0.2715 -0.3597
  447THF     H6 8154   0.798   1.029   0.707  1.1820  0.5078 -0.9931
  447THF     H7 8155   0.643   1.069   0.625 -0.3802  0.7428 -2.7679
  447THF     C8 8156   0.751   0.899   0.530 -0.0329 -0.4023 -0.2353
  447THF     C9 8157   0.867   0.925   0.437 -0.5092  0.4373 -0.3365
  447THF    H10 8158   0.658   0.883   0.475  0.2432 -1.4078 -0.4268
  447THF    H11 8159   0.756   0.806   0.586 -0.8834 -1.9090 -2.5177
  447THF    H12 8160   0.939   0.845   0.454 -1.0104  0.4477  2.2374
  447THF    H13 8161   0.846   0.929   0.330  0.5355 -1.8488 -0.6966
  448THF     O1 8162   3.908   2.969   4.710 -0.5342  0.8455  0.4385
  448THF     C2 8163   3.837   2.870   4.634 -0.5849  0.0269  0.0146
  448THF     C3 8164   3.840   3.095   4.708  0.1134 -0.1074 -0.1684
  448THF     H4 8165   3.879   2.771   4.644  0.9035  0.5875 -0.5267
  448THF     H5 8166   3.843   2.903   4.531 -0.1685 -0.6024 -0.1650
  448THF     H6 8167   3.867   3.142   4.802 -2.0841  2.6807 -0.8130
  448THF     H7 8168   3.887   3.145   4.623 -0.6118 -0.7349 -0.9543
  448THF     C8 8169   3.691   3.056   4.703 -0.7829  0.1222 -0.2202
  448THF     C9 8170   3.694   2.898   4.681  1.5423 -0.8489 -0.1767
  448THF    H10 8171   3.643   3.108   4.620  1.0249  1.0508 -0.7251
  448THF    H11 8172   3.637   3.082   4.795  2.8068  2.1135  1.5342
  448THF    H12 8173   3.682   2.850   4.778 -3.0119  0.9652  0.4280
  448THF    H13 8174   3.615   2.868   4.612 -0.2922  4.2273 -0.7124
  449THF     O1 8175   4.621   1.590   4.170 -0.0461  0.2052 -0.3146
  449THF     C2 8176   4.547   1.710   4.197  0.3047  0.1006 -0.0992
  449THF     C3 8177   4.744   1.623   4.114  0.6982 -0.1657 -0.0833
  449THF     H4 8178   4.526   1.736   4.301 -4.1116 -1.0571 -0.4827
  449THF     H5 8179   4.456   1.739   4.144  0.1991 -1.0738 -0.5796
  449THF     H6 8180   4.822   1.547   4.125  1.2828  0.6128  1.3809
  449THF     H7 8181   4.724   1.624   4.007  0.2957 -0.8176 -0.0210
  449THF     C8 8182   4.779   1.757   4.174 -0.1719 -0.7218  0.4062
  449THF     C9 8183   4.642   1.822   4.162 -0.5271  0.6953 -0.1866
  449THF    H10 8184   4.849   1.811   4.110 -1.4362  0.3506 -0.1186
  449THF    H11 8185   4.812   1.754   4.277  0.2631 -1.1653  0.2602
  449THF    H12 8186   4.635   1.914   4.220 -0.3083 -0.2138  1.3530
  449THF    H13 8187   4.627   1.858   4.060 -0.9550  0.3173 -0.2597
  450THF     O1 8188   1.625   4.597   2.371  0.1253  0.0498  0.0495
  450THF     C2 8189   1.672   4.503   2.267  0.5019  0.0098 -0.8784
  450THF     C3 8190   1.488   4.614   2.361  0.0808 -0.6040 -0.0849
  450THF     H4 8191   1.691   4.406   2.313 -0.4152  0.2503  0.0439
  450THF     H5 8192   1.758   4.547   2.217  1.8381 -0.6662  0.7343
  450THF     H6 8193   1.444   4.537   2.425  0.5127 -1.2382 -0.5445
  450THF     H7 8194   1.458   4.714   2.395  0.5988 -0.2222 -0.7400
  450THF     C8 8195   1.465   4.596   2.211 -0.0556 -0.1307  0.0341
  450THF     C9 8196   1.555   4.480   2.173 -0.1651 -0.0822 -0.5764
  450THF    H10 8197   1.500   4.693   2.177  0.5048  0.1414  1.3055
  450THF    H11 8198   1.365   4.576   2.174  0.2630 -0.6444 -0.5684
  450THF    H12 8199   1.515   4.379   2.182 -0.2230 -0.1245 -1.2485
  450THF    H13 8200   1.590   4.481   2.070  2.0778 -1.8553  0.0903
  451THF     O1 8201   0.805   4.482   4.545  0.2929  0.0424  0.4260
  451THF     C2 8202   0.888   4.455   4.658 -0.0138 -0.0321 -0.2521
  451THF     C3 8203   0.896   4.478   4.435 -0.0043 -0.6150  0.0041
  451THF     H4 8204   0.836   4.437   4.752  1.5120  2.1236  1.0661
  451THF     H5 8205   0.947   4.541   4.688 -0.5318 -0.5123  2.4002
  451THF     H6 8206   0.832   4.490   4.347  0.1865  3.5150  0.2032
  451THF     H7 8207   0.964   4.563   4.445 -0.4331 -0.4208  1.5030
  451THF     C8 8208   0.980   4.346   4.460  0.5401 -0.4289  0.2812
  451THF     C9 8209   0.986   4.345   4.619  0.5966 -0.1453 -0.1377
  451THF    H10 8210   1.081   4.338   4.419  0.1159  0.3375 -0.9608
  451THF    H11 8211   0.918   4.266   4.421  0.9977 -0.3070 -0.7052
  451THF    H12 8212   0.944   4.253   4.659  1.6554  0.0539  1.5231
  451THF    H13 8213   1.090   4.361   4.649  0.4283  0.9724 -0.0862
  452THF     O1 8214   1.964   3.219   3.969  0.2858  0.5166 -0.2896
  452THF     C2 8215   1.831   3.183   3.928  0.2062 -0.3288  0.0313
  452THF     C3 8216   2.046   3.216   3.859 -0.5804 -0.4310  0.9822
  452THF     H4 8217   1.774   3.268   3.966  1.7982  0.4579  0.7475
  452THF     H5 8218   1.802   3.089   3.975  0.2550 -0.8597 -0.9815
  452THF     H6 8219   2.050   3.314   3.814 -0.0567 -0.4304  1.0158
  452THF     H7 8220   2.152   3.204   3.884  0.2324  2.9217 -0.3455
  452THF     C8 8221   1.972   3.117   3.759 -0.2930  0.2966 -0.6120
  452THF     C9 8222   1.834   3.172   3.780  0.5152  0.0412  0.9290
  452THF    H10 8223   1.991   3.015   3.793 -2.0254 -0.1630 -0.9221
  452THF    H11 8224   2.020   3.124   3.662  1.7888  1.4261  0.4419
  452THF    H12 8225   1.821   3.266   3.725 -2.7188  0.5410  2.3429
  452THF    H13 8226   1.760   3.099   3.744  1.1106  0.0510 -0.3875
  453THF     O1 8227   0.821   2.838   2.195 -0.1636  0.4073 -0.0988
  453THF     C2 8228   0.806   2.835   2.055  0.1061 -0.3556 -0.1737
  453THF     C3 8229   0.857   2.706   2.233 -0.2841 -0.2360  0.1337
  453THF     H4 8230   0.828   2.935   2.018 -2.1361  1.5452  3.1658
  453THF     H5 8231   0.716   2.791   2.013  1.2662 -3.1144  0.0021
  453THF     H6 8232   0.896   2.688   2.333  2.5933 -2.4706 -1.2568
  453THF     H7 8233   0.778   2.634   2.212  1.5133 -1.8966 -1.2915
  453THF     C8 8234   0.969   2.684   2.134 -0.3573 -0.6055 -0.0276
  453THF     C9 8235   0.905   2.736   2.002 -0.5065  0.3090 -0.3600
  453THF    H10 8236   0.980   2.577   2.117  1.3226 -0.3881 -0.4787
  453THF    H11 8237   1.066   2.725   2.161 -0.3346 -0.8671  0.2966
  453THF    H12 8238   0.975   2.786   1.935 -0.1379 -2.5223 -2.2703
  453THF    H13 8239   0.845   2.653   1.964 -0.4998  0.0772  0.1306
  454THF     O1 8240   1.939   3.248   1.019 -0.6588 -0.0241 -0.4598
  454THF     C2 8241   2.023   3.358   1.028 -0.3799 -0.7245 -0.5960
  454THF     C3 8242   1.833   3.293   0.924 -0.6957  0.4234 -0.3696
  454THF     H4 8243   2.112   3.340   0.968  0.6352 -2.2134  1.2328
  454THF     H5 8244   2.058   3.369   1.131 -0.1989  3.1339 -0.9331
  454THF     H6 8245   1.851   3.283   0.817  0.5923 -1.7809 -0.0142
  454THF     H7 8246   1.746   3.230   0.942 -0.5936  0.8145  1.7647
  454THF     C8 8247   1.801   3.437   0.961 -0.1986 -0.2084  0.0961
  454THF     C9 8248   1.941   3.483   0.978 -0.6016  0.1609  0.6826
  454THF    H10 8249   1.755   3.460   1.057  0.5589 -0.6122  0.5653
  454THF    H11 8250   1.738   3.486   0.887 -0.0964 -2.2703 -1.4545
  454THF    H12 8251   1.978   3.518   0.881  2.0478 -1.0332  1.1713
  454THF    H13 8252   1.950   3.567   1.046 -1.7386  0.5928  0.3202
  455THF     O1 8253   5.452   2.597   4.286  0.0296 -0.2052 -0.2722
  455THF     C2 8254   5.502   2.470   4.311 -0.1809  1.3062  0.4330
  455THF     C3 8255   5.310   2.583   4.280 -0.4273  0.0012 -0.3755
  455THF     H4 8256   5.488   2.451   4.418  2.4043  0.6211  0.7048
  455THF     H5 8257   5.608   2.462   4.290 -0.7511 -1.4968 -2.1791
  455THF     H6 8258   5.267   2.572   4.380 -0.3781  0.3650 -0.3143
  455THF     H7 8259   5.268   2.675   4.239  0.0346  0.0969 -0.6279
  455THF     C8 8260   5.289   2.451   4.204 -0.1087  0.1205 -0.1699
  455THF     C9 8261   5.420   2.373   4.230  0.0362  1.0226  0.8878
  455THF    H10 8262   5.272   2.491   4.104  1.7536 -1.8955 -1.3813
  455THF    H11 8263   5.203   2.392   4.239  0.7014 -0.0231  1.6576
  455THF    H12 8264   5.408   2.281   4.286 -0.4290  0.3210 -0.3239
  455THF    H13 8265   5.478   2.348   4.141 -1.1771  0.5936  0.2008
  456THF     O1 8266   3.587   1.996   2.285 -0.2952 -0.6584 -0.7686
  456THF     C2 8267   3.662   1.915   2.198  0.0192 -0.5087 -0.4689
  456THF     C3 8268   3.523   2.101   2.203 -0.3431  1.1223  0.5026
  456THF     H4 8269   3.710   1.832   2.250 -0.1301 -0.2872  0.0264
  456THF     H5 8270   3.749   1.972   2.166  0.5029  0.9242  3.0109
  456THF     H6 8271   3.432   2.144   2.244 -0.3830  1.1072  0.4291
  456THF     H7 8272   3.584   2.187   2.178  0.7341 -0.0488 -1.1128
  456THF     C8 8273   3.491   2.015   2.077  0.2214 -0.3659 -0.3446
  456THF     C9 8274   3.574   1.891   2.081 -0.8092 -0.0283  0.0702
  456THF    H10 8275   3.505   2.076   1.988  0.1041 -1.0940 -0.8630
  456THF    H11 8276   3.388   1.983   2.090  0.5756 -1.2031  0.4983
  456THF    H12 8277   3.511   1.806   2.106  1.0807 -1.5560 -0.1717
  456THF    H13 8278   3.636   1.875   1.993  2.4529  0.3816  2.1039
  457THF     O1 8279   4.707   3.762   5.193  1.3850  0.0722 -0.3796
  457THF     C2 8280   4.698   3.684   5.075  0.2139 -0.6654  0.2732
  457THF     C3 8281   4.731   3.899   5.170 -0.4387  0.3450  0.0739
  457THF     H4 8282   4.634   3.596   5.085  1.8354 -2.0981 -1.2618
  457THF     H5 8283   4.796   3.646   5.045  0.6434 -0.0419  0.8840
  457THF     H6 8284   4.656   3.957   5.223  2.0597  1.4585  2.6120
  457THF     H7 8285   4.827   3.925   5.214 -1.0054  0.6108  1.1781
  457THF     C8 8286   4.725   3.920   5.017 -0.3206  0.4346  0.2462
  457THF     C9 8287   4.646   3.797   4.982 -0.5068  0.0520  1.2171
  457THF    H10 8288   4.822   3.920   4.967  0.1847 -0.1470  1.1980
  457THF    H11 8289   4.681   4.011   4.976  1.8379  0.8381 -1.3225
  457THF    H12 8290   4.539   3.811   4.993 -0.2711  0.9394  2.4809
  457THF    H13 8291   4.678   3.766   4.882 -0.2973 -1.0928  1.6255
  458THF     O1 8292   3.033   1.073   1.440  0.2640  0.3228  0.8074
  458THF     C2 8293   3.088   1.039   1.322 -0.4328  0.8715  0.1838
  458THF     C3 8294   3.052   1.209   1.457 -0.1009  1.2890  0.5683
  458THF     H4 8295   3.055   0.939   1.291 -1.9829  1.4920 -0.2739
  458THF     H5 8296   3.196   1.040   1.326 -0.3538  3.9794 -0.4229
  458THF     H6 8297   2.970   1.236   1.524 -0.7881  0.2993  0.1457
  458THF     H7 8298   3.145   1.233   1.509  0.9776  0.5318 -0.9396
  458THF     C8 8299   3.038   1.266   1.315  0.2533 -0.3080  0.1675
  458THF     C9 8300   3.037   1.149   1.226 -0.1866  0.5653  0.1910
  458THF    H10 8301   3.105   1.349   1.292  0.7532 -0.1400  2.0641
  458THF    H11 8302   2.942   1.317   1.304  0.6114  0.0234 -1.8467
  458THF    H12 8303   2.934   1.124   1.199  0.7611 -0.5946 -2.7516
  458THF    H13 8304   3.103   1.155   1.140 -0.3854  0.6156  0.0413
  459THF     O1 8305   4.190   5.250   5.146 -0.8599  0.2531 -0.2655
  459THF     C2 8306   4.276   5.251   5.257  0.4632 -0.1972  1.0312
  459THF     C3 8307   4.246   5.178   5.040  0.5607  0.3170 -0.1955
  459THF     H4 8308   4.222   5.252   5.352 -0.9684  0.3545  0.2337
  459THF     H5 8309   4.339   5.340   5.265 -2.3496  1.9412  1.1844
  459THF     H6 8310   4.161   5.140   4.983 -0.8503 -0.6365  2.3792
  459THF     H7 8311   4.302   5.243   4.973  1.3380 -0.0182  0.1253
  459THF     C8 8312   4.325   5.065   5.113  0.2637  0.1363  0.1040
  459THF     C9 8313   4.377   5.128   5.241  0.3886  0.3848 -0.2044
  459THF    H10 8314   4.410   5.022   5.059  1.6303 -0.5151  2.6009
  459THF    H11 8315   4.256   4.984   5.134  0.2629  0.2389  0.5132
  459THF    H12 8316   4.374   5.063   5.329 -3.4887  0.3477 -0.1951
  459THF    H13 8317   4.482   5.154   5.227  0.9277 -0.1047  2.3205
  460THF     O1 8318   2.595   1.667   3.098  0.0887 -0.0727 -0.6366
  460THF     C2 8319   2.558   1.539   3.046 -0.4755 -0.3806  0.7780
  460THF     C3 8320   2.712   1.642   3.176  0.5820 -0.6490 -0.1580
  460THF     H4 8321   2.478   1.556   2.974 -0.7644  0.4598  1.2678
  460THF     H5 8322   2.508   1.470   3.115 -0.8864 -0.5067  0.3622
  460THF     H6 8323   2.774   1.728   3.201 -0.9443  0.9254 -1.5493
  460THF     H7 8324   2.683   1.593   3.269 -1.3978 -2.1379 -1.4848
  460THF     C8 8325   2.777   1.536   3.091  0.0076 -0.1770  0.3322
  460THF     C9 8326   2.680   1.486   2.986 -0.2632 -1.2716 -0.2212
  460THF    H10 8327   2.797   1.459   3.166 -1.3458 -1.0523 -0.1853
  460THF    H11 8328   2.872   1.572   3.050  0.3910  1.4476  2.4126
  460THF    H12 8329   2.712   1.538   2.895 -0.5962  0.2330  0.4948
  460THF    H13 8330   2.675   1.379   2.964 -1.7832 -0.8854 -2.0640
  461THF     O1 8331   4.874   1.728   3.117 -0.8683  0.5862 -0.2969
  461THF     C2 8332   4.998   1.788   3.077  0.0670 -0.0996  0.1734
  461THF     C3 8333   4.820   1.655   3.008  0.0320 -0.2252 -0.6424
  461THF     H4 8334   5.075   1.723   3.119 -0.0599  1.2196  2.6090
  461THF     H5 8335   5.010   1.887   3.120 -0.7006 -0.7165  1.9161
  461THF     H6 8336   4.856   1.552   2.998  1.0893 -0.1431  1.6464
  461THF     H7 8337   4.712   1.655   3.019  0.0165  3.4149  0.4847
  461THF     C8 8338   4.864   1.727   2.887  0.1870 -0.2497 -0.0226
  461THF     C9 8339   5.003   1.777   2.923 -0.2931 -0.6545  0.0364
  461THF    H10 8340   4.794   1.806   2.860 -1.4435 -2.0096 -1.1851
  461THF    H11 8341   4.860   1.674   2.792  1.8436  0.2270 -0.4017
  461THF    H12 8342   5.068   1.695   2.894 -4.3399 -3.9564 -0.5921
  461THF    H13 8343   5.030   1.867   2.868  0.7004 -2.6776 -3.0668
  462THF     O1 8344   1.774   1.952   3.888  0.6463  0.3654  0.0698
  462THF     C2 8345   1.769   1.962   4.035  0.7602  0.4732 -0.2583
  462THF     C3 8346   1.740   1.814   3.847  0.0023 -0.4499 -0.3812
  462THF     H4 8347   1.670   1.943   4.076  2.2792 -3.0690  2.2590
  462THF     H5 8348   1.819   2.049   4.079  1.3056 -1.8096  4.2366
  462THF     H6 8349   1.633   1.805   3.830  0.0523 -0.6875 -0.5798
  462THF     H7 8350   1.792   1.790   3.754 -0.9989 -0.4316 -0.9541
  462THF     C8 8351   1.808   1.735   3.963  0.2476  0.2841 -0.3059
  462THF     C9 8352   1.846   1.834   4.070 -0.2348  0.1180  0.5206
  462THF    H10 8353   1.899   1.690   3.924 -0.0698 -1.7013  1.0477
  462THF    H11 8354   1.742   1.659   4.004  0.5061  0.6529  0.8224
  462THF    H12 8355   1.822   1.807   4.173 -0.9444 -1.3479  0.0046
  462THF    H13 8356   1.946   1.871   4.049  0.2280 -1.5687 -0.4450
  463THF     O1 8357   2.788   0.016   2.573 -0.4263 -0.3345  0.2898
  463THF     C2 8358   2.833  -0.089   2.656  0.4395  0.3041 -0.4591
  463THF     C3 8359   2.710   0.101   2.651 -0.3410  0.3352 -0.4231
  463THF     H4 8360   2.934  -0.117   2.627  0.1127  1.0296 -2.4326
  463THF     H5 8361   2.764  -0.171   2.637  0.9841  0.0761 -1.5155
  463THF     H6 8362   2.701   0.195   2.597 -3.0255  0.3697 -0.0497
  463THF     H7 8363   2.609   0.061   2.665 -1.1913  3.0434  2.3163
  463THF     C8 8364   2.787   0.104   2.780  0.0534 -0.4534  0.0382
  463THF     C9 8365   2.821  -0.046   2.799  0.0808  0.2782 -0.2317
  463THF    H10 8366   2.717   0.146   2.852 -2.2065 -0.7873 -1.8175
  463THF    H11 8367   2.882   0.157   2.772 -1.1277  2.0919  1.5036
  463THF    H12 8368   2.902  -0.060   2.870 -1.2013  0.1585  1.2765
  463THF    H13 8369   2.735  -0.087   2.853  1.1890 -0.4608  1.0106
  464THF     O1 8370   0.972   1.635   1.231  0.0393  0.1882 -0.0910
  464THF     C2 8371   1.019   1.708   1.117  0.3084  0.8497  0.2145
  464THF     C3 8372   0.926   1.506   1.191 -0.6571 -0.1974 -0.7404
  464THF     H4 8373   1.092   1.785   1.140 -0.1938  2.1039 -2.0682
  464THF     H5 8374   0.933   1.759   1.073 -1.1091 -1.8625 -0.4251
  464THF     H6 8375   0.931   1.442   1.279  0.0409  1.9744  0.8631
  464THF     H7 8376   0.818   1.520   1.178 -0.3849  2.4586 -0.6382
  464THF     C8 8377   1.030   1.470   1.088  0.5614  0.1616 -0.4693
  464THF     C9 8378   1.076   1.602   1.021  0.1215 -0.1620 -0.4484
  464THF    H10 8379   0.991   1.404   1.010  1.4269 -0.0791 -0.7076
  464THF    H11 8380   1.099   1.409   1.145 -0.6478  0.9367  1.9632
  464THF    H12 8381   1.184   1.608   1.032  0.2413 -3.4022  1.4449
  464THF    H13 8382   1.037   1.617   0.920 -0.1904  0.4567 -0.2393
  465THF     O1 8383   0.760   1.712   5.287 -0.1713  0.3091  0.4193
  465THF     C2 8384   0.701   1.591   5.242  0.4097  0.2563  0.2780
  465THF     C3 8385   0.726   1.718   5.428 -0.1684  0.1613  0.0004
  465THF     H4 8386   0.766   1.510   5.272  1.1816  0.0002 -1.8716
  465THF     H5 8387   0.685   1.601   5.134 -1.2496 -1.2974  0.3450
  465THF     H6 8388   0.800   1.658   5.482 -0.3050 -1.2001 -1.2758
  465THF     H7 8389   0.745   1.815   5.475  2.1032  0.1642 -0.7861
  465THF     C8 8390   0.584   1.674   5.440  0.1159 -0.3500 -0.0491
  465THF     C9 8391   0.566   1.582   5.319  0.0091  0.4611  0.2855
  465THF    H10 8392   0.512   1.756   5.433 -1.5493 -1.7793 -0.3877
  465THF    H11 8393   0.557   1.621   5.531 -0.1798 -0.0261  0.0578
  465THF    H12 8394   0.536   1.481   5.348  1.6445 -0.8105 -2.0335
  465THF    H13 8395   0.483   1.612   5.256  0.9949 -0.4016 -1.5319
  466THF     O1 8396   3.883   3.238   1.693 -0.9034  0.3048  0.2827
  466THF     C2 8397   3.879   3.293   1.824  0.4942 -0.3130  0.3653
  466THF     C3 8398   3.916   3.098   1.703  0.5984  0.2436 -0.5694
  466THF     H4 8399   3.783   3.288   1.874 -0.4477  1.6270 -1.1410
  466THF     H5 8400   3.889   3.401   1.813  1.5584 -0.4800 -0.4580
  466THF     H6 8401   3.823   3.045   1.723  0.9403  0.4066  1.7421
  466THF     H7 8402   3.957   3.056   1.610 -2.6059  1.2844 -2.6082
  466THF     C8 8403   4.003   3.078   1.832  0.4502 -0.2823 -0.0212
  466THF     C9 8404   3.998   3.223   1.893  0.6176  0.3495  0.2424
  466THF    H10 8405   4.107   3.053   1.809  0.4613 -0.1280 -0.1448
  466THF    H11 8406   3.967   2.997   1.895  1.2894 -0.9333 -0.3572
  466THF    H12 8407   3.987   3.222   2.002 -2.1827  0.2602  0.0291
  466THF    H13 8408   4.090   3.274   1.863  1.2581 -1.2980 -0.7067
  467THF     O1 8409   1.028   0.338   5.038 -0.1091 -0.3173 -0.3760
  467THF     C2 8410   0.985   0.240   5.128  0.6835  0.4317 -0.0955
  467THF     C3 8411   0.943   0.450   5.053 -0.3177 -0.1607 -0.4285
  467THF     H4 8412   1.008   0.264   5.232 -0.1410 -2.1744  0.7616
  467THF     H5 8413   1.026   0.140   5.112  0.8208  0.2726  1.1873
  467THF     H6 8414   0.973   0.485   5.152 -0.7025  0.6340 -0.5859
  467THF     H7 8415   0.960   0.526   4.977  0.1489  0.4175  0.2389
  467THF     C8 8416   0.803   0.381   5.063 -0.0760 -0.5687  0.4689
  467THF     C9 8417   0.829   0.242   5.114 -0.1584  0.1179 -0.0451
  467THF    H10 8418   0.757   0.384   4.964  0.2754 -0.6060  0.3019
  467THF    H11 8419   0.755   0.451   5.132  1.2128  0.7441  0.0876
  467THF    H12 8420   0.777   0.215   5.206  0.8835  0.1321  0.5627
  467THF    H13 8421   0.796   0.168   5.041  1.4515 -0.1599 -0.5393
  468THF     O1 8422   1.810   0.235   2.990  0.8529 -0.5694 -0.0635
  468THF     C2 8423   1.817   0.273   2.852  0.0518 -0.1319 -0.3664
  468THF     C3 8424   1.679   0.228   3.030  0.2407  0.0527 -0.1885
  468THF     H4 8425   1.864   0.203   2.783  1.8563  2.0889 -1.5093
  468THF     H5 8426   1.857   0.372   2.832  0.5695  0.0204  1.2986
  468THF     H6 8427   1.648   0.166   3.114 -1.2083  1.4865  0.3646
  468THF     H7 8428   1.664   0.321   3.084  1.5695 -0.1131  0.5059
  468THF     C8 8429   1.591   0.195   2.909  0.1600 -0.0510 -0.5109
  468THF     C9 8430   1.670   0.277   2.806 -0.7871 -0.0207  0.1929
  468THF    H10 8431   1.489   0.232   2.910 -0.5529 -1.8658  0.3642
  468THF    H11 8432   1.593   0.091   2.877 -0.0479  0.1508 -1.1891
  468THF    H12 8433   1.654   0.233   2.707 -0.5021  0.5821 -0.1230
  468THF    H13 8434   1.637   0.380   2.801  1.1004  0.6604  0.8661
  469THF     O1 8435   4.190   1.952   3.114 -0.4319 -0.0674  0.0598
  469THF     C2 8436   4.140   2.046   3.016 -0.7185 -0.1436 -0.7291
  469THF     C3 8437   4.326   1.932   3.096 -0.2341  0.2726  0.7273
  469THF     H4 8438   4.184   2.143   3.040  0.1894 -0.9387  0.9664
  469THF     H5 8439   4.032   2.044   3.002 -0.5674 -1.0125 -1.7962
  469THF     H6 8440   4.390   2.012   3.135  2.5309 -1.2263 -0.4494
  469THF     H7 8441   4.365   1.841   3.140 -2.7751 -1.1983  0.0987
  469THF     C8 8442   4.342   1.939   2.944 -1.0617  0.0161 -0.3296
  469THF     C9 8443   4.209   1.998   2.885 -0.4508  0.1380  0.7422
  469THF    H10 8444   4.366   1.837   2.914 -1.9356 -0.5188  0.7354
  469THF    H11 8445   4.431   1.996   2.914  0.2803 -1.3825  0.8879
  469THF    H12 8446   4.222   2.075   2.809  0.2308 -2.2005 -1.6727
  469THF    H13 8447   4.163   1.914   2.833  1.3150 -1.3709  1.4573
  470THF     O1 8448   5.471   4.767   3.847  0.6975  0.4959 -0.3561
  470THF     C2 8449   5.587   4.835   3.886 -0.2999  0.0126 -0.3644
  470THF     C3 8450   5.375   4.773   3.952 -0.0473 -0.1501 -0.5924
  470THF     H4 8451   5.584   4.944   3.883  0.7165  0.0358 -1.8466
  470THF     H5 8452   5.671   4.795   3.829 -0.1477 -0.7618  0.3845
  470THF     H6 8453   5.310   4.860   3.941 -2.8052 -2.2784 -2.6422
  470THF     H7 8454   5.309   4.687   3.945 -1.1723  0.6961 -0.7149
  470THF     C8 8455   5.454   4.794   4.083 -0.6547 -0.1693 -0.1417
  470THF     C9 8456   5.597   4.802   4.032  0.6360 -0.1896  0.2384
  470THF    H10 8457   5.436   4.706   4.145  2.2183 -1.3034 -0.7399
  470THF    H11 8458   5.425   4.888   4.131  0.8254  1.0638 -1.5290
  470THF    H12 8459   5.655   4.875   4.089  1.2863 -0.5309  0.0268
  470THF    H13 8460   5.641   4.705   4.056  1.1480 -0.2501 -0.8480
  471THF     O1 8461   3.507   2.699   4.956 -0.3427 -0.3544 -0.5765
  471THF     C2 8462   3.539   2.568   5.003  0.0478  0.7642 -0.1322
  471THF     C3 8463   3.470   2.784   5.067 -0.1721  0.0865  0.1508
  471THF     H4 8464   3.639   2.571   5.046  0.6139  2.3883 -1.4026
  471THF     H5 8465   3.544   2.490   4.927 -0.4144 -0.2926  0.8907
  471THF     H6 8466   3.564   2.828   5.101 -0.0465  1.6424 -1.9837
  471THF     H7 8467   3.409   2.872   5.045 -0.7095 -0.6211 -1.2400
  471THF     C8 8468   3.413   2.694   5.169 -0.7750 -0.2770  0.0201
  471THF     C9 8469   3.433   2.549   5.111 -0.0314 -0.3015 -0.0766
  471THF    H10 8470   3.312   2.719   5.203 -0.9214  0.6883 -1.0896
  471THF    H11 8471   3.460   2.708   5.266 -1.0392  0.2221  0.0822
  471THF    H12 8472   3.465   2.488   5.195  0.6549  1.3953  0.9523
  471THF    H13 8473   3.339   2.523   5.061  0.3029  0.3689 -1.0960
  472THF     O1 8474   5.229   0.488   3.984  0.1940  0.2567  0.0348
  472THF     C2 8475   5.141   0.523   3.880 -0.2255 -0.0761 -0.4004
  472THF     C3 8476   5.184   0.566   4.098 -0.6173 -0.0709 -0.2552
  472THF     H4 8477   5.049   0.468   3.900  1.4119 -2.0439  2.3347
  472THF     H5 8478   5.174   0.481   3.785 -2.0252 -1.4650 -0.4763
  472THF     H6 8479   5.096   0.529   4.150  0.5490 -1.6221  0.6998
  472THF     H7 8480   5.261   0.576   4.174 -0.2135  1.2489 -0.7927
  472THF     C8 8481   5.156   0.707   4.036 -0.5069  0.3951  0.1431
  472THF     C9 8482   5.144   0.676   3.887  0.1768 -0.5029  0.0727
  472THF    H10 8483   5.243   0.771   4.050 -0.9802  1.0038  0.3368
  472THF    H11 8484   5.069   0.756   4.080 -1.7189 -0.1849 -1.4910
  472THF    H12 8485   5.063   0.736   3.847  0.6448 -1.2434 -2.1112
  472THF    H13 8486   5.235   0.710   3.838  0.5241  0.8523  1.5693
  473THF     O1 8487   2.682   3.904   4.218  0.2358 -0.1397 -0.0377
  473THF     C2 8488   2.600   3.839   4.315  0.0666  0.2857  0.0434
  473THF     C3 8489   2.618   3.900   4.096  0.2874 -0.5589  0.4545
  473THF     H4 8490   2.527   3.906   4.359 -0.2296 -0.7960  1.2727
  473THF     H5 8491   2.660   3.805   4.400  0.4096  0.6604 -0.0515
  473THF     H6 8492   2.566   3.993   4.074 -1.1495 -1.6808 -1.1594
  473THF     H7 8493   2.696   3.883   4.022  0.0944 -0.7420  0.2915
  473THF     C8 8494   2.522   3.783   4.098 -0.1285 -0.3046  0.4634
  473THF     C9 8495   2.542   3.727   4.232  0.3286  0.4529 -0.5360
  473THF    H10 8496   2.545   3.713   4.018 -1.3711 -2.0668  1.5821
  473THF    H11 8497   2.419   3.814   4.082  0.4697  0.9781 -1.2715
  473THF    H12 8498   2.457   3.676   4.277 -0.0292  1.3904 -0.1269
  473THF    H13 8499   2.619   3.652   4.217 -0.0478  0.3495 -2.1392
  474THF     O1 8500   0.163   2.772   1.277 -0.0820 -0.3948 -0.0340
  474THF     C2 8501   0.251   2.727   1.378 -0.4567 -0.1626 -0.0507
  474THF     C3 8502   0.240   2.826   1.178 -0.3096  0.0281 -0.4586
  474THF     H4 8503   0.286   2.633   1.337  0.3636 -0.7501  1.8848
  474THF     H5 8504   0.199   2.715   1.473 -0.8723 -0.3984 -0.3078
  474THF     H6 8505   0.277   2.742   1.119  4.5928  0.4931  1.4574
  474THF     H7 8506   0.184   2.886   1.107 -0.2760 -0.4075 -0.8582
  474THF     C8 8507   0.332   2.906   1.262  0.0540 -0.2921  0.2584
  474THF     C9 8508   0.359   2.828   1.387  0.1162  0.3147  0.7950
  474THF    H10 8509   0.291   3.004   1.288  0.6593 -0.6942  3.1640
  474THF    H11 8510   0.415   2.933   1.197 -1.2023  1.3621 -0.7151
  474THF    H12 8511   0.463   2.796   1.394  0.2950  0.9253  1.0293
  474THF    H13 8512   0.343   2.878   1.483  1.0668  1.3165  0.4579
  475THF     O1 8513   3.429   2.669   0.628 -0.2316  0.0673  0.0390
  475THF     C2 8514   3.336   2.575   0.576 -0.1532 -0.1152 -0.5225
  475THF     C3 8515   3.382   2.803   0.592  0.3590  0.2005  0.0347
  475THF     H4 8516   3.250   2.571   0.643  0.9174 -0.0297  0.8968
  475THF     H5 8517   3.384   2.477   0.577  0.7818  0.2405  3.0856
  475THF     H6 8518   3.293   2.833   0.647  0.0851  0.4315 -0.5209
  475THF     H7 8519   3.446   2.891   0.593  1.4626 -0.5165 -1.6151
  475THF     C8 8520   3.344   2.790   0.449  0.1001  0.1492  0.4549
  475THF     C9 8521   3.308   2.641   0.443  0.0006  0.6561  0.1119
  475THF    H10 8522   3.424   2.803   0.376 -0.5637  0.3899 -0.2397
  475THF    H11 8523   3.262   2.855   0.421 -1.8416 -1.0327  2.9614
  475THF    H12 8524   3.206   2.630   0.407 -0.8258  1.1690  2.1045
  475THF    H13 8525   3.372   2.596   0.368 -0.3116  0.5387 -0.0875
  476THF     O1 8526   2.752   2.135   4.097  0.2056 -0.4856 -0.2714
  476THF     C2 8527   2.882   2.187   4.121  0.6438 -0.2095  0.4902
  476THF     C3 8528   2.661   2.204   4.190 -0.4479  0.8127 -0.4364
  476THF     H4 8529   2.925   2.214   4.024 -1.5063 -1.8744 -1.0343
  476THF     H5 8530   2.946   2.107   4.159  0.3485 -0.3631  0.6627
  476THF     H6 8531   2.611   2.291   4.146 -0.2410  1.6427  0.8892
  476THF     H7 8532   2.585   2.131   4.215  0.4565 -0.3903 -1.1305
  476THF     C8 8533   2.744   2.252   4.306  0.6642  0.1577  0.1817
  476THF     C9 8534   2.863   2.292   4.225  0.4401 -0.6804  0.2532
  476THF    H10 8535   2.781   2.170   4.369  1.2564  0.9146  0.8531
  476THF    H11 8536   2.690   2.335   4.351 -0.3285  1.1293 -2.6018
  476THF    H12 8537   2.842   2.387   4.176  1.1506 -1.0009 -0.7128
  476THF    H13 8538   2.947   2.303   4.294  0.8452 -0.0869 -0.3110
  477THF     O1 8539   4.763   3.044   1.235 -0.0952 -0.2044  0.4702
  477THF     C2 8540   4.700   3.052   1.357  0.1141  0.3510 -0.4944
  477THF     C3 8541   4.716   2.941   1.154  0.3709 -0.2485  0.3679
  477THF     H4 8542   4.608   3.111   1.357  0.8366  1.6467  2.5335
  477THF     H5 8543   4.755   3.108   1.432 -0.5514  1.5241 -0.8567
  477THF     H6 8544   4.653   2.979   1.072 -3.6953 -0.6088  3.0182
  477THF     H7 8545   4.803   2.882   1.128 -1.3211 -3.0965  0.7359
  477THF     C8 8546   4.632   2.854   1.249  0.1666 -0.1505 -0.2707
  477THF     C9 8547   4.671   2.907   1.390  0.6476  1.0224 -0.5908
  477THF    H10 8548   4.653   2.748   1.232  0.4183 -0.1948  0.3069
  477THF    H11 8549   4.525   2.866   1.231  0.0305 -0.1856  0.5061
  477THF    H12 8550   4.597   2.906   1.469  0.2879  0.1819 -0.9277
  477THF    H13 8551   4.762   2.865   1.435 -0.9666  0.9724  2.9266
  478THF     O1 8552   2.974   1.941   1.138  0.6174 -0.3689 -0.2687
  478THF     C2 8553   3.045   1.829   1.086  0.4018 -0.3511  1.1360
  478THF     C3 8554   3.052   2.059   1.149  0.2569 -0.1920  0.3299
  478THF     H4 8555   3.015   1.793   0.988  0.7982  0.4148  0.7250
  478THF     H5 8556   3.036   1.748   1.158  1.3642  0.3367  2.0577
  478THF     H6 8557   3.038   2.121   1.060 -2.7931  1.1546  1.6293
  478THF     H7 8558   3.027   2.131   1.226  2.1608 -0.0311  0.8443
  478THF     C8 8559   3.195   2.004   1.151  0.1157 -0.1662 -0.0388
  478THF     C9 8560   3.191   1.877   1.069  0.0434 -0.0570  0.0707
  478THF    H10 8561   3.228   1.978   1.252 -0.7116 -1.2950 -0.0424
  478THF    H11 8562   3.263   2.078   1.108 -0.2731  0.0200 -0.3404
  478THF    H12 8563   3.195   1.910   0.966  0.3737  1.4583  0.5501
  478THF    H13 8564   3.269   1.805   1.094  0.9350  0.2818 -1.6095
  479THF     O1 8565   2.642   2.079   2.094 -0.3109  0.5238 -0.6364
  479THF     C2 8566   2.762   2.022   2.145 -0.7521  0.5411 -0.3761
  479THF     C3 8567   2.548   2.094   2.200  0.0432 -0.9015 -0.0721
  479THF     H4 8568   2.840   2.057   2.077  0.6345 -0.4549  0.6467
  479THF     H5 8569   2.761   1.913   2.144 -1.6151  0.5452 -1.5435
  479THF     H6 8570   2.510   2.197   2.197  1.0305 -0.5467 -0.8562
  479THF     H7 8571   2.464   2.030   2.173  1.2950 -2.2550 -0.8348
  479THF     C8 8572   2.619   2.052   2.330  0.2743  0.2845  0.0770
  479THF     C9 8573   2.764   2.078   2.291  0.2754  0.1370 -0.5161
  479THF    H10 8574   2.593   1.950   2.360  0.6380  0.8686  2.6645
  479THF    H11 8575   2.603   2.112   2.419  2.7943  0.7827  0.2793
  479THF    H12 8576   2.784   2.184   2.301  0.4938  0.3446 -2.5467
  479THF    H13 8577   2.841   2.020   2.343 -0.8409 -1.1491 -0.2353
  480THF     O1 8578   0.695   2.570   1.414  0.3740 -0.4611  0.1061
  480THF     C2 8579   0.710   2.634   1.540 -0.1656  0.0182 -0.1266
  480THF     C3 8580   0.822   2.556   1.363 -0.1040  1.0102  0.0194
  480THF     H4 8581   0.699   2.567   1.625 -1.4869  1.7973  1.1811
  480THF     H5 8582   0.631   2.707   1.555  1.7478  1.4129  6.0031
  480THF     H6 8583   0.854   2.468   1.419 -2.4366  0.6273  0.8896
  480THF     H7 8584   0.832   2.528   1.258 -0.4260  0.0169  0.2383
  480THF     C8 8585   0.899   2.667   1.412 -0.6730 -0.2925  0.2339
  480THF     C9 8586   0.851   2.692   1.551 -0.8070  0.1441 -0.7402
  480THF    H10 8587   0.887   2.755   1.349  1.7380 -0.8320 -1.0801
  480THF    H11 8588   1.006   2.651   1.406 -0.8056 -0.9538 -0.4514
  480THF    H12 8589   0.906   2.656   1.639 -1.2431  0.9136 -0.1410
  480THF    H13 8590   0.858   2.799   1.566  1.5981  0.0466 -0.9013
  481THF     O1 8591   1.428   1.841   2.874 -0.1794  0.0009  0.0090
  481THF     C2 8592   1.389   1.954   2.947 -0.1287 -0.1092 -0.3129
  481THF     C3 8593   1.575   1.873   2.848  0.0485  0.2171  0.4883
  481THF     H4 8594   1.287   1.945   2.986 -0.6186  0.8615 -1.3044
  481THF     H5 8595   1.391   2.044   2.886  1.5667 -1.5190 -2.4922
  481THF     H6 8596   1.624   1.776   2.847  1.3129  0.7632 -2.6402
  481THF     H7 8597   1.587   1.922   2.751 -0.1505  0.2918  0.5005
  481THF     C8 8598   1.625   1.958   2.961  0.3227 -0.4163 -0.4540
  481THF     C9 8599   1.499   1.980   3.048 -0.0645 -0.3703  0.1846
  481THF    H10 8600   1.662   2.053   2.920 -0.6117  0.1349 -0.0389
  481THF    H11 8601   1.701   1.896   3.008  0.3431 -1.7292 -2.1073
  481THF    H12 8602   1.496   1.917   3.137 -0.3178  0.5374  0.8302
  481THF    H13 8603   1.487   2.082   3.083 -0.6878 -0.2317 -0.3971
  482THF     O1 8604   3.849   2.629   0.052  0.0273  0.5289  0.1949
  482THF     C2 8605   3.788   2.624  -0.076  0.5849  0.1593 -0.2722
  482THF     C3 8606   3.987   2.598   0.039  0.1061 -0.2679 -0.7445
  482THF     H4 8607   3.690   2.670  -0.078  0.3789 -0.2835 -0.5369
  482THF     H5 8608   3.777   2.518  -0.099 -0.0306  0.1433  0.0761
  482THF     H6 8609   4.038   2.670   0.103 -1.9119  0.4723  0.1189
  482THF     H7 8610   4.012   2.493   0.050 -0.8863 -0.4824 -0.4904
  482THF     C8 8611   4.026   2.646  -0.105  0.1152  0.1990  0.4849
  482THF     C9 8612   3.889   2.696  -0.162  0.0925 -0.3836 -0.3011
  482THF    H10 8613   4.065   2.556  -0.152 -2.1001 -0.5550 -0.0090
  482THF    H11 8614   4.096   2.730  -0.101 -1.8491  1.9780 -0.5392
  482THF    H12 8615   3.870   2.800  -0.133  2.4514  0.1599 -0.5190
  482THF    H13 8616   3.859   2.689  -0.266 -4.1838  4.4745  0.1844
  483THF     O1 8617   1.714   2.676   3.197  0.3563  0.5034 -0.4762
  483THF     C2 8618   1.769   2.751   3.085  0.3830 -0.1243  0.1293
  483THF     C3 8619   1.578   2.720   3.214 -0.0889  0.1056 -0.0160
  483THF     H4 8620   1.727   2.722   2.989 -1.5264  0.9224  0.5918
  483THF     H5 8621   1.878   2.754   3.081  0.3579  0.1876 -0.3977
  483THF     H6 8622   1.514   2.683   3.133 -0.4047  1.2313 -0.2991
  483THF     H7 8623   1.525   2.678   3.300 -1.2116 -1.7625 -1.5168
  483THF     C8 8624   1.589   2.872   3.203 -0.3038  0.7993  0.2614
  483THF     C9 8625   1.726   2.884   3.129 -0.0769 -0.2598 -0.0148
  483THF    H10 8626   1.592   2.920   3.301 -0.4813 -1.6160  1.5257
  483THF    H11 8627   1.507   2.919   3.148  2.7824  2.5414 -3.2463
  483THF    H12 8628   1.723   2.958   3.049 -1.0413  0.4513  0.6569
  483THF    H13 8629   1.796   2.924   3.203 -0.1514 -1.5819  0.8122
  484THF     O1 8630   3.777   3.085   2.931 -0.2748 -0.4602 -0.1886
  484THF     C2 8631   3.713   3.139   2.814  0.8349  0.6209 -0.3607
  484THF     C3 8632   3.734   3.163   3.043 -0.3165  0.0682 -0.0698
  484THF     H4 8633   3.705   3.069   2.731  1.0216  0.9906 -0.6937
  484THF     H5 8634   3.758   3.234   2.785 -0.2804  1.2052 -0.2421
  484THF     H6 8635   3.744   3.116   3.140 -0.1122  0.1381 -0.0581
  484THF     H7 8636   3.800   3.248   3.051 -2.9487  2.6564 -2.9902
  484THF     C8 8637   3.594   3.213   3.020  0.4287 -1.1723 -0.6733
  484THF     C9 8638   3.565   3.174   2.875  0.1434  0.6723  0.1856
  484THF    H10 8639   3.595   3.320   3.040  0.4554 -0.9421 -1.8126
  484THF    H11 8640   3.523   3.167   3.088  0.1802  1.2633  0.7937
  484THF    H12 8641   3.494   3.093   2.862  0.7386  0.6341 -4.3987
  484THF    H13 8642   3.523   3.255   2.814 -0.3761 -0.2689 -0.7346
  485THF     O1 8643   2.182   0.534   3.658  0.0054 -0.2056 -0.3569
  485THF     C2 8644   2.182   0.423   3.747 -0.2650 -0.0115 -0.5487
  485THF     C3 8645   2.227   0.481   3.529  0.0549  0.4105 -0.8043
  485THF     H4 8646   2.109   0.454   3.822  1.5070 -0.1042  1.3015
  485THF     H5 8647   2.286   0.439   3.776 -0.1973  0.7868 -1.1817
  485THF     H6 8648   2.199   0.540   3.443 -1.4604  1.3442  0.2745
  485THF     H7 8649   2.335   0.466   3.539  0.1446  1.2560 -0.4277
  485THF     C8 8650   2.151   0.348   3.528 -0.5990 -0.1435  0.3342
  485THF     C9 8651   2.158   0.292   3.669 -0.0618  0.2501  0.3390
  485THF    H10 8652   2.192   0.275   3.457 -1.3074  0.6120 -0.8989
  485THF    H11 8653   2.047   0.354   3.494 -0.1772 -0.2562 -1.0648
  485THF    H12 8654   2.062   0.246   3.691  1.2618 -4.3797 -2.2171
  485THF    H13 8655   2.240   0.224   3.688 -1.1900 -0.9507  1.0719
  486THF     O1 8656   4.307   4.456   3.247  0.0278 -0.5080  0.1605
  486THF     C2 8657   4.216   4.544   3.311  0.2538 -0.1537  0.0500
  486THF     C3 8658   4.307   4.333   3.323  0.2603 -0.5663  0.7722
  486THF     H4 8659   4.192   4.638   3.261 -2.1050 -0.0497  1.2232
  486THF     H5 8660   4.248   4.583   3.408 -0.2116 -1.4268  0.7450
  486THF     H6 8661   4.342   4.256   3.254  0.2518 -0.8425  1.0724
  486THF     H7 8662   4.372   4.341   3.410 -1.0283 -1.0075  1.8278
  486THF     C8 8663   4.162   4.323   3.363  0.4829 -0.3153  0.1347
  486THF     C9 8664   4.096   4.453   3.321  0.3020  0.8232 -0.4310
  486THF    H10 8665   4.158   4.314   3.471  2.5306  1.9886  0.5122
  486THF    H11 8666   4.117   4.234   3.319 -1.9684 -0.4825  2.6945
  486THF    H12 8667   4.049   4.450   3.223 -0.3379  0.5451 -0.1218
  486THF    H13 8668   4.017   4.487   3.389 -2.6982 -2.0887 -2.1756
  487THF     O1 8669   0.230   2.830   1.790 -0.2722  0.7574 -0.5045
  487THF     C2 8670   0.285   2.741   1.889 -0.0555  0.5026  0.3448
  487THF     C3 8671   0.175   2.937   1.859 -0.1222 -0.0508  0.3164
  487THF     H4 8672   0.382   2.706   1.855 -0.4352 -2.9439  2.3569
  487THF     H5 8673   0.228   2.648   1.893  2.3415 -1.4133 -3.9452
  487THF     H6 8674   0.192   3.022   1.793  0.7202  0.7222  1.4893
  487THF     H7 8675   0.068   2.925   1.872  0.0966 -1.5599  0.9691
  487THF     C8 8676   0.248   2.946   1.994 -0.1749 -0.4494  0.1116
  487THF     C9 8677   0.301   2.806   2.022 -0.0511  0.2276 -0.6419
  487THF    H10 8678   0.187   2.999   2.068 -0.8260  2.7471 -2.4723
  487THF    H11 8679   0.333   3.010   1.973 -1.2825  0.1571 -3.2084
  487THF    H12 8680   0.403   2.802   2.061 -0.0139  0.0902 -0.7506
  487THF    H13 8681   0.227   2.758   2.086 -0.1130 -1.2827 -1.7980
  488THF     O1 8682   0.632   4.856   1.325  0.0799 -0.6252  0.5230
  488THF     C2 8683   0.674   4.785   1.207  0.5589  0.3799 -0.7929
  488THF     C3 8684   0.547   4.779   1.402 -0.1543  0.3572  0.0317
  488THF     H4 8685   0.764   4.724   1.218 -0.0867 -0.7932 -1.8322
  488THF     H5 8686   0.701   4.854   1.127  0.3869 -0.6580 -1.7748
  488THF     H6 8687   0.596   4.761   1.498 -0.5492 -0.5209  0.0752
  488THF     H7 8688   0.461   4.838   1.435 -0.0757 -0.0205  0.9598
  488THF     C8 8689   0.517   4.655   1.328 -0.0425  0.7621  0.1739
  488THF     C9 8690   0.548   4.701   1.185 -0.0169  0.5896  0.6168
  488THF    H10 8691   0.410   4.635   1.328 -0.0163  0.3464 -1.9091
  488THF    H11 8692   0.571   4.566   1.361  0.5859  0.7860 -0.7409
  488THF    H12 8693   0.568   4.616   1.120 -0.6287  0.6491  0.3434
  488THF    H13 8694   0.459   4.752   1.147 -0.4766  0.9418  2.0813
  489THF     O1 8695   1.063   5.186   3.187 -0.5069 -0.1715 -0.6696
  489THF     C2 8696   1.046   5.237   3.318  0.5359  0.4435  0.0430
  489THF     C3 8697   1.073   5.043   3.190 -0.1512 -0.2240  0.4823
  489THF     H4 8698   0.942   5.266   3.332 -0.2519 -2.5229  1.2287
  489THF     H5 8699   1.106   5.327   3.329 -1.5569  1.7316  1.7047
  489THF     H6 8700   0.976   4.998   3.170 -1.1603  1.2010  1.9191
  489THF     H7 8701   1.135   5.015   3.105 -2.1652 -1.0196 -0.7960
  489THF     C8 8702   1.148   5.015   3.323  0.0772  0.1797  0.6978
  489THF     C9 8703   1.089   5.122   3.411 -0.1487 -0.4705  0.4183
  489THF    H10 8704   1.256   5.026   3.309  0.1585 -1.3774 -0.0876
  489THF    H11 8705   1.127   4.915   3.360  0.1631 -0.4196 -0.7908
  489THF    H12 8706   1.001   5.075   3.455 -0.0875 -1.9298 -0.9111
  489THF    H13 8707   1.149   5.160   3.494 -0.7008  0.7359  0.2883
  490THF     O1 8708   1.443   3.957   4.602 -0.6058 -0.0197  0.0078
  490THF     C2 8709   1.347   3.874   4.559 -0.1000 -0.2650 -0.5800
  490THF     C3 8710   1.395   4.093   4.594 -0.6233 -0.1668 -0.4841
  490THF     H4 8711   1.265   3.880   4.631  0.1033  2.7678 -0.4653
  490THF     H5 8712   1.386   3.776   4.530  1.5949 -0.0987  0.9383
  490THF     H6 8713   1.338   4.108   4.686 -1.3924 -1.9332 -0.6233
  490THF     H7 8714   1.478   4.162   4.580 -0.5126 -0.4706 -1.4113
  490THF     C8 8715   1.304   4.096   4.472  0.1645 -0.3955 -0.7477
  490THF     C9 8716   1.294   3.951   4.443  0.3117 -0.3132  0.6741
  490THF    H10 8717   1.359   4.146   4.392  1.0678 -0.2096 -0.0235
  490THF    H11 8718   1.223   4.156   4.511  1.1043 -0.1206  0.8678
  490THF    H12 8719   1.201   3.907   4.407 -0.0545 -1.0517  2.4142
  490THF    H13 8720   1.367   3.948   4.361  1.2460  1.9570  1.3355
  491THF     O1 8721   5.204   1.365   4.397 -0.2510  0.3010  0.0201
  491THF     C2 8722   5.230   1.462   4.297 -0.0522  0.2679 -0.3654
  491THF     C3 8723   5.068   1.318   4.383 -0.0817 -0.5487  0.0231
  491THF     H4 8724   5.264   1.417   4.203  1.7853  0.2981  0.2412
  491THF     H5 8725   5.308   1.532   4.325 -1.5919  1.2424  1.7060
  491THF     H6 8726   5.059   1.260   4.291  1.5629  0.1381 -0.5930
  491THF     H7 8727   5.018   1.262   4.462 -1.3998  0.5430 -0.0124
  491THF     C8 8728   4.999   1.445   4.367  0.0618 -0.4335  0.2192
  491THF     C9 8729   5.088   1.533   4.285 -0.6454 -0.2430 -0.2509
  491THF    H10 8730   4.998   1.493   4.464  0.6404  2.2436 -1.0050
  491THF    H11 8731   4.896   1.433   4.331  0.9842 -1.1773 -2.4542
  491THF    H12 8732   5.048   1.558   4.186 -0.0861 -0.7652 -0.6180
  491THF    H13 8733   5.092   1.630   4.334 -1.1512  0.4509 -1.5069
  492THF     O1 8734   3.148   0.599   0.066 -0.1275 -0.6749 -0.3449
  492THF     C2 8735   3.144   0.499  -0.036 -0.0297  0.0722 -0.7448
  492THF     C3 8736   3.233   0.555   0.172  0.5823 -0.7453 -0.5971
  492THF     H4 8737   3.236   0.510  -0.093  0.2058  1.1556 -0.1944
  492THF     H5 8738   3.056   0.499  -0.100  0.3240  4.6360 -1.5555
  492THF     H6 8739   3.328   0.608   0.172  0.3919 -0.4056 -0.4716
  492THF     H7 8740   3.189   0.585   0.267 -2.0175 -0.6078 -1.7730
  492THF     C8 8741   3.245   0.402   0.158 -0.0787 -0.5157  0.2462
  492THF     C9 8742   3.150   0.372   0.046  0.0574  0.0240 -0.3737
  492THF    H10 8743   3.220   0.356   0.254 -0.2221 -1.0493 -0.0478
  492THF    H11 8744   3.344   0.362   0.136 -0.2642 -0.6442 -0.3588
  492THF    H12 8745   3.188   0.287  -0.010  2.6128  0.7337  0.1475
  492THF    H13 8746   3.055   0.350   0.094  1.4547 -0.0171  2.6013
  493THF     O1 8747   3.900   1.664   2.093 -0.1720  0.1680 -0.0646
  493THF     C2 8748   3.935   1.658   1.959  0.4017 -0.2848  0.0641
  493THF     C3 8749   3.798   1.572   2.121  0.8606  0.1724  0.4310
  493THF     H4 8750   4.029   1.709   1.936 -0.8760  3.1582  1.7977
  493THF     H5 8751   3.869   1.725   1.903  1.1569 -0.3390 -0.9259
  493THF     H6 8752   3.789   1.549   2.227 -0.8099 -1.2061  0.0463
  493THF     H7 8753   3.702   1.607   2.084  0.1329 -1.4100  0.7109
  493THF     C8 8754   3.841   1.445   2.043 -0.7312  0.0226  0.4912
  493THF     C9 8755   3.909   1.507   1.919  0.6254  0.0298 -0.5444
  493THF    H10 8756   3.750   1.388   2.022 -0.3638  0.0121 -1.1919
  493THF    H11 8757   3.918   1.403   2.108 -2.4511  0.4399  2.9521
  493THF    H12 8758   4.002   1.450   1.915  0.6240 -0.0231  0.0874
  493THF    H13 8759   3.851   1.492   1.828 -0.0374 -3.4389  0.2988
  494THF     O1 8760   1.264   0.230   3.018  0.0965  0.4355  0.2222
  494THF     C2 8761   1.269   0.091   3.006  0.4086 -0.1637  0.1010
  494THF     C3 8762   1.256   0.263   3.155  0.3064 -0.2546 -0.3151
  494THF     H4 8763   1.337   0.056   2.928 -0.7813 -0.8298 -0.6616
  494THF     H5 8764   1.169   0.051   2.990 -0.8049  2.5972  0.2936
  494THF     H6 8765   1.341   0.323   3.186 -0.3820  0.6164 -0.0643
  494THF     H7 8766   1.172   0.330   3.177 -0.7386 -2.1756  2.0905
  494THF     C8 8767   1.247   0.133   3.233 -0.0106  0.0050  0.2212
  494THF     C9 8768   1.313   0.031   3.143 -0.1989 -0.8685  0.7314
  494THF    H10 8769   1.144   0.101   3.242 -0.7506  2.3995  0.9715
  494THF    H11 8770   1.285   0.148   3.335  1.6446  0.3127 -0.4032
  494THF    H12 8771   1.422   0.032   3.143 -0.0100  3.1878 -1.8075
  494THF    H13 8772   1.279  -0.071   3.157  2.0284 -2.0788 -1.6747
  495THF     O1 8773   4.768   1.835   1.177  0.0553 -0.3446 -0.1139
  495THF     C2 8774   4.701   1.872   1.297 -1.1310  0.1921  0.1002
  495THF     C3 8775   4.903   1.872   1.201  0.1541  0.4451 -0.4618
  495THF     H4 8776   4.607   1.817   1.294 -0.7558 -0.4541 -0.0962
  495THF     H5 8777   4.685   1.978   1.311 -1.7979  0.1642 -0.4265
  495THF     H6 8778   4.961   1.813   1.129  0.2916 -2.4113  1.7951
  495THF     H7 8779   4.914   1.978   1.178  0.5603 -0.0319 -2.7010
  495THF     C8 8780   4.933   1.822   1.350 -0.1031  0.4675 -0.0990
  495THF     C9 8781   4.789   1.808   1.412 -0.5909  0.8331 -0.2594
  495THF    H10 8782   4.996   1.896   1.399  0.8997 -0.1206 -0.4740
  495THF    H11 8783   4.978   1.723   1.356  1.6550  1.1263 -1.3117
  495THF    H12 8784   4.771   1.700   1.411 -1.2876  0.9320  0.5795
  495THF    H13 8785   4.754   1.838   1.510 -0.8049 -0.9181  0.2254
  496THF     O1 8786   3.664   2.004   1.490 -0.8333 -0.2500  0.4440
  496THF     C2 8787   3.681   2.002   1.345 -0.6936  0.6978  0.5149
  496THF     C3 8788   3.566   2.102   1.516 -0.4491 -0.2011  0.1414
  496THF     H4 8789   3.725   1.906   1.318  0.1785  1.6190 -1.5229
  496THF     H5 8790   3.745   2.085   1.315  0.9292 -0.4662  0.6267
  496THF     H6 8791   3.507   2.071   1.602 -0.6906  2.0943  0.8763
  496THF     H7 8792   3.619   2.193   1.545 -0.3918  0.5731 -2.1571
  496THF     C8 8793   3.484   2.122   1.383  0.5887 -0.2739  0.1767
  496THF     C9 8794   3.532   2.010   1.297 -0.0221  0.5659  0.6589
  496THF    H10 8795   3.513   2.216   1.334 -0.9358  0.7654  1.1850
  496THF    H11 8796   3.376   2.114   1.398  0.8517 -2.9926  1.0702
  496THF    H12 8797   3.486   1.913   1.321  0.2432  0.4466  0.6901
  496THF    H13 8798   3.515   2.027   1.191  0.0487  0.7300  0.6739
  497THF     O1 8799   4.042   3.594   3.005  0.0011  0.8123 -0.2121
  497THF     C2 8800   3.974   3.485   2.939  0.8345 -0.5768  0.2606
  497THF     C3 8801   3.976   3.711   2.972 -0.2101 -0.3900 -1.0023
  497THF     H4 8802   3.978   3.399   3.005  1.4958  0.8146  2.1476
  497THF     H5 8803   4.011   3.459   2.840 -0.0590 -1.0407  0.0454
  497THF     H6 8804   4.008   3.782   3.047  2.6785 -2.1380 -0.4076
  497THF     H7 8805   4.019   3.745   2.878 -3.2481  2.9893 -1.3675
  497THF     C8 8806   3.831   3.681   2.958  0.3947 -0.0274 -0.0018
  497THF     C9 8807   3.829   3.531   2.932 -0.2930  0.4109 -0.7104
  497THF    H10 8808   3.781   3.729   2.874  2.2288  2.2812  0.1406
  497THF    H11 8809   3.779   3.699   3.052  0.8840  0.3619  0.1923
  497THF    H12 8810   3.771   3.487   3.012 -0.2335 -1.5082 -1.6809
  497THF    H13 8811   3.781   3.508   2.837 -0.8844  1.4711 -0.6918
  498THF     O1 8812   3.794   4.762   1.929 -0.1290 -0.0316 -0.1799
  498THF     C2 8813   3.814   4.677   2.034 -0.4997  0.1132  0.1579
  498THF     C3 8814   3.839   4.703   1.809 -0.2305  0.2323 -0.1866
  498THF     H4 8815   3.729   4.610   2.045 -0.3018  0.0011  1.0936
  498THF     H5 8816   3.817   4.744   2.120  0.0105 -0.3198  0.4863
  498THF     H6 8817   3.760   4.639   1.772 -0.4338  0.9759 -1.0702
  498THF     H7 8818   3.854   4.783   1.736 -1.6284  1.2317  0.5761
  498THF     C8 8819   3.953   4.617   1.849 -0.5721  0.2347 -0.2243
  498THF     C9 8820   3.943   4.609   2.001 -0.0807 -0.0046 -0.0214
  498THF    H10 8821   4.040   4.671   1.809  0.6126 -1.4680 -0.0673
  498THF    H11 8822   3.954   4.519   1.802 -2.6034  0.1484 -0.1576
  498THF    H12 8823   3.944   4.505   2.035  2.7257  0.1930  0.8415
  498THF    H13 8824   4.018   4.667   2.056 -2.2195  0.8113  2.2089
  499THF     O1 8825   0.477   4.466   4.202  0.5405 -0.3228 -0.4004
  499THF     C2 8826   0.600   4.414   4.168  0.5102  0.4630  0.3877
  499THF     C3 8827   0.388   4.358   4.211  0.4344 -0.5313  0.1860
  499THF     H4 8828   0.671   4.474   4.225  0.0766  0.9089  0.4651
  499THF     H5 8829   0.631   4.411   4.064  2.2905 -2.7044  0.8627
  499THF     H6 8830   0.298   4.389   4.265  0.0612  1.2744 -1.3774
  499THF     H7 8831   0.353   4.332   4.111 -2.2333  0.3703  0.8050
  499THF     C8 8832   0.465   4.245   4.277 -0.5003 -0.1273 -0.0771
  499THF     C9 8833   0.608   4.273   4.228  0.0942  0.5332  0.0112
  499THF    H10 8834   0.429   4.145   4.251 -1.2375  0.2427 -0.5098
  499THF    H11 8835   0.455   4.246   4.385 -0.3922 -0.2757 -0.0648
  499THF    H12 8836   0.679   4.268   4.310 -0.2143  1.0485  0.3204
  499THF    H13 8837   0.631   4.204   4.147 -0.2008  2.4232 -1.7922
  500THF     O1 8838   4.691   4.715   1.658 -0.8103 -0.1362 -0.5222
  500THF     C2 8839   4.711   4.630   1.773 -0.4107  0.1361 -0.5962
  500THF     C3 8840   4.803   4.804   1.670 -0.0091 -0.4199  0.2734
  500THF     H4 8841   4.678   4.531   1.742  1.6130 -0.3365 -1.3401
  500THF     H5 8842   4.648   4.660   1.857 -2.3858 -2.4988 -0.9786
  500THF     H6 8843   4.823   4.852   1.574 -0.3118 -1.6965 -0.4468
  500THF     H7 8844   4.792   4.882   1.746 -0.2031  0.3251 -0.5051
  500THF     C8 8845   4.921   4.711   1.694 -0.2936 -0.0274  0.2225
  500THF     C9 8846   4.862   4.609   1.794 -0.1422 -0.1031  0.1530
  500THF    H10 8847   5.012   4.761   1.726 -0.3392 -0.5580  1.2297
  500THF    H11 8848   4.951   4.655   1.605  0.0857 -0.0676  0.3719
  500THF    H12 8849   4.897   4.509   1.771 -0.4269  0.3054 -2.3661
  500THF    H13 8850   4.894   4.636   1.895  1.7164 -2.0332  0.1402
  501THF     O1 8851   5.305   4.167   0.834  0.1361 -0.6336  0.1498
  501THF     C2 8852   5.344   4.034   0.848 -0.6008 -0.2127  0.0497
  501THF     C3 8853   5.221   4.208   0.945  0.0356 -0.1385 -0.2971
  501THF     H4 8854   5.435   4.034   0.909  0.1817  2.0135 -1.0114
  501THF     H5 8855   5.364   3.984   0.754  0.7973 -2.4831  1.4822
  501THF     H6 8856   5.280   4.228   1.034 -2.3006  0.6826  1.1472
  501THF     H7 8857   5.154   4.293   0.936 -0.3066 -0.0374  2.4273
  501THF     C8 8858   5.144   4.080   0.959  0.1844 -0.3713  0.4558
  501THF     C9 8859   5.232   3.962   0.919  0.3415 -0.0636  0.5255
  501THF    H10 8860   5.051   4.092   0.903  0.8995  0.3626 -0.6298
  501THF    H11 8861   5.103   4.061   1.058 -0.8168 -1.0976 -0.0765
  501THF    H12 8862   5.256   3.903   1.007  1.8595  0.1552  0.2743
  501THF    H13 8863   5.193   3.894   0.843 -0.3575  0.4458  0.4143
  502THF     O1 8864   1.916   3.221   0.033  0.1323 -0.3544 -0.0964
  502THF     C2 8865   1.780   3.227  -0.015  0.0065 -0.2128 -0.6089
  502THF     C3 8866   1.986   3.130  -0.049  0.0882 -0.5520 -0.6550
  502THF     H4 8867   1.766   3.335  -0.019  0.2301 -0.1671 -0.1950
  502THF     H5 8868   1.721   3.176   0.061 -0.6359  0.8656 -0.3561
  502THF     H6 8869   2.070   3.181  -0.094 -0.4087  1.6206  0.7270
  502THF     H7 8870   2.023   3.045   0.008 -1.0892  0.2398  1.4016
  502THF     C8 8871   1.888   3.065  -0.146 -0.2138 -0.6781  0.2314
  502THF     C9 8872   1.780   3.171  -0.153  0.6163  0.7719 -0.3371
  502THF    H10 8873   1.846   2.976  -0.099  0.5341 -0.7541  0.7792
  502THF    H11 8874   1.938   3.038  -0.239 -0.7450 -0.3136 -0.1655
  502THF    H12 8875   1.799   3.241  -0.234  0.7155  0.8927 -0.2099
  502THF    H13 8876   1.687   3.123  -0.184  0.8872  1.3430 -2.1837
  503THF     O1 8877   3.238   3.858   0.864  0.9098 -0.3663  0.1353
  503THF     C2 8878   3.219   3.923   0.989  0.6736 -0.7296 -0.5359
  503THF     C3 8879   3.302   3.956   0.780  0.0283 -0.2202  0.1384
  503THF     H4 8880   3.312   3.899   1.040  1.3531 -3.9923 -2.9700
  503THF     H5 8881   3.131   3.874   1.032  1.2596 -0.6307  0.8097
  503THF     H6 8882   3.409   3.972   0.795  0.2489 -0.3637 -1.1563
  503THF     H7 8883   3.286   3.943   0.673  1.2329  2.3212 -0.4409
  503THF     C8 8884   3.227   4.087   0.810  0.7862 -0.1605  0.3071
  503THF     C9 8885   3.202   4.071   0.955 -0.0886 -0.4145  0.0135
  503THF    H10 8886   3.131   4.078   0.760  0.8265  1.4618 -0.1183
  503THF    H11 8887   3.255   4.184   0.770 -2.4691  0.3619 -0.9431
  503THF    H12 8888   3.276   4.134   1.005  1.9471 -1.9474 -0.9068
  503THF    H13 8889   3.105   4.109   0.986 -0.0875  0.2806 -0.8110
  504THF     O1 8890   4.584   2.388   2.560 -0.4891  0.4019 -0.1035
  504THF     C2 8891   4.455   2.420   2.618  0.4865  0.8794  0.2096
  504THF     C3 8892   4.614   2.244   2.577  0.2424 -0.0264  0.2848
  504THF     H4 8893   4.376   2.416   2.543 -0.0131  0.9530  0.7268
  504THF     H5 8894   4.444   2.518   2.664 -1.8577 -0.4223  2.7214
  504THF     H6 8895   4.621   2.191   2.482  0.4964 -2.0823  1.3852
  504THF     H7 8896   4.717   2.229   2.612  0.8821  2.9724 -0.0268
  504THF     C8 8897   4.507   2.188   2.673  0.0236  0.0494  0.6630
  504THF     C9 8898   4.437   2.309   2.721 -0.1091 -0.1422 -0.6661
  504THF    H10 8899   4.544   2.122   2.751 -0.9250 -0.8253  0.3887
  504THF    H11 8900   4.434   2.129   2.618  0.5533 -2.0812  2.1331
  504THF    H12 8901   4.329   2.302   2.725 -0.2078  1.5645  0.3309
  504THF    H13 8902   4.471   2.343   2.819 -0.5251  0.3887 -0.7030
  505THF     O1 8903   1.083   4.404   2.045 -0.1012  0.1054  0.4945
  505THF     C2 8904   1.018   4.333   1.941 -0.2395 -0.0922  0.9150
  505THF     C3 8905   1.191   4.332   2.094 -0.2967  0.8566 -0.6515
  505THF     H4 8906   0.959   4.408   1.889  1.5940  0.2987 -0.7275
  505THF     H5 8907   0.966   4.246   1.982  1.9964 -0.4796  3.1115
  505THF     H6 8908   1.272   4.392   2.136 -0.6980  1.3346 -0.5389
  505THF     H7 8909   1.154   4.257   2.164  2.4505 -1.2216 -1.2751
  505THF     C8 8910   1.237   4.269   1.960  0.0286  0.1151 -0.4943
  505THF     C9 8911   1.135   4.290   1.855  0.4360 -0.0152 -0.2696
  505THF    H10 8912   1.265   4.163   1.962  2.6876  0.7487  0.7655
  505THF    H11 8913   1.327   4.322   1.929 -0.3133  1.4710  0.7052
  505THF    H12 8914   1.160   4.373   1.790  1.7474 -0.0396  0.1666
  505THF    H13 8915   1.118   4.197   1.800 -0.9963 -1.6768  2.6675
  506THF     O1 8916   4.589   4.873   4.530 -0.2743 -0.3627 -0.5709
  506THF     C2 8917   4.698   4.875   4.442 -0.3485 -0.7221  0.6357
  506THF     C3 8918   4.478   4.910   4.449  0.0906  0.2588 -0.1192
  506THF     H4 8919   4.698   4.797   4.365 -1.1735 -0.2033  0.0883
  506THF     H5 8920   4.793   4.869   4.495  0.4310  0.3209 -0.5852
  506THF     H6 8921   4.439   4.827   4.390 -0.6222  1.9193 -2.1037
  506THF     H7 8922   4.401   4.946   4.517 -0.4022 -1.7114  0.4473
  506THF     C8 8923   4.526   5.019   4.356 -0.5807  0.0939 -0.5248
  506THF     C9 8924   4.678   5.001   4.360 -0.0217 -0.3267  0.2221
  506THF    H10 8925   4.491   5.120   4.378  1.5110  0.4464  1.6595
  506THF    H11 8926   4.499   4.987   4.256  1.2163 -1.8990 -0.4348
  506THF    H12 8927   4.713   4.985   4.258 -2.4258  1.1980 -0.9426
  506THF    H13 8928   4.725   5.090   4.401 -1.7691 -0.0628  1.8027
  507THF     O1 8929   4.515   3.158   3.561  0.2775  0.1582 -0.0158
  507THF     C2 8930   4.472   3.129   3.695  0.6339 -0.6610  0.2605
  507THF     C3 8931   4.590   3.048   3.513  0.1729 -0.1241  0.2908
  507THF     H4 8932   4.387   3.188   3.729  1.1867 -1.4787  3.4423
  507THF     H5 8933   4.547   3.166   3.765  0.1342  0.7343  0.0813
  507THF     H6 8934   4.601   3.045   3.405  0.8089  0.2044  0.3475
  507THF     H7 8935   4.688   3.038   3.559 -0.0965 -0.5610  0.7924
  507THF     C8 8936   4.507   2.938   3.567 -0.0835  0.6061 -0.9581
  507THF     C9 8937   4.447   2.978   3.702 -0.0579 -0.1182 -0.1669
  507THF    H10 8938   4.566   2.846   3.576  1.0835  1.4505  0.5585
  507THF    H11 8939   4.431   2.926   3.490  1.3731  0.9987 -2.5179
  507THF    H12 8940   4.341   2.955   3.698 -0.4803  1.0821  2.3011
  507THF    H13 8941   4.501   2.931   3.784 -0.9687  0.4064  0.7469
  508THF     O1 8942   2.784   0.747   4.745  0.1747 -0.2418  0.2198
  508THF     C2 8943   2.809   0.699   4.613 -0.6090  0.1842  0.3291
  508THF     C3 8944   2.894   0.814   4.798 -0.0360 -0.1814  0.2292
  508THF     H4 8945   2.825   0.763   4.527  0.5358 -2.2441 -1.3943
  508THF     H5 8946   2.737   0.620   4.589 -1.3509  0.9703 -0.1236
  508THF     H6 8947   2.896   0.920   4.773  1.4894 -0.3918 -0.6306
  508THF     H7 8948   2.891   0.813   4.907 -3.1074 -0.4836  0.2295
  508THF     C8 8949   3.016   0.757   4.722 -0.1446 -1.3022  0.0119
  508THF     C9 8950   2.946   0.644   4.645  0.4041  0.6100 -0.2275
  508THF    H10 8951   3.093   0.714   4.787  0.2800 -1.6232 -0.6898
  508THF    H11 8952   3.056   0.831   4.654 -0.6154  0.4610  1.5650
  508THF    H12 8953   2.997   0.603   4.558 -0.3206  1.2828 -0.9805
  508THF    H13 8954   2.926   0.563   4.716  1.7437  0.8928  0.5061
  509THF     O1 8955   1.110   5.162   2.753 -0.0158  0.5561  0.4153
  509THF     C2 8956   1.210   5.061   2.738 -0.8572 -0.5835  0.0154
  509THF     C3 8957   1.142   5.246   2.867  0.2169  0.7793  0.4792
  509THF     H4 8958   1.213   5.002   2.647 -0.5163  0.4403 -0.6595
  509THF     H5 8959   1.210   5.010   2.834  2.1150  1.7118  1.4151
  509THF     H6 8960   1.091   5.342   2.876  0.0702  0.6229  1.4988
  509THF     H7 8961   1.137   5.183   2.956 -0.4009 -2.2491 -1.5797
  509THF     C8 8962   1.288   5.277   2.846 -0.7410  0.3676 -0.5329
  509THF     C9 8963   1.334   5.157   2.754  0.6658  0.3572  0.2307
  509THF    H10 8964   1.349   5.268   2.936  1.1545 -0.8849 -1.8698
  509THF    H11 8965   1.305   5.370   2.792 -1.2295  0.0094 -1.3081
  509THF    H12 8966   1.363   5.188   2.654 -0.0975 -1.5082 -0.6250
  509THF    H13 8967   1.421   5.114   2.805  1.0403  1.3328  0.4383
  510THF     O1 8968   1.369   2.497   1.992 -0.2413  0.7827 -0.3738
  510THF     C2 8969   1.282   2.594   1.934 -0.1579 -0.1109  0.2003
  510THF     C3 8970   1.371   2.384   1.903 -0.2821  0.1218 -0.7069
  510THF     H4 8971   1.321   2.642   1.845 -1.0984  0.1904 -0.0537
  510THF     H5 8972   1.244   2.673   1.998 -3.5046 -2.2892  1.1549
  510THF     H6 8973   1.440   2.397   1.820  0.6732  1.1289  0.2047
  510THF     H7 8974   1.391   2.288   1.949 -1.8091  0.3733  0.5723
  510THF     C8 8975   1.223   2.377   1.866  0.0316  0.0809  0.0742
  510THF     C9 8976   1.160   2.512   1.881 -0.1311  0.0613  0.6238
  510THF    H10 8977   1.174   2.308   1.934 -1.4337  0.6225 -0.3906
  510THF    H11 8978   1.208   2.340   1.764  2.3938 -2.0614  0.3899
  510THF    H12 8979   1.114   2.563   1.796 -0.1868  1.3790  1.4023
  510THF    H13 8980   1.075   2.507   1.950 -1.0453  1.3791 -0.3331
  511THF     O1 8981   1.430   3.488   1.352  0.2368  0.1666  0.7703
  511THF     C2 8982   1.321   3.504   1.442  0.4505 -0.1027 -0.2473
  511THF     C3 8983   1.392   3.488   1.211  0.1222  0.1860 -0.5885
  511THF     H4 8984   1.344   3.596   1.496  1.4512 -0.8454  0.6322
  511THF     H5 8985   1.316   3.414   1.504 -0.7812  1.6414  2.3734
  511THF     H6 8986   1.469   3.540   1.155  0.0672  2.9819  1.6586
  511THF     H7 8987   1.385   3.384   1.179  0.8264  0.0020 -0.1507
  511THF     C8 8988   1.250   3.565   1.218 -0.3867 -0.1839 -0.0903
  511THF     C9 8989   1.194   3.517   1.355 -0.2611 -0.5662 -0.1065
  511THF    H10 8990   1.183   3.547   1.134 -1.2023  2.3088 -0.0431
  511THF    H11 8991   1.264   3.673   1.222 -0.2069 -0.1469 -1.2078
  511THF    H12 8992   1.114   3.569   1.408  0.4234 -0.4956  0.8932
  511THF    H13 8993   1.165   3.412   1.347  1.2346 -1.1649  1.5688
  512THF     O1 8994   2.426   3.526   0.635  0.1441 -0.5464  0.0304
  512THF     C2 8995   2.334   3.495   0.536 -1.0552  0.1167 -0.8784
  512THF     C3 8996   2.448   3.665   0.625  0.4534  0.0126  0.6637
  512THF     H4 8997   2.238   3.527   0.575 -1.1776 -1.6641  0.3984
  512THF     H5 8998   2.332   3.392   0.500  1.1988  0.1379 -1.2415
  512THF     H6 8999   2.363   3.717   0.668 -0.8666 -1.0265 -0.6049
  512THF     H7 9000   2.541   3.689   0.677  0.6584  1.4005 -0.3065
  512THF     C8 9001   2.452   3.694   0.473 -0.3134  0.0079  0.2150
  512THF     C9 9002   2.382   3.572   0.412  0.1930  0.3648 -0.1400
  512THF    H10 9003   2.547   3.718   0.425  0.2330 -1.1974  0.6595
  512THF    H11 9004   2.395   3.787   0.464 -1.9464 -0.8524  1.1892
  512THF    H12 9005   2.300   3.596   0.344 -1.5470 -0.1681  1.6550
  512THF    H13 9006   2.448   3.511   0.351 -1.5404 -2.0157  0.1901
  513THF     O1 9007   5.120   1.589   1.819 -0.3408  0.0869  0.2812
  513THF     C2 9008   5.225   1.680   1.857 -0.3156 -0.4889 -0.0403
  513THF     C3 9009   5.092   1.606   1.684 -0.0631  0.5131  0.1281
  513THF     H4 9010   5.275   1.657   1.951  2.1167  0.3745 -1.0329
  513THF     H5 9011   5.175   1.775   1.875  0.2461 -0.5156  1.8408
  513THF     H6 9012   5.022   1.531   1.649 -1.8055  2.5648 -0.9999
  513THF     H7 9013   5.035   1.697   1.668 -0.7022  0.1020  0.0102
  513THF     C8 9014   5.236   1.620   1.629  0.5670 -0.1059 -0.4346
  513THF     C9 9015   5.317   1.683   1.741  0.4801  0.4444 -0.1167
  513THF    H10 9016   5.233   1.678   1.537 -0.5505 -1.4917 -1.3123
  513THF    H11 9017   5.273   1.517   1.627 -1.6885 -0.9869 -0.1464
  513THF    H12 9018   5.410   1.629   1.762  1.1975  1.9969  0.9015
  513THF    H13 9019   5.337   1.787   1.714  3.2191  0.1454  0.4524
  514THF     O1 9020   2.705   0.325   1.727 -0.0373 -0.4865  0.0269
  514THF     C2 9021   2.716   0.192   1.692  0.0978  0.2063 -0.2102
  514THF     C3 9022   2.814   0.395   1.662  0.4688  0.5920 -0.3019
  514THF     H4 9023   2.623   0.136   1.702  0.8489 -1.2712 -1.1286
  514THF     H5 9024   2.789   0.142   1.755  1.0203  1.0745 -0.5636
  514THF     H6 9025   2.784   0.499   1.672 -1.1342  0.0533  0.9465
  514THF     H7 9026   2.913   0.380   1.706  0.3469  2.5364  0.7308
  514THF     C8 9027   2.807   0.332   1.516 -0.0127  0.2157 -0.3262
  514THF     C9 9028   2.763   0.188   1.545 -0.0414  0.2194  0.3969
  514THF    H10 9029   2.904   0.323   1.467 -0.0754  0.0285 -0.4141
  514THF    H11 9030   2.743   0.376   1.439  0.7789  1.5666 -0.2406
  514THF    H12 9031   2.683   0.155   1.478 -0.8382 -0.5199  1.6788
  514THF    H13 9032   2.846   0.118   1.540 -0.9826 -0.8623 -0.9317
  515THF     O1 9033   1.760   5.359   2.275 -0.3219  0.3122  0.1478
  515THF     C2 9034   1.794   5.482   2.210  0.5757 -0.4335 -0.0106
  515THF     C3 9035   1.871   5.276   2.258  0.6056  0.3788 -0.2397
  515THF     H4 9036   1.866   5.538   2.270  1.1920  0.8421 -1.8654
  515THF     H5 9037   1.702   5.540   2.197  1.2434  0.6032 -0.2599
  515THF     H6 9038   1.951   5.318   2.320 -0.0576 -1.2271  1.8256
  515THF     H7 9039   1.851   5.176   2.295  0.9437 -0.3522 -1.9900
  515THF     C8 9040   1.903   5.285   2.122  0.1231 -0.0322 -0.0084
  515THF     C9 9041   1.860   5.429   2.089  0.3603  0.5700  1.4515
  515THF    H10 9042   1.833   5.221   2.068  0.2839 -0.5321  0.3624
  515THF    H11 9043   2.004   5.258   2.089 -0.7340  0.0074 -2.9935
  515THF    H12 9044   1.945   5.494   2.070  2.0696 -1.8208  0.4195
  515THF    H13 9045   1.791   5.425   2.005  2.4672  0.4260 -0.3622
  516THF     O1 9046   2.586   5.362   1.467  0.6493  0.3798  0.5522
  516THF     C2 9047   2.697   5.375   1.382 -0.0336  0.3083 -0.4035
  516THF     C3 9048   2.469   5.375   1.385  0.5559  0.6348 -0.1450
  516THF     H4 9049   2.783   5.319   1.419 -0.7362 -0.6291 -0.1387
  516THF     H5 9050   2.727   5.479   1.391 -0.2579  0.4321 -1.0250
  516THF     H6 9051   2.428   5.274   1.392  0.6318  0.7167  2.3637
  516THF     H7 9052   2.404   5.440   1.443 -0.4062 -0.0041 -0.4798
  516THF     C8 9053   2.518   5.425   1.248  0.9343 -0.2664  0.1270
  516THF     C9 9054   2.652   5.348   1.239  0.9064 -0.6055 -0.2882
  516THF    H10 9055   2.540   5.531   1.256 -0.1731  0.1140 -1.4466
  516THF    H11 9056   2.447   5.405   1.168  0.4421  1.8613 -0.0091
  516THF    H12 9057   2.646   5.241   1.218  1.5134 -0.5037 -1.0027
  516THF    H13 9058   2.717   5.396   1.166  0.2762 -1.6005 -1.5408
  517THF     O1 9059   1.759   1.789   4.756 -0.2237  0.7578  0.5250
  517THF     C2 9060   1.634   1.732   4.708 -0.4340  0.0772 -0.2747
  517THF     C3 9061   1.732   1.917   4.796  0.5259 -0.5301 -0.2545
  517THF     H4 9062   1.566   1.699   4.786  1.3857 -2.9182  0.2497
  517THF     H5 9063   1.652   1.647   4.641  3.5876  1.6748 -1.5585
  517THF     H6 9064   1.726   1.925   4.905  0.8402 -0.6104 -0.2290
  517THF     H7 9065   1.821   1.976   4.776 -0.5860  0.8044 -1.4916
  517THF     C8 9066   1.609   1.966   4.711  0.4171  0.1036  0.1293
  517THF     C9 9067   1.579   1.845   4.619 -0.1397 -0.4027  0.2725
  517THF    H10 9068   1.635   2.053   4.650 -0.4038 -0.1966 -0.6687
  517THF    H11 9069   1.525   1.993   4.774  1.4186  1.4632  0.9336
  517THF    H12 9070   1.475   1.830   4.588 -0.2921  3.6483 -1.8286
  517THF    H13 9071   1.632   1.846   4.524 -0.6632 -2.2868 -0.0714
  518THF     O1 9072   5.204   2.778   0.203 -0.0259  0.6923  0.1346
  518THF     C2 9073   5.126   2.682   0.133  0.2155  0.4061  0.1275
  518THF     C3 9074   5.343   2.740   0.179  0.4157 -0.0459 -0.1223
  518THF     H4 9075   5.112   2.705   0.027  4.8813  0.8681 -0.5910
  518THF     H5 9076   5.027   2.661   0.174  0.1776 -0.0418 -0.1782
  518THF     H6 9077   5.384   2.766   0.081  0.3719  0.2154 -0.0713
  518THF     H7 9078   5.413   2.774   0.254 -0.8696  0.7584  0.7513
  518THF     C8 9079   5.350   2.589   0.184 -0.4596  0.1329  0.6671
  518THF     C9 9080   5.215   2.551   0.136  0.4176 -0.1476 -0.1534
  518THF    H10 9081   5.369   2.566   0.289  1.3039 -0.3620  0.2805
  518THF    H11 9082   5.435   2.564   0.120  0.5212 -0.8518  2.2852
  518THF    H12 9083   5.203   2.499   0.041  2.5266 -0.9522 -0.0359
  518THF    H13 9084   5.178   2.475   0.206  0.2261  0.7056  0.6946
  519THF     O1 9085   1.828   4.569   3.057  0.1158  0.1787 -0.8500
  519THF     C2 9086   1.906   4.451   3.042  0.3529  0.7613 -0.2455
  519THF     C3 9087   1.923   4.667   3.099  0.1412 -0.1734  0.3458
  519THF     H4 9088   1.960   4.461   2.948 -0.3770 -0.1740 -0.7914
  519THF     H5 9089   1.847   4.359   3.045  0.5596  0.6324 -0.1548
  519THF     H6 9090   1.965   4.711   3.008  2.3761 -1.4453  0.6983
  519THF     H7 9091   1.879   4.745   3.161  1.2865  1.1967 -0.5131
  519THF     C8 9092   2.037   4.589   3.166  0.6673  0.0271 -0.2376
  519THF     C9 9093   2.000   4.439   3.158 -0.2159 -0.8979  0.0352
  519THF    H10 9094   2.036   4.624   3.270  0.5908  1.7745 -0.7897
  519THF    H11 9095   2.133   4.616   3.124  0.1460  0.1406 -1.3797
  519THF    H12 9096   2.079   4.369   3.134 -0.8513 -2.7918  2.9273
  519THF    H13 9097   1.955   4.403   3.251  0.8762  0.2771  1.0426
  520THF     O1 9098   1.161   1.769   4.686  0.1331  0.4079 -0.3751
  520THF     C2 9099   1.201   1.651   4.620  0.3298 -0.2069  1.1330
  520THF     C3 9100   1.167   1.741   4.828 -0.3197  0.0523 -0.4176
  520THF     H4 9101   1.309   1.637   4.626  0.3349  0.1309  1.9890
  520THF     H5 9102   1.175   1.650   4.514  1.6306  0.5236  0.7809
  520THF     H6 9103   1.266   1.770   4.862 -1.2182  2.6881  0.2197
  520THF     H7 9104   1.081   1.794   4.869 -1.4501  0.2135 -2.8143
  520THF     C8 9105   1.134   1.593   4.840  0.2506  0.8111  0.1064
  520THF     C9 9106   1.136   1.534   4.699  0.2252 -0.1527  0.1180
  520THF    H10 9107   1.040   1.573   4.890 -0.1463  0.4156 -0.7801
  520THF    H11 9108   1.216   1.535   4.882 -0.8013 -0.3760  0.5739
  520THF    H12 9109   1.187   1.438   4.689 -2.2299 -1.6417  0.9900
  520THF    H13 9110   1.031   1.521   4.672  0.4730 -1.1133 -0.4355
  521THF     O1 9111   0.387   2.438   1.710  0.5279  0.0332  1.0602
  521THF     C2 9112   0.252   2.429   1.744 -0.3086  0.1710 -0.6906
  521THF     C3 9113   0.397   2.421   1.564 -0.3607 -0.6385 -0.7161
  521THF     H4 9114   0.199   2.523   1.728 -3.2096 -0.8527  1.8846
  521THF     H5 9115   0.245   2.406   1.850  0.6704 -2.2780 -1.0661
  521THF     H6 9116   0.398   2.513   1.506  1.2968 -1.1713 -1.5994
  521THF     H7 9117   0.489   2.364   1.549  0.5356  0.2853  0.9756
  521THF     C8 9118   0.272   2.344   1.516  0.8639  0.5079 -0.0696
  521THF     C9 9119   0.203   2.322   1.652  0.5657  0.2488  0.0720
  521THF    H10 9120   0.293   2.250   1.466 -3.0874 -1.2945  1.2007
  521THF    H11 9121   0.211   2.412   1.457  2.0745  0.2839 -1.6377
  521THF    H12 9122   0.095   2.323   1.632  0.8203  0.8319 -1.3868
  521THF    H13 9123   0.231   2.225   1.693 -0.7097 -0.0494  0.2946
  522THF     O1 9124   1.827   2.776   3.628 -0.2400 -0.6796  0.2193
  522THF     C2 9125   1.749   2.744   3.519  0.0903  0.1304 -0.4816
  522THF     C3 9126   1.739   2.807   3.738  0.9050 -0.2372 -0.0879
  522THF     H4 9127   1.797   2.697   3.433  0.3546  0.5447 -0.5595
  522THF     H5 9128   1.702   2.832   3.475 -4.5585 -1.2459  1.0519
  522THF     H6 9129   1.803   2.825   3.825 -0.1463  1.2994  0.4175
  522THF     H7 9130   1.679   2.898   3.729  1.2375 -0.0616 -0.5525
  522THF     C8 9131   1.654   2.681   3.734 -0.3476 -0.1130  0.7158
  522THF     C9 9132   1.643   2.652   3.588 -0.4942 -0.0376  0.2680
  522THF    H10 9133   1.561   2.696   3.789 -0.3240 -0.8943  0.9792
  522THF    H11 9134   1.705   2.595   3.777  0.6443 -0.9452 -1.9247
  522THF    H12 9135   1.647   2.547   3.559 -1.5192  0.3534 -1.4508
  522THF    H13 9136   1.543   2.686   3.561  0.0141  2.9346  1.6775
  523THF     O1 9137   0.250   0.875   0.561 -0.6004 -0.0356 -0.0803
  523THF     C2 9138   0.233   1.009   0.616  0.0568 -0.0082 -0.0758
  523THF     C3 9139   0.371   0.877   0.496  0.1077 -0.9298  0.1099
  523THF     H4 9140   0.252   1.008   0.723  0.9582 -1.0051 -0.2330
  523THF     H5 9141   0.125   1.023   0.614  0.0992  0.4575 -2.1208
  523THF     H6 9142   0.448   0.875   0.574  0.5392 -0.5682 -0.3085
  523THF     H7 9143   0.391   0.794   0.428  0.7577 -1.4957  0.9561
  523THF     C8 9144   0.360   1.014   0.424 -0.2921  0.4731 -0.0731
  523THF     C9 9145   0.291   1.111   0.519 -0.1465 -0.3258  0.8472
  523THF    H10 9146   0.296   1.002   0.337  0.8692 -3.1651 -0.5926
  523THF    H11 9147   0.448   1.073   0.399 -0.4118  1.3753  1.4665
  523THF    H12 9148   0.354   1.180   0.574 -2.1315  0.0427  2.8013
  523THF    H13 9149   0.215   1.170   0.468  0.4168  0.4921  0.9399
  524THF     O1 9150   1.279   3.439   0.860  0.5263 -0.3891 -0.3534
  524THF     C2 9151   1.406   3.453   0.790  1.0004  0.0760  0.2551
  524THF     C3 9152   1.184   3.387   0.773 -0.1127 -0.9925 -0.0002
  524THF     H4 9153   1.488   3.443   0.861  0.7772 -0.8499  0.3878
  524THF     H5 9154   1.410   3.543   0.728 -0.6950  0.6553  0.9224
  524THF     H6 9155   1.092   3.352   0.820 -0.3391 -0.6743 -0.2049
  524THF     H7 9156   1.148   3.469   0.710 -2.3648 -1.2821  0.8224
  524THF     C8 9157   1.268   3.285   0.695 -0.7694 -0.8565  1.2591
  524THF     C9 9158   1.411   3.323   0.715 -0.1269  0.5360 -0.0905
  524THF    H10 9159   1.237   3.300   0.592 -2.6684  1.2169  2.0470
  524THF    H11 9160   1.235   3.183   0.717 -1.3933 -1.1300 -0.8072
  524THF    H12 9161   1.462   3.246   0.774 -0.4513  1.0927  0.9273
  524THF    H13 9162   1.464   3.328   0.620  1.1384  1.7677  0.6471
  525THF     O1 9163   1.211   2.756   1.131  0.7619 -0.4981 -0.2442
  525THF     C2 9164   1.215   2.615   1.130 -0.3714  0.5392  0.7773
  525THF     C3 9165   1.255   2.799   1.003 -0.0090 -0.0384 -0.0550
  525THF     H4 9166   1.149   2.572   1.205 -1.9542  0.6671 -0.4873
  525THF     H5 9167   1.320   2.585   1.134 -0.6304 -0.2883  1.6140
  525THF     H6 9168   1.199   2.888   0.974  1.2307  0.4159 -1.1304
  525THF     H7 9169   1.363   2.812   0.995 -0.0690 -0.1142 -1.1358
  525THF     C8 9170   1.226   2.683   0.909  0.2383 -0.3318  0.3200
  525THF     C9 9171   1.152   2.584   0.995 -0.0171 -0.2030  0.2489
  525THF    H10 9172   1.314   2.638   0.863  0.2885  0.6594 -0.5711
  525THF    H11 9173   1.166   2.707   0.821 -0.0169 -1.3529  0.1946
  525THF    H12 9174   1.045   2.603   0.997  0.3165  2.0507 -0.0265
  525THF    H13 9175   1.172   2.482   0.964  2.2686 -0.3994  2.0816
  526THF     O1 9176   1.879   1.740   3.077 -0.2281 -0.3591  0.1834
  526THF     C2 9177   1.998   1.765   3.004 -0.8467  0.9355 -0.6134
  526THF     C3 9178   1.881   1.600   3.087 -0.2143  0.2186 -0.0815
  526THF     H4 9179   2.033   1.868   3.014 -1.3060  1.0795 -0.4803
  526THF     H5 9180   1.984   1.725   2.903 -0.4103 -1.3283  0.1577
  526THF     H6 9181   1.794   1.567   3.145 -1.6530 -1.4759 -2.9807
  526THF     H7 9182   1.866   1.554   2.990  1.7533  0.2621 -0.4442
  526THF     C8 9183   2.017   1.584   3.156  0.0177 -0.6046  0.2107
  526THF     C9 9184   2.099   1.672   3.067 -0.7485  0.0649  0.7527
  526THF    H10 9185   2.057   1.482   3.158  0.1066 -0.5518  1.6241
  526THF    H11 9186   2.016   1.620   3.258 -0.8474 -2.2098  0.8083
  526THF    H12 9187   2.172   1.730   3.124 -0.2979  0.9394 -0.6648
  526THF    H13 9188   2.149   1.613   2.991  1.7806  0.9494  1.6262
  527THF     O1 9189   4.551   4.365   0.971 -0.9510  0.2571  0.0402
  527THF     C2 9190   4.533   4.494   1.031  0.2412 -0.3373 -0.0825
  527THF     C3 9191   4.688   4.360   0.933 -0.0686  0.3110  0.3308
  527THF     H4 9192   4.470   4.483   1.119 -0.1901  1.5992 -0.1194
  527THF     H5 9193   4.486   4.563   0.961  2.4151  0.5795 -0.7171
  527THF     H6 9194   4.702   4.254   0.912  0.3236  0.5363 -0.6011
  527THF     H7 9195   4.711   4.411   0.839 -0.3619 -0.0419  0.0675
  527THF     C8 9196   4.756   4.413   1.053 -0.2962  0.1080 -0.4735
  527THF     C9 9197   4.674   4.531   1.084  0.3406 -0.3585  0.2030
  527THF    H10 9198   4.861   4.439   1.038 -0.1632  0.7633  1.3771
  527THF    H11 9199   4.757   4.349   1.141 -0.5338  0.5180 -0.1711
  527THF    H12 9200   4.681   4.551   1.191  2.3362 -0.2703  0.0791
  527THF    H13 9201   4.713   4.614   1.025 -0.0901 -0.5148 -0.3154
  528THF     O1 9202   1.816   5.012   4.596 -0.6625  0.2155 -0.4452
  528THF     C2 9203   1.933   5.089   4.612 -0.0124  0.0093  0.8288
  528THF     C3 9204   1.804   4.926   4.709  0.1882  0.1192 -0.3249
  528THF     H4 9205   1.908   5.173   4.677  0.4220  1.6843 -1.0499
  528THF     H5 9206   1.964   5.128   4.515  1.5157  0.3803  1.4411
  528THF     H6 9207   1.725   4.965   4.773 -0.3466  0.2064 -1.0374
  528THF     H7 9208   1.762   4.827   4.689 -0.2334  0.1561  0.3563
  528THF     C8 9209   1.945   4.915   4.773 -0.5198 -0.0378 -0.0334
  528THF     C9 9210   2.028   4.996   4.679 -0.3261 -0.2223 -0.5279
  528THF    H10 9211   1.986   4.815   4.781 -2.2623 -0.7709  0.2306
  528THF    H11 9212   1.949   4.958   4.873  1.1188 -1.1576  0.4239
  528THF    H12 9213   2.110   5.048   4.730 -1.4524  2.7309 -1.4941
  528THF    H13 9214   2.077   4.932   4.605 -0.0908 -1.0535  0.3366
  529THF     O1 9215   2.099   0.769   4.994  0.0774 -0.2491  0.0216
  529THF     C2 9216   2.167   0.644   5.001  0.3127 -0.1537  0.0943
  529THF     C3 9217   2.057   0.812   5.127 -0.2685  0.4631 -0.7195
  529THF     H4 9218   2.272   0.674   5.010  0.0280  0.3214  2.2116
  529THF     H5 9219   2.150   0.574   4.919 -0.3765 -1.6721  1.5027
  529THF     H6 9220   2.123   0.856   5.202 -1.3704 -2.4731  2.2228
  529THF     H7 9221   1.977   0.886   5.119 -1.3077 -0.5789 -0.2120
  529THF     C8 9222   2.016   0.677   5.181  0.4015  0.0282  0.3814
  529THF     C9 9223   2.126   0.588   5.142  0.1477  0.0296  0.3687
  529THF    H10 9224   1.923   0.644   5.134  0.8710 -1.3443  0.3704
  529THF    H11 9225   1.989   0.685   5.286 -1.3182  0.1983 -0.0378
  529THF    H12 9226   2.208   0.604   5.212 -0.1908  1.7145  0.4079
  529THF    H13 9227   2.092   0.485   5.130  0.6451 -0.0481 -0.4547
  530THF     O1 9228   2.826   3.626   2.845 -0.0956  0.2882 -0.2797
  530THF     C2 9229   2.847   3.767   2.822  0.1430 -0.6749 -0.0872
  530THF     C3 9230   2.949   3.568   2.872 -0.7939 -0.5612 -0.4373
  530THF     H4 9231   2.755   3.824   2.836  0.0990 -0.8099  0.1755
  530THF     H5 9232   2.866   3.778   2.715 -1.7942 -0.2161 -0.4146
  530THF     H6 9233   2.946   3.468   2.917  1.2795 -0.8600 -0.8733
  530THF     H7 9234   2.999   3.553   2.776  0.9243  1.2040  0.1237
  530THF     C8 9235   3.006   3.679   2.963 -0.0324  1.0608  0.0145
  530THF     C9 9236   2.967   3.811   2.894 -0.1295  0.0146 -0.6325
  530THF    H10 9237   3.114   3.673   2.979  0.0961  0.7913 -0.8895
  530THF    H11 9238   2.967   3.682   3.064  1.0308 -0.5644  0.5028
  530THF    H12 9239   2.949   3.889   2.968  2.0993 -1.5603  1.7786
  530THF    H13 9240   3.037   3.848   2.819 -0.1407  1.6588  0.1410
  531THF     O1 9241   1.083   1.432   0.445 -0.4816  0.2825 -0.1784
  531THF     C2 9242   1.164   1.499   0.349  0.9654  0.2074 -0.8893
  531THF     C3 9243   1.161   1.321   0.478  0.1801 -0.2294 -0.0915
  531THF     H4 9244   1.127   1.600   0.331 -0.9764  0.1032  1.7676
  531THF     H5 9245   1.180   1.444   0.257 -0.4240  1.8130 -2.1729
  531THF     H6 9246   1.117   1.273   0.566 -0.6669  0.3839 -0.1721
  531THF     H7 9247   1.146   1.247   0.399 -0.2066  0.1685 -0.3921
  531THF     C8 9248   1.302   1.376   0.509 -0.1666  0.6479 -0.1383
  531THF     C9 9249   1.288   1.511   0.431 -0.5264  0.5193 -0.1459
  531THF    H10 9250   1.386   1.318   0.473  0.4462 -0.5779  2.9428
  531THF    H11 9251   1.314   1.405   0.614 -0.7830  1.2972 -0.2344
  531THF    H12 9252   1.274   1.588   0.507 -2.6560 -0.1401  0.1848
  531THF    H13 9253   1.378   1.539   0.377  1.0143 -1.8968  1.0143
  532THF     O1 9254   3.177   1.212   4.137 -0.4160  0.4793 -0.3813
  532THF     C2 9255   3.098   1.108   4.082 -0.8331  0.2853  0.3183
  532THF     C3 9256   3.117   1.252   4.260  0.2652 -0.1316  1.2095
  532THF     H4 9257   3.090   1.010   4.129  1.1842 -0.5116 -0.8714
  532THF     H5 9258   3.118   1.077   3.980  0.0535  0.9217  0.2905
  532THF     H6 9259   3.146   1.183   4.340 -0.0000 -1.4613  0.1913
  532THF     H7 9260   3.128   1.351   4.303  1.4578  0.2328  0.1320
  532THF     C8 9261   2.973   1.239   4.236  0.7706 -0.1573 -0.1646
  532THF     C9 9262   2.962   1.172   4.096 -0.4988  0.2714 -0.4788
  532THF    H10 9263   2.923   1.336   4.240  1.0554  0.0963 -2.0197
  532THF    H11 9264   2.922   1.162   4.294 -1.8121  0.5678 -1.3256
  532THF    H12 9265   2.878   1.104   4.080 -0.5092  0.3338 -0.7028
  532THF    H13 9266   2.954   1.255   4.025 -1.5953 -0.2672 -1.0207
  533THF     O1 9267   2.702   1.715   1.722  0.0064  0.3501  0.2423
  533THF     C2 9268   2.781   1.595   1.751  0.0051  0.0176 -0.6012
  533THF     C3 9269   2.686   1.784   1.844 -0.0405 -0.0215 -0.1228
  533THF     H4 9270   2.825   1.551   1.661  2.0946 -1.7030  1.1599
  533THF     H5 9271   2.704   1.530   1.793 -4.1103  4.2596 -0.7077
  533THF     H6 9272   2.670   1.889   1.818 -0.7942 -0.2968 -0.7981
  533THF     H7 9273   2.594   1.746   1.887 -0.4022 -0.0238 -0.8894
  533THF     C8 9274   2.809   1.745   1.928  0.3213 -0.1274  0.3367
  533THF     C9 9275   2.884   1.640   1.845  0.2336 -0.5483  0.0468
  533THF    H10 9276   2.767   1.705   2.019  0.8856  1.5473  1.3841
  533THF    H11 9277   2.884   1.824   1.942  0.4918 -0.2192 -0.0217
  533THF    H12 9278   2.966   1.692   1.794  2.8271 -2.6287  1.8109
  533THF    H13 9279   2.928   1.559   1.903 -0.2583  0.0830  1.3499
  534THF     O1 9280   0.364   2.479   2.819  0.0340  0.3591 -0.1503
  534THF     C2 9281   0.289   2.372   2.763  0.3308  0.0578 -1.0058
  534THF     C3 9282   0.457   2.420   2.909 -0.2772  0.2597  0.1541
  534THF     H4 9283   0.342   2.311   2.690 -0.0648  0.8409 -1.9689
  534THF     H5 9284   0.198   2.410   2.716 -1.1327 -0.0748  1.5012
  534THF     H6 9285   0.550   2.394   2.858 -1.5961 -0.1617 -2.1730
  534THF     H7 9286   0.482   2.486   2.992  0.6224 -2.0047  1.7960
  534THF     C8 9287   0.378   2.306   2.978  0.3094  0.7462  0.0953
  534THF     C9 9288   0.253   2.295   2.888  0.0182 -0.9057  0.0931
  534THF    H10 9289   0.360   2.311   3.086  0.6031  1.5515  0.1181
  534THF    H11 9290   0.447   2.223   2.965  0.1179 -0.0499  3.2703
  534THF    H12 9291   0.234   2.189   2.870 -1.4001 -1.0066  1.7861
  534THF    H13 9292   0.163   2.342   2.929  2.2192  1.1173  3.0451
  535THF     O1 9293   4.371   3.804   1.453  0.0655  0.5631 -0.7789
  535THF     C2 9294   4.511   3.784   1.446  0.2585 -0.7225 -0.1687
  535THF     C3 9295   4.322   3.758   1.332  0.4649  0.5234 -0.4484
  535THF     H4 9296   4.553   3.797   1.546  0.8521 -0.3030 -0.4656
  535THF     H5 9297   4.560   3.855   1.379  1.3159 -0.9745  0.3075
  535THF     H6 9298   4.216   3.739   1.315  0.4188  0.5528 -0.2007
  535THF     H7 9299   4.357   3.819   1.248 -1.8849  1.5713 -0.7443
  535THF     C8 9300   4.384   3.622   1.319  0.6796 -0.0563 -0.1796
  535THF     C9 9301   4.517   3.639   1.394 -0.2009  0.7246  0.7513
  535THF    H10 9302   4.382   3.590   1.214  0.6102  1.2699 -0.6048
  535THF    H11 9303   4.324   3.545   1.368  0.6154 -0.3707 -0.7435
  535THF    H12 9304   4.517   3.577   1.484 -0.7336  0.7950  0.8012
  535THF    H13 9305   4.598   3.616   1.325 -0.0335  1.7916  0.5759
  536THF     O1 9306   2.943   4.545   3.739 -0.8196 -0.1097  0.0408
  536THF     C2 9307   3.062   4.579   3.667 -0.3615 -0.8351 -0.1790
  536THF     C3 9308   2.893   4.433   3.668  0.6731 -0.2748 -0.2742
  536THF     H4 9309   3.133   4.500   3.690 -0.5882 -1.5309 -1.7369
  536THF     H5 9310   3.091   4.682   3.688 -2.4251  0.1372 -1.6610
  536THF     H6 9311   2.933   4.338   3.704 -0.8642 -0.3429  1.4157
  536THF     H7 9312   2.786   4.410   3.673  1.0226 -1.9113  0.1033
  536THF     C8 9313   2.932   4.450   3.517  0.2607  0.2099 -1.1594
  536THF     C9 9314   3.039   4.556   3.515  0.1147 -0.2536 -0.3376
  536THF    H10 9315   2.840   4.472   3.463 -0.6067 -1.5318 -0.4974
  536THF    H11 9316   2.984   4.359   3.487  2.2813  1.0864 -0.4663
  536THF    H12 9317   3.131   4.539   3.458 -0.6309 -1.1908 -1.3043
  536THF    H13 9318   2.986   4.641   3.474 -1.5798 -0.8527  0.5286
  537THF     O1 9319   2.317   0.437   2.616 -0.4257 -0.1360  0.0391
  537THF     C2 9320   2.391   0.414   2.732  0.2952 -0.2252  0.2018
  537THF     C3 9321   2.198   0.501   2.643  0.2498 -0.0536 -0.2948
  537THF     H4 9322   2.433   0.511   2.760  1.3562 -0.1671 -1.4477
  537THF     H5 9323   2.465   0.337   2.714 -0.8986 -1.1840 -0.7487
  537THF     H6 9324   2.216   0.608   2.649  3.7928 -0.5825  0.8051
  537THF     H7 9325   2.118   0.487   2.570  0.6368 -1.5137 -0.4636
  537THF     C8 9326   2.159   0.448   2.780  0.5610  0.4089 -0.3091
  537THF     C9 9327   2.277   0.371   2.820 -0.5644  0.2464 -0.5109
  537THF    H10 9328   2.063   0.397   2.771 -1.1000  2.7163  2.6113
  537THF    H11 9329   2.153   0.533   2.848 -5.5487 -0.2710  0.5644
  537THF    H12 9330   2.298   0.383   2.926 -0.8741 -1.3682 -0.2452
  537THF    H13 9331   2.263   0.263   2.812 -1.0861 -0.0359  2.8334
  538THF     O1 9332   3.370   3.724   3.162 -0.7300 -0.2830  0.2239
  538THF     C2 9333   3.444   3.626   3.231 -0.2618  0.2260  0.3681
  538THF     C3 9334   3.257   3.764   3.243  0.0847  0.1712 -0.4152
  538THF     H4 9335   3.512   3.673   3.303 -1.4416  1.2068  0.8787
  538THF     H5 9336   3.497   3.568   3.156 -2.1088 -1.1223  0.0350
  538THF     H6 9337   3.306   3.835   3.310  0.2227 -0.3242  0.0159
  538THF     H7 9338   3.174   3.816   3.196 -0.6789  0.4508  1.1615
  538THF     C8 9339   3.219   3.634   3.313  0.3622  0.9987  0.5503
  538THF     C9 9340   3.334   3.540   3.291  0.2561  0.4103 -0.4311
  538THF    H10 9341   3.131   3.583   3.273  1.8196  0.1024 -1.6584
  538THF    H11 9342   3.192   3.653   3.417 -0.3492 -1.5356  0.9100
  538THF    H12 9343   3.357   3.491   3.386  1.4763 -1.2857 -1.5402
  538THF    H13 9344   3.310   3.452   3.233  1.1633 -1.1752  1.4941
  539THF     O1 9345   1.316   2.949   4.513 -0.2385  0.3509 -0.4673
  539THF     C2 9346   1.458   2.933   4.539  0.1214 -0.0355  0.3923
  539THF     C3 9347   1.241   2.848   4.585 -0.3168  0.2460 -0.8421
  539THF     H4 9348   1.509   3.022   4.576 -0.0357 -0.2410  1.1010
  539THF     H5 9349   1.502   2.924   4.439  0.9531  1.9110  0.5237
  539THF     H6 9350   1.190   2.887   4.673  0.3398 -2.6776  0.9838
  539THF     H7 9351   1.161   2.818   4.517 -0.7817 -1.1923  0.2681
  539THF     C8 9352   1.347   2.734   4.607  0.2218  0.0467 -0.0343
  539THF     C9 9353   1.481   2.810   4.623 -0.0958  0.5063 -0.1463
  539THF    H10 9354   1.349   2.684   4.510  0.7140  1.5928 -0.8670
  539THF    H11 9355   1.323   2.658   4.681 -1.3517 -0.5226 -1.0778
  539THF    H12 9356   1.494   2.824   4.730 -0.2267 -1.5395  0.1850
  539THF    H13 9357   1.569   2.748   4.602 -1.1590 -0.7910 -0.9574
  540THF     O1 9358   1.126   3.219   1.647  0.1781  0.4328  0.4582
  540THF     C2 9359   1.155   3.141   1.766 -0.7908  0.8482  0.2766
  540THF     C3 9360   1.155   3.137   1.532  0.8468  0.7300 -0.1448
  540THF     H4 9361   1.094   3.165   1.853 -1.3709 -1.9396  0.7412
  540THF     H5 9362   1.260   3.156   1.790 -1.0478 -0.6955  2.6343
  540THF     H6 9363   1.106   3.167   1.440  0.7395  0.5473 -0.1463
  540THF     H7 9364   1.262   3.146   1.510  1.1895 -2.6169 -0.3810
  540THF     C8 9365   1.129   2.990   1.572 -0.6188 -0.2133 -0.3584
  540THF     C9 9366   1.149   2.992   1.719 -0.6509 -0.2969 -0.0446
  540THF    H10 9367   1.191   2.918   1.519 -1.8925 -1.3506 -0.3352
  540THF    H11 9368   1.027   2.956   1.554 -0.1858 -1.8620  0.1268
  540THF    H12 9369   1.068   2.939   1.769 -1.3042  2.7941  2.5674
  540THF    H13 9370   1.240   2.936   1.741 -0.2080  0.8594  1.2291
  541THF     O1 9371   3.151   5.131   3.812  0.1362 -0.1077  0.3301
  541THF     C2 9372   3.258   5.034   3.823 -0.0096 -0.9354  0.2865
  541THF     C3 9373   3.096   5.174   3.937  0.8248  0.4574  0.0698
  541THF     H4 9374   3.353   5.085   3.840  0.6733 -2.1920  0.3428
  541THF     H5 9375   3.279   4.970   3.737  0.9303 -0.8015  0.3979
  541THF     H6 9376   3.124   5.271   3.976 -1.2007  0.4794  1.6435
  541THF     H7 9377   2.988   5.163   3.932  0.6643  1.8992 -5.1403
  541THF     C8 9378   3.147   5.070   4.031 -0.0932  0.7419  0.2637
  541THF     C9 9379   3.214   4.959   3.944  0.3037  0.2224  0.2543
  541THF    H10 9380   3.057   5.029   4.076  0.0711  0.0837  0.0110
  541THF    H11 9381   3.225   5.110   4.096  0.2224  0.2780  0.1765
  541THF    H12 9382   3.294   4.908   3.996  1.4438  2.7757  1.1512
  541THF    H13 9383   3.136   4.887   3.918 -1.5922  1.5902  1.8033
  542THF     O1 9384   5.441   5.344   2.751 -0.1760 -0.1133 -0.4335
  542THF     C2 9385   5.334   5.319   2.658  0.8115 -0.3742 -0.3566
  542THF     C3 9386   5.441   5.242   2.857 -0.3782  0.5698  0.1746
  542THF     H4 9387   5.353   5.355   2.556  0.7434 -0.9830 -0.5872
  542THF     H5 9388   5.249   5.377   2.693  0.4578 -0.8813 -0.3586
  542THF     H6 9389   5.537   5.191   2.854 -0.6162  0.1529 -1.7201
  542THF     H7 9390   5.436   5.272   2.961  2.2619 -0.4208  0.6440
  542THF     C8 9391   5.337   5.139   2.827 -0.3640  0.1089 -0.3304
  542THF     C9 9392   5.324   5.170   2.673  0.5816 -0.6588 -0.0096
  542THF    H10 9393   5.246   5.149   2.886 -1.4313  2.1490 -2.1512
  542THF    H11 9394   5.366   5.036   2.848 -0.1385  0.0484 -0.9122
  542THF    H12 9395   5.393   5.129   2.600  0.9671  1.6074 -1.0043
  542THF    H13 9396   5.226   5.133   2.644  0.9393 -0.2859 -1.7635
  543THF     O1 9397   1.676   4.895   0.153  0.4190 -0.3010  0.1562
  543THF     C2 9398   1.802   4.848   0.092 -0.1537 -0.2406 -0.0542
  543THF     C3 9399   1.721   4.998   0.244  0.6830  0.1071  0.7022
  543THF     H4 9400   1.791   4.790  -0.000 -2.1061  0.7790 -0.5241
  543THF     H5 9401   1.842   4.781   0.167 -3.7202 -0.6504  1.7096
  543THF     H6 9402   1.642   5.069   0.267  1.1283  0.0481  2.6221
  543THF     H7 9403   1.744   4.947   0.338 -2.6870  1.4554  2.4435
  543THF     C8 9404   1.849   5.060   0.185 -0.2140  0.5569  0.3769
  543THF     C9 9405   1.877   4.975   0.061  0.6930  0.9489 -0.3523
  543THF    H10 9406   1.932   5.046   0.255  0.4347  1.4357 -0.1991
  543THF    H11 9407   1.835   5.167   0.171 -0.5011  0.4237 -0.3869
  543THF    H12 9408   1.838   5.022  -0.029  1.2361 -1.8288 -2.1611
  543THF    H13 9409   1.984   4.962   0.044  0.9775  0.9906  1.2843
  544THF     O1 9410   0.841   2.218   3.205  0.4975  0.3480 -0.3402
  544THF     C2 9411   0.918   2.319   3.136 -0.6164  0.1164  0.3920
  544THF     C3 9412   0.908   2.100   3.177 -0.0515  0.0276 -0.3405
  544THF     H4 9413   0.890   2.422   3.153 -1.4273 -0.0375  0.0120
  544THF     H5 9414   0.902   2.303   3.030  1.7409 -2.3383  0.2595
  544THF     H6 9415   0.894   2.012   3.239 -1.8341  0.2813 -0.3396
  544THF     H7 9416   0.868   2.073   3.079  0.6336  1.3084 -1.0069
  544THF     C8 9417   1.060   2.142   3.176  0.4673 -0.1392 -0.3193
  544THF     C9 9418   1.067   2.287   3.161  0.3736 -1.0200  0.3227
  544THF    H10 9419   1.114   2.085   3.100 -0.1167 -2.8349  1.1563
  544THF    H11 9420   1.097   2.110   3.273 -0.4914  1.5603  0.6455
  544THF    H12 9421   1.095   2.321   3.261  0.2431  1.8469 -0.5224
  544THF    H13 9422   1.134   2.321   3.082 -0.9664  1.1300  0.0243
  545THF     O1 9423   3.580   5.470   3.781  0.2225 -0.0356  0.0850
  545THF     C2 9424   3.577   5.382   3.667  0.0185  0.7147 -0.0125
  545THF     C3 9425   3.446   5.503   3.813 -0.0118 -0.7717 -0.1927
  545THF     H4 9426   3.659   5.310   3.675 -0.6495  0.0137  0.7548
  545THF     H5 9427   3.616   5.444   3.587  2.7249  3.4187  3.0657
  545THF     H6 9428   3.435   5.558   3.907  0.5541 -1.7233  0.4504
  545THF     H7 9429   3.423   5.580   3.739  0.5617 -1.3932 -1.0429
  545THF     C8 9430   3.372   5.363   3.781  0.7047 -0.3653 -0.2146
  545THF     C9 9431   3.432   5.332   3.643 -0.2677 -0.3694 -0.3754
  545THF    H10 9432   3.266   5.388   3.773  0.9706  0.2815 -2.2753
  545THF    H11 9433   3.400   5.298   3.864  0.3202  0.8182  0.8625
  545THF    H12 9434   3.410   5.234   3.601 -1.6106  0.6724 -2.2395
  545THF    H13 9435   3.403   5.408   3.570  2.4038  1.5925  0.4359
  546THF     O1 9436   1.598   1.763   1.924 -0.2896  0.6810 -0.2247
  546THF     C2 9437   1.659   1.825   2.039  0.6280 -0.1299 -0.1918
  546THF     C3 9438   1.489   1.849   1.898 -0.5255 -0.1386  0.1774
  546THF     H4 9439   1.718   1.912   2.011  2.7806 -1.2314  0.6895
  546THF     H5 9440   1.729   1.761   2.093  0.1991 -0.2752  0.1996
  546THF     H6 9441   1.524   1.941   1.851 -3.3697  0.1084 -1.6808
  546THF     H7 9442   1.405   1.805   1.845 -0.6311 -0.0093  0.2376
  546THF     C8 9443   1.433   1.870   2.039 -0.8758  0.6768  0.3727
  546THF     C9 9444   1.548   1.861   2.131 -0.3302 -0.1075 -0.4594
  546THF    H10 9445   1.361   1.790   2.054 -0.2139 -0.8586 -3.5946
  546THF    H11 9446   1.387   1.968   2.055  1.7899  1.9167  1.0311
  546THF    H12 9447   1.576   1.952   2.183 -1.2630 -0.7777  1.2860
  546THF    H13 9448   1.532   1.791   2.213 -1.3948  1.2668  0.5555
  547THF     O1 9449   0.041   1.443   0.196  0.2479 -0.0451 -0.1811
  547THF     C2 9450   0.084   1.417   0.062  0.4802 -0.1847 -0.0114
  547THF     C3 9451  -0.097   1.455   0.204  1.0020  0.3242 -0.0364
  547THF     H4 9452   0.187   1.383   0.067  0.6141  0.3952  1.7628
  547THF     H5 9453   0.069   1.501  -0.005 -0.2700 -0.2300  0.0863
  547THF     H6 9454  -0.118   1.442   0.310  1.1110  1.6691  0.1743
  547THF     H7 9455  -0.135   1.557   0.189 -0.2989  0.6636  4.3477
  547THF     C8 9456  -0.149   1.367   0.092 -0.5735  0.2392 -0.3649
  547THF     C9 9457  -0.022   1.313   0.017  0.1133 -0.7056 -1.1032
  547THF    H10 9458  -0.215   1.420   0.024 -1.6981  2.4959  2.2666
  547THF    H11 9459  -0.207   1.285   0.136 -0.7023  0.0471 -0.8923
  547THF    H12 9460   0.006   1.216   0.058 -1.4392 -0.8225 -0.2059
  547THF    H13 9461  -0.030   1.309  -0.091  0.8607 -1.5644 -1.1336
  548THF     O1 9462   3.324   3.373   1.927  0.1982  0.8410 -0.7068
  548THF     C2 9463   3.267   3.296   1.824  0.0607  0.1101 -1.1517
  548THF     C3 9464   3.223   3.408   2.005  0.4870 -0.7078  0.0859
  548THF     H4 9465   3.229   3.197   1.847 -1.4591  1.0941  0.9215
  548THF     H5 9466   3.332   3.279   1.739  0.6100 -3.3489 -0.1703
  548THF     H6 9467   3.187   3.320   2.058 -0.4641  0.1198  0.8514
  548THF     H7 9468   3.246   3.482   2.082 -2.1543 -1.3422  1.6371
  548THF     C8 9469   3.119   3.461   1.904  0.1481 -0.4929  0.1302
  548THF     C9 9470   3.147   3.380   1.790  0.2522 -0.5976  0.4419
  548THF    H10 9471   3.123   3.568   1.882 -2.4770 -0.2298  0.5739
  548THF    H11 9472   3.019   3.434   1.938 -0.5837  0.4104 -1.2053
  548THF    H12 9473   3.073   3.315   1.742  1.2386 -0.2324 -1.7036
  548THF    H13 9474   3.167   3.447   1.706  0.5102 -1.0239  0.1564
  549THF     O1 9475   5.440   2.339   3.752  0.2045  0.0215 -0.5064
  549THF     C2 9476   5.459   2.198   3.769  0.7878 -0.6036 -0.2516
  549THF     C3 9477   5.302   2.370   3.782  0.4158 -0.5175 -0.3492
  549THF     H4 9478   5.562   2.167   3.786  0.0529 -1.9674  2.4201
  549THF     H5 9479   5.411   2.142   3.689  0.8303 -0.1465 -0.5969
  549THF     H6 9480   5.292   2.472   3.820  2.1753  1.1806 -3.9519
  549THF     H7 9481   5.236   2.358   3.696 -0.1749  0.1744 -0.0063
  549THF     C8 9482   5.252   2.268   3.888 -0.2882  0.1800  0.3860
  549THF     C9 9483   5.374   2.169   3.890 -0.3329  0.7517 -0.1297
  549THF    H10 9484   5.167   2.205   3.863 -0.4452  0.7511 -0.5922
  549THF    H11 9485   5.230   2.321   3.980  3.8911  0.8261  1.2056
  549THF    H12 9486   5.434   2.194   3.979  1.8673 -0.0574 -1.3061
  549THF    H13 9487   5.346   2.064   3.894 -1.0700  0.9761  0.9266
  550THF     O1 9488   3.511   3.076   5.272  0.1820 -0.7898  0.3990
  550THF     C2 9489   3.456   3.192   5.199 -0.7250  0.4370 -0.1682
  550THF     C3 9490   3.408   3.026   5.357  0.3951 -0.1819 -0.3858
  550THF     H4 9491   3.488   3.187   5.095  1.9387  0.7962  0.5549
  550THF     H5 9492   3.488   3.288   5.240  0.2600  0.7805 -1.6973
  550THF     H6 9493   3.436   2.927   5.394 -0.2400 -1.4143 -2.9591
  550THF     H7 9494   3.403   3.090   5.445 -1.4845  1.5857 -1.6742
  550THF     C8 9495   3.287   3.038   5.264 -0.1332 -0.1534 -0.1954
  550THF     C9 9496   3.308   3.177   5.207  0.6191 -0.4229  0.0538
  550THF    H10 9497   3.184   3.031   5.297 -0.9970  0.6466 -2.5519
  550THF    H11 9498   3.299   2.964   5.186 -2.4555 -1.8844  0.9816
  550THF    H12 9499   3.261   3.193   5.110 -0.1721  2.3795  0.7983
  550THF    H13 9500   3.261   3.236   5.286  0.2625 -0.1144 -0.3865
  551THF     O1 9501   0.176   4.129   2.113 -0.6847  0.3837  0.3952
  551THF     C2 9502   0.311   4.084   2.105  0.1589  0.6735 -0.1975
  551THF     C3 9503   0.166   4.245   2.041 -0.2841  0.6743 -0.4476
  551THF     H4 9504   0.334   3.981   2.134  1.2215  0.0564 -2.9347
  551THF     H5 9505   0.384   4.150   2.152  1.9083 -0.8893 -0.6166
  551THF     H6 9506   0.058   4.249   2.025 -0.7582  2.0634  2.4458
  551THF     H7 9507   0.208   4.324   2.103  2.5324  0.1034 -1.4571
  551THF     C8 9508   0.247   4.205   1.918 -0.3126  0.4573 -0.1998
  551THF     C9 9509   0.340   4.081   1.957 -0.2926 -0.2187  0.0151
  551THF    H10 9510   0.306   4.292   1.890 -2.9588  1.7442 -2.1738
  551THF    H11 9511   0.186   4.179   1.831  1.8659  1.2938 -2.0624
  551THF    H12 9512   0.316   3.985   1.910  1.5097  0.3245 -2.1987
  551THF    H13 9513   0.448   4.092   1.951 -0.2929 -0.2354 -0.0211
  552THF     O1 9514   4.783   2.383   0.404 -0.1565  0.3355 -0.4751
  552THF     C2 9515   4.914   2.430   0.416  0.0543 -0.7354  0.0854
  552THF     C3 9516   4.688   2.454   0.491  0.1282 -0.5898  0.0052
  552THF     H4 9517   4.976   2.419   0.327 -1.7237  1.0731 -1.4997
  552THF     H5 9518   4.961   2.388   0.505 -0.3256 -0.1682  0.5596
  552THF     H6 9519   4.598   2.480   0.435  1.7273 -0.5533 -2.6736
  552THF     H7 9520   4.661   2.398   0.581 -0.5993  0.4464  0.4592
  552THF     C8 9521   4.772   2.576   0.532  0.5176 -0.2526 -0.2375
  552THF     C9 9522   4.890   2.579   0.439  0.4891  0.1426 -0.3622
  552THF    H10 9523   4.802   2.564   0.636 -1.4773 -1.8043  0.2165
  552THF    H11 9524   4.719   2.670   0.520  2.0678  0.5983 -0.6881
  552THF    H12 9525   4.860   2.626   0.345  0.5124 -2.0279 -1.5236
  552THF    H13 9526   4.971   2.635   0.486  0.0626  0.4680 -0.0205
  553THF     O1 9527   2.202   4.624   5.141 -0.2610  0.2277  0.4875
  553THF     C2 9528   2.285   4.702   5.234 -0.0328  0.7523  0.3213
  553THF     C3 9529   2.177   4.709   5.026 -0.2030  0.3454  0.4281
  553THF     H4 9530   2.379   4.650   5.253 -1.2239 -1.3761  0.7466
  553THF     H5 9531   2.231   4.697   5.329  1.4796 -0.5128  1.1775
  553THF     H6 9532   2.243   4.688   4.942 -2.5671 -0.0925 -1.4198
  553THF     H7 9533   2.073   4.685   5.007  0.1456 -0.0714 -1.0679
  553THF     C8 9534   2.190   4.849   5.079  0.4825  0.6771 -0.4991
  553THF     C9 9535   2.307   4.845   5.173 -0.4926  1.2672 -0.2311
  553THF    H10 9536   2.102   4.858   5.142  0.6373  0.6640 -0.2792
  553THF    H11 9537   2.185   4.933   5.010  0.7178  0.7234 -0.4613
  553THF    H12 9538   2.398   4.859   5.115 -0.6196  0.4904 -0.6383
  553THF    H13 9539   2.304   4.926   5.246  0.2874 -0.0567  1.3378
  554THF     O1 9540   1.262   0.530   4.082  0.4242 -0.2369  0.2435
  554THF     C2 9541   1.129   0.498   4.025  0.0231  0.3907  1.0943
  554THF     C3 9542   1.262   0.472   4.212  0.0267 -0.4255  0.0291
  554THF     H4 9543   1.123   0.518   3.918 -0.3335 -0.5895  0.9194
  554THF     H5 9544   1.065   0.573   4.070 -0.6923  0.4995 -0.0437
  554THF     H6 9545   1.359   0.452   4.256  0.1116 -0.7404 -0.3003
  554THF     H7 9546   1.219   0.546   4.279  1.8957  1.2995 -0.5921
  554THF     C8 9547   1.174   0.354   4.195 -0.1873 -0.2097  0.1073
  554THF     C9 9548   1.099   0.354   4.070 -0.5707  0.5228 -0.0876
  554THF    H10 9549   1.106   0.352   4.280 -1.0666 -0.6222 -0.5860
  554THF    H11 9550   1.228   0.259   4.197  0.0222 -0.0816  0.6213
  554THF    H12 9551   1.140   0.278   4.004  1.0339  0.0637  1.3882
  554THF    H13 9552   0.993   0.330   4.080 -0.2268 -1.8673 -1.3121
  555THF     O1 9553   4.029   1.063   1.001 -0.3396 -0.2983 -0.4104
  555THF     C2 9554   3.997   1.209   1.010  0.2223  0.2233 -0.0698
  555THF     C3 9555   4.172   1.042   1.011  0.3536  0.0563  0.0034
  555THF     H4 9556   3.904   1.222   1.064 -1.1748 -0.4793 -2.1540
  555THF     H5 9557   3.971   1.241   0.909 -2.8449 -1.3556  0.1206
  555THF     H6 9558   4.211   0.994   1.101 -0.6147  0.3558  0.5998
  555THF     H7 9559   4.204   0.977   0.930 -2.0584 -1.0254 -0.1772
  555THF     C8 9560   4.234   1.183   1.014 -0.0247  0.0415 -0.3821
  555THF     C9 9561   4.122   1.267   1.073  0.4079 -0.0358 -0.0680
  555THF    H10 9562   4.253   1.215   0.912 -0.3869  0.5543 -0.2908
  555THF    H11 9563   4.326   1.195   1.071  0.7313  0.0074 -1.5615
  555THF    H12 9564   4.127   1.263   1.182  1.6750 -2.4396 -0.1412
  555THF    H13 9565   4.126   1.374   1.052  0.8417 -0.4792 -2.4898
  556THF     O1 9566   1.632   5.207   0.941 -0.0823  0.4938 -0.7244
  556THF     C2 9567   1.635   5.199   1.089  0.2150  0.6319  0.6516
  556THF     C3 9568   1.762   5.181   0.894  0.1442 -0.0136  0.1046
  556THF     H4 9569   1.548   5.148   1.131 -0.4046  1.1950  0.0687
  556THF     H5 9570   1.625   5.299   1.132  3.0158 -0.0337  3.1830
  556THF     H6 9571   1.766   5.081   0.851 -1.4368  0.3917 -1.0635
  556THF     H7 9572   1.789   5.245   0.809  0.1639 -0.9461 -0.6044
  556THF     C8 9573   1.862   5.190   1.014  0.5570 -0.7041  0.3273
  556THF     C9 9574   1.768   5.133   1.126  0.0613 -0.1558  0.3952
  556THF    H10 9575   1.893   5.293   1.030 -0.4291 -0.4663  0.7647
  556THF    H11 9576   1.956   5.136   0.997  1.2418  0.5158  0.0834
  556THF    H12 9577   1.758   5.025   1.118  1.1260 -0.2063 -0.3816
  556THF    H13 9578   1.805   5.152   1.227  1.9124  2.3828 -0.6482
  557THF     O1 9579   1.914   2.538   1.050  0.3337 -0.8296 -0.4975
  557THF     C2 9580   1.821   2.599   1.137 -0.8561  1.0243 -0.0890
  557THF     C3 9581   1.857   2.421   0.992 -0.0904 -0.0436  0.6470
  557THF     H4 9582   1.812   2.707   1.125  0.6488  1.2092  0.2483
  557THF     H5 9583   1.872   2.593   1.233 -1.8464 -0.2721  0.3929
  557THF     H6 9584   1.829   2.447   0.890  0.7443 -0.0340  0.4156
  557THF     H7 9585   1.928   2.339   0.988  0.7844  0.4622  3.6593
  557THF     C8 9586   1.735   2.380   1.072 -0.1350 -0.3741  0.2459
  557THF     C9 9587   1.689   2.521   1.123 -0.7884 -0.3346  0.1008
  557THF    H10 9588   1.765   2.322   1.160 -0.5853  2.0205  2.0891
  557THF    H11 9589   1.671   2.320   1.009  0.9360 -1.1866 -0.1047
  557THF    H12 9590   1.637   2.578   1.047  1.6266  1.5373 -0.2543
  557THF    H13 9591   1.619   2.506   1.206  1.8518 -0.2761  2.5083
  558THF     O1 9592   4.781   2.799   4.553  0.0041 -0.6799  0.8669
  558THF     C2 9593   4.895   2.748   4.493 -0.8980  0.2803  0.0835
  558THF     C3 9594   4.816   2.922   4.615 -0.2949 -0.5838  0.1073
  558THF     H4 9595   4.909   2.800   4.398  1.3811 -1.9049 -0.8796
  558THF     H5 9596   4.887   2.645   4.459  3.2726 -0.8102  1.7414
  558THF     H6 9597   4.845   2.997   4.542  0.2257 -1.2957 -0.4303
  558THF     H7 9598   4.733   2.963   4.673 -2.1994 -0.3907 -2.6130
  558THF     C8 9599   4.939   2.884   4.686  0.1553  0.3972 -0.5989
  558THF     C9 9600   5.003   2.787   4.589  0.1226  0.0106 -0.5665
  558THF    H10 9601   4.917   2.838   4.782  2.1246  3.6498  1.6321
  558THF    H11 9602   5.001   2.971   4.712 -1.9853  2.7812 -2.8752
  558THF    H12 9603   5.075   2.838   4.526  0.2111  0.0928 -0.3988
  558THF    H13 9604   5.037   2.692   4.631  0.1142  0.2719  0.0435
  559THF     O1 9605   2.278   0.848   4.520 -0.4877 -0.6031  0.1501
  559THF     C2 9606   2.300   0.812   4.652  0.1456 -0.5606 -0.0546
  559THF     C3 9607   2.362   0.760   4.443  0.9574  0.0186  0.5230
  559THF     H4 9608   2.224   0.747   4.696 -0.6329 -0.3358 -1.0467
  559THF     H5 9609   2.301   0.904   4.711 -2.1696  0.0178 -0.8114
  559THF     H6 9610   2.330   0.656   4.436  0.1666  0.2707  0.3051
  559THF     H7 9611   2.369   0.804   4.343  0.2714 -0.3905  0.2917
  559THF     C8 9612   2.488   0.759   4.520  0.5818  0.0118  0.6792
  559THF     C9 9613   2.438   0.747   4.662 -0.2842 -0.7828 -0.4467
  559THF    H10 9614   2.541   0.853   4.505 -1.0102  1.0167  1.0402
  559THF    H11 9615   2.557   0.681   4.488  0.4329 -0.4913  1.5592
  559THF    H12 9616   2.421   0.640   4.679 -1.4577 -0.2956  1.7820
  559THF    H13 9617   2.508   0.796   4.729 -1.6531  1.7132 -0.7134
  560THF     O1 9618   3.966   1.399   4.480 -0.0814 -0.1231 -0.1293
  560THF     C2 9619   3.909   1.410   4.608 -0.4340 -0.3356  0.2348
  560THF     C3 9620   3.906   1.495   4.396  0.2357  0.4720 -0.3680
  560THF     H4 9621   3.965   1.485   4.664  0.2118 -0.1733 -0.6078
  560THF     H5 9622   3.917   1.315   4.661  2.0780  0.6460  1.8096
  560THF     H6 9623   3.973   1.565   4.347  0.0908  1.4645  0.8047
  560THF     H7 9624   3.861   1.432   4.319 -0.6110 -0.1695  0.6117
  560THF     C8 9625   3.808   1.580   4.476 -0.5545  0.3547  0.9611
  560THF     C9 9626   3.779   1.477   4.585 -0.0127 -0.2491  0.6291
  560THF    H10 9627   3.719   1.605   4.419 -0.8138  0.4579  1.4037
  560THF    H11 9628   3.865   1.664   4.516  1.5280 -0.5933  0.1252
  560THF    H12 9629   3.746   1.544   4.663 -1.6484 -0.0522 -0.1922
  560THF    H13 9630   3.700   1.406   4.561  0.4826 -0.0070 -2.0444
  561THF     O1 9631   0.657   2.956   1.649  0.3983  0.2827 -0.0855
  561THF     C2 9632   0.692   3.092   1.610 -0.0591 -0.8744  0.9302
  561THF     C3 9633   0.560   2.975   1.746  0.7334 -0.1223  0.2838
  561THF     H4 9634   0.609   3.140   1.558 -0.8555 -0.5743  2.4187
  561THF     H5 9635   0.781   3.096   1.547 -1.5583  0.2876 -1.2508
  561THF     H6 9636   0.464   2.994   1.698 -0.0057  0.1726  1.8026
  561THF     H7 9637   0.553   2.882   1.803 -1.3765 -0.6631 -0.7692
  561THF     C8 9638   0.598   3.101   1.830  0.8660  0.7023 -0.0077
  561THF     C9 9639   0.712   3.165   1.749 -0.2579  0.8302 -0.4939
  561THF    H10 9640   0.643   3.071   1.925  0.8319 -0.4703 -0.3477
  561THF    H11 9641   0.509   3.164   1.840  0.0798 -0.5260  1.0734
  561THF    H12 9642   0.699   3.272   1.738  1.7241  1.5836  3.0595
  561THF    H13 9643   0.808   3.138   1.793 -1.0403  0.4891  1.0609
  562THF     O1 9644   3.758   0.234   4.505 -0.0087 -0.1480  0.2836
  562THF     C2 9645   3.868   0.271   4.599 -1.0144  0.6014 -0.1853
  562THF     C3 9646   3.801   0.148   4.405 -0.3592 -0.2647 -0.0365
  562THF     H4 9647   3.843   0.262   4.704 -1.1688  0.3820 -0.2395
  562THF     H5 9648   3.878   0.378   4.584 -0.4004  0.6547  0.5537
  562THF     H6 9649   3.719   0.078   4.391  0.5912 -1.5142  0.4934
  562THF     H7 9650   3.823   0.202   4.313  0.0908 -1.2358 -0.5128
  562THF     C8 9651   3.917   0.068   4.464  0.6625  0.0830  0.0404
  562THF     C9 9652   3.979   0.181   4.550 -0.4389  0.7338  0.6399
  562THF    H10 9653   3.992   0.025   4.398 -0.0305  0.0285 -0.7252
  562THF    H11 9654   3.889  -0.015   4.529  0.0664  0.2834  0.0442
  562THF    H12 9655   4.039   0.140   4.631 -0.8416 -0.5799  0.2922
  562THF    H13 9656   4.046   0.231   4.479  1.8498  0.5673  2.5521
  563THF     O1 9657   0.173   5.479   0.144 -0.0801  0.1892 -0.5088
  563THF     C2 9658   0.137   5.514   0.274 -0.2950  0.4036 -0.3240
  563THF     C3 9659   0.194   5.606   0.085 -0.3034  0.2186  0.2845
  563THF     H4 9660   0.227   5.522   0.334  1.2280  1.7152 -2.6301
  563THF     H5 9661   0.085   5.427   0.315  1.1470  0.6450  2.1934
  563THF     H6 9662   0.292   5.642   0.115 -1.0706  2.2356  0.5506
  563THF     H7 9663   0.187   5.599  -0.024  1.4420 -0.4268  0.1790
  563THF     C8 9664   0.088   5.705   0.142 -0.2214  0.1203  0.6063
  563THF     C9 9665   0.057   5.644   0.276  0.3318 -0.0932 -0.2140
  563THF    H10 9666   0.004   5.700   0.074  1.3136 -3.5547 -1.2984
  563THF    H11 9667   0.128   5.806   0.149 -0.2706  0.3173 -1.5459
  563THF    H12 9668   0.095   5.715   0.350  0.3725  0.6169 -0.9005
  563THF    H13 9669  -0.049   5.627   0.289  0.4809 -2.4449 -1.5181
  564THF     O1 9670   4.529   0.861   1.346  0.3149  0.2020  0.2407
  564THF     C2 9671   4.526   0.895   1.483  0.1759  0.0068  0.4250
  564THF     C3 9672   4.654   0.895   1.295  0.1343  0.5979  0.8014
  564THF     H4 9673   4.548   0.800   1.531  0.5840 -0.5729 -0.8920
  564THF     H5 9674   4.427   0.939   1.499  0.1155  0.9822 -2.1585
  564THF     H6 9675   4.733   0.823   1.315 -0.3095 -0.4208 -0.8552
  564THF     H7 9676   4.639   0.889   1.187 -1.5357 -1.0216  1.0786
  564THF     C8 9677   4.675   1.030   1.366  0.0432  0.2618  0.7999
  564THF     C9 9678   4.629   0.999   1.506 -0.7650  0.0330  0.1608
  564THF    H10 9679   4.603   1.098   1.320  1.2474  1.3172  0.3933
  564THF    H11 9680   4.773   1.079   1.359  0.8903 -1.4968 -0.2486
  564THF    H12 9681   4.707   0.956   1.568 -0.6822 -0.4956 -0.3004
  564THF    H13 9682   4.578   1.087   1.545 -2.1983 -0.0188 -1.4551
  565THF     O1 9683   2.745   1.673   4.233 -0.0000 -0.4750  0.8179
  565THF     C2 9684   2.792   1.806   4.210 -0.5767  0.1499  0.5290
  565THF     C3 9685   2.803   1.634   4.357 -0.2304 -0.5584 -0.7141
  565THF     H4 9686   2.706   1.873   4.199 -0.2734  0.1291 -3.4911
  565THF     H5 9687   2.837   1.819   4.111 -1.3453 -2.8251 -0.3081
  565THF     H6 9688   2.735   1.559   4.398 -1.1879 -0.1127 -1.4559
  565THF     H7 9689   2.889   1.569   4.336 -0.3840 -1.1834  0.4856
  565THF     C8 9690   2.836   1.755   4.442 -0.4622 -0.3164 -0.2177
  565THF     C9 9691   2.881   1.851   4.327 -0.7992 -0.0799 -0.0459
  565THF    H10 9692   2.903   1.737   4.526  0.1833  1.1188 -0.4068
  565THF    H11 9693   2.745   1.790   4.490  0.8109  2.1109  0.5660
  565THF    H12 9694   2.887   1.957   4.352 -1.8482 -0.2488  0.9747
  565THF    H13 9695   2.979   1.826   4.284  0.0896  0.0847  1.8109
  566THF     O1 9696   3.720   0.366   3.482 -0.0675  0.5546  0.0425
  566THF     C2 9697   3.832   0.445   3.445  0.6728 -0.0111  0.3528
  566THF     C3 9698   3.759   0.286   3.594 -0.8037  0.7873 -0.6726
  566THF     H4 9699   3.801   0.550   3.454 -3.6837 -1.2210  1.8587
  566THF     H5 9700   3.850   0.430   3.339 -0.7619  0.4480  0.0159
  566THF     H6 9701   3.722   0.337   3.683 -1.2235 -2.1177  0.9226
  566THF     H7 9702   3.723   0.185   3.577  0.6986 -0.4246  2.6249
  566THF     C8 9703   3.905   0.284   3.596 -0.2647 -0.3499  0.2500
  566THF     C9 9704   3.942   0.418   3.543 -0.4165 -0.0042  0.1163
  566THF    H10 9705   3.941   0.200   3.537 -1.1404 -0.1849 -0.5465
  566THF    H11 9706   3.941   0.268   3.698  0.2889  0.6491  0.2160
  566THF    H12 9707   3.942   0.489   3.625 -0.7922  0.0774  0.0477
  566THF    H13 9708   4.039   0.417   3.492  0.2902 -0.7177  1.4185
  567THF     O1 9709   3.142   3.128   0.140 -0.5820 -0.3848  0.1382
  567THF     C2 9710   3.061   3.125   0.251  0.8917  0.1920 -0.2051
  567THF     C3 9711   3.103   3.237   0.064 -0.1353  0.3975  0.0066
  567THF     H4 9712   3.107   3.063   0.328 -0.7503 -0.6972  0.0860
  567THF     H5 9713   2.972   3.066   0.230 -0.0620  0.9371  1.5785
  567THF     H6 9714   3.174   3.290  -0.001  0.0234 -1.0788 -1.0794
  567THF     H7 9715   3.019   3.199   0.005 -0.8376  0.7252  0.7793
  567THF     C8 9716   3.051   3.337   0.158 -0.5121  0.0302 -0.4202
  567THF     C9 9717   3.028   3.267   0.287 -0.4045  0.1506  0.5839
  567THF    H10 9718   2.957   3.369   0.114  0.9569  1.9764 -2.3735
  567THF    H11 9719   3.119   3.422   0.168  0.4522 -0.8172  0.5431
  567THF    H12 9720   3.113   3.299   0.348  0.1454 -0.5332  0.1908
  567THF    H13 9721   2.938   3.293   0.343 -0.6403  1.2417 -0.2525
  568THF     O1 9722   2.417   1.763   4.773 -0.3445  0.1564 -0.0201
  568THF     C2 9723   2.543   1.744   4.836 -0.3876 -0.2673  0.0692
  568THF     C3 9724   2.421   1.723   4.637  0.3030 -1.0154  0.2065
  568THF     H4 9725   2.530   1.758   4.943 -0.5181  0.5054 -0.0422
  568THF     H5 9726   2.611   1.816   4.789 -1.7766  1.3636  0.4439
  568THF     H6 9727   2.318   1.712   4.603  0.6993 -2.0437 -0.7160
  568THF     H7 9728   2.470   1.801   4.579 -0.7190  0.0943  0.7965
  568THF     C8 9729   2.496   1.593   4.656 -0.5527  0.0026  0.2804
  568THF     C9 9730   2.570   1.603   4.785 -0.1905 -0.4795 -0.0211
  568THF    H10 9731   2.550   1.566   4.565 -1.7920 -1.4288 -0.0734
  568THF    H11 9732   2.410   1.526   4.655 -1.3683  1.0357 -0.0425
  568THF    H12 9733   2.528   1.532   4.856  1.2737  0.3378  1.7571
  568THF    H13 9734   2.675   1.595   4.757 -0.4118 -3.2131 -0.2888
  569THF     O1 9735   4.788   0.789   3.100  0.0694  0.3690 -0.2690
  569THF     C2 9736   4.719   0.710   3.194  0.0306 -1.0340  0.1784
  569THF     C3 9737   4.692   0.794   2.989  0.8931  0.4355  0.2681
  569THF     H4 9738   4.660   0.767   3.267  1.0074 -0.5927  0.6377
  569THF     H5 9739   4.784   0.637   3.241  1.0828 -1.4142 -1.7679
  569THF     H6 9740   4.607   0.861   2.995  1.1306  0.7936 -0.2626
  569THF     H7 9741   4.743   0.811   2.894 -0.5798 -0.2309 -0.6755
  569THF     C8 9742   4.638   0.654   2.977 -0.0318  0.5480 -0.1041
  569THF     C9 9743   4.621   0.614   3.120 -0.8052 -0.6304  0.0448
  569THF    H10 9744   4.712   0.588   2.932 -0.9069  0.8582 -2.1437
  569THF    H11 9745   4.551   0.654   2.911 -0.8479  4.1887  0.7671
  569THF    H12 9746   4.521   0.646   3.150 -0.8759  0.9365 -1.6863
  569THF    H13 9747   4.633   0.507   3.132 -1.9209 -0.7764 -0.0006
  570THF     O1 9748   3.181   4.715   1.721 -0.4542 -0.6970  0.2346
  570THF     C2 9749   3.042   4.737   1.758  0.1458  0.4888 -0.4664
  570THF     C3 9750   3.241   4.653   1.829  0.8017 -0.3371  1.1023
  570THF     H4 9751   2.970   4.765   1.681 -1.0497  1.1133  0.8511
  570THF     H5 9752   3.039   4.822   1.826  1.6977  2.5370 -2.7904
  570THF     H6 9753   3.328   4.593   1.802  1.4259  1.4545 -1.2696
  570THF     H7 9754   3.274   4.730   1.898  0.4565 -0.3772  1.3154
  570THF     C8 9755   3.127   4.579   1.905  0.3972 -0.4029  0.7034
  570THF     C9 9756   2.994   4.608   1.825 -0.7447  0.1508  0.0873
  570THF    H10 9757   3.111   4.612   2.008  1.5854  1.5796  0.3053
  570THF    H11 9758   3.143   4.472   1.899  0.8194 -0.2923 -0.4490
  570THF    H12 9759   2.976   4.526   1.756 -1.0554 -1.0174  1.4978
  570THF    H13 9760   2.916   4.604   1.902 -0.3836 -2.4736  0.4059
  571THF     O1 9761   0.961   3.231   2.536  0.1559  0.0228  0.0934
  571THF     C2 9762   0.841   3.302   2.549 -0.6592 -0.7982  0.0106
  571THF     C3 9763   0.945   3.089   2.558 -0.1766  0.2593  1.0431
  571THF     H4 9764   0.824   3.347   2.451 -0.2514 -1.8938 -0.5851
  571THF     H5 9765   0.857   3.374   2.629  1.3529  0.7245 -1.6451
  571THF     H6 9766   0.946   3.034   2.464 -0.6848  0.0474  1.1585
  571THF     H7 9767   1.029   3.057   2.619  1.2496 -1.8081 -1.8161
  571THF     C8 9768   0.808   3.081   2.627  0.7557 -0.1554 -0.2429
  571THF     C9 9769   0.731   3.197   2.576 -0.3580  0.5496  0.6828
  571THF    H10 9770   0.800   3.078   2.735  1.7024 -0.4230 -0.1685
  571THF    H11 9771   0.747   2.996   2.596  1.5385 -1.1701  0.9441
  571THF    H12 9772   0.691   3.173   2.478 -0.0327 -2.7498  1.2320
  571THF    H13 9773   0.653   3.223   2.647  0.7189  0.3925  1.9737
  572THF     O1 9774   2.044   2.006   4.329  0.6185 -0.1161  0.3966
  572THF     C2 9775   2.166   1.961   4.378 -0.1518  0.1006 -0.5801
  572THF     C3 9776   1.949   2.009   4.426  0.6544 -0.2644 -0.2455
  572THF     H4 9777   2.255   1.996   4.324  0.3143 -1.1875 -0.6873
  572THF     H5 9778   2.172   1.853   4.389  0.6497  0.3977  3.6493
  572THF     H6 9779   1.879   2.091   4.410  0.5824 -0.6217 -1.9562
  572THF     H7 9780   1.884   1.922   4.431  0.0359  0.1918 -0.2272
  572THF     C8 9781   2.021   2.018   4.562 -0.4899 -0.0860 -0.2557
  572THF     C9 9782   2.171   2.013   4.524 -0.0292  0.5189 -0.2218
  572THF    H10 9783   2.007   1.931   4.625 -0.1107  0.5430  0.7275
  572THF    H11 9784   2.002   2.110   4.618  2.0202  0.2328  0.1994
  572THF    H12 9785   2.203   2.117   4.514 -3.2510  1.8736  1.7756
  572THF    H13 9786   2.226   1.963   4.604  0.2710  1.8508  0.4283
  573THF     O1 9787   1.966   2.581   4.969 -0.1621 -0.4881 -0.7321
  573THF     C2 9788   2.107   2.584   5.000 -0.4607  0.0086 -0.0968
  573THF     C3 9789   1.920   2.715   4.971 -0.7631  0.3460  0.4024
  573THF     H4 9790   2.169   2.595   4.911 -1.7600 -0.9082 -1.1509
  573THF     H5 9791   2.133   2.489   5.048 -2.8379 -0.1210  1.0546
  573THF     H6 9792   1.955   2.776   4.888  0.8555 -1.5099 -0.3557
  573THF     H7 9793   1.811   2.711   4.981 -0.7650 -0.3203  0.1530
  573THF     C8 9794   1.991   2.777   5.087  0.7210 -0.1015 -0.6996
  573THF     C9 9795   2.127   2.709   5.095  0.3047 -0.2309  0.7985
  573THF    H10 9796   1.925   2.771   5.174 -0.3899  2.0275 -1.3216
  573THF    H11 9797   1.995   2.885   5.074  2.9989 -0.1584 -0.7322
  573THF    H12 9798   2.194   2.787   5.057  0.2009 -1.1020 -1.2890
  573THF    H13 9799   2.155   2.694   5.200  1.8714 -0.2735  0.4109
  574THF     O1 9800   1.524   1.361   4.292 -0.0648  0.0831 -0.0993
  574THF     C2 9801   1.553   1.225   4.263 -0.8042  0.8929  0.1167
  574THF     C3 9802   1.467   1.371   4.424  0.3698  0.3395  0.4568
  574THF     H4 9803   1.656   1.214   4.232 -1.4063  0.1252 -1.7259
  574THF     H5 9804   1.490   1.200   4.178 -0.5718  1.2907 -0.1725
  574THF     H6 9805   1.511   1.462   4.464  2.3448 -1.0763  1.7009
  574THF     H7 9806   1.360   1.388   4.437  0.4395  1.6277 -0.4482
  574THF     C8 9807   1.522   1.255   4.504  0.1043 -0.0327  0.1489
  574THF     C9 9808   1.525   1.150   4.394 -0.5610  0.4462 -0.5033
  574THF    H10 9809   1.448   1.222   4.577 -0.7158 -1.0793 -1.1018
  574THF    H11 9810   1.619   1.259   4.552 -0.0850  0.7077  0.4896
  574THF    H12 9811   1.596   1.068   4.404  1.5486  2.0521 -1.4465
  574THF    H13 9812   1.424   1.110   4.398 -0.2504 -0.2834  0.7503
  575THF     O1 9813   2.702   4.047   2.578  0.5676 -0.0260 -0.5415
  575THF     C2 9814   2.628   4.163   2.578  0.7470  0.0167  0.3394
  575THF     C3 9815   2.704   3.989   2.446 -0.4415 -0.3013 -0.4295
  575THF     H4 9816   2.685   4.250   2.608  0.6266  0.0810  0.3842
  575THF     H5 9817   2.547   4.164   2.651  0.6812  0.6358  0.2572
  575THF     H6 9818   2.802   3.944   2.427  1.5468  2.5031  2.1628
  575THF     H7 9819   2.626   3.913   2.440 -2.6492  1.8597 -0.7398
  575THF     C8 9820   2.668   4.105   2.359  0.0817 -0.4825 -0.4216
  575THF     C9 9821   2.580   4.192   2.441 -0.0618  0.0333 -0.0546
  575THF    H10 9822   2.610   4.075   2.272  0.7069 -0.3103 -0.9088
  575THF    H11 9823   2.753   4.168   2.331 -2.0928  3.2026  0.6755
  575THF    H12 9824   2.605   4.290   2.400  2.8988 -0.6634 -0.1935
  575THF    H13 9825   2.473   4.180   2.428  0.0370 -0.0695 -0.8892
  576THF     O1 9826   0.896   3.866   1.830 -0.2642 -0.3838  0.8969
  576THF     C2 9827   0.849   3.988   1.783 -0.1041 -0.1781 -0.1664
  576THF     C3 9828   0.863   3.857   1.968 -0.1713 -0.5726  0.1645
  576THF     H4 9829   0.853   3.998   1.675 -0.6018  0.6561 -0.1114
  576THF     H5 9830   0.910   4.069   1.822 -0.7538 -0.1508  0.8179
  576THF     H6 9831   0.870   3.756   2.008 -0.3756 -0.5928  0.1538
  576THF     H7 9832   0.917   3.928   2.030 -0.1772  1.1261 -1.6638
  576THF     C8 9833   0.718   3.903   1.972 -0.3160  0.1967  0.7973
  576THF     C9 9834   0.703   3.981   1.836  0.0478 -0.4995  0.0534
  576THF    H10 9835   0.694   3.975   2.050 -0.2917  0.7971  0.2650
  576THF    H11 9836   0.656   3.814   1.983 -1.1317  0.6256 -0.1289
  576THF    H12 9837   0.630   3.930   1.773 -2.5355  2.7368  0.1717
  576THF    H13 9838   0.643   4.071   1.848 -2.9653 -2.3571  0.1024
  577THF     O1 9839   2.337   5.023   1.242  0.2366  0.0988 -0.4472
  577THF     C2 9840   2.421   4.928   1.180  0.1690  0.0338 -0.0731
  577THF     C3 9841   2.294   5.115   1.144 -0.0545  0.6564 -0.3189
  577THF     H4 9842   2.433   4.844   1.249  3.2765  0.7902  0.4641
  577THF     H5 9843   2.517   4.978   1.166  0.1929 -0.3885 -1.5294
  577THF     H6 9844   2.209   5.179   1.167 -1.6232 -1.2966 -0.3513
  577THF     H7 9845   2.377   5.184   1.130  1.0693 -0.8470 -1.4406
  577THF     C8 9846   2.273   5.030   1.024  0.1965 -0.3268 -0.5526
  577THF     C9 9847   2.334   4.898   1.057  0.2771  0.3229 -0.1928
  577THF    H10 9848   2.330   5.070   0.940 -0.1394  1.6968  0.1267
  577THF    H11 9849   2.168   5.027   0.994  0.2234  1.9475 -1.0245
  577THF    H12 9850   2.258   4.824   1.079 -0.1297  0.6569 -0.4643
  577THF    H13 9851   2.396   4.866   0.972  0.5688  0.5717 -0.0766
  578THF     O1 9852   1.617   1.954   1.338  0.3033  0.2835 -0.5364
  578THF     C2 9853   1.517   1.975   1.236  0.2973  0.3445 -0.4352
  578THF     C3 9854   1.557   1.992   1.463  0.3449  0.4645  0.5282
  578THF     H4 9855   1.438   1.901   1.244 -0.7652  1.3487 -1.2270
  578THF     H5 9856   1.560   1.957   1.138 -1.6252 -0.1973 -1.2293
  578THF     H6 9857   1.504   1.908   1.508 -2.3943  1.0791 -1.3170
  578THF     H7 9858   1.635   2.028   1.531  1.6175 -1.9723  0.4588
  578THF     C8 9859   1.460   2.105   1.430  0.6595 -0.7345 -0.1714
  578THF     C9 9860   1.460   2.112   1.279  0.5216 -0.0388  0.5938
  578THF    H10 9861   1.492   2.202   1.468 -1.2278 -0.2701  0.3877
  578THF    H11 9862   1.360   2.091   1.473  0.7203  0.3562  0.3627
  578THF    H12 9863   1.367   2.142   1.231  1.4835 -1.1418 -2.1424
  578THF    H13 9864   1.535   2.188   1.256  1.0562 -0.8077 -0.2565
  579THF     O1 9865   3.514   4.934   1.214 -0.2218 -0.0466  0.0227
  579THF     C2 9866   3.395   4.978   1.278  0.1053  0.5721  0.2383
  579THF     C3 9867   3.604   4.861   1.302  0.3124 -0.1859 -0.5933
  579THF     H4 9868   3.308   4.937   1.227 -1.0442  2.2967  0.7303
  579THF     H5 9869   3.385   5.086   1.264  0.4521  0.4183 -1.4329
  579THF     H6 9870   3.657   4.778   1.257  0.0533 -0.0933 -1.0855
  579THF     H7 9871   3.679   4.931   1.339  2.4525 -1.5021 -2.2245
  579THF     C8 9872   3.511   4.813   1.411  0.4775 -0.2932  0.8297
  579THF     C9 9873   3.402   4.921   1.424 -0.3639 -0.2289  0.5205
  579THF    H10 9874   3.548   4.808   1.513 -0.4049 -0.0096  1.1676
  579THF    H11 9875   3.458   4.721   1.384  1.5266 -0.2123 -1.8886
  579THF    H12 9876   3.317   4.862   1.458 -0.5693  0.4593  1.2075
  579THF    H13 9877   3.411   5.002   1.496 -0.4231 -0.1186  0.4040
  580THF     O1 9878   2.769   2.597   0.036  0.3558  1.0171  0.4458
  580THF     C2 9879   2.717   2.672  -0.066 -0.1294 -0.2062  0.6590
  580THF     C3 9880   2.841   2.684   0.124  0.5306  1.3165 -0.1501
  580THF     H4 9881   2.620   2.707  -0.030  0.4551 -0.0087  2.1151
  580THF     H5 9882   2.685   2.619  -0.155  2.1712 -0.8020  0.1427
  580THF     H6 9883   2.792   2.689   0.221 -0.9260  2.5523 -0.9184
  580THF     H7 9884   2.944   2.646   0.126  0.2338  0.4831 -0.0739
  580THF     C8 9885   2.834   2.824   0.063  0.5807 -0.3133  0.7549
  580THF     C9 9886   2.804   2.795  -0.080  0.2552 -0.2137  0.1018
  580THF    H10 9887   2.927   2.881   0.063  0.2064  0.6102 -3.2344
  580THF    H11 9888   2.746   2.878   0.098  0.4648 -0.4501  0.6749
  580THF    H12 9889   2.748   2.872  -0.134  0.7550  0.8511  1.0592
  580THF    H13 9890   2.900   2.767  -0.125  0.0280  1.2243 -1.3870
  581THF     O1 9891   2.278   2.269   4.925  0.3836 -0.3012  0.1472
  581THF     C2 9892   2.345   2.231   5.043 -0.1118 -0.3412 -0.1371
  581THF     C3 9893   2.180   2.172   4.893 -0.2799 -0.3835  0.4621
  581THF     H4 9894   2.298   2.255   5.138  1.3014  0.2379  0.4425
  581THF     H5 9895   2.445   2.274   5.050 -0.6349  1.3567 -2.0380
  581THF     H6 9896   2.088   2.214   4.934 -0.0900  1.8880 -1.2569
  581THF     H7 9897   2.176   2.162   4.785 -0.1775  1.8870  0.1836
  581THF     C8 9898   2.224   2.042   4.954 -0.3417  0.3061  0.3227
  581THF     C9 9899   2.351   2.073   5.026 -1.0244 -0.0677 -0.1498
  581THF    H10 9900   2.253   1.968   4.880  1.5567 -0.8660  2.1209
  581THF    H11 9901   2.147   1.999   5.018 -0.4184 -1.7714 -1.0733
  581THF    H12 9902   2.372   2.013   5.114  0.6812  0.1795 -0.3528
  581THF    H13 9903   2.437   2.052   4.963  1.1984  2.4932  1.8239
  582THF     O1 9904   3.093   4.206   5.298 -0.0663  0.5324  0.5140
  582THF     C2 9905   3.207   4.123   5.265 -0.5307 -0.5256 -0.2563
  582THF     C3 9906   2.980   4.172   5.219 -0.0610  1.1736 -0.1331
  582THF     H4 9907   3.275   4.103   5.348  1.8186  1.7569 -1.4773
  582THF     H5 9908   3.270   4.159   5.183  1.7417 -4.2767 -0.4114
  582THF     H6 9909   2.892   4.151   5.278  0.0840 -0.9529 -0.5867
  582THF     H7 9910   2.941   4.244   5.147 -2.3788 -0.3180 -0.4669
  582THF     C8 9911   3.010   4.046   5.151 -0.2364  0.6536  0.0533
  582THF     C9 9912   3.138   3.996   5.217 -0.0536 -0.0526 -0.0052
  582THF    H10 9913   3.008   4.057   5.043  0.6018 -2.1812 -0.3515
  582THF    H11 9914   2.934   3.969   5.165 -0.6797  1.3246  1.4718
  582THF    H12 9915   3.127   3.944   5.312  1.4212  0.2687  0.3680
  582THF    H13 9916   3.202   3.938   5.150 -2.6003 -2.0754 -0.8580
  583THF     O1 9917   5.225   3.513   5.349  0.0380 -0.0744 -0.2255
  583THF     C2 9918   5.158   3.635   5.359 -0.0104  0.0175 -0.5496
  583THF     C3 9919   5.168   3.460   5.236 -0.3487 -0.4184  0.6672
  583THF     H4 9920   5.213   3.703   5.425  0.4294  0.8086 -1.6972
  583THF     H5 9921   5.074   3.611   5.423 -0.7759  1.6944 -0.8603
  583THF     H6 9922   5.219   3.368   5.210  1.3412 -0.2275  3.0124
  583THF     H7 9923   5.068   3.432   5.270 -0.7096 -1.6818 -1.2806
  583THF     C8 9924   5.161   3.577   5.133 -0.0252  0.2390 -0.1150
  583THF     C9 9925   5.111   3.688   5.222 -0.0925 -0.0600  0.0026
  583THF    H10 9926   5.103   3.552   5.044 -2.6722  1.4533  1.1509
  583THF    H11 9927   5.266   3.590   5.109  0.3615 -2.4191 -0.1605
  583THF    H12 9928   5.160   3.784   5.203 -0.5102  0.1337 -0.1073
  583THF    H13 9929   5.003   3.704   5.221  0.1061  1.6339 -1.6828
  584THF     O1 9930   5.443   4.433   3.573  0.0908 -0.1965  0.6442
  584THF     C2 9931   5.544   4.352   3.506  0.1753 -0.5933  0.3521
  584THF     C3 9932   5.508   4.561   3.606  0.5617  0.0177 -0.4964
  584THF     H4 9933   5.478   4.278   3.462 -1.7788  0.3042  1.6193
  584THF     H5 9934   5.616   4.303   3.571  1.0432  0.9508  0.6172
  584THF     H6 9935   5.424   4.628   3.625  0.5523  0.0382 -0.6064
  584THF     H7 9936   5.571   4.545   3.693 -1.3229 -1.1118  0.7309
  584THF     C8 9937   5.583   4.597   3.486  0.3544 -0.0023  0.0961
  584THF     C9 9938   5.602   4.465   3.414 -0.0077  0.9548 -0.3205
  584THF    H10 9939   5.676   4.652   3.499  0.0115  0.6385 -0.1297
  584THF    H11 9940   5.528   4.660   3.417  2.3748  0.4410 -1.1914
  584THF    H12 9941   5.540   4.454   3.325 -0.9550  3.0902  0.0102
  584THF    H13 9942   5.704   4.450   3.377 -0.3665 -0.5521 -0.7601
  585THF     O1 9943   0.069   1.499   2.332  0.1276  0.4772  0.1459
  585THF     C2 9944  -0.038   1.409   2.373 -0.8671 -0.7806  0.0599
  585THF     C3 9945   0.142   1.538   2.450 -0.2437 -0.5081  1.2419
  585THF     H4 9946   0.016   1.317   2.394  0.6024 -0.6204 -2.5673
  585THF     H5 9947  -0.104   1.392   2.288 -0.7304 -0.1872 -0.1692
  585THF     H6 9948   0.208   1.455   2.474  1.7891  0.8161  0.5282
  585THF     H7 9949   0.204   1.627   2.434  0.8120 -1.3126  0.7753
  585THF     C8 9950   0.037   1.564   2.557 -0.1219 -0.3468  1.3312
  585THF     C9 9951  -0.093   1.497   2.491 -0.0496  0.3006  1.0781
  585THF    H10 9952   0.020   1.671   2.566  1.9600  0.4350 -2.1709
  585THF    H11 9953   0.056   1.516   2.653 -0.9822 -0.4391  1.4642
  585THF    H12 9954  -0.155   1.442   2.561 -0.9617  1.3610  1.1417
  585THF    H13 9955  -0.159   1.576   2.453 -2.7482 -2.5639 -0.7006
  586THF     O1 9956   3.170   2.486   1.381  0.2937  0.0725 -0.1253
  586THF     C2 9957   3.152   2.402   1.495 -0.3245 -0.5091 -0.2098
  586THF     C3 9958   3.051   2.540   1.335 -0.1379 -0.3245  0.3686
  586THF     H4 9959   3.232   2.422   1.566 -0.7313  1.9487 -0.3556
  586THF     H5 9960   3.156   2.300   1.457  1.6557 -0.2686 -0.7495
  586THF     H6 9961   3.075   2.640   1.299  0.1000 -0.1609  0.9680
  586THF     H7 9962   3.002   2.481   1.257 -1.2639 -2.3072  2.4378
  586THF     C8 9963   2.963   2.544   1.460  0.4762 -0.2329 -0.7141
  586THF     C9 9964   3.014   2.430   1.549  0.3085 -0.9605  0.6714
  586THF    H10 9965   2.856   2.549   1.445  0.4387 -0.9153 -0.7197
  586THF    H11 9966   2.992   2.641   1.502  1.9851 -0.8984 -0.1385
  586THF    H12 9967   3.016   2.446   1.657  0.3262  0.2844  0.4955
  586THF    H13 9968   2.958   2.338   1.528  1.7819 -2.2701  2.1744
  587THF     O1 9969   1.487   0.443   1.594 -0.3481  0.0079  0.0501
  587THF     C2 9970   1.449   0.309   1.556 -0.5447 -0.0337 -0.1165
  587THF     C3 9971   1.369   0.517   1.554 -0.1233 -0.5560  0.1850
  587THF     H4 9972   1.374   0.275   1.627 -0.0658 -0.1897  0.3217
  587THF     H5 9973   1.529   0.236   1.559 -0.6750 -0.3440 -2.3628
  587THF     H6 9974   1.281   0.497   1.615 -2.1322  0.5694 -2.1834
  587THF     H7 9975   1.397   0.622   1.555 -1.2958 -0.2289 -0.0707
  587THF     C8 9976   1.343   0.465   1.415  0.1678  0.6302  0.6113
  587THF     C9 9977   1.395   0.319   1.411 -0.0574 -0.3054 -0.9904
  587THF    H10 9978   1.402   0.511   1.336  1.7450  0.9151  1.9246
  587THF    H11 9979   1.238   0.470   1.384  0.1862 -1.0331  0.1791
  587THF    H12 9980   1.319   0.245   1.389  0.4245 -2.3688  3.2516
  587THF    H13 9981   1.487   0.318   1.352 -0.4135 -0.1770 -1.5572
  588THF     O1 9982   4.895   0.779   1.732 -0.1987 -0.1967 -0.0829
  588THF     C2 9983   4.785   0.708   1.786  0.1729  0.0172 -0.1642
  588THF     C3 9984   4.918   0.891   1.817  0.3811 -0.0038  0.2191
  588THF     H4 9985   4.776   0.609   1.742  1.7218  0.8239 -2.5322
  588THF     H5 9986   4.688   0.755   1.769  0.7465  1.7180  1.0084
  588THF     H6 9987   5.009   0.946   1.796  0.1125 -0.0449 -1.1847
  588THF     H7 9988   4.837   0.959   1.789  0.3694 -0.6455 -1.4808
  588THF     C8 9989   4.908   0.826   1.955 -0.2545  0.4479  0.5052
  588THF     C9 9990   4.805   0.710   1.936  0.5714 -0.5464  0.7056
  588THF    H10 9991   4.878   0.894   2.035  2.3627  1.9357  0.3253
  588THF    H11 9992   5.008   0.788   1.974 -0.4862  0.6340  2.3447
  588THF    H12 9993   4.842   0.613   1.968  0.0192 -1.3104 -0.8938
  588THF    H13 9994   4.702   0.726   1.969  0.9107  1.1712  1.0351
  589THF     O1 9995   4.085   2.497   4.491 -0.3242  0.2506  0.0770
  589THF     C2 9996   3.985   2.428   4.558 -0.2038  0.0217 -0.1321
  589THF     C3 9997   4.197   2.401   4.486 -0.5097  0.6374  0.2401
  589THF     H4 9998   3.890   2.479   4.546  0.6170  1.4101 -0.9283
  589THF     H5 9999   3.995   2.432   4.667 -0.4833 -0.9029 -0.0599
  589THF     H610000   4.276   2.419   4.413 -0.3034 -0.6861  0.1067
  589THF     H710001   4.247   2.393   4.583 -0.8969  2.0321  0.5792
  589THF     C810002   4.136   2.267   4.454  0.0728  0.9351  0.3942
  589THF     C910003   3.996   2.292   4.498 -0.0148 -0.1059  0.1824
  589THF    H1010004   4.187   2.183   4.501 -0.0387  0.6363 -0.0179
  589THF    H1110005   4.139   2.245   4.347  0.6495  0.1116  0.5730
  589THF    H1210006   3.935   2.284   4.408  0.8054  0.0196 -0.3916
  589THF    H1310007   3.939   2.224   4.562 -2.1761 -0.6876 -2.2230
  590THF     O110008   3.212   5.047   3.283 -0.2338  0.6467  0.0863
  590THF     C210009   3.275   5.028   3.157 -0.6229 -0.1323  0.5483
  590THF     C310010   3.316   5.028   3.380  0.0024  0.2525 -0.2762
  590THF     H410011   3.214   5.057   3.071  0.4396  1.0281  0.1434
  590THF     H510012   3.293   4.921   3.149  0.4443  0.0777  0.0088
  590THF     H610013   3.296   5.065   3.480 -0.2500 -2.2978  0.6845
  590THF     H710014   3.328   4.919   3.382 -1.8031  0.0332  0.1437
  590THF     C810015   3.445   5.094   3.317  0.3110  0.3349 -1.0501
  590THF     C910016   3.404   5.106   3.172 -0.0863 -0.4458  0.2190
  590THF    H1010017   3.527   5.025   3.337 -0.6040 -0.5764 -0.2536
  590THF    H1110018   3.481   5.190   3.352 -0.5998  0.2755  0.1006
  590THF    H1210019   3.373   5.208   3.150 -3.7727 -1.0753  1.7382
  590THF    H1310020   3.466   5.066   3.092  0.0429  0.3293 -0.0697
  591THF     O110021   3.894   5.240   3.773  0.0976 -0.6347  0.5225
  591THF     C210022   3.942   5.152   3.675  0.3580  0.3464 -0.5956
  591THF     C310023   3.953   5.366   3.750  0.0438 -0.1798  0.7566
  591THF     H410024   3.872   5.069   3.659  0.1724  0.1995  0.8312
  591THF     H510025   4.034   5.097   3.696 -0.9874 -1.7770  0.0912
  591THF     H610026   3.878   5.437   3.787  2.5973  3.7497 -0.9311
  591THF     H710027   4.042   5.374   3.813  0.4699 -1.9660  0.4106
  591THF     C810028   3.972   5.380   3.595 -0.5902  0.9376 -0.0377
  591THF     C910029   3.946   5.237   3.550 -1.1100 -0.1190  0.1309
  591THF    H1010030   4.073   5.419   3.578 -0.1020 -0.4473 -0.4616
  591THF    H1110031   3.900   5.453   3.559 -3.1449 -1.8378 -0.9358
  591THF    H1210032   3.846   5.231   3.507 -0.3242  0.4426 -1.9135
  591THF    H1310033   4.013   5.188   3.479 -1.9672 -1.8786  0.4938
  592THF     O110034   0.906   4.234   4.004 -0.2433 -0.1046 -0.1391
  592THF     C210035   0.894   4.099   4.046  0.5522 -0.4384  0.9964
  592THF     C310036   1.045   4.267   4.017  0.0549 -0.5174 -0.4312
  592THF     H410037   0.802   4.049   4.013  1.7210 -0.8301 -2.0480
  592THF     H510038   0.891   4.094   4.154 -1.8413  1.8273  1.1456
  592THF     H610039   1.072   4.347   3.947 -0.6907  0.1881  0.0643
  592THF     H710040   1.066   4.301   4.119  1.1089 -0.9232 -0.5003
  592THF     C810041   1.124   4.145   3.994  0.1840  0.1812  0.3292
  592THF     C910042   1.022   4.039   3.980 -0.4865 -0.4561  0.0529
  592THF    H1010043   1.199   4.132   4.072  0.6239  1.7832  0.2163
  592THF    H1110044   1.177   4.155   3.900  0.4565  2.4787  0.6665
  592THF    H1210045   1.000   4.021   3.875  2.8359 -2.9784 -0.3870
  592THF    H1310046   1.051   3.947   4.031  0.3203  0.2318  0.8907
  593THF     O110047   2.546   3.943   1.620 -0.0849  0.5201 -0.2356
  593THF     C210048   2.499   4.073   1.581 -0.1859  0.3946 -0.1325
  593THF     C310049   2.671   3.911   1.560 -0.7480 -0.3281 -0.7438
  593THF     H410050   2.423   4.117   1.645 -0.3366  1.1294 -0.7860
  593THF     H510051   2.462   4.064   1.479 -1.2153 -0.7965  0.3305
  593THF     H610052   2.730   3.845   1.624 -2.0595 -1.1605 -0.3375
  593THF     H710053   2.656   3.847   1.472 -0.0760 -1.5329 -0.0069
  593THF     C810054   2.742   4.040   1.517  0.4223  0.2155 -1.0157
  593THF     C910055   2.639   4.146   1.569  0.4602 -0.4241 -0.8768
  593THF    H1010056   2.755   4.038   1.408  0.8027 -0.3245 -0.9629
  593THF    H1110057   2.838   4.049   1.568 -0.3972  0.7083  0.4682
  593THF    H1210058   2.668   4.187   1.666  0.5268 -1.5766 -0.3878
  593THF    H1310059   2.611   4.222   1.497 -1.5763 -1.0726 -0.8523
  594THF     O110060   4.713   1.070   3.400 -0.5997  0.3512  0.2933
  594THF     C210061   4.606   1.023   3.475 -0.5494 -0.0793 -0.3041
  594THF     C310062   4.675   1.146   3.288  0.8756  0.5369 -1.2394
  594THF     H410063   4.562   1.104   3.533 -0.2598 -1.4929  2.0566
  594THF     H510064   4.626   0.939   3.541 -2.0837 -0.4774 -0.3165
  594THF     H610065   4.682   1.254   3.291  0.7409  0.5322 -0.7671
  594THF     H710066   4.734   1.121   3.200  0.3920 -1.2578 -1.1037
  594THF     C810067   4.528   1.103   3.276  0.2559  0.2202  0.2026
  594THF     C910068   4.493   0.994   3.373 -0.2538  0.6339 -0.0217
  594THF    H1010069   4.513   1.077   3.171 -0.8347 -0.2853  0.4679
  594THF    H1110070   4.466   1.189   3.299 -0.3580  0.0282 -0.6463
  594THF    H1210071   4.392   1.006   3.414 -1.3365 -0.2681 -2.2175
  594THF    H1310072   4.505   0.892   3.336  1.7722  0.2356  1.5579
  595THF     O110073   3.604   5.164   2.217  0.6340  0.3150  0.7207
  595THF     C210074   3.731   5.115   2.231  0.2816 -0.0659 -0.0360
  595THF     C310075   3.529   5.061   2.148 -0.4431  0.5791 -0.2488
  595THF     H410076   3.798   5.172   2.296  2.2621 -3.2733  0.9884
  595THF     H510077   3.783   5.109   2.135 -1.3438 -2.6404 -0.8291
  595THF     H610078   3.420   5.074   2.148 -0.7326 -0.9929 -2.9594
  595THF     H710079   3.567   5.066   2.046  1.3112  0.7654  0.3865
  595THF     C810080   3.582   4.930   2.204  0.2345 -0.4700  0.4233
  595THF     C910081   3.706   4.970   2.285  0.5068  0.0776  0.1591
  595THF    H1010082   3.599   4.847   2.136  0.3827 -0.0175 -0.0975
  595THF    H1110083   3.512   4.890   2.277  0.5897  1.0616  1.6680
  595THF    H1210084   3.675   4.968   2.389  0.3971 -2.7566  0.1479
  595THF    H1310085   3.792   4.905   2.269  0.5052  0.3566 -1.1559
  596THF     O110086   4.585   3.378   3.124  0.3131  0.2744  0.4594
  596THF     C210087   4.536   3.479   3.037  0.0150  0.4424  0.3048
  596THF     C310088   4.474   3.302   3.167  0.4114  0.1239 -0.1112
  596THF     H410089   4.513   3.419   2.949  0.5598 -2.6297  2.1266
  596THF     H510090   4.610   3.552   3.003 -0.9462  1.4047  0.1984
  596THF     H610091   4.452   3.228   3.090 -1.0618 -1.1052  1.3865
  596THF     H710092   4.498   3.244   3.257  0.0209  0.2768  0.0981
  596THF     C810093   4.363   3.402   3.200  0.3183 -0.4724 -0.0988
  596THF     C910094   4.415   3.526   3.122 -0.5707 -0.2303 -0.0319
  596THF    H1010095   4.370   3.418   3.308  0.2518 -0.7775 -0.0505
  596THF    H1110096   4.263   3.368   3.176 -0.6039  0.9836  1.4288
  596THF    H1210097   4.339   3.573   3.061 -3.5678 -3.8479  0.5588
  596THF    H1310098   4.456   3.600   3.191  1.6873 -0.1065 -1.3859
  597THF     O110099   1.657   0.014   0.531  0.0136 -0.2348  0.1748
  597THF     C210100   1.549  -0.067   0.580 -0.4463 -0.1449 -0.5002
  597THF     C310101   1.776  -0.058   0.572  0.5703  0.1522  0.7620
  597THF     H410102   1.463  -0.034   0.521  0.3344 -1.0302 -2.2021
  597THF     H510103   1.529  -0.045   0.685 -0.1343 -1.0337 -0.2514
  597THF     H610104   1.870  -0.023   0.530  1.2941 -1.6051  0.8569
  597THF     H710105   1.781  -0.038   0.679 -1.4965 -1.5947  1.2554
  597THF     C810106   1.738  -0.200   0.528  0.4057 -0.0917  0.4918
  597THF     C910107   1.587  -0.212   0.559 -0.7158 -0.5891 -0.6298
  597THF    H1010108   1.798  -0.273   0.583  0.5310  0.5828  1.2723
  597THF    H1110109   1.742  -0.209   0.419 -2.1212 -0.1348  0.3507
  597THF    H1210110   1.528  -0.255   0.478  0.8241 -2.9388 -0.6163
  597THF    H1310111   1.582  -0.267   0.652  0.2007 -0.0552 -0.2517
  598THF     O110112   4.906   3.968   2.800  0.4382 -0.0828 -0.2283
  598THF     C210113   4.848   4.075   2.723  0.4495 -0.2940 -0.2711
  598THF     C310114   4.982   3.884   2.717 -0.2214  0.4339 -0.1576
  598THF     H410115   4.923   4.154   2.725 -0.5936  0.6940  0.6355
  598THF     H510116   4.762   4.124   2.768  0.2038  2.5682 -3.4588
  598THF     H610117   5.080   3.928   2.703 -0.0854  0.1734 -0.0193
  598THF     H710118   4.991   3.787   2.766 -0.7722  0.6018  0.2884
  598THF     C810119   4.890   3.881   2.588 -0.0864  0.5529  1.0710
  598THF     C910120   4.833   4.019   2.583  0.6647 -0.3408  0.0848
  598THF    H1010121   4.813   3.805   2.604  1.3205 -0.9491  1.0428
  598THF    H1110122   4.938   3.845   2.497  0.0445  1.0074  0.9622
  598THF    H1210123   4.906   4.067   2.518  0.3205  0.5193  0.3181
  598THF    H1310124   4.730   4.014   2.549  0.2034 -2.4837  1.6020
  599THF     O110125   3.234   3.957   3.822 -0.5711 -0.2530 -0.6315
  599THF     C210126   3.174   4.075   3.771  0.0076 -0.1593  0.0357
  599THF     C310127   3.327   3.897   3.726  0.6374  0.1775 -0.6040
  599THF     H410128   3.127   4.142   3.842 -0.5994 -1.6406  1.0572
  599THF     H510129   3.095   4.060   3.697  0.6965  2.4535 -1.3839
  599THF     H610130   3.409   3.842   3.771  0.9300  0.8365 -0.3223
  599THF     H710131   3.269   3.828   3.664  0.8125 -0.0875 -0.4725
  599THF     C810132   3.364   4.020   3.642 -0.1966  0.5468  0.0478
  599THF     C910133   3.298   4.137   3.705  0.6249  0.2507 -0.1361
  599THF    H1010134   3.324   4.013   3.541 -0.4436 -2.1913  0.2678
  599THF    H1110135   3.472   4.026   3.634 -0.2755 -0.0979 -1.8218
  599THF    H1210136   3.358   4.176   3.788  1.6107 -1.3769 -0.0291
  599THF    H1310137   3.277   4.229   3.650  1.8290  1.8565  1.9382
  600THF     O110138   5.248   5.189   4.420  0.1328 -0.5893  0.4932
  600THF     C210139   5.210   5.163   4.553  0.0001 -0.2213 -0.0147
  600THF     C310140   5.330   5.081   4.376  0.2858 -0.1970 -0.5001
  600THF     H410141   5.131   5.234   4.578 -1.9923 -1.7156 -1.5659
  600THF     H510142   5.286   5.175   4.629 -1.8300 -0.8862  2.0389
  600THF     H610143   5.343   5.079   4.268  0.5502  0.4547 -0.4842
  600THF     H710144   5.426   5.084   4.427 -0.7472 -1.8848  1.7300
  600THF     C810145   5.257   4.964   4.428 -0.2290 -0.0854  0.0118
  600THF     C910146   5.176   5.011   4.550 -0.1164 -0.1583  0.6349
  600THF    H1010147   5.329   4.882   4.441 -0.7104 -0.4509  0.3950
  600THF    H1110148   5.178   4.915   4.372  0.5756 -2.0293  0.4657
  600THF    H1210149   5.071   5.003   4.522  0.2755  1.1127 -1.4065
  600THF    H1310150   5.198   4.973   4.650 -1.4858 -1.0990  0.6088
  601THF     O110151   4.348   0.641   4.559  1.1486 -0.1598  0.1511
  601THF     C210152   4.218   0.637   4.613 -0.1288 -0.4145  0.2466
  601THF     C310153   4.432   0.557   4.637  0.2962  0.1063 -0.5026
  601THF     H410154   4.149   0.646   4.529 -2.4032 -0.8597  1.9780
  601THF     H510155   4.200   0.702   4.699  0.1865 -1.9319  1.4985
  601THF     H610156   4.516   0.522   4.577  1.9230  1.3510  0.9530
  601THF     H710157   4.473   0.614   4.720 -0.7567  0.8035 -0.4479
  601THF     C810158   4.347   0.434   4.679 -0.6652  0.1457 -0.2060
  601THF     C910159   4.206   0.489   4.661 -0.0798  0.2042 -0.0352
  601THF    H1010160   4.360   0.408   4.784 -1.9612  1.0682  0.2133
  601THF    H1110161   4.359   0.353   4.608 -1.2526 -1.4457  1.4203
  601THF    H1210162   4.147   0.440   4.583 -1.8639  0.1367  1.3017
  601THF    H1310163   4.165   0.476   4.761 -0.5361  1.4836 -0.0357
  602THF     O110164   4.413   4.059   3.753 -0.7236 -0.1820 -0.3805
  602THF     C210165   4.557   4.038   3.742  0.3593  0.1412  0.3696
  602THF     C310166   4.387   4.199   3.745 -0.3712  0.0129  0.3264
  602THF     H410167   4.582   3.937   3.710  0.0507 -0.2276  1.2677
  602THF     H510168   4.603   4.061   3.837 -1.1634  0.3898  1.0790
  602THF     H610169   4.308   4.217   3.673 -0.7411  0.1723  0.7716
  602THF     H710170   4.338   4.244   3.831 -1.0420 -1.9975  1.0709
  602THF     C810171   4.522   4.264   3.705  0.0092 -0.7128 -0.6226
  602THF     C910172   4.618   4.159   3.659 -0.3201  0.3681  0.3841
  602THF    H1010173   4.560   4.320   3.790  0.2804  0.0422 -1.2311
  602THF    H1110174   4.494   4.336   3.628  1.0269 -0.0084 -0.3527
  602THF    H1210175   4.625   4.151   3.551  0.7896  0.7849  0.4082
  602THF    H1310176   4.722   4.173   3.690 -0.3568  0.1667  0.6091
  603THF     O110177   2.480   1.720   0.985  0.3427 -0.4518 -0.3980
  603THF     C210178   2.577   1.743   0.889  0.1199 -0.1996 -0.3852
  603THF     C310179   2.446   1.840   1.058 -0.3067  0.1173 -0.0165
  603THF     H410180   2.543   1.752   0.786  1.0707  0.7433 -0.6418
  603THF     H510181   2.648   1.661   0.896 -0.1890 -0.3266  2.3156
  603THF     H610182   2.339   1.862   1.055 -0.4056  0.1013  1.8285
  603THF     H710183   2.471   1.833   1.164 -0.7009  0.4385  0.1024
  603THF     C810184   2.529   1.952   0.990  0.0483  0.6874  0.1382
  603THF     C910185   2.642   1.873   0.933 -1.1652 -0.4467  0.3326
  603THF    H1010186   2.567   2.028   1.057 -1.3966  2.2406 -0.7347
  603THF    H1110187   2.471   1.995   0.908 -1.5631 -0.2315  0.7416
  603THF    H1210188   2.684   1.921   0.845 -0.2114  1.5244  1.7877
  603THF    H1310189   2.716   1.859   1.012 -1.0652  3.1893  1.0238
  604THF     O110190   5.049   0.120   4.312  0.2483  0.2620 -0.0367
  604THF     C210191   5.139   0.194   4.234  0.0380 -0.0634 -0.4871
  604THF     C310192   5.112   0.023   4.393 -0.3098  0.5075  0.4671
  604THF     H410193   5.170   0.275   4.301  0.3108 -0.2645 -0.3669
  604THF     H510194   5.097   0.219   4.137  3.0841 -2.0782 -2.5296
  604THF     H610195   5.128   0.054   4.496  1.6075  0.1703  0.3107
  604THF     H710196   5.058  -0.071   4.380  0.2992  0.2590 -0.4382
  604THF     C810197   5.254   0.012   4.342 -0.0991  0.9000  0.3982
  604THF     C910198   5.256   0.093   4.214 -0.1817 -0.2192 -0.1519
  604THF    H1010199   5.276  -0.091   4.317 -0.0704  0.2375  2.8737
  604THF    H1110200   5.330   0.051   4.410 -1.7129  1.5854  1.8892
  604THF    H1210201   5.348   0.151   4.215 -0.1271 -0.3093  0.6448
  604THF    H1310202   5.238   0.039   4.121 -2.1442  0.5849 -0.2723
  605THF     O110203   1.477   2.177   2.255 -0.2183 -0.1192  0.1634
  605THF     C210204   1.573   2.229   2.164  0.2079  0.5680 -0.7889
  605THF     C310205   1.525   2.203   2.384  0.0491  0.2910 -0.0411
  605THF     H410206   1.544   2.333   2.153  0.5060  0.5735 -1.5558
  605THF     H510207   1.567   2.186   2.064  2.5303 -0.5476 -0.5062
  605THF     H610208   1.498   2.307   2.404 -2.0229 -0.0190 -0.9768
  605THF     H710209   1.480   2.147   2.466  0.1231  0.2583 -0.0225
  605THF     C810210   1.680   2.195   2.374 -0.2963  0.9237  0.0182
  605THF     C910211   1.710   2.193   2.227  0.3902 -0.2392 -0.6457
  605THF    H1010212   1.716   2.101   2.414 -1.4056 -0.0875 -1.2651
  605THF    H1110213   1.736   2.276   2.421  0.4248  0.7808 -0.5782
  605THF    H1210214   1.782   2.270   2.201  0.8068  0.5022  2.3455
  605THF    H1310215   1.743   2.095   2.191 -0.6909  0.0980 -2.7197
  606THF     O110216   2.870   0.348   2.179  0.0856 -0.5567 -0.3868
  606THF     C210217   2.830   0.458   2.253  0.3695 -0.0102 -0.4858
  606THF     C310218   2.863   0.377   2.041  0.4153  0.0702  0.2762
  606THF     H410219   2.906   0.532   2.229 -0.4975  0.2365 -2.6455
  606THF     H510220   2.823   0.445   2.361  2.2648  4.1012  0.3161
  606THF     H610221   2.946   0.442   2.013 -0.3889  0.2162 -2.0226
  606THF     H710222   2.870   0.284   1.985  3.1652 -1.1577  2.3955
  606THF     C810223   2.736   0.459   2.029  0.1900 -0.1116  0.1156
  606THF     C910224   2.700   0.492   2.180  0.4554  0.3335 -0.6725
  606THF    H1010225   2.655   0.405   1.979 -0.7740  0.8934  0.5433
  606THF    H1110226   2.754   0.550   1.971 -0.5886 -0.4270 -0.6495
  606THF    H1210227   2.652   0.588   2.200 -0.4319  0.0497 -1.3536
  606THF    H1310228   2.620   0.429   2.220  2.3907 -1.3248  0.7441
  607THF     O110229   3.319   4.514   0.012  0.0500 -0.3473 -0.3137
  607THF     C210230   3.261   4.531   0.136  0.2193 -0.1949 -0.0258
  607THF     C310231   3.227   4.432  -0.059 -0.1551  0.2754  0.7217
  607THF     H410232   3.309   4.616   0.185  2.1362 -0.9586 -0.4670
  607THF     H510233   3.271   4.439   0.194  0.2341 -1.1148 -1.4353
  607THF     H610234   3.250   4.417  -0.165 -0.3445  0.3859  0.6640
  607THF     H710235   3.218   4.331  -0.019 -1.5775  0.6096  1.2982
  607THF     C810236   3.092   4.495  -0.041 -0.4396  0.0141 -0.3246
  607THF     C910237   3.113   4.563   0.092  0.1773  0.0813 -0.1596
  607THF    H1010238   3.008   4.426  -0.028 -1.7133  1.2882 -1.5118
  607THF    H1110239   3.068   4.573  -0.113  1.1235 -0.3322 -1.2730
  607THF    H1210240   3.100   4.670   0.082  0.5527  0.0332 -1.3328
  607THF    H1310241   3.036   4.545   0.166 -0.9720  0.0617 -1.3302
  608THF     O110242   4.685   3.269   0.997 -0.3168 -0.7022  0.0038
  608THF     C210243   4.595   3.311   1.100  0.3926 -0.4696 -0.7019
  608THF     C310244   4.616   3.264   0.873  0.6203  0.4656  0.2322
  608THF     H410245   4.621   3.406   1.146 -0.8086 -0.5890  0.2658
  608THF     H510246   4.597   3.244   1.186 -0.9533  0.7298  0.2988
  608THF     H610247   4.629   3.365   0.834 -0.7644  0.3369 -0.6392
  608THF     H710248   4.645   3.183   0.806 -0.1588  0.0881  0.3392
  608THF     C810249   4.471   3.238   0.911 -0.4167 -0.5950  0.4682
  608THF     C910250   4.457   3.319   1.039 -0.8248 -0.0006 -0.1138
  608THF    H1010251   4.461   3.134   0.945 -1.5709 -0.7171 -0.1908
  608THF    H1110252   4.399   3.255   0.831 -1.1887  1.3694  1.5125
  608THF    H1210253   4.433   3.425   1.028  0.8678  0.3860 -0.3285
  608THF    H1310254   4.374   3.294   1.105 -1.4336 -0.1905 -0.9202
  609THF     O110255   4.490   2.131   4.455  0.0818 -0.2313 -0.0721
  609THF     C210256   4.520   2.107   4.587  0.3855 -0.0212 -0.2508
  609THF     C310257   4.609   2.175   4.384  0.3030 -0.2054  0.2711
  609THF     H410258   4.550   2.004   4.606  1.4746 -0.1010 -2.0969
  609THF     H510259   4.432   2.132   4.645 -0.4920 -0.2579 -1.4222
  609THF     H610260   4.660   2.089   4.342 -0.6992 -1.0838  0.8117
  609THF     H710261   4.574   2.234   4.300  0.3811 -0.9774 -0.3130
  609THF     C810262   4.687   2.252   4.493 -0.4880  0.5571  0.7839
  609THF     C910263   4.636   2.197   4.620 -0.1729  0.3038  0.0072
  609THF    H1010264   4.665   2.359   4.489  1.4237  0.9611 -2.0523
  609THF    H1110265   4.793   2.236   4.476 -0.2444  0.7415  2.0707
  609THF    H1210266   4.712   2.135   4.669  0.1120  0.6742  0.0401
  609THF    H1310267   4.600   2.268   4.694 -1.3014 -1.9528  1.7458
  610THF     O110268   4.107   1.458   2.840  0.4190  0.2921  0.2402
  610THF     C210269   4.087   1.426   2.696  0.2637 -0.4172  0.1260
  610THF     C310270   4.179   1.575   2.844 -0.9231 -0.6594  0.2158
  610THF     H410271   4.028   1.506   2.650 -1.1977 -1.7160 -0.3574
  610THF     H510272   4.050   1.330   2.659 -0.1549  0.1104 -0.8753
  610THF     H610273   4.115   1.663   2.847 -0.0805 -0.0110 -0.2030
  610THF     H710274   4.235   1.584   2.937  2.9239  0.6381 -1.9791
  610THF     C810275   4.262   1.579   2.713 -0.0453  0.1529 -0.2328
  610THF     C910276   4.221   1.466   2.632 -0.0455  0.0158 -0.6279
  610THF    H1010277   4.371   1.583   2.719 -0.0570 -1.2114  1.8036
  610THF    H1110278   4.222   1.668   2.664  1.6180 -0.0392 -2.0969
  610THF    H1210279   4.205   1.488   2.526 -0.1208 -0.0913 -0.6392
  610THF    H1310280   4.300   1.393   2.641 -0.1544 -0.0840 -0.4871
  611THF     O110281   0.690   3.233   2.112  0.3102 -0.5846  0.3476
  611THF     C210282   0.826   3.205   2.156  0.8932 -0.3898 -0.8096
  611THF     C310283   0.662   3.369   2.145  0.9642 -0.1073  0.4142
  611THF     H410284   0.869   3.116   2.111 -0.1777 -1.6320  0.5415
  611THF     H510285   0.824   3.195   2.264  0.5283  1.0602 -0.6625
  611THF     H610286   0.576   3.414   2.096  1.6365  1.7364  0.8337
  611THF     H710287   0.631   3.370   2.249 -1.1770 -2.6219 -0.1161
  611THF     C810288   0.792   3.439   2.130 -0.1005 -0.1727  0.5703
  611THF     C910289   0.900   3.331   2.114 -0.8987 -0.5584  0.1087
  611THF    H1010290   0.816   3.496   2.220  1.0938  1.7699 -0.8959
  611THF    H1110291   0.795   3.510   2.048  0.0780 -0.1603  0.5862
  611THF    H1210292   0.933   3.314   2.011 -0.1469 -0.4615  0.3271
  611THF    H1310293   0.992   3.349   2.171 -1.8187  0.7121  1.2463
  612THF     O110294   1.519   2.623   5.270  0.0052  0.2048 -0.4255
  612THF     C210295   1.553   2.728   5.184  0.1917  0.1277  0.2922
  612THF     C310296   1.412   2.546   5.220  0.3184  0.0777  0.4552
  612THF     H410297   1.659   2.750   5.192  0.2330  0.3681 -0.8340
  612THF     H510298   1.499   2.815   5.221 -0.2804 -0.3819  0.8450
  612THF     H610299   1.431   2.447   5.262 -2.0819 -1.1478 -1.1135
  612THF     H710300   1.309   2.572   5.243  0.5556  0.2649  1.3051
  612THF     C810301   1.437   2.541   5.070 -0.4164  0.1146 -0.0305
  612THF     C910302   1.508   2.673   5.049  0.4477  0.0657  0.7435
  612THF    H1010303   1.363   2.516   4.994 -2.2201  0.2416  1.6157
  612THF    H1110304   1.512   2.462   5.060  1.5306  2.0097 -1.5549
  612THF    H1210305   1.595   2.659   4.985  0.7763 -0.1959  1.2328
  612THF    H1310306   1.441   2.734   4.988 -1.0270 -1.4099  0.8171
  613THF     O110307   0.756   4.487   0.196 -0.0296 -0.4069  0.0076
  613THF     C210308   0.758   4.373   0.278  0.1083  0.1426  0.0817
  613THF     C310309   0.625   4.538   0.192 -0.5093  0.0861  0.5276
  613THF     H410310   0.861   4.356   0.307  1.3857 -0.3389 -4.1010
  613THF     H510311   0.722   4.279   0.235 -1.1169 -0.0897  1.5359
  613THF     H610312   0.616   4.646   0.179  2.3512  0.4755  1.0793
  613THF     H710313   0.576   4.482   0.112  0.1114 -2.9157  2.0858
  613THF     C810314   0.561   4.492   0.320  0.2029 -0.3325 -0.6007
  613THF     C910315   0.666   4.404   0.390 -0.4901  0.3345  0.3064
  613THF    H1010316   0.465   4.441   0.311  0.1267 -0.0057 -1.7815
  613THF    H1110317   0.543   4.585   0.374  2.5730 -0.7868  1.1366
  613THF    H1210318   0.723   4.458   0.465 -1.3651  1.9209 -0.1084
  613THF    H1310319   0.615   4.315   0.426 -1.0106  0.4040 -0.2373
  614THF     O110320   1.242   3.078   5.217 -0.1872  0.0552 -0.3121
  614THF     C210321   1.231   2.977   5.124 -0.2361  0.1422 -0.7846
  614THF     C310322   1.381   3.117   5.221  0.7307  0.1768 -1.6228
  614THF     H410323   1.129   2.952   5.095 -1.8001  1.7589  2.6625
  614THF     H510324   1.261   2.889   5.182  0.1254  0.5394 -0.3607
  614THF     H610325   1.385   3.217   5.264  2.7218 -0.0176 -1.2805
  614THF     H710326   1.421   3.038   5.285 -3.6024 -1.2303 -0.3199
  614THF     C810327   1.431   3.096   5.084 -0.2445  0.2992  0.1241
  614THF     C910328   1.330   3.012   5.017 -0.2887  0.2606  0.3696
  614THF    H1010329   1.535   3.065   5.074 -0.5613 -0.0996 -2.7979
  614THF    H1110330   1.425   3.189   5.026 -0.3591 -0.4281 -1.0737
  614THF    H1210331   1.277   3.063   4.937 -2.1615 -0.3795  1.1505
  614THF    H1310332   1.371   2.922   4.971  0.7818 -0.2323  2.1976
  615THF     O110333   3.902   5.075   4.796 -0.0930 -0.0928 -0.4341
  615THF     C210334   3.766   5.054   4.759  0.1679 -0.2975  0.3436
  615THF     C310335   3.958   4.950   4.834 -0.7791  0.5458  0.5461
  615THF     H410336   3.750   5.035   4.653 -0.7561  2.9391 -0.1951
  615THF     H510337   3.715   5.150   4.770  0.4691  0.0482 -1.0966
  615THF     H610338   3.986   4.890   4.747  0.0947  0.2178  1.0464
  615THF     H710339   4.051   4.958   4.891  0.1532  0.7707 -0.9407
  615THF     C810340   3.846   4.884   4.914  0.2294  0.2415 -0.3148
  615THF     C910341   3.716   4.935   4.846  0.1156 -0.1508 -0.5780
  615THF    H1010342   3.846   4.933   5.011 -0.8618 -0.0721 -0.1380
  615THF    H1110343   3.840   4.777   4.933 -2.3143  0.6288  1.6948
  615THF    H1210344   3.657   4.861   4.792 -0.0560  0.3220 -1.0582
  615THF    H1310345   3.647   4.972   4.922  0.3093  1.0089 -0.9438
  616THF     O110346   1.193   0.121   2.495  0.0401 -0.5895  0.2181
  616THF     C210347   1.235   0.074   2.364  0.0807 -0.0048 -0.2291
  616THF     C310348   1.270   0.061   2.598 -0.2376 -0.2172 -0.3606
  616THF     H410349   1.225   0.143   2.280  2.5233 -1.2793 -1.6808
  616THF     H510350   1.163  -0.002   2.333  0.7923 -1.0990  0.7178
  616THF     H610351   1.254   0.132   2.678 -1.1747 -1.3430  0.4829
  616THF     H710352   1.226  -0.038   2.614 -0.7167 -0.4449 -2.6874
  616THF     C810353   1.410   0.055   2.528  0.5103 -0.1294 -0.1455
  616THF     C910354   1.376   0.025   2.383  0.1131 -0.2828  1.2569
  616THF    H1010355   1.466  -0.019   2.584 -0.3017  0.3100  1.3067
  616THF    H1110356   1.459   0.150   2.548  0.0298  0.2044 -0.5156
  616THF    H1210357   1.438   0.084   2.314 -1.5731 -0.8056 -0.8104
  616THF    H1310358   1.384  -0.080   2.357 -0.5957 -0.5493  2.0972
  617THF     O110359   0.444   4.158   0.901 -0.3394  0.2753  0.0614
  617THF     C210360   0.579   4.213   0.907 -0.0892  0.4323 -0.3976
  617THF     C310361   0.446   4.022   0.957 -0.6336  0.3117  0.5069
  617THF     H410362   0.586   4.319   0.931  0.3399 -0.0496  1.9101
  617THF     H510363   0.641   4.204   0.818  0.4906  2.6102 -0.2617
  617THF     H610364   0.367   4.011   1.032 -1.7995  1.6368 -0.4671
  617THF     H710365   0.433   3.940   0.887  0.7604 -0.1815  0.8046
  617THF     C810366   0.579   3.994   1.015 -0.5786  0.0295 -0.3457
  617THF     C910367   0.638   4.132   1.029 -0.2738 -0.3512  0.6731
  617THF    H1010368   0.643   3.927   0.957  0.5458 -1.7147  2.6531
  617THF    H1110369   0.592   3.949   1.114  0.4184  1.4508  0.2073
  617THF    H1210370   0.612   4.187   1.119 -1.2809  1.4458 -0.6447
  617THF    H1310371   0.747   4.131   1.022 -0.0396 -2.6620  3.0799
  618THF     O110372   4.927   1.813   0.829  0.3332  0.0928  0.1602
  618THF     C210373   4.857   1.776   0.712 -0.1691 -0.4017  0.3446
  618THF     C310374   4.905   1.953   0.854 -0.6074  0.3780 -0.0723
  618THF     H410375   4.779   1.710   0.750  0.0913 -0.3352  1.0008
  618THF     H510376   4.921   1.718   0.645  0.0917 -1.9054  1.8497
  618THF     H610377   4.820   1.947   0.923 -0.2726 -1.0449  0.2490
  618THF     H710378   4.983   2.001   0.913 -1.5353  1.1614  0.5584
  618THF     C810379   4.864   2.015   0.719  0.4998  0.3389  0.9654
  618THF     C910380   4.799   1.903   0.644  0.2331  0.4526 -0.0431
  618THF    H1010381   4.955   2.053   0.674  0.3960 -1.5530 -1.0135
  618THF    H1110382   4.782   2.085   0.733 -1.0164 -1.1066 -0.2967
  618THF    H1210383   4.692   1.902   0.664 -0.2512 -1.7675 -2.2010
  618THF    H1310384   4.823   1.910   0.538 -1.3030 -1.6167 -0.6096
  619THF     O110385   1.893   0.237   5.429  0.0673 -0.0236  0.5003
  619THF     C210386   1.810   0.351   5.412  0.2043  0.4262 -0.2620
  619THF     C310387   2.031   0.284   5.422  0.7448  0.2456  0.5844
  619THF     H410388   1.718   0.347   5.469  0.5678  0.1946  0.3140
  619THF     H510389   1.773   0.370   5.311 -1.4687 -3.0777 -0.4558
  619THF     H610390   2.106   0.215   5.462  0.0213 -2.0400 -1.6989
  619THF     H710391   2.043   0.291   5.314 -1.4369 -0.4976  0.2473
  619THF     C810392   2.026   0.418   5.492  0.1004  1.0805 -0.3005
  619THF     C910393   1.876   0.468   5.480 -0.0442 -0.3174  0.2314
  619THF    H1010394   2.098   0.488   5.450 -0.1133  2.0107  0.8247
  619THF    H1110395   2.044   0.413   5.599 -1.5412  2.4522  0.0838
  619THF    H1210396   1.836   0.478   5.580 -0.3526 -0.3913  0.1167
  619THF    H1310397   1.871   0.546   5.404  0.1962 -0.7402 -0.2257
  620THF     O110398   2.951   2.248   0.857  0.5462  0.1976 -0.1870
  620THF     C210399   2.983   2.360   0.940  0.2527  0.3684 -0.6464
  620THF     C310400   2.814   2.205   0.875  0.4674 -0.0585 -0.4626
  620THF     H410401   3.076   2.408   0.909  1.6827 -2.3030 -0.8053
  620THF     H510402   3.004   2.330   1.043  2.4477 -1.9626 -1.6733
  620THF     H610403   2.779   2.164   0.780 -1.9410  0.0141  0.3304
  620THF     H710404   2.809   2.130   0.954  1.7053  0.8337  0.5200
  620THF     C810405   2.749   2.338   0.921  0.3600 -0.0972  0.1132
  620THF     C910406   2.851   2.441   0.945  0.2194 -0.4784  0.4879
  620THF    H1010407   2.684   2.312   1.004 -1.2860 -1.2777 -1.4837
  620THF    H1110408   2.693   2.385   0.840  1.4716  0.3773 -0.3990
  620THF    H1210409   2.846   2.517   0.867 -3.4867 -0.0084  1.0281
  620THF    H1310410   2.840   2.491   1.041  1.1161 -1.4408  1.1152
  621THF     O110411   0.535   1.899   3.906 -0.6967  0.4847  0.0183
  621THF     C210412   0.500   2.035   3.860 -0.0037 -0.6782 -0.3321
  621THF     C310413   0.637   1.914   4.008  0.0293  0.3396  0.2498
  621THF     H410414   0.432   2.085   3.930 -0.2567  1.2321 -1.8662
  621THF     H510415   0.457   2.051   3.761 -2.3497  2.3750  1.0262
  621THF     H610416   0.606   1.901   4.112  0.4615 -0.0533  0.3334
  621THF     H710417   0.715   1.844   3.979 -1.3111 -0.8840 -0.5804
  621THF     C810418   0.703   2.055   3.987  0.6008  0.5111  0.2339
  621THF     C910419   0.636   2.099   3.863 -0.8478 -0.4058 -0.0890
  621THF    H1010420   0.812   2.054   3.986  0.6545  0.8087  1.8893
  621THF    H1110421   0.678   2.121   4.071  2.7221 -0.5295  1.7886
  621THF    H1210422   0.632   2.207   3.852  1.2945 -0.4877 -3.0118
  621THF    H1310423   0.686   2.051   3.778 -0.0333 -0.4627  0.4122
  622THF     O110424   4.826   4.613   4.194 -0.0939  0.0425  0.5973
  622THF     C210425   4.948   4.688   4.204 -0.4147  0.1817 -0.9568
  622THF     C310426   4.864   4.480   4.213 -0.3354 -0.2346 -0.3351
  622THF     H410427   4.916   4.790   4.224  2.0687  0.7599  0.4414
  622THF     H510428   4.998   4.684   4.107  0.9342  1.3467 -0.3510
  622THF     H610429   4.775   4.417   4.209 -0.4376 -0.1093 -0.0272
  622THF     H710430   4.922   4.443   4.128 -1.2320 -1.5778 -0.3853
  622THF     C810431   4.961   4.483   4.337  0.2007 -0.6412  0.0064
  622THF     C910432   5.023   4.618   4.321  0.1458 -0.0313 -0.2640
  622THF    H1010433   5.039   4.407   4.333  0.4483 -0.5640  2.0751
  622THF    H1110434   4.903   4.472   4.429  0.7135 -1.2146  0.2693
  622THF    H1210435   5.016   4.669   4.417 -0.4168 -0.3208 -0.1424
  622THF    H1310436   5.130   4.618   4.302 -0.0789 -0.0870 -1.6377
  623THF     O110437   1.745   0.146   3.565  0.9209 -0.4114  0.2167
  623THF     C210438   1.672   0.038   3.519  0.9597  0.0046 -0.2331
  623THF     C310439   1.734   0.263   3.484  0.0173 -0.1183 -0.2148
  623THF     H410440   1.650  -0.040   3.592 -0.2194  0.7250  0.1961
  623THF     H510441   1.726  -0.001   3.432 -1.2554 -1.2785 -1.1077
  623THF     H610442   1.750   0.355   3.539  0.5896  0.2427 -0.9628
  623THF     H710443   1.805   0.257   3.401  0.7404  0.6478  0.3312
  623THF     C810444   1.582   0.247   3.435  0.2803  0.1488 -0.7110
  623THF     C910445   1.537   0.111   3.478  0.1281 -0.3201 -0.2017
  623THF    H1010446   1.573   0.270   3.329  1.9267  2.0033 -0.5069
  623THF    H1110447   1.524   0.329   3.477 -0.7612 -1.2763  0.7796
  623THF    H1210448   1.475   0.121   3.567 -1.9165 -1.8511 -1.3567
  623THF    H1310449   1.482   0.056   3.401  1.6063 -2.1196 -0.0407
  624THF     O110450   1.402   3.683   3.619  0.6985 -0.6509 -0.5313
  624THF     C210451   1.308   3.782   3.576 -0.4893 -0.0655 -0.3101
  624THF     C310452   1.377   3.656   3.758 -0.6319  0.3619  0.1717
  624THF     H410453   1.209   3.741   3.559 -0.1055 -1.6115  0.9371
  624THF     H510454   1.346   3.835   3.489  1.3921  0.1966  0.6063
  624THF     H610455   1.283   3.601   3.762  0.1178 -0.9919 -0.3048
  624THF     H710456   1.451   3.595   3.809  0.6343  1.0613 -0.7725
  624THF     C810457   1.351   3.793   3.818 -0.2834 -0.2037  0.2486
  624THF     C910458   1.302   3.875   3.695 -0.5571 -0.4436  0.0694
  624THF    H1010459   1.434   3.843   3.868 -1.3410  2.4663 -0.4902
  624THF    H1110460   1.265   3.795   3.886 -1.5570  4.0968 -1.1973
  624THF    H1210461   1.200   3.913   3.700 -0.7598 -0.2084 -3.2752
  624THF    H1310462   1.374   3.952   3.671 -0.8063  0.2460  1.4563
  625THF     O110463   1.749   0.249   4.025  0.9742 -0.5133  0.3523
  625THF     C210464   1.729   0.214   3.882  0.1541 -0.1601 -0.9199
  625THF     C310465   1.624   0.247   4.095 -0.7060 -0.7877  0.1081
  625THF     H410466   1.759   0.109   3.873 -1.5331 -0.7237 -0.4229
  625THF     H510467   1.784   0.285   3.820 -1.4904  1.0290 -1.0829
  625THF     H610468   1.648   0.188   4.183  0.1649 -1.0572 -0.2975
  625THF     H710469   1.607   0.352   4.121  0.1764 -0.3081 -1.1455
  625THF     C810470   1.521   0.181   4.005  0.6686 -0.1214 -0.0481
  625THF     C910471   1.579   0.225   3.859  0.0994  0.5640 -0.1009
  625THF    H1010472   1.418   0.217   4.008  0.4986 -0.5733 -0.3567
  625THF    H1110473   1.529   0.073   4.014 -1.5932 -0.2266  1.6559
  625THF    H1210474   1.541   0.164   3.778 -0.6672  2.0336 -0.8835
  625THF    H1310475   1.543   0.327   3.848 -1.3504 -0.1393 -2.4995
  626THF     O110476   5.039   4.580   1.366  0.1994 -0.1652 -0.1509
  626THF     C210477   5.160   4.612   1.426  0.5071  0.7713 -0.4111
  626THF     C310478   5.038   4.436   1.361  0.3706  0.3391 -0.1503
  626THF     H410479   5.166   4.583   1.531  1.2594 -1.5361 -1.0325
  626THF     H510480   5.178   4.720   1.427  0.3501  0.7969 -0.4038
  626THF     H610481   5.027   4.390   1.459 -0.2472 -0.5220 -0.6096
  626THF     H710482   4.956   4.392   1.305 -0.0504 -2.1194  2.1624
  626THF     C810483   5.176   4.405   1.299 -0.3958  0.6227  0.3371
  626THF     C910484   5.265   4.513   1.361 -0.4102 -0.1996  0.1597
  626THF    H1010485   5.180   4.397   1.191 -0.3881 -1.7776  0.4665
  626THF    H1110486   5.208   4.305   1.329  0.0789  0.4588 -0.6638
  626THF    H1210487   5.345   4.474   1.424 -1.0555  1.2489  1.9461
  626THF    H1310488   5.317   4.565   1.280  0.5578 -0.9130  0.3035
  627THF     O110489   2.989   4.783   0.658  0.0204  0.2694 -0.5076
  627THF     C210490   2.897   4.825   0.759 -0.0759 -0.1045  0.1628
  627THF     C310491   3.118   4.795   0.716 -0.0592 -0.5232 -0.4109
  627THF     H410492   2.856   4.737   0.810 -0.0099 -0.4727 -0.4044
  627THF     H510493   2.814   4.881   0.716  1.7841  0.6092 -2.7975
  627THF     H610494   3.130   4.697   0.761  1.8912  0.2707  0.9054
  627THF     H710495   3.191   4.802   0.635 -0.3110 -0.8428 -0.6686
  627THF     C810496   3.121   4.923   0.814 -0.2971 -0.2624  0.2070
  627THF     C910497   2.980   4.912   0.858  0.3276  0.0004  0.4565
  627THF    H1010498   3.142   5.012   0.755 -0.5901 -1.4730 -1.8225
  627THF    H1110499   3.198   4.902   0.889  0.1020 -1.5076 -0.5283
  627THF    H1210500   2.968   4.877   0.961  2.0766 -2.2338 -0.0212
  627THF    H1310501   2.939   5.013   0.870  0.1831  0.2000 -1.4100
  628THF     O110502   3.386   4.806   5.243 -0.1804 -0.6687  0.3377
  628THF     C210503   3.490   4.869   5.322  0.4802 -0.5074  0.3515
  628THF     C310504   3.260   4.829   5.305  0.2397 -0.4158 -0.2701
  628THF     H410505   3.588   4.887   5.278  0.7210 -0.1590  1.0155
  628THF     H510506   3.520   4.804   5.404  2.2444 -1.6083 -1.0834
  628THF     H610507   3.169   4.807   5.248 -0.1540  2.3249 -0.8458
  628THF     H710508   3.261   4.773   5.399 -0.6913 -1.4265 -0.8291
  628THF     C810509   3.268   4.982   5.326  0.1238 -0.7492 -0.0882
  628THF     C910510   3.413   4.998   5.375  0.7290  0.1845 -0.2021
  628THF    H1010511   3.188   5.032   5.380 -1.2749 -0.5671 -2.2083
  628THF    H1110512   3.253   5.026   5.228  2.8565  1.0427  0.1933
  628THF    H1210513   3.451   5.091   5.332 -3.7473  2.1732 -0.4561
  628THF    H1310514   3.422   5.008   5.483  0.8394  2.7910 -0.3783
  629THF     O110515   5.490   5.404   5.113 -0.2997 -0.6374  0.3276
  629THF     C210516   5.593   5.339   5.035  0.1223  0.1135  0.2590
  629THF     C310517   5.527   5.539   5.148  0.7095  0.1558 -0.5033
  629THF     H410518   5.544   5.292   4.950  1.2090  0.9634 -0.8789
  629THF     H510519   5.652   5.270   5.094 -0.2584 -0.1708  0.3096
  629THF     H610520   5.462   5.608   5.094  2.6065  2.5028  0.0610
  629THF     H710521   5.509   5.570   5.251 -2.7582 -0.0883 -0.9198
  629THF     C810522   5.663   5.554   5.095 -0.3427  0.1157  0.6063
  629THF     C910523   5.678   5.457   4.987 -0.2151  0.0831  0.1209
  629THF    H1010524   5.731   5.527   5.176 -0.3004 -0.9929  0.2217
  629THF    H1110525   5.684   5.652   5.052 -0.8743  1.0235  2.3031
  629THF    H1210526   5.633   5.498   4.897  0.0273  0.5851  0.2242
  629THF    H1310527   5.784   5.447   4.964 -0.1254  1.5171 -0.1815
  630THF     O110528   0.543   4.920   3.573  0.0518 -0.0329 -0.4143
  630THF     C210529   0.546   4.982   3.699  0.3035  0.2053 -0.1465
  630THF     C310530   0.495   4.787   3.601  0.0585 -0.2174  0.2400
  630THF     H410531   0.505   5.084   3.704  0.6825  0.4447 -1.6942
  630THF     H510532   0.647   4.996   3.736 -0.1371  0.7600  0.8959
  630THF     H610533   0.391   4.782   3.570  0.8969 -1.2769 -2.8003
  630THF     H710534   0.545   4.710   3.542 -0.2704 -0.1285 -0.1615
  630THF     C810535   0.499   4.761   3.747 -0.9480  0.1437  0.1334
  630THF     C910536   0.465   4.896   3.798  0.8603 -0.0752 -0.2358
  630THF    H1010537   0.598   4.739   3.786 -0.7766 -1.7101 -1.2337
  630THF    H1110538   0.423   4.691   3.781 -1.9142  1.4199  0.7216
  630THF    H1210539   0.356   4.907   3.805  0.9303  0.2052  0.5216
  630THF    H1310540   0.491   4.912   3.902 -2.0758 -2.8030  1.0834
  631THF     O110541   1.089   2.574   0.439  0.5426  0.7836  0.5095
  631THF     C210542   1.129   2.479   0.346  0.1741 -0.2866 -0.0342
  631THF     C310543   1.169   2.571   0.554 -0.3556 -0.0446  0.4153
  631THF     H410544   1.221   2.502   0.293 -1.0316 -2.0076 -3.1825
  631THF     H510545   1.043   2.460   0.282 -0.0185  2.4354 -0.7213
  631THF     H610546   1.264   2.613   0.520 -0.7782 -0.2967 -1.1942
  631THF     H710547   1.121   2.632   0.630 -0.8203 -0.6159  0.5908
  631THF     C810548   1.169   2.428   0.585 -0.0952  0.1632  0.7397
  631THF     C910549   1.138   2.360   0.449 -0.5284 -0.0403 -0.7689
  631THF    H1010550   1.093   2.410   0.662 -0.5296  0.8257  0.4766
  631THF    H1110551   1.265   2.385   0.612  0.7480  1.1563 -0.6029
  631THF    H1210552   1.219   2.294   0.417 -0.2347 -0.3971  0.6454
  631THF    H1310553   1.047   2.300   0.458 -1.2244  1.0549 -0.2551
  632THF     O110554   0.567   0.065   3.667  0.1997  0.4097  0.2272
  632THF     C210555   0.696   0.074   3.617  1.0244  0.6055 -0.1092
  632THF     C310556   0.488  -0.036   3.612  0.5405  0.4185 -0.0910
  632THF     H410557   0.757   0.086   3.706  0.4615  0.8286  0.2512
  632THF     H510558   0.698   0.163   3.554 -0.1302  0.8489  0.1594
  632THF     H610559   0.468  -0.112   3.688 -0.8969 -0.2437 -1.0817
  632THF     H710560   0.410   0.015   3.557 -0.1562 -1.8723 -1.3859
  632THF     C810561   0.581  -0.104   3.503 -0.9729  0.3621 -0.0638
  632THF     C910562   0.720  -0.060   3.551 -0.0663  0.1955 -0.3778
  632THF    H1010563   0.564  -0.057   3.406  1.1037  0.5056 -0.4241
  632THF    H1110564   0.562  -0.211   3.500  1.6183 -0.2124  0.6615
  632THF    H1210565   0.740  -0.132   3.631 -0.8615  1.4303  0.9978
  632THF    H1310566   0.809  -0.063   3.488 -1.3115  1.2484 -2.2656
  633THF     O110567   3.560   2.194   3.394 -0.0541 -0.5292  0.0265
  633THF     C210568   3.423   2.218   3.363  0.8867 -0.4113  0.3045
  633THF     C310569   3.577   2.124   3.518 -0.0769  0.3997 -0.4954
  633THF     H410570   3.400   2.187   3.262  1.5152 -1.9295  0.5976
  633THF     H510571   3.414   2.326   3.355  3.2689 -0.1643  0.0113
  633THF     H610572   3.595   2.019   3.495  0.2537  0.2277  0.5149
  633THF     H710573   3.661   2.167   3.572  0.3779  1.1583 -1.7499
  633THF     C810574   3.439   2.148   3.586  0.1152  0.3158  0.7023
  633THF     C910575   3.334   2.151   3.472 -0.1628  0.3136 -0.3675
  633THF    H1010576   3.431   2.244   3.637 -1.0207  0.1835  0.7886
  633THF    H1110577   3.411   2.065   3.651 -1.9089 -0.2387 -0.7919
  633THF    H1210578   3.320   2.047   3.443 -0.6808 -0.1009  1.2192
  633THF    H1310579   3.234   2.194   3.482 -0.3059 -0.3093  1.2336
  634THF     O110580   5.196   1.755   5.329 -1.1151  0.3769  0.0454
  634THF     C210581   5.323   1.713   5.374 -0.0477 -0.1887  0.2612
  634THF     C310582   5.217   1.880   5.261  0.2459  0.2181  0.4402
  634THF     H410583   5.341   1.606   5.363  0.6388  0.1468 -2.7705
  634THF     H510584   5.352   1.755   5.470  0.8078  0.8556 -0.4236
  634THF     H610585   5.160   1.874   5.169  0.5002 -0.2205  0.3125
  634THF     H710586   5.168   1.959   5.319  2.1073  1.5111  0.3505
  634THF     C810587   5.364   1.915   5.242 -0.1171 -0.1856 -1.1409
  634THF     C910588   5.420   1.778   5.272  0.1712 -0.2430  0.1267
  634THF    H1010589   5.408   1.982   5.317  0.8991 -2.6256  0.5871
  634THF    H1110590   5.386   1.953   5.143  1.5663  0.6472 -0.4976
  634THF    H1210591   5.417   1.723   5.178 -0.7897  0.8696 -0.5241
  634THF    H1310592   5.522   1.769   5.308  0.1939 -0.6045 -0.0214
  635THF     O110593   4.713   2.966   3.932 -0.0446  0.3370 -0.6759
  635THF     C210594   4.790   3.090   3.921  0.2043 -0.6894  0.7375
  635THF     C310595   4.791   2.863   3.879  0.0585  0.5570 -0.3912
  635THF     H410596   4.747   3.144   4.005  1.0039 -0.8012  1.2341
  635THF     H510597   4.759   3.143   3.832 -0.7849 -0.9950  0.8916
  635THF     H610598   4.759   2.772   3.930 -0.4892  0.5048 -0.8133
  635THF     H710599   4.767   2.860   3.773  0.8285  1.7861 -0.6214
  635THF     C810600   4.938   2.902   3.905 -0.1564 -0.3559 -0.2786
  635THF     C910601   4.938   3.049   3.942  0.2790  0.3313  0.6490
  635THF    H1010602   5.001   2.880   3.820  0.0174 -2.5497  0.3466
  635THF    H1110603   4.967   2.832   3.984 -0.1536 -2.0991 -1.7809
  635THF    H1210604   4.959   3.066   4.047 -1.2131 -0.4222  1.1102
  635THF    H1310605   5.005   3.109   3.880  1.0837 -0.3544  0.8380
  636THF     O110606   3.965   3.739   1.745  0.1735  0.1233 -0.8004
  636THF     C210607   3.895   3.665   1.652  0.1220 -0.2102  0.1985
  636THF     C310608   4.074   3.808   1.680  0.1682  0.5732  0.2452
  636THF     H410609   3.792   3.666   1.687  0.7408 -0.3360  2.0953
  636THF     H510610   3.929   3.562   1.655 -1.4438 -0.7685 -0.0408
  636THF     H610611   4.110   3.895   1.734 -1.9379  0.8496  1.3254
  636THF     H710612   4.159   3.742   1.666  1.3493  1.9026  0.9923
  636THF     C810613   4.003   3.848   1.549  0.3162 -0.4044 -0.2448
  636THF     C910614   3.914   3.725   1.514 -0.0972  0.0889  1.0620
  636THF    H1010615   4.081   3.871   1.476  1.4940 -0.0323  1.0938
  636THF    H1110616   3.943   3.938   1.559 -0.0077 -0.6795  0.3237
  636THF    H1210617   3.814   3.738   1.471  0.1119 -0.8470  0.2566
  636THF    H1310618   3.976   3.653   1.461  0.8697  1.2611  0.5573
  637THF     O110619   4.508   3.747   2.329 -0.1920 -0.7245  0.4639
  637THF     C210620   4.618   3.833   2.305 -1.1299 -1.1082 -0.1723
  637THF     C310621   4.534   3.628   2.264 -0.2946  0.2224 -0.1885
  637THF     H410622   4.705   3.803   2.365  0.3224 -1.4924 -2.3783
  637THF     H510623   4.600   3.937   2.332 -0.6186 -1.1606  0.4078
  637THF     H610624   4.558   3.549   2.335 -1.1946 -1.5158 -1.7509
  637THF     H710625   4.438   3.594   2.227  0.3479 -2.0962  0.0989
  637THF     C810626   4.644   3.643   2.161  0.2042 -0.3716 -0.1471
  637THF     C910627   4.654   3.795   2.161 -0.1540  0.2716 -0.1867
  637THF    H1010628   4.617   3.587   2.071 -0.0197 -0.5747  0.0466
  637THF    H1110629   4.732   3.590   2.197 -1.9679 -2.6430  2.3236
  637THF    H1210630   4.748   3.822   2.113  0.2796 -1.5589 -0.4245
  637THF    H1310631   4.577   3.839   2.098 -1.4442  1.9145  2.3803
  638THF     O110632   3.655   2.598   1.882 -0.3156  0.1503  0.0017
  638THF     C210633   3.749   2.525   1.812  1.1513 -0.3879  0.3569
  638THF     C310634   3.559   2.511   1.936 -0.5084  1.1297 -0.1839
  638THF     H410635   3.818   2.485   1.886 -0.9700 -2.3748  1.3714
  638THF     H510636   3.800   2.586   1.736  1.4389 -0.3642  0.5640
  638THF     H610637   3.591   2.473   2.032 -0.3923  0.0742 -0.6317
  638THF     H710638   3.455   2.536   1.954 -1.5843 -3.2075  0.6217
  638THF     C810639   3.538   2.401   1.831 -0.4611  0.3969 -0.8472
  638THF     C910640   3.664   2.425   1.750  0.4268  0.2843  0.9413
  638THF    H1010641   3.451   2.419   1.767 -1.7806 -0.6532  0.5552
  638THF    H1110642   3.550   2.300   1.870 -0.1304  1.6562  2.6494
  638THF    H1210643   3.729   2.338   1.733 -3.0115 -2.0979 -1.3477
  638THF    H1310644   3.641   2.464   1.652  1.7789  0.0828  0.5232
  639THF     O110645   3.205   0.709   2.396 -0.2376  0.5853  0.4768
  639THF     C210646   3.108   0.770   2.312 -0.0721 -0.2698  0.5619
  639THF     C310647   3.204   0.801   2.509 -0.8027  0.6024  0.4971
  639THF     H410648   3.075   0.703   2.233  0.6149  1.5689 -1.3882
  639THF     H510649   3.158   0.854   2.263  0.2564 -0.8304 -0.0802
  639THF     H610650   3.248   0.759   2.600  0.5524  1.8944  0.4764
  639THF     H710651   3.276   0.880   2.488  1.4972 -1.8135 -1.1909
  639THF     C810652   3.058   0.837   2.534 -0.8073 -0.3183 -0.3100
  639THF     C910653   2.996   0.817   2.400  0.0775 -0.6462 -0.1708
  639THF    H1010654   3.031   0.934   2.577  0.6906 -0.2789  0.5751
  639THF    H1110655   3.023   0.764   2.607  0.7406 -0.4453  0.3372
  639THF    H1210656   2.913   0.748   2.411 -0.1207 -0.3302  0.3254
  639THF    H1310657   2.954   0.911   2.363 -0.2336 -0.5752  0.3542
  640THF     O110658   4.829   2.602   1.003  0.4919 -0.6034  0.2489
  640THF     C210659   4.698   2.536   0.986 -0.2784  0.2571  0.4646
  640THF     C310660   4.912   2.491   1.026 -0.2898  0.0921 -0.3527
  640THF     H410661   4.642   2.599   0.917  2.0526  0.5332 -1.3191
  640THF     H510662   4.650   2.506   1.079 -1.0815 -2.1953 -0.6532
  640THF     H610663   5.013   2.531   1.021 -0.4595  0.3973 -1.4676
  640THF     H710664   4.891   2.454   1.126  0.7788 -2.7433 -1.1030
  640THF     C810665   4.879   2.381   0.926  0.3850 -0.2868  0.0856
  640THF     C910666   4.734   2.407   0.898  0.4075 -0.4829 -0.1911
  640THF    H1010667   4.893   2.281   0.967  4.4101  0.0680 -0.0929
  640THF    H1110668   4.946   2.413   0.846  0.5130  1.8924  1.0103
  640THF    H1210669   4.709   2.447   0.800  1.7174  2.1641  0.4570
  640THF    H1310670   4.664   2.328   0.925 -0.7730  0.0527 -1.5332
  641THF     O110671   4.726   3.014   2.824 -0.1343  0.0538 -0.5040
  641THF     C210672   4.756   2.876   2.854 -0.4353 -0.6500  0.0469
  641THF     C310673   4.693   3.077   2.948 -0.0211  0.1837  0.1430
  641THF     H410674   4.852   2.868   2.904 -0.8270  1.2497  1.2000
  641THF     H510675   4.766   2.815   2.765 -3.9570 -1.0959 -0.2109
  641THF     H610676   4.785   3.102   3.001 -1.5077  2.8434  1.6821
  641THF     H710677   4.640   3.172   2.934  1.3782  0.8551 -0.9256
  641THF     C810678   4.625   2.959   3.033  0.2024 -0.2817 -0.1406
  641THF     C910679   4.638   2.842   2.944 -0.8392 -0.3723  0.0479
  641THF    H1010680   4.518   2.966   3.051  0.4422 -2.2418  2.8344
  641THF    H1110681   4.671   2.945   3.131 -2.0792  1.8750  1.3465
  641THF    H1210682   4.645   2.743   2.989 -1.6013  0.6466  2.5577
  641THF    H1310683   4.552   2.840   2.877 -1.8932  1.2819  1.2742
  642THF     O110684   2.955   0.698   3.054  0.0967  0.0327 -0.2636
  642THF     C210685   3.083   0.723   2.992 -0.2188 -0.6638 -0.1347
  642THF     C310686   2.909   0.576   3.002 -0.7955 -0.8335  0.2784
  642THF     H410687   3.159   0.746   3.066 -0.6350 -0.1926  0.1498
  642THF     H510688   3.068   0.807   2.924  0.1302  1.0882  1.8747
  642THF     H610689   2.941   0.489   3.060 -0.0477 -1.8477 -1.5741
  642THF     H710690   2.800   0.578   2.999 -0.8733 -2.7389 -2.6749
  642THF     C810691   2.976   0.547   2.864 -0.7379 -0.1196 -0.1065
  642THF     C910692   3.110   0.603   2.903  0.6639  0.7726  0.3261
  642THF    H1010693   2.925   0.612   2.793 -0.6888  1.1133  0.9524
  642THF    H1110694   2.971   0.442   2.836  0.0134  0.2164 -1.6296
  642THF    H1210695   3.167   0.531   2.962 -0.1225 -0.6758 -0.6088
  642THF    H1310696   3.171   0.621   2.814  1.4917 -0.4402  0.6125
  643THF     O110697   5.026   2.319   1.669 -0.2803 -0.0956  0.0892
  643THF     C210698   4.907   2.256   1.718  0.1480  0.1429 -0.1830
  643THF     C310699   4.991   2.341   1.538  0.6911 -0.4707  0.1737
  643THF     H410700   4.842   2.336   1.754 -0.9745 -0.4777 -0.7885
  643THF     H510701   4.941   2.193   1.800  0.7781  0.4991 -0.1660
  643THF     H610702   4.938   2.436   1.530  1.7251  0.0015 -1.7280
  643THF     H710703   5.075   2.361   1.472  0.9420 -0.0409  0.6168
  643THF     C810704   4.909   2.225   1.476 -0.1343 -0.1668 -0.3801
  643THF     C910705   4.832   2.185   1.607  0.0738 -0.3491  0.6422
  643THF    H1010706   4.977   2.142   1.455  0.2247  0.3686 -1.4032
  643THF    H1110707   4.847   2.251   1.390 -2.4643 -1.5204  0.8001
  643THF    H1210708   4.736   2.234   1.592  1.1181  1.7998  0.4937
  643THF    H1310709   4.830   2.077   1.615  2.4387 -0.5685 -0.6545
  644THF     O110710   3.081   3.057   4.280 -0.5208 -0.5131 -0.1687
  644THF     C210711   2.996   3.030   4.166 -0.5871  0.9854  0.6676
  644THF     C310712   3.144   3.178   4.266  0.5191 -0.2522  0.2273
  644THF     H410713   2.895   3.072   4.166 -0.9481  0.4415 -2.9342
  644THF     H510714   2.981   2.923   4.151 -1.1544  1.1377  0.1291
  644THF     H610715   3.090   3.269   4.294  3.9163  2.4275 -1.2475
  644THF     H710716   3.234   3.179   4.328  1.5654 -0.0428 -1.2470
  644THF     C810717   3.169   3.182   4.122 -0.5571  0.2996  0.0633
  644THF     C910718   3.073   3.091   4.053 -0.1868 -0.2330  0.1473
  644THF    H1010719   3.271   3.147   4.109 -0.2829 -0.1845  2.9088
  644THF    H1110720   3.168   3.286   4.088 -1.8593  0.4374  0.4474
  644THF    H1210721   3.012   3.158   3.992 -0.8568 -0.1406  0.8993
  644THF    H1310722   3.130   3.022   3.991  0.1996  0.8888 -0.7860
  645THF     O110723   0.355   3.473   2.950  0.8167  0.1516 -0.2653
  645THF     C210724   0.342   3.462   2.810 -0.1402  0.3578 -0.1630
  645THF     C310725   0.368   3.608   2.991  0.6716  0.0025  0.1261
  645THF     H410726   0.244   3.498   2.776 -0.3531  1.0566  1.1065
  645THF     H510727   0.363   3.362   2.772 -2.4015 -0.2784  0.1080
  645THF     H610728   0.279   3.664   3.020  0.6786 -0.4242  1.0188
  645THF     H710729   0.428   3.610   3.082 -1.0770 -1.8484  1.3961
  645THF     C810730   0.430   3.680   2.871  0.4028 -0.5235 -0.2447
  645THF     C910731   0.436   3.577   2.758  0.0598  0.3300  0.1332
  645THF    H1010732   0.523   3.728   2.903  0.2690 -0.0406 -0.5743
  645THF    H1110733   0.362   3.763   2.849  1.1405  0.8582  2.2373
  645THF    H1210734   0.409   3.613   2.659  1.9233  0.9329 -0.1973
  645THF    H1310735   0.539   3.541   2.749  0.8070  2.3131  0.1961
  646THF     O110736   4.179   3.021   2.761 -0.0570  0.2318  0.2882
  646THF     C210737   4.229   2.918   2.851  0.7883  0.4001  0.3898
  646THF     C310738   4.071   3.088   2.827  0.0713  0.2944  0.2469
  646THF     H410739   4.322   2.878   2.811 -0.0748 -0.8086 -0.5002
  646THF     H510740   4.162   2.834   2.871  1.7798  0.0140  2.3118
  646THF     H610741   4.042   3.180   2.776 -3.8208 -0.8482  0.1360
  646THF     H710742   3.983   3.025   2.813  1.3244 -1.5216  0.2117
  646THF     C810743   4.115   3.097   2.967 -0.6712  0.0887 -0.1861
  646THF     C910744   4.235   3.006   2.969 -0.4587  0.4412  0.7557
  646THF    H1010745   4.043   3.069   3.044  1.0096 -0.5741  1.2273
  646THF    H1110746   4.130   3.204   2.982  0.5368 -0.1282  0.2991
  646THF    H1210747   4.320   3.072   2.954 -0.5291  0.1066 -1.5108
  646THF    H1310748   4.271   2.944   3.050 -2.1319 -0.6579  0.6968
  647THF     O110749   4.543   2.026   0.885  0.0342 -0.2758 -0.1842
  647THF     C210750   4.466   2.067   0.770 -0.1072  0.7860 -0.3498
  647THF     C310751   4.486   2.081   1.004 -0.1753 -0.6026  0.1092
  647THF     H410752   4.475   1.984   0.700 -1.4492 -1.1050  1.6124
  647THF     H510753   4.486   2.166   0.728 -0.1218  1.0115  0.1742
  647THF     H610754   4.514   2.031   1.097  0.3058  0.6843  0.6803
  647THF     H710755   4.491   2.189   1.009 -2.1522 -0.5107  0.8982
  647THF     C810756   4.342   2.048   0.974 -0.0128  1.0027  0.6653
  647THF     C910757   4.324   2.063   0.823 -0.2615  0.1924 -0.4822
  647THF    H1010758   4.267   2.115   1.017 -0.8776 -0.5595  1.6766
  647THF    H1110759   4.324   1.943   0.998  0.0582  1.0961  1.1432
  647THF    H1210760   4.262   1.986   0.776  1.0717 -1.0772 -0.2189
  647THF    H1310761   4.258   2.147   0.796 -1.3485 -0.2020  0.8423
  648THF     O110762   4.953   4.824   0.492  0.7962  0.2252 -0.3359
  648THF     C210763   4.831   4.866   0.434  0.6745  0.0635  0.3932
  648THF     C310764   4.997   4.715   0.415 -0.2539  0.0336 -0.4048
  648THF     H410765   4.799   4.963   0.473  0.5856 -0.4299  1.5933
  648THF     H510766   4.750   4.800   0.465  0.4244  0.2520  0.1464
  648THF     H610767   5.104   4.702   0.428 -0.0158  0.2971 -1.8504
  648THF     H710768   4.940   4.632   0.456  0.5447  0.0959  0.8789
  648THF     C810769   4.952   4.745   0.272 -0.0461 -0.1438  0.3876
  648THF     C910770   4.842   4.849   0.285 -0.0102  0.6581  0.3087
  648THF    H1010771   4.909   4.666   0.210  3.4312  0.8325 -3.7515
  648THF    H1110772   5.032   4.782   0.209 -0.1036  1.8371  1.3980
  648THF    H1210773   4.893   4.937   0.247  1.9822 -0.0213  1.2926
  648THF    H1310774   4.749   4.818   0.237  1.1282 -0.9216 -0.9694
  649THF     O110775   3.328   2.416   5.398  0.3133  0.7630 -0.0592
  649THF     C210776   3.197   2.415   5.350  0.4904 -0.2891  0.8310
  649THF     C310777   3.323   2.430   5.538 -0.3837  0.2509  0.4967
  649THF     H410778   3.158   2.313   5.347  1.8357 -0.8318 -1.7730
  649THF     H510779   3.188   2.444   5.245 -1.3148  1.0712  1.2943
  649THF     H610780   3.291   2.334   5.580  0.1773 -0.5054 -0.7720
  649THF     H710781   3.422   2.436   5.583 -0.9553 -1.9885  2.2099
  649THF     C810782   3.214   2.537   5.561 -0.1740  0.7663 -0.7414
  649THF     C910783   3.133   2.525   5.430  0.4612 -0.5404 -0.2454
  649THF    H1010784   3.253   2.639   5.562  0.1624  0.7060  2.1786
  649THF    H1110785   3.150   2.516   5.647 -0.3809  1.2259 -0.7758
  649THF    H1210786   3.033   2.489   5.457  1.4880 -3.0010  0.5707
  649THF    H1310787   3.138   2.621   5.379  0.8843  0.0911  0.9700
  650THF     O110788   4.209   4.741   2.395  0.4819  0.1321  0.4121
  650THF     C210789   4.073   4.778   2.423  0.0013  0.5069  0.0879
  650THF     C310790   4.222   4.608   2.442 -0.5617 -0.1072  0.3585
  650THF     H410791   4.024   4.837   2.346 -0.6933 -0.1137  0.0442
  650THF     H510792   4.073   4.843   2.511 -0.1025  0.7537 -0.0936
  650THF     H610793   4.311   4.558   2.406 -0.0815 -1.7001  3.4061
  650THF     H710794   4.235   4.610   2.550 -1.0981  0.4308  0.4196
  650THF     C810795   4.094   4.543   2.407 -0.1750  0.3987 -0.4453
  650THF     C910796   3.992   4.650   2.445  1.0352  0.4424 -0.2716
  650THF    H1010797   4.079   4.447   2.455 -0.3964  0.1311 -1.0391
  650THF    H1110798   4.092   4.524   2.300  0.8434  2.1515 -0.8237
  650THF    H1210799   3.903   4.656   2.383  1.7342  0.9925 -1.2606
  650THF    H1310800   3.963   4.633   2.549  0.4368  0.9438 -0.3498
  651THF     O110801   0.318   5.250   2.623  0.2493 -0.0380 -0.4192
  651THF     C210802   0.229   5.201   2.520  0.8940 -0.8500 -0.2919
  651THF     C310803   0.452   5.194   2.601 -0.4274  0.2554  0.0106
  651THF     H410804   0.232   5.252   2.423 -0.6225 -0.4606 -0.1599
  651THF     H510805   0.123   5.215   2.541  1.2155 -1.3313  1.8411
  651THF     H610806   0.499   5.254   2.523  0.0984  0.2497  0.3149
  651THF     H710807   0.520   5.192   2.687 -0.4953 -2.9716  0.1074
  651THF     C810808   0.409   5.063   2.551 -0.5003 -0.1602  0.1259
  651THF     C910809   0.266   5.059   2.509  0.1736 -0.3476 -0.5404
  651THF    H1010810   0.430   4.992   2.632 -2.3237 -0.6268  0.2314
  651THF    H1110811   0.465   5.025   2.466 -1.1920  1.6852 -1.1999
  651THF    H1210812   0.243   5.016   2.411 -2.2530  1.3476 -0.7994
  651THF    H1310813   0.204   5.006   2.581 -0.0914  0.5924 -0.0654
  652THF     O110814   0.262   1.448   4.297  0.7262  0.4270 -0.3562
  652THF     C210815   0.156   1.536   4.259 -0.4857 -0.4665 -0.0618
  652THF     C310816   0.342   1.524   4.393  0.5043  0.7292  0.1255
  652THF     H410817   0.075   1.475   4.220  0.5381 -0.0812 -3.0145
  652THF     H510818   0.178   1.601   4.174  0.4703 -0.8922 -0.1635
  652THF     H610819   0.410   1.464   4.453 -0.1406  0.6423  0.7910
  652THF     H710820   0.384   1.611   4.342 -0.8975  0.1066 -2.2604
  652THF     C810821   0.234   1.572   4.482  0.0592 -0.1054 -0.3116
  652THF     C910822   0.125   1.607   4.389  0.2421 -0.0125 -0.7199
  652THF    H1010823   0.257   1.646   4.559  0.5171 -0.3282 -0.2354
  652THF    H1110824   0.192   1.485   4.531 -0.7039 -0.4540 -1.5335
  652THF    H1210825   0.029   1.574   4.428  1.1941 -2.8825 -0.5499
  652THF    H1310826   0.110   1.713   4.371 -1.9753 -0.0908  0.4375
  653THF     O110827   4.896   1.309   3.980 -0.2717 -0.2451 -0.4611
  653THF     C210828   5.041   1.287   3.970 -0.3636  0.1604 -0.2495
  653THF     C310829   4.832   1.195   4.025 -0.6536 -0.2825 -0.0882
  653THF     H410830   5.087   1.323   4.061 -0.1026 -0.7472 -0.0053
  653THF     H510831   5.094   1.348   3.898 -2.3805  0.2749 -1.7305
  653THF     H610832   4.808   1.204   4.131  0.2530  1.8903 -0.0061
  653THF     H710833   4.741   1.186   3.967  0.5655 -1.4302 -1.9118
  653THF     C810834   4.930   1.082   3.989 -0.5288  0.3055  0.7487
  653THF     C910835   5.063   1.138   3.939 -0.3935 -0.0016  0.1222
  653THF    H1010836   4.886   1.012   3.917 -0.0252  0.1479  0.5940
  653THF    H1110837   4.946   1.012   4.070  0.0257 -3.2074 -2.1316
  653THF    H1210838   5.154   1.092   3.977 -1.2208 -2.3930 -0.6222
  653THF    H1310839   5.082   1.128   3.832  3.4334 -2.0813  0.8124
  654THF     O110840   3.614   3.841   1.184  0.2069 -0.5232  0.0081
  654THF     C210841   3.646   3.932   1.084  0.7079 -0.1778  0.0154
  654THF     C310842   3.674   3.724   1.151 -0.3160  0.3880 -0.3830
  654THF     H410843   3.746   3.955   1.120  0.7642 -1.4622  0.7565
  654THF     H510844   3.571   4.010   1.072  1.4689  0.3716 -1.3928
  654THF     H610845   3.773   3.713   1.194 -1.0484 -1.5380  0.9630
  654THF     H710846   3.613   3.647   1.199 -2.4347  0.8553 -2.1228
  654THF     C810847   3.659   3.704   1.002 -0.4329 -0.4685  0.1092
  654THF     C910848   3.660   3.854   0.956  1.3006  0.4013 -0.4118
  654THF    H1010849   3.559   3.665   0.982 -0.7029  1.3915 -2.6484
  654THF    H1110850   3.744   3.647   0.964 -0.7544 -0.9898  0.1519
  654THF    H1210851   3.748   3.883   0.899  0.4857  0.9313 -1.4223
  654THF    H1310852   3.585   3.865   0.878  1.2077 -1.8752 -0.7302
  655THF     O110853   4.645   1.945   3.801  0.6963 -0.2341 -0.1319
  655THF     C210854   4.558   2.055   3.824  0.7642 -0.3432  0.5163
  655THF     C310855   4.780   1.993   3.812  0.0723  0.2379  0.4630
  655THF     H410856   4.450   2.046   3.837  0.3482  2.0766 -0.6700
  655THF     H510857   4.553   2.107   3.728  2.1584  0.6878  0.9707
  655THF     H610858   4.849   1.909   3.818 -0.6481 -0.5473 -1.4721
  655THF     H710859   4.808   2.052   3.725  0.8938 -0.1885  0.4273
  655THF     C810860   4.770   2.074   3.935  0.0187 -0.3188 -0.0053
  655THF     C910861   4.628   2.130   3.937 -0.2460 -0.5851  0.6921
  655THF    H1010862   4.855   2.142   3.944  1.6940 -2.0123 -1.8893
  655THF    H1110863   4.768   2.007   4.021 -2.1799 -1.6427 -0.9945
  655THF    H1210864   4.578   2.118   4.034 -0.9662  0.7516  0.5034
  655THF    H1310865   4.632   2.236   3.912  0.6107 -0.6681  0.4530
  656THF     O110866   3.158   5.485   0.617  0.8080  0.5979  0.0314
  656THF     C210867   3.161   5.563   0.729  0.4831 -0.1261 -0.6461
  656THF     C310868   3.121   5.351   0.660 -0.2208 -0.4184  0.2079
  656THF     H410869   3.166   5.669   0.702  1.2010  0.8413  2.7102
  656THF     H510870   3.253   5.539   0.783  0.7651  0.2491 -0.9479
  656THF     H610871   3.111   5.275   0.583 -4.0616 -0.1275  0.2409
  656THF     H710872   3.208   5.318   0.717  0.4169  0.9254  0.0611
  656THF     C810873   3.015   5.378   0.760  1.3577 -0.1479 -0.3299
  656THF     C910874   3.035   5.516   0.809 -0.2874 -0.2694  0.4688
  656THF    H1010875   3.017   5.307   0.843 -0.4592  1.8682  1.5553
  656THF    H1110876   2.920   5.371   0.709  0.1124  2.1753  1.4639
  656THF    H1210877   2.956   5.585   0.780  2.1620  2.3381 -0.3842
  656THF    H1310878   3.042   5.515   0.917 -0.0537  0.1417  0.4589
  657THF     O110879   4.795   4.150   3.926  0.1901  0.3196 -0.2857
  657THF     C210880   4.772   4.113   4.060  0.3524 -0.6328  0.4234
  657THF     C310881   4.937   4.136   3.911  0.3611 -0.3227  0.1145
  657THF     H410882   4.666   4.095   4.077 -0.2650  2.2000 -0.0070
  657THF     H510883   4.801   4.196   4.124 -0.1152 -1.1938  1.3814
  657THF     H610884   4.971   4.135   3.807 -1.6979  2.7830 -0.6981
  657THF     H710885   4.994   4.219   3.953  2.7098 -2.0766  0.6205
  657THF     C810886   4.979   4.015   3.985  0.1470 -0.1460  0.0909
  657THF     C910887   4.863   3.997   4.079  0.9007 -0.4669 -0.4655
  657THF    H1010888   5.075   4.031   4.035 -0.3050 -1.1080  1.3431
  657THF    H1110889   4.983   3.933   3.913 -0.2910  1.4272 -1.7967
  657THF    H1210890   4.808   3.903   4.071 -2.7985  1.4000  0.8237
  657THF    H1310891   4.900   4.000   4.181 -1.6991 -3.5248  0.7129
  658THF     O110892   0.246   3.230   3.393 -0.1328  0.8810  0.1633
  658THF     C210893   0.153   3.332   3.385  0.7825  0.4855 -0.1770
  658THF     C310894   0.223   3.135   3.289 -0.2670 -0.6234 -0.3471
  658THF     H410895   0.180   3.418   3.446 -3.5233  1.0774  1.2909
  658THF     H510896   0.062   3.300   3.436  1.8685 -1.6068  0.5796
  658THF     H610897   0.309   3.070   3.268  1.8587  1.6930  0.6282
  658THF     H710898   0.142   3.072   3.325 -0.7710  0.8737  1.2923
  658THF     C810899   0.188   3.221   3.168 -0.6296  0.1684  0.2342
  658THF     C910900   0.125   3.346   3.235  0.0193 -0.4866  0.5664
  658THF    H1010901   0.112   3.168   3.112 -0.2057 -0.9016  0.6569
  658THF    H1110902   0.274   3.239   3.102 -0.5531 -0.0773  0.2678
  658THF    H1210903   0.167   3.440   3.199 -0.8490 -0.4587 -0.4327
  658THF    H1310904   0.018   3.349   3.213  0.3256 -0.4553 -1.0555
  659THF     O110905   4.454   1.800   0.519 -0.0986  0.0198  0.1449
  659THF     C210906   4.314   1.804   0.492 -0.6255 -0.5919  0.0596
  659THF     C310907   4.504   1.702   0.427 -0.2584 -0.1684  0.0920
  659THF     H410908   4.270   1.892   0.538 -1.3916 -1.4576  1.0321
  659THF     H510909   4.265   1.712   0.522  0.5723 -1.4615 -0.5499
  659THF     H610910   4.611   1.713   0.415 -0.2398 -2.0811 -2.5793
  659THF     H710911   4.486   1.597   0.451  2.8630 -1.5390 -2.7892
  659THF     C810912   4.434   1.725   0.290 -0.1477  0.2545  0.4217
  659THF     C910913   4.328   1.820   0.347  0.1802  0.5767 -0.3602
  659THF    H1010914   4.405   1.631   0.243  1.1195  0.3618 -0.6383
  659THF    H1110915   4.499   1.763   0.211 -0.7990 -0.0923 -0.2873
  659THF    H1210916   4.350   1.924   0.326 -0.3738  0.4965 -1.3946
  659THF    H1310917   4.236   1.808   0.289  1.2100 -0.0013 -1.9391
  660THF     O110918   0.963   4.862   4.052  0.0325 -0.3885 -0.0038
  660THF     C210919   0.986   4.723   4.080  0.1476  0.8298 -0.0336
  660THF     C310920   0.848   4.875   3.969  0.2265  0.4511 -0.2044
  660THF     H410921   0.925   4.696   4.166 -1.3129 -1.8237 -1.7556
  660THF     H510922   1.091   4.699   4.100 -1.0400 -3.8021  1.8411
  660THF     H610923   0.767   4.919   4.027  0.1250 -0.2330  0.1855
  660THF     H710924   0.869   4.949   3.892  1.0531  0.1570 -0.2802
  660THF     C810925   0.827   4.733   3.908 -0.4817  0.7998 -0.0673
  660THF     C910926   0.936   4.644   3.957 -0.0637  0.0190  0.1173
  660THF    H1010927   0.825   4.740   3.799 -0.6968 -1.1584 -0.2158
  660THF    H1110928   0.730   4.696   3.942 -0.6740 -0.2723 -1.7055
  660THF    H1210929   0.921   4.539   3.981  3.8265 -1.6553 -3.5804
  660THF    H1310930   1.010   4.637   3.878  0.3470 -1.1165  0.5797
  661THF     O110931   2.701   0.294   3.805 -0.6460  0.5399 -0.2680
  661THF     C210932   2.656   0.239   3.685 -0.4726 -0.5907 -1.5884
  661THF     C310933   2.698   0.433   3.805 -0.6922 -0.3232 -0.3444
  661THF     H410934   2.627   0.135   3.701  0.8753 -0.6736  0.6565
  661THF     H510935   2.737   0.247   3.612  0.2356  1.0447 -0.6657
  661THF     H610936   2.685   0.477   3.904  0.2979 -1.6928  0.4372
  661THF     H710937   2.794   0.472   3.772  0.0555 -1.1927  0.7261
  661THF     C810938   2.587   0.468   3.702  0.3872 -0.1920  0.0029
  661THF     C910939   2.539   0.335   3.658 -0.9673 -0.0901 -0.1407
  661THF    H1010940   2.612   0.530   3.616 -0.6487 -0.8071 -0.7587
  661THF    H1110941   2.508   0.518   3.758  0.4714 -1.0366  0.9049
  661THF    H1210942   2.453   0.299   3.715 -0.0103  0.8874  2.0107
  661THF    H1310943   2.512   0.343   3.553 -3.3861 -0.9062  0.3404
  662THF     O110944   2.161   3.705   2.478 -0.2433 -0.4201  0.6201
  662THF     C210945   2.132   3.840   2.471 -0.4598 -0.4263 -0.2943
  662THF     C310946   2.220   3.660   2.362 -0.0350  0.4167  0.9195
  662THF     H410947   2.130   3.881   2.573  0.7028  1.0994 -0.8431
  662THF     H510948   2.031   3.855   2.435 -0.8773 -2.0394  0.1593
  662THF     H610949   2.275   3.567   2.373  1.8091  1.2695 -0.4804
  662THF     H710950   2.152   3.632   2.281  1.7293  0.0613 -0.5235
  662THF     C810951   2.314   3.773   2.317 -0.1595 -0.6284 -0.1389
  662THF     C910952   2.248   3.897   2.383  0.5316  0.2052  0.0182
  662THF    H1010953   2.316   3.776   2.208 -0.2042  1.5352 -0.1213
  662THF    H1110954   2.415   3.767   2.358  0.2588  0.2863 -0.9932
  662THF    H1210955   2.325   3.943   2.445 -0.2537 -0.2037  1.3355
  662THF    H1310956   2.214   3.982   2.324 -0.2862  2.4939  3.4446
  663THF     O110957   3.757   0.506   0.009  0.0282 -0.7619  0.4388
  663THF     C210958   3.616   0.509  -0.004  0.8725 -0.4752  0.6485
  663THF     C310959   3.814   0.439  -0.107 -0.2556  0.1878  0.1353
  663THF     H410960   3.604   0.603  -0.057  1.3517 -1.0335 -0.4873
  663THF     H510961   3.572   0.522   0.095 -1.0873 -1.2233 -0.0652
  663THF     H610962   3.806   0.509  -0.190  1.4167  2.2475  1.6035
  663THF     H710963   3.914   0.406  -0.079 -1.4797 -2.5137  1.7232
  663THF     C810964   3.715   0.325  -0.114  0.3908 -0.0562  0.1778
  663THF     C910965   3.579   0.391  -0.081 -0.0219 -0.0194 -0.1807
  663THF    H1010966   3.741   0.256  -0.034 -0.1524  1.4691  1.7356
  663THF    H1110967   3.710   0.261  -0.202 -0.8312  0.7211 -0.3400
  663THF    H1210968   3.522   0.405  -0.173 -1.5905 -1.8321  0.4425
  663THF    H1310969   3.519   0.322  -0.021 -0.7228  1.4509  0.8462
  664THF     O110970   1.409   3.546   0.049  0.0496  0.2417  0.5332
  664THF     C210971   1.452   3.419  -0.004  0.4967  0.4718  0.7056
  664THF     C310972   1.267   3.541   0.037  0.6019 -0.3946  0.0217
  664THF     H410973   1.557   3.405   0.021  0.9144  1.6273 -0.3073
  664THF     H510974   1.446   3.408  -0.112  1.0435  1.0783  0.6072
  664THF     H610975   1.215   3.618   0.093  2.6436  2.0258 -1.2176
  664THF     H710976   1.239   3.543  -0.069 -1.8959 -0.6562  0.6125
  664THF     C810977   1.235   3.404   0.102 -0.2949 -0.0863  0.2035
  664THF     C910978   1.360   3.319   0.067  0.6055 -1.0012 -0.1375
  664THF    H1010979   1.150   3.357   0.053 -0.2763  1.1980 -1.1478
  664THF    H1110980   1.232   3.407   0.211  1.4693  0.3022  0.2621
  664THF    H1210981   1.408   3.295   0.162  1.6160  1.0791 -0.0767
  664THF    H1310982   1.340   3.224   0.018  2.4789 -2.2132  1.3051
  665THF     O110983   0.215   4.739   3.242 -0.4441  0.4301 -0.4979
  665THF     C210984   0.277   4.839   3.166  0.1501  0.2162 -0.4678
  665THF     C310985   0.183   4.638   3.144 -0.6272  0.2023 -0.2041
  665THF     H410986   0.385   4.827   3.153  0.3664  0.0019  1.3067
  665THF     H510987   0.259   4.937   3.210 -0.6035 -0.5646  1.0568
  665THF     H610988   0.232   4.541   3.155  1.6318  1.3948  0.9813
  665THF     H710989   0.077   4.614   3.147 -1.3696  3.1345 -0.1126
  665THF     C810990   0.208   4.689   3.005  0.2162  0.1132 -0.0450
  665THF     C910991   0.208   4.836   3.037  0.0868  0.2603  0.8678
  665THF    H1010992   0.144   4.652   2.925 -0.8387  1.7324 -0.0046
  665THF    H1110993   0.314   4.669   2.988  0.2355  0.8756 -0.8833
  665THF    H1210994   0.263   4.898   2.966  0.4981 -0.2316  0.7507
  665THF    H1310995   0.113   4.888   3.052  0.9500  1.7120  1.5047
  666THF     O110996   4.040   2.613   2.179 -0.4558 -0.1967  0.2992
  666THF     C210997   4.033   2.493   2.252 -0.3126  0.8887 -0.4036
  666THF     C310998   4.152   2.605   2.098 -0.1875  0.1917  0.4553
  666THF     H410999   3.992   2.411   2.192  1.5694 -1.3133  1.1088
  666THF     H511000   3.971   2.502   2.341 -0.0495  3.0004 -0.3989
  666THF     H611001   4.129   2.546   2.010 -1.1181 -0.1622  0.9206
  666THF     H711002   4.187   2.705   2.073  0.1391  0.0394  0.3051
  666THF     C811003   4.261   2.543   2.180 -0.3816  0.1269  0.2765
  666THF     C911004   4.179   2.458   2.276 -0.5674 -0.8191 -0.8313
  666THF    H1011005   4.327   2.613   2.233  0.3427  0.2106 -0.7125
  666THF    H1111006   4.321   2.486   2.110  0.6492  3.7040 -2.0280
  666THF    H1211007   4.209   2.353   2.263  0.0426 -1.1250  2.1960
  666THF    H1311008   4.196   2.492   2.378 -1.2057 -0.3505 -0.8807
  667THF     O111009   5.302   0.845   1.919 -0.7396 -0.3861 -0.4225
  667THF     C211010   5.300   0.716   1.866  0.0566 -0.1295 -0.4639
  667THF     C311011   5.385   0.921   1.828 -0.0560 -0.7854 -0.0699
  667THF     H411012   5.209   0.671   1.907 -0.8439  1.9644 -0.0235
  667THF     H511013   5.391   0.665   1.894  0.8678  0.3734 -2.0425
  667THF     H611014   5.361   1.027   1.831  2.2964 -0.1808 -0.5929
  667THF     H711015   5.490   0.914   1.856 -0.2506 -0.4650  0.7720
  667THF     C811016   5.342   0.869   1.694 -0.6231  0.1182  0.0321
  667THF     C911017   5.293   0.730   1.716 -0.5018  0.1933 -0.1468
  667THF    H1011018   5.419   0.876   1.617 -0.4557  2.1215  0.3319
  667THF    H1111019   5.257   0.931   1.664 -0.1607  0.7644  0.0266
  667THF    H1211020   5.192   0.713   1.679 -1.0332 -0.4519  1.5165
  667THF    H1311021   5.355   0.652   1.670 -0.0758 -0.2305  1.1024
  668THF     O111022   3.004   1.108   4.603 -0.4562  0.4793 -0.4513
  668THF     C211023   3.057   1.205   4.690  0.4312  0.8367 -0.3684
  668THF     C311024   2.862   1.143   4.597 -0.2562  0.1400 -0.6336
  668THF     H411025   3.163   1.194   4.708 -0.0278 -3.0601  0.7621
  668THF     H511026   3.008   1.180   4.784 -0.6022  1.5183 -0.7037
  668THF     H611027   2.808   1.091   4.519  1.2849 -1.3098 -0.7943
  668THF     H711028   2.807   1.104   4.683  1.2635  2.3498  1.4904
  668THF     C811029   2.868   1.293   4.576  0.0703 -0.3683 -0.4762
  668THF     C911030   2.997   1.334   4.639 -0.0461 -0.5514 -0.2632
  668THF    H1011031   2.781   1.344   4.617 -1.6074 -2.7858 -0.8602
  668THF    H1111032   2.858   1.308   4.469  0.0984 -2.4753 -0.8094
  668THF    H1211033   3.053   1.373   4.554 -2.9861 -0.0161 -2.0572
  668THF    H1311034   2.993   1.415   4.712  1.5594  0.3694 -1.1363
  669THF     O111035   3.688   3.226   1.051 -0.4541  0.2914  0.2452
  669THF     C211036   3.733   3.094   1.076  0.3424  0.7676 -0.6727
  669THF     C311037   3.636   3.221   0.916  0.4696  0.1606 -0.5021
  669THF     H411038   3.730   3.076   1.184 -2.0565 -0.6626 -0.9038
  669THF     H511039   3.827   3.072   1.026  0.0115  0.8445 -1.3361
  669THF     H611040   3.557   3.295   0.905 -1.8269 -2.2403 -1.0552
  669THF     H711041   3.710   3.225   0.836  0.5091 -1.8460 -0.5957
  669THF     C811042   3.571   3.085   0.905  0.5444  0.2509  0.1593
  669THF     C911043   3.629   3.005   1.015 -0.3740 -0.1347  0.1498
  669THF    H1011044   3.592   3.037   0.809 -1.6949 -0.3561 -0.0872
  669THF    H1111045   3.462   3.086   0.912  0.5289 -2.1354  1.2684
  669THF    H1211046   3.553   2.982   1.089 -0.1755  1.1730  0.7899
  669THF    H1311047   3.662   2.909   0.975  0.0874 -0.1083  0.4691
  670THF     O111048   5.268   3.982   2.203 -0.1757 -0.3396  0.1032
  670THF     C211049   5.373   4.070   2.242 -0.4282 -0.6496  0.0053
  670THF     C311050   5.169   4.002   2.307 -0.5015 -0.0290  0.2962
  670THF     H411051   5.428   4.096   2.151  0.1377  1.9233  0.9898
  670THF     H511052   5.443   4.029   2.314  0.8287 -2.5097 -2.1401
  670THF     H611053   5.073   3.962   2.272 -0.7533  2.3555 -2.0616
  670THF     H711054   5.201   3.961   2.403  0.5290  3.2525  1.4655
  670THF     C811055   5.160   4.151   2.318  0.4901 -0.4732  0.1936
  670THF     C911056   5.306   4.198   2.291 -0.3998  0.0172 -0.7590
  670THF    H1011057   5.142   4.191   2.418  1.4688  1.7092 -0.4362
  670THF    H1111058   5.106   4.207   2.242  1.9036  0.9906  0.2084
  670THF    H1211059   5.323   4.268   2.208  0.7361  1.6790  0.7994
  670THF    H1311060   5.356   4.246   2.375  0.9011  2.2505 -2.6876
  671THF     O111061   1.623   0.225   1.098  0.0609 -0.2369 -0.0801
  671THF     C211062   1.652   0.269   0.968  0.3365  0.2621  0.5144
  671THF     C311063   1.596   0.091   1.096 -0.4892  0.1626  0.3079
  671THF     H411064   1.695   0.369   0.976 -0.9999  0.8143  1.0404
  671THF     H511065   1.563   0.286   0.909 -0.5953 -3.3106  0.6573
  671THF     H611066   1.588   0.044   1.194 -0.3423  0.1603  0.3187
  671THF     H711067   1.501   0.070   1.046  0.7399 -3.8392 -0.7330
  671THF     C811068   1.709   0.043   1.006  0.3066 -0.1332 -0.3508
  671THF     C911069   1.736   0.156   0.910 -0.4339  1.8492  0.1477
  671THF    H1011070   1.694  -0.056   0.962 -0.1141  0.7201 -2.2051
  671THF    H1111071   1.790   0.036   1.078 -0.4771  0.9511  0.6922
  671THF    H1211072   1.835   0.174   0.869 -0.5923  0.1273 -1.1041
  671THF    H1311073   1.693   0.113   0.820  1.4514  0.8300 -0.3256
  672THF     O111074   5.373   5.243   2.134  0.2286 -0.4931 -0.0623
  672THF     C211075   5.243   5.293   2.097  0.0472  0.4445  0.3368
  672THF     C311076   5.359   5.105   2.174  0.4696 -0.6169  0.2273
  672THF     H411077   5.227   5.264   1.993  0.5696 -3.4351  1.1923
  672THF     H511078   5.239   5.399   2.122 -2.2604  0.1194  1.5756
  672THF     H611079   5.340   5.033   2.095 -0.5859 -2.1178  1.7655
  672THF     H711080   5.452   5.089   2.228  2.5509 -0.3303 -3.0530
  672THF     C811081   5.231   5.109   2.257 -0.8081 -0.0066  0.7433
  672THF     C911082   5.150   5.218   2.185 -0.2459  0.0860 -0.0075
  672THF    H1011083   5.270   5.144   2.352  2.0130 -0.7726 -0.0341
  672THF    H1111084   5.184   5.013   2.279  0.9136 -0.8753  0.7874
  672THF    H1211085   5.074   5.169   2.124 -1.0599  1.0797  0.1925
  672THF    H1311086   5.105   5.281   2.261  0.8582  0.3660  0.4435
  673THF     O111087   2.058   4.099   5.021 -0.2763  0.0257 -0.0280
  673THF     C211088   1.956   4.199   5.009  0.4054 -0.0851  0.2912
  673THF     C311089   2.171   4.143   4.946 -0.3667 -0.7240  0.2413
  673THF     H411090   1.877   4.179   5.081  0.2736  0.2919  0.2513
  673THF     H511091   1.914   4.199   4.909 -0.1856  2.3035  0.4984
  673THF     H611092   2.259   4.114   5.002  0.6886  0.9436 -0.4933
  673THF     H711093   2.175   4.087   4.853 -0.7457  0.3818 -0.4661
  673THF     C811094   2.153   4.298   4.946 -0.0335 -0.1217 -0.1714
  673THF     C911095   2.027   4.329   5.041 -0.2189  0.5828  0.9812
  673THF    H1011096   2.129   4.330   4.845 -2.0929  0.5169  0.4711
  673THF    H1111097   2.239   4.359   4.971  0.1919 -0.6796  0.4520
  673THF    H1211098   2.049   4.333   5.147 -1.9699 -0.0202  1.4026
  673THF    H1311099   1.986   4.424   5.007 -0.3540  0.1562 -0.1054
  674THF     O111100   1.440   1.330   2.246 -0.3344 -0.0856 -0.1948
  674THF     C211101   1.574   1.341   2.298  0.4977  1.0239 -0.0402
  674THF     C311102   1.429   1.361   2.110 -0.3107  0.1385  0.1213
  674THF     H411103   1.615   1.242   2.276  1.5572  1.3896  0.2103
  674THF     H511104   1.584   1.361   2.404 -0.8094  0.2190  0.2509
  674THF     H611105   1.456   1.272   2.054 -0.2008 -0.7986  1.6175
  674THF     H711106   1.333   1.397   2.073  0.9827  1.6822 -2.0253
  674THF     C811107   1.543   1.455   2.080 -0.7022 -0.3992  0.7374
  674THF     C911108   1.621   1.461   2.214  0.0878 -0.7258 -0.0127
  674THF    H1011109   1.493   1.547   2.050  1.2266 -0.4567 -3.4033
  674THF    H1111110   1.616   1.424   2.005 -1.8061 -1.0056 -0.1118
  674THF    H1211111   1.728   1.460   2.191 -0.1462 -2.5347 -1.2056
  674THF    H1311112   1.601   1.554   2.267  2.1734  0.3638 -1.0038
  675THF     O111113   4.337   4.604   4.347 -0.1191 -0.1884 -0.4332
  675THF     C211114   4.407   4.490   4.390 -0.0481  0.4663  0.0887
  675THF     C311115   4.352   4.629   4.209  0.1213 -0.5382 -0.3149
  675THF     H411116   4.341   4.404   4.382  0.4773 -0.1117  1.7298
  675THF     H511117   4.435   4.502   4.494  1.0891 -0.7626 -0.0542
  675THF     H611118   4.262   4.583   4.167  1.1158 -1.2748 -1.7087
  675THF     H711119   4.368   4.728   4.169 -0.9052 -0.6333 -1.0139
  675THF     C811120   4.472   4.545   4.168  0.2934 -0.4592 -0.4809
  675THF     C911121   4.524   4.481   4.292  0.3229  0.5598 -0.2278
  675THF    H1011122   4.555   4.607   4.134  0.1711  0.4662  0.8263
  675THF    H1111123   4.439   4.480   4.088 -0.8900  0.1154 -0.4832
  675THF    H1211124   4.541   4.375   4.275 -0.6955  0.1329  1.2452
  675THF    H1311125   4.603   4.544   4.334 -1.4589  1.6674  1.6588
  676THF     O111126   4.557   1.847   1.809 -0.2772  0.5313 -0.5616
  676THF     C211127   4.638   1.762   1.892  0.0538  0.2270 -0.3087
  676THF     C311128   4.466   1.904   1.904  0.5044 -0.4036  0.2207
  676THF     H411129   4.714   1.833   1.926  0.3938 -0.1039 -0.3801
  676THF     H511130   4.681   1.674   1.843 -1.5942 -1.3094  0.9063
  676THF     H611131   4.517   1.979   1.965 -1.6097 -0.4834  2.2037
  676THF     H711132   4.381   1.948   1.853  0.0199 -1.4105  0.1401
  676THF     C811133   4.423   1.777   1.988  0.9531 -0.0096  0.5529
  676THF     C911134   4.548   1.699   1.996 -0.1189 -0.5891  0.3010
  676THF    H1011135   4.346   1.717   1.940 -1.8673  2.3934  1.7495
  676THF    H1111136   4.395   1.818   2.084  1.1538 -0.0708  0.6377
  676THF    H1211137   4.604   1.698   2.089  2.7589  0.6268 -1.2750
  676THF    H1311138   4.523   1.596   1.969 -0.0254 -0.9282  1.4495
  677THF     O111139   3.172   2.851   3.637  0.4131 -0.6693  0.2704
  677THF     C211140   3.287   2.931   3.643 -0.2802  0.3241 -0.1653
  677THF     C311141   3.184   2.796   3.511  0.3253 -0.2213  0.4526
  677THF     H411142   3.379   2.873   3.641 -0.2645  0.3563 -0.3544
  677THF     H511143   3.294   2.990   3.735  1.2689  1.2023 -0.8166
  677THF     H611144   3.255   2.713   3.508 -1.0464 -1.6245  3.0941
  677THF     H711145   3.091   2.746   3.484  0.9169 -1.1987  0.1878
  677THF     C811146   3.203   2.920   3.421 -0.5017 -0.0304 -0.3371
  677THF     C911147   3.286   3.018   3.514  0.1170  0.1946  0.3131
  677THF    H1011148   3.112   2.961   3.377  0.5824  1.4492 -1.2968
  677THF    H1111149   3.260   2.886   3.335  0.7791  0.1901  0.3845
  677THF    H1211150   3.387   3.030   3.473 -0.0932 -0.7115 -0.4983
  677THF    H1311151   3.241   3.117   3.523  0.0811  0.1633  0.4651
  678THF     O111152   0.935   0.545   0.091  0.0222  0.5247 -0.4574
  678THF     C211153   0.805   0.535   0.035 -0.0919 -0.0799  0.1774
  678THF     C311154   0.923   0.663   0.178 -0.3692 -0.4099  0.3656
  678THF     H411155   0.795   0.439  -0.015  0.8418  1.3879 -3.1422
  678THF     H511156   0.786   0.617  -0.035 -0.4004  1.3154  1.8121
  678THF     H611157   0.998   0.679   0.255 -0.2186  2.3902 -0.2576
  678THF     H711158   0.924   0.750   0.112  1.1508  0.1973  1.1360
  678THF     C811159   0.779   0.660   0.237 -0.0403  0.4513  0.0708
  678THF     C911160   0.707   0.556   0.150 -0.2373 -0.2463  0.3236
  678THF    H1011161   0.739   0.761   0.226  0.9746  0.8191 -0.4575
  678THF    H1111162   0.766   0.622   0.338 -1.1673 -0.4995 -0.4080
  678THF    H1211163   0.698   0.466   0.211  1.2742 -1.1918 -0.7937
  678THF    H1311164   0.609   0.589   0.115  0.2319  1.0279  0.1655
  679THF     O111165   4.037   3.126   0.200 -0.4214 -0.5045 -0.0770
  679THF     C211166   3.901   3.143   0.226  0.1813  0.0709 -0.0616
  679THF     C311167   4.054   2.987   0.192 -0.1991 -0.2991 -0.3767
  679THF     H411168   3.869   3.247   0.211 -2.8879 -0.7839 -0.2198
  679THF     H511169   3.870   3.120   0.328 -1.4039  0.2148 -0.4855
  679THF     H611170   4.148   2.952   0.149  0.0845 -1.9020  1.3696
  679THF     H711171   4.038   2.935   0.287  1.9663 -0.7117 -0.1691
  679THF     C811172   3.938   2.950   0.098  0.2535  0.0823 -0.3934
  679THF     C911173   3.828   3.054   0.126  0.0607  0.3182 -0.3939
  679THF    H1011174   3.911   2.847   0.125  0.5161 -0.1671 -1.0556
  679THF    H1111175   3.974   2.937  -0.004  0.9560 -1.3057 -0.0023
  679THF    H1211176   3.805   3.103   0.031  0.6542  1.2833 -0.0569
  679THF    H1311177   3.739   3.009   0.170  1.3866 -2.9927 -0.7758
  680THF     O111178   1.449   1.175   0.719 -0.0042  0.3773  0.1666
  680THF     C211179   1.343   1.081   0.735  0.8533  1.1737  0.1048
  680THF     C311180   1.486   1.230   0.838  0.5341 -0.0285 -0.1039
  680THF     H411181   1.386   0.996   0.788 -0.2376  1.3621  1.3388
  680THF     H511182   1.290   1.050   0.644  0.2193  1.7062  0.2878
  680THF     H611183   1.575   1.177   0.869 -0.1218 -0.2846  1.3973
  680THF     H711184   1.501   1.337   0.820 -3.1044  0.6719  0.2035
  680THF     C811185   1.373   1.203   0.937  0.3496  0.2446  0.3536
  680THF     C911186   1.261   1.156   0.842 -0.0547  0.6466  0.5485
  680THF    H1011187   1.353   1.298   0.986  0.7154  0.4676  0.0759
  680THF    H1111188   1.412   1.124   1.002 -0.1590 -0.0652  0.2846
  680THF    H1211189   1.183   1.101   0.893  0.0886  0.3756  0.4774
  680THF    H1311190   1.219   1.247   0.797 -0.5237  1.4443  2.5242
  681THF     O111191   2.995   3.425   2.534 -0.4988  0.0104 -0.9346
  681THF     C211192   2.990   3.385   2.405  0.2234 -0.3136 -0.0228
  681THF     C311193   3.025   3.309   2.610 -0.4685 -0.4554  0.3808
  681THF     H411194   2.970   3.470   2.340 -0.6263  0.8010  1.6432
  681THF     H511195   2.905   3.319   2.392  1.1213 -1.9939  2.0256
  681THF     H611196   3.045   3.336   2.714 -1.4636 -1.9024  0.9663
  681THF     H711197   2.940   3.242   2.617 -0.2550 -0.7787 -0.0700
  681THF     C811198   3.129   3.237   2.531 -0.1449  0.1795  0.1667
  681THF     C911199   3.114   3.298   2.386 -0.5218  0.1949 -0.4344
  681THF    H1011200   3.116   3.129   2.518 -2.2126  0.3488  0.5101
  681THF    H1111201   3.222   3.266   2.580 -0.1961  2.4592 -0.9684
  681THF    H1211202   3.199   3.361   2.363  0.4257 -0.9052 -0.0452
  681THF    H1311203   3.092   3.226   2.307  0.0794 -1.7365  1.0714
  682THF     O111204   4.738   0.044   0.574 -0.4280 -0.3213  0.1910
  682THF     C211205   4.859   0.100   0.512  0.5160 -0.7164  0.0458
  682THF     C311206   4.672  -0.028   0.472 -0.0656 -0.1021  0.1241
  682THF     H411207   4.929   0.128   0.590 -1.3790  0.9037  1.2794
  682THF     H511208   4.837   0.187   0.450 -1.4735 -1.5006 -0.4396
  682THF     H611209   4.600  -0.101   0.509 -0.1380 -1.5674 -2.6446
  682THF     H711210   4.629   0.050   0.408  0.8737  1.0481  0.8437
  682THF     C811211   4.790  -0.096   0.397 -0.6560  0.3494  0.1395
  682THF     C911212   4.914  -0.021   0.435  0.3554 -0.0213 -0.6761
  682THF    H1011213   4.772  -0.102   0.290 -0.0835  0.4374  0.0317
  682THF    H1111214   4.807  -0.200   0.427  2.3023  0.4837 -0.7180
  682THF    H1211215   4.968  -0.073   0.514 -0.8120  0.2473  0.3447
  682THF    H1311216   4.975   0.006   0.349 -1.0290 -1.1352 -2.0575
  683THF     O111217   3.230   1.980   1.571 -0.2557  0.6291  0.1733
  683THF     C211218   3.272   1.888   1.669 -0.3517 -0.2569 -0.0297
  683THF     C311219   3.096   1.949   1.527 -0.3704  0.1345 -0.1973
  683THF     H411220   3.202   1.908   1.750 -0.8471 -0.6756 -0.3478
  683THF     H511221   3.361   1.895   1.731 -0.8498 -0.0742  0.6724
  683THF     H611222   3.031   1.966   1.612  1.8610 -0.1249  1.6560
  683THF     H711223   3.073   2.004   1.436 -1.8496 -2.3362 -1.4122
  683THF     C811224   3.114   1.795   1.511  0.3085 -0.0993  0.9573
  683THF     C911225   3.240   1.756   1.594 -0.0836  0.8648 -0.3847
  683THF    H1011226   3.135   1.764   1.409  1.7523 -0.8564  1.4603
  683THF    H1111227   3.021   1.757   1.553 -0.8363  0.3723 -1.0410
  683THF    H1211228   3.229   1.674   1.665 -0.2918  1.9786  0.9296
  683THF    H1311229   3.313   1.731   1.516 -0.4963  0.9610 -0.8023
  684THF     O111230   4.826   3.610   3.480 -1.1533  0.0036 -0.0061
  684THF     C211231   4.757   3.527   3.384 -0.8651  0.1824 -0.2060
  684THF     C311232   4.757   3.645   3.592 -0.6017 -0.3671  0.2962
  684THF     H411233   4.815   3.435   3.391  0.2811  0.8720 -0.2197
  684THF     H511234   4.759   3.563   3.281  1.3036 -0.0329 -0.2905
  684THF     H611235   4.818   3.662   3.680 -0.0706 -0.7937  0.0147
  684THF     H711236   4.703   3.739   3.576 -1.0130 -0.4827  0.9540
  684THF     C811237   4.664   3.529   3.603 -0.3152 -0.3633 -0.3380
  684THF     C911238   4.621   3.505   3.455  0.1437  0.6452 -0.5068
  684THF    H1011239   4.580   3.546   3.671 -0.8792  0.2186 -1.1612
  684THF    H1111240   4.714   3.442   3.648 -1.0575  0.5387  2.4521
  684THF    H1211241   4.574   3.408   3.442  0.7509  0.3577 -0.5838
  684THF    H1311242   4.554   3.584   3.419 -1.1924  0.8935  2.2601
  685THF     O111243   1.004   3.998   0.462 -0.0855 -0.1058 -0.4113
  685THF     C211244   1.078   3.997   0.585 -0.3711 -0.1515 -0.5406
  685THF     C311245   0.894   4.087   0.470 -0.2858 -0.2539  0.6558
  685THF     H411246   1.182   4.017   0.560 -0.9973  0.6964 -2.7053
  685THF     H511247   1.068   3.894   0.619 -1.3678 -0.7565 -2.4860
  685THF     H611248   0.873   4.119   0.368  1.1392 -0.9794  0.1107
  685THF     H711249   0.809   4.024   0.496  0.0449 -0.8812  0.2463
  685THF     C811250   0.942   4.187   0.569  0.4398 -0.0333  0.9563
  685THF     C911251   1.015   4.102   0.671  0.7392  0.2337  0.4717
  685THF    H1011252   0.857   4.245   0.603 -0.7451 -0.8015 -0.5524
  685THF    H1111253   1.011   4.257   0.522  0.7609 -0.3991  0.8706
  685THF    H1211254   1.085   4.152   0.739  0.5147  0.2810  0.6679
  685THF    H1311255   0.943   4.061   0.741  0.7498 -0.4923  0.0715
  686THF     O111256   3.652   3.518   2.212 -0.4832 -0.3669  0.1787
  686THF     C211257   3.694   3.538   2.078 -0.1760  0.0274 -0.5500
  686THF     C311258   3.615   3.644   2.270 -0.9730  0.4697  0.3713
  686THF     H411259   3.607   3.524   2.014 -0.0101 -0.7666 -0.6106
  686THF     H511260   3.768   3.461   2.058 -0.2731 -0.2465  0.1301
  686THF     H611261   3.512   3.626   2.301 -1.2470 -1.7504 -1.5895
  686THF     H711262   3.657   3.679   2.364 -0.0003  0.9647 -0.2354
  686THF     C811263   3.638   3.755   2.167 -0.0377 -0.1917 -0.3292
  686THF     C911264   3.747   3.689   2.073 -0.2011 -0.2892  0.2922
  686THF    H1011265   3.662   3.846   2.222 -0.5896  0.4587 -1.1492
  686THF    H1111266   3.554   3.771   2.099 -0.9516  1.9923  1.2270
  686THF    H1211267   3.755   3.732   1.974 -0.1234  0.5275  0.6483
  686THF    H1311268   3.845   3.696   2.122 -0.0897  0.0845  0.0204
  687THF     O111269   2.972   2.306   2.503 -0.3432 -0.3674 -0.2104
  687THF     C211270   2.960   2.364   2.636  0.8098  0.0757  0.4342
  687THF     C311271   3.005   2.410   2.415  0.4101  0.3345  0.4632
  687THF     H411272   2.975   2.286   2.710  2.0205  1.0072  1.1929
  687THF     H511273   2.864   2.410   2.659  0.6899  0.1609 -0.2191
  687THF     H611274   3.039   2.367   2.321 -0.8332  0.7902 -0.2083
  687THF     H711275   2.906   2.450   2.395  0.2424 -0.6853 -0.8807
  687THF     C811276   3.099   2.495   2.497  0.0619  0.0334 -0.2872
  687THF     C911277   3.076   2.458   2.644  0.0794  0.1518  0.4351
  687THF    H1011278   3.084   2.600   2.472  0.0916  0.1028 -0.0241
  687THF    H1111279   3.204   2.471   2.482  0.5066  1.6939 -0.1313
  687THF    H1211280   3.164   2.411   2.688  0.3096 -0.7425 -0.8996
  687THF    H1311281   3.049   2.546   2.702 -1.0206 -1.0106  1.7612
  688THF     O111282   0.337   0.985   3.890  0.0075 -0.0890  0.7481
  688THF     C211283   0.276   1.078   3.981  0.0466  0.1082 -0.0720
  688THF     C311284   0.476   1.022   3.890 -0.1581 -0.5916  0.1594
  688THF     H411285   0.295   1.059   4.087  0.6459 -2.2922 -0.5437
  688THF     H511286   0.171   1.063   3.956  0.2473  0.5449 -1.2215
  688THF     H611287   0.517   0.998   3.988  2.4056  0.8106 -0.4945
  688THF     H711288   0.531   0.958   3.821  0.2757  0.4016 -0.4322
  688THF     C811289   0.466   1.169   3.867  0.1136  0.4471  0.6362
  688THF     C911290   0.338   1.213   3.938 -0.8574 -0.4145 -0.0547
  688THF    H1011291   0.456   1.180   3.759  0.9293  0.4934  0.5598
  688THF    H1111292   0.554   1.226   3.897  1.1978 -1.0454  0.3878
  688THF    H1211293   0.353   1.269   4.030 -0.9804  0.9742 -0.8543
  688THF    H1311294   0.270   1.262   3.868 -0.7546  1.4026  1.0563
  689THF     O111295   2.184   1.813   0.652  0.1931  0.0491  0.7347
  689THF     C211296   2.183   1.757   0.783  0.5100 -0.6578  0.1362
  689THF     C311297   2.045   1.832   0.606  0.1040 -0.0109 -0.7666
  689THF     H411298   2.277   1.773   0.836  0.7989 -0.2033 -0.4896
  689THF     H511299   2.152   1.653   0.782  1.0377 -0.8351 -1.5081
  689THF     H611300   2.048   1.899   0.520 -0.3649  0.8691 -0.1172
  689THF     H711301   2.002   1.733   0.590 -3.3142  1.0365  0.9268
  689THF     C811302   1.970   1.879   0.731  0.0514  0.1012  0.3781
  689THF     C911303   2.058   1.830   0.848  0.5825  0.2102  0.1938
  689THF    H1011304   1.867   1.843   0.731  0.5589 -1.4076  0.1365
  689THF    H1111305   1.956   1.987   0.725 -0.6516  0.0559  1.0182
  689THF    H1211306   2.095   1.912   0.910  1.8254 -0.3286  0.1915
  689THF    H1311307   2.006   1.764   0.917  1.3680  0.5403  1.1220
  690THF     O111308   1.585   3.051   1.099 -0.6217  0.4444  0.6626
  690THF     C211309   1.456   3.101   1.080 -0.5604 -0.5363  0.1159
  690THF     C311310   1.597   2.974   1.222 -0.3512 -0.3429  0.3619
  690THF     H411311   1.419   3.033   1.003 -1.8684 -0.8672  0.9912
  690THF     H511312   1.468   3.207   1.057 -0.4545 -0.3946  0.7876
  690THF     H611313   1.562   2.873   1.202 -0.2388 -0.0360 -1.5399
  690THF     H711314   1.701   2.987   1.254 -0.1918  2.3426 -0.9698
  690THF     C811315   1.508   3.057   1.320 -0.6055 -0.5077  0.7359
  690THF     C911316   1.392   3.081   1.219 -1.1235  0.3940 -0.0929
  690THF    H1011317   1.555   3.151   1.348  1.2047 -1.5158  1.2575
  690THF    H1111318   1.476   3.002   1.408 -1.3921  0.8530  1.3226
  690THF    H1211319   1.325   2.996   1.217 -1.3244  0.5148 -2.5402
  690THF    H1311320   1.328   3.165   1.244 -1.0585 -0.0542  1.6484
  691THF     O111321   3.003   4.575   4.475 -0.1167  0.0278  0.4164
  691THF     C211322   2.922   4.552   4.592 -0.0384  0.4091 -0.4670
  691THF     C311323   3.019   4.720   4.462  0.2441 -0.1590 -0.2295
  691THF     H411324   2.986   4.505   4.666 -0.8037 -0.9644 -0.6415
  691THF     H511325   2.848   4.473   4.578  1.5370 -1.4773  1.2733
  691THF     H611326   3.106   4.751   4.520 -1.1602 -0.2442  2.0176
  691THF     H711327   3.025   4.748   4.356 -0.2255  0.0601 -0.1985
  691THF     C811328   2.885   4.777   4.521  0.6342 -0.1317  0.3111
  691THF     C911329   2.864   4.683   4.639 -0.4964 -0.2778  0.2938
  691THF    H1011330   2.810   4.762   4.443  0.1506  1.1092  0.5273
  691THF    H1111331   2.876   4.884   4.535 -1.2277 -0.3680  1.2733
  691THF    H1211332   2.902   4.732   4.728  1.1298  0.6152 -0.8527
  691THF    H1311333   2.756   4.672   4.649 -0.7555  0.2403 -1.5562
  692THF     O111334   3.609   3.224   0.336  0.5823 -0.5284 -0.0279
  692THF     C211335   3.484   3.159   0.326  0.6207 -0.8288  0.1312
  692THF     C311336   3.619   3.304   0.455  0.3447 -0.2263 -0.5090
  692THF     H411337   3.503   3.053   0.312  4.8938 -0.4391  1.5874
  692THF     H511338   3.432   3.202   0.240 -0.0465  0.1820  1.0031
  692THF     H611339   3.717   3.295   0.502 -0.4963 -1.6263  1.0731
  692THF     H711340   3.591   3.407   0.432  1.2246  0.4798  1.4269
  692THF     C811341   3.520   3.239   0.551  0.1208 -0.0370 -0.6280
  692THF     C911342   3.413   3.188   0.458  0.2191  0.5745 -0.1947
  692THF    H1011343   3.484   3.311   0.624  2.2442 -0.1483  0.5970
  692THF    H1111344   3.567   3.155   0.602 -1.5528  0.6097  2.1464
  692THF    H1211345   3.351   3.106   0.495 -0.6801  0.6583 -1.4347
  692THF    H1311346   3.350   3.275   0.441  0.0834 -0.0819 -4.0285
  693THF     O111347   4.001   0.131   2.628  0.7694 -0.1912 -0.8565
  693THF     C211348   4.034   0.131   2.763  0.5771 -0.3335 -0.2647
  693THF     C311349   3.877   0.081   2.608 -0.0854  0.1634 -0.3357
  693THF     H411350   4.122   0.190   2.786  1.3798  0.1649 -4.0921
  693THF     H511351   4.069   0.029   2.783 -1.1087 -1.1615 -1.2776
  693THF     H611352   3.819   0.122   2.526  1.8569 -1.5762 -2.7243
  693THF     H711353   3.897  -0.022   2.577  0.9663 -0.0827  1.0574
  693THF     C811354   3.799   0.098   2.744 -0.0657  0.1694 -0.2426
  693THF     C911355   3.898   0.168   2.830  1.0512 -0.3894 -0.2105
  693THF    H1011356   3.763   0.005   2.788 -0.0593  0.1222 -0.3358
  693THF    H1111357   3.709   0.159   2.734 -0.2591 -0.3567 -2.1145
  693THF    H1211358   3.891   0.276   2.839 -1.6817 -0.3472 -1.9216
  693THF    H1311359   3.896   0.139   2.935  3.3035  2.9047  0.9082
  694THF     O111360   3.558   0.424   1.856 -0.3685 -0.3402  0.2612
  694THF     C211361   3.463   0.526   1.816  0.9093  0.1642 -0.2101
  694THF     C311362   3.686   0.443   1.779 -0.7270  0.4173 -0.0244
  694THF     H411363   3.499   0.625   1.844  0.6418  1.6352 -4.4080
  694THF     H511364   3.361   0.512   1.853 -0.4892  2.3097 -2.8870
  694THF     H611365   3.748   0.520   1.825 -1.6556  1.1925 -0.0479
  694THF     H711366   3.748   0.354   1.765 -1.5911  0.1844 -3.0178
  694THF     C811367   3.631   0.484   1.642  0.2614 -0.5751  0.1545
  694THF     C911368   3.479   0.520   1.666 -0.7530 -0.2253 -0.3244
  694THF    H1011369   3.648   0.393   1.584  2.0477  0.6725 -1.3926
  694THF    H1111370   3.688   0.568   1.605 -0.0272 -0.3434  0.2350
  694THF    H1211371   3.459   0.618   1.622  1.5276  0.3196 -0.2788
  694THF    H1311372   3.415   0.445   1.620 -0.4679  0.2288 -1.4908
  695THF     O111373   4.339   0.920   1.909 -0.4078 -0.8831 -0.0325
  695THF     C211374   4.376   1.023   1.822 -0.3930 -0.8424  0.2471
  695THF     C311375   4.196   0.918   1.922 -0.0605 -0.2278  0.3228
  695THF     H411376   4.353   0.993   1.720  0.4523 -0.8591  0.0593
  695THF     H511377   4.481   1.050   1.833 -0.4821 -0.5073  0.2850
  695THF     H611378   4.137   0.857   1.854 -1.2397  0.2326  0.9114
  695THF     H711379   4.177   0.883   2.024 -0.4751  0.8210  0.6253
  695THF     C811380   4.163   1.071   1.908  0.3069  0.1120 -0.4527
  695THF     C911381   4.292   1.140   1.862  0.1227  0.1565 -0.5366
  695THF    H1011382   4.131   1.120   2.000 -0.2695  0.9362 -1.0754
  695THF    H1111383   4.078   1.089   1.841 -0.6720  1.3069  1.0476
  695THF    H1211384   4.277   1.213   1.782  0.9030 -0.9192 -1.6965
  695THF    H1311385   4.340   1.195   1.944 -1.1551  0.1323  0.2486
  696THF     O111386   3.128   0.658   1.918  0.2870 -0.7312  0.7528
  696THF     C211387   3.156   0.786   1.972  0.1931  0.4971  0.0480
  696THF     C311388   3.085   0.672   1.785  1.1807 -0.0383 -0.1497
  696THF     H411389   3.214   0.779   2.064 -2.5411 -0.3332  1.8353
  696THF     H511390   3.067   0.848   1.987 -0.3461  0.5773 -2.9358
  696THF     H611391   3.079   0.586   1.718  1.3990 -0.4355  0.3415
  696THF     H711392   2.980   0.702   1.793  1.2021  0.2266 -0.7513
  696THF     C811393   3.169   0.790   1.734 -0.1407  0.2261  0.3746
  696THF     C911394   3.234   0.850   1.860 -0.2900 -0.6926  0.0859
  696THF    H1011395   3.110   0.871   1.691  2.1434  1.1729 -1.1500
  696THF    H1111396   3.232   0.757   1.651 -0.5515 -1.6843  0.7701
  696THF    H1211397   3.336   0.813   1.869  1.1477  2.9532  0.3709
  696THF    H1311398   3.231   0.959   1.857  1.9143 -0.5962 -0.3352
  697THF     O111399   3.993   1.814   0.241 -0.2542 -0.2784  0.4588
  697THF     C211400   3.877   1.886   0.282  0.2968 -0.5246 -0.0590
  697THF     C311401   3.965   1.748   0.122 -0.2350 -0.0578 -0.4825
  697THF     H411402   3.879   1.975   0.220 -0.0009 -1.2201 -1.0931
  697THF     H511403   3.870   1.891   0.391  0.1794 -3.0498  0.1109
  697THF     H611404   3.983   1.819   0.041  3.4956  1.0088  1.0782
  697THF     H711405   4.036   1.667   0.106  1.8762  1.8225 -1.2164
  697THF     C811406   3.823   1.695   0.143  0.1335 -0.0618 -0.4788
  697THF     C911407   3.764   1.798   0.234 -0.0124  0.3277 -0.2589
  697THF    H1011408   3.838   1.609   0.209 -0.5371  0.6660  0.6578
  697THF    H1111409   3.764   1.663   0.057 -1.2329  0.0277  0.3890
  697THF    H1211410   3.677   1.849   0.193 -2.0221 -2.1267  0.6331
  697THF    H1311411   3.724   1.735   0.314  0.2365  0.4529 -0.0369
  698THF     O111412   0.617   1.860   1.424  0.0582 -0.2140 -0.2942
  698THF     C211413   0.556   1.796   1.538 -0.6907  0.1169 -0.4946
  698THF     C311414   0.755   1.844   1.443 -0.3869 -0.4383  0.6222
  698THF     H411415   0.458   1.752   1.521 -1.3117  2.0175 -2.1693
  698THF     H511416   0.561   1.875   1.612  2.2046 -2.1987  2.0711
  698THF     H611417   0.800   1.871   1.347 -2.8401 -2.1643 -1.1601
  698THF     H711418   0.799   1.909   1.518  1.1481 -2.3080  1.4208
  698THF     C811419   0.783   1.711   1.487 -0.2196  0.1776  0.4870
  698THF     C911420   0.665   1.701   1.590  0.3555 -0.3259  0.2585
  698THF    H1011421   0.883   1.715   1.529  0.7632  0.8062 -1.7445
  698THF    H1111422   0.781   1.635   1.408  1.3644 -2.0101  2.4218
  698THF    H1211423   0.613   1.606   1.600 -2.5659  0.7601 -2.5691
  698THF    H1311424   0.691   1.744   1.687  0.5467  0.3821 -0.1012
  699THF     O111425   2.387   1.193   4.292 -0.6329  0.0268 -0.0499
  699THF     C211426   2.517   1.167   4.357  0.1878  0.6983  0.1105
  699THF     C311427   2.290   1.156   4.388  0.3450 -0.0286  0.0066
  699THF     H411428   2.590   1.238   4.316 -0.6777  0.8199 -1.2860
  699THF     H511429   2.557   1.067   4.340 -0.0420  0.4049  1.2398
  699THF     H611430   2.201   1.217   4.378 -0.8303 -1.6681  0.1282
  699THF     H711431   2.261   1.054   4.361 -0.5128  0.1327  0.2947
  699THF     C811432   2.350   1.184   4.528  0.5616 -0.0556  0.6084
  699THF     C911433   2.491   1.196   4.510 -1.2184  0.0295  0.1668
  699THF    H1011434   2.311   1.108   4.596  2.0603 -1.9541 -0.5198
  699THF    H1111435   2.318   1.281   4.564 -2.5734 -1.3739  1.8038
  699THF    H1211436   2.522   1.293   4.547  0.2131  0.4873 -2.0250
  699THF    H1311437   2.549   1.122   4.566 -1.0788 -0.0959 -0.1402
  700THF     O111438   0.896   2.877   5.495 -0.1474  0.1664  0.4787
  700THF     C211439   0.762   2.934   5.495 -0.0560 -0.0694  0.1743
  700THF     C311440   0.964   2.948   5.388  0.5586 -0.1156  0.5786
  700THF     H411441   0.760   3.025   5.555 -0.3397 -0.4012  0.6728
  700THF     H511442   0.685   2.874   5.544 -0.3226  0.1092 -0.0202
  700THF     H611443   1.000   3.046   5.418  1.1350  0.4311 -1.6873
  700THF     H711444   1.053   2.895   5.356  0.7686 -0.0893  1.1033
  700THF     C811445   0.858   2.950   5.276  0.3015 -0.0359 -0.4804
  700THF     C911446   0.729   2.968   5.352  0.1036  0.4998  0.1182
  700THF    H1011447   0.845   2.850   5.234 -1.3192  0.5900 -1.5664
  700THF    H1111448   0.876   3.010   5.187 -0.1805  0.5739 -0.1765
  700THF    H1211449   0.700   3.073   5.340 -1.8657  0.1584  1.4669
  700THF    H1311450   0.654   2.901   5.311  0.1545  0.3660  0.2428
  701THF     O111451   0.167   1.191   4.759  0.2165  0.4179  0.1727
  701THF     C211452   0.139   1.177   4.617 -0.4962 -1.1131  0.0259
  701THF     C311453   0.298   1.250   4.774  0.2466  0.3317 -0.2321
  701THF     H411454   0.084   1.259   4.571 -0.8788 -0.3509  1.7652
  701THF     H511455   0.066   1.099   4.596 -0.4925 -0.6917 -1.7273
  701THF     H611456   0.286   1.358   4.783 -0.5889  0.2555 -0.2928
  701THF     H711457   0.330   1.208   4.869  1.8670  0.7057 -0.5758
  701THF     C811458   0.373   1.218   4.656 -0.0247  0.5457  0.1485
  701THF     C911459   0.276   1.157   4.555  0.0662  0.0752  0.7128
  701THF    H1011460   0.461   1.160   4.682 -0.2560  0.4473  0.7218
  701THF    H1111461   0.421   1.304   4.610  0.3427 -0.3816 -1.2756
  701THF    H1211462   0.270   1.195   4.452 -0.1226  2.2269  1.4595
  701THF    H1311463   0.313   1.055   4.544  1.4907  0.7670 -1.8047
  702THF     O111464   4.756   3.708   1.059 -0.3223  0.3858  0.1089
  702THF     C211465   4.843   3.664   0.957  0.1050  0.4346 -0.2998
  702THF     C311466   4.623   3.696   0.998 -0.3670  0.2353 -0.5431
  702THF     H411467   4.835   3.555   0.953 -2.0646  0.5906 -2.3108
  702THF     H511468   4.946   3.691   0.980  0.1170  0.3169 -0.2099
  702THF     H611469   4.598   3.591   1.016  0.0185  0.0872 -0.8590
  702THF     H711470   4.537   3.751   1.036 -0.2658  1.7514 -2.3846
  702THF     C811471   4.640   3.716   0.848 -0.2696 -0.2456 -0.3944
  702THF     C911472   4.788   3.724   0.823  0.4708  0.5600  0.1705
  702THF    H1011473   4.613   3.815   0.810  0.3456  0.0436 -0.1008
  702THF    H1111474   4.588   3.641   0.788  0.9935 -0.7932 -0.8301
  702THF    H1211475   4.824   3.667   0.737  0.2588  1.7472 -0.7402
  702THF    H1311476   4.819   3.827   0.807 -0.6263  0.9861  0.6719
  703THF     O111477   2.529   1.147   4.937 -0.1236 -0.1799  0.4668
  703THF     C211478   2.502   1.009   4.908  0.1255 -0.3632  0.4125
  703THF     C311479   2.659   1.143   4.989 -0.2287  0.0027  0.7895
  703THF     H411480   2.532   1.002   4.803 -0.1835 -4.5105  0.4571
  703THF     H511481   2.394   1.000   4.919  0.0940 -0.9400 -0.2741
  703THF     H611482   2.728   1.130   4.905  2.6927  1.5263  2.8006
  703THF     H711483   2.687   1.235   5.039 -1.3944 -0.0306  1.5317
  703THF     C811484   2.669   1.012   5.076 -0.4878 -0.0419 -0.4407
  703THF     C911485   2.582   0.912   5.000  0.6746 -0.3716  0.7428
  703THF    H1011486   2.627   1.024   5.176 -0.7370  2.1142 -0.7503
  703THF    H1111487   2.772   0.982   5.094 -0.7211 -0.7789 -0.2858
  703THF    H1211488   2.631   0.839   4.936 -1.0049 -0.4911 -0.4598
  703THF    H1311489   2.513   0.855   5.063  0.6306 -1.3673 -0.1859
  704THF     O111490   4.144   3.314   1.247 -0.0779 -0.3665  0.1941
  704THF     C211491   4.116   3.389   1.127  0.3719  0.3973  0.0528
  704THF     C311492   4.044   3.356   1.344 -0.4943  0.5358  0.2470
  704THF     H411493   4.103   3.328   1.038 -0.1097  0.0677  0.3471
  704THF     H511494   4.197   3.456   1.096  1.0935 -0.0159  0.9791
  704THF     H611495   4.031   3.288   1.428 -0.9106  3.1065  2.4109
  704THF     H711496   4.083   3.446   1.392  0.4489  0.5434 -0.4943
  704THF     C811497   3.922   3.388   1.258 -0.0804  0.2471  0.6916
  704THF     C911498   3.980   3.459   1.138 -0.2375  0.2198  0.4422
  704THF    H1011499   3.846   3.438   1.318 -0.4402  0.8227 -0.2245
  704THF    H1111500   3.882   3.292   1.226  1.7047 -0.5752  0.7973
  704THF    H1211501   3.927   3.448   1.043 -1.1500 -0.8837  1.0431
  704THF    H1311502   3.993   3.564   1.163 -1.4164  0.5331 -0.1741
  705THF     O111503   4.841   1.199   1.899 -0.4250  0.6258  0.2445
  705THF     C211504   4.906   1.303   1.822  0.2139  0.0785  0.2108
  705THF     C311505   4.727   1.250   1.957  0.7223  0.2145 -0.3793
  705THF     H411506   4.857   1.298   1.725 -0.3740 -0.0540  0.5090
  705THF     H511507   5.014   1.290   1.809  0.1737  1.0507 -1.2645
  705THF     H611508   4.649   1.258   1.881  1.5139 -0.3987 -1.2808
  705THF     H711509   4.676   1.191   2.033 -1.6415 -0.6120 -2.4458
  705THF     C811510   4.770   1.383   2.012 -0.6823  0.2214  0.1908
  705THF     C911511   4.883   1.419   1.921  0.0309 -0.3398 -0.2030
  705THF    H1011512   4.813   1.372   2.112 -1.7460 -0.5667  0.5790
  705THF    H1111513   4.685   1.449   2.006  0.3585  1.9450  2.7978
  705THF    H1211514   4.867   1.513   1.869  4.1967  1.0542  0.6402
  705THF    H1311515   4.973   1.443   1.978 -1.0719 -1.2675  2.0924
  706THF     O111516   2.226   3.643   0.934 -0.5498  0.1275  0.2680
  706THF     C211517   2.215   3.784   0.941  0.1091 -0.0730  0.4350
  706THF     C311518   2.354   3.606   0.987  0.1639  0.3530 -0.3115
  706THF     H411519   2.116   3.816   0.974  0.3825  2.0911 -0.6447
  706THF     H511520   2.226   3.834   0.845 -0.2760  0.0100  0.4307
  706THF     H611521   2.361   3.508   1.036 -0.4593  0.1539 -0.6251
  706THF     H711522   2.437   3.622   0.918  1.6205  0.6316  1.4148
  706THF     C811523   2.364   3.693   1.110 -0.1890  0.4800  0.4494
  706THF     C911524   2.322   3.829   1.040  0.2902 -0.3022 -0.0873
  706THF    H1011525   2.459   3.696   1.162  1.5386 -0.0463 -2.4631
  706THF    H1111526   2.286   3.658   1.179 -0.3946 -2.9113 -1.2563
  706THF    H1211527   2.284   3.897   1.116  2.8095  2.7783 -1.3394
  706THF    H1311528   2.409   3.872   0.991  0.9346 -2.4918 -0.9865
  707THF     O111529   5.349   0.857   0.748 -0.2676  0.2332  0.4299
  707THF     C211530   5.469   0.785   0.761 -0.4064 -0.7883  0.0883
  707THF     C311531   5.249   0.774   0.682 -0.9814  0.2998  0.4171
  707THF     H411532   5.456   0.727   0.852  1.5351 -0.7983  0.3902
  707THF     H511533   5.560   0.841   0.783 -1.8375  1.1024  1.6319
  707THF     H611534   5.189   0.722   0.757 -1.2758  1.5888  1.1084
  707THF     H711535   5.189   0.839   0.616  1.6126  1.2063 -1.1988
  707THF     C811536   5.332   0.660   0.611 -0.0103 -0.2187  0.2459
  707THF     C911537   5.474   0.717   0.629  1.5386  1.3264 -0.2091
  707THF    H1011538   5.295   0.646   0.509 -0.7575 -1.1843  0.6293
  707THF    H1111539   5.305   0.571   0.668 -0.8400  0.9365  1.7266
  707THF    H1211540   5.558   0.648   0.623  1.0265  0.7606 -1.0667
  707THF    H1311541   5.479   0.789   0.547 -0.1685  2.6787  0.7915
  708THF     O111542   5.014   4.134   4.437  0.1478 -0.4814  0.3690
  708THF     C211543   5.059   4.218   4.542  0.0123 -0.3101 -0.1745
  708THF     C311544   5.074   4.007   4.457 -0.6703  0.6190  0.4298
  708THF     H411545   4.996   4.303   4.566 -1.7132 -0.8231 -2.4937
  708THF     H511546   5.160   4.253   4.519 -0.0891  1.0588  1.3123
  708THF     H611547   5.026   3.938   4.388  1.0075 -0.4302  0.2571
  708THF     H711548   5.175   4.013   4.418 -0.3038 -0.9068  1.0656
  708THF     C811549   5.072   3.983   4.601  0.5166 -0.2180  0.0671
  708THF     C911550   5.071   4.119   4.663  0.8634 -0.4317 -0.7124
  708THF    H1011551   5.163   3.937   4.639  1.1295  1.5090  0.8074
  708THF    H1111552   4.982   3.933   4.637 -0.4976  0.7840 -0.9976
  708THF    H1211553   4.988   4.134   4.733 -0.0447 -2.6967 -1.2356
  708THF    H1311554   5.162   4.135   4.720  0.8463 -2.1691 -0.1468
  709THF     O111555   3.959   2.650   0.664 -0.4156  0.3146 -0.1399
  709THF     C211556   3.999   2.708   0.537  0.2451 -0.0879 -0.3572
  709THF     C311557   3.852   2.724   0.709  0.1380 -0.2288 -0.2077
  709THF     H411558   4.047   2.628   0.481  0.4241  1.6163 -2.7706
  709THF     H511559   4.071   2.790   0.544 -2.8725  2.8882 -0.4517
  709THF     H611560   3.812   2.669   0.794  1.1926 -0.5637  0.0938
  709THF     H711561   3.902   2.813   0.749  2.0239 -1.3832  0.1409
  709THF     C811562   3.762   2.725   0.584 -0.4347  0.7136 -0.6719
  709THF     C911563   3.862   2.760   0.477 -0.1133 -0.1922  0.8055
  709THF    H1011564   3.684   2.801   0.578  1.4344  2.6546 -2.1348
  709THF    H1111565   3.724   2.627   0.557 -0.5131  0.5582 -0.0016
  709THF    H1211566   3.840   2.719   0.378  3.6215  0.2109 -0.3514
  709THF    H1311567   3.872   2.868   0.468  0.5687 -0.1883  1.4733
  710THF     O111568   3.965   3.225   0.749  0.1594 -0.3397  0.1342
  710THF     C211569   4.035   3.323   0.668  0.1166 -0.7676 -0.0411
  710THF     C311570   3.929   3.114   0.667  0.4772  0.5540 -0.3493
  710THF     H411571   4.082   3.375   0.750  0.3253  1.3656 -1.4379
  710THF     H511572   3.970   3.392   0.614  0.5381  1.8264  2.5407
  710THF     H611573   3.916   3.035   0.741  0.7381  1.9089  1.1722
  710THF     H711574   3.851   3.130   0.593 -1.1483 -0.7125  1.0283
  710THF     C811575   4.068   3.096   0.591  0.1481  0.0691 -0.4434
  710THF     C911576   4.130   3.239   0.581 -0.5577 -0.0694  0.1264
  710THF    H1011577   4.078   3.043   0.496  0.1988  0.1684 -0.4947
  710THF    H1111578   4.141   3.044   0.653  0.0358  0.6476  0.1850
  710THF    H1211579   4.233   3.264   0.607 -1.3782  1.9248  1.7080
  710THF    H1311580   4.118   3.268   0.476  0.9338  1.3385  0.3113
  711THF     O111581   1.877   1.775   2.699  0.0440  0.0570 -0.4388
  711THF     C211582   1.881   1.644   2.664  0.1272 -0.8207 -0.4656
  711THF     C311583   1.857   1.852   2.576 -0.0333  0.6313  0.3458
  711THF     H411584   1.881   1.576   2.750 -0.9831 -0.6136 -0.2793
  711THF     H511585   1.964   1.618   2.599  2.5275  0.5215  1.8861
  711THF     H611586   1.811   1.949   2.594 -1.3784  0.3014 -1.1125
  711THF     H711587   1.952   1.871   2.526 -0.8685  2.0104 -0.7945
  711THF     C811588   1.758   1.762   2.505  0.0344  0.5760 -0.5321
  711THF     C911589   1.754   1.634   2.583 -0.0857  0.3273  0.6843
  711THF    H1011590   1.797   1.748   2.404 -1.5656 -0.1621 -1.0826
  711THF    H1111591   1.660   1.808   2.493 -0.3934  0.0492  0.7438
  711THF    H1211592   1.669   1.618   2.649 -0.1359  0.2067  0.5908
  711THF    H1311593   1.766   1.539   2.530  2.0424  0.0554  1.5861
  712THF     O111594   0.615   3.364   4.585 -0.5751  0.0582 -0.5984
  712THF     C211595   0.655   3.467   4.677 -0.5593  0.6187  0.1069
  712THF     C311596   0.500   3.424   4.519  0.0412  0.3756 -0.1773
  712THF     H411597   0.708   3.546   4.624 -0.0713  0.7419  0.7605
  712THF     H511598   0.731   3.430   4.747  0.6572 -1.4125 -2.1256
  712THF     H611599   0.529   3.503   4.451 -0.7184  1.7025  0.9939
  712THF     H711600   0.445   3.345   4.467 -0.1959  0.4271 -0.0051
  712THF     C811601   0.415   3.489   4.629 -0.3072  0.1459 -0.1717
  712THF     C911602   0.515   3.500   4.737  0.3930  0.0850 -0.0514
  712THF    H1011603   0.332   3.421   4.650 -1.3108  0.2358 -3.3043
  712THF    H1111604   0.368   3.585   4.613 -1.4202 -0.2423  0.6062
  712THF    H1211605   0.516   3.601   4.777 -1.2416  0.4499 -0.8626
  712THF    H1311606   0.485   3.435   4.819  0.8754 -1.3778 -0.9964
  713THF     O111607   4.095   4.204   4.327  0.5493  0.3763 -0.9435
  713THF     C211608   4.124   4.186   4.189  0.8759 -0.1775  0.0986
  713THF     C311609   3.964   4.162   4.346  0.6544 -0.2441  0.4573
  713THF     H411610   4.126   4.077   4.180  0.2393 -0.2211  0.5140
  713THF     H511611   4.222   4.229   4.168 -0.2431  1.9309 -1.1731
  713THF     H611612   3.963   4.053   4.340  1.6177 -0.2446  0.0711
  713THF     H711613   3.933   4.209   4.439 -0.5107 -0.6423  0.2842
  713THF     C811614   3.886   4.219   4.225 -0.2713 -0.2000 -0.3411
  713THF     C911615   3.994   4.245   4.120  0.1822 -0.1229 -0.0780
  713THF    H1011616   3.837   4.313   4.251 -0.7989 -0.2927 -0.9635
  713THF    H1111617   3.807   4.154   4.187  0.0091 -1.4091  1.0450
  713THF    H1211618   3.966   4.191   4.029  0.0458  0.0917 -0.1657
  713THF    H1311619   3.988   4.352   4.101 -1.2531 -0.1636  0.0013
  714THF     O111620   4.934   0.609   0.647  0.5309  0.2356  0.7996
  714THF     C211621   4.841   0.691   0.586  0.4080  0.5988 -0.6862
  714THF     C311622   4.943   0.492   0.574  0.1531  0.2558 -0.0959
  714THF     H411623   4.890   0.720   0.493 -0.3734 -0.2686 -1.3834
  714THF     H511624   4.826   0.766   0.663  2.8960 -0.5194  1.0580
  714THF     H611625   5.007   0.503   0.487 -0.3692 -1.5768 -0.7799
  714THF     H711626   4.986   0.408   0.628  2.5719  2.8966  2.3834
  714THF     C811627   4.797   0.461   0.545  0.1576  0.1128  0.1133
  714THF     C911628   4.723   0.594   0.567 -0.2563 -0.7554 -0.2125
  714THF    H1011629   4.762   0.378   0.605  1.2014 -1.6314 -1.5563
  714THF    H1111630   4.791   0.433   0.439  2.9960 -0.4733  0.0171
  714THF    H1211631   4.651   0.616   0.488 -0.0242  0.0578 -0.2160
  714THF    H1311632   4.671   0.580   0.661 -0.0975  0.1265  0.0140
  715THF     O111633   3.219   3.581   4.176  0.0643 -0.3078 -0.1403
  715THF     C211634   3.303   3.691   4.179 -0.6515 -0.4666 -0.2739
  715THF     C311635   3.134   3.593   4.070 -0.2832 -0.5645  0.5755
  715THF     H411636   3.384   3.672   4.109  0.4618 -0.6712  1.0193
  715THF     H511637   3.351   3.708   4.276  0.0585  0.1529 -0.7249
  715THF     H611638   3.184   3.574   3.975  0.7286  1.4207  0.6458
  715THF     H711639   3.048   3.529   4.090 -2.2545  1.3586 -1.1391
  715THF     C811640   3.094   3.736   4.081 -0.2110 -0.3758 -0.3438
  715THF     C911641   3.215   3.807   4.146  0.9138  0.5685 -0.3042
  715THF    H1011642   3.014   3.742   4.155  0.6737  0.1149  0.5834
  715THF    H1111643   3.055   3.785   3.991  0.0165 -0.8776 -0.7224
  715THF    H1211644   3.265   3.881   4.082 -1.8132  3.7193  0.8945
  715THF    H1311645   3.184   3.850   4.241 -0.9873 -5.3556  2.1913
  716THF     O111646   4.111   1.015   1.604  0.6570 -0.2676  0.5001
  716THF     C211647   4.175   1.104   1.514 -0.3369 -0.2021  0.1806
  716THF     C311648   3.973   1.018   1.570  0.1830 -0.0507 -0.2564
  716THF     H411649   4.187   1.053   1.419  2.0261 -0.1789  0.4114
  716THF     H511650   4.268   1.136   1.562 -0.7525 -0.1512  0.9715
  716THF     H611651   3.941   0.957   1.485 -1.0808  1.7947 -1.1766
  716THF     H711652   3.924   0.974   1.657  2.4490  0.1723  1.2146
  716THF     C811653   3.937   1.163   1.534 -1.0834  0.4336  0.3835
  716THF     C911654   4.076   1.225   1.510 -0.2044  0.2846  0.9478
  716THF    H1011655   3.890   1.227   1.610  0.1430  0.8833  0.7850
  716THF    H1111656   3.868   1.165   1.449  0.0618  0.3775 -0.5715
  716THF    H1211657   4.075   1.270   1.410 -1.4394 -2.0473 -0.1748
  716THF    H1311658   4.100   1.299   1.587 -1.4445  0.4246  1.2153
  717THF     O111659   0.172   2.020   4.298 -0.0620 -0.1640 -0.2603
  717THF     C211660   0.198   2.110   4.409  0.4805 -1.2712  0.2160
  717THF     C311661   0.283   2.027   4.208 -0.8920 -0.1324 -0.3702
  717THF     H411662   0.123   2.109   4.489 -1.0329 -3.2778 -1.1280
  717THF     H511663   0.202   2.213   4.374  0.6351 -0.6160  2.0383
  717THF     H611664   0.277   1.949   4.133 -4.7525  0.4663 -0.8674
  717THF     H711665   0.267   2.124   4.160 -3.0254  0.1507  0.7763
  717THF     C811666   0.402   2.012   4.312 -0.2354  0.1131  0.2476
  717THF     C911667   0.345   2.074   4.444  0.0141 -0.1138  0.0328
  717THF    H1011668   0.481   2.072   4.268  0.3386 -0.9621 -0.2377
  717THF    H1111669   0.444   1.914   4.337 -0.0174 -0.2913 -1.5822
  717THF    H1211670   0.346   1.997   4.521  0.3235  1.1330  1.3082
  717THF    H1311671   0.395   2.162   4.484  1.0207 -0.1691 -1.0559
  718THF     O111672   1.517   4.846   1.034 -0.2825  0.8768  0.4471
  718THF     C211673   1.446   4.906   0.929 -0.2955 -0.0195 -0.6075
  718THF     C311674   1.498   4.707   1.003  0.3790 -0.3650 -0.3636
  718THF     H411675   1.513   4.882   0.847  0.1925 -2.1421  0.3636
  718THF     H511676   1.420   5.012   0.934  0.0194  0.1326 -1.8113
  718THF     H611677   1.578   4.682   0.933  0.7327 -0.1614 -0.0381
  718THF     H711678   1.507   4.649   1.095  1.4952  1.2056  0.5542
  718THF     C811679   1.351   4.684   0.956 -0.3282  0.7883 -0.1059
  718THF     C911680   1.316   4.822   0.901  0.0008  0.5228 -0.6693
  718THF    H1011681   1.280   4.659   1.035  0.4621  1.1218  0.7215
  718THF    H1111682   1.346   4.606   0.879  0.3601  0.3042  0.3332
  718THF    H1211683   1.302   4.820   0.793 -1.7632  0.9056 -0.4623
  718THF    H1311684   1.226   4.857   0.951  0.1654  0.1663 -0.1072
  719THF     O111685   3.758   0.446   4.048  0.2152  0.2937  0.4373
  719THF     C211686   3.634   0.467   3.987  0.8268 -0.6594 -0.0757
  719THF     C311687   3.813   0.319   4.008  0.4685  0.1727 -0.5467
  719THF     H411688   3.633   0.515   3.889 -4.1450 -0.5759 -0.2586
  719THF     H511689   3.569   0.527   4.051 -0.1017 -0.5502 -1.0849
  719THF     H611690   3.843   0.331   3.904  0.8414  1.1709 -0.3307
  719THF     H711691   3.900   0.280   4.061  0.0261  0.0074  0.0711
  719THF     C811692   3.695   0.224   4.008 -0.3255 -0.2443 -0.7146
  719THF     C911693   3.580   0.322   3.985 -0.9935  0.0148 -0.1335
  719THF    H1011694   3.683   0.172   4.104 -0.1721 -2.3268 -1.7661
  719THF    H1111695   3.698   0.144   3.934 -1.1362 -0.4590 -0.5333
  719THF    H1211696   3.539   0.302   3.886  1.5645 -3.7401 -0.6579
  719THF    H1311697   3.502   0.304   4.059 -0.3543 -0.3372  0.4698
  720THF     O111698   1.577   0.176   5.231  0.3283  0.2583  0.0019
  720THF     C211699   1.496   0.125   5.126 -0.3981  0.0699 -0.0722
  720THF     C311700   1.489   0.218   5.335  0.5179  0.6267 -0.2842
  720THF     H411701   1.544   0.043   5.073 -1.1111  1.5606 -3.2980
  720THF     H511702   1.476   0.208   5.058 -1.0218 -0.3320 -0.3831
  720THF     H611703   1.518   0.178   5.432 -2.1979 -1.2384 -0.1120
  720THF     H711704   1.495   0.326   5.351  0.2816  0.5516  0.3339
  720THF     C811705   1.342   0.181   5.303 -0.0489  1.3956  0.4750
  720THF     C911706   1.362   0.083   5.192  0.1477 -0.2880 -0.2100
  720THF    H1011707   1.289   0.273   5.275 -3.2586  0.0088  1.4408
  720THF    H1111708   1.286   0.138   5.386  0.5594  1.2493  0.8126
  720THF    H1211709   1.382  -0.013   5.239 -2.9260 -0.3254  1.3282
  720THF    H1311710   1.277   0.074   5.124  1.3402  0.5838 -1.9031
  721THF     O111711   0.402   0.315   5.349 -0.4611 -0.1505  0.5666
  721THF     C211712   0.517   0.359   5.286 -0.3426 -0.3700 -0.8696
  721THF     C311713   0.366   0.402   5.451  0.3819  0.1485  1.0711
  721THF     H411714   0.508   0.336   5.180  1.8747 -0.0060 -1.1957
  721THF     H511715   0.607   0.306   5.320  1.1139  2.6202  0.2931
  721THF     H611716   0.258   0.392   5.464 -0.2270  2.7807 -1.0128
  721THF     H711717   0.417   0.379   5.544  1.2241 -0.2863  0.5108
  721THF     C811718   0.408   0.539   5.396 -0.5167  0.0363 -0.3580
  721THF     C911719   0.523   0.509   5.308  0.1206  0.5518  0.7937
  721THF    H1011720   0.446   0.615   5.464  3.1484 -0.5573 -1.5264
  721THF    H1111721   0.334   0.591   5.336 -0.6803 -0.1458 -0.3155
  721THF    H1211722   0.507   0.553   5.210  0.1445  0.1337  0.5979
  721THF    H1311723   0.620   0.549   5.338 -0.2671  0.3265  2.4375
  722THF     O111724   2.752   3.555   1.605  0.2485 -0.2479  0.0141
  722THF     C211725   2.819   3.439   1.643 -0.5835  1.0295  0.0331
  722THF     C311726   2.681   3.534   1.486  0.0798  0.1734 -0.3137
  722THF     H411727   2.839   3.436   1.750  0.0759  1.2588 -0.0770
  722THF     H511728   2.906   3.417   1.582 -0.6052  0.2159  0.2911
  722THF     H611729   2.587   3.589   1.491  1.2517  2.1920  0.3063
  722THF     H711730   2.744   3.558   1.400 -0.5769 -0.0042 -0.8584
  722THF     C811731   2.646   3.390   1.495  0.0733  0.9488 -0.0109
  722THF     C911732   2.715   3.332   1.617  0.4981 -0.1419 -0.2296
  722THF    H1011733   2.692   3.346   1.407  1.3646  2.3897 -0.0889
  722THF    H1111734   2.538   3.372   1.498  0.4322 -1.6749 -0.4969
  722THF    H1211735   2.656   3.320   1.708  1.8123  0.8920  0.7994
  722THF    H1311736   2.764   3.236   1.608  1.3873  0.1371  1.3100
  723THF     O111737   0.802   0.999   3.873  0.3827 -0.1246 -0.2137
  723THF     C211738   0.808   0.957   3.741 -0.7044  0.1631 -0.3028
  723THF     C311739   0.871   1.123   3.884 -0.2425  0.3453  0.0983
  723THF     H411740   0.727   0.885   3.725 -1.3771  0.4245  1.6529
  723THF     H511741   0.891   0.888   3.722 -1.3798 -0.6676 -0.3118
  723THF     H611742   0.802   1.174   3.951 -0.2457 -0.6925  0.9141
  723THF     H711743   0.970   1.109   3.926 -0.1151 -0.5483 -0.4593
  723THF     C811744   0.882   1.187   3.747  0.0059  0.2978 -0.2722
  723THF     C911745   0.805   1.085   3.654 -0.1659  0.8942  0.4265
  723THF    H1011746   0.987   1.177   3.721 -0.1139  0.8251 -0.9591
  723THF    H1111747   0.851   1.291   3.750 -1.7232 -0.1877 -0.1922
  723THF    H1211748   0.700   1.115   3.647 -0.6733 -0.7669  0.4680
  723THF    H1311749   0.856   1.081   3.557 -1.4687 -2.2197 -0.2577
  724THF     O111750   1.936   0.616   2.116 -0.3609  0.1811  0.5350
  724THF     C211751   1.829   0.668   2.190  0.7023 -0.4168 -0.2829
  724THF     C311752   2.005   0.720   2.054 -0.0684  0.5100 -0.3683
  724THF     H411753   1.845   0.684   2.297  0.2689  1.7741 -0.4900
  724THF     H511754   1.750   0.593   2.189  2.3793 -2.2608 -0.1771
  724THF     H611755   2.065   0.761   2.135 -1.3652  0.9250  0.4098
  724THF     H711756   2.067   0.688   1.971  0.0683 -1.7890  0.5466
  724THF     C811757   1.890   0.818   2.006  0.4287 -0.1279 -0.4154
  724THF     C911758   1.788   0.802   2.124 -0.1880  0.4023  0.0672
  724THF    H1011759   1.830   0.794   1.918 -2.0792  0.6158  0.9803
  724THF    H1111760   1.920   0.923   1.999 -2.1194  0.6245 -1.1803
  724THF    H1211761   1.797   0.876   2.203 -0.8147 -0.0211  0.5459
  724THF    H1311762   1.681   0.792   2.105  0.2172 -0.3678 -2.0962
  725THF     O111763   2.249   1.739   1.820 -0.9709  0.5183  0.2897
  725THF     C211764   2.286   1.877   1.852 -0.4252 -0.1490 -0.0881
  725THF     C311765   2.321   1.705   1.704 -0.4110 -0.5403  0.7247
  725THF     H411766   2.377   1.866   1.910 -0.5637  0.6960  0.3131
  725THF     H511767   2.220   1.934   1.919  1.8487  2.5666  0.0252
  725THF     H611768   2.421   1.665   1.714 -0.1185 -0.2750 -0.8115
  725THF     H711769   2.261   1.626   1.658  1.2654 -0.7916 -1.1925
  725THF     C811770   2.335   1.839   1.620 -0.8737 -0.3308  0.1320
  725THF     C911771   2.298   1.943   1.721  0.3922 -0.0023  0.1814
  725THF    H1011772   2.272   1.852   1.533 -1.6834 -0.4724  0.6805
  725THF    H1111773   2.435   1.848   1.577 -0.4907 -1.1169  0.8214
  725THF    H1211774   2.374   2.020   1.712 -0.0248  0.6232  1.7043
  725THF    H1311775   2.202   1.984   1.689 -0.7401 -2.6201 -0.0353
  726THF     O111776   3.979   0.201   5.267 -0.1819  0.2779  0.3655
  726THF     C211777   4.067   0.087   5.288 -0.1468  0.7078 -0.0079
  726THF     C311778   4.041   0.288   5.175 -0.0896  0.4167 -0.0893
  726THF     H411779   4.044   0.017   5.208  1.0976 -0.2962  0.4711
  726THF     H511780   4.063   0.048   5.389 -0.4531 -1.3362 -0.7695
  726THF     H611781   4.031   0.241   5.077 -1.0622 -0.6310  0.4879
  726THF     H711782   3.998   0.387   5.170  2.2385  1.8945  4.1349
  726THF     C811783   4.184   0.291   5.215  0.3246  0.3492 -0.5666
  726THF     C911784   4.209   0.153   5.273  0.3028  0.1641  0.3498
  726THF    H1011785   4.198   0.376   5.282 -0.4177  0.3260 -0.3688
  726THF    H1111786   4.240   0.308   5.123 -0.8156  0.1292 -1.3181
  726THF    H1211787   4.264   0.096   5.198 -2.4813 -0.3981 -1.4031
  726THF    H1311788   4.256   0.159   5.371  1.3633 -3.8135  0.2570
  727THF     O111789   2.672   3.377   1.118  0.2281 -0.1365 -0.6899
  727THF     C211790   2.631   3.293   1.015  0.1615  0.4245 -0.0592
  727THF     C311791   2.809   3.370   1.122 -0.6372 -0.2761  0.3414
  727THF     H411792   2.534   3.323   0.975  0.5634 -0.4557 -1.7842
  727THF     H511793   2.625   3.187   1.041  2.2635  0.4800  0.8430
  727THF     H611794   2.850   3.454   1.178 -0.6780 -0.9670  1.4386
  727THF     H711795   2.830   3.276   1.175 -1.1836 -1.3276 -1.2297
  727THF     C811796   2.851   3.367   0.972 -0.8301  0.5578 -0.4269
  727THF     C911797   2.737   3.297   0.898 -0.0676 -0.0573  0.1470
  727THF    H1011798   2.954   3.340   0.949 -1.1215  0.8970 -2.2219
  727THF    H1111799   2.845   3.468   0.932  1.7317  0.8295 -0.2813
  727THF    H1211800   2.695   3.350   0.813 -2.1473 -1.4671  0.2253
  727THF    H1311801   2.754   3.197   0.857 -0.3039 -0.7484  1.6714
  728THF     O111802   2.488   1.321   2.120  0.4315 -0.2361  0.3111
  728THF     C211803   2.353   1.296   2.087 -0.1286 -0.2087  0.1040
  728THF     C311804   2.513   1.463   2.105 -0.0144  0.7450 -0.5590
  728THF     H411805   2.288   1.322   2.171  2.2999  1.7332  1.5111
  728THF     H511806   2.350   1.187   2.078 -0.6636 -0.8108  4.7034
  728THF     H611807   2.496   1.524   2.194  0.1039 -1.1307  0.7925
  728THF     H711808   2.612   1.486   2.066 -0.7911 -0.1452 -3.2703
  728THF     C811809   2.415   1.509   2.000  0.1013 -0.7079 -0.2549
  728THF     C911810   2.328   1.394   1.969  0.6562 -0.2153  0.0186
  728THF    H1011811   2.462   1.551   1.911 -2.1534 -0.2995 -1.3365
  728THF    H1111812   2.363   1.591   2.050  2.5805 -0.1781  1.6665
  728THF    H1211813   2.226   1.427   1.947  2.1826  3.3009 -2.8580
  728THF    H1311814   2.359   1.342   1.878 -0.9461  0.2256 -0.8319
  729THF     O111815   1.779   1.601   1.526 -0.0026 -0.0390  0.3294
  729THF     C211816   1.860   1.710   1.475 -0.1393  0.4916 -0.1278
  729THF     C311817   1.751   1.626   1.661 -0.0814  0.2735 -0.3686
  729THF     H411818   1.794   1.797   1.477  1.4557  1.7754 -1.1327
  729THF     H511819   1.909   1.700   1.378  2.0413 -1.8046  1.0668
  729THF     H611820   1.665   1.692   1.662  0.1394  0.5778  1.6791
  729THF     H711821   1.731   1.533   1.714  0.7062  0.0348 -0.4763
  729THF     C811822   1.878   1.687   1.714 -1.0169  0.0650  0.4349
  729THF     C911823   1.959   1.727   1.590  0.4938  0.3492  0.5068
  729THF    H1011824   1.939   1.630   1.784 -1.9091 -0.4677  0.8013
  729THF    H1111825   1.857   1.782   1.761  0.6865  0.6719  0.0337
  729THF    H1211826   2.006   1.824   1.608 -1.5130  1.4527  0.1172
  729THF    H1311827   2.032   1.648   1.574 -0.7792 -0.7663 -0.0051
  730THF     O111828   3.883   2.577   1.340  0.4618 -0.1019  0.1133
  730THF     C211829   3.916   2.458   1.412 -0.2935  0.5213 -0.0024
  730THF     C311830   3.790   2.560   1.233  0.7659  0.5131 -0.0823
  730THF     H411831   3.834   2.426   1.476 -0.3433  0.2505 -0.2007
  730THF     H511832   4.014   2.469   1.460 -0.0571  0.0339 -0.3677
  730THF     H611833   3.688   2.584   1.263  1.2829  0.6167  1.6560
  730THF     H711834   3.825   2.625   1.153 -0.8404  0.0727 -1.1913
  730THF     C811835   3.805   2.412   1.200  0.2794  0.0666  0.7310
  730THF     C911836   3.911   2.359   1.296  0.0496 -0.6252  0.3936
  730THF    H1011837   3.831   2.383   1.098 -0.3133 -0.5923  0.7598
  730THF    H1111838   3.708   2.364   1.211  0.9716 -1.2661  1.2898
  730THF    H1211839   3.905   2.255   1.330  3.1889 -0.4815  1.6994
  730THF    H1311840   4.004   2.362   1.240 -0.9548 -0.6191 -1.3458
  731THF     O111841   5.476   3.468   0.784 -0.1687  0.0676 -0.2865
  731THF     C211842   5.416   3.549   0.687  0.3787  0.9433 -0.2852
  731THF     C311843   5.523   3.556   0.886 -0.3664  0.1977 -0.2424
  731THF     H411844   5.320   3.587   0.723 -0.2230 -0.5799 -0.2289
  731THF     H511845   5.381   3.496   0.598 -1.6500 -0.3137  1.1724
  731THF     H611846   5.447   3.613   0.939 -0.8972 -1.9797  1.5022
  731THF     H711847   5.593   3.506   0.953  1.7387  1.4685 -1.3977
  731THF     C811848   5.601   3.660   0.806 -0.3681 -0.0992  0.2253
  731THF     C911849   5.520   3.662   0.676  0.5508  0.1649  1.2511
  731THF    H1011850   5.702   3.621   0.795 -0.4751 -0.5013  0.6423
  731THF    H1111851   5.591   3.759   0.850  0.5094 -0.4453  1.2528
  731THF    H1211852   5.462   3.755   0.675 -0.8641 -0.6554 -1.2238
  731THF    H1311853   5.585   3.647   0.590 -0.1152  3.1813  0.0805
  732THF     O111854   5.034   4.445   3.795 -0.0417  0.1105 -0.7551
  732THF     C211855   5.149   4.467   3.710 -0.4052 -0.1087 -0.6349
  732THF     C311856   4.923   4.482   3.720 -0.5198  0.0558 -0.1027
  732THF     H411857   5.177   4.395   3.633  1.9527  0.5692 -0.4866
  732THF     H511858   5.242   4.480   3.766  0.0221 -0.8089 -1.1681
  732THF     H611859   4.904   4.393   3.660 -2.8269  0.2407  0.2442
  732THF     H711860   4.830   4.496   3.775  0.2922 -2.0102  1.9655
  732THF     C811861   4.966   4.603   3.638 -0.4593 -1.4832 -0.2275
  732THF     C911862   5.115   4.595   3.634  0.6869 -0.2183 -0.3312
  732THF    H1011863   4.925   4.689   3.690  1.3849  0.0464 -1.1990
  732THF    H1111864   4.932   4.608   3.534  1.1997 -0.0153 -0.7446
  732THF    H1211865   5.156   4.592   3.533 -0.8145  0.8849 -1.0113
  732THF    H1311866   5.164   4.672   3.693 -0.1509 -0.7547  1.1356
  733THF     O111867   2.924   2.453   0.424 -0.1195  0.0544  0.0672
  733THF     C211868   2.835   2.383   0.340  0.2435 -0.5083  0.3670
  733THF     C311869   2.961   2.364   0.535  0.0469 -0.6924  0.2231
  733THF     H411870   2.834   2.430   0.242 -0.6124 -0.1091  0.5524
  733THF     H511871   2.734   2.402   0.379 -1.3320 -3.4874 -1.8896
  733THF     H611872   3.067   2.344   0.521  0.4672  0.8770  0.9005
  733THF     H711873   2.947   2.411   0.632  1.2900  0.2354 -0.0216
  733THF     C811874   2.884   2.237   0.515 -0.2337  0.4500 -0.5969
  733THF     C911875   2.867   2.238   0.362  0.3482  0.1025  0.6025
  733THF    H1011876   2.790   2.243   0.570 -0.0037  0.2963 -0.1842
  733THF    H1111877   2.947   2.153   0.543  1.1185  1.4164 -0.6642
  733THF    H1211878   2.962   2.208   0.317  0.8117  0.5519  1.2638
  733THF    H1311879   2.790   2.165   0.335  2.3399 -1.4418 -1.3355
  734THF     O111880   1.787   2.375   4.605 -0.0069  0.2417  0.3686
  734THF     C211881   1.666   2.451   4.591 -0.2033  0.9421  0.5972
  734THF     C311882   1.826   2.380   4.740  0.1068  0.6995  0.4814
  734THF     H411883   1.622   2.426   4.495  1.3067  1.4035 -0.2543
  734THF     H511884   1.701   2.554   4.593  1.9496  0.2653  0.9939
  734THF     H611885   1.899   2.307   4.776  0.4836  0.4367 -0.7853
  734THF     H711886   1.864   2.479   4.765  0.5509  0.5978  0.2118
  734THF     C811887   1.702   2.371   4.819  0.2351 -0.2071 -0.3662
  734THF     C911888   1.592   2.419   4.728  0.2894 -0.5788  0.1562
  734THF    H1011889   1.709   2.441   4.903 -2.7050  0.5134 -0.6191
  734THF    H1111890   1.689   2.270   4.859  0.9462 -0.0591  0.2679
  734THF    H1211891   1.516   2.344   4.708 -2.3234  2.5187 -2.6878
  734THF    H1311892   1.540   2.505   4.771  0.9590 -0.4732  0.7790
  735THF     O111893   1.281   3.953   2.986 -0.4971  0.3562  0.0275
  735THF     C211894   1.305   3.915   3.116 -0.0736  0.4117 -0.4711
  735THF     C311895   1.352   3.861   2.906  0.1988  0.4312 -0.3981
  735THF     H411896   1.225   3.950   3.181 -1.1639 -5.2351  1.8256
  735THF     H511897   1.406   3.942   3.147  0.7125 -1.0726 -1.6323
  735THF     H611898   1.315   3.871   2.804 -2.5643  0.3472  0.5067
  735THF     H711899   1.457   3.890   2.912  0.2183  0.3570 -0.3789
  735THF     C811900   1.324   3.725   2.967  0.1245  0.8609 -0.4021
  735THF     C911901   1.270   3.767   3.109  0.1129 -0.0092 -0.7566
  735THF    H1011902   1.413   3.661   2.973 -0.1850  0.5765  2.5080
  735THF    H1111903   1.253   3.674   2.902 -0.1613  2.4264 -1.3585
  735THF    H1211904   1.162   3.761   3.121 -0.0596  2.4296 -0.5425
  735THF    H1311905   1.311   3.708   3.191 -0.4134  0.2423 -0.3071
  736THF     O111906   5.070   1.458   2.286 -0.0102  0.2156  0.0651
  736THF     C211907   5.062   1.591   2.247 -1.1393 -0.6290 -0.4294
  736THF     C311908   4.978   1.453   2.389 -1.3193 -0.3421  0.3979
  736THF     H411909   4.971   1.602   2.187 -1.1534 -2.4838 -0.8019
  736THF     H511910   5.146   1.630   2.189  0.1818  0.3938  2.0300
  736THF     H611911   4.874   1.469   2.359 -0.8331  0.9171 -0.7015
  736THF     H711912   4.982   1.362   2.448 -0.1842 -0.7693 -0.3269
  736THF     C811913   5.027   1.567   2.484 -0.4769  0.0733  0.1246
  736THF     C911914   5.064   1.667   2.385  0.3132 -0.3670  0.0419
  736THF    H1011915   5.114   1.532   2.539 -0.8928  0.8142  1.2861
  736THF    H1111916   4.943   1.600   2.545 -1.4362 -1.8282 -0.0586
  736THF    H1211917   4.998   1.754   2.389 -2.1784 -2.0887 -0.8295
  736THF    H1311918   5.166   1.697   2.409  0.3864 -0.0965 -0.5661
  737THF     O111919   2.805   0.397   1.101 -0.2733  0.4182  0.2308
  737THF     C211920   2.759   0.261   1.120 -0.1386 -0.6479 -0.2176
  737THF     C311921   2.936   0.396   1.048  0.5219 -0.1356 -0.3803
  737THF     H411922   2.703   0.237   1.030 -1.7590  0.8954  0.3274
  737THF     H511923   2.678   0.254   1.192 -1.0280 -0.6069 -1.1977
  737THF     H611924   2.947   0.364   0.944  0.1132 -3.1890  0.4471
  737THF     H711925   2.976   0.495   1.074 -3.0252  0.5084  3.7975
  737THF     C811926   2.995   0.282   1.125 -0.4188 -0.1818 -0.1195
  737THF     C911927   2.883   0.178   1.150  0.0052 -1.2253 -0.5446
  737THF    H1011928   3.024   0.310   1.226 -2.3185  0.1451  0.3772
  737THF    H1111929   3.082   0.242   1.073  0.8917 -0.1573  1.9445
  737THF    H1211930   2.880   0.086   1.092 -1.1269 -0.5702 -1.5716
  737THF    H1311931   2.886   0.139   1.252  0.4899 -0.5884 -0.3081
  738THF     O111932   3.319   1.870   0.672  1.2453 -0.4615 -0.8132
  738THF     C211933   3.437   1.911   0.744  0.5509 -0.9861  1.3553
  738THF     C311934   3.251   1.982   0.608  0.1182 -0.3346  0.4597
  738THF     H411935   3.517   1.902   0.671 -1.9204 -0.0477 -1.7413
  738THF     H511936   3.471   1.866   0.837  1.0337 -0.4208  1.4593
  738THF     H611937   3.308   1.999   0.517 -0.7396 -0.4038 -0.0911
  738THF     H711938   3.144   1.968   0.594 -0.3318  3.5108 -1.1968
  738THF     C811939   3.263   2.090   0.714  0.0588 -0.6029 -0.1259
  738THF     C911940   3.400   2.059   0.781  0.5774 -0.7462  0.2261
  738THF    H1011941   3.186   2.065   0.787  0.0370 -2.3236 -0.6971
  738THF    H1111942   3.239   2.189   0.677  0.3836 -0.5531 -0.2088
  738THF    H1211943   3.476   2.123   0.737  0.1797  1.4659  2.5415
  738THF    H1311944   3.411   2.079   0.888  1.1179  0.9813 -0.1212
  739THF     O111945   0.007   1.726   2.980 -0.1342 -0.1425  0.1151
  739THF     C211946   0.101   1.828   2.971  0.6242 -0.0838 -0.0670
  739THF     C311947  -0.096   1.757   3.066  0.4321  0.3173 -0.5788
  739THF     H411948   0.090   1.881   2.876  1.0069  1.2691  0.6179
  739THF     H511949   0.199   1.780   2.969  0.0001 -1.4876  1.2133
  739THF     H611950  -0.196   1.743   3.025 -0.5496  0.0106  1.7311
  739THF     H711951  -0.076   1.707   3.161 -2.0085  0.1468 -0.0988
  739THF     C811952  -0.079   1.901   3.094 -0.9022 -0.2411 -0.1917
  739THF     C911953   0.073   1.923   3.084  0.1259 -0.3354  0.0772
  739THF    H1011954  -0.133   1.930   3.184 -1.2935  0.6517 -0.6907
  739THF    H1111955  -0.122   1.961   3.014  0.9970  0.4243 -0.7651
  739THF    H1211956   0.098   2.029   3.073  0.6073 -0.2575  1.6019
  739THF    H1311957   0.119   1.899   3.180  0.8804  1.6405  0.2647
  740THF     O111958   3.432   1.404   1.838 -0.1623  0.4973  0.6491
  740THF     C211959   3.319   1.338   1.779  0.5197 -0.1290  0.3446
  740THF     C311960   3.544   1.401   1.750 -0.3910  0.4301 -0.2764
  740THF     H411961   3.233   1.404   1.771 -0.3661 -1.4062 -1.3575
  740THF     H511962   3.282   1.262   1.849 -3.0342  0.3858 -0.7765
  740THF     H611963   3.531   1.497   1.699  0.6476  1.0512  0.6095
  740THF     H711964   3.645   1.403   1.788 -1.0925  0.6835  1.6505
  740THF     C811965   3.528   1.275   1.666 -0.3034 -0.1661 -0.2378
  740THF     C911966   3.374   1.268   1.646  0.7844 -0.1752 -0.3263
  740THF    H1011967   3.558   1.183   1.717 -0.5831  0.0338  0.2937
  740THF    H1111968   3.584   1.269   1.572 -0.5021 -2.1413 -0.2761
  740THF    H1211969   3.344   1.325   1.558  1.7060  1.9313  0.6480
  740THF    H1311970   3.327   1.172   1.628 -0.7291  0.5286 -0.2972
  741THF     O111971   1.854   0.689   1.627 -0.0244 -0.0756  0.7647
  741THF     C211972   1.949   0.796   1.620 -0.1430  0.1487 -0.0880
  741THF     C311973   1.719   0.739   1.640 -0.2507  0.1659 -0.1095
  741THF     H411974   1.987   0.806   1.519 -1.4590 -2.0082 -0.8682
  741THF     H511975   2.039   0.780   1.680  1.0612 -2.8539 -2.4052
  741THF     H611976   1.666   0.685   1.561  1.9866 -0.5525 -1.2130
  741THF     H711977   1.669   0.709   1.732  2.2531 -0.2919  1.1913
  741THF     C811978   1.722   0.890   1.609  0.0863 -0.1318 -0.3320
  741THF     C911979   1.869   0.922   1.650 -0.6776  0.2290 -0.1926
  741THF    H1011980   1.645   0.937   1.670  2.3578  2.5940  0.6428
  741THF    H1111981   1.684   0.925   1.512 -1.2876  0.8132  0.5077
  741THF    H1211982   1.910   1.008   1.597  0.1455  0.7891  1.2896
  741THF    H1311983   1.866   0.952   1.755 -1.9894  1.2569 -0.5014
  742THF     O111984   4.954   5.042   4.073 -0.6613  0.5320 -0.1138
  742THF     C211985   4.997   5.110   4.185 -0.1652 -0.4160  0.2323
  742THF     C311986   5.067   5.005   3.998 -0.3168  0.5192 -0.2195
  742THF     H411987   5.042   5.040   4.256  1.6027  0.0881 -0.3296
  742THF     H511988   4.917   5.166   4.233 -1.8719 -1.7024 -1.0245
  742THF     H611989   5.109   4.914   4.042 -2.1351  0.3755  1.3999
  742THF     H711990   5.048   4.986   3.893 -0.8959 -2.0193  0.2574
  742THF     C811991   5.154   5.123   4.011 -0.4400 -0.1738 -0.1608
  742THF     C911992   5.106   5.207   4.121 -0.6071 -0.1798  0.3991
  742THF    H1011993   5.147   5.179   3.918 -1.1189  0.2883  0.1556
  742THF    H1111994   5.260   5.104   4.027 -0.5331  0.7310  1.9276
  742THF    H1211995   5.186   5.237   4.189 -0.9264 -2.0657  1.7026
  742THF    H1311996   5.056   5.296   4.082  2.0066  1.2718  0.1055
  743THF     O111997   5.449   0.451   5.431 -0.0975  0.0730  0.4517
  743THF     C211998   5.381   0.577   5.401 -0.1896 -0.3468  0.2127
  743THF     C311999   5.519   0.417   5.314  0.0072 -0.4383 -0.6377
  743THF     H412000   5.453   0.652   5.434 -0.6309  0.7826 -1.2979
  743THF     H512001   5.287   0.592   5.455 -1.0929  2.0659 -1.8366
  743THF     H612002   5.599   0.491   5.310  0.6993 -1.1109  0.3469
  743THF     H712003   5.563   0.317   5.314  0.9287 -0.0568  0.8284
  743THF     C812004   5.409   0.437   5.208 -0.2125  0.6053  0.0014
  743THF     C912005   5.344   0.569   5.246  0.1208 -0.4350  0.2460
  743THF    H1012006   5.337   0.356   5.217  0.1681  0.2997  0.2957
  743THF    H1112007   5.452   0.428   5.108 -1.1272 -1.2967 -0.2611
  743THF    H1212008   5.394   0.649   5.192  3.8569 -0.7179  2.8947
  743THF    H1312009   5.238   0.571   5.220  0.2086  2.4063 -0.1464
  744THF     O112010   2.140   2.828   5.436  0.2691  0.0780  0.5371
  744THF     C212011   2.284   2.842   5.469 -0.2909 -0.2225  0.2133
  744THF     C312012   2.106   2.702   5.502  0.4679 -0.2229 -0.2088
  744THF     H412013   2.301   2.906   5.556 -2.2958  2.2665 -1.0937
  744THF     H512014   2.332   2.903   5.392  0.3952  3.0468  2.9772
  744THF     H612015   2.084   2.709   5.608 -0.3637  0.9815 -0.4453
  744THF     H712016   2.015   2.663   5.455 -0.0761 -1.1261  1.5100
  744THF     C812017   2.224   2.616   5.470  0.3907 -0.3479  0.7532
  744THF     C912018   2.343   2.706   5.478  0.6382 -0.7742  0.6501
  744THF    H1012019   2.213   2.572   5.371 -0.0238  3.8650 -1.2658
  744THF    H1112020   2.228   2.541   5.550  0.5722  0.3694  1.4225
  744THF    H1212021   2.378   2.691   5.580 -0.3426 -1.7192  0.8627
  744THF    H1312022   2.419   2.691   5.401  0.4734  0.7418  0.1578
  745THF     O112023   1.313   1.319   3.898  0.2337 -0.8985 -0.5145
  745THF     C212024   1.334   1.384   4.017  0.0365  0.4660 -0.4557
  745THF     C312025   1.377   1.396   3.801  0.0239 -0.0857 -0.2834
  745THF     H412026   1.328   1.303   4.089 -0.5606  0.1178 -0.8836
  745THF     H512027   1.247   1.447   4.036  1.4471  1.9872  1.3484
  745THF     H612028   1.446   1.329   3.750 -1.1248  0.5418 -2.8417
  745THF     H712029   1.312   1.416   3.716  0.3587 -0.8058 -0.7217
  745THF     C812030   1.450   1.514   3.863 -0.5017 -0.1469  0.7461
  745THF     C912031   1.466   1.466   4.008  0.0512 -0.3127 -0.1677
  745THF    H1012032   1.396   1.607   3.848  2.5400  1.4602 -1.5524
  745THF    H1112033   1.541   1.524   3.803 -1.1635 -2.7012 -0.8497
  745THF    H1212034   1.547   1.396   4.027  1.3884  1.4469  1.0188
  745THF    H1312035   1.472   1.552   4.075 -2.5136  0.8491 -1.2757
  746THF     O112036   0.977   1.493   4.240  0.3030  0.2769 -0.3831
  746THF     C212037   0.962   1.526   4.106 -0.3319  0.8984  0.4566
  746THF     C312038   0.879   1.557   4.329 -0.6920 -0.3334  0.4894
  746THF     H412039   0.948   1.432   4.052 -0.3964  2.1455 -1.7689
  746THF     H512040   1.053   1.574   4.071  0.0770  1.0257  1.6434
  746THF     H612041   0.875   1.493   4.417 -0.2741 -0.2165  0.5989
  746THF     H712042   0.913   1.654   4.365 -0.7740 -0.8184  1.9412
  746THF     C812043   0.756   1.565   4.235 -0.0285  0.2232  0.0871
  746THF     C912044   0.828   1.596   4.105 -0.2045 -0.6156 -0.3333
  746THF    H1012045   0.694   1.652   4.254  1.0942  1.2187 -0.6743
  746THF    H1112046   0.714   1.465   4.230  1.2373 -0.2672 -2.1979
  746THF    H1212047   0.768   1.595   4.014 -0.7238  4.2922 -0.3352
  746THF    H1312048   0.856   1.701   4.117  1.1964 -1.1045  1.0861
  747THF     O112049   1.214   2.740   3.233 -0.3210 -0.2733  0.3130
  747THF     C212050   1.156   2.681   3.113  0.4978 -0.5335 -0.4532
  747THF     C312051   1.204   2.881   3.209 -0.2002  0.0822  0.5913
  747THF     H412052   1.047   2.677   3.119  0.4233  0.2544 -1.1444
  747THF     H512053   1.187   2.576   3.106  0.6930 -0.4407 -1.0330
  747THF     H612054   1.100   2.906   3.228 -1.1074  2.1260 -5.0906
  747THF     H712055   1.273   2.929   3.279  0.5218 -1.6329  1.1406
  747THF     C812056   1.218   2.902   3.057 -0.4055 -0.6299  0.5377
  747THF     C912057   1.198   2.761   2.997 -0.0690  0.6652 -0.3373
  747THF    H1012058   1.316   2.941   3.031  0.3077 -1.1476  2.3493
  747THF    H1112059   1.137   2.969   3.029  0.8201  1.4409  1.7832
  747THF    H1212060   1.140   2.752   2.906  0.6704  0.2253 -0.7709
  747THF    H1312061   1.299   2.728   2.973 -0.1053 -0.5795  1.0746
  748THF     O112062   0.094   4.240   4.045 -0.3742  0.6632  0.0637
  748THF     C212063   0.033   4.302   3.934  0.8587 -0.1601  0.2198
  748THF     C312064  -0.009   4.210   4.129  0.0520  0.4146  0.3280
  748THF     H412065   0.097   4.294   3.847 -0.6473  0.7194 -1.0056
  748THF     H512066   0.017   4.405   3.968 -0.5940 -0.3282  0.0948
  748THF     H612067   0.023   4.148   4.213  0.5676  1.6112  1.0418
  748THF     H712068  -0.054   4.299   4.173 -2.0537  0.0453 -0.9286
  748THF     C812069  -0.116   4.148   4.046 -0.3977  0.4444  0.9608
  748THF     C912070  -0.098   4.232   3.915 -0.1206 -0.1029  0.8792
  748THF    H1012071  -0.215   4.164   4.089 -0.3725 -0.7700  1.5323
  748THF    H1112072  -0.088   4.045   4.021  1.8197  0.6113  2.4879
  748THF    H1212073  -0.093   4.170   3.825 -0.3739 -2.3901  2.3687
  748THF    H1312074  -0.181   4.302   3.912 -0.6801 -0.5752  3.2622
  749THF     O112075   5.394   1.057   0.328  0.1576  0.2707 -0.0668
  749THF     C212076   5.258   1.015   0.326 -0.5372 -0.2789 -0.1278
  749THF     C312077   5.472   0.961   0.257  0.2147 -0.1792 -0.2231
  749THF     H412078   5.206   1.110   0.317  0.2448  0.0801 -1.0820
  749THF     H512079   5.223   0.972   0.420 -2.1937 -1.1537 -1.0881
  749THF     H612080   5.564   1.006   0.219  1.1316 -1.5038  0.3602
  749THF     H712081   5.503   0.875   0.317 -0.2886  0.1570  0.5350
  749THF     C812082   5.382   0.913   0.143  0.2912 -0.1928 -0.2005
  749THF     C912083   5.241   0.921   0.204 -0.7355 -0.6973  0.0435
  749THF    H1012084   5.413   0.815   0.107 -0.2012  0.0425 -1.2832
  749THF    H1112085   5.384   0.980   0.057  0.3141 -0.3278 -0.3061
  749THF    H1212086   5.167   0.969   0.139 -0.7918  2.7035  2.3463
  749THF    H1312087   5.200   0.823   0.228 -3.1015  0.1982 -0.0582
  750THF     O112088   5.329   1.193   5.086  0.3097  0.3159 -0.2878
  750THF     C212089   5.297   1.099   5.190  0.1552 -0.2837  0.4210
  750THF     C312090   5.232   1.304   5.081 -0.0454  0.3314  0.3903
  750THF     H412091   5.371   1.110   5.269  0.8875  2.6871 -0.5821
  750THF     H512092   5.304   0.997   5.151  1.6607 -0.3496  0.8061
  750THF     H612093   5.270   1.406   5.072 -0.8154  0.6598  0.7910
  750THF     H712094   5.172   1.289   4.991 -1.1213  0.3274  1.0929
  750THF     C812095   5.155   1.289   5.213  0.1037 -0.1441  0.4705
  750THF     C912096   5.158   1.137   5.228  0.1987 -0.6447 -0.7023
  750THF    H1012097   5.058   1.339   5.207  0.1171 -0.2157 -0.4345
  750THF    H1112098   5.211   1.325   5.299  1.5712 -2.9758  0.8485
  750THF    H1212099   5.127   1.106   5.328  0.0177 -1.4712 -1.0015
  750THF    H1312100   5.083   1.095   5.161 -1.3561  1.1375 -0.1762
  751THF     O112101   2.990   3.091   1.429 -0.2919 -0.5629  0.1393
  751THF     C212102   2.886   3.006   1.367  1.1876 -0.0240 -0.0049
  751THF     C312103   3.038   3.019   1.546  0.3377  0.6162 -0.1319
  751THF     H412104   2.925   2.937   1.292 -0.6110  0.4366 -1.4527
  751THF     H512105   2.808   3.070   1.326  2.6348  1.2908 -0.8154
  751THF     H612106   3.131   2.964   1.530  1.3541  2.4780 -0.9396
  751THF     H712107   3.069   3.101   1.610 -1.1533  0.3841  0.9470
  751THF     C812108   2.923   2.935   1.596  0.0060 -0.1237 -0.3425
  751THF     C912109   2.814   2.944   1.484  0.8278 -0.2442  0.3739
  751THF    H1012110   2.883   2.975   1.689  1.7140  0.5005  0.1690
  751THF    H1112111   2.944   2.837   1.638 -0.0816 -0.7570 -1.7175
  751THF    H1212112   2.775   2.846   1.461  3.8569 -1.6281  0.6558
  751THF    H1312113   2.734   3.011   1.518  0.2918 -0.0912 -1.1451
  752THF     O112114   0.235   5.011   5.164 -0.3795  0.0656  0.1970
  752THF     C212115   0.369   4.958   5.121  0.6557  0.9030  0.7747
  752THF     C312116   0.149   4.893   5.170 -0.2744  0.5544  0.2038
  752THF     H412117   0.457   5.002   5.169  0.7482 -0.0816  1.5273
  752THF     H512118   0.364   4.982   5.015 -0.8878 -1.0383  0.3697
  752THF     H612119   0.108   4.870   5.268 -2.3011 -3.0406 -1.2768
  752THF     H712120   0.072   4.911   5.095  1.2500 -0.8055 -1.8205
  752THF     C812121   0.224   4.771   5.129  0.0179 -0.0054 -0.4210
  752THF     C912122   0.367   4.806   5.146 -0.0388  0.6533  0.2198
  752THF    H1012123   0.205   4.768   5.022  1.0732  0.9855 -0.6604
  752THF    H1112124   0.193   4.681   5.183  1.9350  0.4164  1.5201
  752THF    H1212125   0.405   4.791   5.247  0.2030  0.2448  0.0677
  752THF    H1312126   0.442   4.760   5.083 -0.4740  1.0101 -0.5792
  753THF     O112127   1.218   0.315   2.061 -0.0890  0.4005 -0.8490
  753THF     C212128   1.272   0.334   1.922 -0.3074  0.0376 -0.6985
  753THF     C312129   1.262   0.412   2.160  0.3966  0.1382  0.3212
  753THF     H412130   1.200   0.336   1.841 -2.3057 -0.3796  0.9883
  753THF     H512131   1.344   0.254   1.906  1.0756  0.4807  2.4959
  753THF     H612132   1.193   0.496   2.170  1.1581  0.8246 -0.0296
  753THF     H712133   1.272   0.367   2.259  0.3282  0.4659  0.4770
  753THF     C812134   1.391   0.455   2.082 -0.1387  0.7344 -0.4411
  753THF     C912135   1.348   0.473   1.942  1.0070  0.2944 -0.3693
  753THF    H1012136   1.468   0.378   2.088  0.5148  1.4455  0.4082
  753THF    H1112137   1.441   0.542   2.123  1.6116 -0.5739  0.3139
  753THF    H1212138   1.275   0.555   1.935 -1.0229 -1.3699  0.2017
  753THF    H1312139   1.427   0.490   1.869 -0.4916 -1.3528 -2.5198
  754THF     O112140   5.203   0.462   0.302 -0.0905 -0.0302 -0.0009
  754THF     C212141   5.198   0.403   0.169  0.1173  0.6922 -0.1642
  754THF     C312142   5.240   0.363   0.392  0.1869  0.2898 -0.3073
  754THF     H412143   5.304   0.408   0.142  0.4125  0.1360  0.8427
  754THF     H512144   5.127   0.460   0.108 -0.8769  0.1259  0.4584
  754THF     H612145   5.344   0.330   0.388  0.1589 -0.0609  1.1593
  754THF     H712146   5.217   0.405   0.490  2.3894 -0.5240  0.6324
  754THF     C812147   5.147   0.247   0.354  0.4351  0.0622  0.8772
  754THF     C912148   5.154   0.259   0.199  0.0637 -0.6632  0.2870
  754THF    H1012149   5.045   0.255   0.390 -0.0249  0.7264 -0.5037
  754THF    H1112150   5.179   0.148   0.386  0.9337 -1.1572 -2.8402
  754THF    H1212151   5.221   0.185   0.156 -1.6753 -1.2891 -1.5393
  754THF    H1312152   5.060   0.249   0.144 -0.0175  1.7583 -0.1466
  755THF     O112153   0.292   0.454   1.231 -0.2896  0.6638  0.2335
  755THF     C212154   0.223   0.578   1.211 -0.4272  0.3575  0.2877
  755THF     C312155   0.201   0.349   1.273 -0.4747 -0.3118  0.0964
  755THF     H412156   0.176   0.576   1.113  0.5308  0.5037 -0.1858
  755THF     H512157   0.278   0.672   1.211 -0.9835  0.7344  2.0409
  755THF     H612158   0.152   0.313   1.183  0.9219 -0.3722 -0.6687
  755THF     H712159   0.259   0.269   1.318  0.9697  0.6444  0.0171
  755THF     C812160   0.116   0.431   1.361  0.1206 -0.1376  0.0758
  755THF     C912161   0.110   0.574   1.313  0.2121  0.2881 -0.8934
  755THF    H1012162   0.174   0.423   1.453  3.0515 -2.1348 -1.7823
  755THF    H1112163   0.014   0.397   1.379 -0.1602  0.5880 -0.0977
  755THF    H1212164   0.022   0.593   1.251 -0.1775  0.3048 -0.3383
  755THF    H1312165   0.115   0.639   1.401 -4.0853 -1.3312  0.8026
  756THF     O112166   4.702   4.693   3.311 -0.1505 -0.2462  0.1057
  756THF     C212167   4.792   4.798   3.347  0.1827 -0.3135 -0.0582
  756THF     C312168   4.708   4.661   3.173 -0.0202 -0.4206  0.6255
  756THF     H412169   4.876   4.767   3.410 -0.7728 -1.0014  0.9077
  756THF     H512170   4.731   4.861   3.412 -1.9463 -1.4673 -0.8287
  756THF     H612171   4.780   4.582   3.152  0.5560  0.7081 -2.1368
  756THF     H712172   4.609   4.628   3.141  0.1706 -1.3979  1.0074
  756THF     C812173   4.755   4.796   3.113 -0.4000 -0.1691  0.0736
  756THF     C912174   4.833   4.866   3.217  0.0003 -0.2228 -0.1630
  756THF    H1012175   4.665   4.856   3.095  0.9126  1.5207 -1.1223
  756THF    H1112176   4.806   4.789   3.018 -1.2393  0.0437 -0.4045
  756THF    H1212177   4.941   4.855   3.205 -0.0457  1.0622 -2.4879
  756THF    H1312178   4.819   4.974   3.220 -3.0651 -0.5593  2.3025
  757THF     O112179   1.367   1.994   4.973  0.7587  0.3449 -0.9656
  757THF     C212180   1.344   2.125   5.023  0.4110  0.4210  0.4145
  757THF     C312181   1.450   1.923   5.068 -0.5886 -0.8806  0.3592
  757THF     H412182   1.254   2.166   4.978  0.1667 -0.2104  0.3228
  757THF     H512183   1.428   2.195   5.011  1.7716 -1.2378 -0.1764
  757THF     H612184   1.438   1.815   5.078 -2.3662 -0.8689 -1.1767
  757THF     H712185   1.556   1.948   5.060 -0.8626  0.0690 -0.4631
  757THF     C812186   1.405   1.980   5.201  0.3221  0.3146  0.2892
  757THF     C912187   1.334   2.112   5.167 -0.1973 -0.2298 -0.5038
  757THF    H1012188   1.482   1.996   5.276  0.8449 -1.5278  0.1869
  757THF    H1112189   1.331   1.917   5.251  2.7727 -2.6167  0.4840
  757THF    H1212190   1.232   2.111   5.205  0.4704 -1.6202  1.3952
  757THF    H1312191   1.384   2.196   5.214  0.2639 -1.7701  1.9593
  758THF     O112192   3.028   2.095   5.357 -0.4297 -0.7019 -0.7302
  758THF     C212193   3.119   1.993   5.311  0.2992 -0.8931  0.3339
  758THF     C312194   3.011   2.074   5.506  0.3293 -0.3316  0.3991
  758THF     H412195   3.193   2.050   5.254  0.3350 -0.7698  0.5019
  758THF     H512196   3.064   1.929   5.243  0.2092 -0.3801 -0.0804
  758THF     H612197   3.073   2.145   5.562  2.3471 -1.8392  0.1456
  758THF     H712198   2.908   2.090   5.541 -0.0556 -3.3911  0.8955
  758THF     C812199   3.048   1.937   5.530  0.1903 -0.3240 -0.2895
  758THF     C912200   3.172   1.925   5.437 -0.1028 -0.2524 -0.0077
  758THF    H1012201   2.966   1.871   5.500 -0.5140  0.8458 -0.9898
  758THF    H1112202   3.072   1.911   5.633  0.0597  0.2039 -0.1243
  758THF    H1212203   3.254   1.987   5.474 -0.1053  0.2039 -0.7595
  758THF    H1312204   3.205   1.821   5.432 -0.3261 -0.3240  0.0099
  759THF     O112205   3.980   4.170   2.848 -0.5738  0.2049 -1.2106
  759THF     C212206   4.023   4.277   2.767  0.5925  0.4200 -0.2585
  759THF     C312207   4.059   4.150   2.963  0.3733 -0.3097 -0.5802
  759THF     H412208   3.936   4.339   2.745 -0.0387 -0.7701 -1.2842
  759THF     H512209   4.072   4.242   2.676 -2.0730  0.5410 -1.8569
  759THF     H612210   4.006   4.163   3.057  4.9252  2.9683  1.9982
  759THF     H712211   4.094   4.047   2.960  2.2106  0.2961 -1.3570
  759THF     C812212   4.170   4.261   2.956  0.2877  0.1964  0.2697
  759THF     C912213   4.118   4.361   2.857 -0.0023  0.0385  0.2056
  759THF    H1012214   4.264   4.216   2.925 -0.1159  0.8380 -2.0450
  759THF    H1112215   4.186   4.306   3.055 -0.8130  0.0299  0.5382
  759THF    H1212216   4.064   4.435   2.917 -2.0996  1.0425 -2.6880
  759THF    H1312217   4.191   4.409   2.792 -0.1216  0.0785  0.1014
  760THF     O112218   0.715   5.081   0.934 -0.4190  0.4094  0.2041
  760THF     C212219   0.779   5.189   0.989  0.1707 -0.0413 -0.0995
  760THF     C312220   0.811   4.991   0.876 -0.0458  0.0395 -0.2591
  760THF     H412221   0.762   5.186   1.097  1.0754 -3.4818  0.0639
  760THF     H512222   0.750   5.281   0.938 -0.7849 -0.2132  0.1213
  760THF     H612223   0.780   4.889   0.900  1.6108 -0.7294 -1.2054
  760THF     H712224   0.820   5.003   0.769 -0.8325  0.6177 -0.2705
  760THF     C812225   0.946   5.016   0.947 -0.3211  0.0768 -0.4128
  760THF     C912226   0.931   5.169   0.975 -0.0412 -0.0494 -0.1482
  760THF    H1012227   1.036   4.981   0.895 -0.3097  1.2193 -1.2084
  760THF    H1112228   0.956   4.970   1.045  2.0633  0.9903 -0.1388
  760THF    H1212229   0.974   5.203   1.069  0.9819  0.9812 -0.9631
  760THF    H1312230   0.970   5.238   0.901  1.1204 -0.5521 -0.0200
  761THF     O112231   5.402   4.165   4.483 -0.1202  0.5256 -0.1881
  761THF     C212232   5.501   4.084   4.563 -0.6975  0.2814  0.3714
  761THF     C312233   5.435   4.293   4.525  0.1733 -0.2316 -0.2140
  761THF     H412234   5.534   3.987   4.528  0.3032  0.4859  0.7208
  761THF     H512235   5.455   4.068   4.661 -1.4114 -2.6498 -0.3451
  761THF     H612236   5.391   4.369   4.461 -3.5675  0.1115  2.3978
  761THF     H712237   5.406   4.310   4.629  0.3324  3.1884 -0.6234
  761THF     C812238   5.590   4.303   4.521  0.1270 -0.1682 -0.4498
  761THF     C912239   5.632   4.158   4.557 -0.5757 -0.5195  0.1295
  761THF    H1012240   5.618   4.367   4.605 -1.3493 -0.1360  0.0492
  761THF    H1112241   5.621   4.345   4.426 -2.1037  0.1290 -1.1159
  761THF    H1212242   5.715   4.132   4.491 -0.9323  0.0856 -0.5631
  761THF    H1312243   5.671   4.157   4.659 -1.1058  0.7966  0.3577
  762THF     O112244   1.052   1.080   2.107 -0.0601  0.0286  0.2925
  762THF     C212245   1.089   1.116   1.971 -0.5577  1.2294  0.7544
  762THF     C312246   1.177   1.056   2.166  0.0541  0.3555 -0.3176
  762THF     H412247   1.115   1.221   1.971  0.0416  1.1913 -2.4046
  762THF     H512248   1.005   1.111   1.902  0.0880 -0.7589  0.0285
  762THF     H612249   1.226   1.152   2.186 -0.2547  0.1776  1.4922
  762THF     H712250   1.166   1.006   2.263 -0.3598  0.2236 -0.4307
  762THF     C812251   1.260   0.978   2.069  0.6537 -0.0570 -0.1251
  762THF     C912252   1.202   1.028   1.933 -0.2676  0.3421 -0.7118
  762THF    H1012253   1.228   0.874   2.074 -1.1715  0.4282 -0.8970
  762THF    H1112254   1.368   0.983   2.088  0.6957 -1.0959 -0.0185
  762THF    H1212255   1.280   1.092   1.890  0.6671  0.8597  1.5860
  762THF    H1312256   1.176   0.946   1.866 -1.5729 -0.4604  0.7404
  763THF     O112257   2.475   0.857   4.082 -0.8609 -0.0260 -0.2230
  763THF     C212258   2.548   0.976   4.046 -0.1381  0.1629  0.0449
  763THF     C312259   2.542   0.744   4.038 -0.2067 -0.6743 -0.7865
  763THF     H412260   2.624   1.005   4.119 -0.9832  0.6409  0.7636
  763THF     H512261   2.480   1.059   4.029  0.5006  0.4256 -1.3419
  763THF     H612262   2.633   0.743   4.097  0.8323  1.3522 -2.2490
  763THF     H712263   2.488   0.649   4.044  0.7783 -1.3944 -2.7027
  763THF     C812264   2.574   0.783   3.898 -0.0301 -0.2723  0.5173
  763THF     C912265   2.615   0.931   3.915  0.2455  0.3405 -0.1621
  763THF    H1012266   2.484   0.769   3.839 -0.5526 -0.8780  1.4300
  763THF    H1112267   2.645   0.711   3.855 -0.8699 -0.6923 -0.1915
  763THF    H1212268   2.722   0.939   3.935  0.1791 -0.1207  0.4031
  763THF    H1312269   2.595   0.985   3.822 -1.3101  2.8367  1.4957
  764THF     O112270   4.585   4.383   2.328  0.0974  0.1379  0.3430
  764THF     C212271   4.644   4.492   2.260 -0.4276  0.3030 -0.7847
  764THF     C312272   4.687   4.328   2.407  0.1259  0.1771 -0.7095
  764THF     H412273   4.622   4.587   2.310 -0.4563 -0.1934  0.1629
  764THF     H512274   4.596   4.495   2.162  1.3894 -1.2262 -1.7604
  764THF     H612275   4.696   4.385   2.499  1.9419 -1.4275  0.1881
  764THF     H712276   4.668   4.230   2.452  0.4055  0.8551  0.9554
  764THF     C812277   4.819   4.340   2.338  0.1117  0.1237 -0.3893
  764THF     C912278   4.799   4.459   2.247  0.5714  0.2602 -0.7077
  764THF    H1012279   4.833   4.250   2.278  1.7976 -0.5017  0.8500
  764THF    H1112280   4.900   4.339   2.412  0.3405  0.1065 -0.6399
  764THF    H1212281   4.849   4.549   2.282  1.2702 -0.5576  0.4686
  764THF    H1312282   4.830   4.442   2.144  2.6509 -1.9440  0.1921
  765THF     O112283   0.168   3.695   3.718  0.2383 -0.2856  0.7208
  765THF     C212284   0.129   3.660   3.846  0.1089 -0.0128 -0.3272
  765THF     C312285   0.186   3.841   3.724 -0.3980  0.0924 -0.1656
  765THF     H412286   0.203   3.661   3.926 -2.1483  1.6140  1.8741
  765THF     H512287   0.070   3.568   3.851  0.3230 -0.1068  0.5804
  765THF     H612288   0.283   3.847   3.773 -0.6236 -0.2412  0.3250
  765THF     H712289   0.186   3.887   3.625 -1.8491 -1.1890 -0.8084
  765THF     C812290   0.075   3.888   3.812  1.6491  0.2430 -0.1744
  765THF     C912291   0.031   3.770   3.893 -0.4659 -1.1109 -0.4170
  765THF    H1012292  -0.002   3.919   3.741  0.6301 -0.1320  0.7312
  765THF    H1112293   0.108   3.978   3.865  2.2543  0.2063 -0.4821
  765THF    H1212294   0.043   3.793   3.999 -1.9306 -0.2038 -0.4262
  765THF    H1312295  -0.067   3.735   3.861  0.3568 -1.7455 -2.4313
  766THF     O112296   3.214   1.932   2.554  0.1619 -0.3041  0.1251
  766THF     C212297   3.236   1.861   2.679 -0.0041 -0.2205  0.1071
  766THF     C312298   3.266   2.059   2.559  0.0635  0.0065  0.6594
  766THF     H412299   3.274   1.762   2.656 -0.0759 -0.2660  0.1830
  766THF     H512300   3.145   1.849   2.739 -0.0849  0.5941  0.1614
  766THF     H612301   3.363   2.054   2.508 -0.8277 -0.7136 -1.0399
  766THF     H712302   3.207   2.139   2.516  2.6963  1.9613  0.4312
  766THF     C812303   3.280   2.094   2.710 -0.4346  0.5294 -0.2796
  766THF     C912304   3.324   1.957   2.756  0.2757  0.5304 -0.0409
  766THF    H1012305   3.189   2.116   2.765 -0.4561 -1.9655  0.8418
  766THF    H1112306   3.358   2.168   2.728  1.1798 -1.0109 -0.6055
  766THF    H1212307   3.421   1.934   2.711 -0.3771 -3.0613  0.0979
  766THF    H1312308   3.332   1.943   2.864 -1.4893 -0.8302 -0.0536
  767THF     O112309   2.521   2.831   4.969 -0.3567  0.3312 -0.2632
  767THF     C212310   2.552   2.759   5.092 -0.2916 -0.1745 -0.1630
  767THF     C312311   2.488   2.733   4.874  0.6580 -0.0535  0.3874
  767THF     H412312   2.526   2.810   5.185 -1.3476 -2.6649  1.0257
  767THF     H512313   2.661   2.763   5.093 -0.2758  2.9347 -2.4136
  767THF     H612314   2.380   2.740   4.863  0.6172  3.6391  1.7036
  767THF     H712315   2.543   2.755   4.782  0.1772  1.3446  0.4123
  767THF     C812316   2.524   2.595   4.927  0.9434 -0.1277 -0.0011
  767THF     C912317   2.507   2.614   5.072 -0.1791 -0.0212 -0.6977
  767THF    H1012318   2.625   2.565   4.899  1.1704  0.1137  0.5592
  767THF    H1112319   2.453   2.520   4.889  0.1621  0.9273 -0.6937
  767THF    H1212320   2.401   2.607   5.092  0.1414 -0.0828  1.2087
  767THF    H1312321   2.569   2.547   5.131 -0.2049 -0.4063 -1.1032
  768THF     O112322   3.581   1.324   5.019 -0.0713  0.1080 -0.4522
  768THF     C212323   3.666   1.207   5.024 -0.7083 -0.2926 -0.1952
  768THF     C312324   3.561   1.356   4.885 -0.0115 -0.3340 -0.4740
  768THF     H412325   3.667   1.161   5.123  3.9863 -0.2162  0.0133
  768THF     H512326   3.768   1.231   4.994 -0.7844  2.2315  1.2752
  768THF     H612327   3.481   1.430   4.876  0.5759  0.3175 -0.4547
  768THF     H712328   3.652   1.403   4.847  1.1814 -0.6979  1.7502
  768THF     C812329   3.524   1.219   4.828  0.3015  0.0211 -0.6660
  768THF     C912330   3.608   1.123   4.915  0.2637  0.3245  0.0561
  768THF    H1012331   3.531   1.215   4.720  0.0687 -0.2918 -0.6707
  768THF    H1112332   3.419   1.194   4.837  0.8651 -2.5117 -0.6049
  768THF    H1212333   3.543   1.048   4.959  1.6030 -0.9762 -0.0889
  768THF    H1312334   3.683   1.080   4.849  1.2289 -1.0700  1.9777
  769THF     O112335   4.688   4.907   3.736 -0.1168 -0.2455 -0.0259
  769THF     C212336   4.609   4.787   3.754 -0.1998  0.0338  0.2637
  769THF     C312337   4.696   4.965   3.863  0.4579  0.3836  0.8220
  769THF     H412338   4.629   4.711   3.679 -1.4673 -2.7704  2.5617
  769THF     H512339   4.503   4.811   3.756 -0.3221 -0.4878  0.2481
  769THF     H612340   4.785   5.027   3.875  1.4675 -1.0030  0.7629
  769THF     H712341   4.597   5.007   3.882 -0.7813 -2.4044  1.0886
  769THF     C812342   4.704   4.852   3.967 -0.5088  1.0674 -0.2909
  769THF     C912343   4.654   4.731   3.888 -0.3023  0.0982  0.3591
  769THF    H1012344   4.647   4.872   4.058 -0.8664  0.3028 -0.3395
  769THF    H1112345   4.808   4.833   3.995 -1.1864  0.0012  1.7468
  769THF    H1212346   4.742   4.667   3.874  0.4444  1.6442 -3.0754
  769THF    H1312347   4.569   4.669   3.916 -0.3705  0.5172  1.1046
  770THF     O112348   5.352   4.667   2.011  0.4608  0.2457 -0.0798
  770THF     C212349   5.219   4.714   1.992  0.5821  0.1875  0.3188
  770THF     C312350   5.375   4.644   2.149  0.3122  0.6066  0.5979
  770THF     H412351   5.179   4.671   1.900 -2.4264  0.6837  1.2727
  770THF     H512352   5.224   4.821   1.976  1.6191  0.3214  1.3741
  770THF     H612353   5.453   4.570   2.163  0.5526  0.2326 -2.2772
  770THF     H712354   5.394   4.736   2.204 -1.5121  0.1629  2.0685
  770THF     C812355   5.242   4.586   2.196  0.1233  0.6022 -1.0225
  770THF     C912356   5.150   4.673   2.121 -0.2692 -0.2805  0.6888
  770THF    H1012357   5.230   4.586   2.304  2.9749  1.2974 -0.6197
  770THF    H1112358   5.232   4.484   2.160  1.2013 -0.2321  0.8775
  770THF    H1212359   5.054   4.627   2.098 -0.0514  0.2035 -1.3666
  770THF    H1312360   5.128   4.758   2.186  2.7695 -0.1169  1.6338
  771THF     O112361   1.740   1.838   5.323 -0.0440 -0.2352  0.1475
  771THF     C212362   1.672   1.722   5.297  0.1441 -0.1245 -0.3842
  771THF     C312363   1.715   1.868   5.457 -0.0039  0.5932 -0.1865
  771THF     H412364   1.715   1.675   5.209  1.5669  0.0360  0.1877
  771THF     H512365   1.566   1.744   5.281  0.1840 -0.7484 -1.5715
  771THF     H612366   1.792   1.924   5.510  0.7461 -1.1989  0.6889
  771THF     H712367   1.623   1.926   5.462 -1.4207 -1.4611 -0.9374
  771THF     C812368   1.692   1.733   5.530 -0.6108 -0.7656  0.1833
  771THF     C912369   1.708   1.638   5.422  0.1740  0.1260 -0.2044
  771THF    H1012370   1.591   1.719   5.569 -0.9161 -1.6723 -0.8538
  771THF    H1112371   1.771   1.723   5.604 -0.7818  1.4233  0.7225
  771THF    H1212372   1.814   1.617   5.415  0.3305  1.0606 -0.7208
  771THF    H1312373   1.655   1.543   5.429 -1.4713  1.0754  1.1780
  772THF     O112374   2.642   2.214   0.120  0.9315  0.2687  0.0328
  772THF     C212375   2.576   2.120   0.029 -0.7572  0.4262 -0.2146
  772THF     C312376   2.558   2.338   0.126 -0.8355  0.2182  0.3699
  772THF     H412377   2.504   2.058   0.082 -0.4509 -1.1703 -1.5873
  772THF     H512378   2.653   2.047   0.002 -0.9728  0.8040 -1.9962
  772THF     H612379   2.512   2.350   0.224  0.0020 -1.0982  0.9492
  772THF     H712380   2.628   2.421   0.111  0.5348 -0.7788  1.0217
  772THF     C812381   2.463   2.334   0.012  0.2421 -0.2063 -0.2749
  772THF     C912382   2.511   2.214  -0.074 -0.2568 -0.1501  0.1011
  772THF    H1012383   2.454   2.430  -0.040  0.0886  0.0584  0.2368
  772THF    H1112384   2.368   2.306   0.056  0.5529 -2.8692 -1.1295
  772THF    H1212385   2.432   2.163  -0.129  1.1889 -1.4826 -0.8479
  772THF    H1312386   2.592   2.242  -0.142 -1.3899  0.4918 -1.0340
  773THF     O112387   2.783   4.497   4.920 -0.1023 -1.0740 -0.5787
  773THF     C212388   2.807   4.574   5.037 -0.0612  0.6583 -0.0230
  773THF     C312389   2.642   4.484   4.898  0.0149  0.0027  0.2466
  773THF     H412390   2.903   4.626   5.035  1.0861 -1.2448  1.7891
  773THF     H512391   2.803   4.517   5.130 -1.2803 -0.0448 -0.4858
  773THF     H612392   2.637   4.491   4.790  0.2433  0.8368  0.2891
  773THF     H712393   2.591   4.395   4.936  0.3236 -0.3274 -0.1116
  773THF     C812394   2.581   4.600   4.965 -1.0103 -0.2170 -0.1903
  773THF     C912395   2.696   4.667   5.045  0.0669 -0.1432  0.4739
  773THF    H1012396   2.491   4.569   5.018 -1.2081 -0.7936 -0.8488
  773THF    H1112397   2.551   4.661   4.879  0.4028  0.8047  0.0093
  773THF    H1212398   2.737   4.754   4.992 -1.9090  1.7391  1.8413
  773THF    H1312399   2.654   4.695   5.141 -2.9717 -3.6244  0.3711
  774THF     O112400   2.545   3.558   2.019 -0.4057 -0.1523  0.1841
  774THF     C212401   2.687   3.585   2.025  0.5005 -0.5547  0.1896
  774THF     C312402   2.527   3.438   2.091 -0.0106 -0.4344 -1.0407
  774THF     H412403   2.717   3.687   2.001 -0.1541 -0.5730 -0.7256
  774THF     H512404   2.747   3.518   1.963  0.7993 -2.0528  2.0006
  774THF     H612405   2.424   3.414   2.115  0.1362 -0.9529 -0.9160
  774THF     H712406   2.576   3.355   2.040  4.2113  1.9578 -1.3516
  774THF     C812407   2.610   3.464   2.218  0.8642  0.3611 -0.2616
  774THF     C912408   2.701   3.572   2.174  0.5726 -0.1340  0.5358
  774THF    H1012409   2.660   3.377   2.261  0.4686  1.3246  2.3044
  774THF    H1112410   2.534   3.493   2.290 -0.3844 -0.2559 -1.2849
  774THF    H1212411   2.685   3.670   2.220 -0.2046  0.7055 -1.4411
  774THF    H1312412   2.804   3.544   2.200  0.6629 -0.4409 -0.1488
  775THF     O112413   1.958   1.425   4.462  0.1243  0.2407 -0.2784
  775THF     C212414   2.055   1.508   4.414 -0.2506  0.1730  0.3105
  775THF     C312415   1.883   1.376   4.354  0.4842 -0.7116  0.3393
  775THF     H412416   2.137   1.448   4.375 -0.6059  0.3482 -0.7354
  775THF     H512417   2.105   1.563   4.494  1.0809 -0.8989  0.2504
  775THF     H612418   1.928   1.282   4.319  2.0976  0.2206 -0.2222
  775THF     H712419   1.782   1.352   4.384 -0.2107  0.6375 -0.8074
  775THF     C812420   1.880   1.483   4.248  0.1945  0.6294  0.5927
  775THF     C912421   1.967   1.586   4.309  0.1618 -0.0377 -0.5568
  775THF    H1012422   1.778   1.516   4.233 -0.0212 -0.5714 -0.8334
  775THF    H1112423   1.913   1.435   4.156 -0.8931  1.5346 -0.2979
  775THF    H1212424   2.033   1.631   4.235 -0.9274  0.1196 -1.4687
  775THF    H1312425   1.918   1.671   4.357  0.2272 -0.4505  0.2637
  776THF     O112426   5.048   3.688   2.159 -0.4510  0.2623 -0.8414
  776THF     C212427   5.188   3.669   2.125  0.1219  0.3405 -0.2111
  776THF     C312428   5.026   3.591   2.269  0.0370 -0.2822 -0.6470
  776THF     H412429   5.222   3.757   2.070 -1.0060  0.5079 -0.6723
  776THF     H512430   5.209   3.581   2.064 -1.3114  0.1896 -0.5245
  776THF     H612431   4.934   3.592   2.327 -0.1200 -2.9178 -0.7287
  776THF     H712432   5.021   3.505   2.202 -2.1588  0.3959 -1.4345
  776THF     C812433   5.146   3.601   2.355 -0.4652  0.0080 -0.1592
  776THF     C912434   5.253   3.651   2.260  0.1636 -0.0881  0.0661
  776THF    H1012435   5.170   3.509   2.409 -1.1944  0.7617  1.5214
  776THF    H1112436   5.129   3.675   2.434 -0.6660 -1.6866  1.4606
  776THF    H1212437   5.297   3.744   2.296  0.0726  0.6679 -1.6826
  776THF    H1312438   5.339   3.584   2.262 -0.1384 -0.4991  2.3232
  777THF     O112439   3.985   5.398   2.286  0.1986  0.0617  0.2621
  777THF     C212440   4.070   5.312   2.217 -0.1183 -0.5655  0.0892
  777THF     C312441   4.051   5.514   2.338  0.0262 -0.3786  0.2068
  777THF     H412442   4.031   5.319   2.115 -2.3237  0.5173  0.9288
  777THF     H512443   4.062   5.208   2.248  1.6912 -0.0196  2.7477
  777THF     H612444   3.990   5.601   2.311  0.7979  0.0644 -0.1564
  777THF     H712445   4.072   5.506   2.445 -0.6100  0.1011  0.3756
  777THF     C812446   4.180   5.524   2.257  0.2493  0.0683 -0.3009
  777THF     C912447   4.209   5.377   2.222  0.4441 -0.3288  0.2287
  777THF    H1012448   4.255   5.573   2.320  0.6162 -0.9119  0.0427
  777THF    H1112449   4.162   5.582   2.166 -0.8644  2.5120  1.3877
  777THF    H1212450   4.265   5.367   2.129  0.2891 -0.0004  0.0970
  777THF    H1312451   4.271   5.325   2.296  1.8209 -1.7511 -1.8040
  778THF     O112452   5.471   2.299   2.351  0.3340 -0.3995  0.4349
  778THF     C212453   5.587   2.229   2.297 -0.3183  0.4550  0.5208
  778THF     C312454   5.465   2.421   2.277  0.0309 -0.2979 -0.1459
  778THF     H412455   5.546   2.180   2.209 -0.1717  2.1501 -0.5295
  778THF     H512456   5.636   2.149   2.353  1.7965  0.6840 -0.9026
  778THF     H612457   5.397   2.410   2.192  0.2824 -2.6086 -0.1178
  778THF     H712458   5.413   2.498   2.334 -0.4340 -0.4229 -0.3942
  778THF     C812459   5.603   2.466   2.236 -0.5283 -0.2266 -0.3591
  778THF     C912460   5.682   2.337   2.249  0.2074 -0.3605  0.0217
  778THF    H1012461   5.640   2.548   2.297 -0.5069  0.4252 -1.2315
  778THF    H1112462   5.589   2.493   2.131  0.5855  1.3701 -0.1160
  778THF    H1212463   5.726   2.302   2.156 -0.4507  0.6777 -0.6929
  778THF    H1312464   5.765   2.348   2.319  0.6100 -3.0994  0.1003
  779THF     O112465   4.285   1.497   0.773 -0.2016 -0.1910 -0.1206
  779THF     C212466   4.362   1.608   0.828  0.5545 -0.6586  0.4094
  779THF     C312467   4.389   1.416   0.722  0.1056 -0.5099 -0.2681
  779THF     H412468   4.297   1.655   0.902 -1.4536 -0.7091 -1.2491
  779THF     H512469   4.373   1.685   0.752  0.3630 -1.7997 -0.8035
  779THF     H612470   4.360   1.318   0.759 -0.8652 -0.3680 -0.6166
  779THF     H712471   4.400   1.422   0.614  3.2492  0.1792  0.0038
  779THF     C812472   4.529   1.452   0.774  0.0326 -0.2220  0.4107
  779THF     C912473   4.498   1.566   0.877 -0.2057 -0.1432  0.4189
  779THF    H1012474   4.583   1.495   0.689  0.7781  0.5998  1.2703
  779THF    H1112475   4.581   1.367   0.818  2.3549  0.7203 -0.3572
  779THF    H1212476   4.480   1.524   0.976 -1.7662 -1.0896 -0.2414
  779THF    H1312477   4.575   1.643   0.878  0.7694 -0.8450 -3.4670
  780THF     O112478   1.005   1.288   0.048 -0.6474 -0.8342  0.5314
  780THF     C212479   0.887   1.329   0.115 -0.1149  0.0619 -0.3391
  780THF     C312480   1.026   1.151   0.054  0.5535  0.0208  0.3004
  780THF     H412481   0.859   1.433   0.094  0.8025  0.6826  1.3612
  780THF     H512482   0.909   1.318   0.221  1.3774 -1.2475 -0.7551
  780THF     H612483   1.105   1.112  -0.010  1.6998  2.6950 -0.0637
  780THF     H712484   1.065   1.132   0.154 -3.5875 -1.2874  1.9002
  780THF     C812485   0.884   1.100   0.035 -0.7688 -0.9808 -0.2646
  780THF     C912486   0.791   1.212   0.077 -0.4170  0.0881  0.4535
  780THF    H1012487   0.863   1.005   0.083 -0.4367 -0.6802  0.4856
  780THF    H1112488   0.871   1.072  -0.070  0.4477  0.6213 -0.8979
  780THF    H1212489   0.726   1.243  -0.005  0.7454  2.1620  0.2367
  780THF    H1312490   0.720   1.183   0.155 -0.6405 -0.4710  0.0483
  781THF     O112491   0.798   2.582   2.615 -0.1481 -0.2363  0.3689
  781THF     C212492   0.839   2.606   2.746 -0.0075  0.2332  0.2445
  781THF     C312493   0.781   2.445   2.597 -0.6497 -0.1177  0.6269
  781THF     H412494   0.761   2.654   2.806 -0.8847 -1.5858  0.6231
  781THF     H512495   0.936   2.655   2.744 -0.4550  1.1485  0.1114
  781THF     H612496   0.680   2.421   2.628 -0.1137 -0.9620  1.7923
  781THF     H712497   0.802   2.417   2.494 -0.4604  1.4605  0.2148
  781THF     C812498   0.882   2.379   2.692  0.9247 -0.0745  0.1076
  781THF     C912499   0.879   2.473   2.809 -0.3049  0.1643 -0.2707
  781THF    H1012500   0.978   2.367   2.643 -0.4685 -1.6090 -2.4665
  781THF    H1112501   0.839   2.282   2.719 -0.3028  0.2492 -0.5644
  781THF    H1212502   0.810   2.448   2.890  2.5638 -1.0687  1.9581
  781THF    H1312503   0.975   2.462   2.858 -0.2976 -0.5938 -0.4311
  782THF     O112504   0.467   0.173   1.764 -0.3847 -0.3505  0.2631
  782THF     C212505   0.362   0.229   1.679 -0.1369  0.4550  0.2607
  782THF     C312506   0.593   0.218   1.713  0.1348  0.0419  0.4717
  782THF     H412507   0.264   0.228   1.725 -1.6332  2.1450 -2.6351
  782THF     H512508   0.361   0.181   1.581 -0.4652  1.8210 -0.4228
  782THF     H612509   0.658   0.255   1.793  0.7235  4.4512 -1.6921
  782THF     H712510   0.637   0.141   1.650 -3.4820 -1.5660 -0.3279
  782THF     C812511   0.555   0.345   1.634  0.0993  0.0808  0.7686
  782THF     C912512   0.415   0.370   1.651  0.3365 -0.1782 -0.0646
  782THF    H1012513   0.573   0.339   1.526  0.2284 -1.4683  0.8526
  782THF    H1112514   0.612   0.429   1.675 -0.6098  0.2652  1.3855
  782THF    H1212515   0.388   0.435   1.734 -1.2019  0.3610 -0.9565
  782THF    H1312516   0.370   0.405   1.559 -0.2971 -3.0035 -0.9326
  783THF     O112517   3.415   2.856   4.387  0.4014 -0.4653  0.1055
  783THF     C212518   3.325   2.800   4.293 -0.3293  0.3675  0.1409
  783THF     C312519   3.471   2.968   4.319  1.0101  0.2927  0.0018
  783THF     H412520   3.228   2.850   4.289 -0.7102 -0.3488  0.3474
  783THF     H512521   3.293   2.697   4.308 -1.0907  0.1944 -2.3020
  783THF     H612522   3.399   3.048   4.300 -0.1069 -0.9898 -1.4206
  783THF     H712523   3.558   3.005   4.372  0.0045  0.1752  1.8173
  783THF     C812524   3.516   2.918   4.184 -0.4453  0.0697  0.1203
  783THF     C912525   3.404   2.815   4.157 -0.7258 -0.1070 -0.3501
  783THF    H1012526   3.616   2.877   4.200 -1.3601 -2.0462  0.8890
  783THF    H1112527   3.515   2.997   4.110 -0.0756 -0.5139 -0.5212
  783THF    H1212528   3.338   2.866   4.087 -0.5009  0.6294 -0.0318
  783THF    H1312529   3.442   2.717   4.125 -1.2218  0.0001 -1.3048
  784THF     O112530   1.849   0.947   4.783 -0.5077 -0.7216  0.4514
  784THF     C212531   1.779   1.073   4.764  0.2121  0.5031  0.0936
  784THF     C312532   1.955   0.946   4.679 -0.9611  0.2248 -0.8314
  784THF     H412533   1.705   1.084   4.844 -0.7869 -0.0594 -0.7324
  784THF     H512534   1.727   1.062   4.669  1.2355 -1.4845 -0.2997
  784THF     H612535   2.029   0.870   4.705 -0.3067  1.1370  0.0221
  784THF     H712536   1.910   0.932   4.581 -0.9614  0.2421 -0.8338
  784THF     C812537   2.011   1.091   4.694  0.1172  0.3790  0.2918
  784THF     C912538   1.902   1.165   4.774  0.5390 -0.7511  0.4039
  784THF    H1012539   2.015   1.142   4.598 -0.7432  1.2654  0.7004
  784THF    H1112540   2.103   1.103   4.751 -0.0907 -0.9367  0.9396
  784THF    H1212541   1.931   1.177   4.879 -0.3277  0.9070  0.4892
  784THF    H1312542   1.895   1.261   4.723  2.6160 -0.4517  0.5909
  785THF     O112543   3.072   1.479   0.718  0.6556  0.3385 -0.1508
  785THF     C212544   3.196   1.414   0.714  0.3443  0.3062 -0.3419
  785THF     C312545   3.083   1.575   0.816  0.7295 -0.2874  0.1647
  785THF     H412546   3.275   1.475   0.669  0.8119  0.0140  0.0722
  785THF     H512547   3.190   1.329   0.646  1.6700  0.0262 -0.1524
  785THF     H612548   3.119   1.667   0.769 -1.5979  0.4313 -0.3175
  785THF     H712549   2.981   1.599   0.845  1.5197 -0.0209  3.0335
  785THF     C812550   3.174   1.522   0.923 -0.1352 -0.0931 -0.2154
  785THF     C912551   3.224   1.391   0.861  0.6296 -0.0586 -0.7210
  785THF    H1012552   3.121   1.507   1.017  0.1320  0.4391  0.0270
  785THF    H1112553   3.259   1.590   0.931  0.4285 -0.8469  0.3266
  785THF    H1212554   3.329   1.381   0.891  0.5922  2.9729  0.8638
  785THF    H1312555   3.175   1.304   0.904 -0.0255 -0.3751 -2.0482
  786THF     O112556   4.271   2.145   1.444 -0.3830  0.2855 -0.0229
  786THF     C212557   4.394   2.148   1.519  0.5217  0.2835 -0.9453
  786THF     C312558   4.277   2.051   1.340  0.0709  0.1939 -0.2048
  786THF     H412559   4.376   2.179   1.622  0.7357 -0.0165 -0.8156
  786THF     H512560   4.468   2.219   1.482  2.4771 -0.7889  0.6743
  786THF     H612561   4.178   2.011   1.317  0.3772  0.0004 -1.2464
  786THF     H712562   4.334   2.102   1.262 -0.2392  2.0562  0.7124
  786THF     C812563   4.359   1.941   1.411 -0.0120 -0.6933  0.5383
  786THF     C912564   4.443   2.006   1.522  0.0787 -0.0046  0.2797
  786THF    H1012565   4.416   1.881   1.339  2.7524  1.9730  0.2976
  786THF    H1112566   4.283   1.875   1.453  0.0883 -1.0007  0.2462
  786THF    H1212567   4.427   1.937   1.604  1.0814 -0.5100  0.0583
  786THF    H1312568   4.547   2.015   1.492 -0.7446  1.0738 -2.6400
  787THF     O112569   3.124   2.967   1.018  0.2044  0.8527  0.0282
  787THF     C212570   3.190   3.035   1.125 -0.1286 -0.7314 -0.2139
  787THF     C312571   3.166   2.829   1.026 -0.0180 -0.6251 -0.3998
  787THF     H412572   3.116   3.090   1.184 -0.7255 -2.0641  0.3355
  787THF     H512573   3.267   3.100   1.084 -1.2316 -0.5084 -2.0254
  787THF     H612574   3.081   2.789   1.082  1.0837 -0.5341  1.4112
  787THF     H712575   3.169   2.786   0.926  0.0475 -0.0352 -0.6603
  787THF     C812576   3.288   2.825   1.114 -0.4707 -0.1652 -0.4785
  787THF     C912577   3.252   2.931   1.211  0.1123  0.2800 -0.0192
  787THF    H1012578   3.383   2.847   1.064  0.1286  1.2169  1.1660
  787THF    H1112579   3.291   2.729   1.165  1.5877  0.6185  1.0087
  787THF    H1212580   3.186   2.884   1.283  0.1744 -1.1648 -0.8543
  787THF    H1312581   3.341   2.969   1.263 -1.4889  2.2761  1.4236
  788THF     O112582   0.442   2.042   4.920  0.1563  0.0904 -0.1602
  788THF     C212583   0.337   1.967   4.866  0.8039  0.0396 -0.1483
  788THF     C312584   0.464   1.990   5.048  0.3175  0.3608 -0.0388
  788THF     H412585   0.334   1.976   4.758  2.2655  1.3160 -0.1008
  788THF     H512586   0.238   1.995   4.903  0.2926  0.5092 -1.8022
  788THF     H612587   0.547   2.033   5.104  0.6002 -1.0022  0.6402
  788THF     H712588   0.381   2.006   5.117 -1.9080 -0.9434 -2.2467
  788THF     C812589   0.467   1.842   5.027 -0.0686 -0.4560  0.5259
  788THF     C912590   0.369   1.824   4.907 -0.2873  0.3813 -0.3783
  788THF    H1012591   0.445   1.796   5.124  0.5646  0.7489  1.2696
  788THF    H1112592   0.562   1.802   4.991  0.1784  0.7485 -0.1879
  788THF    H1212593   0.416   1.759   4.833 -0.4925 -0.6782  0.3880
  788THF    H1312594   0.280   1.775   4.949 -0.3280  0.0091 -0.8871
  789THF     O112595   0.715   4.935   0.017 -0.1145  0.0467 -0.1832
  789THF     C212596   0.833   4.890  -0.043 -0.6918  0.4243 -0.4823
  789THF     C312597   0.741   4.981   0.152  0.0922 -0.1308  0.1532
  789THF     H412598   0.896   4.976  -0.064 -0.8372  1.1598  1.8547
  789THF     H512599   0.826   4.827  -0.132 -0.0621 -0.2839 -0.0436
  789THF     H612600   0.782   5.082   0.163 -0.3393  0.1144 -0.4389
  789THF     H712601   0.647   4.985   0.205 -1.0486  0.3831 -1.7956
  789THF     C812602   0.847   4.882   0.196  0.6971  0.1209  0.0745
  789THF     C912603   0.894   4.813   0.070  0.6060 -0.2795 -0.0998
  789THF    H1012604   0.810   4.821   0.279  1.1798  1.4011  1.2535
  789THF    H1112605   0.922   4.939   0.250 -1.0150  0.9992  1.6507
  789THF    H1212606   1.003   4.819   0.066  0.6965 -1.8376 -0.6022
  789THF    H1312607   0.866   4.708   0.059 -1.2964  0.2192 -0.2588
  790THF     O112608   0.698   4.562   1.618  0.2528  0.0188 -0.1290
  790THF     C212609   0.766   4.460   1.556  0.8318  0.1522 -0.2439
  790THF     C312610   0.642   4.512   1.737 -0.4017  0.2002 -0.4320
  790THF     H412611   0.860   4.427   1.600  0.4819  1.0716  1.2474
  790THF     H512612   0.783   4.465   1.448  0.9125  0.3636 -0.2215
  790THF     H612613   0.715   4.530   1.815 -0.2218 -1.8209 -0.0738
  790THF     H712614   0.556   4.575   1.758  0.4867  1.2476  0.1453
  790THF     C812615   0.611   4.361   1.716 -0.2067 -0.2629  0.2411
  790THF     C912616   0.670   4.349   1.576 -0.0283  0.3081  0.1490
  790THF    H1012617   0.505   4.336   1.718 -0.7336  1.8449  1.4342
  790THF    H1112618   0.671   4.301   1.784 -0.6281 -0.7139  0.2161
  790THF    H1212619   0.724   4.256   1.556 -0.8928 -0.6206  1.8820
  790THF    H1312620   0.590   4.355   1.503  0.0775  0.2296  0.0271
  791THF     O112621   0.572   4.943   4.379  0.1836 -0.4009  0.5415
  791THF     C212622   0.685   4.854   4.354 -0.0796 -0.6722  0.2071
  791THF     C312623   0.493   4.939   4.264 -0.0779 -0.2309  0.2390
  791THF     H412624   0.736   4.826   4.446  0.2405  1.8814  0.8848
  791THF     H512625   0.756   4.898   4.285 -2.1244  1.2122 -0.8188
  791THF     H612626   0.395   4.983   4.283 -0.2453 -0.3445 -0.3236
  791THF     H712627   0.537   4.996   4.182  2.2123  0.2245  1.7025
  791THF     C812628   0.474   4.792   4.235 -0.2755  0.0538  0.7925
  791THF     C912629   0.612   4.737   4.283  0.9878  0.5005  0.1521
  791THF    H1012630   0.449   4.788   4.129 -1.5723  0.4600  1.0677
  791THF    H1112631   0.385   4.750   4.282 -0.9568 -0.5750 -0.9650
  791THF    H1212632   0.593   4.653   4.349 -0.4775  0.8654  0.2259
  791THF    H1312633   0.673   4.694   4.203  1.4189 -0.7836  1.1431
  792THF     O112634   1.369   3.037   2.294 -0.1239  0.2681  0.0630
  792THF     C212635   1.436   3.111   2.191  0.1551 -0.1605  0.2939
  792THF     C312636   1.250   2.977   2.245  0.3214  0.6967  0.4576
  792THF     H412637   1.508   3.043   2.144  0.9546  2.0318 -1.8663
  792THF     H512638   1.494   3.195   2.230 -0.9841  0.0434  1.6161
  792THF     H612639   1.282   2.874   2.226 -1.4277  0.3664 -0.9625
  792THF     H712640   1.161   2.989   2.306  0.4029  1.7239  0.3910
  792THF     C812641   1.232   3.040   2.095  0.0030 -0.0828 -0.3174
  792THF     C912642   1.331   3.158   2.097 -0.4385  0.4654 -0.2727
  792THF    H1012643   1.131   3.075   2.076 -0.1956  0.7115  1.8491
  792THF    H1112644   1.267   2.970   2.019 -2.4379  1.1978 -2.7788
  792THF    H1212645   1.361   3.190   1.997 -2.6311  2.3984 -0.4085
  792THF    H1312646   1.285   3.247   2.139  1.6677  2.4929 -2.0220
  793THF     O112647   1.115   5.381   3.680 -0.1299 -0.2563 -0.3061
  793THF     C212648   1.158   5.291   3.779  0.6312 -0.5535  0.5886
  793THF     C312649   1.209   5.491   3.683 -0.2696 -0.2649 -0.4027
  793THF     H412650   1.230   5.223   3.732 -1.6383 -1.6145 -1.5715
  793THF     H512651   1.062   5.242   3.793  0.9078 -1.2210  0.1851
  793THF     H612652   1.304   5.453   3.644 -0.6231 -0.6521 -0.9099
  793THF     H712653   1.166   5.574   3.627  0.9348  1.0494  0.5475
  793THF     C812654   1.221   5.511   3.833  0.1877 -0.2870 -0.3298
  793THF     C912655   1.208   5.373   3.889 -0.2946  0.9962 -0.1819
  793THF    H1012656   1.136   5.574   3.861  0.8092  0.8617 -0.9838
  793THF    H1112657   1.318   5.557   3.856  0.5645 -1.2461  0.0335
  793THF    H1212658   1.305   5.332   3.918 -1.2913 -0.1704  1.6763
  793THF    H1312659   1.146   5.366   3.978  0.7609  1.2494  0.5961
  794THF     O112660   2.180   0.757   2.420 -0.3607  0.2306  0.1423
  794THF     C212661   2.262   0.786   2.316  0.2708 -0.0060 -0.2519
  794THF     C312662   2.101   0.872   2.455  0.5090  0.1223  0.3153
  794THF     H412663   2.237   0.724   2.230 -0.0266 -0.8955  0.4611
  794THF     H512664   2.358   0.753   2.354  1.2382  2.6630 -0.1603
  794THF     H612665   2.010   0.875   2.396 -0.5324  0.4133  1.8650
  794THF     H712666   2.074   0.877   2.561  2.5560 -0.1638  0.8880
  794THF     C812667   2.192   0.991   2.414  0.2902 -0.3905  0.0995
  794THF     C912668   2.258   0.935   2.288 -0.4243 -0.0530  0.4333
  794THF    H1012669   2.249   1.016   2.504  1.4915  4.0302 -1.6216
  794THF    H1112670   2.135   1.082   2.397 -0.3626 -0.9084 -0.5315
  794THF    H1212671   2.202   0.957   2.197 -0.2824  2.6676  0.9138
  794THF    H1312672   2.356   0.979   2.273 -0.1281  0.2846  2.9541
  795THF     O112673   0.852   3.429   1.100 -0.3020  0.4960  0.2832
  795THF     C212674   0.926   3.309   1.134  0.3941  0.3869 -0.0970
  795THF     C312675   0.724   3.417   1.165 -0.2781 -0.9564  0.8636
  795THF     H412676   0.952   3.309   1.239  0.1831  1.7215 -0.0319
  795THF     H512677   1.019   3.298   1.078  0.5530 -0.3858  0.3067
  795THF     H612678   0.732   3.442   1.270 -1.6458  0.0566  0.7614
  795THF     H712679   0.646   3.482   1.124  1.2631  1.2680  1.2998
  795THF     C812680   0.698   3.264   1.152  0.2914  0.0509  0.2234
  795THF     C912681   0.828   3.195   1.114 -0.1263 -0.6692  0.1718
  795THF    H1012682   0.624   3.241   1.075  0.7034  0.1444 -0.2044
  795THF    H1112683   0.659   3.227   1.247 -0.9570  0.9401  0.0879
  795THF    H1212684   0.835   3.107   1.178 -3.1972 -1.5450 -0.5634
  795THF    H1312685   0.825   3.164   1.009 -0.0325 -0.4684  0.1087
  796THF     O112686   4.403   0.218   2.808 -0.0041  0.0841 -0.0666
  796THF     C212687   4.499   0.293   2.874 -1.1218 -0.2298  0.2537
  796THF     C312688   4.464   0.097   2.766 -0.2567  0.1677 -1.1705
  796THF     H412689   4.509   0.257   2.976  0.0264 -1.8103 -0.3765
  796THF     H512690   4.470   0.398   2.872  1.7420  0.6398 -0.5551
  796THF     H612691   4.493   0.032   2.849  1.5937  1.5336 -0.6852
  796THF     H712692   4.411   0.033   2.695  0.7695 -1.8620 -0.1837
  796THF     C812693   4.595   0.148   2.708  0.3752 -0.2880  0.3308
  796THF     C912694   4.626   0.275   2.792  0.3050 -0.0663 -0.3176
  796THF    H1012695   4.568   0.188   2.610  1.0211 -2.0231 -0.6194
  796THF    H1112696   4.670   0.071   2.688  0.2094 -0.2764 -0.3908
  796THF    H1212697   4.715   0.259   2.854 -0.9017 -1.5215  1.0997
  796THF    H1312698   4.664   0.363   2.739 -1.1713  0.0096 -1.3029
  797THF     O112699   5.322   4.714   5.275  0.3590  0.2651  0.4751
  797THF     C212700   5.221   4.620   5.222 -0.0384 -0.1735  0.0838
  797THF     C312701   5.384   4.647   5.386  0.6425  0.1507  0.5121
  797THF     H412702   5.259   4.545   5.154 -1.4413 -0.6998 -0.1678
  797THF     H512703   5.153   4.681   5.162 -0.4239  0.0863  0.7662
  797THF     H612704   5.473   4.595   5.351  0.9323  0.6235  0.5330
  797THF     H712705   5.404   4.725   5.460 -0.2898  1.1550 -0.2534
  797THF     C812706   5.278   4.560   5.451  0.1736 -0.3206  0.4333
  797THF     C912707   5.164   4.560   5.346  0.8041  0.2279 -0.5839
  797THF    H1012708   5.248   4.586   5.552  1.5570  2.2766  0.2754
  797THF    H1112709   5.332   4.467   5.469  1.4870  0.3403  0.0608
  797THF    H1212710   5.122   4.462   5.323  0.2132 -0.0738  1.5605
  797THF    H1312711   5.090   4.636   5.372  0.4019 -0.6376  0.9296
  798THF     O112712   1.047   0.271   0.963  0.1018 -0.9262  0.3085
  798THF     C212713   1.147   0.305   0.870 -0.5739 -0.1834 -0.1104
  798THF     C312714   1.062   0.353   1.074 -0.4926  0.2055  0.8353
  798THF     H412715   1.115   0.398   0.822  0.0708  0.6490  1.0117
  798THF     H512716   1.178   0.222   0.807  0.9640  0.2550  0.0302
  798THF     H612717   0.985   0.431   1.077 -0.9896 -0.1576 -1.3567
  798THF     H712718   1.055   0.293   1.165 -0.0851 -1.2014 -0.0339
  798THF     C812719   1.197   0.423   1.073 -0.4097 -0.1197  0.7204
  798THF     C912720   1.263   0.353   0.958 -0.0095  0.0209 -0.1191
  798THF    H1012721   1.255   0.397   1.161 -0.9461 -1.3605  0.7180
  798THF    H1112722   1.181   0.528   1.047 -0.9689 -0.6279 -1.1893
  798THF    H1212723   1.323   0.418   0.895  0.4417  0.4769  0.7488
  798THF    H1312724   1.318   0.272   1.006  1.0411 -0.0158 -1.3594
  799THF     O112725   5.424   4.569   4.656  0.1154  0.4666 -0.6229
  799THF     C212726   5.452   4.561   4.796 -0.1095 -1.0952  0.0938
  799THF     C312727   5.294   4.619   4.633 -0.3874 -0.5200 -0.7088
  799THF     H412728   5.533   4.634   4.807 -1.5709  0.7357 -0.8096
  799THF     H512729   5.477   4.458   4.822 -0.6354 -1.5610 -1.1487
  799THF     H612730   5.304   4.677   4.541  0.1895  4.2036  1.9885
  799THF     H712731   5.224   4.537   4.615  0.0993 -1.1358  0.1675
  799THF     C812732   5.262   4.700   4.758 -0.1493  0.3540 -1.0913
  799THF     C912733   5.333   4.612   4.870  0.5317 -0.3973  0.4395
  799THF    H1012734   5.154   4.708   4.765 -0.2718 -1.9353  0.4475
  799THF    H1112735   5.315   4.795   4.752  2.2844 -0.9844 -4.0212
  799THF    H1212736   5.352   4.669   4.961  1.9375 -0.3017  0.1107
  799THF    H1312737   5.271   4.526   4.895  0.0138  0.1090  0.9401
  800THF     O112738   3.006   1.363   5.401 -0.0352 -0.2788 -0.2856
  800THF     C212739   3.062   1.485   5.356  0.0269 -0.5388 -0.7743
  800THF     C312740   2.882   1.331   5.331  0.5591 -0.5156 -0.1619
  800THF     H412741   3.123   1.473   5.266  3.2138  0.5753  1.0585
  800THF     H512742   3.122   1.526   5.437 -0.1389 -1.5728 -0.1100
  800THF     H612743   2.900   1.255   5.256  1.2015  0.7831 -1.3642
  800THF     H712744   2.806   1.293   5.400 -1.3815  2.5538 -0.3790
  800THF     C812745   2.833   1.465   5.277  0.4183 -0.7868  0.0406
  800THF     C912746   2.938   1.563   5.332 -0.2351 -1.2335 -0.1460
  800THF    H1012747   2.731   1.478   5.313  0.0840  0.2816 -1.1799
  800THF    H1112748   2.837   1.448   5.169  0.0674 -0.5702 -0.0100
  800THF    H1212749   2.961   1.649   5.269 -2.2280  0.0283  0.7203
  800THF    H1312750   2.899   1.597   5.428 -0.5137 -0.3939 -0.5465
  801THF     O112751   3.051   3.788   1.293  0.2783  0.2916  0.0353
  801THF     C212752   3.171   3.826   1.359  0.2277 -0.4011  0.2267
  801THF     C312753   2.968   3.725   1.386  0.6969 -0.1544  0.0006
  801THF     H412754   3.203   3.925   1.330  2.8385 -0.8404  1.3354
  801THF     H512755   3.250   3.756   1.333  0.3461 -0.3054  0.3264
  801THF     H612756   2.878   3.786   1.394 -0.6241 -1.8540 -1.2513
  801THF     H712757   2.944   3.629   1.341  0.1826 -0.4888  0.9586
  801THF     C812758   3.045   3.715   1.521 -0.2943  0.4750 -0.4288
  801THF     C912759   3.135   3.830   1.501  0.0881 -0.7038  0.3943
  801THF    H1012760   3.094   3.619   1.505 -1.7627 -0.5818  1.1702
  801THF    H1112761   2.985   3.717   1.611  0.8014  1.6015  0.3242
  801THF    H1212762   3.086   3.927   1.510  0.6615 -0.2342 -1.3101
  801THF    H1312763   3.218   3.829   1.571 -0.9939  1.2203  1.8197
  802THF     O112764   4.064   5.133   4.234 -0.2404  0.0290  0.5631
  802THF     C212765   3.971   5.142   4.341 -0.2187  0.7030  0.0152
  802THF     C312766   4.190   5.083   4.281  0.3029  0.7505 -0.5156
  802THF     H412767   3.931   5.040   4.338  2.0213 -0.1997 -1.5013
  802THF     H512768   3.893   5.216   4.326 -0.9894 -0.0204  0.3862
  802THF     H612769   4.195   4.977   4.304 -0.1883  0.7507 -0.4163
  802THF     H712770   4.270   5.102   4.209 -0.3327  1.6415 -1.0117
  802THF     C812771   4.198   5.162   4.409 -0.3917 -0.4784 -0.8445
  802THF     C912772   4.060   5.186   4.463  0.7778  0.8768 -0.0281
  802THF    H1012773   4.230   5.261   4.378  2.6221 -1.2453 -0.4990
  802THF    H1112774   4.273   5.137   4.484 -2.1949 -0.4659  1.0859
  802THF    H1212775   4.022   5.119   4.539 -0.0361  0.2580 -0.9512
  802THF    H1312776   4.041   5.285   4.504  2.1720  0.3815  1.9876
  803THF     O112777   4.491   1.744   5.471  0.2623  0.8058 -0.2545
  803THF     C212778   4.361   1.711   5.450 -0.2131 -0.1593  0.2879
  803THF     C312779   4.557   1.751   5.344  0.2478  0.3153  0.4803
  803THF     H412780   4.304   1.732   5.540  0.5090  1.5674  0.3780
  803THF     H512781   4.345   1.612   5.407 -1.0138 -0.0427  0.2977
  803THF     H612782   4.645   1.815   5.345  0.2897  0.2570  0.4890
  803THF     H712783   4.591   1.652   5.314 -0.2305  0.9014 -2.1901
  803THF     C812784   4.451   1.810   5.250  0.4130  0.4430  0.1049
  803THF     C912785   4.329   1.812   5.342 -0.7177  0.1444 -0.2192
  803THF    H1012786   4.435   1.742   5.167 -1.5234  1.9121 -0.8061
  803THF    H1112787   4.477   1.908   5.209 -0.2494  0.4254 -0.3772
  803THF    H1212788   4.302   1.914   5.370 -2.9902 -0.1917 -1.0440
  803THF    H1312789   4.238   1.778   5.293 -0.6306  1.0417 -1.0316
  804THF     O112790   4.250   3.231   4.155  0.6226  0.1930 -0.0930
  804THF     C212791   4.201   3.322   4.248 -0.1431 -0.3407 -0.3659
  804THF     C312792   4.149   3.220   4.045  0.2530  0.2180 -0.3544
  804THF     H412793   4.275   3.357   4.320  0.8651 -2.5036 -0.2800
  804THF     H512794   4.134   3.257   4.305  0.1132 -0.6888 -0.4536
  804THF     H612795   4.206   3.213   3.953  1.9395  0.6896  0.6125
  804THF     H712796   4.096   3.125   4.044  0.8032 -0.1498  1.5191
  804THF     C812797   4.063   3.346   4.056  0.0645 -0.7255 -0.3492
  804THF     C912798   4.137   3.424   4.165 -0.1778 -0.2809  0.3358
  804THF    H1012799   3.961   3.321   4.084 -0.0072 -0.5017 -0.4110
  804THF    H1112800   4.061   3.401   3.962 -2.4742 -2.3784 -1.3733
  804THF    H1212801   4.199   3.501   4.120 -0.2823 -0.3407  0.0840
  804THF    H1312802   4.058   3.473   4.222  0.1896 -0.1618  0.7476
  805THF     O112803   0.790   3.879   2.834 -0.0515 -0.6763  0.3201
  805THF     C212804   0.871   3.809   2.925 -0.3995 -0.4188  0.5239
  805THF     C312805   0.775   3.804   2.721  0.7457  0.8346  0.2846
  805THF     H412806   0.826   3.788   3.022 -1.1580 -0.5327  0.1596
  805THF     H512807   0.957   3.872   2.948  0.2796 -1.9096  2.3134
  805THF     H612808   0.677   3.755   2.723  0.5460  1.2280  0.2899
  805THF     H712809   0.772   3.862   2.629  2.7027  0.7895  0.1491
  805THF     C812810   0.887   3.700   2.718 -0.1585 -0.2323 -0.0496
  805THF     C912811   0.917   3.682   2.865  0.1525 -0.1783  0.4586
  805THF    H1012812   0.972   3.747   2.669  0.9150  1.0473  2.8145
  805THF    H1112813   0.867   3.615   2.653  0.8469  0.1671 -0.9051
  805THF    H1212814   0.853   3.601   2.902 -0.2561 -0.2201 -0.3096
  805THF    H1312815   1.016   3.641   2.889 -0.1520 -0.9068  0.5112
  806THF     O112816   1.702   4.815   0.567 -0.1249  0.7227 -0.1727
  806THF     C212817   1.591   4.730   0.593 -1.3337 -0.3430  0.6462
  806THF     C312818   1.662   4.944   0.597  0.3630  0.2084 -0.1278
  806THF     H412819   1.580   4.712   0.700 -0.4817 -0.8207  0.6606
  806THF     H512820   1.590   4.633   0.543 -2.1242 -0.2597  0.4828
  806THF     H612821   1.681   4.964   0.702 -1.1160 -0.4720  0.3012
  806THF     H712822   1.721   5.019   0.545  2.9087 -0.6030  1.4284
  806THF     C812823   1.507   4.953   0.575 -0.1478  0.4993 -0.4084
  806THF     C912824   1.469   4.807   0.544  0.7926 -0.2177 -0.2323
  806THF    H1012825   1.476   5.009   0.487 -0.4091  0.7079 -0.1854
  806THF    H1112826   1.456   4.987   0.665 -0.7584 -0.5636 -0.3387
  806THF    H1212827   1.375   4.770   0.585  0.0504  0.2977 -1.4238
  806THF    H1312828   1.474   4.811   0.435  0.9806 -0.6673 -0.2390
  807THF     O112829   4.996   4.400   3.381 -0.1013  0.0104  0.0102
  807THF     C212830   5.098   4.314   3.328  0.4055  0.0291  0.5667
  807THF     C312831   4.867   4.336   3.361 -0.5508 -0.1607  0.5199
  807THF     H412832   5.101   4.219   3.383  0.3762 -0.8376 -0.8874
  807THF     H512833   5.199   4.356   3.328 -0.3621  2.0229  1.8574
  807THF     H612834   4.849   4.259   3.436  1.8690 -1.5765 -0.2645
  807THF     H712835   4.786   4.408   3.376 -1.3717 -1.0686  0.5341
  807THF     C812836   4.888   4.285   3.219  0.1323 -0.4386  0.6582
  807THF     C912837   5.043   4.290   3.187 -0.2247 -0.0942  0.0136
  807THF    H1012838   4.823   4.329   3.143  1.0797 -0.0423  0.0631
  807THF    H1112839   4.869   4.177   3.217  0.0226 -0.4119 -0.4286
  807THF    H1212840   5.091   4.212   3.128 -0.9886  0.1818 -1.0199
  807THF    H1312841   5.063   4.372   3.118 -0.7366 -0.1831 -0.2507
  808THF     O112842   1.734   1.436   3.349 -0.0938  0.3511 -0.6892
  808THF     C212843   1.658   1.447   3.470  0.1942 -0.7170 -0.0518
  808THF     C312844   1.849   1.353   3.373 -0.1490  0.1478  0.1357
  808THF     H412845   1.553   1.422   3.454 -0.5152  0.8951  1.6102
  808THF     H512846   1.657   1.549   3.509  1.5428 -0.6910 -0.0384
  808THF     H612847   1.886   1.308   3.281  1.7218  4.2705 -1.4051
  808THF     H712848   1.928   1.419   3.410 -1.2486  1.6858 -0.1455
  808THF     C812849   1.810   1.261   3.478 -0.1044  0.8966 -0.2780
  808THF     C912850   1.716   1.343   3.564  0.5389 -0.2766  0.2956
  808THF    H1012851   1.894   1.218   3.533  0.0975  1.5385 -0.0807
  808THF    H1112852   1.765   1.175   3.428 -0.0832 -0.1171  1.3443
  808THF    H1212853   1.638   1.291   3.620 -2.3236  1.0233 -2.1899
  808THF    H1312854   1.783   1.392   3.635 -0.1349  0.1436  0.6582
  809THF     O112855   3.295   0.362   4.572  0.1918  0.3461  0.0803
  809THF     C212856   3.179   0.367   4.656 -0.0762 -0.5146 -0.4971
  809THF     C312857   3.265   0.296   4.447 -1.0625 -0.3506 -0.3742
  809THF     H412858   3.150   0.470   4.680  0.3432 -0.7227  0.9541
  809THF     H512859   3.200   0.312   4.747  0.2912 -0.3906 -0.5092
  809THF     H612860   3.226   0.364   4.371 -0.2784  0.9369  0.3468
  809THF     H712861   3.345   0.244   4.394  0.4179  0.2879  1.1684
  809THF     C812862   3.157   0.199   4.493  0.5681  0.0450 -0.1187
  809THF     C912863   3.077   0.280   4.589 -0.1561  0.1189 -0.1841
  809THF    H1012864   3.192   0.121   4.560 -2.9590 -0.7210  1.0936
  809THF    H1112865   3.109   0.150   4.408  1.7040 -3.4567  1.1205
  809THF    H1212866   3.010   0.343   4.530  1.9052  2.7251  0.0307
  809THF    H1312867   3.007   0.230   4.656 -1.1419 -0.4954 -1.6266
  810THF     O112868   3.393   3.458   0.949  0.2688  0.4091  0.4300
  810THF     C212869   3.367   3.456   1.091 -0.7397  0.0294  0.3507
  810THF     C312870   3.293   3.531   0.876 -0.4111  0.6242 -0.4968
  810THF     H412871   3.409   3.552   1.123  0.5252 -0.5377  0.4645
  810THF     H512872   3.413   3.369   1.139 -0.8868  0.2142  0.8372
  810THF     H612873   3.334   3.629   0.854  2.0767 -0.2986 -0.3840
  810THF     H712874   3.270   3.484   0.780  1.8825 -1.2825 -0.2280
  810THF     C812875   3.171   3.522   0.967 -1.1542  0.1403 -0.3590
  810THF     C912876   3.217   3.453   1.093  0.4177 -0.6442  0.0636
  810THF    H1012877   3.100   3.471   0.902  2.8132 -2.8618 -2.7994
  810THF    H1112878   3.138   3.625   0.985  1.6385  1.3211 -1.4118
  810THF    H1212879   3.166   3.489   1.182 -1.4290 -2.6761 -0.0842
  810THF    H1312880   3.184   3.349   1.087  0.2116 -0.5217 -1.1888
  811THF     O112881   0.603   5.135   4.944  0.4419 -0.1593 -0.8394
  811THF     C212882   0.581   5.058   4.826 -0.5481  0.7980  0.2589
  811THF     C312883   0.726   5.102   5.006  0.1731  0.9253  0.3882
  811THF     H412884   0.534   5.120   4.749 -0.5608 -0.0253 -0.4100
  811THF     H512885   0.514   4.977   4.851  0.1561  0.6389  1.7352
  811THF     H612886   0.744   5.183   5.077 -1.6909 -0.7637  2.9886
  811THF     H712887   0.719   5.005   5.056  3.0241 -1.2181 -2.8808
  811THF     C812888   0.817   5.089   4.883  0.2403  0.7075  1.0693
  811THF     C912889   0.724   5.012   4.785  0.3708  0.0196  0.8057
  811THF    H1012890   0.915   5.046   4.905 -0.7463 -1.8335  0.9126
  811THF    H1112891   0.834   5.187   4.840  1.6213  0.3105  0.6654
  811THF    H1212892   0.736   5.024   4.678  1.6416 -2.9553  0.5371
  811THF    H1312893   0.737   4.904   4.796  0.7943 -0.0534 -0.2774
  812THF     O112894   4.074   3.187   2.263  0.0480  0.0970 -0.0528
  812THF     C212895   4.037   3.057   2.207 -0.2982  0.0531 -0.5334
  812THF     C312896   4.033   3.202   2.392 -0.3322 -0.3691  0.2483
  812THF     H412897   4.114   3.031   2.135 -1.3017  1.6079 -2.2354
  812THF     H512898   3.944   3.037   2.155  1.4731 -1.5555 -3.3057
  812THF     H612899   4.089   3.273   2.454  0.4353 -0.6971 -0.0588
  812THF     H712900   3.927   3.229   2.393 -0.8585 -2.0526  3.1687
  812THF     C812901   4.049   3.063   2.451 -0.7245 -0.0419  0.8471
  812THF     C912902   4.046   2.970   2.334  0.3441 -0.3440  0.6591
  812THF    H1012903   3.977   3.035   2.528  1.4997 -0.3546  2.9259
  812THF    H1112904   4.139   3.045   2.508 -0.2140 -1.2316 -0.2758
  812THF    H1212905   4.137   2.911   2.342  0.5834  0.1914  2.2452
  812THF    H1312906   3.956   2.912   2.349 -0.4412  0.7687  0.3920
  813THF     O112907   3.704   3.871   4.569  0.0229 -0.1073  0.3302
  813THF     C212908   3.714   4.010   4.589  0.6552  0.6075  0.3411
  813THF     C312909   3.735   3.811   4.692  0.5867  0.4977  0.0863
  813THF     H412910   3.635   4.050   4.653  0.9114 -0.0239  1.0738
  813THF     H512911   3.707   4.058   4.492 -4.2152 -0.5387 -0.1300
  813THF     H612912   3.656   3.835   4.762  1.5366  3.6215  0.2115
  813THF     H712913   3.734   3.702   4.679 -0.7075  0.6763 -1.6886
  813THF     C812914   3.866   3.887   4.738  0.7750  0.3277  0.2725
  813THF     C912915   3.856   4.016   4.663 -0.2135  0.2372  0.1089
  813THF    H1012916   3.954   3.838   4.697  0.7514 -1.8639  2.5846
  813THF    H1112917   3.868   3.892   4.847 -0.8798  1.6672  0.2858
  813THF    H1212918   3.874   4.112   4.712 -0.6678  0.9891 -1.1415
  813THF    H1312919   3.932   4.006   4.586 -0.1217 -0.8090  0.3299
  814THF     O112920   3.898   2.520   5.013  0.3897  0.2869 -0.2866
  814THF     C212921   3.876   2.632   4.928 -0.6752  0.4239 -0.0056
  814THF     C312922   4.021   2.458   4.981 -0.3690 -0.0342  0.1298
  814THF     H412923   3.806   2.702   4.975 -0.4656  1.1687 -0.7693
  814THF     H512924   3.855   2.593   4.828 -0.7435  0.8382 -0.1563
  814THF     H612925   4.051   2.404   5.071  0.9642 -0.1305 -0.3532
  814THF     H712926   4.017   2.381   4.905  4.0725 -0.0522 -0.3450
  814THF     C812927   4.106   2.578   4.932 -0.0379 -0.1284  0.3602
  814THF     C912928   4.017   2.699   4.934 -0.0571 -0.0103 -0.2653
  814THF    H1012929   4.155   2.542   4.841  0.2886 -2.2418  1.2995
  814THF    H1112930   4.196   2.603   4.989  2.3939  1.1966 -3.6603
  814THF    H1212931   4.038   2.753   5.027 -1.0346  0.1049 -0.1052
  814THF    H1312932   4.024   2.773   4.855 -2.9017 -0.9851 -1.5550
  815THF     O112933   5.250   4.271   5.056 -0.2222 -0.3564 -0.2399
  815THF     C212934   5.125   4.205   5.070 -0.0082 -0.1688 -0.1204
  815THF     C312935   5.343   4.176   5.012 -0.4737  0.4319  0.5022
  815THF     H412936   5.091   4.173   4.971 -0.4523 -0.2253  0.0496
  815THF     H512937   5.055   4.278   5.109 -0.2010  1.2587 -2.8895
  815THF     H612938   5.335   4.144   4.908 -0.7835  2.5600 -0.1924
  815THF     H712939   5.445   4.210   5.026  0.0038 -1.1900  1.1666
  815THF     C812940   5.309   4.057   5.097  0.4381  0.1900  0.5975
  815THF     C912941   5.166   4.079   5.137  0.8889  0.8217 -0.7351
  815THF    H1012942   5.381   4.042   5.177 -0.5073 -0.3893  1.3617
  815THF    H1112943   5.335   3.975   5.029  1.5511  0.8294  0.2290
  815THF    H1212944   5.100   3.996   5.110 -1.8734  3.0566 -1.3920
  815THF    H1312945   5.157   4.081   5.246  2.1743 -0.2496 -0.5909
  816THF     O112946   0.849   1.204   1.558  0.2832 -0.1819 -0.1005
  816THF     C212947   0.911   1.310   1.630 -0.0227 -0.5789  0.4369
  816THF     C312948   0.758   1.129   1.640 -0.3557  0.3105 -0.5839
  816THF     H412949   0.957   1.382   1.563  0.5039 -0.2616  1.1303
  816THF     H512950   0.993   1.268   1.689 -0.3525  0.8618  1.9991
  816THF     H612951   0.682   1.068   1.591 -0.1273 -0.8569  0.4562
  816THF     H712952   0.820   1.068   1.706  1.7583  2.0978 -0.8190
  816THF     C812953   0.694   1.242   1.716  0.1018 -0.1335 -0.2632
  816THF     C912954   0.801   1.353   1.727 -0.3403  0.3817  1.0423
  816THF    H1012955   0.651   1.217   1.813 -0.4166  0.1880 -0.4087
  816THF    H1112956   0.614   1.288   1.658  1.3123 -0.0031 -1.9260
  816THF    H1212957   0.769   1.455   1.702  0.1238  0.5905  1.2804
  816THF    H1312958   0.837   1.357   1.830  0.8572  0.0283  0.6529
  817THF     O112959   1.334   0.393   0.163  0.2283 -0.0675 -0.1960
  817THF     C212960   1.240   0.389   0.268  0.2133 -0.6428  0.1591
  817THF     C312961   1.437   0.299   0.182 -0.0221  0.0900 -0.1509
  817THF     H412962   1.159   0.335   0.219  0.1741  0.4507 -1.0208
  817THF     H512963   1.203   0.485   0.304 -0.6968 -1.1166  0.5384
  817THF     H612964   1.395   0.207   0.142 -1.2925  0.3730  0.4749
  817THF     H712965   1.524   0.322   0.120 -1.5382 -2.4523 -3.5771
  817THF     C812966   1.451   0.299   0.333  0.1407  0.2139  0.0742
  817THF     C912967   1.310   0.311   0.380 -0.4097  0.1109  0.0916
  817THF    H1012968   1.511   0.385   0.361  1.4399 -0.5935 -0.1742
  817THF    H1112969   1.491   0.204   0.368 -0.1267 -0.1006 -0.4521
  817THF    H1212970   1.256   0.219   0.402  0.4719 -1.2121 -2.8706
  817THF    H1312971   1.316   0.360   0.478 -1.1295  0.2114  0.0901
  818THF     O112972   4.338   0.892   0.681 -0.2145  0.2834  0.3873
  818THF     C212973   4.465   0.882   0.747 -0.4041  0.7137 -0.1976
  818THF     C312974   4.327   1.013   0.611  0.4809  0.0713 -0.0541
  818THF     H412975   4.539   0.816   0.702  3.0036  2.5423  2.2437
  818THF     H512976   4.445   0.861   0.852  0.6738  0.4278 -0.0287
  818THF     H612977   4.284   1.006   0.511  1.5968 -0.0836 -0.5366
  818THF     H712978   4.263   1.072   0.677 -1.7170 -1.4119 -0.7651
  818THF     C812979   4.468   1.070   0.607 -0.3623  0.0307  0.3771
  818THF     C912980   4.525   1.019   0.735  0.4118  0.0819  0.2699
  818THF    H1012981   4.463   1.179   0.601 -1.0759  0.0993  1.6833
  818THF    H1112982   4.515   1.033   0.517  0.3105 -0.2375  0.8339
  818THF    H1212983   4.633   1.024   0.747  0.4130  3.1529 -0.1842
  818THF    H1312984   4.482   1.087   0.809 -0.3777  2.0168 -1.8468
  819THF     O112985   1.954   2.271   2.959 -0.2338  0.6860  0.5900
  819THF     C212986   1.995   2.400   2.930  0.0567 -0.4979  0.1096
  819THF     C312987   1.851   2.232   2.868  0.7387  0.0832  0.1220
  819THF     H412988   2.100   2.422   2.949 -0.0645 -0.2468  0.4924
  819THF     H512989   1.932   2.463   2.994  1.4271  4.0810 -2.5986
  819THF     H612990   1.861   2.125   2.853 -0.8443  0.2672 -3.1084
  819THF     H712991   1.757   2.257   2.917 -0.0896  0.7954 -1.7452
  819THF     C812992   1.866   2.323   2.743  0.1202 -0.8090 -0.8142
  819THF     C912993   1.969   2.427   2.782  0.3415 -0.2413 -0.0917
  819THF    H1012994   1.768   2.364   2.716 -0.0092 -1.7293 -1.7804
  819THF    H1112995   1.903   2.271   2.655  0.0326 -1.5948 -0.3873
  819THF    H1212996   2.055   2.429   2.715  0.4408  1.4632  0.0218
  819THF    H1312997   1.930   2.529   2.771 -3.4176 -1.7215 -2.2316
  820THF     O112998   5.341   5.079   1.616 -0.0890  0.4116  0.3904
  820THF     C212999   5.214   5.129   1.619  0.5750  0.1263 -0.4396
  820THF     C313000   5.379   5.039   1.480  0.0177 -0.0898 -0.4815
  820THF     H413001   5.219   5.231   1.579 -1.0783 -0.2996 -1.8524
  820THF     H513002   5.170   5.141   1.718 -2.0596  0.0194 -1.5232
  820THF     H613003   5.446   5.115   1.441 -0.5848 -0.4192 -2.2791
  820THF     H713004   5.430   4.944   1.496  0.5075  0.2200 -0.2052
  820THF     C813005   5.241   5.032   1.413  0.0270 -0.7585  0.1135
  820THF     C913006   5.139   5.042   1.525  0.0888 -0.3089  0.6877
  820THF    H1013007   5.209   4.947   1.352  0.7598  0.1402 -1.5722
  820THF    H1113008   5.227   5.115   1.344 -1.6360 -1.5473 -0.5555
  820THF    H1213009   5.039   5.083   1.506  1.1671  1.7794 -0.8914
  820THF    H1313010   5.128   4.945   1.574 -1.1079  0.7207  2.6194
  821THF     O113011   0.140   3.389   4.305  0.0430  0.5154  0.0883
  821THF     C213012   0.116   3.459   4.184  0.4242 -0.7079  1.0192
  821THF     C313013   0.032   3.434   4.392  0.1382  0.6181 -0.6952
  821THF     H413014   0.155   3.407   4.096 -0.4130  3.2818 -2.0438
  821THF     H513015   0.159   3.559   4.188 -1.4631  0.2696 -0.6459
  821THF     H613016   0.005   3.361   4.468 -0.3241  0.4828 -0.9834
  821THF     H713017   0.074   3.520   4.445 -1.7223  2.2644 -1.7491
  821THF     C813018  -0.087   3.480   4.312  0.8147  0.3186  0.1314
  821THF     C913019  -0.032   3.487   4.167 -0.3438  0.2617 -0.6410
  821THF    H1013020  -0.110   3.585   4.332  1.5032  0.6139 -0.5604
  821THF    H1113021  -0.168   3.408   4.323 -0.9913  2.4149  1.3186
  821THF    H1213022  -0.070   3.411   4.098  0.8090 -0.6648 -0.2962
  821THF    H1313023  -0.054   3.583   4.121 -0.7935  1.5676  2.1178
  822THF     O113024   3.913   0.959   2.347  0.0661 -0.5166 -0.3691
  822THF     C213025   4.047   0.914   2.351 -0.1750 -0.2326  0.3035
  822THF     C313026   3.911   1.089   2.392  0.3275  0.6083  0.0813
  822THF     H413027   4.061   0.830   2.284 -3.1423  1.4560 -2.7602
  822THF     H513028   4.077   0.891   2.454  2.8070  0.2771 -0.3621
  822THF     H613029   3.811   1.122   2.365  0.3207 -0.3111 -1.1087
  822THF     H713030   3.929   1.107   2.498  1.9811  1.3174 -0.2817
  822THF     C813031   4.022   1.156   2.317 -0.2967 -0.1229 -0.3595
  822THF     C913032   4.125   1.044   2.300  0.3874  0.2085  0.1123
  822THF    H1013033   4.065   1.240   2.372 -1.5387  0.9497 -0.9778
  822THF    H1113034   3.986   1.197   2.223  1.2183 -0.7735 -1.2485
  822THF    H1213035   4.143   1.029   2.193 -2.9305 -1.5783 -0.3360
  822THF    H1313036   4.226   1.057   2.340  1.0413  0.3497 -1.4952
  823THF     O113037   0.423   2.771   4.989  0.9642 -0.2606 -0.7830
  823THF     C213038   0.400   2.660   4.908  0.0485  0.3702  0.3226
  823THF     C313039   0.480   2.744   5.119 -0.0356  0.2508  0.5303
  823THF     H413040   0.437   2.680   4.807 -0.1359  0.1637  0.2137
  823THF     H513041   0.296   2.629   4.900 -0.3503  1.0831  2.2011
  823THF     H613042   0.587   2.764   5.120 -0.2197  1.7346  4.1946
  823THF     H713043   0.431   2.789   5.205 -0.0570 -0.4942  0.9183
  823THF     C813044   0.464   2.592   5.119  0.0690  0.6635 -0.0662
  823THF     C913045   0.481   2.559   4.974 -0.0702 -0.3677 -0.1919
  823THF    H1013046   0.364   2.565   5.151  0.0376  1.1378  0.2609
  823THF    H1113047   0.541   2.544   5.179 -0.4995  0.0249  0.1634
  823THF    H1213048   0.581   2.576   4.935 -0.1478  1.6608  0.4043
  823THF    H1313049   0.443   2.458   4.961 -1.2544  0.3009 -2.1799
  824THF     O113050   3.494   5.186   1.613  0.2877  0.2635 -0.3209
  824THF     C213051   3.618   5.190   1.551 -0.6599  0.1320 -1.0371
  824THF     C313052   3.498   5.155   1.750 -0.1854 -0.5762  0.3123
  824THF     H413053   3.674   5.281   1.572  1.2367 -1.0549 -0.7621
  824THF     H513054   3.602   5.162   1.447 -0.3952 -0.2722 -0.9668
  824THF     H613055   3.535   5.232   1.817  0.6282  1.2292 -2.0982
  824THF     H713056   3.392   5.140   1.773 -0.6864 -0.5109 -1.7763
  824THF     C813057   3.589   5.035   1.743 -1.1728  0.5622  0.2381
  824THF     C913058   3.681   5.071   1.624 -0.3877 -0.0510  0.5841
  824THF    H1013059   3.529   4.945   1.730 -0.0625  0.0042 -1.1642
  824THF    H1113060   3.653   5.030   1.831 -1.8833  1.1232  0.8093
  824THF    H1213061   3.785   5.093   1.647  1.0412 -0.9834 -3.9774
  824THF    H1313062   3.694   4.987   1.557  0.4427 -1.3624  2.3339
  825THF     O113063   0.761   4.436   3.253 -0.1929  0.2506 -0.3875
  825THF     C213064   0.753   4.538   3.151 -0.4599 -0.4466  0.3557
  825THF     C313065   0.629   4.384   3.265  0.0772  0.2028 -0.3267
  825THF     H413066   0.745   4.471   3.066  0.3549  0.5547 -0.5403
  825THF     H513067   0.842   4.600   3.146  0.3307 -1.5915 -0.0666
  825THF     H613068   0.596   4.333   3.174  1.9421  1.2026 -1.6508
  825THF     H713069   0.604   4.319   3.349 -1.6105  0.1822 -0.7945
  825THF     C813070   0.547   4.518   3.264 -0.2306  0.7059  0.0212
  825THF     C913071   0.628   4.615   3.174 -0.2866  0.0961 -0.1924
  825THF    H1013072   0.541   4.558   3.365 -0.4728  0.8620 -0.0541
  825THF    H1113073   0.453   4.502   3.212  0.1887  0.8097 -0.7794
  825THF    H1213074   0.566   4.633   3.087 -0.9076 -1.1306 -0.0290
  825THF    H1313075   0.635   4.713   3.220 -0.1330 -0.7870  1.7783
  826THF     O113076   2.442   2.487   2.922  0.1364 -0.4435 -0.3770
  826THF     C213077   2.403   2.356   2.902  0.7929 -0.0579 -0.3069
  826THF     C313078   2.587   2.488   2.934  0.0469  0.6389 -1.2782
  826THF     H413079   2.412   2.325   2.797  2.3841 -1.6856  0.2506
  826THF     H513080   2.305   2.346   2.947  0.2204  1.9175 -1.0392
  826THF     H613081   2.630   2.476   2.834 -0.9664  0.8846 -1.7546
  826THF     H713082   2.609   2.578   2.991 -0.6603 -0.4207  0.7640
  826THF     C813083   2.604   2.372   3.030  0.1726  0.1101  0.1893
  826THF     C913084   2.493   2.271   2.993  0.5217 -0.7712  0.3302
  826THF    H1013085   2.601   2.400   3.135  2.1551 -2.0880  0.9258
  826THF    H1113086   2.700   2.321   3.020 -0.0375 -0.2717  0.0777
  826THF    H1213087   2.537   2.186   2.941 -1.4603 -1.0106 -1.0718
  826THF    H1313088   2.449   2.237   3.087 -0.9574 -1.0163 -0.4271
  827THF     O113089   0.129   5.165   4.619 -0.1061  0.6051  0.1889
  827THF     C213090   0.095   5.287   4.562 -0.7365  0.9565 -0.4744
  827THF     C313091   0.262   5.130   4.562  0.1578  0.5628 -0.3483
  827THF     H413092   0.012   5.346   4.601 -0.5661  0.9193 -0.0541
  827THF     H513093   0.077   5.268   4.456 -0.7579  0.2673 -0.3523
  827THF     H613094   0.312   5.059   4.627 -0.6484  0.7735  0.5218
  827THF     H713095   0.237   5.086   4.465  0.0448 -0.1336 -0.0034
  827THF     C813096   0.327   5.265   4.534  0.3249 -0.2685 -0.2265
  827THF     C913097   0.223   5.369   4.577  0.4934 -0.2136 -0.4001
  827THF    H1013098   0.337   5.267   4.426  0.0235 -1.7971 -0.3045
  827THF    H1113099   0.427   5.282   4.573  0.3087  0.5132 -0.5015
  827THF    H1213100   0.231   5.397   4.682 -0.6444 -1.3557  0.0196
  827THF    H1313101   0.218   5.462   4.522 -2.5721 -0.7330 -1.1700
  828THF     O113102   2.701   0.772   1.343  0.0068  0.0123 -0.4031
  828THF     C213103   2.833   0.708   1.347  0.1410 -0.0302 -0.5612
  828THF     C313104   2.693   0.866   1.447 -0.9520  0.2387  0.2368
  828THF     H413105   2.893   0.756   1.270  0.3610  0.8676  0.1594
  828THF     H513106   2.817   0.602   1.327 -1.6748  0.1288 -0.1689
  828THF     H613107   2.741   0.961   1.424  0.2955 -0.1601  1.0308
  828THF     H713108   2.588   0.879   1.474 -1.1090 -2.6275  1.4800
  828THF     C813109   2.773   0.806   1.561 -0.1012  0.2276  0.6536
  828THF     C913110   2.889   0.742   1.485 -0.4483  0.0345 -0.9539
  828THF    H1013111   2.712   0.731   1.610 -1.5035  1.1506  0.3830
  828THF    H1113112   2.801   0.875   1.640  1.2542 -1.2659  1.5295
  828THF    H1213113   2.962   0.823   1.474 -0.0296 -0.3412 -0.9638
  828THF    H1313114   2.931   0.651   1.527 -0.5402  0.0736 -0.7760
  829THF     O113115   0.209   0.375   4.823 -0.4801 -0.5516 -0.0598
  829THF     C213116   0.306   0.431   4.913  0.2147 -0.4863 -0.3646
  829THF     C313117   0.273   0.356   4.696  0.1295  0.6457 -0.0589
  829THF     H413118   0.271   0.431   5.016 -0.8369  0.6927 -0.6939
  829THF     H513119   0.330   0.532   4.882 -2.1573  0.7624  1.5279
  829THF     H613120   0.210   0.296   4.630 -2.0043  2.5454  0.1072
  829THF     H713121   0.293   0.445   4.636  2.1477  1.6294  1.9269
  829THF     C813122   0.405   0.289   4.746  0.1505 -0.3815 -0.8742
  829THF     C913123   0.423   0.340   4.890  0.0121 -0.3852  0.1119
  829THF    H1013124   0.496   0.315   4.691  0.5950  0.2903  0.1424
  829THF    H1113125   0.391   0.181   4.743  0.5755 -0.4228 -1.8447
  829THF    H1213126   0.425   0.259   4.963 -0.2381 -0.7089 -0.2391
  829THF    H1313127   0.514   0.399   4.902  0.7161 -1.6584  1.2865
  830THF     O113128   4.763   5.353   5.349 -0.5025  0.6205  0.7678
  830THF     C213129   4.868   5.265   5.303 -0.2276 -0.1745 -0.4991
  830THF     C313130   4.696   5.290   5.450 -0.0055 -0.1557  0.4423
  830THF     H413131   4.942   5.307   5.235 -0.4374 -0.4968 -0.9301
  830THF     H513132   4.832   5.183   5.241 -1.3151 -0.7795  0.8819
  830THF     H613133   4.638   5.356   5.514  0.3957  1.8862 -1.1603
  830THF     H713134   4.614   5.235   5.404  1.1806 -0.0758 -1.9710
  830THF     C813135   4.800   5.198   5.533  1.1447 -0.4569  0.6966
  830THF     C913136   4.923   5.207   5.443  0.0009  0.1060  0.3744
  830THF    H1013137   4.762   5.096   5.540 -0.1005 -0.2845 -2.2018
  830THF    H1113138   4.827   5.248   5.626 -1.3587  2.3323  0.0743
  830THF    H1213139   5.000   5.271   5.487  0.6220 -0.0762 -0.4217
  830THF    H1313140   4.964   5.106   5.433 -1.6981 -0.8094  2.0775
  831THF     O113141   3.869   3.415   3.341 -0.1704  0.0292  0.0056
  831THF     C213142   3.858   3.545   3.391 -0.1828  0.4532  0.4299
  831THF     C313143   3.744   3.346   3.371 -1.1116 -0.5608  0.1646
  831THF     H413144   3.797   3.597   3.316 -0.9224 -1.9686 -0.7348
  831THF     H513145   3.952   3.600   3.389 -0.0788  0.3334 -2.4853
  831THF     H613146   3.682   3.348   3.282 -0.5082  1.1338 -0.2576
  831THF     H713147   3.751   3.242   3.402  0.9273 -0.4714  0.1475
  831THF     C813148   3.676   3.428   3.479  0.5954  0.2269 -0.0788
  831THF     C913149   3.790   3.521   3.521  0.0839  0.3183 -0.8914
  831THF    H1013150   3.641   3.369   3.563 -0.7340  1.3334  0.1705
  831THF    H1113151   3.600   3.492   3.434  0.3313  0.5364  0.7989
  831THF    H1213152   3.748   3.595   3.589  1.2989  0.6717 -0.4952
  831THF    H1313153   3.843   3.458   3.593  0.4963 -1.3218 -2.5224
  832THF     O113154   4.739   3.279   4.407  0.3079  0.2719 -0.1499
  832THF     C213155   4.647   3.308   4.510  0.3040 -1.0968 -0.0366
  832THF     C313156   4.679   3.187   4.324  0.0473 -0.2796  1.0585
  832THF     H413157   4.603   3.407   4.497 -1.7055 -1.5489  2.4826
  832THF     H513158   4.707   3.320   4.600  1.0854  1.6171 -0.8049
  832THF     H613159   4.718   3.202   4.223 -2.1680 -2.5153 -0.2638
  832THF     H713160   4.713   3.085   4.344  1.9151 -0.4304 -2.1031
  832THF     C813161   4.528   3.192   4.345  0.1673 -0.2019  0.4416
  832THF     C913162   4.530   3.206   4.494 -0.2528 -0.3192 -0.5738
  832THF    H1013163   4.478   3.107   4.297 -2.4258  0.6588  1.4841
  832THF    H1113164   4.495   3.288   4.306  1.9955  0.6807  0.9309
  832THF    H1213165   4.428   3.224   4.530 -0.0989  1.9036 -1.1341
  832THF    H1313166   4.561   3.114   4.543 -2.1280 -1.2509 -1.0228
  833THF     O113167   3.786   0.933   1.891 -0.1726  0.4105  0.2902
  833THF     C213168   3.733   0.803   1.910  0.0520  0.4962 -0.4483
  833THF     C313169   3.812   0.990   2.022  0.4595  0.1837 -0.0996
  833THF     H413170   3.806   0.732   1.949 -0.6122  0.1362  0.1607
  833THF     H513171   3.696   0.757   1.818 -0.4703  2.9164 -1.5509
  833THF     H613172   3.918   0.973   2.045  0.7289 -0.8102 -1.8744
  833THF     H713173   3.794   1.097   2.010  0.2421 -0.1108 -3.0348
  833THF     C813174   3.696   0.928   2.109 -0.5189 -0.1461  0.2412
  833THF     C913175   3.624   0.845   2.012  0.1649  0.2884 -0.2281
  833THF    H1013176   3.637   1.002   2.162  0.4264  0.0116  1.1043
  833THF    H1113177   3.746   0.869   2.186  0.9995 -0.4915 -0.9365
  833THF    H1213178   3.575   0.762   2.062  0.9654 -0.0727 -0.0402
  833THF    H1313179   3.547   0.907   1.964  0.0012  2.1778  2.2481
  834THF     O113180   1.133   4.278   2.616 -0.4737 -0.5984 -0.1931
  834THF     C213181   1.058   4.245   2.501  0.1864  0.3314  0.0000
  834THF     C313182   1.163   4.162   2.687 -0.1753 -0.0844 -0.3472
  834THF     H413183   1.126   4.221   2.419 -1.7619  0.4979 -1.7614
  834THF     H513184   1.006   4.330   2.456  0.4026  0.0678 -0.7707
  834THF     H613185   1.234   4.103   2.629 -0.5993  0.1572 -1.1252
  834THF     H713186   1.202   4.180   2.788  1.5776 -0.8873 -0.8341
  834THF     C813187   1.033   4.094   2.680  1.1354 -0.3204 -0.4400
  834THF     C913188   0.974   4.125   2.543 -0.2270 -0.4876  0.8020
  834THF    H1013189   0.966   4.133   2.757  0.9930  2.3105 -1.7848
  834THF    H1113190   1.043   3.987   2.697 -3.0837 -0.7284  0.6822
  834THF    H1213191   0.992   4.037   2.482 -0.6397  0.2115 -0.3653
  834THF    H1313192   0.870   4.157   2.539  0.1725  0.8956 -3.5626
  835THF     O113193   3.824   1.663   3.284  0.0444 -0.6450  0.3499
  835THF     C213194   3.901   1.779   3.294  0.4002 -0.2049 -0.7647
  835THF     C313195   3.731   1.691   3.176  0.4474  0.4141 -0.7038
  835THF     H413196   3.985   1.766   3.225  0.1862  0.2476 -1.1192
  835THF     H513197   3.934   1.784   3.398 -1.8507  1.0032 -0.0570
  835THF     H613198   3.732   1.620   3.094 -0.9247  0.3312 -0.6650
  835THF     H713199   3.628   1.666   3.200  0.6268  0.1436 -0.1997
  835THF     C813200   3.740   1.837   3.140  0.4677  0.0589 -0.0349
  835THF     C913201   3.814   1.899   3.257 -0.2021 -0.2240 -0.4450
  835THF    H1013202   3.648   1.890   3.115 -0.2924 -0.0954  2.1897
  835THF    H1113203   3.809   1.835   3.055  0.4884 -0.2929 -0.0101
  835THF    H1213204   3.876   1.983   3.229  0.2408 -0.2579  0.3935
  835THF    H1313205   3.741   1.937   3.329  0.8593  3.0927 -0.9594
  836THF     O113206   2.180   4.410   2.347  0.2149  0.2610 -0.4258
  836THF     C213207   2.078   4.418   2.437 -0.1766 -0.1106  0.1661
  836THF     C313208   2.211   4.271   2.336  0.2941 -0.2302 -0.3325
  836THF     H413209   2.025   4.505   2.399  0.7167 -0.1482 -1.1982
  836THF     H513210   2.111   4.430   2.541  2.2637 -0.7700 -0.4680
  836THF     H613211   2.281   4.247   2.256  0.8276 -0.1195  0.0988
  836THF     H713212   2.259   4.234   2.427  0.9238 -0.9747 -0.9497
  836THF     C813213   2.072   4.228   2.308 -0.1006 -0.0211 -0.5092
  836THF     C913214   1.992   4.300   2.408  0.3112 -0.0767 -0.0104
  836THF    H1013215   2.054   4.121   2.322 -2.9068  0.6079  1.4051
  836THF    H1113216   2.047   4.255   2.205 -1.6400 -2.8315 -0.9586
  836THF    H1213217   1.893   4.329   2.373  0.2870  0.7861  0.7169
  836THF    H1313218   1.986   4.246   2.503  1.9058  1.9646  1.3393
  837THF     O113219   4.314   1.453   1.566  0.0832 -0.2368  0.3121
  837THF     C213220   4.430   1.404   1.496 -0.2265  0.1779 -0.8863
  837THF     C313221   4.363   1.533   1.662  0.2063 -0.2902 -0.2925
  837THF     H413222   4.489   1.473   1.435 -0.6073 -0.4776 -2.0436
  837THF     H513223   4.413   1.312   1.439  2.5407 -0.3051 -1.0938
  837THF     H613224   4.381   1.627   1.612 -0.8557  0.1390  0.1018
  837THF     H713225   4.285   1.547   1.738  0.5515  2.7336 -0.3905
  837THF     C813226   4.481   1.461   1.720  0.2884 -0.1417 -0.2394
  837THF     C913227   4.517   1.359   1.613  0.2804  0.0505  0.9689
  837THF    H1013228   4.460   1.405   1.811 -1.5479 -0.6534 -0.9461
  837THF    H1113229   4.571   1.521   1.740  0.6835 -1.3090  1.8194
  837THF    H1213230   4.620   1.337   1.587 -0.0571 -0.8219  0.2940
  837THF    H1313231   4.470   1.268   1.651 -0.9937 -0.1409 -0.9030
  838THF     O113232   4.490   0.058   3.192 -0.1820  0.3342  0.5508
  838THF     C213233   4.617   0.018   3.148  0.1032 -0.3308 -0.0028
  838THF     C313234   4.506   0.138   3.302  1.0107  0.1067 -0.7053
  838THF     H413235   4.610  -0.010   3.043  1.5707 -0.4785 -0.0837
  838THF     H513236   4.635  -0.073   3.206 -0.8914  1.0462  2.6500
  838THF     H613237   4.431   0.217   3.291  0.9974  0.6874  2.6071
  838THF     H713238   4.483   0.077   3.389  1.7441 -0.5831 -0.9886
  838THF     C813239   4.647   0.197   3.306 -0.1001 -0.7706 -0.1893
  838THF     C913240   4.711   0.137   3.178  0.0867 -0.3885  0.0384
  838THF    H1013241   4.699   0.149   3.389  0.0133 -1.2900 -0.5576
  838THF    H1113242   4.656   0.305   3.298 -1.0079 -0.6688  0.0858
  838THF    H1213243   4.711   0.221   3.108  0.6403  1.3642  2.0327
  838THF    H1313244   4.816   0.116   3.196  0.3073 -0.6358 -1.3798
  839THF     O113245   4.571   2.115   5.081 -0.3607  0.6049  1.2429
  839THF     C213246   4.690   2.079   5.016  0.2014 -0.3324 -0.7225
  839THF     C313247   4.465   2.090   4.990  0.6740 -0.0821 -0.2591
  839THF     H413248   4.772   2.089   5.088 -0.7133  0.5186  0.2195
  839THF     H513249   4.703   2.154   4.937 -0.4572  0.9127  0.3234
  839THF     H613250   4.368   2.081   5.040 -0.9720  1.4926 -2.9646
  839THF     H713251   4.445   2.166   4.915 -5.3127 -0.3298  0.5739
  839THF     C813252   4.506   1.959   4.918  0.3427 -0.0558 -0.0951
  839THF     C913253   4.658   1.946   4.954 -0.3465  0.9605 -0.3372
  839THF    H1013254   4.480   1.953   4.812  2.8742 -0.0854 -0.7767
  839THF    H1113255   4.448   1.877   4.959  0.9014  0.2794  1.4218
  839THF    H1213256   4.676   1.870   5.030 -1.2168  1.6862  0.6256
  839THF    H1313257   4.716   1.929   4.864 -1.4652  0.6643 -1.0186
  840THF     O113258   1.772   3.698   2.906 -0.3027 -0.0446 -0.2481
  840THF     C213259   1.810   3.830   2.941  0.1276 -0.3115  0.1823
  840THF     C313260   1.779   3.614   3.022 -0.2142  0.2686 -0.2008
  840THF     H413261   1.721   3.862   2.996 -1.0621 -1.0933 -1.2173
  840THF     H513262   1.833   3.890   2.854  0.0339 -1.4761 -0.6694
  840THF     H613263   1.684   3.618   3.076 -1.9926  0.9561 -3.1254
  840THF     H713264   1.795   3.514   2.982 -1.8133  1.4837 -4.3509
  840THF     C813265   1.909   3.664   3.097  0.9916  0.6850 -0.0389
  840THF     C913266   1.924   3.802   3.036 -0.1479 -0.1989 -0.0914
  840THF    H1013267   1.996   3.606   3.066 -0.0562  0.0979 -2.0440
  840THF    H1113268   1.915   3.662   3.206  0.6944 -1.0197 -0.0316
  840THF    H1213269   1.941   3.876   3.114  1.0882 -2.1487  1.6181
  840THF    H1313270   2.021   3.795   2.986 -0.3009  0.1630 -0.4388
  841THF     O113271   2.549   4.453   1.675  0.0025 -0.3319 -0.3404
  841THF     C213272   2.676   4.510   1.627  0.0503  0.9749 -0.4775
  841THF     C313273   2.457   4.556   1.678  0.1088  0.1439 -0.3146
  841THF     H413274   2.746   4.430   1.603  0.6779  1.5016 -0.4238
  841THF     H513275   2.727   4.568   1.704  0.7287 -0.1038 -0.0916
  841THF     H613276   2.357   4.512   1.687  0.7374 -1.4385 -0.7482
  841THF     H713277   2.483   4.615   1.766 -0.1862  0.0857 -0.1880
  841THF     C813278   2.490   4.647   1.557 -0.3372  0.3496 -0.4964
  841THF     C913279   2.627   4.607   1.514 -0.0420  0.2383  0.9708
  841THF    H1013280   2.476   4.752   1.581 -0.9077  0.0895  0.3371
  841THF    H1113281   2.416   4.632   1.478  0.2915  2.4670 -1.5680
  841THF    H1213282   2.634   4.547   1.423 -2.3207 -1.2119  1.6845
  841THF    H1313283   2.697   4.691   1.503  0.6134  0.0285  3.0183
  842THF     O113284   4.321   2.594   0.988  0.2656 -0.0750 -0.8611
  842THF     C213285   4.322   2.474   0.910  0.4427 -0.5970  0.2007
  842THF     C313286   4.189   2.629   1.010  0.6268  0.2731 -0.4362
  842THF     H413287   4.340   2.389   0.975  1.9789 -0.2736  0.2569
  842THF     H513288   4.394   2.475   0.828 -0.5482  1.6364 -0.7393
  842THF     H613289   4.165   2.646   1.115  0.6212 -1.1201 -0.1913
  842THF     H713290   4.168   2.722   0.957 -1.0855 -0.3227 -0.8668
  842THF     C813291   4.108   2.513   0.952  0.4252  0.6095  0.4043
  842THF     C913292   4.186   2.459   0.843 -0.0342  0.1964 -0.0304
  842THF    H1013293   4.012   2.551   0.916 -0.9520 -1.7989  1.3320
  842THF    H1113294   4.072   2.438   1.022  1.0776  0.1785  0.2816
  842THF    H1213295   4.148   2.358   0.828 -1.4192  0.6770  0.0355
  842THF    H1313296   4.191   2.520   0.753  0.2749  0.4231  0.1389
  843THF     O113297   1.202   4.957   4.585  0.2394 -0.0055  0.3546
  843THF     C213298   1.215   5.004   4.715  0.2790  1.5694  0.6445
  843THF     C313299   1.339   4.938   4.538 -0.1537  0.7170 -0.3414
  843THF     H413300   1.236   4.923   4.785 -2.0740 -0.9186 -1.3492
  843THF     H513301   1.120   5.050   4.745 -0.2925  1.1578 -0.4941
  843THF     H613302   1.376   4.841   4.572 -2.1071 -0.0094 -0.1209
  843THF     H713303   1.341   4.954   4.430 -0.5068 -1.6995 -0.7676
  843THF     C813304   1.424   5.041   4.609  0.2063 -0.1930  1.3268
  843THF     C913305   1.327   5.108   4.707  0.6593  0.4369  0.4566
  843THF    H1013306   1.469   5.106   4.533 -0.9669 -0.6175  0.2247
  843THF    H1113307   1.505   4.992   4.663  0.5380 -1.2244 -0.0521
  843THF    H1213308   1.367   5.145   4.802 -0.5146  2.1677  0.3198
  843THF    H1313309   1.277   5.198   4.672  0.5417  0.2152  0.0490
  844THF     O113310   0.125   3.838   4.750 -0.6068 -0.6666 -0.5467
  844THF     C213311   0.221   3.780   4.844 -0.5095 -0.6951  0.4165
  844THF     C313312  -0.002   3.814   4.798  0.2016  0.3545  0.0853
  844THF     H413313   0.227   3.837   4.937  1.9815 -1.2671  0.6751
  844THF     H513314   0.318   3.765   4.797  0.3635  1.3144  1.4251
  844THF     H613315  -0.012   3.864   4.894 -1.0291 -0.0075  0.1707
  844THF     H713316  -0.075   3.848   4.724 -0.5050  0.1020  0.6592
  844THF     C813317   0.007   3.665   4.821 -0.6111 -0.1203  0.1561
  844THF     C913318   0.153   3.655   4.887  1.1539 -0.0056  0.3088
  844THF    H1013319   0.016   3.603   4.731 -0.0071 -2.6388  1.8507
  844THF    H1113320  -0.065   3.607   4.879 -0.0463 -0.6275  0.3557
  844THF    H1213321   0.130   3.646   4.993  0.5765 -2.1062  0.0550
  844THF    H1313322   0.198   3.560   4.857 -0.7793 -0.8964  0.0042
  845THF     O113323   4.468   0.262   2.023  0.1663 -0.0360 -0.0035
  845THF     C213324   4.598   0.294   1.968  0.4418  0.3247 -0.5045
  845THF     C313325   4.442   0.346   2.134  0.4407 -0.4967 -0.0179
  845THF     H413326   4.587   0.384   1.906  0.1679  0.6905  0.0659
  845THF     H513327   4.642   0.207   1.920 -1.8182  0.6033 -3.3663
  845THF     H613328   4.354   0.410   2.126 -0.1266 -1.4594 -2.1557
  845THF     H713329   4.408   0.291   2.222 -0.8962 -0.0289 -0.2226
  845THF     C813330   4.571   0.421   2.165 -0.2660  0.4488  0.0491
  845THF     C913331   4.665   0.327   2.093  0.2473 -0.2452  0.1518
  845THF    H1013332   4.584   0.430   2.273  1.2532  1.0852 -0.1535
  845THF    H1113333   4.582   0.519   2.117 -1.0723  0.0804 -0.9313
  845THF    H1213334   4.761   0.376   2.075 -0.2871  0.8833  0.2556
  845THF    H1313335   4.681   0.241   2.157 -0.5447  0.5785  1.5187
  846THF     O113336   4.099   0.504   3.215  0.1750 -0.1152 -0.5446
  846THF     C213337   4.094   0.595   3.104 -0.0569 -0.1697 -0.6363
  846THF     C313338   4.156   0.379   3.182  0.4856  0.6542 -0.6642
  846THF     H413339   4.148   0.687   3.124  2.2095 -1.3444 -1.0399
  846THF     H513340   3.989   0.623   3.091 -0.4324 -0.4770  1.3572
  846THF     H613341   4.201   0.332   3.269  0.9610 -0.1465 -1.3249
  846THF     H713342   4.088   0.300   3.148  0.5860  0.4434 -0.3774
  846THF     C813343   4.246   0.407   3.061  0.7897  0.0583 -0.1242
  846THF     C913344   4.147   0.502   2.992  0.2204 -0.6373  0.0613
  846THF    H1013345   4.252   0.311   3.010 -2.2601 -1.1912  1.5961
  846THF    H1113346   4.342   0.449   3.091  0.6231  0.4015 -0.0664
  846THF    H1213347   4.188   0.564   2.912 -1.2122 -1.0014 -0.9957
  846THF    H1313348   4.075   0.444   2.935  0.7386 -1.4782  0.2432
  847THF     O113349   0.755   5.181   4.018 -0.2407  0.2797 -0.5654
  847THF     C213350   0.717   5.271   3.914  0.0227  0.3529  0.7216
  847THF     C313351   0.843   5.240   4.110  0.1589  0.2097 -0.1332
  847THF     H413352   0.609   5.287   3.918 -0.6421 -2.5599 -1.9193
  847THF     H513353   0.722   5.220   3.817 -1.2822  0.8534  0.3636
  847THF     H613354   0.815   5.211   4.211 -0.7903 -2.4376 -1.0857
  847THF     H713355   0.940   5.203   4.076 -1.1179 -1.0966 -2.5951
  847THF     C813356   0.835   5.387   4.085  0.9395 -0.3512  0.5893
  847THF     C913357   0.802   5.400   3.938 -0.5923  0.6248 -1.5134
  847THF    H1013358   0.924   5.436   4.126  1.7020  0.1196 -1.5149
  847THF    H1113359   0.749   5.436   4.130 -0.5574 -1.4821 -0.8940
  847THF    H1213360   0.730   5.479   3.917 -1.7476  0.0346  0.0415
  847THF    H1313361   0.895   5.405   3.880 -1.1729  0.2938 -2.5010
  848THF     O113362   2.607   0.888   0.748  0.2442  0.1137  0.1475
  848THF     C213363   2.534   0.795   0.829 -0.3876 -0.2050 -0.2715
  848THF     C313364   2.742   0.865   0.766 -0.4417  0.1265 -0.3491
  848THF     H413365   2.525   0.696   0.783  0.4214 -0.1529 -0.5515
  848THF     H513366   2.442   0.849   0.849 -1.1285 -2.0217  1.6765
  848THF     H613367   2.779   0.782   0.706  1.3184  1.2447 -0.8885
  848THF     H713368   2.792   0.954   0.726 -1.4332  0.2444 -1.3728
  848THF     C813369   2.764   0.840   0.914 -0.1408 -0.6220 -0.4865
  848THF     C913370   2.623   0.790   0.959  0.3380 -0.0810 -0.0994
  848THF    H1013371   2.790   0.935   0.962  0.8460 -1.0960 -0.0580
  848THF    H1113372   2.850   0.775   0.927  0.7575  0.5912 -0.2083
  848THF    H1213373   2.638   0.688   0.995  2.9814 -0.5500 -2.1452
  848THF    H1313374   2.575   0.848   1.038 -0.5979 -2.1820  0.9577
  849THF     O113375   0.597   5.296   5.466  0.0099 -0.4631 -0.6209
  849THF     C213376   0.501   5.401   5.498  0.9231 -0.1579 -0.4806
  849THF     C313377   0.634   5.304   5.334 -0.4050  0.3579  0.5183
  849THF     H413378   0.545   5.495   5.531 -0.5090  1.2327 -2.3142
  849THF     H513379   0.423   5.376   5.570  1.1476  0.6184  0.0406
  849THF     H613380   0.707   5.385   5.322  0.2116 -0.1642  0.6914
  849THF     H713381   0.675   5.215   5.287  1.4479  0.8260  1.1193
  849THF     C813382   0.500   5.335   5.260 -0.2938 -0.3764  0.4857
  849THF     C913383   0.431   5.425   5.362  0.3089  0.4243 -0.2233
  849THF    H1013384   0.444   5.242   5.276 -0.6103 -0.3042 -0.1875
  849THF    H1113385   0.506   5.357   5.154 -1.5737 -0.6398  0.3402
  849THF    H1213386   0.445   5.532   5.349  0.7154  0.6760  1.8901
  849THF    H1313387   0.325   5.409   5.383  0.3419  1.7539  1.1691
  850THF     O113388   0.785   0.118   0.583  0.4387 -0.5074  0.1538
  850THF     C213389   0.843   0.155   0.713 -0.9042  0.5007 -0.3480
  850THF     C313390   0.690   0.221   0.542  0.0250  0.5136  0.5074
  850THF     H413391   0.949   0.152   0.690 -0.9951 -2.8009 -0.8614
  850THF     H513392   0.821   0.089   0.797  1.0540  1.2760  0.8320
  850THF     H613393   0.689   0.234   0.433 -1.2430  0.8629  0.5445
  850THF     H713394   0.587   0.197   0.567  0.5215 -2.0945  0.3830
  850THF     C813395   0.748   0.342   0.608  0.4911  0.4078  0.0762
  850THF     C913396   0.795   0.294   0.742  0.3161  0.7723 -0.0074
  850THF    H1013397   0.676   0.424   0.613  0.0819  0.2780 -2.3621
  850THF    H1113398   0.835   0.379   0.554 -0.4318 -0.6570 -2.2922
  850THF    H1213399   0.869   0.360   0.787 -1.1827  1.1436  2.0646
  850THF    H1313400   0.710   0.287   0.811 -0.2494  2.9626 -0.4073
  851THF     O113401   3.760   1.493   2.609 -0.2749 -0.2277 -0.4550
  851THF     C213402   3.645   1.408   2.626 -0.0901  0.3522 -0.7456
  851THF     C313403   3.736   1.618   2.676  0.2855  0.7146 -0.0232
  851THF     H413404   3.649   1.301   2.606 -0.6835  0.3694 -0.9877
  851THF     H513405   3.561   1.441   2.565 -1.8028  0.7441  1.6684
  851THF     H613406   3.838   1.652   2.693 -0.0965  0.4473  3.6529
  851THF     H713407   3.679   1.694   2.622  0.9822  0.0984 -1.6682
  851THF     C813408   3.667   1.580   2.807  0.5988 -0.1761 -0.1127
  851THF     C913409   3.614   1.442   2.774  0.2414  0.4294 -0.1108
  851THF    H1013410   3.593   1.655   2.835  1.7113  1.7075 -1.9030
  851THF    H1113411   3.755   1.571   2.871  2.0695 -0.4327 -2.0632
  851THF    H1213412   3.669   1.369   2.833 -1.4815 -0.2272  0.7495
  851THF    H1313413   3.511   1.435   2.808  0.3798  0.2803  0.2821
  852THF     O113414   0.463   5.074   3.056  0.8467  0.3797 -0.4666
  852THF     C213415   0.582   5.058   2.976  0.2861  0.4376 -0.7884
  852THF     C313416   0.495   5.117   3.189  0.2229  0.2082 -0.2018
  852THF     H413417   0.606   5.151   2.924  2.3171 -0.2260 -1.1220
  852THF     H513418   0.561   4.980   2.903  1.6774 -1.3856  0.6623
  852THF     H613419   0.540   5.215   3.176  1.2818 -0.2491 -0.0927
  852THF     H713420   0.415   5.113   3.262  0.2549  2.2960 -0.0010
  852THF     C813421   0.613   5.031   3.223  0.1557 -0.5070  0.2237
  852THF     C913422   0.681   5.005   3.084 -0.7043 -0.0599 -0.2333
  852THF    H1013423   0.579   4.936   3.264 -0.6198 -0.3560 -0.0413
  852THF    H1113424   0.672   5.078   3.301  0.2645 -0.1645 -0.0622
  852THF    H1213425   0.777   5.055   3.082 -0.7634  0.0598 -2.5719
  852THF    H1313426   0.698   4.898   3.068 -2.7778 -0.1660 -2.3444
  853THF     O113427   1.030   4.899   2.252 -0.5030 -0.0981 -0.4052
  853THF     C213428   0.987   4.777   2.185  0.1965 -0.1879 -0.7400
  853THF     C313429   1.049   4.864   2.388  0.8363  0.2474 -0.4520
  853THF     H413430   0.982   4.786   2.077  1.0817 -0.5863 -0.8255
  853THF     H513431   0.882   4.758   2.209  0.2831  0.5087  0.2266
  853THF     H613432   1.110   4.943   2.431  2.0047  1.1964 -3.5591
  853THF     H713433   0.951   4.868   2.435  1.5840 -0.3358  1.2243
  853THF     C813434   1.108   4.723   2.384  0.5348  1.3218  0.5119
  853THF     C913435   1.069   4.661   2.247 -0.2953  0.4539 -0.6532
  853THF    H1013436   1.076   4.655   2.462  0.1455 -0.1201 -0.8438
  853THF    H1113437   1.217   4.718   2.384  0.4911  0.0680  0.6054
  853THF    H1213438   1.161   4.647   2.189  2.3855  1.5483  2.9370
  853THF    H1313439   1.018   4.565   2.259  0.6168 -0.0961 -1.0386
  854THF     O113440   0.110   1.807   1.534  0.1757 -0.3425 -0.1901
  854THF     C213441   0.019   1.783   1.426  0.2900  0.7068 -0.3374
  854THF     C313442   0.164   1.936   1.519  0.0317 -0.2389 -0.1254
  854THF     H413443  -0.044   1.698   1.453 -0.2689  1.3633  0.4761
  854THF     H513444   0.088   1.761   1.345 -0.6828  1.7945 -1.4989
  854THF     H613445   0.194   1.966   1.619 -0.2792  1.8099 -0.6035
  854THF     H713446   0.244   1.931   1.445  0.5161 -2.0389  0.4632
  854THF     C813447   0.048   2.019   1.476  0.3019 -0.3718  0.3057
  854THF     C913448  -0.055   1.919   1.426 -0.9766 -0.4042  0.4420
  854THF    H1013449   0.086   2.098   1.411 -0.8116  0.7056  0.9161
  854THF    H1113450  -0.002   2.073   1.556 -0.4984  1.5978 -1.4337
  854THF    H1213451  -0.146   1.923   1.486 -0.4816 -3.0196  1.5025
  854THF    H1313452  -0.090   1.937   1.324  0.6386 -1.8146 -0.4145
  855THF     O113453   2.630   2.345   4.679 -0.1141 -0.6181 -0.7129
  855THF     C213454   2.731   2.246   4.691 -0.3321 -0.0247 -0.7419
  855THF     C313455   2.505   2.276   4.720 -0.1414  0.3608  0.1812
  855THF     H413456   2.775   2.246   4.791  0.9548 -0.2093 -1.2773
  855THF     H513457   2.826   2.259   4.639  0.6241 -0.6219  0.7891
  855THF     H613458   2.507   2.247   4.825  0.9108 -0.5406 -0.0724
  855THF     H713459   2.408   2.325   4.705 -0.6099 -0.9842 -1.4511
  855THF     C813460   2.512   2.142   4.645 -0.9388 -0.1644  0.1885
  855THF     C913461   2.660   2.114   4.654 -0.9017 -0.2770  0.0009
  855THF    H1013462   2.478   2.153   4.542 -0.6680  0.3038  0.1511
  855THF    H1113463   2.455   2.070   4.705 -0.5325  0.4194  1.2927
  855THF    H1213464   2.688   2.037   4.726 -2.1195  0.5067  1.3837
  855THF    H1313465   2.693   2.089   4.554  1.6632 -2.0302  1.1912
  856THF     O113466   5.207   0.605   1.405 -0.4258 -0.6850 -0.4923
  856THF     C213467   5.162   0.723   1.352 -0.0838 -0.1352  0.1366
  856THF     C313468   5.097   0.515   1.410 -0.2055  0.4863  0.0079
  856THF     H413469   5.168   0.709   1.244 -0.8307  0.0994  0.0557
  856THF     H513470   5.227   0.804   1.384  0.1347 -0.5319  0.7023
  856THF     H613471   5.105   0.439   1.331  0.0650 -0.4839  0.9454
  856THF     H713472   5.114   0.451   1.496  2.2350  0.3283 -0.5140
  856THF     C813473   4.962   0.587   1.401 -0.1530 -0.2608 -0.0936
  856THF     C913474   5.012   0.733   1.395  0.6631  0.5060  0.1254
  856THF    H1013475   4.901   0.586   1.491  0.3744 -2.3957  0.2780
  856THF    H1113476   4.901   0.557   1.316 -0.8677  1.1208 -0.0999
  856THF    H1213477   4.963   0.778   1.309  1.7390  1.0488 -0.2211
  856THF    H1313478   4.984   0.782   1.488 -0.1452 -0.0111  0.1678
  857THF     O113479   3.209   4.419   1.553 -0.3950 -0.4217  0.3420
  857THF     C213480   3.134   4.493   1.453 -0.2524  0.1789  0.2400
  857THF     C313481   3.170   4.290   1.550  0.0821 -0.1813  0.0234
  857THF     H413482   3.203   4.546   1.387 -0.3463 -0.0232 -0.0214
  857THF     H513483   3.070   4.569   1.498  1.9453  1.7769  0.8436
  857THF     H613484   3.249   4.225   1.586 -0.9534 -0.2848  2.3460
  857THF     H713485   3.092   4.259   1.620  0.6964 -2.5718 -0.2616
  857THF     C813486   3.132   4.265   1.405 -0.1564 -0.3752  0.5401
  857THF     C913487   3.053   4.397   1.373  0.3665  0.5031 -0.8509
  857THF    H1013488   3.069   4.176   1.396  0.7084 -0.7992 -1.8006
  857THF    H1113489   3.220   4.252   1.343 -1.6778 -0.3569 -1.7525
  857THF    H1213490   3.040   4.409   1.266  0.0876 -0.6141 -0.9545
  857THF    H1313491   2.951   4.381   1.406  0.5424 -2.8422 -1.5687
  858THF     O113492   1.538   3.999   5.181 -0.4439 -0.4761  0.1549
  858THF     C213493   1.510   3.893   5.083 -0.1968  0.0234  0.2917
  858THF     C313494   1.669   4.046   5.161  0.4809  0.1772  0.0335
  858THF     H413495   1.466   3.942   4.996  0.3341 -1.1134 -0.6412
  858THF     H513496   1.435   3.823   5.117 -0.3309  0.8389  1.7419
  858THF     H613497   1.664   4.112   5.074 -2.6381 -0.2629 -0.2179
  858THF     H713498   1.709   4.096   5.250 -1.1144 -1.2939  1.6425
  858THF     C813499   1.748   3.919   5.115  0.3390 -0.0313  0.3624
  858THF     C913500   1.644   3.819   5.073  0.0792 -0.3976 -0.6203
  858THF    H1013501   1.811   3.875   5.192  1.4536 -1.0152 -1.0797
  858THF    H1113502   1.806   3.949   5.029 -0.0158 -1.0442 -0.2502
  858THF    H1213503   1.653   3.781   4.971 -0.8441  1.3400 -1.3971
  858THF    H1313504   1.649   3.738   5.146  1.2241 -0.5062 -0.8012
  859THF     O113505   5.090   1.891   4.224  0.6978  0.2748 -0.0493
  859THF     C213506   5.207   1.923   4.153  0.3620 -0.0274  0.2081
  859THF     C313507   5.044   2.010   4.289  0.0571  0.0396  0.1160
  859THF     H413508   5.182   1.925   4.047  1.0157  0.7702  0.0509
  859THF     H513509   5.272   1.837   4.171 -1.2202 -1.3439 -0.2104
  859THF     H613510   4.989   2.075   4.222 -1.5734  0.6329  1.9218
  859THF     H713511   4.967   1.985   4.363 -1.5147 -1.1598 -1.8283
  859THF     C813512   5.166   2.088   4.328  0.9509 -0.1421 -0.3276
  859THF     C913513   5.257   2.061   4.211 -0.7551  0.9558 -0.4332
  859THF    H1013514   5.218   2.047   4.415 -0.5384  0.5928  0.9610
  859THF    H1113515   5.138   2.192   4.347 -0.8376 -0.6817  0.1278
  859THF    H1213516   5.242   2.138   4.136 -1.1312  2.0707  0.7303
  859THF    H1313517   5.358   2.058   4.252 -0.2965 -0.6918 -1.6262
  860THF     O113518   4.525   5.223   0.251 -0.1224 -0.3196  0.1962
  860THF     C213519   4.385   5.248   0.250 -0.2980 -0.3009  0.1375
  860THF     C313520   4.549   5.131   0.354  0.2073 -0.1516 -0.1938
  860THF     H413521   4.351   5.303   0.163  2.2165 -0.2557 -0.8933
  860THF     H513522   4.365   5.308   0.339  1.0741 -2.4211  1.9822
  860THF     H613523   4.633   5.068   0.326  1.0494 -0.2174  2.2089
  860THF     H713524   4.571   5.181   0.449 -0.1903  0.5007 -0.4404
  860THF     C813525   4.419   5.042   0.362 -0.4274 -0.1768  0.3790
  860THF     C913526   4.330   5.107   0.258  0.1486  0.2833 -0.4020
  860THF    H1013527   4.378   5.031   0.462  0.0023 -1.8612  0.4095
  860THF    H1113528   4.420   4.933   0.349  1.9216 -0.4578  2.0876
  860THF    H1213529   4.342   5.056   0.163  2.9558  0.2243 -0.1066
  860THF    H1313530   4.225   5.105   0.287 -0.3190 -1.7744 -1.9649
  861THF     O113531   1.497   2.743   1.614  0.4022  0.2423 -0.6099
  861THF     C213532   1.529   2.868   1.661 -0.2080 -0.3937  0.8152
  861THF     C313533   1.585   2.650   1.673  0.4899  0.1098 -0.2311
  861THF     H413534   1.446   2.932   1.633 -1.1563 -1.4083  1.2398
  861THF     H513535   1.622   2.895   1.610  0.8641 -0.0395  2.8650
  861THF     H613536   1.540   2.551   1.669  1.9862 -0.6305  0.4712
  861THF     H713537   1.678   2.651   1.616 -0.0336 -1.4576 -1.1589
  861THF     C813538   1.607   2.708   1.817  0.4021  0.2836  0.1582
  861THF     C913539   1.547   2.845   1.814  0.0354  0.4988  0.9839
  861THF    H1013540   1.713   2.696   1.838  0.1843 -0.0952  1.1349
  861THF    H1113541   1.565   2.634   1.886  1.7210 -1.2260 -0.5849
  861THF    H1213542   1.451   2.844   1.867 -1.1556  1.0260 -1.0432
  861THF    H1313543   1.610   2.921   1.861  1.1737  0.5846 -0.6351
  862THF     O113544   2.466   4.520   0.810  0.1608 -0.8149  0.2203
  862THF     C213545   2.442   4.416   0.717 -0.4467 -0.1879 -0.1167
  862THF     C313546   2.421   4.643   0.755 -0.7473 -0.2833 -0.5015
  862THF     H413547   2.347   4.370   0.745 -0.1527  0.3676  1.9330
  862THF     H513548   2.526   4.347   0.727  1.2102  1.8899  0.9524
  862THF     H613549   2.346   4.687   0.821  0.0774 -0.3362  0.5045
  862THF     H713550   2.517   4.694   0.744 -1.0397  0.8801  1.8347
  862THF     C813551   2.362   4.619   0.619  0.0923  0.3999 -0.2137
  862THF     C913552   2.432   4.486   0.585  0.8175  0.3884 -0.0230
  862THF    H1013553   2.378   4.701   0.549 -1.3768  0.0962 -0.9626
  862THF    H1113554   2.254   4.615   0.631  0.2583 -1.9036  1.2936
  862THF    H1213555   2.388   4.422   0.508 -1.3698  3.1654 -1.2844
  862THF    H1313556   2.534   4.509   0.554  0.9798  1.4012  1.1957
  863THF     O113557   5.143   2.674   4.905  0.2661 -0.4064  0.4668
  863THF     C213558   5.139   2.532   4.924 -0.0194 -0.3819  0.6963
  863THF     C313559   5.103   2.745   5.019  0.4372 -0.9794 -0.2123
  863THF     H413560   5.232   2.519   4.980 -0.2555 -0.5874  1.0430
  863THF     H513561   5.155   2.473   4.833  1.7233 -1.7461  1.8262
  863THF     H613562   5.187   2.767   5.085  1.1247 -0.8666 -1.1170
  863THF     H713563   5.057   2.843   5.006  1.5986 -0.4096 -0.2033
  863THF     C813564   5.005   2.648   5.086 -0.2805  0.2528 -0.1067
  863THF     C913565   5.018   2.511   5.019  0.3946  0.0388 -0.3664
  863THF    H1013566   4.902   2.679   5.069 -0.6565 -0.3903  0.9254
  863THF    H1113567   5.034   2.629   5.189 -0.8170 -0.9560 -0.1549
  863THF    H1213568   5.040   2.438   5.097 -0.8119 -0.9035 -0.8673
  863THF    H1313569   4.925   2.482   4.969  0.4528  0.6900 -0.8657
  864THF     O113570   1.927   5.263   4.124 -0.7209  0.3249  0.4548
  864THF     C213571   1.876   5.396   4.148 -0.1440 -0.6100 -0.2853
  864THF     C313572   1.835   5.172   4.193  0.0055  0.3145  0.3480
  864THF     H413573   1.869   5.444   4.050 -1.3756 -0.7920 -0.3017
  864THF     H513574   1.952   5.443   4.210  0.5755 -2.4853  0.3422
  864THF     H613575   1.754   5.148   4.124 -0.4236  1.8668  0.2818
  864THF     H713576   1.875   5.084   4.242  0.4212  0.9204  1.1146
  864THF     C813577   1.761   5.255   4.298  0.2574 -0.3447  0.3099
  864THF     C913578   1.741   5.386   4.218  0.0256  0.2887  0.4455
  864THF    H1013579   1.818   5.283   4.387 -2.8448  2.1678  1.6825
  864THF    H1113580   1.668   5.219   4.341 -1.4140  2.0393 -1.1006
  864THF    H1213581   1.654   5.374   4.155  1.0589  0.4172 -1.0528
  864THF    H1313582   1.713   5.473   4.278 -3.0185 -1.3553  1.6270
  865THF     O113583   3.056   5.350   4.589 -0.8752  0.0032 -0.4171
  865THF     C213584   2.919   5.393   4.577  0.4474 -0.9689 -0.1098
  865THF     C313585   3.058   5.220   4.530  0.3648 -0.0124  0.6247
  865THF     H413586   2.926   5.501   4.584  0.2555 -0.9058 -0.8064
  865THF     H513587   2.864   5.357   4.664  0.6463 -0.7163  0.1230
  865THF     H613588   3.159   5.194   4.499 -0.1686 -0.5457 -0.7591
  865THF     H713589   3.034   5.149   4.609 -0.1958  0.8208  1.2212
  865THF     C813590   2.956   5.222   4.418  0.7399 -0.2367  0.1663
  865THF     C913591   2.869   5.347   4.442 -0.1090 -0.5051 -0.2648
  865THF    H1013592   2.904   5.126   4.409  0.9504 -0.1647 -3.8529
  865THF    H1113593   3.001   5.223   4.318  0.3861 -2.5641 -0.0830
  865THF    H1213594   2.886   5.424   4.367  0.1899 -3.1602 -3.1160
  865THF    H1313595   2.763   5.321   4.449  0.1590 -1.6151 -0.0595
  866THF     O113596   4.186   2.186   1.863 -0.2613  0.1024  0.0196
  866THF     C213597   4.107   2.069   1.886  0.6968  0.2786 -0.3551
  866THF     C313598   4.104   2.284   1.800  0.0661  0.2131 -0.2436
  866THF     H413599   4.041   2.081   1.972  0.6008 -2.0782 -0.0406
  866THF     H513600   4.182   1.994   1.909  1.3163  1.2115  0.7725
  866THF     H613601   4.043   2.335   1.874 -0.5473 -2.6879  1.3977
  866THF     H713602   4.155   2.359   1.740 -1.7000  0.9668 -0.8581
  866THF     C813603   4.029   2.196   1.699 -1.0830  0.1974 -0.2899
  866THF     C913604   4.037   2.054   1.753 -0.0419  0.2544 -0.3613
  866THF    H1013605   4.094   2.189   1.611  1.0155 -2.3012  1.3163
  866THF    H1113606   3.931   2.232   1.668 -0.6255  1.0624 -0.7736
  866THF    H1213607   3.938   2.008   1.758  1.1142 -2.3771 -0.2710
  866THF    H1313608   4.099   1.986   1.694 -0.7560 -1.3368  0.6461
  867THF     O113609   4.649   3.869   3.084 -0.0791 -0.1783  0.3485
  867THF     C213610   4.574   3.931   3.188  0.0238  0.0371 -0.2031
  867THF     C313611   4.788   3.911   3.104 -0.5057  0.0841 -0.4737
  867THF     H413612   4.477   3.883   3.203 -0.6160  1.9123  2.3576
  867THF     H513613   4.560   4.037   3.170  1.3602  0.6437  1.9934
  867THF     H613614   4.861   3.850   3.051  0.1572 -0.3590  0.8892
  867THF     H713615   4.818   4.012   3.078  0.0449  0.4642  1.4298
  867THF     C813616   4.806   3.881   3.247  0.2786  0.0707  0.3046
  867THF     C913617   4.668   3.908   3.312 -0.2634 -0.0659  0.1502
  867THF    H1013618   4.889   3.940   3.286  1.3374 -0.6088 -0.8531
  867THF    H1113619   4.835   3.778   3.269 -1.9915 -1.0674 -1.5580
  867THF    H1213620   4.621   3.833   3.376  0.3573 -0.8055 -0.2304
  867THF    H1313621   4.678   4.003   3.363 -2.6138  0.9571 -1.1454
  868THF     O113622   2.897   2.109   3.124 -0.2453  0.1455  0.0256
  868THF     C213623   2.997   2.003   3.134 -0.4461  0.0553  0.0302
  868THF     C313624   2.962   2.231   3.117 -0.0933  0.4820 -0.3589
  868THF     H413625   2.959   1.910   3.092 -1.7433 -0.4716  2.2347
  868THF     H513626   3.035   1.989   3.236 -1.5059  1.6201  0.6762
  868THF     H613627   2.893   2.286   3.052  0.4092  1.1803 -0.3058
  868THF     H713628   2.964   2.293   3.206 -0.7885 -0.5872  0.4208
  868THF     C813629   3.100   2.214   3.060  0.1638  0.1506  1.0515
  868THF     C913630   3.111   2.064   3.037 -0.0810  0.0556  0.3989
  868THF    H1013631   3.173   2.239   3.138  0.2405  0.7610  0.7928
  868THF    H1113632   3.123   2.263   2.965 -0.7310 -1.2586  0.0648
  868THF    H1213633   3.089   2.037   2.934  1.3477  0.4491 -0.0280
  868THF    H1313634   3.203   2.015   3.067 -0.5817 -2.3176 -1.5912
  869THF     O113635   1.306   4.851   4.037 -0.0603 -0.4287 -0.1945
  869THF     C213636   1.296   4.974   3.958 -0.2716 -0.1324 -0.2183
  869THF     C313637   1.343   4.741   3.951 -0.0197  0.2783 -0.2176
  869THF     H413638   1.389   5.027   3.973  0.2769 -1.3398  0.8567
  869THF     H513639   1.223   5.035   4.011  1.7254  1.4739  0.7906
  869THF     H613640   1.450   4.720   3.957  0.7139  1.3065 -5.2427
  869THF     H713641   1.278   4.655   3.971  0.3397 -0.4364 -1.9606
  869THF     C813642   1.316   4.793   3.809 -0.2028 -0.0450 -0.2404
  869THF     C913643   1.249   4.926   3.825  0.2950  0.0701 -0.1926
  869THF    H1013644   1.270   4.721   3.741  2.1081 -2.5151  0.6013
  869THF    H1113645   1.408   4.806   3.752 -0.3372 -0.4922 -0.5683
  869THF    H1213646   1.270   4.988   3.738 -0.7233  0.3716 -0.2388
  869THF    H1313647   1.141   4.917   3.836  0.0705 -0.6269 -2.4330
  870THF     O113648   0.022   3.247   4.972 -0.0159  0.5279 -0.0836
  870THF     C213649   0.022   3.224   4.833  0.4389  0.3169 -0.0113
  870THF     C313650  -0.106   3.308   4.998  0.1604  0.2589  0.3478
  870THF     H413651   0.099   3.160   4.791 -0.5157  0.6343 -2.3916
  870THF     H513652   0.029   3.322   4.786  0.2897  0.1626 -0.3542
  870THF     H613653  -0.128   3.266   5.096 -1.2453 -1.9304 -0.8265
  870THF     H713654  -0.097   3.416   4.982  0.0795  0.1406 -0.5166
  870THF     C813655  -0.204   3.235   4.898  0.4071 -0.2897 -0.4037
  870THF     C913656  -0.113   3.162   4.801  0.3821 -0.4134 -0.0016
  870THF    H1013657  -0.279   3.291   4.843  2.7256 -0.0342 -3.5895
  870THF    H1113658  -0.258   3.155   4.949  1.6764  0.0604  1.6310
  870THF    H1213659  -0.112   3.053   4.809 -0.2605 -0.5298 -1.3507
  870THF    H1313660  -0.129   3.200   4.701 -0.2658  0.2487  0.3425
  871THF     O113661   2.770   3.001   1.940 -0.2822  0.1846  0.0732
  871THF     C213662   2.739   3.139   1.923  0.7518  0.1458 -0.5712
  871THF     C313663   2.754   2.975   2.076  0.4515 -0.6817  0.2703
  871THF     H413664   2.631   3.146   1.934  0.9844  2.1252  1.1061
  871THF     H513665   2.758   3.173   1.821 -0.7146  0.2781 -0.8246
  871THF     H613666   2.648   2.972   2.100  0.7951 -2.4827  1.7458
  871THF     H713667   2.785   2.874   2.104 -0.7691 -1.2432 -0.3247
  871THF     C813668   2.827   3.091   2.144 -0.3077 -0.1688  0.0867
  871THF     C913669   2.820   3.203   2.040 -0.3470  0.2467 -0.3781
  871THF    H1013670   2.931   3.068   2.166 -0.2677  0.7220  0.8667
  871THF    H1113671   2.775   3.119   2.235 -1.9384 -0.7904 -0.6169
  871THF    H1213672   2.785   3.299   2.080  1.9251  0.6305  0.8788
  871THF    H1313673   2.922   3.225   2.008 -0.4999  1.7137  0.0238
  872THF     O113674   5.233   2.431   0.618  0.0540 -0.1074  0.4738
  872THF     C213675   5.220   2.375   0.739  0.5917 -0.0681 -0.5729
  872THF     C313676   5.368   2.479   0.619  1.3189  0.2539  0.8086
  872THF     H413677   5.129   2.316   0.729 -0.4995  1.5316 -0.6020
  872THF     H513678   5.204   2.456   0.812  2.2518  1.2348 -1.5727
  872THF     H613679   5.403   2.502   0.519  2.5223  1.9074  1.5775
  872THF     H713680   5.378   2.565   0.685  2.4244 -1.4792  3.0002
  872THF     C813681   5.443   2.370   0.683 -0.3907  1.1061  0.1668
  872THF     C913682   5.342   2.287   0.756  0.7940 -0.1171 -0.6578
  872THF    H1013683   5.515   2.417   0.750 -0.0398  0.7382  0.0455
  872THF    H1113684   5.505   2.314   0.614  1.0857  3.1524 -0.2646
  872THF    H1213685   5.344   2.194   0.700  1.1799 -0.7531  0.3648
  872THF    H1313686   5.362   2.265   0.861  0.5613  3.5994  0.2836
  873THF     O113687   0.425   4.773   0.625 -0.2593 -0.0105  0.1784
  873THF     C213688   0.416   4.901   0.557  0.0466  0.4085  0.3090
  873THF     C313689   0.563   4.742   0.640 -0.2361 -0.0694  0.4253
  873THF     H413690   0.410   4.984   0.628 -0.5020  1.0510 -0.4655
  873THF     H513691   0.317   4.909   0.512 -0.6314  2.1750  1.9414
  873THF     H613692   0.592   4.737   0.745 -0.1838 -2.6188  0.3650
  873THF     H713693   0.585   4.646   0.593 -0.3601  0.3382 -0.4921
  873THF     C813694   0.642   4.849   0.560 -0.4311  0.4498  0.8355
  873THF     C913695   0.537   4.898   0.472  0.2125 -0.8036  0.6059
  873THF    H1013696   0.732   4.813   0.512 -1.4485 -2.4238  0.8533
  873THF    H1113697   0.673   4.920   0.636  0.5444  1.4747 -0.4781
  873THF    H1213698   0.552   5.000   0.434 -0.7386 -1.2191 -1.0012
  873THF    H1313699   0.524   4.848   0.376  2.8881  1.4037 -1.0661
  874THF     O113700   2.321   2.338   0.504  0.1147 -0.0080 -0.3639
  874THF     C213701   2.316   2.228   0.417 -0.4314 -0.9143 -0.3543
  874THF     C313702   2.346   2.294   0.642  0.1834  0.0222 -0.5575
  874THF     H413703   2.318   2.265   0.315  1.5093 -1.4574 -0.5536
  874THF     H513704   2.221   2.183   0.442 -2.2459  2.3871 -0.7025
  874THF     H613705   2.376   2.377   0.707  0.0521  0.7679 -1.4224
  874THF     H713706   2.251   2.263   0.686 -0.1738 -0.1620 -1.4507
  874THF     C813707   2.448   2.179   0.616  0.3445 -1.2171 -0.2647
  874THF     C913708   2.437   2.152   0.469  0.5275  0.1782  0.1400
  874THF    H1013709   2.437   2.089   0.677  0.0355 -0.6904  0.4702
  874THF    H1113710   2.549   2.216   0.632 -0.6427  1.6121 -0.1832
  874THF    H1213711   2.525   2.181   0.412 -0.5417 -0.7804 -2.0911
  874THF    H1313712   2.433   2.045   0.452 -2.3761 -0.1624  2.2213
  875THF     O113713   2.303   4.980   0.412  0.4221  0.4429  0.0914
  875THF     C213714   2.338   5.057   0.529  0.2588 -0.7708  0.9081
  875THF     C313715   2.168   4.937   0.420  0.8534  0.2531  0.3566
  875THF     H413716   2.386   5.153   0.508  0.2191 -1.0211 -0.4249
  875THF     H513717   2.398   4.997   0.598  0.6689  1.1772  2.3457
  875THF     H613718   2.128   4.912   0.322 -0.8971 -0.2566  1.1556
  875THF     H713719   2.170   4.841   0.472 -0.0855  0.0029 -0.0532
  875THF     C813720   2.097   5.044   0.503 -0.0584 -0.9059  0.9692
  875THF     C913721   2.206   5.086   0.607 -0.3827  0.2073  0.2396
  875THF    H1013722   2.000   5.026   0.548  0.1727 -1.8439  1.1158
  875THF    H1113723   2.077   5.136   0.449 -0.4786 -2.2864 -1.3659
  875THF    H1213724   2.201   5.188   0.645 -2.4390 -0.4216  1.8514
  875THF    H1313725   2.203   5.021   0.695  1.4394  0.7427  0.7407
  876THF     O113726   0.115   1.627   3.881  0.8370  0.6989 -0.0483
  876THF     C213727   0.192   1.744   3.916  0.6306  0.6028  0.1186
  876THF     C313728  -0.016   1.655   3.923 -0.0495 -0.2364  0.1180
  876THF     H413729   0.241   1.789   3.830  2.2549 -0.6479  0.3343
  876THF     H513730   0.279   1.727   3.980 -0.1451 -1.2641  0.7741
  876THF     H613731  -0.092   1.608   3.860 -0.2739 -1.1228  1.0230
  876THF     H713732  -0.028   1.617   4.024  1.9725  1.7892  1.2168
  876THF     C813733  -0.028   1.805   3.909 -0.1991  0.2555  0.4194
  876THF     C913734   0.096   1.846   3.971  0.4050  0.3460  0.0977
  876THF    H1013735  -0.120   1.838   3.958 -0.5737 -0.0014 -0.1028
  876THF    H1113736  -0.031   1.837   3.805  0.0895  0.9713  0.6229
  876THF    H1213737   0.125   1.950   3.960 -2.6153  1.2450 -0.2241
  876THF    H1313738   0.090   1.829   4.079 -1.9162 -0.5060 -0.1053
  877THF     O113739   3.003   2.613   4.578  0.5580  0.2299 -0.1180
  877THF     C213740   2.942   2.679   4.465  0.1679  0.0991  0.3809
  877THF     C313741   2.900   2.565   4.666 -0.4574  0.4084 -0.1297
  877THF     H413742   2.896   2.603   4.402  1.2588 -1.3206  1.2416
  877THF     H513743   3.006   2.743   4.403  0.7411  0.1177  0.9855
  877THF     H613744   2.841   2.488   4.617  0.0052 -0.6422  0.9132
  877THF     H713745   2.947   2.529   4.758 -0.0211 -0.8182 -0.8169
  877THF     C813746   2.810   2.697   4.667 -0.9987 -0.2902 -0.2161
  877THF     C913747   2.847   2.774   4.541 -0.0390 -0.4045  0.5462
  877THF    H1013748   2.822   2.758   4.756 -2.4463  1.0428 -0.8677
  877THF    H1113749   2.704   2.671   4.664 -1.2529  0.7221 -1.8280
  877THF    H1213750   2.754   2.804   4.493  0.2159 -2.2678 -1.2549
  877THF    H1313751   2.894   2.866   4.574 -0.6950 -0.3666  1.4216
  878THF     O113752   4.011   0.567   2.088  0.5293  0.5636 -0.0157
  878THF     C213753   4.057   0.533   2.218 -0.8035  0.3019  0.4323
  878THF     C313754   4.067   0.481   1.995 -0.0915 -0.1759  0.0366
  878THF     H413755   3.986   0.562   2.296  0.6441 -0.5389  2.1362
  878THF     H513756   4.148   0.585   2.247  0.0903 -0.5983 -0.6966
  878THF     H613757   4.020   0.472   1.897 -0.7331 -0.6172  0.3766
  878THF     H713758   4.170   0.512   1.981 -0.1406  0.4007  0.8812
  878THF     C813759   4.054   0.347   2.071 -0.0801  0.6699  0.2064
  878THF     C913760   4.074   0.382   2.221 -0.5005  0.0878  0.0529
  878THF    H1013761   4.109   0.258   2.043 -0.2229 -0.6100  3.4796
  878THF    H1113762   3.952   0.308   2.064  1.6426 -4.0910 -3.0145
  878THF    H1213763   4.001   0.343   2.292 -1.3759  1.1881 -0.2169
  878THF    H1313764   4.173   0.345   2.248 -1.0634 -2.0116 -0.5896
  879THF     O113765   0.014   4.765   2.421 -0.2845 -0.1258 -0.6315
  879THF     C213766  -0.079   4.836   2.498 -0.2018 -0.2842  1.1306
  879THF     C313767   0.038   4.644   2.485 -0.1048  0.0347  0.1899
  879THF     H413768  -0.175   4.811   2.452  0.6194 -0.3354 -0.6769
  879THF     H513769  -0.061   4.943   2.498 -4.1277  0.5356  1.7709
  879THF     H613770  -0.043   4.572   2.471  0.2259 -0.4198  0.5729
  879THF     H713771   0.129   4.605   2.440  0.5594 -0.3512  1.7996
  879THF     C813772   0.052   4.683   2.628 -0.0811 -0.3570 -0.3154
  879THF     C913773  -0.065   4.784   2.640 -0.9240 -0.5270 -0.3356
  879THF    H1013774   0.144   4.738   2.647 -0.3292  0.0749 -0.3484
  879THF    H1113775   0.035   4.605   2.702 -0.9372 -2.4928 -2.6077
  879THF    H1213776  -0.143   4.715   2.673  0.9653 -2.2001  0.8629
  879THF    H1313777  -0.044   4.852   2.723  1.7427 -0.8630 -0.6529
  880THF     O113778   0.578   0.588   1.033 -1.1658 -0.3227 -0.1896
  880THF     C213779   0.576   0.448   1.061  0.1145 -0.4391  0.0796
  880THF     C313780   0.513   0.614   0.912 -0.0539  0.1755 -0.2672
  880THF     H413781   0.531   0.432   1.159  1.6805 -0.0533  0.8956
  880THF     H513782   0.676   0.405   1.064  0.3151  0.0672  1.3302
  880THF     H613783   0.478   0.716   0.922 -0.1375  0.0347  1.0338
  880THF     H713784   0.580   0.611   0.825  2.1572  3.0902  1.1426
  880THF     C813785   0.415   0.500   0.897 -0.6867 -0.0379  0.3037
  880THF     C913786   0.488   0.384   0.955  0.8788  0.4695 -0.7067
  880THF    H1013787   0.386   0.489   0.792 -0.6423  0.1629  0.2687
  880THF    H1113788   0.326   0.521   0.956  0.5628 -2.1716  3.1576
  880THF    H1213789   0.435   0.303   1.004  0.8708  1.6440  1.3652
  880THF    H1313790   0.547   0.337   0.876 -1.5866 -0.5271 -2.0833
  881THF     O113791   1.629   3.351   3.565 -0.3185  0.2702  0.0531
  881THF     C213792   1.525   3.335   3.653  0.1498  0.4953  0.6207
  881THF     C313793   1.589   3.306   3.435 -0.6055  0.7001 -0.2256
  881THF     H413794   1.527   3.411   3.731  2.5050 -1.5094  2.7026
  881THF     H513795   1.538   3.241   3.707  0.8471  0.2892  0.1095
  881THF     H613796   1.606   3.395   3.374  1.4994  0.6605  0.2149
  881THF     H713797   1.652   3.237   3.379  0.2838  0.9566  0.4408
  881THF     C813798   1.443   3.256   3.439 -0.4298 -0.0094  0.0700
  881THF     C913799   1.398   3.332   3.564 -0.3908 -0.6953  0.2197
  881THF    H1013800   1.436   3.148   3.446  0.5546 -0.0104  1.2654
  881THF    H1113801   1.387   3.282   3.349  2.6421 -0.4936 -2.1212
  881THF    H1213802   1.378   3.430   3.521  1.5852 -0.6430 -0.7227
  881THF    H1313803   1.305   3.301   3.611  0.6788  0.9278  3.7314
  882THF     O113804   0.131   4.578   0.974 -0.3601  0.7769 -0.7709
  882THF     C213805   0.159   4.480   1.073 -0.0128 -0.1219  0.0583
  882THF     C313806   0.257   4.600   0.907  0.4844 -0.5631  0.4157
  882THF     H413807   0.063   4.449   1.114  0.5994 -2.0117  0.1393
  882THF     H513808   0.232   4.510   1.147  0.4895 -0.2160 -0.3940
  882THF     H613809   0.256   4.651   0.811  0.7363 -0.3669  0.5167
  882THF     H713810   0.298   4.680   0.969 -0.9421 -0.5336  1.3828
  882THF     C813811   0.321   4.461   0.905 -0.1694  0.1475 -0.0753
  882THF     C913812   0.224   4.375   0.988  0.3145  0.2616  0.2287
  882THF    H1013813   0.422   4.458   0.944  1.1236  0.8170 -3.0998
  882THF    H1113814   0.330   4.432   0.800 -1.8501 -0.6144 -0.0523
  882THF    H1213815   0.163   4.327   0.912  0.2174 -0.1742  0.5741
  882THF    H1313816   0.272   4.309   1.061  3.4862  2.6963  0.5479
  883THF     O113817   1.254   5.335   0.691 -0.1900 -0.5064  0.3415
  883THF     C213818   1.209   5.202   0.665  0.1295 -0.4278 -0.2695
  883THF     C313819   1.161   5.424   0.639  0.5934  0.3010  0.0992
  883THF     H413820   1.135   5.183   0.742  2.7730 -0.6599  2.4021
  883THF     H513821   1.283   5.123   0.678  1.3938  1.0288  2.2476
  883THF     H613822   1.083   5.433   0.714  0.0122 -0.2390 -0.4339
  883THF     H713823   1.202   5.525   0.628 -0.3755  1.0822  2.7990
  883THF     C813824   1.119   5.362   0.504 -0.1950 -0.4735  0.1854
  883THF     C913825   1.149   5.213   0.522 -0.2762 -0.1165  0.0610
  883THF    H1013826   1.183   5.389   0.420 -2.2370  4.0772 -0.2323
  883THF    H1113827   1.022   5.400   0.474  0.9216  1.1687 -1.6136
  883THF    H1213828   1.054   5.160   0.520  0.0893 -0.8808  1.4372
  883THF    H1313829   1.213   5.159   0.452 -1.1739 -0.8679 -0.1898
  884THF     O113830   4.318   2.586   1.816  0.0748 -0.3708  0.3650
  884THF     C213831   4.251   2.694   1.752 -0.0140  0.1255 -0.0169
  884THF     C313832   4.416   2.552   1.727 -0.1291  0.8563 -0.8574
  884THF     H413833   4.296   2.790   1.777 -1.3073  0.3889  1.4532
  884THF     H513834   4.150   2.692   1.793  1.0795 -0.8448  2.8626
  884THF     H613835   4.503   2.618   1.733  0.2202  0.3369  0.0985
  884THF     H713836   4.455   2.455   1.759 -0.7369  1.0984  0.6962
  884THF     C813837   4.354   2.553   1.588 -0.0669 -0.4089  0.2772
  884THF     C913838   4.259   2.668   1.600  0.2249 -0.6428 -0.8375
  884THF    H1013839   4.307   2.460   1.555  2.2478 -1.1322 -1.2101
  884THF    H1113840   4.430   2.564   1.511 -0.8959 -2.0169 -0.8344
  884THF    H1213841   4.300   2.750   1.541  0.2788 -1.8034 -2.4927
  884THF    H1313842   4.164   2.660   1.548  0.7380  0.7825 -2.0717
  885THF     O113843   1.287   0.732   5.411  0.6371  0.5788  0.3099
  885THF     C213844   1.234   0.609   5.453  0.1104  0.3653 -0.1325
  885THF     C313845   1.176   0.797   5.345 -0.3684 -0.0568 -0.4540
  885THF     H413846   1.188   0.617   5.551  2.5642  3.5348  0.9571
  885THF     H513847   1.314   0.536   5.461 -1.0728 -1.0279 -0.7327
  885THF     H613848   1.117   0.847   5.422 -0.0535 -1.5497  0.7978
  885THF     H713849   1.218   0.883   5.293  1.8040 -0.6887  0.1753
  885THF     C813850   1.099   0.693   5.272  1.1748  0.1685 -0.2552
  885THF     C913851   1.155   0.570   5.334 -0.3932  0.3702 -0.0569
  885THF    H1013852   1.114   0.703   5.165  2.2380  0.4892 -0.0813
  885THF    H1113853   0.991   0.711   5.278  0.9611  0.0538 -2.9023
  885THF    H1213854   1.085   0.490   5.361  0.8429 -0.0822  2.0383
  885THF    H1313855   1.228   0.530   5.264  1.5827  2.3499  0.7749
  886THF     O113856   3.180   1.294   2.244 -0.1696  0.0858 -0.5399
  886THF     C213857   3.292   1.325   2.165 -0.4871  0.2963 -0.0639
  886THF     C313858   3.219   1.207   2.349 -0.1547  0.5985  0.1230
  886THF     H413859   3.278   1.401   2.088 -0.3894  0.2724 -0.1050
  886THF     H513860   3.318   1.235   2.110  0.9944  0.4650  0.3172
  886THF     H613861   3.143   1.211   2.427  0.4493  1.0129  0.7033
  886THF     H713862   3.216   1.105   2.311 -1.6854  0.5290  0.3674
  886THF     C813863   3.356   1.262   2.390  0.0141  0.0796  0.1491
  886THF     C913864   3.394   1.351   2.270  0.0944  0.7443 -0.5626
  886THF    H1013865   3.428   1.181   2.395  0.4234  0.2730 -1.8268
  886THF    H1113866   3.365   1.318   2.484  0.0086 -1.6205  1.1994
  886THF    H1213867   3.395   1.455   2.300  0.6504 -0.1463  2.9869
  886THF    H1313868   3.495   1.334   2.230 -0.4197 -1.0054 -1.2133
  887THF     O113869   0.231   5.148   4.036 -0.7780  0.1550  0.7047
  887THF     C213870   0.165   5.192   4.155 -0.6859 -0.4655  0.0738
  887THF     C313871   0.301   5.259   3.988 -0.1033 -0.4095  0.2264
  887THF     H413872   0.229   5.216   4.241 -0.3640 -1.9246  0.2715
  887THF     H513873   0.094   5.118   4.192  0.5746 -1.7664  0.0169
  887THF     H613874   0.390   5.285   4.045 -0.8642  0.6652  0.9601
  887THF     H713875   0.339   5.234   3.888  2.3287  0.3446  0.8744
  887THF     C813876   0.193   5.375   3.998 -0.3290  0.1382 -0.7541
  887THF     C913877   0.089   5.310   4.088  0.8078 -0.7915  0.3288
  887THF    H1013878   0.153   5.406   3.901 -0.4988  0.3096 -0.6320
  887THF    H1113879   0.247   5.458   4.043 -0.0991 -1.9838  3.3461
  887THF    H1213880   0.058   5.386   4.159 -0.2254 -0.0019 -0.9172
  887THF    H1313881   0.001   5.275   4.033 -0.1798 -2.7827  2.9679
  888THF     O113882   4.261   3.240   5.281 -0.3302  0.1407  0.1661
  888THF     C213883   4.197   3.144   5.358 -0.5312 -0.1725  0.0725
  888THF     C313884   4.396   3.237   5.321 -0.3474 -0.5550 -0.4468
  888THF     H413885   4.097   3.123   5.322  0.4611 -4.0995 -0.9071
  888THF     H513886   4.180   3.177   5.461 -3.6413  0.4142 -0.5350
  888THF     H613887   4.464   3.289   5.253 -0.4362  1.7475  1.1084
  888THF     H713888   4.407   3.281   5.419 -0.6309  0.3075 -0.7931
  888THF     C813889   4.436   3.090   5.338 -0.1611 -0.5181  0.0781
  888THF     C913890   4.297   3.027   5.354  0.2190  0.1719  0.0832
  888THF    H1013891   4.493   3.073   5.429 -0.7269  1.5482  0.8842
  888THF    H1113892   4.496   3.054   5.254  0.0137  0.3915 -0.2042
  888THF    H1213893   4.256   2.974   5.268 -0.1555  1.5234 -0.5963
  888THF    H1313894   4.293   2.958   5.438  1.8369  0.3782  0.3697
  889THF     O113895   0.807   1.513   2.405 -0.0187 -0.1777 -0.1003
  889THF     C213896   0.854   1.585   2.518  0.3507  0.3197 -0.2283
  889THF     C313897   0.851   1.383   2.434 -0.3436 -0.5128  0.0317
  889THF     H413898   0.802   1.565   2.612  1.2467  2.9725  0.9283
  889THF     H513899   0.864   1.692   2.500  2.7708  0.1309 -0.3561
  889THF     H613900   0.781   1.341   2.506 -2.2067  0.4230 -1.1654
  889THF     H713901   0.840   1.321   2.344 -0.7444 -0.4648  0.0482
  889THF     C813902   0.985   1.392   2.508 -0.6671  0.0722  0.2155
  889THF     C913903   0.990   1.534   2.535  0.2730  0.1254  0.0452
  889THF    H1013904   1.053   1.354   2.432 -0.3790  1.9726 -0.5239
  889THF    H1113905   0.986   1.328   2.596  1.3741  0.6847  0.6722
  889THF    H1213906   1.038   1.549   2.631  0.9355 -1.0554 -0.0876
  889THF    H1313907   1.055   1.578   2.459  1.0936  1.4381  1.4594
  890THF     O113908   0.492   1.107   5.493  0.1811  0.4285  0.2266
  890THF     C213909   0.349   1.110   5.517 -0.4018 -0.2433  0.1613
  890THF     C313910   0.527   1.045   5.372 -0.3776 -0.0028 -0.0365
  890THF     H413911   0.310   1.211   5.504  0.7159  0.0833 -0.8777
  890THF     H513912   0.331   1.074   5.618  1.9038 -2.4036 -0.1016
  890THF     H613913   0.511   1.115   5.291 -0.7137  0.6785  0.6101
  890THF     H713914   0.629   1.007   5.365 -0.4232 -0.4670  1.3584
  890THF     C813915   0.419   0.941   5.360 -0.4057 -0.1132  0.2804
  890THF     C913916   0.297   1.018   5.400 -0.0095 -0.8244 -0.0330
  890THF    H1013917   0.435   0.857   5.428 -2.3306 -0.8038 -0.0348
  890THF    H1113918   0.416   0.913   5.255  0.2809  0.1573  0.1838
  890THF    H1213919   0.268   1.069   5.308  0.5332  0.1763  0.3298
  890THF    H1313920   0.217   0.962   5.448 -1.1432  3.0340  3.1946
  891THF     O113921   3.458   4.974   2.766 -0.5887 -0.0299  0.5106
  891THF     C213922   3.408   5.056   2.664 -0.8802 -0.4062 -0.3006
  891THF     C313923   3.603   4.981   2.752  0.1446  0.3386  0.1807
  891THF     H413924   3.300   5.056   2.678 -0.8449 -1.7530  0.1193
  891THF     H513925   3.421   5.015   2.564  0.0232  2.5712 -1.5162
  891THF     H613926   3.653   4.944   2.842  0.4943 -1.6088 -0.7577
  891THF     H713927   3.639   4.922   2.667  0.3407  2.2478 -1.1068
  891THF     C813928   3.625   5.130   2.732 -0.1602  0.0897 -0.2375
  891THF     C913929   3.495   5.181   2.683 -0.5366 -0.4593  0.4769
  891THF    H1013930   3.702   5.160   2.660 -2.4261 -0.3856 -3.0563
  891THF    H1113931   3.651   5.178   2.826  0.5737 -1.3331  0.3020
  891THF    H1213932   3.455   5.233   2.770 -0.3621 -0.8670  0.8030
  891THF    H1313933   3.498   5.242   2.593  0.9692 -1.0325  0.1133
  892THF     O113934   3.634   1.601   1.189 -0.7084  0.1628 -0.3220
  892THF     C213935   3.634   1.493   1.275  0.3033  0.1039  0.6313
  892THF     C313936   3.500   1.629   1.148  0.8538 -0.3814 -0.7610
  892THF     H413937   3.709   1.505   1.354 -0.2450 -2.6274  1.7011
  892THF     H513938   3.659   1.404   1.218  0.1692  0.3605  0.1747
  892THF     H613939   3.480   1.727   1.191 -1.4828 -1.1414  0.0582
  892THF     H713940   3.502   1.638   1.040  1.7261  0.7811 -0.6693
  892THF     C813941   3.419   1.520   1.206  0.1710  0.4709  0.9082
  892THF     C913942   3.490   1.492   1.333 -0.0057 -0.6112 -0.3273
  892THF    H1013943   3.415   1.432   1.142  1.4899  0.6127  0.5872
  892THF    H1113944   3.317   1.550   1.229 -0.1725 -0.3163  0.4529
  892THF    H1213945   3.475   1.568   1.409  1.0282 -0.0433 -0.6671
  892THF    H1313946   3.481   1.387   1.362 -0.5527 -0.6047 -0.4622
  893THF     O113947   0.140   2.851   5.189 -0.4701  0.1469  0.1681
  893THF     C213948   0.070   2.739   5.244  0.4992 -0.6375 -0.4191
  893THF     C313949   0.102   2.871   5.048 -0.2811 -0.4143 -0.3325
  893THF     H413950   0.048   2.738   5.351  0.9768  1.1592 -0.2737
  893THF     H513951   0.124   2.645   5.237  0.0110 -0.8926 -0.9427
  893THF     H613952   0.142   2.968   5.017 -2.2823  1.6249  2.9126
  893THF     H713953   0.127   2.782   4.989 -2.7973 -0.6101 -1.2338
  893THF     C813954  -0.047   2.853   5.055 -0.0866 -0.2958 -0.4096
  893THF     C913955  -0.069   2.744   5.171 -0.0616  0.1459 -0.6647
  893THF    H1013956  -0.090   2.816   4.962  2.2592 -1.2714 -1.1692
  893THF    H1113957  -0.098   2.949   5.065 -0.9260 -0.7845  0.0941
  893THF    H1213958  -0.152   2.777   5.233 -0.5582  0.5454 -1.5274
  893THF    H1313959  -0.088   2.647   5.126  1.0123 -0.6321  0.4754
  894THF     O113960   2.507   5.435   5.098  0.0127  0.1654  0.1418
  894THF     C213961   2.578   5.404   5.214 -0.3565  0.3158 -0.2401
  894THF     C313962   2.387   5.358   5.086 -0.0338  0.3410 -0.5834
  894THF     H413963   2.558   5.469   5.298  2.5692  1.0471  0.0005
  894THF     H513964   2.687   5.409   5.213 -0.3878  1.1684 -0.8849
  894THF     H613965   2.309   5.379   5.159  2.1134 -0.1053  2.0050
  894THF     H713966   2.349   5.344   4.985 -0.3940  1.1045 -0.5628
  894THF     C813967   2.453   5.227   5.124 -0.7440  0.0457  0.1746
  894THF     C913968   2.541   5.266   5.238 -0.1520 -0.2173  0.1113
  894THF    H1013969   2.519   5.183   5.049  0.2299 -0.1259  1.1032
  894THF    H1113970   2.387   5.146   5.156  0.1864 -0.7845  0.0458
  894THF    H1213971   2.484   5.276   5.331  0.4460 -0.7089  0.5359
  894THF    H1313972   2.631   5.206   5.250 -0.7891 -0.9746  1.2295
  895THF     O113973   0.242   4.515   1.678  0.9185  0.0983  0.2041
  895THF     C213974   0.097   4.511   1.689 -0.7717 -0.0023 -0.3486
  895THF     C313975   0.268   4.641   1.614 -0.2985 -0.1554  0.1028
  895THF     H413976   0.042   4.443   1.754 -0.0460 -0.2371  0.0322
  895THF     H513977   0.057   4.482   1.592 -0.8181  0.6645 -0.5328
  895THF     H613978   0.372   4.671   1.627 -0.7735  1.7625 -0.1507
  895THF     H713979   0.238   4.647   1.510 -0.6070  1.8784  0.2671
  895THF     C813980   0.183   4.736   1.705 -0.1758  1.1551 -0.2870
  895THF     C913981   0.057   4.651   1.737 -0.3123  0.2134 -0.0279
  895THF    H1013982   0.166   4.831   1.655 -2.1316  0.5058 -0.9382
  895THF    H1113983   0.244   4.755   1.793  0.7430 -2.4555  0.0452
  895THF    H1213984   0.051   4.658   1.845  1.4274 -0.8330  0.1728
  895THF    H1313985  -0.034   4.685   1.688 -0.2055 -2.3976 -2.3033
  896THF     O113986   4.064   4.386   3.825  0.3831  0.2816 -0.2228
  896THF     C213987   4.141   4.500   3.814  0.5694  0.6029  0.4701
  896THF     C313988   3.925   4.411   3.825  0.0567  0.5862 -0.1736
  896THF     H413989   4.240   4.459   3.794  0.5646  0.2277  1.1888
  896THF     H513990   4.143   4.562   3.904 -0.9618  1.7778 -0.2652
  896THF     H613991   3.861   4.326   3.805  0.8293 -0.1441  0.3700
  896THF     H713992   3.893   4.460   3.917 -1.7259 -0.9727  0.1052
  896THF     C813993   3.917   4.522   3.721  0.4209 -0.5037 -0.0272
  896THF     C913994   4.063   4.563   3.697 -0.5961  0.7344  0.1201
  896THF    H1013995   3.861   4.606   3.762  0.6035 -0.9601  1.2022
  896THF    H1113996   3.866   4.482   3.633 -0.1551  0.1595 -0.0046
  896THF    H1213997   4.109   4.515   3.610 -0.9019 -3.7214  2.1725
  896THF    H1313998   4.070   4.672   3.699  0.0875  0.7801 -2.0041
  897THF     O113999   1.540   4.975   5.186  0.1669  0.6104  0.2514
  897THF     C214000   1.505   4.986   5.047 -0.0555 -0.0241 -0.1740
  897THF     C314001   1.535   4.840   5.229  0.1287 -0.7710 -0.4619
  897THF     H414002   1.591   4.958   4.985  0.7493 -2.7974  1.9993
  897THF     H514003   1.468   5.085   5.022  1.0857  0.4964  0.1204
  897THF     H614004   1.625   4.783   5.202 -0.2329 -1.1337 -0.9303
  897THF     H714005   1.525   4.834   5.337 -0.4370  1.0764 -0.3820
  897THF     C814006   1.402   4.792   5.167 -0.0861  0.3534  0.3380
  897THF     C914007   1.396   4.878   5.034  0.0435 -0.3364  0.7365
  897THF    H1014008   1.321   4.816   5.237 -0.9070  1.2388 -0.8605
  897THF    H1114009   1.400   4.684   5.157  0.3571  0.3652  0.1062
  897THF    H1214010   1.410   4.822   4.942 -0.7893 -0.8250  0.8950
  897THF    H1314011   1.298   4.926   5.039 -0.2901 -1.0778  2.1060
  898THF     O114012   2.769   4.810   1.260  0.4263 -0.7693 -0.2509
  898THF     C214013   2.813   4.950   1.267 -0.0298  0.2964 -0.5512
  898THF     C314014   2.869   4.733   1.210 -0.2508  0.1306 -0.4875
  898THF     H414015   2.748   5.006   1.333  0.9957 -0.4620  1.1800
  898THF     H514016   2.818   4.988   1.165  1.2595 -2.0546 -1.4520
  898THF     H614017   2.859   4.632   1.248  0.2825 -0.6448 -2.3153
  898THF     H714018   2.874   4.724   1.102  1.6475  1.2884 -0.5469
  898THF     C814019   2.995   4.793   1.263 -0.2011 -0.2453 -0.4859
  898THF     C914020   2.961   4.934   1.302  0.0718  0.4098 -0.0635
  898THF    H1014021   3.084   4.777   1.204 -0.4316 -0.2524 -0.8332
  898THF    H1114022   3.024   4.741   1.355  0.0377  0.5669 -0.0935
  898THF    H1214023   2.985   4.959   1.405  0.1903  0.0882 -0.0115
  898THF    H1314024   3.018   5.004   1.240  0.7000 -0.2183 -0.2116
  899THF     O114025   3.527   2.075   0.429 -0.5328  0.0007 -0.0261
  899THF     C214026   3.651   2.145   0.428 -0.4809 -0.7419 -0.0918
  899THF     C314027   3.455   2.138   0.321 -0.0320  0.0107 -0.4416
  899THF     H414028   3.712   2.122   0.341 -0.3285  1.0982 -0.5190
  899THF     H514029   3.702   2.123   0.522 -0.8061  0.4605  0.3897
  899THF     H614030   3.465   2.073   0.234 -0.7131  0.4591 -0.8703
  899THF     H714031   3.350   2.143   0.351 -0.2192  0.5875 -1.1645
  899THF     C814032   3.508   2.283   0.305 -0.6349  0.2536 -0.2715
  899THF     C914033   3.604   2.291   0.424  0.3545 -0.0474 -0.1743
  899THF    H1014034   3.431   2.360   0.303  0.2244  1.1845  0.9849
  899THF    H1114035   3.565   2.283   0.213  0.2876 -0.2722  0.2807
  899THF    H1214036   3.672   2.376   0.430  0.2984  0.0302 -0.5975
  899THF    H1314037   3.540   2.309   0.511  1.1787 -2.4171  0.9833
  900THF     O114038   4.083   2.102   2.412 -0.0934 -0.3289  0.4625
  900THF     C214039   4.043   2.040   2.287 -0.0237 -0.1133  0.0482
  900THF     C314040   4.177   2.007   2.465 -1.2283  0.2752  0.1170
  900THF     H414041   4.088   2.089   2.201 -1.8081 -0.8171 -1.3834
  900THF     H514042   3.936   2.064   2.289  0.4237  1.9274  1.1081
  900THF     H614043   4.269   2.004   2.407 -1.7821 -3.4151 -0.8476
  900THF     H714044   4.205   2.027   2.568  1.3459  0.2071 -0.5102
  900THF     C814045   4.110   1.865   2.441 -0.2518 -0.5994  0.3492
  900THF     C914046   4.068   1.885   2.298  0.0422 -0.4790  0.3552
  900THF    H1014047   4.021   1.852   2.503 -0.4651 -0.4413  0.0816
  900THF    H1114048   4.179   1.781   2.441  3.4867  2.1644 -2.0067
  900THF    H1214049   4.154   1.852   2.240  0.0422  0.4222 -0.1900
  900THF    H1314050   3.984   1.821   2.269 -0.9415  0.8476  0.1782
  901THF     O114051   1.641   2.776   0.276 -0.3037 -0.0519  0.6735
  901THF     C214052   1.507   2.760   0.256  0.7267  0.4960 -0.0772
  901THF     C314053   1.691   2.852   0.162  0.3694 -0.5697  0.2276
  901THF     H414054   1.452   2.814   0.332 -3.4164 -1.7232 -1.1914
  901THF     H514055   1.489   2.652   0.261 -2.4407  0.8684 -1.0821
  901THF     H614056   1.784   2.900   0.196  0.4542  0.6308 -1.5509
  901THF     H714057   1.729   2.781   0.089 -0.5196 -0.0272 -0.7873
  901THF     C814058   1.575   2.927   0.109  0.5451  0.6567 -0.5585
  901THF     C914059   1.469   2.816   0.119  0.2486 -0.4259 -0.1322
  901THF    H1014060   1.589   2.958   0.006  0.8480  0.2282 -0.6478
  901THF    H1114061   1.545   3.009   0.174 -2.3765 -0.5650 -0.1643
  901THF    H1214062   1.369   2.859   0.108  0.9977  0.8561 -3.3027
  901THF    H1314063   1.484   2.746   0.037 -0.5486  0.1803 -0.8308
  902THF     O114064   5.160   3.503   4.485 -0.2829  0.2840  0.0089
  902THF     C214065   5.047   3.432   4.535  1.1119 -0.0809  0.1508
  902THF     C314066   5.187   3.621   4.561  0.3462 -0.0125 -0.5209
  902THF     H414067   5.069   3.327   4.554 -0.8043 -0.8210 -1.3949
  902THF     H514068   4.969   3.437   4.460 -0.8814  0.2596  2.1201
  902THF     H614069   5.251   3.581   4.640 -0.1332 -1.0239 -0.6283
  902THF     H714070   5.224   3.696   4.492  1.3127  0.7105  0.7495
  902THF     C814071   5.054   3.639   4.645 -0.4405  0.2290 -0.3455
  902THF     C914072   5.015   3.500   4.668  0.5973  0.0303 -0.3719
  902THF    H1014073   4.975   3.687   4.587 -0.6063 -2.3734 -2.4902
  902THF    H1114074   5.062   3.685   4.743 -1.5068 -0.2877  0.0034
  902THF    H1214075   5.071   3.456   4.751  1.0455 -0.8205 -1.1033
  902THF    H1314076   4.909   3.498   4.693  0.5957  0.7664 -0.3234
  903THF     O114077   0.417   3.344   0.464 -0.3359  0.0903 -0.3503
  903THF     C214078   0.393   3.201   0.461 -0.5855 -0.2798 -0.3175
  903THF     C314079   0.303   3.408   0.514  0.6796  0.6662  0.0090
  903THF     H414080   0.407   3.149   0.556  0.9686 -1.1726 -0.9998
  903THF     H514081   0.469   3.152   0.400  0.6781  0.2717  0.7589
  903THF     H614082   0.296   3.406   0.622 -0.2861  2.0766  0.0066
  903THF     H714083   0.299   3.510   0.475 -0.8889  0.4529 -0.4482
  903THF     C814084   0.185   3.320   0.461 -0.3514 -0.4472  0.2224
  903THF     C914085   0.246   3.191   0.420 -0.4872 -0.0712  0.0279
  903THF    H1014086   0.137   3.363   0.373  0.9555  0.6293  0.0050
  903THF    H1114087   0.115   3.310   0.544  0.6267  0.2536  1.1547
  903THF    H1214088   0.196   3.108   0.470 -1.9087 -0.0343 -1.2358
  903THF    H1314089   0.240   3.175   0.312 -0.3428 -2.6426  0.3517
  904THF     O114090   2.571   4.228   0.059 -0.0438  0.7414 -0.4509
  904THF     C214091   2.712   4.248   0.029  0.0026  0.0461 -0.6154
  904THF     C314092   2.562   4.204   0.195 -0.8803 -0.2820  0.7543
  904THF     H414093   2.719   4.300  -0.067  0.5530 -1.4095 -1.3972
  904THF     H514094   2.760   4.152   0.011  0.7961  0.3400 -0.0657
  904THF     H614095   2.457   4.216   0.219 -1.2367 -1.3553 -0.1806
  904THF     H714096   2.591   4.106   0.233  2.1203  0.9616  1.9917
  904THF     C814097   2.655   4.309   0.249 -0.2857  0.6791 -0.8645
  904THF     C914098   2.759   4.336   0.142  0.3129 -0.0261  0.3228
  904THF    H1014099   2.695   4.275   0.345  0.8353  2.0164 -0.8196
  904THF    H1114100   2.604   4.404   0.267 -0.3547  0.6340 -0.8229
  904THF    H1214101   2.768   4.441   0.116 -0.1008 -0.1519 -0.3442
  904THF    H1314102   2.854   4.302   0.182  1.5906  0.3050 -2.2699
  905THF     O114103   3.012   3.939   2.277  0.0605 -0.2744  0.3459
  905THF     C214104   3.045   3.801   2.316 -0.0964  0.2529  0.6144
  905THF     C314105   3.127   4.021   2.313  0.1649  0.1318 -0.3039
  905THF     H414106   2.976   3.726   2.277  0.4631 -0.5876  1.1831
  905THF     H514107   3.031   3.805   2.424 -1.6901  0.3074  0.4266
  905THF     H614108   3.129   4.119   2.266  0.2062  0.1065 -0.3548
  905THF     H714109   3.123   4.045   2.419 -1.2574 -1.9137  0.1676
  905THF     C814110   3.249   3.937   2.278  0.2626  0.6474 -0.2003
  905THF     C914111   3.191   3.794   2.265 -0.6471  0.1097  0.6668
  905THF    H1014112   3.325   3.950   2.355  0.8283  2.4509 -1.0023
  905THF    H1114113   3.288   3.974   2.183  1.0832 -1.3022 -0.6799
  905THF    H1214114   3.198   3.762   2.161 -1.1355  1.8768  0.0569
  905THF    H1314115   3.242   3.718   2.325 -0.8394 -2.0697 -1.7753
  906THF     O114116   2.651   1.485   1.354 -0.1554  0.2995 -0.0628
  906THF     C214117   2.597   1.588   1.431  0.2995  0.8558 -0.5445
  906THF     C314118   2.726   1.534   1.245 -0.4047 -0.1583  0.6361
  906THF     H414119   2.631   1.556   1.530  0.1807 -4.4309 -1.9255
  906THF     H514120   2.490   1.608   1.439  0.2411  0.5903 -0.6775
  906THF     H614121   2.807   1.469   1.210 -2.2416 -0.6080 -3.3658
  906THF     H714122   2.668   1.548   1.154  0.6674  2.3153  0.2554
  906THF     C814123   2.779   1.666   1.304 -0.0215  0.6889 -0.1015
  906THF     C914124   2.674   1.715   1.393  0.9113  0.6186  0.6771
  906THF    H1014125   2.802   1.735   1.223 -2.0587 -1.9536 -3.1416
  906THF    H1114126   2.864   1.638   1.367 -1.5121 -0.7970  1.3232
  906THF    H1214127   2.710   1.767   1.481  1.0254  1.4340  0.1552
  906THF    H1314128   2.616   1.778   1.326  2.9328  0.4324 -1.4071
  907THF     O114129   5.438   3.860   1.433  0.3996  0.3181 -0.1316
  907THF     C214130   5.542   3.867   1.338  0.4132 -1.1603  0.1701
  907THF     C314131   5.314   3.897   1.370 -0.6951  0.1167 -0.1669
  907THF     H414132   5.548   3.785   1.268  1.8856 -0.5531 -0.4539
  907THF     H514133   5.637   3.855   1.390  0.3992 -0.6542  0.3233
  907THF     H614134   5.283   3.817   1.302 -1.2999  1.9922 -2.2208
  907THF     H714135   5.224   3.912   1.430 -0.5188  0.0543  0.1137
  907THF     C814136   5.365   4.022   1.291  0.1859  0.1837  0.7903
  907THF     C914137   5.518   3.994   1.259 -0.0202 -0.6604  0.3191
  907THF    H1014138   5.354   4.115   1.345 -0.3004  0.9105 -0.5192
  907THF    H1114139   5.296   4.041   1.209 -1.7942 -1.4712  1.9723
  907THF    H1214140   5.544   3.971   1.155  0.3662  0.8827  0.0447
  907THF    H1314141   5.580   4.079   1.288  0.2550 -0.6083 -0.4088
  908THF     O114142   1.598   4.430   5.476  0.1048 -0.1667 -0.1522
  908THF     C214143   1.695   4.531   5.463 -0.3288  0.1357  0.0212
  908THF     C314144   1.636   4.309   5.404  0.3681  0.2444 -0.2386
  908THF     H414145   1.777   4.513   5.532  1.4418  2.0142 -1.4746
  908THF     H514146   1.641   4.624   5.476  0.5405  0.5202  0.9751
  908THF     H614147   1.708   4.257   5.468  2.8435  1.6867 -1.7018
  908THF     H714148   1.551   4.254   5.364 -1.8036  1.4611  2.3460
  908THF     C814149   1.711   4.372   5.286 -0.2046 -0.9208  0.4632
  908THF     C914150   1.730   4.520   5.316 -0.6406  0.7856  0.2097
  908THF    H1014151   1.647   4.372   5.198 -0.2757  0.3786  0.4981
  908THF    H1114152   1.803   4.318   5.262  1.6767  2.2191  0.0870
  908THF    H1214153   1.825   4.556   5.276 -1.0336  1.2014 -0.3715
  908THF    H1314154   1.659   4.579   5.259  0.2389  0.9353 -0.7703
  909THF     O114155   3.779   1.188   3.187  0.1138 -0.3316 -0.1211
  909THF     C214156   3.653   1.127   3.225 -0.4986 -0.2408  0.6541
  909THF     C314157   3.746   1.295   3.100 -0.4586  0.4689  0.1826
  909THF     H414158   3.655   1.069   3.317 -0.4092 -0.9207  0.2304
  909THF     H514159   3.623   1.051   3.153  0.5692 -0.4688  0.4381
  909THF     H614160   3.822   1.372   3.095  1.3826 -1.3320 -1.6829
  909THF     H714161   3.748   1.253   3.000 -0.5115  1.5713 -0.2822
  909THF     C814162   3.607   1.352   3.150 -0.4155 -0.2056  0.0900
  909THF     C914163   3.555   1.247   3.237  0.1634  1.3128  0.5986
  909THF    H1014164   3.537   1.378   3.070 -1.3386  0.0612  0.9613
  909THF    H1114165   3.620   1.443   3.209 -1.2041  2.2494 -3.2340
  909THF    H1214166   3.555   1.272   3.343  0.8679  0.3894  0.8358
  909THF    H1314167   3.452   1.220   3.214 -0.4717  2.5062  1.8718
  910THF     O114168   0.688   0.028   2.929 -0.2575 -0.0776  0.7187
  910THF     C214169   0.635   0.006   3.050 -0.1342 -0.3984 -0.8336
  910THF     C314170   0.801  -0.061   2.916 -0.4909  0.2676 -0.1008
  910THF     H414171   0.568  -0.079   3.058  0.7665 -1.0962 -0.5591
  910THF     H514172   0.577   0.092   3.083  1.5474 -0.1139  1.6553
  910THF     H614173   0.778  -0.166   2.897  0.3790 -1.0426  4.6309
  910THF     H714174   0.879  -0.033   2.846  0.3705  0.3387  0.8611
  910THF     C814175   0.854  -0.081   3.062 -0.1643 -0.4318  0.4337
  910THF     C914176   0.759   0.004   3.137  0.1739  0.0738 -0.2925
  910THF    H1014177   0.958  -0.057   3.081 -0.3179 -0.1290  0.9125
  910THF    H1114178   0.838  -0.184   3.095  1.5367 -1.2606 -1.1758
  910THF    H1214179   0.746  -0.036   3.238  1.7376 -0.2933 -0.2187
  910THF    H1314180   0.811   0.099   3.145  2.8706 -1.4026  0.6990
  911THF     O114181   2.799   4.952   2.219  0.1177  0.6375 -0.2782
  911THF     C214182   2.863   4.994   2.104 -0.4043  0.5826  0.0514
  911THF     C314183   2.892   4.968   2.334  0.5913  0.5150  0.2400
  911THF     H414184   2.826   5.086   2.059 -1.9306  0.0397  0.1372
  911THF     H514185   2.856   4.917   2.027  2.8174 -0.0413  0.2459
  911THF     H614186   2.835   5.028   2.405 -0.1979 -1.1916  1.1236
  911THF     H714187   2.912   4.871   2.381 -0.9920  0.0319 -0.0354
  911THF     C814188   3.014   5.048   2.283 -0.6083  0.4278 -0.2676
  911THF     C914189   3.013   5.007   2.140 -0.0049  0.0319  0.3654
  911THF    H1014190   3.104   5.002   2.323 -0.8592 -1.1931 -1.4501
  911THF    H1114191   3.021   5.156   2.292  1.0315  0.5139 -1.9794
  911THF    H1214192   3.050   5.093   2.084 -3.1125  1.3515  0.1733
  911THF    H1314193   3.055   4.909   2.119  0.7214  0.2738  0.6479
  912THF     O114194   0.626   1.822   4.509  0.1320  0.2260  0.1386
  912THF     C214195   0.693   1.921   4.577  0.2863 -0.3612  0.1097
  912THF     C314196   0.646   1.696   4.575  0.4264  0.3379  0.3688
  912THF     H414197   0.651   1.964   4.668 -1.9840 -1.3817 -0.4001
  912THF     H514198   0.728   1.999   4.509  1.1087  0.5969  1.5660
  912THF     H614199   0.551   1.668   4.620 -0.1187 -0.2826 -1.0868
  912THF     H714200   0.679   1.626   4.498  2.1886 -0.8918  2.1356
  912THF     C814201   0.757   1.722   4.674 -0.7266 -0.6676  0.4247
  912THF     C914202   0.817   1.852   4.625 -0.3026  0.2624  0.6764
  912THF    H1014203   0.831   1.643   4.684 -1.2560 -1.4739 -1.5124
  912THF    H1114204   0.719   1.742   4.774  0.3174 -1.2947  0.9643
  912THF    H1214205   0.876   1.889   4.709 -0.4004  2.0695 -0.0115
  912THF    H1314206   0.887   1.835   4.543 -0.6537 -1.5635  0.7233
  913THF     O114207   4.499   2.400   3.618 -0.0831  0.3436  0.1181
  913THF     C214208   4.603   2.490   3.650 -0.2559  0.5708  0.5886
  913THF     C314209   4.389   2.403   3.712 -0.4569 -0.0374 -0.7185
  913THF     H414210   4.631   2.560   3.572  2.0778  1.1831  1.8741
  913THF     H514211   4.689   2.438   3.693  0.4323 -0.2116 -1.6041
  913THF     H614212   4.291   2.390   3.666 -1.8220  4.3504  0.4308
  913THF     H714213   4.409   2.345   3.802  1.1479  0.3770 -0.7644
  913THF     C814214   4.397   2.554   3.751 -0.4371  0.6869  0.3943
  913THF     C914215   4.544   2.577   3.762 -0.3042  0.1154 -0.4239
  913THF    H1014216   4.352   2.570   3.849  0.3550  0.9284  0.7185
  913THF    H1114217   4.353   2.608   3.666 -0.3195 -0.9477 -0.7582
  913THF    H1214218   4.577   2.681   3.756 -0.4542  0.0898 -2.3354
  913THF    H1314219   4.575   2.535   3.858  1.0042  0.8529 -0.5004
  914THF     O114220   2.708   1.146   2.597 -0.0821 -0.4946  0.0413
  914THF     C214221   2.723   1.196   2.465  0.6251  0.2342 -0.1195
  914THF     C314222   2.700   1.006   2.586  0.4318 -0.0327  0.5147
  914THF     H414223   2.825   1.178   2.432  1.0143 -0.9240  1.6448
  914THF     H514224   2.694   1.301   2.453 -1.7690 -0.4406 -0.8619
  914THF     H614225   2.785   0.976   2.525  0.5323  1.3250 -0.0632
  914THF     H714226   2.702   0.951   2.680  2.9748  0.8885  1.0812
  914THF     C814227   2.590   0.997   2.473  0.4117 -0.6500 -0.2149
  914THF     C914228   2.623   1.114   2.378 -0.1452  0.3055  0.3457
  914THF    H1014229   2.485   1.010   2.500 -0.0364 -1.4874 -1.4794
  914THF    H1114230   2.590   0.900   2.425  0.0124 -0.5941 -0.3367
  914THF    H1214231   2.655   1.075   2.282 -2.8964  1.5000 -1.1712
  914THF    H1314232   2.527   1.162   2.362 -1.5523 -2.8256 -1.5007
  915THF     O114233   1.914   4.485   1.532 -0.5669  0.2724  0.5476
  915THF     C214234   1.952   4.626   1.549  0.0503 -0.1000 -0.1959
  915THF     C314235   1.916   4.430   1.657  0.6075 -0.4232 -0.6797
  915THF     H414236   1.868   4.676   1.598 -0.2154  0.4160 -1.1578
  915THF     H514237   1.960   4.679   1.454 -1.3031 -0.0519 -0.3056
  915THF     H614238   1.831   4.469   1.713  1.5890 -0.3067  0.7931
  915THF     H714239   1.907   4.321   1.654 -0.4339 -0.3580 -0.5081
  915THF     C814240   2.052   4.479   1.705  0.1009 -0.7868  0.3352
  915THF     C914241   2.077   4.613   1.637  0.3320  0.3852  0.2772
  915THF    H1014242   2.123   4.401   1.678 -1.5629 -2.0894 -0.4928
  915THF    H1114243   2.043   4.494   1.812 -1.1278  1.4374 -0.0124
  915THF    H1214244   2.081   4.683   1.720 -3.3581  1.0993  0.0037
  915THF    H1314245   2.169   4.613   1.579  0.5664 -2.0846  0.5181
  916THF     O114246   3.214   2.371   3.850 -0.1252  0.0852 -0.7545
  916THF     C214247   3.315   2.320   3.938  0.3861 -0.1813 -0.3794
  916THF     C314248   3.265   2.489   3.800 -0.4344  0.6130 -0.1425
  916THF     H414249   3.388   2.258   3.886 -1.1380 -0.3592 -2.4524
  916THF     H514250   3.263   2.253   4.007 -0.7354 -1.6048 -2.4954
  916THF     H614251   3.338   2.479   3.719 -1.2337 -0.9158 -0.6997
  916THF     H714252   3.192   2.565   3.772  2.5137  2.8351 -2.5648
  916THF     C814253   3.341   2.546   3.922  0.5245  0.2881  0.8726
  916THF     C914254   3.374   2.435   4.019 -0.0721 -0.5377  0.2024
  916THF    H1014255   3.273   2.615   3.973 -1.5087 -0.2007 -1.0072
  916THF    H1114256   3.431   2.601   3.894 -0.6388  1.5303 -0.6461
  916THF    H1214257   3.482   2.422   4.030  0.0573 -0.1113 -0.5113
  916THF    H1314258   3.322   2.447   4.114 -1.0936 -2.3839 -0.0891
  917THF     O114259   0.665   0.205   1.273 -0.2302 -0.1664 -0.0786
  917THF     C214260   0.745   0.115   1.192  0.7001  0.4189  0.1267
  917THF     C314261   0.559   0.132   1.328  0.1184 -0.2749  0.0632
  917THF     H414262   0.822   0.074   1.258  0.6264  2.9346  1.9111
  917THF     H514263   0.779   0.173   1.107 -0.9992  0.9272 -0.2320
  917THF     H614264   0.596   0.073   1.411  0.5600 -0.9488 -0.5999
  917THF     H714265   0.475   0.200   1.347  0.5452  0.7993 -1.6381
  917THF     C814266   0.518   0.037   1.214 -0.2568  0.5733  0.1645
  917THF     C914267   0.649   0.001   1.146 -0.1252  0.0973 -0.2066
  917THF    H1014268   0.447   0.082   1.144 -0.3932 -0.8502 -0.6471
  917THF    H1114269   0.468  -0.051   1.253 -0.5710 -0.6311 -2.6720
  917THF    H1214270   0.678  -0.099   1.177 -0.9684 -0.1772 -0.2745
  917THF    H1314271   0.631   0.009   1.039 -0.2988  0.3135 -0.1642
  918THF     O114272   3.166   4.539   4.823  0.5313 -0.0980  0.5477
  918THF     C214273   3.215   4.667   4.793 -0.1332  0.1860  0.6251
  918THF     C314274   3.233   4.476   4.932  0.7621  0.1496 -0.2683
  918THF     H414275   3.136   4.736   4.763  1.0065  1.1417 -0.2818
  918THF     H514276   3.277   4.648   4.705  2.7381  0.9299  2.3469
  918THF     H614277   3.163   4.413   4.987 -0.4097  0.7229 -1.0634
  918THF     H714278   3.320   4.430   4.886  0.9094 -1.9736  1.9918
  918THF     C814279   3.274   4.598   5.018  0.2741 -0.3093 -0.0756
  918THF     C914280   3.302   4.703   4.913 -0.8402 -0.8467  0.1297
  918THF    H1014281   3.358   4.581   5.085 -0.2168  0.3182  0.7253
  918THF    H1114282   3.187   4.626   5.078  0.6942 -1.9788  1.3775
  918THF    H1214283   3.312   4.806   4.948 -0.6152 -1.1135  0.8608
  918THF    H1314284   3.401   4.697   4.869 -1.5611 -0.6842 -1.5842
  919THF     O114285   4.436   0.201   3.703  0.0216 -0.5430  0.2552
  919THF     C214286   4.314   0.133   3.711 -0.0478  0.1600 -0.1877
  919THF     C314287   4.528   0.126   3.779 -0.7260  0.5541 -0.6144
  919THF     H414288   4.250   0.170   3.631 -0.7295  0.3890  0.4582
  919THF     H514289   4.262   0.137   3.806  1.1007 -2.5552  0.6662
  919THF     H614290   4.631   0.158   3.760  0.0845  0.1834  2.6295
  919THF     H714291   4.502   0.133   3.884 -0.5253  1.7115 -0.6313
  919THF     C814292   4.499  -0.023   3.724 -0.6077 -0.5299 -0.5301
  919THF     C914293   4.354  -0.008   3.676 -0.4418 -0.0423 -0.5654
  919THF    H1014294   4.509  -0.103   3.798 -1.3160  1.2721  1.6326
  919THF    H1114295   4.571  -0.040   3.643  0.5125 -1.6714  0.6530
  919THF    H1214296   4.349  -0.035   3.571  1.7109  0.8060 -0.9403
  919THF    H1314297   4.307  -0.090   3.731  0.7874  0.2475  0.9943
  920THF     O114298   3.666   3.309   4.364  0.3469 -0.3089 -0.4977
  920THF     C214299   3.553   3.401   4.383 -0.3123  0.7828  0.4733
  920THF     C314300   3.738   3.343   4.244 -0.1139  0.0780  0.0444
  920THF     H414301   3.589   3.491   4.433  1.5272 -1.4677  3.6222
  920THF     H514302   3.479   3.349   4.444 -0.4988  1.0127  0.4418
  920THF     H614303   3.792   3.437   4.247  1.9558 -1.0463 -0.4060
  920THF     H714304   3.796   3.258   4.208 -0.5926 -0.2987  0.1441
  920THF     C814305   3.611   3.350   4.152  0.1677  0.2055 -0.7413
  920THF     C914306   3.511   3.423   4.235 -0.1727 -0.2482 -1.1876
  920THF    H1014307   3.575   3.251   4.126 -1.3331  0.8428 -1.2218
  920THF    H1114308   3.628   3.406   4.059 -1.5953  0.7377 -0.7838
  920THF    H1214309   3.532   3.528   4.215  2.2923  0.2685  3.0640
  920THF    H1314310   3.411   3.383   4.215 -0.8598  0.9129 -0.2400
  921THF     O114311   3.449   4.084   2.017 -0.6539  0.1451  0.1307
  921THF     C214312   3.334   4.123   1.943 -0.0847 -0.2257 -0.6367
  921THF     C314313   3.496   4.200   2.080 -0.2536 -0.4511  0.1502
  921THF     H414314   3.259   4.140   2.020 -0.4088 -1.0071 -0.7713
  921THF     H514315   3.301   4.044   1.876 -2.7584  0.1940  0.0753
  921THF     H614316   3.481   4.200   2.188 -1.1824 -0.6004  0.0293
  921THF     H714317   3.602   4.198   2.053  0.4067 -1.9240  2.5069
  921THF     C814318   3.440   4.317   1.997  0.1188  0.0789 -0.3966
  921THF     C914319   3.371   4.254   1.876 -0.1218 -0.1120 -0.2588
  921THF    H1014320   3.518   4.391   1.978 -0.1053  0.5384  0.4288
  921THF    H1114321   3.357   4.360   2.053  0.4586  1.5466 -0.9714
  921THF    H1214322   3.281   4.305   1.841 -1.0092  0.2783  2.3810
  921THF    H1314323   3.431   4.239   1.786  0.7675  2.0419 -0.0710
  922THF     O114324   2.325   1.660   4.258  0.0862 -0.3362 -0.0296
  922THF     C214325   2.297   1.729   4.138 -0.0506  0.2359  0.5435
  922THF     C314326   2.385   1.538   4.229  0.1550  0.4331  0.1289
  922THF     H414327   2.369   1.804   4.107 -0.2991  0.4018  0.3617
  922THF     H514328   2.197   1.768   4.157 -0.6220 -1.6648  1.6755
  922THF     H614329   2.494   1.549   4.222  0.2891 -0.9344 -0.1606
  922THF     H714330   2.374   1.464   4.309  2.8964 -0.7156 -0.4165
  922THF     C814331   2.317   1.487   4.096  0.3044 -0.6088 -0.2390
  922THF     C914332   2.284   1.615   4.028 -0.2085 -0.1988  0.2003
  922THF    H1014333   2.223   1.441   4.125 -0.0482  0.8887  1.1709
  922THF    H1114334   2.381   1.409   4.055 -1.0711 -0.9732 -1.8095
  922THF    H1214335   2.350   1.616   3.942  1.1398 -0.6947  1.1955
  922THF    H1314336   2.182   1.611   3.991 -0.4289 -1.1766  0.8820
  923THF     O114337   3.365   4.557   1.017 -0.3714  0.0573 -0.2268
  923THF     C214338   3.337   4.422   1.051 -0.8878  0.0182 -0.3606
  923THF     C314339   3.447   4.610   1.119  0.3103  0.4664  0.1241
  923THF     H414340   3.298   4.381   0.958 -0.5324  0.5134 -0.7342
  923THF     H514341   3.251   4.440   1.115 -0.4378  1.4359 -0.1003
  923THF     H614342   3.491   4.708   1.101 -2.6549  1.7908 -0.4537
  923THF     H714343   3.375   4.614   1.200  1.3822  0.3377  1.1128
  923THF     C814344   3.543   4.492   1.153  0.0259  0.5195 -0.2315
  923THF     C914345   3.465   4.367   1.106 -0.4345  0.0422 -0.3663
  923THF    H1014346   3.570   4.494   1.259  0.3179  2.4896 -0.2988
  923THF    H1114347   3.629   4.504   1.088  0.7985 -1.6380  0.3170
  923THF    H1214348   3.526   4.316   1.032  2.1402  0.5468  1.2995
  923THF    H1314349   3.436   4.300   1.186 -2.7138 -1.0807 -1.9943
  924THF     O114350   0.960   0.382   2.833  0.1686  0.5923 -0.4160
  924THF     C214351   0.835   0.358   2.772 -0.4633  0.1736 -0.2684
  924THF     C314352   0.928   0.411   2.973  0.3697  0.2402 -0.8977
  924THF     H414353   0.810   0.258   2.806  0.7072  0.4542  1.6274
  924THF     H514354   0.839   0.345   2.664 -2.7408  0.1949 -0.3963
  924THF     H614355   0.902   0.318   3.023 -0.6291  0.8039 -0.3354
  924THF     H714356   1.016   0.453   3.022  0.6575 -1.1480 -0.1613
  924THF     C814357   0.800   0.495   2.965 -0.3007 -0.0881 -0.2222
  924THF     C914358   0.745   0.471   2.825 -0.0211 -0.0959  0.7570
  924THF    H1014359   0.818   0.601   2.983  2.7405 -1.0530  3.9723
  924THF    H1114360   0.736   0.466   3.049  1.4604 -0.5135  1.0216
  924THF    H1214361   0.641   0.440   2.838 -0.4740  0.5273 -1.1202
  924THF    H1314362   0.749   0.566   2.773 -4.4252 -0.3592 -0.4166
  925THF     O114363   4.980   4.303   0.499 -0.5806  0.0333 -0.0483
  925THF     C214364   5.000   4.160   0.502 -0.5594 -0.2745 -0.0465
  925THF     C314365   4.891   4.337   0.596  0.2918  0.4897  0.6558
  925THF     H414366   5.077   4.133   0.574  0.8222  0.7959 -1.0703
  925THF     H514367   5.033   4.119   0.407  2.8068  3.9360 -1.0222
  925THF     H614368   4.937   4.323   0.694 -0.6176 -0.1337  1.0126
  925THF     H714369   4.840   4.433   0.592  0.0636  0.3333 -1.2160
  925THF     C814370   4.781   4.232   0.573 -0.2056  0.3473 -0.3536
  925THF     C914371   4.865   4.114   0.557 -0.4976 -0.3194 -0.1816
  925THF    H1014372   4.714   4.250   0.489 -2.0085  0.7395  1.1031
  925THF    H1114373   4.717   4.215   0.660  2.6546 -1.4827  1.5764
  925THF    H1214374   4.881   4.059   0.650 -0.1448 -0.4288 -0.3056
  925THF    H1314375   4.816   4.037   0.497  0.0555 -0.3768 -0.5638
  926THF     O114376   5.463   2.368   4.692  0.0784  0.1106  0.1556
  926THF     C214377   5.380   2.289   4.774  0.7263 -0.5556 -0.6828
  926THF     C314378   5.595   2.379   4.739 -0.3380  0.4869  0.1434
  926THF     H414379   5.321   2.218   4.717  0.1177 -0.2296 -0.4703
  926THF     H514380   5.319   2.357   4.833  1.3953 -0.7111  0.2020
  926THF     H614381   5.668   2.397   4.660  2.2920  1.4033  2.5781
  926THF     H714382   5.601   2.457   4.815  0.1507  0.2669  0.3343
  926THF     C814383   5.622   2.252   4.821  0.5543 -0.1283  0.0867
  926THF     C914384   5.484   2.225   4.874 -0.1687  0.1591 -0.1136
  926THF    H1014385   5.701   2.258   4.897  2.5328 -0.0250 -1.8925
  926THF    H1114386   5.652   2.178   4.748  1.6446 -0.7927  1.1640
  926THF    H1214387   5.481   2.117   4.887 -1.5413  0.1170 -0.6345
  926THF    H1314388   5.481   2.280   4.969 -2.7731  1.6338 -0.9500
  927THF     O114389   2.278   0.100   0.878 -0.1413  0.9911 -0.5480
  927THF     C214390   2.165   0.069   0.796 -0.9295 -0.1765  0.3405
  927THF     C314391   2.323  -0.025   0.936  0.1218  0.3984  0.0875
  927THF     H414392   2.192   0.079   0.691  0.6963  0.8310  0.8359
  927THF     H514393   2.077   0.132   0.811 -0.4059  1.3414 -2.3395
  927THF     H614394   2.430  -0.040   0.954 -0.4278 -1.7739  2.0371
  927THF     H714395   2.272  -0.031   1.032 -0.5798  0.5967 -0.2666
  927THF     C814396   2.274  -0.132   0.845 -0.1399  0.7539 -0.8110
  927THF     C914397   2.144  -0.084   0.797 -0.5868 -0.7317  0.5712
  927THF    H1014398   2.251  -0.224   0.898  4.0875  0.5164  0.9805
  927THF    H1114399   2.347  -0.146   0.765 -2.5211  1.7103 -3.3114
  927THF    H1214400   2.118  -0.122   0.699  1.0128  0.8238 -0.5135
  927THF    H1314401   2.070  -0.118   0.870 -1.5417  0.7572  0.3352
  928THF     O114402   0.701   1.606   0.682  0.1130 -0.0777 -0.4271
  928THF     C214403   0.800   1.525   0.627  0.5210 -0.0315 -0.0572
  928THF     C314404   0.620   1.517   0.754  0.0510  0.2637  0.1991
  928THF     H414405   0.874   1.589   0.579 -0.1214  0.2986 -0.6303
  928THF     H514406   0.744   1.480   0.545 -0.1163 -0.1781  0.4498
  928THF     H614407   0.560   1.564   0.832  1.5154  1.1443  0.8363
  928THF     H714408   0.551   1.460   0.691  1.6681  1.2588 -2.6879
  928THF     C814409   0.714   1.424   0.817  0.0353 -0.0450 -0.5255
  928THF     C914410   0.839   1.422   0.726  0.4606  0.4862 -0.1060
  928THF    H1014411   0.670   1.326   0.836 -1.5045  0.6644 -0.2525
  928THF    H1114412   0.729   1.466   0.916 -1.9873  1.0757 -0.6259
  928THF    H1214413   0.927   1.459   0.779  0.1871  2.4088 -0.9255
  928THF    H1314414   0.853   1.328   0.672 -1.2221 -0.4065  0.9318
  929THF     O114415   0.409   2.457   2.096  0.0248  0.2439 -0.0384
  929THF     C214416   0.461   2.544   2.199  0.4222 -0.4879  0.5673
  929THF     C314417   0.518   2.387   2.045  0.0083 -0.7354  0.4272
  929THF     H414418   0.375   2.568   2.263  0.7973  0.0252  0.8868
  929THF     H514419   0.516   2.632   2.167 -0.0698  0.1330  1.3505
  929THF     H614420   0.482   2.306   1.982 -0.9297  0.3568 -0.4979
  929THF     H714421   0.581   2.446   1.978 -2.2272 -1.7381 -2.8118
  929THF     C814422   0.590   2.345   2.170 -0.4543 -0.0198  0.2633
  929THF     C914423   0.556   2.453   2.266 -0.0589 -0.0126  0.5311
  929THF    H1014424   0.697   2.342   2.152 -0.1379  0.6141  1.8882
  929THF    H1114425   0.550   2.250   2.205 -1.1875  0.1723 -0.0297
  929THF    H1214426   0.509   2.421   2.359  1.2036  0.2321  1.2827
  929THF    H1314427   0.637   2.519   2.298 -1.2798  2.0630 -0.4283
  930THF     O114428   0.069   1.754   4.765 -0.4673 -0.2304 -0.7508
  930THF     C214429   0.003   1.784   4.888  0.4294 -0.5118 -0.2488
  930THF     C314430   0.013   1.831   4.662 -0.0681 -0.0452 -0.4395
  930THF     H414431   0.050   1.879   4.913  1.6758 -1.3351  0.6379
  930THF     H514432   0.025   1.723   4.976  1.1422  0.3846  0.2102
  930THF     H614433   0.079   1.916   4.643  1.7713 -1.1274  0.8263
  930THF     H714434   0.024   1.783   4.565  0.8645 -0.6638 -0.0431
  930THF     C814435  -0.126   1.871   4.705 -0.0419 -0.0465 -0.1408
  930THF     C914436  -0.143   1.812   4.847  0.6423 -0.0821  0.8088
  930THF    H1014437  -0.192   1.840   4.623  0.3472  0.9526 -0.8556
  930THF    H1114438  -0.126   1.980   4.717  1.0707 -0.1685  1.1541
  930THF    H1214439  -0.185   1.880   4.921 -1.3041  0.1949 -0.4837
  930THF    H1314440  -0.204   1.721   4.851 -0.3773  0.5434 -0.0430
  931THF     O114441   2.640   3.813   1.064 -0.2020 -0.3298 -0.5694
  931THF     C214442   2.693   3.908   1.157  0.5298 -0.5584  0.8795
  931THF     C314443   2.680   3.834   0.933  0.1173  0.0877  0.0731
  931THF     H414444   2.702   3.853   1.251  1.3343 -1.3551  0.3539
  931THF     H514445   2.613   3.980   1.171  1.0997  0.0388  1.1401
  931THF     H614446   2.667   3.754   0.861  0.5963  0.9305 -0.9667
  931THF     H714447   2.635   3.922   0.887 -0.5176 -1.1878 -1.8482
  931THF     C814448   2.826   3.875   0.960 -0.0055  0.6561  0.1757
  931THF     C914449   2.817   3.952   1.089 -0.3284 -0.2310  0.1632
  931THF    H1014450   2.874   3.921   0.874 -1.2484 -2.2622 -2.2486
  931THF    H1114451   2.888   3.787   0.973 -3.2574 -2.1887 -2.0024
  931THF    H1214452   2.909   3.936   1.145  0.1902 -2.5300 -1.2597
  931THF    H1314453   2.800   4.057   1.066  1.2158  0.0490  0.1575
  932THF     O114454   2.276   5.156   3.959  0.1847 -0.2186  0.0936
  932THF     C214455   2.276   5.115   4.093 -0.0785 -0.4406 -0.2428
  932THF     C314456   2.268   5.031   3.884  0.0451  0.2281 -0.4609
  932THF     H414457   2.248   5.191   4.166  0.8451 -0.6413  0.3277
  932THF     H514458   2.380   5.095   4.119 -0.0873  0.0896  0.2070
  932THF     H614459   2.235   5.046   3.781  1.2225  2.5756 -0.5618
  932THF     H714460   2.371   4.997   3.874  0.6795  1.2052  1.9211
  932THF     C814461   2.181   4.933   3.959  0.1171  0.4663  0.5539
  932THF     C914462   2.183   4.989   4.103  0.1765 -0.0629 -0.1504
  932THF    H1014463   2.214   4.830   3.951  0.3222  0.5378  0.4657
  932THF    H1114464   2.086   4.929   3.906  2.1049  0.9325 -3.4921
  932THF    H1214465   2.080   5.006   4.133  1.0113  0.6740  2.5693
  932THF    H1314466   2.229   4.911   4.163  1.1372 -1.7742 -2.9192
  933THF     O114467   3.381   4.690   2.411  0.1971 -0.0208  0.4647
  933THF     C214468   3.342   4.696   2.549 -0.3305 -0.0367 -0.4119
  933THF     C314469   3.281   4.616   2.343 -0.1484  0.0817 -0.4072
  933THF     H414470   3.399   4.779   2.592  1.8228 -1.9799  0.6830
  933THF     H514471   3.368   4.606   2.605 -1.1325 -0.4279 -0.6591
  933THF     H614472   3.293   4.625   2.235 -1.7463  0.3771 -0.5748
  933THF     H714473   3.281   4.511   2.372  1.3635 -0.1297 -1.0638
  933THF     C814474   3.164   4.702   2.394  0.1695  0.0983 -1.6362
  933THF     C914475   3.198   4.724   2.543  0.7823 -0.2005 -0.5600
  933THF    H1014476   3.064   4.660   2.381 -0.6053  2.2917 -3.2916
  933THF    H1114477   3.142   4.786   2.328  0.4724  0.5396 -1.1789
  933THF    H1214478   3.169   4.821   2.583 -0.6960 -0.4171 -1.0392
  933THF    H1314479   3.147   4.657   2.613 -1.1920  1.3426 -0.4395
  934THF     O114480   0.889   0.043   5.489 -0.3092 -0.3277  0.6529
  934THF     C214481   1.011   0.119   5.529 -0.0051 -0.0581 -0.1009
  934THF     C314482   0.845  -0.026   5.607 -0.0552 -0.4111 -0.2199
  934THF     H414483   0.972   0.202   5.589 -1.1952 -0.7507  0.1191
  934THF     H514484   1.054   0.157   5.437  0.3521 -0.8838 -0.2763
  934THF     H614485   0.768   0.018   5.670  0.0764 -0.2554 -0.1668
  934THF     H714486   0.806  -0.124   5.578  1.7308 -1.2514  0.0758
  934THF     C814487   0.975  -0.038   5.700 -0.2083 -0.1888 -0.2054
  934THF     C914488   1.086   0.019   5.614  0.2173  0.0155  0.2128
  934THF    H1014489   1.002  -0.136   5.740  0.2162  0.4252  1.0551
  934THF    H1114490   0.949   0.019   5.789 -1.1869 -0.3717 -0.3723
  934THF    H1214491   1.161   0.075   5.669  1.2620  0.9302 -2.0009
  934THF    H1314492   1.129  -0.061   5.554 -2.3093 -0.1102 -1.6006
  935THF     O114493   2.495   5.168   4.643 -0.6822 -0.6498 -0.2337
  935THF     C214494   2.605   5.156   4.732  0.3897 -0.6501  0.1376
  935THF     C314495   2.513   5.059   4.554  0.1871 -0.0130  0.4300
  935THF     H414496   2.594   5.215   4.823  0.1949  2.2780 -1.6325
  935THF     H514497   2.691   5.189   4.673 -1.0909 -0.0921 -1.8372
  935THF     H614498   2.428   5.041   4.488  0.5603 -0.7198  0.1384
  935THF     H714499   2.595   5.086   4.487  0.3027 -0.4507  0.3944
  935THF     C814500   2.545   4.946   4.646  0.8009  0.3484  0.1665
  935THF     C914501   2.615   5.012   4.760 -0.6060 -0.3015  0.2308
  935THF    H1014502   2.590   4.857   4.603 -2.7586 -1.7296  0.3427
  935THF    H1114503   2.446   4.917   4.682  0.8232  0.1857  0.0961
  935THF    H1214504   2.562   4.978   4.849 -0.6610 -1.8674 -0.3650
  935THF    H1314505   2.717   4.978   4.783 -0.7509 -0.7741  0.1866
  936THF     O114506   3.880   4.574   4.342  0.1288 -0.6428  0.2834
  936THF     C214507   3.763   4.651   4.389 -0.2176  0.0137  0.5753
  936THF     C314508   3.974   4.583   4.453 -0.6758  0.1863 -0.6773
  936THF     H414509   3.706   4.582   4.450 -2.8488  1.2395 -0.3551
  936THF     H514510   3.699   4.680   4.306  0.5761 -0.1115 -0.0977
  936THF     H614511   3.976   4.491   4.510 -1.8173  0.0554 -0.8302
  936THF     H714512   4.074   4.588   4.411  0.7931  1.6100  2.6239
  936THF     C814513   3.948   4.707   4.539  0.3185  1.1009  0.4035
  936THF     C914514   3.827   4.768   4.466  0.3346  0.2539  0.0375
  936THF    H1014515   4.036   4.771   4.534  0.8686  0.2636 -1.9058
  936THF    H1114516   3.917   4.680   4.640  3.1931  2.2884  1.7333
  936THF    H1214517   3.754   4.827   4.521  0.4350 -0.2728  0.7474
  936THF    H1314518   3.867   4.840   4.395  0.6582  0.7960  0.7517
  937THF     O114519   0.355   4.085   1.505  0.0191  0.3499 -0.2712
  937THF     C214520   0.290   4.202   1.553 -0.5983  0.0961  0.5336
  937THF     C314521   0.429   4.111   1.388 -0.1752  0.1668  0.2178
  937THF     H414522   0.312   4.233   1.655 -0.8798  1.5680  0.1747
  937THF     H514523   0.182   4.188   1.552 -0.4044 -1.6181 -0.9365
  937THF     H614524   0.519   4.153   1.433 -0.6691  1.0212  0.4302
  937THF     H714525   0.447   4.020   1.331  0.3568 -1.0983  2.2752
  937THF     C814526   0.348   4.223   1.321  0.3983  0.0524 -0.4632
  937THF     C914527   0.321   4.306   1.448 -0.4296 -0.3093 -0.1723
  937THF    H1014528   0.253   4.192   1.278 -0.0054  2.7479 -1.7558
  937THF    H1114529   0.409   4.266   1.242 -0.5102  4.3517  0.8780
  937THF    H1214530   0.403   4.374   1.469  1.3980 -2.1943 -0.7564
  937THF    H1314531   0.233   4.367   1.426 -0.0284  0.4608  0.3345
  938THF     O114532   0.693   1.221   3.036 -0.4005 -0.2030 -0.0792
  938THF     C214533   0.574   1.162   3.095  0.5908  0.1002 -0.4022
  938THF     C314534   0.706   1.169   2.904 -0.7089 -0.5903 -0.4604
  938THF     H414535   0.491   1.228   3.071  1.8532  1.4304 -1.2703
  938THF     H514536   0.596   1.170   3.201 -0.7995  0.1053 -0.0945
  938THF     H614537   0.652   1.227   2.829  0.8633 -0.0799 -1.2516
  938THF     H714538   0.813   1.178   2.882 -0.7056 -0.1459 -0.2635
  938THF     C814539   0.681   1.025   2.931  0.9417  0.5699 -0.2232
  938THF     C914540   0.568   1.026   3.028 -0.0212  0.5760  0.0457
  938THF    H1014541   0.768   0.982   2.981 -0.8264  0.4030  2.9176
  938THF    H1114542   0.671   0.962   2.842 -1.4266  0.4482  0.0643
  938THF    H1214543   0.471   1.014   2.980 -0.1550  1.1811  0.1527
  938THF    H1314544   0.583   0.953   3.107  0.3323  2.3703  1.7208
  939THF     O114545   0.758   0.556   4.115  0.0141  0.2318 -0.5937
  939THF     C214546   0.701   0.453   4.041  0.3143  0.2812 -0.1271
  939THF     C314547   0.737   0.676   4.038  0.7390 -0.1407 -0.1372
  939THF     H414548   0.593   0.454   4.031  0.4997  1.0877 -2.7123
  939THF     H514549   0.727   0.355   4.081  0.2926  0.3137 -0.0347
  939THF     H614550   0.634   0.711   4.038  1.1332  1.0829 -1.0343
  939THF     H714551   0.803   0.760   4.062 -0.0320  0.2411  0.6907
  939THF     C814552   0.777   0.625   3.899 -1.0007 -0.0204 -0.1253
  939THF     C914553   0.756   0.480   3.900 -0.1622 -0.4522  0.7537
  939THF    H1014554   0.882   0.653   3.887 -1.0677  1.3561  2.0125
  939THF    H1114555   0.716   0.667   3.820  0.1055 -0.4760 -1.2660
  939THF    H1214556   0.682   0.454   3.824  1.9318  0.5368 -1.7529
  939THF    H1314557   0.842   0.420   3.870  1.2884  1.5019  0.8546
  940THF     O114558   0.573   2.519   4.621  0.7071  0.1740 -0.7587
  940THF     C214559   0.475   2.421   4.587 -0.0547  0.1339 -0.2254
  940THF     C314560   0.694   2.446   4.658 -0.2225  0.3422 -0.0958
  940THF     H414561   0.505   2.399   4.485  3.4898  1.8917  0.2540
  940THF     H514562   0.374   2.462   4.582  0.4358  1.5315  0.4995
  940THF     H614563   0.747   2.423   4.566 -0.0156 -0.9030  0.3220
  940THF     H714564   0.764   2.492   4.727 -0.7663 -1.4607  1.7425
  940THF     C814565   0.651   2.310   4.706 -0.2317 -0.4457  0.0710
  940THF     C914566   0.503   2.308   4.687 -0.3196  0.1403 -0.0114
  940THF    H1014567   0.689   2.289   4.806  1.0368 -0.4001 -0.3882
  940THF    H1114568   0.691   2.229   4.645  0.3040  0.0434 -0.2426
  940THF    H1214569   0.465   2.209   4.659  1.6415 -0.1341 -1.9868
  940THF    H1314570   0.465   2.326   4.788 -0.6582  0.7500 -0.2441
  941PF6-    P114571   2.612   3.270   0.052  0.9356 -0.1828 -0.4191
  941PF6-    F214572   2.531   3.346   0.173 -0.3697  0.3362  0.2051
  941PF6-    F314573   2.685   3.191  -0.064 -0.1717  0.5406  0.1677
  941PF6-    F414574   2.516   3.140   0.083 -0.2553  0.0236 -0.2425
  941PF6-    F514575   2.705   3.397   0.026 -0.0932 -0.4761  0.0220
  941PF6-    F614576   2.713   3.206   0.154 -0.0640  0.3260  0.3947
  941PF6-    F714577   2.500   3.323  -0.053 -0.1805  0.3748 -0.4911
  942PF6-    P114578   1.528   3.271   2.984  0.2975 -0.1895  0.0266
  942PF6-    F214579   1.619   3.164   2.904  0.1286 -0.2773  0.5568
  942PF6-    F314580   1.440   3.376   3.068  0.3130  0.4397  0.2141
  942PF6-    F414581   1.528   3.371   2.856 -0.4913 -0.0827 -0.0573
  942PF6-    F514582   1.519   3.169   3.106  0.0619  0.2638 -0.8772
  942PF6-    F614583   1.659   3.331   3.050  0.4201  0.1130 -0.2520
  942PF6-    F714584   1.393   3.203   2.925  0.6537  0.2369 -0.6602
  943PF6-    P114585   2.075   5.417   0.193  0.2283 -0.2982 -0.5736
  943PF6-    F214586   2.194   5.467   0.092 -0.5253  0.6718 -0.2800
  943PF6-    F314587   1.961   5.366   0.292 -0.4992 -0.2439 -0.2009
  943PF6-    F414588   2.073   5.569   0.256 -0.5979  0.2941 -0.2716
  943PF6-    F514589   2.083   5.268   0.122 -0.4378  0.3126 -0.7011
  943PF6-    F614590   2.189   5.375   0.302 -0.3988  0.1144 -0.2367
  943PF6-    F714591   1.962   5.455   0.081 -0.1640 -0.2217 -0.1316
  944PF6-    P114592   2.659   1.142   3.469  0.0677 -0.2215  0.5695
  944PF6-    F214593   2.670   1.073   3.610  0.1044 -0.2719  0.3706
  944PF6-    F314594   2.639   1.215   3.326  0.0858 -0.1796  0.2803
  944PF6-    F414595   2.620   0.997   3.406 -0.5980  0.6173  0.3683
  944PF6-    F514596   2.709   1.281   3.529  0.4143  0.4133  0.1442
  944PF6-    F614597   2.808   1.112   3.438 -0.0709 -0.0152 -0.6190
  944PF6-    F714598   2.501   1.175   3.501 -0.3719  0.6619  0.3122
  945PF6-    P114599   1.928   3.183   4.842 -0.2992  0.2342  0.1164
  945PF6-    F214600   2.039   3.295   4.802  0.0589  0.1531  0.2713
  945PF6-    F314601   1.817   3.075   4.890 -0.3176 -0.1077  0.2809
  945PF6-    F414602   1.868   3.184   4.694 -0.0356  0.1667  0.0328
  945PF6-    F514603   1.986   3.180   4.989 -0.0849 -0.0130  0.3161
  945PF6-    F614604   1.826   3.297   4.877 -0.4257 -0.4069  0.2313
  945PF6-    F714605   2.031   3.063   4.809 -0.2267 -0.4662 -0.2545
  946PF6-    P114606   2.382   0.850   5.459 -0.1130 -0.0014 -0.1539
  946PF6-    F214607   2.464   0.984   5.438  0.0984 -0.2110 -0.4010
  946PF6-    F314608   2.296   0.720   5.485 -0.2812  0.0044 -0.5888
  946PF6-    F414609   2.354   0.845   5.297 -0.0659 -0.7314  0.0070
  946PF6-    F514610   2.408   0.866   5.618  0.1317 -0.1435  0.3740
  946PF6-    F614611   2.253   0.944   5.472 -0.3182  0.4475  0.0732
  946PF6-    F714612   2.516   0.763   5.443 -0.0175  0.6314  0.0446
  947PF6-    P114613   0.946   2.171   1.096 -0.0361 -0.6159 -0.3830
  947PF6-    F214614   0.799   2.127   1.057 -0.1297 -0.0964 -0.1733
  947PF6-    F314615   1.095   2.206   1.143  0.0677  0.1946  0.2931
  947PF6-    F414616   0.988   2.175   0.945 -0.1105 -0.2122 -0.2467
  947PF6-    F514617   0.891   2.162   1.244  0.3934 -0.2632 -0.0559
  947PF6-    F614618   0.989   2.015   1.102  0.4270 -0.4923  0.1530
  947PF6-    F714619   0.905   2.325   1.087 -0.7221  0.0295 -0.2306
  948PF6-    P114620   3.341   1.109   2.783 -0.3241  0.2118 -0.4623
  948PF6-    F214621   3.443   1.125   2.660 -0.1567  0.2541  0.2512
  948PF6-    F314622   3.242   1.082   2.909 -0.1333 -0.4157  0.0641
  948PF6-    F414623   3.346   0.950   2.754  0.2031 -0.5527 -0.0131
  948PF6-    F514624   3.336   1.264   2.812 -0.4553  0.2234 -0.3031
  948PF6-    F614625   3.214   1.124   2.684 -0.0940 -0.2548 -0.2449
  948PF6-    F714626   3.471   1.084   2.881 -0.1756  0.3402 -0.3483
  949PF6-    P114627   0.293   1.072   1.651 -0.4340 -0.5207  0.5007
  949PF6-    F214628   0.158   1.160   1.680 -0.0448  0.2626 -0.3498
  949PF6-    F314629   0.424   0.982   1.633 -0.0665 -0.2117  0.2073
  949PF6-    F414630   0.301   1.129   1.499  0.6960  0.0481 -0.5770
  949PF6-    F514631   0.285   1.026   1.798 -0.1404  0.2498  0.2746
  949PF6-    F614632   0.200   0.948   1.603 -0.1927 -0.6484 -0.2781
  949PF6-    F714633   0.384   1.193   1.693 -0.0139 -0.3107  0.2304
  950PF6-    P114634   5.072   5.432   4.861  0.2422  0.3724  0.1551
  950PF6-    F214635   5.045   5.367   5.007  0.2265 -0.2301  0.0144
  950PF6-    F314636   5.097   5.482   4.708 -0.0320  0.7904 -0.6555
  950PF6-    F414637   4.929   5.496   4.852 -0.1431 -0.0692  0.1114
  950PF6-    F514638   5.220   5.364   4.859  0.3486  0.4523 -0.4741
  950PF6-    F614639   5.009   5.299   4.809 -0.1275  0.3191 -0.1583
  950PF6-    F714640   5.142   5.566   4.915 -0.3585  0.5957  0.2935
  951PF6-    P114641   4.825   0.145   1.552 -0.0750 -0.3394 -0.2060
  951PF6-    F214642   4.949   0.107   1.649 -0.2203 -0.8346  0.4144
  951PF6-    F314643   4.698   0.174   1.466  0.1451 -0.3628 -0.0306
  951PF6-    F414644   4.772  -0.002   1.568  0.1251 -0.4214  0.0804
  951PF6-    F514645   4.874   0.293   1.537  0.4184  0.4414 -0.1656
  951PF6-    F614646   4.906   0.104   1.421  0.4158 -0.1272  0.4861
  951PF6-    F714647   4.743   0.184   1.685 -0.2171  0.4636 -0.1846
  952PF6-    P114648   4.739   4.814   5.309 -0.1292 -0.1271  0.2902
  952PF6-    F214649   4.813   4.915   5.208 -0.1746 -0.2180 -0.4385
  952PF6-    F314650   4.671   4.707   5.404  0.5252 -0.0402 -0.2899
  952PF6-    F414651   4.648   4.765   5.185 -0.2176  0.4553 -0.1485
  952PF6-    F514652   4.831   4.866   5.431  0.0564  0.2317  0.0888
  952PF6-    F614653   4.621   4.916   5.352  0.1594 -0.0439  0.2690
  952PF6-    F714654   4.852   4.706   5.267  0.6108  0.4084  0.3037
  953PF6-    P114655   1.797   2.276   1.789  0.0965 -0.3677 -0.1024
  953PF6-    F214656   1.646   2.232   1.782 -0.3090  0.3382  0.3658
  953PF6-    F314657   1.955   2.309   1.791  0.4582  0.0916 -0.0472
  953PF6-    F414658   1.822   2.181   1.918 -0.4221 -0.1815  0.2538
  953PF6-    F514659   1.786   2.380   1.662 -0.0153 -0.1841  0.1366
  953PF6-    F614660   1.759   2.392   1.890  0.4386  0.0308 -0.2638
  953PF6-    F714661   1.840   2.156   1.693 -0.3509 -0.1732 -0.1309
  954PF6-    P114662   1.632   5.184   3.260  0.1986 -0.3869  0.3302
  954PF6-    F214663   1.681   5.318   3.183  0.2850  0.0493 -0.0891
  954PF6-    F314664   1.577   5.051   3.332 -0.1262 -0.1574  0.0105
  954PF6-    F414665   1.738   5.218   3.382 -0.2100 -0.1160 -0.1640
  954PF6-    F514666   1.533   5.150   3.137 -0.0658  0.1630 -0.2116
  954PF6-    F614667   1.745   5.093   3.190 -0.3903  0.6310  0.6629
  954PF6-    F714668   1.516   5.273   3.334  0.1507  0.3570 -0.1037
  955PF6-    P114669   3.255   1.658   3.151  0.0487  0.1939 -0.3086
  955PF6-    F214670   3.301   1.536   3.049 -0.0990 -0.3839 -0.1181
  955PF6-    F314671   3.208   1.776   3.254 -0.4324 -0.0684 -0.5610
  955PF6-    F414672   3.391   1.733   3.124  0.7380 -0.5254 -0.4201
  955PF6-    F514673   3.116   1.578   3.171  0.5379 -0.5125 -0.5046
  955PF6-    F614674   3.331   1.578   3.270  0.4121  0.5213  0.3972
  955PF6-    F714675   3.187   1.748   3.035  0.2939  0.3300  0.6848
  956PF6-    P114676   3.211   0.781   0.753 -0.6717 -0.4015  0.0016
  956PF6-    F214677   3.078   0.871   0.761 -0.0961 -0.3863  0.5027
  956PF6-    F314678   3.344   0.687   0.743  0.1772 -0.7070  0.3328
  956PF6-    F414679   3.295   0.911   0.786  0.0798 -0.2763  0.3879
  956PF6-    F514680   3.116   0.657   0.723 -0.1742 -0.0539  0.1875
  956PF6-    F614681   3.225   0.809   0.599 -0.1403 -0.0808  0.6270
  956PF6-    F714682   3.194   0.746   0.911 -0.1164  0.2005 -0.2043
  957PF6-    P114683   0.180   1.426   5.136  0.0343  0.4422 -0.3449
  957PF6-    F214684   0.112   1.424   4.986  0.0122 -0.5144  0.4090
  957PF6-    F314685   0.246   1.431   5.278 -0.2048  0.7923  0.0785
  957PF6-    F414686   0.174   1.583   5.138 -0.0707  0.2639  0.2890
  957PF6-    F514687   0.184   1.263   5.137  0.0142 -0.3382 -0.1484
  957PF6-    F614688   0.323   1.436   5.068 -0.2377  0.2540 -0.0705
  957PF6-    F714689   0.027   1.424   5.202 -0.0928  0.0320 -0.1883
  958PF6-    P114690   5.316   3.404   2.751 -0.3776 -0.3478 -0.3024
  958PF6-    F214691   5.402   3.467   2.633  0.9831 -0.0399  0.2300
  958PF6-    F314692   5.224   3.340   2.865  0.2892  0.1412  0.0241
  958PF6-    F414693   5.235   3.538   2.768  0.0038 -0.3543  0.2630
  958PF6-    F514694   5.396   3.272   2.733 -0.2584  0.1843  0.1597
  958PF6-    F614695   5.420   3.452   2.865  0.1742 -0.1880  0.3091
  958PF6-    F714696   5.211   3.351   2.645  0.0520 -0.2510 -0.1231
  959PF6-    P114697   2.150   0.146   4.960 -0.0644  0.2612  0.4644
  959PF6-    F214698   2.078   0.146   4.816  0.2239 -0.1238  0.7025
  959PF6-    F314699   2.214   0.141   5.107 -0.2105 -0.0202  0.0050
  959PF6-    F414700   2.102  -0.015   4.983  0.6058  0.2342  0.4918
  959PF6-    F514701   2.201   0.297   4.939 -0.3712 -0.0105  0.2637
  959PF6-    F614702   2.007   0.192   5.029 -0.1060 -0.1542 -0.0265
  959PF6-    F714703   2.292   0.091   4.896  0.7937 -0.6103  0.0667
  960PF6-    P114704   4.565   1.769   2.522 -0.1979  0.6054 -0.0197
  960PF6-    F214705   4.662   1.731   2.397  0.4739 -0.4361  0.8045
  960PF6-    F314706   4.471   1.800   2.652  0.4872 -0.1450 -0.3904
  960PF6-    F414707   4.670   1.878   2.582 -0.1615  0.6821  0.4553
  960PF6-    F514708   4.455   1.669   2.469 -0.7656 -0.5728  0.1581
  960PF6-    F614709   4.631   1.653   2.601 -0.2901  0.5976 -0.0509
  960PF6-    F714710   4.508   1.887   2.437  0.2160  0.0863 -0.0668
  961PF6-    P114711   4.698   2.763   2.390  0.1599 -0.0777  0.0549
  961PF6-    F214712   4.837   2.700   2.359  0.3386 -0.5011  0.0830
  961PF6-    F314713   4.555   2.831   2.416 -0.0332 -0.1571 -0.7762
  961PF6-    F414714   4.676   2.788   2.234  0.2660  0.1799 -0.1480
  961PF6-    F514715   4.716   2.734   2.547  0.2069 -0.1024 -0.3238
  961PF6-    F614716   4.769   2.905   2.413 -0.1107 -0.5287  0.0763
  961PF6-    F714717   4.627   2.619   2.376 -0.1181 -0.1761  0.1954
  962PF6-    P114718   2.056   4.136   2.798 -0.0871 -0.0879 -0.4436
  962PF6-    F214719   1.953   4.075   2.694  0.5295  0.1942  0.4959
  962PF6-    F314720   2.165   4.196   2.902 -0.3369 -0.3996 -0.2358
  962PF6-    F414721   1.997   4.279   2.776  0.3569 -0.2837 -0.6764
  962PF6-    F514722   2.123   3.992   2.822  0.1659  0.2230  0.4030
  962PF6-    F614723   2.148   4.162   2.676  0.0475  0.5476  0.3954
  962PF6-    F714724   1.955   4.114   2.915 -0.3393  0.1079 -0.2709
  963PF6-    P114725   0.871   4.776   2.783  0.2189  0.1619  0.7051
  963PF6-    F214726   0.762   4.701   2.884 -0.5358  0.8543  0.4975
  963PF6-    F314727   0.973   4.846   2.680 -0.0522  0.5350  0.1484
  963PF6-    F414728   0.994   4.743   2.880 -0.1329 -0.1229 -0.2032
  963PF6-    F514729   0.748   4.810   2.687  0.0380 -0.1884 -0.2512
  963PF6-    F614730   0.852   4.919   2.854 -0.2582 -0.0597 -0.0456
  963PF6-    F714731   0.897   4.636   2.704 -0.5160  0.2381 -0.4955
  964PF6-    P114732   1.874   1.356   0.723 -0.3086  0.2759 -0.1834
  964PF6-    F214733   1.799   1.413   0.855  0.3755 -0.1528  0.1955
  964PF6-    F314734   1.946   1.288   0.598 -0.2371  0.1265  0.1560
  964PF6-    F414735   1.885   1.209   0.795 -0.1045 -0.5630 -0.8662
  964PF6-    F514736   1.865   1.492   0.647  0.4411 -0.0570 -0.1465
  964PF6-    F614737   2.016   1.397   0.780  0.1732  0.4042 -0.5623
  964PF6-    F714738   1.734   1.312   0.662  0.1270 -0.1253  0.3294
  965PF6-    P114739   5.133   3.706   0.426  0.0038 -0.5645 -0.0999
  965PF6-    F214740   5.033   3.671   0.304 -0.5219  0.3261 -0.5402
  965PF6-    F314741   5.226   3.758   0.545 -0.0402 -0.4245  0.0291
  965PF6-    F414742   5.108   3.854   0.393 -0.1312  0.5367  0.5076
  965PF6-    F514743   5.151   3.550   0.460  0.9019  0.0035 -0.3973
  965PF6-    F614744   5.257   3.704   0.325 -0.3282  0.1628  0.0483
  965PF6-    F714745   5.004   3.708   0.528  0.3520  0.2010 -0.2457
  966PF6-    P114746   0.738   0.978   2.499  0.3050 -0.2661 -0.0588
  966PF6-    F214747   0.748   1.077   2.622  0.0686 -0.1939  0.3328
  966PF6-    F314748   0.727   0.886   2.376 -0.0558  0.2777  0.4397
  966PF6-    F414749   0.749   0.857   2.600 -0.1425  0.2284  0.2883
  966PF6-    F514750   0.723   1.107   2.408  0.2199 -0.0660  0.3427
  966PF6-    F614751   0.890   0.980   2.480  0.0525 -0.3020  0.2224
  966PF6-    F714752   0.576   0.975   2.516 -0.0190 -0.2384 -0.2676
  967PF6-    P114753   5.162   2.160   3.402  0.1246 -0.6629  0.5647
  967PF6-    F214754   5.186   2.310   3.464 -0.0600  0.0551  0.0627
  967PF6-    F314755   5.133   2.016   3.342  0.5772  0.2368 -0.4694
  967PF6-    F414756   5.176   2.226   3.256  0.3193 -0.2960  0.4180
  967PF6-    F514757   5.150   2.101   3.548 -0.0278 -0.2919 -0.0524
  967PF6-    F614758   5.005   2.193   3.401  0.1480 -0.1668  0.4035
  967PF6-    F714759   5.318   2.135   3.410 -0.1407 -0.5925 -0.0004
  968PF6-    P114760   3.453   4.484   0.531  0.2681 -0.5222  0.3053
  968PF6-    F214761   3.384   4.363   0.451 -0.2416 -0.2047 -0.0302
  968PF6-    F314762   3.528   4.600   0.608 -0.3330  0.2724 -0.2894
  968PF6-    F414763   3.441   4.580   0.405 -0.3707  0.3837  0.4047
  968PF6-    F514764   3.463   4.393   0.664 -0.2276 -0.1083  0.3642
  968PF6-    F614765   3.597   4.428   0.482 -0.7075 -0.6618 -0.3139
  968PF6-    F714766   3.309   4.538   0.579  0.4986  0.0801 -0.4562
  969PF6-    P114767   1.668   1.337   5.103 -0.1803 -0.1548 -0.4873
  969PF6-    F214768   1.668   1.345   5.262 -0.0819  0.3264 -0.2830
  969PF6-    F314769   1.677   1.316   4.943  0.1854 -0.4391  0.5498
  969PF6-    F414770   1.532   1.250   5.108 -0.1482 -0.2047 -0.1050
  969PF6-    F514771   1.802   1.420   5.099 -0.1939 -0.2660  0.2737
  969PF6-    F614772   1.743   1.199   5.118 -0.0615 -0.3129  0.2401
  969PF6-    F714773   1.586   1.475   5.099  0.4359  0.3857 -0.3372
  970PF6-    P114774   2.465   0.789   1.878 -0.1966  0.2799  0.2482
  970PF6-    F214775   2.461   0.835   2.031  0.0650 -0.1642  0.6873
  970PF6-    F314776   2.475   0.737   1.722  0.1608  1.0453 -0.2550
  970PF6-    F414777   2.482   0.944   1.836  0.2898  0.3482  0.3810
  970PF6-    F514778   2.456   0.635   1.929  0.5399 -0.4618 -0.0130
  970PF6-    F614779   2.305   0.805   1.873  0.5417 -0.1116  0.1137
  970PF6-    F714780   2.620   0.771   1.887  0.6777 -0.2669 -0.4929
  971PF6-    P114781   3.953   5.333   0.113  0.1248 -0.0739  0.0569
  971PF6-    F214782   3.938   5.493   0.123 -0.0143 -0.2729 -0.5166
  971PF6-    F314783   3.958   5.168   0.117 -0.1834  0.2164 -0.1289
  971PF6-    F414784   3.925   5.338  -0.046 -0.3935 -0.2780  0.0628
  971PF6-    F514785   3.977   5.331   0.273 -0.2775  0.3367  0.4503
  971PF6-    F614786   3.797   5.323   0.136  0.1148 -0.2798  0.6288
  971PF6-    F714787   4.111   5.342   0.089  0.1629 -0.1658  0.4155
  972PF6-    P114788   4.017   4.728   1.431  0.0282 -0.2396 -0.0778
  972PF6-    F214789   4.049   4.858   1.343  0.5571 -0.4029 -0.1641
  972PF6-    F314790   3.989   4.607   1.526  0.1002  0.2726  0.0720
  972PF6-    F414791   3.948   4.658   1.307 -0.0248 -0.3794 -0.0902
  972PF6-    F514792   4.086   4.787   1.557  0.1930 -0.6447 -0.1777
  972PF6-    F614793   3.881   4.794   1.476  0.2380  0.1260 -0.0406
  972PF6-    F714794   4.155   4.665   1.384  0.3097  0.0994 -0.0207
  973PF6-    P114795   0.664   0.784   4.967  0.6639 -0.1951  0.1668
  973PF6-    F214796   0.576   0.777   4.839  0.0978 -0.3228  0.1391
  973PF6-    F314797   0.744   0.795   5.105 -0.1792  0.3789  0.7581
  973PF6-    F414798   0.768   0.695   4.890  0.0822 -0.4324  0.2866
  973PF6-    F514799   0.551   0.883   5.023  0.1125  0.7612 -0.1858
  973PF6-    F614800   0.595   0.660   5.026  0.0745 -0.3797 -0.0221
  973PF6-    F714801   0.747   0.915   4.909  0.2657  0.3552 -0.2311
  974PF6-    P114802   5.241   2.166   1.182  0.5612  0.2456 -0.1812
  974PF6-    F214803   5.118   2.232   1.251 -0.0195 -1.2608  0.1452
  974PF6-    F314804   5.368   2.097   1.114  0.3093 -0.4463  0.2487
  974PF6-    F414805   5.320   2.182   1.318 -0.1276  0.5354 -0.1124
  974PF6-    F514806   5.148   2.142   1.052 -0.0050  0.2224 -0.3804
  974PF6-    F614807   5.282   2.308   1.128 -0.2641 -0.3361  0.0397
  974PF6-    F714808   5.191   2.024   1.240 -0.3065 -0.2550  0.0545
  975PF6-    P114809   0.459   4.093   0.121 -0.1900  0.2473 -0.0729
  975PF6-    F214810   0.503   4.232   0.053 -0.2468  0.1721 -0.0032
  975PF6-    F314811   0.413   3.956   0.181  0.3506  0.8074 -0.1247
  975PF6-    F414812   0.521   4.130   0.261 -0.0892 -0.3928  0.0131
  975PF6-    F514813   0.397   4.048  -0.017 -0.3353  0.9499 -0.5062
  975PF6-    F614814   0.608   4.031   0.087  0.0675  0.0394 -0.3288
  975PF6-    F714815   0.314   4.156   0.160 -0.5113 -0.4647  0.3799
  976PF6-    P114816   2.550   1.704   0.097 -0.2723 -0.1252  0.4863
  976PF6-    F214817   2.594   1.662  -0.046  0.3512  0.5043 -0.2145
  976PF6-    F314818   2.503   1.745   0.247  0.4570 -0.2756 -0.5136
  976PF6-    F414819   2.674   1.807   0.108 -0.2730  0.0923  0.3756
  976PF6-    F514820   2.422   1.610   0.087 -0.1647 -0.2322 -0.0277
  976PF6-    F614821   2.642   1.589   0.164 -0.1304  0.1181  0.3574
  976PF6-    F714822   2.467   1.829   0.035  0.3501  0.1437 -0.0853
  977PF6-    P114823   1.774   1.160   2.696  0.2823  0.0561  0.3260
  977PF6-    F214824   1.779   1.033   2.790 -0.3482  0.1114 -0.2134
  977PF6-    F314825   1.767   1.287   2.597  0.3441 -0.3449  0.2539
  977PF6-    F414826   1.768   1.064   2.569 -0.3604  0.1416  0.2425
  977PF6-    F514827   1.777   1.256   2.826  0.0391  0.7309  0.0425
  977PF6-    F614828   1.936   1.160   2.684 -0.8909 -0.6634  0.0301
  977PF6-    F714829   1.614   1.153   2.697 -0.6142 -0.3822 -0.1378
  978PF6-    P114830   4.838   1.122   0.377  0.3877 -0.1223  0.3076
  978PF6-    F214831   4.743   1.126   0.504  0.1078 -0.0897 -0.1243
  978PF6-    F314832   4.930   1.112   0.245 -0.0489 -0.5064 -0.3330
  978PF6-    F414833   4.738   1.222   0.295  0.0245  0.8163 -0.2818
  978PF6-    F514834   4.938   1.022   0.454 -0.0461  0.4931  0.3117
  978PF6-    F614835   4.753   0.996   0.322  0.1176 -0.0108  0.0336
  978PF6-    F714836   4.923   1.247   0.430  0.3185  0.3524 -0.5118
  979PF6-    P114837   1.539   4.381   3.758  0.2517  0.4637 -0.3816
  979PF6-    F214838   1.685   4.443   3.775  0.4124  0.0324 -0.1148
  979PF6-    F314839   1.389   4.321   3.743 -0.0384 -0.0660  0.2757
  979PF6-    F414840   1.597   4.233   3.772  0.1876 -0.4405  0.1479
  979PF6-    F514841   1.485   4.527   3.744  0.1831  0.0495  0.3978
  979PF6-    F614842   1.559   4.374   3.604  0.7243 -0.6345  0.0720
  979PF6-    F714843   1.526   4.392   3.923  0.1413  0.3681  0.0552
  980PF6-    P114844   4.883   2.455   4.075 -0.2720  0.2264  0.4563
  980PF6-    F214845   4.997   2.559   4.036  0.7241  0.1965  0.8044
  980PF6-    F314846   4.762   2.362   4.122  0.2228 -0.1022 -0.5074
  980PF6-    F414847   4.790   2.585   4.103  0.5540  0.3285  0.6245
  980PF6-    F514848   4.979   2.339   4.039 -0.0545  0.2267 -0.0102
  980PF6-    F614849   4.938   2.459   4.225  0.1853  0.2007 -0.1771
  980PF6-    F714850   4.826   2.453   3.928  0.2332  0.4357 -0.1420
  981PF6-    P114851   1.403   5.398   1.612 -0.2700 -0.1970 -0.4956
  981PF6-    F214852   1.471   5.280   1.524 -0.0460  0.1598  0.2864
  981PF6-    F314853   1.343   5.516   1.696  0.2582  0.0517 -0.0810
  981PF6-    F414854   1.396   5.303   1.743 -0.2272  0.3271  0.2039
  981PF6-    F514855   1.415   5.492   1.486 -0.6148  0.3294  0.1722
  981PF6-    F614856   1.255   5.351   1.571 -0.2903 -0.1485 -0.7125
  981PF6-    F714857   1.544   5.451   1.665 -0.2750  0.2399 -0.3118
  982PF6-    P114858   2.276   3.166   2.265 -0.4952 -0.3029 -0.2408
  982PF6-    F214859   2.286   3.091   2.406  0.0591 -0.1037  0.2791
  982PF6-    F314860   2.265   3.238   2.125 -0.0543  0.3257 -0.1617
  982PF6-    F414861   2.362   3.288   2.322  0.0135  0.4565  0.8484
  982PF6-    F514862   2.196   3.038   2.207  0.0056  0.2846  0.3891
  982PF6-    F614863   2.138   3.241   2.310 -0.4552 -1.3065 -0.0661
  982PF6-    F714864   2.419   3.105   2.218  0.0801  0.3813 -0.0793
  983PF6-    P114865   1.010   2.651   4.990  0.2581  0.0939 -0.1927
  983PF6-    F214866   0.965   2.631   4.840  0.5895 -0.5486 -0.0559
  983PF6-    F314867   1.059   2.673   5.142  0.1106 -0.3052 -0.1160
  983PF6-    F414868   1.150   2.709   4.937  0.4809  0.0947 -0.1703
  983PF6-    F514869   0.869   2.583   5.034  0.5074 -0.1920  0.0378
  983PF6-    F614870   1.074   2.507   4.995 -0.1802 -0.7278  0.2952
  983PF6-    F714871   0.941   2.795   4.994  0.0298  0.2535 -0.1403
  984PF6-    P114872   3.335   1.672   4.470  0.1594  0.2459  0.1506
  984PF6-    F214873   3.410   1.661   4.616  0.0936 -0.3772 -0.3494
  984PF6-    F314874   3.270   1.687   4.317 -0.1327 -0.0365  0.1618
  984PF6-    F414875   3.483   1.676   4.398  0.1566 -0.1080  0.1719
  984PF6-    F514876   3.186   1.673   4.544 -0.5826  0.0504  0.4241
  984PF6-    F614877   3.333   1.829   4.492 -0.0199 -0.7326  0.6552
  984PF6-    F714878   3.332   1.511   4.463  0.0209  0.7284  0.6424
  985PF6-    P114879   1.606   4.462   4.850 -0.6924  0.3326  0.4611
  985PF6-    F214880   1.514   4.337   4.887  0.2205 -0.0266 -0.6455
  985PF6-    F314881   1.699   4.592   4.805 -0.0897  0.2101 -0.5658
  985PF6-    F414882   1.728   4.400   4.939 -0.0452  0.7120  0.0936
  985PF6-    F514883   1.480   4.529   4.764 -0.1657  0.3069 -0.2683
  985PF6-    F614884   1.557   4.541   4.982  0.4464 -0.2689  0.3785
  985PF6-    F714885   1.656   4.381   4.716 -1.3473 -0.1803 -0.3945
  986PF6-    P114886   5.459   2.344   5.324  0.1358  0.2543 -0.3797
  986PF6-    F214887   5.424   2.277   5.468 -0.6740  0.3032 -0.2109
  986PF6-    F314888   5.493   2.406   5.183  0.3372 -0.5354 -0.1978
  986PF6-    F414889   5.561   2.443   5.388 -0.2454  0.3378  0.2292
  986PF6-    F514890   5.348   2.240   5.263 -0.3071  0.8085  0.0980
  986PF6-    F614891   5.344   2.451   5.351 -0.0900  0.0807 -0.1271
  986PF6-    F714892   5.573   2.233   5.302  0.5194 -0.5645  0.5262
  987PF6-    P114893   0.400   4.013   3.209  0.0111  0.5573 -0.1852
  987PF6-    F214894   0.256   4.005   3.136  0.2543 -0.0752 -0.0335
  987PF6-    F314895   0.545   4.016   3.285  0.2076  0.0463 -0.0064
  987PF6-    F414896   0.421   3.860   3.179 -0.0738  0.0790  0.1770
  987PF6-    F514897   0.373   4.169   3.238  0.2295 -0.2003  0.1323
  987PF6-    F614898   0.327   3.976   3.349  0.0661  0.1197  0.0707
  987PF6-    F714899   0.471   4.054   3.069  0.0212 -0.2617 -0.2042
  988PF6-    P114900   2.570   2.820   1.130  0.3206 -0.1170  0.2368
  988PF6-    F214901   2.451   2.717   1.161 -0.0819  0.1967  0.1802
  988PF6-    F314902   2.693   2.925   1.086  0.8106  0.8164 -0.0672
  988PF6-    F414903   2.464   2.914   1.048  0.0946  0.0760  0.0716
  988PF6-    F514904   2.668   2.721   1.210  0.1111 -0.1995  0.2514
  988PF6-    F614905   2.603   2.743   0.996 -0.5101  0.3524  0.0368
  988PF6-    F714906   2.532   2.900   1.260 -0.2508 -0.3820  0.2003
  989PF6-    P114907   1.740   3.221   1.791 -0.3795  0.1388 -0.5062
  989PF6-    F214908   1.704   3.371   1.759 -0.1573 -0.1406  0.4939
  989PF6-    F314909   1.778   3.074   1.834  0.0186  0.3082  0.6205
  989PF6-    F414910   1.741   3.177   1.635 -0.0743  0.4606 -0.3639
  989PF6-    F514911   1.743   3.260   1.947  0.0517  0.3912  0.2799
  989PF6-    F614912   1.584   3.179   1.798  0.0853 -0.2526  0.2948
  989PF6-    F714913   1.892   3.258   1.781  0.2061 -0.3384 -0.4842
  990PF6-    P114914   2.938   3.947   3.414  0.2130  0.4161 -0.4165
  990PF6-    F214915   2.963   3.979   3.259 -0.8217  0.7180  0.0288
  990PF6-    F314916   2.913   3.914   3.570 -0.0508  0.4382  0.0253
  990PF6-    F414917   2.893   3.792   3.383 -0.0240 -0.5373  0.2188
  990PF6-    F514918   2.984   4.102   3.450  0.5831  0.8007 -0.1074
  990PF6-    F614919   2.781   3.996   3.405  0.4305 -0.1014  0.0299
  990PF6-    F714920   3.092   3.905   3.432  0.1098  0.1642  0.5436
  991PF6-    P114921   2.507   3.147   4.285 -0.0664  0.0771 -0.1309
  991PF6-    F214922   2.528   3.083   4.432 -0.2503 -0.2339 -0.0951
  991PF6-    F314923   2.476   3.208   4.130 -0.0135  0.0010 -0.1028
  991PF6-    F414924   2.356   3.180   4.329 -0.1109  0.0917 -0.3459
  991PF6-    F514925   2.660   3.106   4.243  0.5644  0.4752 -0.2058
  991PF6-    F614926   2.452   3.004   4.242 -0.2288  0.4816 -0.5252
  991PF6-    F714927   2.559   3.289   4.333  0.5067  0.0241  0.5840
  992PF6-    P114928   2.911   4.973   2.794 -0.2972 -0.4509 -0.1145
  992PF6-    F214929   2.788   4.936   2.885 -0.4222  0.0032  0.4568
  992PF6-    F314930   3.044   5.008   2.705  0.2576 -0.2386 -0.0969
  992PF6-    F414931   2.937   4.818   2.759  0.0592 -0.5377  0.2192
  992PF6-    F514932   2.893   5.130   2.830  0.0435 -0.3964 -0.3413
  992PF6-    F614933   3.011   4.961   2.925 -0.0194 -0.0856  0.3972
  992PF6-    F714934   2.823   4.985   2.666  0.2920 -0.0148  0.0934
  993PF6-    P114935   0.241   2.695   0.600  0.2307 -0.4111 -0.2598
  993PF6-    F214936   0.261   2.850   0.607  0.1074 -0.1277  0.1982
  993PF6-    F314937   0.221   2.544   0.591 -0.0113  0.2436 -0.2013
  993PF6-    F414938   0.217   2.702   0.445 -0.4481 -0.1381 -0.1130
  993PF6-    F514939   0.251   2.686   0.759 -0.3970  0.0130  0.3151
  993PF6-    F614940   0.082   2.715   0.624  0.4549  0.0819 -0.0672
  993PF6-    F714941   0.398   2.676   0.584  0.2975  0.3929 -0.1580
  994PF6-    P114942   3.831   4.791   3.405  0.2408 -0.3720 -0.0346
  994PF6-    F214943   3.800   4.781   3.563  0.4737  0.3972  0.7190
  994PF6-    F314944   3.859   4.800   3.243 -0.1978  0.2966 -0.6557
  994PF6-    F414945   3.882   4.942   3.418 -0.1999  0.3444 -1.0180
  994PF6-    F514946   3.789   4.636   3.386 -0.1169  0.0395  0.0281
  994PF6-    F614947   3.680   4.834   3.371  0.3896  0.4563 -0.6111
  994PF6-    F714948   3.985   4.749   3.437 -0.1935 -0.4305  0.1727
  995PF6-    P114949   1.264   3.925   1.550 -0.2393  0.1739 -0.1135
  995PF6-    F214950   1.323   4.069   1.511  0.1719 -0.1857 -0.2476
  995PF6-    F314951   1.202   3.781   1.586  0.1606 -0.1715 -0.2476
  995PF6-    F414952   1.403   3.858   1.527 -0.0058 -0.3093 -0.2303
  995PF6-    F514953   1.121   3.992   1.573  0.3226  0.3177  0.2526
  995PF6-    F614954   1.227   3.904   1.393 -0.2195  0.2438  0.2428
  995PF6-    F714955   1.297   3.953   1.704 -0.1450  0.4999  0.3801
  996PF6-    P114956   4.954   0.875   4.427 -0.0050  0.1262  0.0684
  996PF6-    F214957   5.068   0.862   4.536 -0.4349  0.6046  0.1394
  996PF6-    F314958   4.842   0.894   4.319  0.4018  0.4389  0.1076
  996PF6-    F414959   5.047   0.975   4.345 -0.8193  0.3607  0.1175
  996PF6-    F514960   4.856   0.777   4.515 -0.0218 -0.4325  0.5960
  996PF6-    F614961   4.894   0.999   4.509  0.4905 -0.0824  0.1087
  996PF6-    F714962   5.003   0.745   4.348 -0.0730 -0.0983 -0.3501
  997PF6-    P114963   4.858   4.869   2.422  0.0798 -0.3535  0.0633
  997PF6-    F214964   4.890   5.013   2.357 -0.1542 -0.7616 -0.2327
  997PF6-    F314965   4.812   4.727   2.485 -0.2180 -0.5830  0.0432
  997PF6-    F414966   5.004   4.841   2.478  0.0920  0.4309 -0.0140
  997PF6-    F514967   4.708   4.890   2.370 -0.1880 -0.5298  0.1792
  997PF6-    F614968   4.892   4.793   2.280 -0.3323  0.2514 -0.2169
  997PF6-    F714969   4.816   4.948   2.557  0.0054 -0.3170 -0.0680
  998PF6-    P114970   1.207   3.619   4.178 -0.2291  0.3939 -0.1465
  998PF6-    F214971   1.227   3.464   4.232  0.6571  0.1160  0.2877
  998PF6-    F314972   1.196   3.771   4.133  0.2000  0.1377 -0.4071
  998PF6-    F414973   1.064   3.589   4.118 -0.2558  0.1744  0.1175
  998PF6-    F514974   1.349   3.660   4.239 -0.0210  0.6583 -0.0525
  998PF6-    F614975   1.272   3.580   4.038 -0.1276  0.2937 -0.3777
  998PF6-    F714976   1.133   3.656   4.316  0.4300  0.0504  0.0673
  999PF6-    P114977   2.893   0.533   4.206 -0.0822 -0.1249  0.0214
  999PF6-    F214978   3.036   0.547   4.284  0.1344  0.3543 -0.5141
  999PF6-    F314979   2.749   0.525   4.128  0.2756 -0.6394 -0.0726
  999PF6-    F414980   2.916   0.376   4.188 -0.0990  0.2071  0.6777
  999PF6-    F514981   2.873   0.693   4.222  0.3758  0.2256  0.1105
  999PF6-    F614982   2.972   0.550   4.064  0.4639  0.5134  0.0352
  999PF6-    F714983   2.814   0.508   4.339 -0.0220 -0.3436 -0.7293
 1000PF6-    P114984   4.843   3.232   5.018 -0.3221  0.0510  0.3867
 1000PF6-    F214985   4.934   3.355   5.070 -0.5774 -0.1480  0.2062
 1000PF6-    F314986   4.759   3.116   4.967 -0.0045 -0.1065 -0.1839
 1000PF6-    F414987   4.940   3.206   4.898 -0.5592  0.4281  0.2445
 1000PF6-    F514988   4.745   3.254   5.137 -0.5302 -0.1158  0.1585
 1000PF6-    F614989   4.754   3.329   4.928 -0.0054 -0.1127  0.3995
 1000PF6-    F714990   4.933   3.136   5.111 -0.4740 -0.0801 -0.6741
 1001PF6-    P114991   4.099   1.920   4.830  0.5475  0.1136 -0.0922
 1001PF6-    F214992   4.230   1.872   4.755 -0.4441 -0.5079  0.4174
 1001PF6-    F314993   3.968   1.976   4.904  0.1857  0.4346 -0.1604
 1001PF6-    F414994   4.138   1.841   4.968 -0.1608  0.5062  0.1213
 1001PF6-    F514995   4.063   2.000   4.700 -0.2041 -0.0180  0.2010
 1001PF6-    F614996   4.021   1.797   4.773 -0.1725  0.7014  0.7268
 1001PF6-    F714997   4.184   2.047   4.880  0.3882  0.0072 -0.1675
 1002PF6-    P114998   0.489   1.874   2.822  0.1005  0.0526  0.3789
 1002PF6-    F214999   0.404   1.919   2.952 -0.0472 -0.4353 -0.8988
 1002PF6-    F315000   0.570   1.822   2.697  0.0184 -0.2153  0.2080
 1002PF6-    F415001   0.627   1.873   2.906  0.2995 -0.2102  0.0173
 1002PF6-    F515002   0.350   1.889   2.736 -0.3833  0.5027 -0.0292
 1002PF6-    F615003   0.516   2.026   2.785  0.1547 -0.4244  0.8282
 1002PF6-    F715004   0.460   1.720   2.850 -0.3274 -0.1579 -0.2971
 1003PF6-    P115005   4.185   3.820   0.841 -0.2346 -0.0373  0.1417
 1003PF6-    F215006   4.054   3.878   0.766 -0.1571 -0.5149  0.5561
 1003PF6-    F315007   4.317   3.767   0.908 -0.6461 -0.5318  0.0852
 1003PF6-    F415008   4.261   3.835   0.699  0.2012  0.2522 -0.1345
 1003PF6-    F515009   4.094   3.808   0.976  0.0747  0.2511 -0.1928
 1003PF6-    F615010   4.139   3.667   0.793  0.3328 -0.3671 -0.2897
 1003PF6-    F715011   4.225   3.971   0.886 -0.0467  0.0994  0.4235
 1004PF6-    P115012   1.560   2.610   4.172  0.2026  0.2913  0.2654
 1004PF6-    F215013   1.701   2.546   4.111 -0.5403  0.1357  0.2925
 1004PF6-    F315014   1.424   2.681   4.220 -0.2793  0.1455  0.2504
 1004PF6-    F415015   1.612   2.759   4.136  0.2046  0.4441  0.0761
 1004PF6-    F515016   1.511   2.465   4.215 -0.3828 -0.6899  0.2168
 1004PF6-    F615017   1.627   2.631   4.318  0.1064 -0.2147  0.1705
 1004PF6-    F715018   1.496   2.587   4.027 -0.1957 -0.1548  0.1110
 1005PF6-    P115019   5.432   1.142   3.676 -0.1598  0.2226 -0.0001
 1005PF6-    F215020   5.577   1.083   3.712  0.1982  0.1743 -0.1780
 1005PF6-    F315021   5.283   1.192   3.635 -0.8054  0.2218  0.3239
 1005PF6-    F415022   5.365   1.042   3.775  0.0557  0.1021 -0.3249
 1005PF6-    F515023   5.493   1.247   3.574  0.2864  0.4310 -0.2207
 1005PF6-    F615024   5.422   1.035   3.552  0.1010 -0.5046  0.6620
 1005PF6-    F715025   5.446   1.249   3.791  0.2123 -0.6791 -0.1684
 1006PF6-    P115026   2.022   1.233   3.887  0.3025 -0.1900  0.2629
 1006PF6-    F215027   1.883   1.313   3.862  0.5894 -0.4234 -0.8004
 1006PF6-    F315028   2.155   1.153   3.895 -0.7673 -0.4078 -0.3396
 1006PF6-    F415029   1.964   1.173   4.024  0.1495  0.3242 -0.1557
 1006PF6-    F515030   2.074   1.294   3.749 -0.3418 -0.8614 -0.0343
 1006PF6-    F615031   2.087   1.358   3.968  0.7583  0.4057 -0.3837
 1006PF6-    F715032   1.956   1.110   3.813 -0.1283  0.5187 -0.1177
 1007PF6-    P115033   0.334   3.608   1.181  0.0852 -0.1226  0.4815
 1007PF6-    F215034   0.480   3.667   1.176 -0.2527  0.6641  0.4480
 1007PF6-    F315035   0.182   3.559   1.178 -0.0498 -0.1765 -0.2985
 1007PF6-    F415036   0.314   3.676   1.319  0.0790  0.1481  0.7734
 1007PF6-    F515037   0.351   3.541   1.032  0.2018  0.3700 -0.5048
 1007PF6-    F615038   0.380   3.471   1.253 -0.1108 -0.1866  0.4395
 1007PF6-    F715039   0.286   3.737   1.104 -0.1592 -0.0326 -0.2969
 1008PF6-    P115040   0.930   0.716   0.878  0.2436 -0.3891  0.1677
 1008PF6-    F215041   0.994   0.860   0.837 -0.4894 -0.5271  0.4389
 1008PF6-    F315042   0.868   0.581   0.915 -0.5481  0.2063 -0.3292
 1008PF6-    F415043   0.897   0.684   0.722 -0.1048  0.6055 -0.0512
 1008PF6-    F515044   0.965   0.750   1.034  0.4144 -0.0925  0.3620
 1008PF6-    F615045   0.787   0.793   0.898  0.1614  0.3936 -0.3067
 1008PF6-    F715046   1.073   0.651   0.852  0.0874 -0.4197 -0.1984
 1009PF6-    P115047   2.227   4.596   0.190 -0.2638 -0.0394  0.2682
 1009PF6-    F215048   2.140   4.613   0.322 -0.1296 -0.2016 -0.3419
 1009PF6-    F315049   2.316   4.577   0.061  0.4864  0.8557 -0.3335
 1009PF6-    F415050   2.111   4.510   0.121  0.1175 -0.1950  0.0004
 1009PF6-    F515051   2.350   4.683   0.250  0.4507  0.1257 -0.1972
 1009PF6-    F615052   2.295   4.466   0.256 -0.0354  0.1322  0.2450
 1009PF6-    F715053   2.154   4.736   0.129  0.3020  0.3322 -0.0347
 1010PF6-    P115054   2.216   4.956   3.361 -0.0351 -0.2000  0.5095
 1010PF6-    F215055   2.105   4.849   3.401 -0.3726 -0.3272 -0.3873
 1010PF6-    F315056   2.328   5.062   3.308 -0.1878 -0.2629  0.0693
 1010PF6-    F415057   2.225   4.879   3.225 -0.3841  0.2287  0.0834
 1010PF6-    F515058   2.201   5.030   3.504  0.6955  0.3327 -0.2063
 1010PF6-    F615059   2.330   4.866   3.420 -0.0286  0.1480 -0.3307
 1010PF6-    F715060   2.102   5.049   3.291  0.7516 -0.6606  0.0708
 1011PF6-    P115061   0.553   3.746   2.334  0.4884  0.2852 -0.0143
 1011PF6-    F215062   0.553   3.707   2.182  0.0888  0.7746  0.3646
 1011PF6-    F315063   0.563   3.787   2.488  0.0027 -0.0486  0.2933
 1011PF6-    F415064   0.552   3.904   2.293 -0.4587  0.2004 -0.2292
 1011PF6-    F515065   0.547   3.588   2.367 -0.2682 -0.2682 -0.0324
 1011PF6-    F615066   0.717   3.742   2.329 -0.0225 -0.2378 -0.2134
 1011PF6-    F715067   0.393   3.753   2.334 -0.1342  0.3729  0.1808
 1012PF6-    P115068   3.876   0.721   4.912 -0.0404 -0.0868 -0.0482
 1012PF6-    F215069   3.840   0.802   5.044 -0.0552 -0.4053 -0.1304
 1012PF6-    F315070   3.913   0.636   4.785  0.6869  0.1478  0.5770
 1012PF6-    F415071   3.868   0.583   4.994  0.0103 -0.3347  0.3235
 1012PF6-    F515072   3.881   0.856   4.824 -0.2298 -0.0456 -0.2512
 1012PF6-    F615073   4.029   0.736   4.949  0.1956 -0.3095  0.2074
 1012PF6-    F715074   3.716   0.714   4.879 -0.0275  0.3080 -0.1879
 1013PF6-    P115075   3.545   0.866   3.636 -0.0623  0.1748 -0.1309
 1013PF6-    F215076   3.601   0.740   3.722  0.0250 -0.0966 -0.2735
 1013PF6-    F315077   3.492   0.990   3.545 -0.0396  0.3976 -0.1233
 1013PF6-    F415078   3.403   0.799   3.642 -0.2224  0.0901  0.2274
 1013PF6-    F515079   3.690   0.919   3.622 -0.4144  0.5369 -0.0191
 1013PF6-    F615080   3.575   0.780   3.498 -0.1857 -0.3345 -0.1866
 1013PF6-    F715081   3.524   0.955   3.769 -0.2191 -0.3433  0.3130
 1014PF6-    P115082   2.653   3.955   4.879  0.4298 -0.1837  0.2993
 1014PF6-    F215083   2.584   3.958   4.736 -0.9353  0.3907  0.3780
 1014PF6-    F315084   2.720   3.957   5.025  0.5489  0.4066  0.4946
 1014PF6-    F415085   2.656   4.114   4.885 -0.2495  0.5945 -0.7914
 1014PF6-    F515086   2.650   3.798   4.873 -0.1092  0.3532  0.3227
 1014PF6-    F615087   2.796   3.951   4.808 -0.0342  0.3067  0.0195
 1014PF6-    F715088   2.505   3.950   4.949  0.0462 -0.5516 -0.0638
 1015PF6-    P115089   3.446   5.031   4.372 -0.2284  0.1635 -0.2689
 1015PF6-    F215090   3.309   4.952   4.385  0.2813 -0.1905  0.2516
 1015PF6-    F315091   3.589   5.102   4.363 -0.8350  0.0498  0.0700
 1015PF6-    F415092   3.517   4.894   4.419  0.3866  0.1397 -0.8049
 1015PF6-    F515093   3.371   5.163   4.317 -0.1094  0.0296 -0.4460
 1015PF6-    F615094   3.443   5.089   4.525  0.9235  0.0154  0.1289
 1015PF6-    F715095   3.459   4.979   4.222 -0.2574  0.0504 -0.3151
 1016PF6-    P115096   4.476   4.852   0.752  0.1433  0.4826 -0.2745
 1016PF6-    F215097   4.375   4.823   0.636  0.1082 -0.0024  0.4605
 1016PF6-    F315098   4.574   4.887   0.878 -0.1051  0.2615  0.0716
 1016PF6-    F415099   4.412   5.001   0.768  0.0041 -0.8581  0.7434
 1016PF6-    F515100   4.537   4.700   0.736 -0.4484  0.4063  0.1947
 1016PF6-    F615101   4.577   4.905   0.642 -0.2571 -0.0173 -0.4287
 1016PF6-    F715102   4.369   4.799   0.859  0.2894 -0.0833 -0.0792
 1017PF6-    P115103   2.602   0.227   3.238  0.1064 -0.1375  0.5221
 1017PF6-    F215104   2.575   0.077   3.192 -0.3391 -0.4868  0.0778
 1017PF6-    F315105   2.629   0.378   3.283 -0.2717  0.3784 -0.1495
 1017PF6-    F415106   2.491   0.279   3.130 -0.1057  0.5137  0.4858
 1017PF6-    F515107   2.709   0.171   3.343  0.2813  0.0930 -0.1155
 1017PF6-    F615108   2.724   0.236   3.126  0.0427  0.7831 -0.6917
 1017PF6-    F715109   2.490   0.219   3.350  0.3233 -0.6972  0.2331
 1018PF6-    P115110   2.888   0.156   5.124 -0.1631  0.4779 -0.2651
 1018PF6-    F215111   2.871   0.283   5.032 -0.4218 -0.3952  0.6664
 1018PF6-    F315112   2.907   0.027   5.218  0.1565  0.5998 -0.3054
 1018PF6-    F415113   3.025   0.121   5.047  0.0177 -0.0316 -0.3027
 1018PF6-    F515114   2.763   0.189   5.208  0.6680 -0.3050  0.3807
 1018PF6-    F615115   2.795   0.062   5.028  0.2043  0.1787  0.0008
 1018PF6-    F715116   2.974   0.248   5.225  0.3363  0.1637  0.0964
 1019PF6-    P115117   1.475   0.747   4.585 -0.2486  0.0723  0.1670
 1019PF6-    F215118   1.520   0.620   4.504  0.3345 -0.9359 -0.1386
 1019PF6-    F315119   1.425   0.882   4.660 -0.2017  0.1044  0.6776
 1019PF6-    F415120   1.362   0.661   4.658 -0.1814 -0.4907 -0.2947
 1019PF6-    F515121   1.584   0.828   4.507  0.3060 -0.1183 -0.0355
 1019PF6-    F615122   1.367   0.782   4.472  0.1568 -0.2197  0.0523
 1019PF6-    F715123   1.574   0.712   4.708  0.0626  0.3250 -0.1820
 1020PF6-    P115124   1.710   4.163   1.952  0.2863  0.1363  0.2722
 1020PF6-    F215125   1.865   4.123   1.977  0.4274  0.0328  0.1146
 1020PF6-    F315126   1.555   4.198   1.924 -0.6033 -0.1099  0.1383
 1020PF6-    F415127   1.753   4.314   1.924 -0.3422  0.2439 -0.7179
 1020PF6-    F515128   1.672   4.003   1.968  0.0334 -0.1282  0.3623
 1020PF6-    F615129   1.688   4.199   2.107  0.3282  0.7882 -0.0802
 1020PF6-    F715130   1.733   4.137   1.800 -0.3294  0.1182  0.0430
 1021PF6-    P115131   1.427   2.368   2.825  0.0940  0.2824  0.3246
 1021PF6-    F215132   1.294   2.280   2.792 -0.2311  0.1714  0.2423
 1021PF6-    F315133   1.550   2.460   2.862 -0.0430 -0.4471 -0.0044
 1021PF6-    F415134   1.414   2.432   2.678 -0.1594 -0.3870  0.0299
 1021PF6-    F515135   1.435   2.293   2.967  0.0611 -0.0188  0.5092
 1021PF6-    F615136   1.527   2.261   2.765  0.0186 -0.1733 -0.6107
 1021PF6-    F715137   1.333   2.481   2.882 -0.2949 -0.6295 -0.1478
 1022PF6-    P115138   2.475   4.694   4.252 -0.2141 -0.4304 -0.4357
 1022PF6-    F215139   2.518   4.541   4.218  0.3626  0.0789  0.0682
 1022PF6-    F315140   2.436   4.849   4.279 -0.6167  0.7260  0.1105
 1022PF6-    F415141   2.352   4.638   4.337 -0.3596  0.6425 -0.2814
 1022PF6-    F515142   2.600   4.745   4.163  0.1483  0.0952  0.5368
 1022PF6-    F615143   2.376   4.688   4.121  0.1937 -0.2810 -0.1524
 1022PF6-    F715144   2.573   4.694   4.383  0.4955  0.3074  0.0987
 1023PF6-    P115145   1.053   1.803   3.818  0.0853  0.1499 -0.1797
 1023PF6-    F215146   0.896   1.800   3.794 -0.0876 -0.4216  0.1834
 1023PF6-    F315147   1.210   1.809   3.846  0.0626  0.0216 -0.3013
 1023PF6-    F415148   1.077   1.785   3.666  0.0537 -0.0323  0.2969
 1023PF6-    F515149   1.024   1.816   3.974 -0.3435  0.3182 -0.0837
 1023PF6-    F615150   1.048   1.646   3.842 -0.4594  0.0175 -0.0600
 1023PF6-    F715151   1.056   1.959   3.799 -0.1867  0.0893 -0.1741
 1024PF6-    P115152   3.938   0.107   1.567  0.0639  0.0896  0.1928
 1024PF6-    F215153   3.781   0.125   1.523  0.3438 -0.0379 -0.8251
 1024PF6-    F315154   4.085   0.073   1.608 -0.3774 -0.0586 -0.1673
 1024PF6-    F415155   3.936   0.227   1.672 -0.3498  0.5475 -0.1575
 1024PF6-    F515156   3.942  -0.022   1.468  0.8204 -0.0746  0.0108
 1024PF6-    F615157   3.995   0.210   1.456  0.1273  0.5602  0.2706
 1024PF6-    F715158   3.893   0.009   1.689  0.4180  0.2627  0.3753
 1025PF6-    P115159   0.927   4.436   1.103 -0.1384  0.2998 -0.0372
 1025PF6-    F215160   0.927   4.593   1.075  0.6545  0.0236 -0.1382
 1025PF6-    F315161   0.942   4.279   1.123 -0.3188 -0.5921 -0.1747
 1025PF6-    F415162   1.004   4.462   1.240 -0.0995 -0.2264  0.0734
 1025PF6-    F515163   0.858   4.408   0.962 -0.2696 -0.2847 -0.2411
 1025PF6-    F615164   1.071   4.423   1.030 -0.2851 -0.6524 -0.1846
 1025PF6-    F715165   0.784   4.433   1.169  0.2556 -0.3277 -0.1664
 1026PF6-    P115166   0.746   2.894   3.054 -0.3239 -0.0426  0.3089
 1026PF6-    F215167   0.855   2.888   2.937  0.1017 -0.1888  0.1712
 1026PF6-    F315168   0.633   2.903   3.165 -0.0018 -0.2581  0.2595
 1026PF6-    F415169   0.851   2.828   3.166  0.3921  0.0673  0.4071
 1026PF6-    F515170   0.646   2.954   2.950  0.0330 -0.4555 -0.0703
 1026PF6-    F615171   0.695   2.752   3.013 -0.1790  0.3714  0.5209
 1026PF6-    F715172   0.797   3.044   3.092 -0.0356 -0.1946 -0.0577
 1027PF6-    P115173   1.156   3.032   0.352  0.1112  0.1239 -0.0158
 1027PF6-    F215174   1.161   2.900   0.255  0.1493 -0.0881 -0.3786
 1027PF6-    F315175   1.153   3.157   0.448 -0.3305 -0.6437 -0.0301
 1027PF6-    F415176   1.081   3.119   0.237 -0.0856 -0.1829 -0.0241
 1027PF6-    F515177   1.223   2.944   0.467  0.4048 -0.6850  0.0971
 1027PF6-    F615178   1.304   3.072   0.303  0.0208 -0.0045  0.2012
 1027PF6-    F715179   1.012   2.982   0.405 -0.4635  0.0251 -0.8325
 1028PF6-    P115180   0.395   3.253   3.895 -0.2836 -0.0152  0.0081
 1028PF6-    F215181   0.539   3.317   3.896 -0.0911  0.1311  0.6767
 1028PF6-    F315182   0.248   3.191   3.894 -0.0208  0.2782 -0.2910
 1028PF6-    F415183   0.377   3.289   4.049 -0.5919 -0.1361  0.1433
 1028PF6-    F515184   0.414   3.207   3.743  0.1303 -0.1475  0.4676
 1028PF6-    F615185   0.456   3.111   3.941  0.0706 -0.4837  0.4476
 1028PF6-    F715186   0.338   3.391   3.854 -0.2874 -0.1419 -0.2114
 1029PF6-    P115187   4.506   2.648   0.092 -0.6727  0.3483 -0.0802
 1029PF6-    F215188   4.660   2.695   0.081  0.0576  0.3840 -0.1319
 1029PF6-    F315189   4.352   2.601   0.105 -0.0672 -0.2911  0.3686
 1029PF6-    F415190   4.555   2.514   0.167  0.1845  0.3402  0.4357
 1029PF6-    F515191   4.452   2.782   0.009 -0.4077  0.4408  0.5034
 1029PF6-    F615192   4.518   2.572  -0.052  0.3495  0.4189 -0.3864
 1029PF6-    F715193   4.496   2.718   0.237 -0.2990 -0.1107  0.0886
 1030PF6-    P115194   4.176   0.047   4.101 -0.2961 -0.6945  0.1544
 1030PF6-    F215195   4.223  -0.067   4.000 -0.4548  0.4879  0.0597
 1030PF6-    F315196   4.129   0.165   4.205 -0.3314  0.4482  0.2082
 1030PF6-    F415197   4.303   0.135   4.063  0.4275  0.7056 -0.1915
 1030PF6-    F515198   4.052  -0.044   4.138 -0.0563 -0.4292 -0.1813
 1030PF6-    F615199   4.256  -0.025   4.216  0.0800  0.3809  0.0362
 1030PF6-    F715200   4.087   0.114   3.987 -0.6523  0.0209 -0.3168
 1031PF6-    P115201   2.655   5.213   0.846  0.1477  0.5479  0.8342
 1031PF6-    F215202   2.548   5.239   0.957 -0.2747  0.0722 -0.5471
 1031PF6-    F315203   2.766   5.196   0.736 -0.4553  0.2842 -0.1424
 1031PF6-    F415204   2.670   5.062   0.890  0.4815  0.0874 -0.5840
 1031PF6-    F515205   2.634   5.359   0.794 -0.2803 -0.6415 -0.1580
 1031PF6-    F615206   2.763   5.261   0.953 -0.3082 -0.4984 -0.2645
 1031PF6-    F715207   2.541   5.160   0.743 -0.4700  0.1478 -0.0765
 1032PF6-    P115208   3.769   2.105   3.907 -0.6155 -0.1150  0.1492
 1032PF6-    F215209   3.615   2.069   3.890 -0.2616  0.4586  0.2576
 1032PF6-    F315210   3.920   2.152   3.932 -0.5299  0.2064 -0.0835
 1032PF6-    F415211   3.815   1.974   3.827 -0.0390  0.1634  0.1750
 1032PF6-    F515212   3.733   2.239   3.994  0.0969  0.0656  0.5284
 1032PF6-    F615213   3.778   2.025   4.040  0.0950 -0.0791 -0.5879
 1032PF6-    F715214   3.763   2.191   3.774 -0.1074  0.2785 -0.3475
 1033PF6-    P115215   3.722   3.025   3.783  0.1941 -0.0272  0.3074
 1033PF6-    F215216   3.744   3.106   3.917 -0.1268 -0.2155  0.7460
 1033PF6-    F315217   3.688   2.952   3.642  0.9700 -0.1824 -0.7730
 1033PF6-    F415218   3.880   2.997   3.772 -0.1882 -0.3784  0.2330
 1033PF6-    F515219   3.562   3.050   3.800 -0.7703 -0.2542 -0.5967
 1033PF6-    F615220   3.734   3.155   3.690 -0.4580 -0.3889  0.0959
 1033PF6-    F715221   3.706   2.880   3.859 -0.1817 -0.5607 -0.1646
 1034PF6-    P115222   3.183   3.191   3.057 -0.0095 -0.0178  0.3157
 1034PF6-    F215223   3.305   3.287   3.011  0.0190 -0.2289  0.0755
 1034PF6-    F315224   3.069   3.095   3.114 -0.3168  0.0419  0.1703
 1034PF6-    F415225   3.276   3.066   3.026  0.3614  0.2800  0.2449
 1034PF6-    F515226   3.082   3.312   3.086 -0.1610 -0.4416 -0.0637
 1034PF6-    F615227   3.122   3.183   2.912 -0.3606  0.0477 -0.0564
 1034PF6-    F715228   3.237   3.198   3.210  0.2414 -0.6080  0.5647
 1035PF6-    P115229   4.259   1.207   3.694 -0.0420 -0.6495 -0.5350
 1035PF6-    F215230   4.326   1.064   3.663 -0.1585 -0.1590 -0.7080
 1035PF6-    F315231   4.194   1.348   3.726 -0.0842  0.1615 -0.1858
 1035PF6-    F415232   4.300   1.261   3.552  0.2099  0.3247  0.6364
 1035PF6-    F515233   4.214   1.158   3.839 -0.1088  0.1082  0.0442
 1035PF6-    F615234   4.398   1.258   3.756 -0.8866 -0.4868 -0.1548
 1035PF6-    F715235   4.124   1.156   3.628 -0.0202  0.1860 -0.7541
 1036PF6-    P115236   0.590   2.496   4.099 -0.2430 -0.0698  0.1350
 1036PF6-    F215237   0.590   2.464   3.945  0.2709  0.0046 -0.1296
 1036PF6-    F315238   0.584   2.527   4.256  0.0149  0.5354  0.2843
 1036PF6-    F415239   0.586   2.336   4.124 -0.1530  0.6419  0.2869
 1036PF6-    F515240   0.593   2.650   4.065  0.3667  0.6456 -0.2712
 1036PF6-    F615241   0.426   2.498   4.099 -0.3077 -0.3053 -0.1599
 1036PF6-    F715242   0.748   2.499   4.103 -0.0129 -0.1329 -0.0312
 1037PF6-    P115243   5.300   3.255   1.947 -0.0376 -0.2504  0.1958
 1037PF6-    F215244   5.195   3.373   1.921 -0.4340 -0.0453 -0.3305
 1037PF6-    F315245   5.408   3.136   1.966  0.1447  0.0666 -0.4416
 1037PF6-    F415246   5.318   3.307   2.097  0.4778 -0.0051 -0.2596
 1037PF6-    F515247   5.273   3.213   1.797  0.2057  0.0966 -0.4476
 1037PF6-    F615248   5.415   3.347   1.891 -0.4140 -0.1352  0.3482
 1037PF6-    F715249   5.184   3.160   1.999 -0.1062  0.0252 -0.7198
 1038PF6-    P115250   3.542   3.577   5.049  0.0716 -0.1768 -0.0839
 1038PF6-    F215251   3.469   3.714   5.066  0.9722 -0.4220  0.0437
 1038PF6-    F315252   3.615   3.439   5.031  0.1110  0.2556  0.0407
 1038PF6-    F415253   3.407   3.496   5.097 -0.1513 -0.3589 -0.4853
 1038PF6-    F515254   3.677   3.656   5.004  0.4582  0.6130  0.0931
 1038PF6-    F615255   3.592   3.578   5.201  0.4323 -0.5427  0.4487
 1038PF6-    F715256   3.493   3.568   4.900 -0.0064  0.4669  0.0291
 1039PF6-    P115257   3.980   4.006   0.140  0.3952  0.1792 -0.2231
 1039PF6-    F215258   3.865   4.120   0.171 -0.2154  0.1087 -0.2384
 1039PF6-    F315259   4.096   3.896   0.122  0.3321  0.0165  0.2068
 1039PF6-    F415260   3.971   4.036  -0.019  0.6705  0.2786 -0.1626
 1039PF6-    F515261   3.992   3.975   0.302  0.2396  0.0483  0.3806
 1039PF6-    F615262   3.869   3.890   0.135  0.2895  0.1750 -0.5662
 1039PF6-    F715263   4.090   4.121   0.150 -0.0411 -0.1109  0.1525
 1040PF6-    P115264   0.512   0.363   3.310 -0.0902  0.0172 -0.1109
 1040PF6-    F215265   0.553   0.372   3.468 -0.4664 -0.1488  0.2476
 1040PF6-    F315266   0.476   0.354   3.156 -0.2326 -0.1762  0.3898
 1040PF6-    F415267   0.649   0.275   3.280  0.4948 -0.5104 -0.3540
 1040PF6-    F515268   0.375   0.444   3.335 -0.2268 -0.0588 -0.2001
 1040PF6-    F615269   0.587   0.501   3.280  0.3662  0.3644  0.4909
 1040PF6-    F715270   0.429   0.225   3.336  0.4776  0.5758  0.3424
 1041Na+     N115271   0.035   1.185   4.944 -0.2432 -0.1049  0.2433
 1042Na+     N115272   2.045   1.433   5.135 -0.0414 -0.1309  0.2789
 1043Na+     N115273   0.025   2.824   4.262 -0.0906  0.3090  0.1735
 1044Na+     N115274   3.777   2.783   3.517 -0.4557  0.2320 -0.1536
 1045Na+     N115275   2.165   2.655   4.290 -0.2115 -0.1492  0.0047
 1046Na+     N115276   3.083   4.413   4.334  0.2198  0.0022  0.4913
 1047Na+     N115277   4.697   2.327   0.132 -0.2685 -0.2152  0.1500
 1048Na+     N115278   0.694   0.792   1.128  0.2414 -0.2416  0.0139
 1049Na+     N115279   3.585   0.875   4.383  0.0350 -0.6573  0.4424
 1050Na+     N115280   1.669   0.995   0.154 -0.1344  0.2622  0.3798
 1051Na+     N115281   1.794   0.715   4.823 -0.1453  0.0524  0.0111
 1052Na+     N115282   4.522   1.313   4.767 -0.1353  0.1113 -0.0493
 1053Na+     N115283   0.810   3.336   3.291  0.0689 -0.4351  0.5100
 1054Na+     N115284   2.726   1.501   3.659  0.4579 -0.1546 -0.0188
 1055Na+     N115285   4.681   0.081   4.766 -0.4459 -0.4457 -0.1529
 1056Na+     N115286   0.628   3.480   0.454 -0.0248  0.3770  0.0405
 1057Na+     N115287   5.425   2.804   1.295 -0.0915  0.1008 -0.0429
 1058Na+     N115288   4.176   0.422   1.315  0.0686  0.2549  0.5218
 1059Na+     N115289   0.973   4.388   3.337  0.4313 -0.4433  0.2102
 1060Na+     N115290   2.258   2.851   1.608 -0.0556  0.3486  0.4431
 1061Na+     N115291   5.254   1.533   0.799 -0.4152  0.2380 -0.3966
 1062Na+     N115292   3.965   4.640   0.016 -0.1496  0.7124 -0.2033
 1063Na+     N115293   1.297   4.670   1.526  0.6499  0.1672 -0.4017
 1064Na+     N115294   0.947   3.801   1.604 -0.2970  0.3426 -0.3636
 1065Na+     N115295   3.459   0.239   1.994  0.3333 -0.1617 -0.0292
 1066Na+     N115296   3.073   3.146   4.873  0.0884  0.2712  0.5813
 1067Na+     N115297   2.291   0.951   3.209  0.2493  0.0925  0.5398
 1068Na+     N115298   2.277   2.441   2.194  0.4358 -0.3484  0.0218
 1069Na+     N115299   4.142   3.286   5.079 -0.0589  0.2982 -0.4446
 1070Na+     N115300   0.095   3.527   1.803 -0.0977 -0.4137 -0.1669
 1071Na+     N115301   2.124   5.184   2.623 -0.4006 -0.3887  0.4767
 1072Na+     N115302   2.472   4.889   0.234  0.4028  0.0789  0.2644
 1073Na+     N115303   0.215   1.597   2.158  0.2312  0.4618  0.2392
 1074Na+     N115304   4.477   4.232   1.803  0.3034  0.5689 -0.1037
 1075Na+     N115305   1.829   3.502   4.215 -0.1704  0.2155  0.0931
 1076Na+     N115306   2.643   4.530   3.107  0.3331 -0.0171 -0.3830
 1077Na+     N115307   0.365   2.578   3.440 -0.2054 -0.4845  0.0386
 1078Na+     N115308   0.570   2.055   1.009  0.5101  0.0242  0.0848
 1079Na+     N115309   4.101   4.263   0.834  0.0141  0.1080 -0.2208
 1080Na+     N115310   2.292   2.915   0.524 -0.2503  0.0233  0.1388
 1081Na+     N115311   2.553   0.151   5.016  0.3262  0.1096 -0.0675
 1082Na+     N115312   0.940   2.759   0.224 -0.0761  0.1915 -0.6589
 1083Na+     N115313   1.625   2.983   2.454  0.1501  0.5834 -0.0818
 1084Na+     N115314   1.869   0.882   3.914 -0.3613 -0.1761 -0.1810
 1085Na+     N115315   1.219   0.748   2.603 -0.1263 -0.2909  0.1894
 1086Na+     N115316   1.713   4.164   1.075  0.3230  0.2770 -0.1042
 1087Na+     N115317   2.246   0.199   4.320  0.2385  0.1042  0.0518
 1088Na+     N115318   0.147   4.275   0.311  0.0460 -0.5070  0.5861
 1089Na+     N115319   0.730   3.143   4.554  0.4381 -0.1812  0.2175
 1090Na+     N115320   3.598   1.045   0.196 -0.2879  0.0562  0.0580
 1091Na+     N115321   3.978   1.058   3.133 -0.1639  0.6150  0.2036
 1092Na+     N115322   0.383   2.133   0.134 -0.1262 -0.1983  0.5204
 1093Na+     N115323   4.678   5.053   1.084  0.4961  0.4067 -0.0413
 1094Na+     N115324   5.275   5.323   5.142 -0.0438 -0.2236  0.2004
 1095Na+     N115325   4.221   2.649   4.286  0.0729 -0.2314 -0.1478
 1096Na+     N115326   2.170   1.196   1.287 -0.0290  0.3038 -0.0541
 1097Na+     N115327   1.165   2.238   4.333  0.2877 -0.1709 -0.3475
 1098Na+     N115328   3.475   4.349   2.961 -0.1868  0.2208  0.3123
 1099Na+     N115329   4.507   1.870   3.591 -0.3812 -0.1114 -0.0447
 1100Na+     N115330   4.567   3.493   0.236 -0.1573 -0.0044  0.7092
 1101Na+     N115331   1.109   3.013   3.866  0.2281 -0.3641  0.0956
 1102Na+     N115332   3.638   1.452   3.823  0.0306 -0.1117  0.2202
 1103Na+     N115333   0.502   4.309   2.535 -0.1938  0.4592 -0.1963
 1104Na+     N115334   2.648   0.422   0.398 -0.1814  0.2162 -0.4479
 1105Na+     N115335   2.741   5.424   3.375 -0.2070  0.0459 -0.0493
 1106Na+     N115336   3.156   1.332   2.983 -0.4317 -0.1156  0.0453
 1107Na+     N115337   5.180   3.010   0.176 -0.0490  0.0932  0.5238
 1108Na+     N115338   1.265   1.648   2.881 -0.2466 -0.0141  0.0704
 1109Na+     N115339   5.299   1.105   2.980 -0.0059  0.0004  0.3007
 1110Na+     N115340   0.924   1.066   4.826 -0.1172 -0.2366 -0.0241
 1111Na+     N115341   0.987   4.412   5.162  0.3727 -0.1412 -0.1181
 1112Na+     N115342   2.734   3.245   3.601  0.4321 -0.2431 -0.0881
 1113Na+     N115343   3.974   5.218   4.029  0.1488  0.8522  0.8900
 1114Na+     N115344   1.453   3.744   2.341 -0.0703  0.2610 -0.1756
 1115Na+     N115345   3.594   5.487   5.014  0.1729  0.6184  0.1035
 1116Na+     N115346   4.771   3.105   2.580 -0.5595  0.5011 -0.0321
 1117Na+     N115347   4.353   5.142   1.846 -0.0681  0.3932  0.1818
 1118Na+     N115348   1.808   4.525   4.252  0.1019  0.1267  0.0631
 1119Na+     N115349   3.789   5.116   0.851 -0.2160 -0.2456  0.2417
 1120Na+     N115350   1.775   0.043   5.393 -0.2059  0.4771  0.0127
 1121Na+     N115351   0.175   0.867   3.738 -0.0129  0.6454  0.1680
 1122Na+     N115352   3.429   2.041   4.644 -0.3050 -0.0273 -0.4721
 1123Na+     N115353   2.427   4.034   5.452  0.0716  0.5123 -0.0525
 1124Na+     N115354   1.925   3.496   1.683  0.5391 -0.1668  0.4316
 1125Na+     N115355   1.620   2.218   3.519  0.5474 -0.4469 -0.2782
 1126Na+     N115356   1.576   4.535   2.938 -0.0527 -0.3091  0.2748
 1127Na+     N115357   2.671   1.459   0.383  0.5134  0.0102  0.3578
 1128Na+     N115358   3.150   0.637   3.574  0.1037 -0.4274 -0.4454
 1129Na+     N115359   0.359   1.708   3.416 -0.1947 -0.3300  0.1295
 1130Na+     N115360   4.695   2.384   2.343  0.0620  0.0548 -0.0195
 1131Na+     N115361   2.207   3.435   4.941  0.0696  0.2085  0.0013
 1132Na+     N115362   2.076   0.183   1.575 -0.4430  0.0986 -0.3989
 1133Na+     N115363   2.584   3.556   2.884 -0.1507  0.2231 -0.0573
 1134Na+     N115364   3.611   3.688   0.258  0.2227 -0.3034 -0.5831
 1135Na+     N115365   1.941   5.169   3.502  0.0191  0.1288  0.3687
 1136Na+     N115366   0.246   2.920   2.456  0.0107 -0.4356  0.3307
 1137Na+     N115367   0.033   0.088   3.130 -0.4743 -0.3395 -0.0233
 1138Na+     N115368   0.793   5.455   2.283  0.2648  0.0794  0.1562
 1139Na+     N115369   5.211   3.752   3.353 -0.0893 -0.2546 -0.1361
 1140Na+     N115370   4.385   0.726   4.080 -0.2223 -0.5355  0.5299
   5.49633   5.49633   5.49633
