DG-THF-PF6-Na    Amber RESP
15370
    1DG      C1    1   3.396   4.208   1.581  0.0897 -0.0234 -0.0213
    1DG      C2    2   3.966   4.091   1.886  0.3843  0.2867  0.7251
    1DG      H3    3   3.450   4.263   1.504 -0.0015  0.8117 -2.0621
    1DG      H4    4   3.342   4.280   1.639 -1.7943 -3.1560  1.7654
    1DG      H5    5   3.318   4.139   1.534 -0.9285  0.1317 -1.4471
    1DG      H6    6   4.026   4.062   1.973  0.4878  1.5043 -3.5028
    1DG      H7    7   4.021   4.081   1.795 -1.5023  1.9147  1.1636
    1DG      H8    8   3.944   4.196   1.903  0.2071  0.3471 -1.0195
    1DG      O9    9   3.490   4.139   1.659  0.7829  0.0663 -0.2508
    1DG     O10   10   3.842   4.023   1.900  0.5915 -0.3088  0.3158
    1DG     C11   11   3.436   4.052   1.763 -0.2938 -0.9442 -0.1010
    1DG     C12   12   3.843   3.894   1.848 -0.4458 -0.0410  0.7780
    1DG     H13   13   3.331   4.047   1.756 -0.3617 -1.6647 -0.8334
    1DG     H14   14   3.460   4.091   1.862 -1.1030 -1.0481 -1.3490
    1DG     H15   15   3.909   3.838   1.910  1.6987 -3.6337 -0.2287
    1DG     H16   16   3.896   3.896   1.756 -1.0953 -0.7227  0.0046
    1DG     C17   17   3.496   3.909   1.751 -0.4713 -0.4479  0.3525
    1DG     C18   18   3.708   3.830   1.842  0.5713  0.0889  0.1881
    1DG     O19   19   3.640   3.922   1.755 -0.5069 -0.1384  0.0199
    1DG     H20   20   3.466   3.868   1.654 -2.3897  0.6713 -0.4227
    1DG     H21   21   3.456   3.851   1.828  3.0828 -3.1472  1.8978
    1DG     H22   22   3.719   3.726   1.812  1.4470 -0.1361  0.8510
    1DG     H23   23   3.665   3.826   1.940  4.4864 -0.3662  3.0260
    2DG      C1   24   1.838   0.509   5.109  0.6248  0.2255 -0.4084
    2DG      C2   25   2.188   0.765   4.630  0.6260  0.0577 -0.2911
    2DG      H3   26   1.804   0.409   5.125  2.3054  0.7851  2.5790
    2DG      H4   27   1.770   0.587   5.147  2.8767 -2.0114 -0.3611
    2DG      H5   28   1.938   0.509   5.155  0.6350 -1.4044 -1.8337
    2DG      H6   29   2.215   0.663   4.591  1.5119  1.7935 -0.3782
    2DG      H7   30   2.253   0.844   4.583 -1.0121 -2.7647 -1.7757
    2DG      H8   31   2.213   0.756   4.737 -0.5293  1.0717 -0.0044
    2DG      O9   32   1.859   0.533   4.973  0.0291  0.0817  0.4980
    2DG     O10   33   2.044   0.796   4.634 -0.2620  0.2190 -0.1481
    2DG     C11   34   1.740   0.511   4.895  0.0896  0.1827 -0.0777
    2DG     C12   35   1.966   0.735   4.528  0.1960  1.0516  0.0472
    2DG     H13   36   1.669   0.592   4.915  0.4833  2.0842 -1.9488
    2DG     H14   37   1.694   0.421   4.937 -0.8761 -1.4431 -1.6597
    2DG     H15   38   2.026   0.722   4.439  1.4103 -1.9255  0.2911
    2DG     H16   39   1.874   0.802   4.507 -2.8026  1.4195  0.9238
    2DG     C17   40   1.777   0.492   4.747 -0.4636  0.4960 -0.0875
    2DG     C18   41   1.914   0.597   4.572 -0.5656 -0.4837 -0.0556
    2DG     O19   42   1.836   0.614   4.690  0.1027  0.0458  0.1721
    2DG     H20   43   1.689   0.463   4.684  1.5438 -1.2764  2.8085
    2DG     H21   44   1.867   0.423   4.745  1.3593 -1.9486 -0.9786
    2DG     H22   45   1.858   0.562   4.491  2.1775 -1.6468 -0.9887
    2DG     H23   46   1.991   0.524   4.591 -0.9758  2.7535  0.9148
    3DG      C1   47   2.467   0.017   2.145  0.0726 -0.0548 -0.5934
    3DG      C2   48   2.687   0.168   1.557  0.5907  0.4660 -0.5152
    3DG      H3   49   2.411  -0.057   2.203  0.3865 -1.0905  0.8159
    3DG      H4   50   2.403   0.106   2.129  1.1849 -1.3487 -0.5937
    3DG      H5   51   2.564   0.043   2.198  0.7271 -1.7774  3.1923
    3DG      H6   52   2.596   0.222   1.518 -1.9632 -0.9727 -0.8662
    3DG      H7   53   2.722   0.234   1.634 -1.2637  1.5854 -0.5177
    3DG      H8   54   2.762   0.155   1.475  2.0282  1.5249  0.0681
    3DG      O9   55   2.502  -0.026   2.022 -0.2709 -0.3906 -0.7853
    3DG     O10   56   2.650   0.046   1.612  0.4139  0.4406  0.3043
    3DG     C11   57   2.556  -0.166   2.034  0.1900 -0.6731  0.0534
    3DG     C12   58   2.755  -0.054   1.629 -0.5114 -0.3699 -0.8552
    3DG     H13   59   2.477  -0.239   2.024  1.2034  0.3331 -0.2071
    3DG     H14   60   2.597  -0.177   2.129 -1.2161  0.6074 -2.8876
    3DG     H15   61   2.835  -0.013   1.688 -4.7668 -1.6613  1.9840
    3DG     H16   62   2.810  -0.072   1.536  3.7795 -1.4989  2.8880
    3DG     C17   63   2.663  -0.190   1.932 -0.2360  0.8075 -0.1617
    3DG     C18   64   2.702  -0.185   1.688  0.1206 -0.6067 -0.5623
    3DG     O19   65   2.612  -0.164   1.798  0.4183 -0.0231  0.2521
    3DG     H20   66   2.712  -0.289   1.937  1.4469  0.2788  1.7111
    3DG     H21   67   2.732  -0.115   1.958 -1.6157  0.7315 -5.0945
    3DG     H22   68   2.647  -0.246   1.618 -1.8129  3.2407  0.0082
    3DG     H23   69   2.778  -0.243   1.730  1.9396 -0.0223 -1.5601
    4DG      C1   70   1.473   3.247   4.790 -0.5372 -0.0500 -0.1489
    4DG      C2   71   1.134   3.707   5.108  0.8847 -0.1824  0.6963
    4DG      H3   72   1.387   3.207   4.747  1.8891  0.3409 -0.3973
    4DG      H4   73   1.488   3.203   4.890 -2.9841  0.9497  2.1784
    4DG      H5   74   1.551   3.213   4.720 -0.9626 -0.2472  1.1430
    4DG      H6   75   1.184   3.664   5.193 -1.5194 -0.9729  2.5724
    4DG      H7   76   1.098   3.804   5.127  2.3125  1.6045 -0.3409
    4DG      H8   77   1.063   3.634   5.076 -2.8493  0.7501  0.1833
    4DG      O9   78   1.445   3.389   4.792 -0.0605  0.4260 -0.2033
    4DG     O10   79   1.234   3.705   5.004  0.5941 -0.2758 -0.4662
    4DG     C11   80   1.567   3.458   4.799  0.2168 -0.3071  0.0545
    4DG     C12   81   1.329   3.814   5.008 -1.2299 -0.0780 -0.0710
    4DG     H13   82   1.638   3.425   4.726  1.4301 -0.0936  0.0048
    4DG     H14   83   1.594   3.444   4.904  2.2506  0.9439 -0.1193
    4DG     H15   84   1.386   3.807   5.100 -1.1459  2.0014  1.5973
    4DG     H16   85   1.284   3.911   5.008 -2.5024 -0.6444  2.4333
    4DG     C17   86   1.552   3.607   4.786  0.6778  0.7015  0.3051
    4DG     C18   87   1.421   3.788   4.889 -0.1017  0.6866  0.5098
    4DG     O19   88   1.468   3.650   4.891  0.0041 -0.1332 -0.7207
    4DG     H20   89   1.511   3.629   4.686 -1.6439  3.5422 -1.2480
    4DG     H21   90   1.646   3.659   4.786 -1.3102 -4.1335  0.2644
    4DG     H22   91   1.374   3.816   4.794  0.5157  0.3723  0.2511
    4DG     H23   92   1.508   3.857   4.887  0.8477 -0.1212 -2.1978
    5DG      C1   93   2.549   1.079   1.578  0.2684 -0.2754  0.0057
    5DG      C2   94   2.475   1.574   2.138 -0.0009 -0.0671  0.4696
    5DG      H3   95   2.528   1.104   1.476 -1.8840 -0.3011  0.3325
    5DG      H4   96   2.473   1.006   1.608  1.5958 -1.0117  0.2611
    5DG      H5   97   2.642   1.031   1.585 -1.5601 -1.7389 -1.1232
    5DG      H6   98   2.406   1.606   2.213 -0.9813  0.1724 -0.5717
    5DG      H7   99   2.560   1.530   2.180 -1.2361  0.6253 -1.1214
    5DG      H8  100   2.521   1.651   2.078  2.6922 -3.1087  2.1540
    5DG      O9  101   2.539   1.194   1.658 -0.3394  0.4772  0.4173
    5DG     O10  102   2.415   1.471   2.060  0.6478  0.1913 -1.1405
    5DG     C11  103   2.534   1.166   1.799 -0.0916 -0.4140  0.3507
    5DG     C12  104   2.318   1.518   1.970  0.6434  0.8649 -0.1750
    5DG     H13  105   2.639   1.155   1.833  0.9042 -0.4513  0.8551
    5DG     H14  106   2.478   1.076   1.811  0.1131  1.5484 -0.3028
    5DG     H15  107   2.367   1.576   1.887  2.1570 -1.7485  0.9219
    5DG     H16  108   2.244   1.574   2.017 -2.7456 -2.3349 -1.4707
    5DG     C17  109   2.475   1.271   1.887 -0.6444 -0.1922  1.1562
    5DG     C18  110   2.263   1.389   1.905  0.0191 -0.6314  0.4174
    5DG     O19  111   2.355   1.321   1.821  0.2671  0.4314 -0.0479
    5DG     H20  112   2.542   1.360   1.912  0.0901  2.3529  1.5380
    5DG     H21  113   2.452   1.235   1.989  0.2820  2.0637  2.0238
    5DG     H22  114   2.224   1.323   1.983 -0.5199 -1.4112 -0.1152
    5DG     H23  115   2.175   1.416   1.842 -0.5872  0.6923 -0.3328
    6DG      C1  116   3.490   0.115   4.203  0.2393  0.5277 -0.2240
    6DG      C2  117   2.759  -0.304   4.004 -0.4051 -0.3811  0.1654
    6DG      H3  118   3.484   0.122   4.091  1.0572  1.7015  0.8714
    6DG      H4  119   3.538   0.026   4.227 -2.2810  2.2394  1.2661
    6DG      H5  120   3.547   0.205   4.233 -0.3117  1.8026  0.9271
    6DG      H6  121   2.734  -0.248   3.915  0.3332 -1.0439  1.8469
    6DG      H7  122   2.814  -0.385   3.955  0.4440  0.1190 -2.6499
    6DG      H8  123   2.661  -0.349   4.041  0.1600  1.0792 -0.9432
    6DG      O9  124   3.356   0.100   4.251  0.5833  0.0303  0.3566
    6DG     O10  125   2.840  -0.224   4.083 -0.0657 -0.2638 -0.2565
    6DG     C11  126   3.280  -0.015   4.206 -0.1883  0.3591 -0.0722
    6DG     C12  127   2.883  -0.277   4.204  0.3005 -0.0874 -0.5563
    6DG     H13  128   3.342  -0.105   4.204  1.6600 -0.3837  0.5113
    6DG     H14  129   3.258  -0.005   4.095  0.8363  1.8339  2.9276
    6DG     H15  130   2.931  -0.378   4.194  2.9041 -0.5034 -1.4374
    6DG     H16  131   2.787  -0.292   4.263 -4.3957  3.3817  0.8041
    6DG     C17  132   3.147  -0.038   4.280 -0.4963 -0.2717 -0.6271
    6DG     C18  133   2.963  -0.188   4.297  0.1775  0.3103  0.1780
    6DG     O19  134   3.080  -0.150   4.226 -1.1053 -0.1065 -0.2015
    6DG     H20  135   3.091   0.055   4.268  1.7694  1.8341  1.3968
    6DG     H21  136   3.150  -0.065   4.385 -1.1723 -1.5249 -2.6498
    6DG     H22  137   2.904  -0.097   4.308  0.0271  3.6646 -0.7794
    6DG     H23  138   2.978  -0.235   4.394  0.8747  1.0995 -0.2395
    7DG      C1  139   0.565   1.019   0.133 -0.4527  0.2380  0.1141
    7DG      C2  140   0.275   0.303   0.419  0.5164  0.0711  0.3982
    7DG      H3  141   0.649   1.080   0.173  3.3802 -0.2935  0.1256
    7DG      H4  142   0.467   1.071   0.150  1.7714  1.7985  1.1267
    7DG      H5  143   0.576   1.010   0.024  2.1005  0.8490 -0.5732
    7DG      H6  144   0.361   0.233   0.420 -1.3162 -1.6786  3.4999
    7DG      H7  145   0.217   0.266   0.504 -1.5180  1.4843 -0.8086
    7DG      H8  146   0.209   0.283   0.333  0.8760 -0.0204 -1.3780
    7DG      O9  147   0.568   0.894   0.198  0.0692 -0.0915 -0.0457
    7DG     O10  148   0.334   0.434   0.432  0.3947  0.2328 -0.2051
    7DG     C11  149   0.556   0.915   0.339 -0.5210 -0.5843  0.3427
    7DG     C12  150   0.421   0.453   0.317 -0.0642  0.0091 -0.5328
    7DG     H13  151   0.469   0.958   0.387  2.1629 -0.4315  0.5254
    7DG     H14  152   0.636   0.984   0.365 -2.4067 -0.5962 -0.3503
    7DG     H15  153   0.364   0.491   0.236 -0.3854  0.8320  0.8516
    7DG     H16  154   0.470   0.369   0.292  1.4379 -0.4699 -2.6810
    7DG     C17  155   0.579   0.778   0.409 -0.4502 -0.7032 -0.0734
    7DG     C18  156   0.530   0.554   0.359  0.8159 -0.1209  0.0959
    7DG     O19  157   0.480   0.688   0.374 -0.7357 -0.4510  0.0003
    7DG     H20  158   0.580   0.795   0.517  0.2287  1.3867  0.7077
    7DG     H21  159   0.675   0.740   0.373  0.3507 -0.2883 -0.1340
    7DG     H22  160   0.575   0.518   0.452  1.5725  0.1298 -1.3112
    7DG     H23  161   0.613   0.550   0.283 -0.1205  1.8590 -5.0509
    8DG      C1  162   0.022   1.107   1.370 -0.1159 -0.5493  0.1193
    8DG      C2  163   0.408   1.490   0.894  0.1970 -0.3611 -0.6778
    8DG      H3  164  -0.052   1.174   1.413  0.7927 -1.2940  0.6139
    8DG      H4  165   0.116   1.101   1.435  1.3848 -3.2409  0.3461
    8DG      H5  166  -0.020   1.006   1.352  3.0661 -0.0452 -1.7323
    8DG      H6  167   0.477   1.402   0.870  2.3417 -2.1384  0.1030
    8DG      H7  168   0.392   1.553   0.809 -1.1255 -0.6997  3.1001
    8DG      H8  169   0.450   1.547   0.973  0.2602  0.5607 -1.2366
    8DG      O9  170   0.064   1.165   1.249  0.0013 -0.1227 -0.5022
    8DG     O10  171   0.289   1.442   0.948 -0.4327 -0.3715 -0.1686
    8DG     C11  172  -0.049   1.176   1.160 -0.4175  1.1339  0.5031
    8DG     C12  173   0.193   1.416   0.853  0.5613  0.3957 -0.5976
    8DG     H13  174  -0.118   1.235   1.217  1.9226 -0.4397 -1.2482
    8DG     H14  175  -0.095   1.075   1.143 -0.1999  1.0071  0.2899
    8DG     H15  176   0.188   1.319   0.807  1.2716 -1.5149 -0.9676
    8DG     H16  177   0.211   1.479   0.763 -0.0168  0.5292 -1.5616
    8DG     C17  178  -0.021   1.244   1.032 -0.1663  0.3445 -0.0756
    8DG     C18  179   0.059   1.442   0.926 -0.2135  0.0457 -0.0440
    8DG     O19  180   0.060   1.362   1.047 -0.1678 -0.9312 -0.3280
    8DG     H20  181  -0.115   1.256   0.975  1.7916  0.8021 -0.2602
    8DG     H21  182   0.042   1.183   0.972  1.1977  1.1790  1.0781
    8DG     H22  183   0.077   1.537   0.958 -0.0359 -1.6255 -1.6863
    8DG     H23  184  -0.022   1.434   0.847 -0.6274 -1.2146  4.0143
    9DG      C1  185   2.054   2.406   1.050 -0.2564 -0.6946 -0.5011
    9DG      C2  186   1.521   2.884   0.991 -0.3867  0.0560 -0.4774
    9DG      H3  187   2.108   2.342   0.987 -2.3537 -1.6447  0.0887
    9DG      H4  188   1.964   2.349   1.057  1.5920  1.3860 -0.7107
    9DG      H5  189   2.107   2.418   1.150  3.0327 -0.2344  2.0062
    9DG      H6  190   1.506   2.829   1.087  2.2633 -0.8052 -0.1811
    9DG      H7  191   1.509   2.993   0.999 -0.6422  1.1539  1.6670
    9DG      H8  192   1.455   2.848   0.916 -0.5565  0.5598 -0.6156
    9DG      O9  193   2.016   2.529   0.987  0.6136 -0.4811 -0.8982
    9DG     O10  194   1.660   2.876   0.951  0.2815  1.1312 -0.4586
    9DG     C11  195   2.118   2.625   0.953  0.7848  0.6660  0.6378
    9DG     C12  196   1.751   2.928   1.049 -0.4801  0.0458  0.5754
    9DG     H13  197   2.124   2.639   0.842 -0.1761  3.3130  0.1004
    9DG     H14  198   2.214   2.599   0.983  0.5060 -0.4099 -0.5423
    9DG     H15  199   1.728   2.881   1.145 -1.3453 -2.5587  0.8851
    9DG     H16  200   1.731   3.034   1.051  1.0436 -2.0307  1.9015
    9DG     C17  201   2.077   2.766   1.010 -0.4196  0.0495 -0.3489
    9DG     C18  202   1.901   2.920   1.020  0.1996 -0.3392  0.5059
    9DG     O19  203   1.941   2.789   0.982 -0.0935  0.3362 -0.0872
    9DG     H20  204   2.140   2.832   0.961 -2.5727  0.0181 -0.4324
    9DG     H21  205   2.085   2.754   1.123 -1.8684  1.3914  0.6930
    9DG     H22  206   1.927   2.984   0.934 -0.2762  0.8839 -1.6507
    9DG     H23  207   1.972   2.960   1.095 -1.0556  0.7986  1.9664
   10DG      C1  208   3.970   3.178   3.693 -0.7414 -1.2931 -0.2540
   10DG      C2  209   4.002   3.591   4.223  0.3675 -0.1471  0.1071
   10DG      H3  210   3.935   3.103   3.633  0.0692  0.5769  1.0477
   10DG      H4  211   4.078   3.154   3.712 -0.1762 -1.6584 -0.4454
   10DG      H5  212   3.974   3.268   3.635 -0.7547  0.4237  1.6365
   10DG      H6  213   3.963   3.668   4.154  0.1317 -0.5686 -0.7321
   10DG      H7  214   3.988   3.613   4.328 -0.6105  1.4886 -0.8235
   10DG      H8  215   4.113   3.591   4.213 -1.6396  3.9877  0.9263
   10DG      O9  216   3.907   3.188   3.818  0.4996 -0.3037  0.2650
   10DG     O10  217   3.957   3.462   4.188  0.1890 -0.3201 -0.0641
   10DG     C11  218   3.772   3.229   3.819 -0.4357  0.3502  0.0962
   10DG     C12  219   3.831   3.433   4.245  0.4491 -0.4670  0.3180
   10DG     H13  220   3.725   3.151   3.765  3.2416 -1.3107 -1.0508
   10DG     H14  221   3.764   3.324   3.768 -1.2930  0.0941 -1.5969
   10DG     H15  222   3.758   3.519   4.230 -0.7690  1.5632 -1.6636
   10DG     H16  223   3.825   3.437   4.352  0.3872 -1.6145  0.2087
   10DG     C17  224   3.723   3.235   3.961  0.0630 -0.1023  1.1103
   10DG     C18  225   3.755   3.315   4.180  0.5282 -0.6553 -0.0797
   10DG     O19  226   3.798   3.316   4.041  0.1925 -0.3591 -0.5648
   10DG     H20  227   3.724   3.132   3.989  0.1023 -0.8944  0.6140
   10DG     H21  228   3.622   3.274   3.960  0.3324  1.1294  0.0948
   10DG     H22  229   3.788   3.217   4.221  0.8293 -0.4660  1.1730
   10DG     H23  230   3.646   3.338   4.184  0.6847  0.2396  1.0193
   11DG      C1  231   3.202   3.985   1.362  0.4129  0.7782 -0.3775
   11DG      C2  232   2.873   3.755   0.729 -0.1892  0.0595  0.1398
   11DG      H3  233   3.218   3.964   1.469 -1.4095 -1.4624 -0.6107
   11DG      H4  234   3.252   4.078   1.333 -0.1161 -0.6933 -1.1592
   11DG      H5  235   3.250   3.905   1.315  0.2276 -1.2871  1.9896
   11DG      H6  236   2.885   3.848   0.672  1.3604  3.3228  0.7926
   11DG      H7  237   2.963   3.696   0.704 -4.2185  0.5133 -0.8638
   11DG      H8  238   2.789   3.695   0.695  1.9503 -1.9933 -1.0697
   11DG      O9  239   3.063   4.003   1.322  0.2864  0.1618  0.3614
   11DG     O10  240   2.859   3.771   0.874 -0.0998 -0.2680 -0.1397
   11DG     C11  241   2.988   3.884   1.334  0.4940  0.0574 -0.1069
   11DG     C12  242   2.751   3.859   0.913 -0.4024  0.1560 -0.0313
   11DG     H13  243   2.981   3.878   1.442  2.5903  0.8404 -0.9471
   11DG     H14  244   3.053   3.801   1.301  0.8540  2.4380  0.7710
   11DG     H15  245   2.666   3.838   0.857  0.7565 -0.1516 -1.0027
   11DG     H16  246   2.776   3.966   0.883 -1.6896  1.5391 -0.8183
   11DG     C17  247   2.851   3.884   1.274 -0.8406 -0.1930 -0.1035
   11DG     C18  248   2.734   3.852   1.061  0.3882 -1.1802 -0.5488
   11DG     O19  249   2.852   3.869   1.131  0.1331 -0.3980 -0.7995
   11DG     H20  250   2.804   3.979   1.296  0.0315 -0.4653  0.5388
   11DG     H21  251   2.790   3.801   1.320 -0.7407  0.2114  0.6413
   11DG     H22  252   2.651   3.925   1.100  1.6215 -1.4343 -0.6368
   11DG     H23  253   2.712   3.743   1.075  3.0742  3.8624  0.2236
   12DG      C1  254   2.563   0.900   3.114  0.6974 -0.0323 -0.1273
   12DG      C2  255   2.131   0.999   3.700 -0.2185  0.1713  0.1648
   12DG      H3  256   2.572   0.926   3.006  0.6160  2.0651 -0.0228
   12DG      H4  257   2.562   0.790   3.141 -0.5726  0.4499  1.3632
   12DG      H5  258   2.659   0.929   3.159 -1.7732  0.0575  1.1938
   12DG      H6  259   2.072   1.072   3.747 -2.1594  0.8515  0.0400
   12DG      H7  260   2.075   0.906   3.716  3.3230 -2.2305  0.6528
   12DG      H8  261   2.225   0.992   3.754 -2.3524 -3.3098  0.4000
   12DG      O9  262   2.462   0.972   3.190  0.0972 -0.4408  0.6382
   12DG     O10  263   2.145   1.024   3.562  0.5087 -0.0785 -0.4155
   12DG     C11  264   2.448   1.106   3.155  0.3188 -0.2422  0.7048
   12DG     C12  265   2.156   1.161   3.530  0.4024  0.4172  0.1660
   12DG     H13  266   2.471   1.126   3.052 -0.6352 -1.2421 -0.9132
   12DG     H14  267   2.528   1.169   3.203  1.4654 -0.8204  1.0268
   12DG     H15  268   2.231   1.211   3.575 -2.2547  1.9998 -0.5370
   12DG     H16  269   2.060   1.203   3.566  1.6277  0.7535 -0.6083
   12DG     C17  270   2.307   1.148   3.192  0.1114  0.0320 -0.1515
   12DG     C18  271   2.163   1.185   3.379  0.0986 -0.4331 -0.5008
   12DG     O19  272   2.276   1.128   3.327  0.0215  0.3713 -0.0969
   12DG     H20  273   2.234   1.099   3.127  0.1485  1.1924  2.0226
   12DG     H21  274   2.296   1.255   3.173  1.0958  1.6584  0.8963
   12DG     H22  275   2.077   1.122   3.343  0.3542 -0.0476  0.3216
   12DG     H23  276   2.141   1.291   3.351  1.2049  0.0159 -1.5341
   13DG      C1  277   1.634   4.893   4.057  0.5383 -0.7103  0.5035
   13DG      C2  278   1.988   4.411   4.381  0.1277 -0.1246  0.0285
   13DG      H3  279   1.548   4.820   4.067  1.1173 -2.2274 -1.5103
   13DG      H4  280   1.647   4.922   3.949  0.8717  0.6815 -0.0638
   13DG      H5  281   1.606   4.977   4.124  1.5686  0.6533  0.8906
   13DG      H6  282   1.921   4.420   4.468 -1.5110 -1.8658 -0.0835
   13DG      H7  283   1.920   4.367   4.306  1.2995 -1.3486  3.2651
   13DG      H8  284   2.077   4.354   4.401  0.0042 -2.0408  1.7296
   13DG      O9  285   1.762   4.831   4.096  0.3629  0.2968  0.1359
   13DG     O10  286   2.017   4.537   4.321 -0.0667 -0.4831  0.3067
   13DG     C11  287   1.869   4.927   4.094  0.4163 -0.9689 -0.3560
   13DG     C12  288   2.066   4.636   4.410  0.0062 -0.7762 -0.9988
   13DG     H13  289   1.847   5.017   4.156 -0.3916 -0.6180 -0.7193
   13DG     H14  290   1.879   4.963   3.998 -0.2740  0.8510  1.1196
   13DG     H15  291   2.162   4.623   4.455  1.1659  0.1117  0.5124
   13DG     H16  292   1.989   4.668   4.479  0.3419 -0.7290 -0.0369
   13DG     C17  293   1.999   4.863   4.137  0.0815  0.7388  1.1014
   13DG     C18  294   2.089   4.750   4.312 -0.2572 -0.5702  0.1083
   13DG     O19  295   1.970   4.798   4.261 -0.2525 -0.7912 -0.3107
   13DG     H20  296   2.085   4.932   4.131  0.0977 -0.2027 -0.3553
   13DG     H21  297   2.027   4.786   4.070  1.1335  1.1382  0.1292
   13DG     H22  298   2.130   4.837   4.367  0.4777  1.4566 -3.3865
   13DG     H23  299   2.160   4.717   4.236 -0.5993  2.2785 -0.3709
   14DG      C1  300   3.044   5.109   5.191  0.5701 -0.2503  0.1815
   14DG      C2  301   3.134   5.801   4.986 -0.1772  0.3173  0.1758
   14DG      H3  302   2.984   5.024   5.187  0.0087  0.3695 -1.3167
   14DG      H4  303   3.023   5.152   5.290  2.5668  1.5484 -0.5365
   14DG      H5  304   3.143   5.078   5.200  0.2379  0.8208  0.8894
   14DG      H6  305   3.166   5.845   4.891  1.2466  0.7964 -0.2059
   14DG      H7  306   3.061   5.862   5.040 -0.2321  0.9015 -0.8681
   14DG      H8  307   3.222   5.802   5.048  0.2020 -0.3399  0.2576
   14DG      O9  308   3.010   5.204   5.092  0.3627 -0.5264 -0.1242
   14DG     O10  309   3.075   5.675   4.962  0.3361 -0.1349  0.1051
   14DG     C11  310   2.874   5.255   5.097  0.5977 -0.1327  0.3835
   14DG     C12  311   2.956   5.680   4.886  0.5731 -0.2879 -0.0820
   14DG     H13  312   2.844   5.298   5.190  1.0216 -0.0532 -1.3370
   14DG     H14  313   2.812   5.172   5.085 -0.0081  2.0986  1.4985
   14DG     H15  314   2.967   5.727   4.793  1.6067 -1.9289 -0.8547
   14DG     H16  315   2.880   5.730   4.940  0.4413 -2.2050 -0.7531
   14DG     C17  316   2.836   5.344   4.977 -0.0294 -0.8203 -1.1710
   14DG     C18  317   2.899   5.536   4.868  0.4362 -0.9806  0.2537
   14DG     O19  318   2.922   5.455   4.981 -0.3832  0.0184  0.1743
   14DG     H20  319   2.734   5.365   4.993  0.4975 -0.4222 -0.6639
   14DG     H21  320   2.859   5.282   4.882 -2.0844  0.9225 -1.3129
   14DG     H22  321   2.792   5.542   4.854  0.5954 -1.2763 -0.6070
   14DG     H23  322   2.921   5.486   4.773  3.8241 -0.9887  0.8882
   15DG      C1  323   4.285   4.162   0.209 -0.1992 -0.0395 -0.8612
   15DG      C2  324   3.703   3.976   0.088  1.1433  0.0065  0.1560
   15DG      H3  325   4.337   4.239   0.273 -0.5568  1.0197  0.2962
   15DG      H4  326   4.333   4.158   0.108  0.1442 -0.2653  1.0579
   15DG      H5  327   4.299   4.066   0.264  3.2038 -1.8075  1.3301
   15DG      H6  328   3.752   4.017   0.175 -0.0918  3.4812 -0.0820
   15DG      H7  329   3.589   3.974   0.105 -1.4267 -0.7307  3.3638
   15DG      H8  330   3.747   3.876   0.071 -1.6767 -0.4987  1.0973
   15DG      O9  331   4.146   4.191   0.207 -0.0166  0.0585  0.5388
   15DG     O10  332   3.749   4.050  -0.025  0.0339 -0.4371 -0.4571
   15DG     C11  333   4.117   4.320   0.163  0.2020  0.0904 -0.0910
   15DG     C12  334   3.699   4.188  -0.027  0.2893 -0.0668  0.4232
   15DG     H13  335   4.166   4.340   0.061  0.2642  3.3788 -0.9094
   15DG     H14  336   4.173   4.379   0.234  0.9391 -1.0154  1.4116
   15DG     H15  337   3.594   4.182  -0.001  0.8916  0.3937  2.7818
   15DG     H16  338   3.699   4.239  -0.124 -3.0320 -1.3022  0.4018
   15DG     C17  339   3.963   4.346   0.170  0.0058 -0.1349  0.0989
   15DG     C18  340   3.751   4.273   0.090  0.2100  0.1445 -0.3339
   15DG     O19  341   3.891   4.271   0.081  0.1056 -0.4780  0.2935
   15DG     H20  342   3.946   4.449   0.148 -1.8744  1.3052 -3.1206
   15DG     H21  343   3.932   4.331   0.274 -1.6173  1.4941 -0.8282
   15DG     H22  344   3.709   4.377   0.085 -1.4755 -0.8102  2.3279
   15DG     H23  345   3.718   4.240   0.191 -1.1087  2.0935 -0.8029
   16DG      C1  346   0.369   4.778   2.501  1.0007 -0.4693 -0.3639
   16DG      C2  347   0.108   4.190   2.500 -1.2356 -0.5872 -0.0801
   16DG      H3  348   0.409   4.686   2.535  0.6098  2.3731  1.6000
   16DG      H4  349   0.411   4.857   2.564  1.1376 -1.7712 -0.2867
   16DG      H5  350   0.408   4.804   2.403  1.7592 -1.4041  0.9771
   16DG      H6  351   0.068   4.148   2.590  0.7954 -0.8771 -0.6981
   16DG      H7  352   0.033   4.180   2.423  0.4732  0.0159  0.9497
   16DG      H8  353   0.190   4.128   2.470  0.6668  1.0178 -2.1278
   16DG      O9  354   0.233   4.802   2.507  0.4463 -0.0720  0.5792
   16DG     O10  355   0.159   4.319   2.509 -0.0511 -0.6153  0.7952
   16DG     C11  356   0.170   4.802   2.638  0.0075  0.0818 -0.6051
   16DG     C12  357   0.263   4.342   2.609 -0.3467  0.1981  0.0150
   16DG     H13  358   0.065   4.823   2.626  0.0160 -0.6584 -1.0434
   16DG     H14  359   0.210   4.891   2.681 -0.8838  2.2764 -2.3336
   16DG     H15  360   0.351   4.393   2.574  0.4474  0.4597  0.7806
   16DG     H16  361   0.308   4.249   2.658  1.2065 -1.0771  0.4310
   16DG     C17  362   0.196   4.675   2.724  0.4578 -1.1092  0.0047
   16DG     C18  363   0.214   4.432   2.709 -0.2280  0.2122  0.6557
   16DG     O19  364   0.174   4.552   2.651  0.3144 -0.7614  0.3589
   16DG     H20  365   0.133   4.680   2.817 -0.2748 -0.8743  0.2217
   16DG     H21  366   0.300   4.671   2.751  0.5089  1.0163 -0.6857
   16DG     H22  367   0.125   4.394   2.764 -0.7327 -3.1142  0.4375
   16DG     H23  368   0.282   4.443   2.792 -1.7277 -3.0218  0.1922
   17DG      C1  369   4.085   0.826   2.859 -0.0374 -0.2823 -0.2165
   17DG      C2  370   4.389   1.354   2.636  0.7615 -0.2519 -0.3334
   17DG      H3  371   4.024   0.738   2.850  3.4838 -0.6202 -0.0089
   17DG      H4  372   4.048   0.879   2.950 -1.6230 -0.3533 -0.8485
   17DG      H5  373   4.187   0.795   2.884  0.9555  0.3624  0.3401
   17DG      H6  374   4.414   1.465   2.633  1.7185  1.9283  0.6209
   17DG      H7  375   4.362   1.334   2.739  0.6851  2.9321  0.3260
   17DG      H8  376   4.483   1.308   2.622  1.8408  0.1503 -1.5963
   17DG      O9  377   4.090   0.918   2.748  0.2401  0.0976  0.0241
   17DG     O10  378   4.285   1.312   2.546  0.1094  0.9301  1.0408
   17DG     C11  379   3.958   0.947   2.698 -0.0446  0.7003  0.0555
   17DG     C12  380   4.161   1.372   2.569 -0.5261 -0.0121 -0.5439
   17DG     H13  381   3.882   0.974   2.775 -2.1350  0.2137  2.5142
   17DG     H14  382   3.914   0.857   2.652  0.5938 -3.1112  2.2891
   17DG     H15  383   4.154   1.457   2.502 -0.2996 -1.8503  0.1967
   17DG     H16  384   4.154   1.410   2.677 -1.3813 -1.6115  0.1746
   17DG     C17  385   3.968   1.060   2.593 -0.1939 -0.0400  0.7434
   17DG     C18  386   4.037   1.284   2.547  0.0868  0.2418 -0.1152
   17DG     O19  387   4.052   1.171   2.629  0.7086  0.1905 -0.6388
   17DG     H20  388   3.869   1.100   2.575  1.0524 -1.2939  1.7770
   17DG     H21  389   4.014   1.022   2.499  0.0213  1.6114 -1.0575
   17DG     H22  390   3.957   1.338   2.591  0.5942 -0.9675  1.1973
   17DG     H23  391   4.017   1.260   2.442 -0.3080  2.3149  3.2063
   18DG      C1  392   3.529   4.645   3.822  0.3232  0.0568  0.1976
   18DG      C2  393   2.968   4.753   4.264 -0.5285  0.5259 -0.9781
   18DG      H3  394   3.500   4.651   3.719 -1.3131  0.1698  0.3251
   18DG      H4  395   3.535   4.540   3.851  1.5499 -1.8676 -2.0379
   18DG      H5  396   3.625   4.687   3.844  0.5601  0.5189 -1.6786
   18DG      H6  397   2.982   4.687   4.353  0.6366 -2.5965  0.3586
   18DG      H7  398   3.058   4.806   4.254 -1.9231  1.4627 -1.2406
   18DG      H8  399   2.888   4.828   4.281  1.4633  1.8201 -0.5310
   18DG      O9  400   3.423   4.710   3.889  0.2176 -0.0809  0.2921
   18DG     O10  401   2.935   4.665   4.155  0.5078 -0.1095  0.2904
   18DG     C11  402   3.342   4.628   3.972 -0.5521 -0.2197 -0.0925
   18DG     C12  403   2.904   4.733   4.030  0.0768  0.1788 -0.3800
   18DG     H13  404   3.392   4.566   4.044  1.1143  0.7087 -1.4594
   18DG     H14  405   3.297   4.540   3.911 -0.9405 -2.7234 -0.0930
   18DG     H15  406   2.823   4.804   4.055 -0.4701  2.7488  0.4968
   18DG     H16  407   2.861   4.663   3.959 -0.0536  1.0365  2.0300
   18DG     C17  408   3.225   4.712   4.033 -0.5135 -0.0435 -0.2058
   18DG     C18  409   3.021   4.817   3.964  0.0031  0.0602  0.3730
   18DG     O19  410   3.133   4.737   3.938  0.0261 -0.6825  1.0042
   18DG     H20  411   3.243   4.810   4.084 -3.0923  3.8019  0.2469
   18DG     H21  412   3.192   4.644   4.111 -0.6229  0.0586 -0.7581
   18DG     H22  413   2.980   4.857   3.876  1.8331 -1.1715  2.4799
   18DG     H23  414   3.048   4.902   4.028 -0.1676  0.4365  0.7744
   19DG      C1  415   0.227   2.971   0.624 -0.4030  0.0548 -0.5084
   19DG      C2  416   0.739   3.108   0.237 -0.3876  0.0568 -0.8614
   19DG      H3  417   0.215   2.913   0.712  0.1769  4.4220 -1.7941
   19DG      H4  418   0.132   3.004   0.582  1.2836 -1.5980  2.1685
   19DG      H5  419   0.285   3.057   0.648 -1.4758  1.5334  0.1333
   19DG      H6  420   0.813   3.119   0.323 -1.5198  0.4267  1.7589
   19DG      H7  421   0.801   3.110   0.146 -0.3082 -0.4505 -3.3996
   19DG      H8  422   0.668   3.190   0.238  0.6694 -0.6961 -0.9390
   19DG      O9  423   0.311   2.921   0.515 -0.3173 -0.0963  0.4535
   19DG     O10  424   0.665   2.989   0.252 -0.2508  0.6132  0.0545
   19DG     C11  425   0.236   2.850   0.423 -0.2047  0.1655 -0.3536
   19DG     C12  426   0.603   2.954   0.129 -0.5117  0.2642 -0.9253
   19DG     H13  427   0.157   2.914   0.395  0.3094  1.7409  0.9839
   19DG     H14  428   0.180   2.772   0.472  0.5174  1.9756  0.6230
   19DG     H15  429   0.662   2.907   0.049 -1.0103 -0.9441 -0.1124
   19DG     H16  430   0.550   3.033   0.081  0.5577  0.6415  1.1502
   19DG     C17  431   0.317   2.800   0.307 -0.3199 -0.0005 -0.2699
   19DG     C18  432   0.497   2.851   0.161 -0.3510 -1.1446 -0.3056
   19DG     O19  433   0.411   2.895   0.270 -0.6259  0.6784  0.4420
   19DG     H20  434   0.261   2.772   0.223 -1.6983  0.8952  0.5980
   19DG     H21  435   0.381   2.713   0.335 -0.3704  2.0640 -0.3182
   19DG     H22  436   0.435   2.834   0.076  0.5310 -0.0167 -1.3957
   19DG     H23  437   0.539   2.751   0.194  1.3518 -1.8662  0.5291
   20DG      C1  438   0.260   0.410   5.432 -0.4608  0.4719  0.0391
   20DG      C2  439   0.310   0.991   5.174  0.3305  0.1270 -0.7086
   20DG      H3  440   0.216   0.314   5.399 -0.6262 -0.6795 -0.9362
   20DG      H4  441   0.204   0.444   5.518  0.6026 -0.7868 -2.8106
   20DG      H5  442   0.358   0.386   5.462 -0.2333  1.3608 -2.3324
   20DG      H6  443   0.337   1.009   5.278 -2.5375 -0.1616 -0.3292
   20DG      H7  444   0.404   1.000   5.122  1.0194 -0.1010  1.3666
   20DG      H8  445   0.248   1.074   5.144 -1.7439 -0.4889  0.1524
   20DG      O9  446   0.239   0.505   5.321 -0.1699 -0.0339 -0.0802
   20DG     O10  447   0.255   0.862   5.151  0.1413 -0.4279  0.3660
   20DG     C11  448   0.310   0.458   5.204  0.2026  1.4142 -0.2109
   20DG     C12  449   0.228   0.844   5.014  0.1166  0.2818 -0.3376
   20DG     H13  450   0.252   0.376   5.171  1.4035  1.1825  2.0293
   20DG     H14  451   0.409   0.442   5.238 -4.1032  3.2323 -2.3554
   20DG     H15  452   0.321   0.824   4.953 -0.7871 -1.6048  0.0202
   20DG     H16  453   0.182   0.929   4.959  0.1934  0.2956 -0.2094
   20DG     C17  454   0.300   0.566   5.098 -0.6002 -0.2529 -0.0881
   20DG     C18  455   0.147   0.715   4.984 -0.8502  0.6027  0.0951
   20DG     O19  456   0.166   0.614   5.089  0.5152 -0.4970  0.0050
   20DG     H20  457   0.343   0.539   4.996  2.8363 -1.3045  0.3804
   20DG     H21  458   0.371   0.648   5.126 -1.1854 -0.4134  0.3124
   20DG     H22  459   0.044   0.741   4.986 -1.0914  0.6911 -0.1949
   20DG     H23  460   0.183   0.691   4.881  0.9220 -0.4576 -0.1281
   21DG      C1  461   2.519   3.398   2.911  0.3417  0.3139 -0.4247
   21DG      C2  462   1.805   3.689   2.901  0.7780 -0.4889  0.2432
   21DG      H3  463   2.626   3.395   2.954  1.1691  0.8491 -1.3275
   21DG      H4  464   2.519   3.440   2.805  2.7773  1.7224  0.9790
   21DG      H5  465   2.479   3.298   2.913 -0.2285  0.9620 -0.3018
   21DG      H6  466   1.783   3.581   2.903  0.7606  1.4975  3.9136
   21DG      H7  467   1.761   3.738   2.983  0.9165 -1.5809  1.3286
   21DG      H8  468   1.763   3.731   2.807  2.0260  2.4268  0.7098
   21DG      O9  469   2.430   3.465   2.997 -0.3843  0.6687 -0.5795
   21DG     O10  470   1.946   3.705   2.901 -0.2355 -0.2682  0.3120
   21DG     C11  471   2.451   3.605   2.999  0.2416  0.1677  0.5454
   21DG     C12  472   2.003   3.631   3.008 -0.5444  0.7672 -0.5289
   21DG     H13  473   2.546   3.638   2.960  1.5662 -2.4285  0.4724
   21DG     H14  474   2.452   3.636   3.099  1.5163  0.2608 -3.1238
   21DG     H15  475   2.009   3.520   2.989 -3.9520  0.8237 -0.4530
   21DG     H16  476   1.944   3.661   3.095  1.4635 -0.3488  0.6522
   21DG     C17  477   2.351   3.687   2.924  0.6263  0.0994 -0.5586
   21DG     C18  478   2.148   3.683   3.037  0.1348 -0.1172 -0.3585
   21DG     O19  479   2.216   3.645   2.923 -0.6088 -0.1304  0.6103
   21DG     H20  480   2.367   3.678   2.815  1.2773  1.0013  0.3200
   21DG     H21  481   2.358   3.792   2.956 -0.8907 -0.2280 -0.0130
   21DG     H22  482   2.152   3.795   3.045  0.1133  0.4681 -0.3575
   21DG     H23  483   2.197   3.642   3.124  1.5424 -1.9410 -2.2928
   22DG      C1  484   5.354   4.702   3.843 -0.2213  0.5359 -0.4311
   22DG      C2  485   4.989   4.735   4.401  0.0775  0.0209  0.1081
   22DG      H3  486   5.288   4.640   3.775  3.6030  1.5785 -0.0950
   22DG      H4  487   5.454   4.695   3.803  1.4323 -1.7704  0.3221
   22DG      H5  488   5.317   4.804   3.833  0.6769  0.2998 -0.9076
   22DG      H6  489   4.906   4.671   4.425  0.9793  0.1373 -1.1554
   22DG      H7  490   5.019   4.793   4.499  0.2583  0.8876  2.0031
   22DG      H8  491   4.968   4.815   4.329  0.9169 -0.6805  1.0115
   22DG      O9  492   5.348   4.660   3.979 -0.4449  0.1362 -0.2724
   22DG     O10  493   5.103   4.677   4.350 -0.2796  0.0230 -0.8419
   22DG     C11  494   5.385   4.524   3.998  0.5708 -0.2196  0.9306
   22DG     C12  495   5.146   4.543   4.409 -1.1287  0.2161 -0.5485
   22DG     H13  496   5.480   4.516   3.942 -0.0623 -0.2353 -0.0762
   22DG     H14  497   5.319   4.454   3.947 -0.2287 -0.9571  1.8870
   22DG     H15  498   5.069   4.475   4.386 -0.6672  2.3049  0.9716
   22DG     H16  499   5.147   4.557   4.518 -0.0440  2.3137  1.0854
   22DG     C17  500   5.384   4.477   4.140  0.0637  0.0597  0.0683
   22DG     C18  501   5.279   4.503   4.348  0.0057  0.2540 -0.9868
   22DG     O19  502   5.266   4.522   4.206  0.4522 -0.3923  0.1972
   22DG     H20  503   5.472   4.519   4.197 -2.8588  0.4588 -3.5397
   22DG     H21  504   5.390   4.367   4.156  2.6118  2.3519 -1.0022
   22DG     H22  505   5.351   4.571   4.389 -1.8871  2.0512 -0.1218
   22DG     H23  506   5.304   4.399   4.369  4.1261 -2.2189  1.8899
   23DG      C1  507   4.918   3.524   2.552  0.4906  0.2378 -0.6205
   23DG      C2  508   4.759   3.141   2.083  0.6345  0.0710 -0.6077
   23DG      H3  509   4.990   3.586   2.494 -0.4906  1.2974  0.0470
   23DG      H4  510   4.929   3.545   2.654 -1.3249  2.9499  1.4185
   23DG      H5  511   4.809   3.557   2.532 -1.0264 -0.6124  2.9528
   23DG      H6  512   4.716   3.060   2.033 -0.2265  0.0220  2.1038
   23DG      H7  513   4.686   3.225   2.090  0.3895  3.0837  1.1437
   23DG      H8  514   4.839   3.179   2.020 -1.9708 -0.2334 -1.4389
   23DG      O9  515   4.918   3.389   2.516 -0.8308 -0.2597 -0.3653
   23DG     O10  516   4.818   3.094   2.211 -0.1155 -0.5844  0.2033
   23DG     C11  517   5.028   3.316   2.568 -0.1044  0.4537 -0.1782
   23DG     C12  518   4.948   3.037   2.201 -0.7836 -0.7883  0.2089
   23DG     H13  519   5.026   3.334   2.671  1.6480 -0.7050 -0.0852
   23DG     H14  520   5.112   3.363   2.518 -2.6534  1.7941 -1.2337
   23DG     H15  521   5.015   3.085   2.122 -3.3365  2.3469  0.4361
   23DG     H16  522   4.933   2.937   2.161 -2.1356  1.1387 -0.5053
   23DG     C17  523   5.031   3.164   2.532  0.6251  0.5394  0.1764
   23DG     C18  524   5.017   3.033   2.344 -0.0926  0.1487  0.2138
   23DG     O19  525   4.973   3.152   2.406  0.3913 -0.0587  0.4798
   23DG     H20  526   4.965   3.102   2.597  2.4282  2.2019  0.1562
   23DG     H21  527   5.128   3.118   2.535  1.8109 -0.5554 -0.1237
   23DG     H22  528   4.969   2.953   2.404  1.1352 -1.5755 -0.0010
   23DG     H23  529   5.128   3.022   2.340 -0.5383 -0.4970  0.7111
   24DG      C1  530   0.235   3.744   5.209 -0.1284  0.2213 -0.1943
   24DG      C2  531  -0.309   3.401   5.546  0.5583  0.2512  0.0570
   24DG      H3  532   0.304   3.756   5.296  0.7602  0.1383 -0.3084
   24DG      H4  533   0.247   3.829   5.144 -0.8478  0.8997 -1.7514
   24DG      H5  534   0.265   3.661   5.156  1.2857  0.8481 -1.5834
   24DG      H6  535  -0.332   3.393   5.649  2.4466 -0.5186  2.2764
   24DG      H7  536  -0.400   3.393   5.489  1.7131 -3.9902 -1.7550
   24DG      H8  537  -0.254   3.322   5.511 -0.5812  1.1449  1.2241
   24DG      O9  538   0.097   3.737   5.243  0.2138  0.0882  1.0461
   24DG     O10  539  -0.238   3.514   5.506  0.3733 -0.0540 -0.5822
   24DG     C11  540   0.061   3.848   5.320 -0.4016  0.2143 -0.3089
   24DG     C12  541  -0.297   3.628   5.557  0.1353  0.6784  0.7703
   24DG     H13  542   0.103   3.933   5.264  0.9636 -3.5578 -0.8473
   24DG     H14  543   0.116   3.826   5.412  0.5127  1.5118  0.2552
   24DG     H15  544  -0.319   3.633   5.664  1.9829 -0.1609 -1.1057
   24DG     H16  545  -0.392   3.657   5.501 -1.5828  2.2453  0.1880
   24DG     C17  546  -0.091   3.869   5.359 -0.1138  0.1055  0.0526
   24DG     C18  547  -0.206   3.747   5.538  0.1445  0.5018  0.0867
   24DG     O19  548  -0.150   3.745   5.406  0.0871 -0.2562  0.4284
   24DG     H20  549  -0.129   3.895   5.261 -1.1082  1.9234 -0.4346
   24DG     H21  550  -0.105   3.945   5.429 -1.7900  2.9188 -1.8662
   24DG     H22  551  -0.275   3.826   5.548  3.5427 -0.0747  1.3960
   24DG     H23  552  -0.125   3.763   5.601 -0.9327 -1.7378  1.7922
   25DG      C1  553   0.500   4.068   4.499  0.0561  1.0431 -0.7842
   25DG      C2  554   0.480   4.580   4.055 -0.2881  0.1984 -0.4227
   25DG      H3  555   0.551   4.048   4.594  0.0516  0.4027 -3.4046
   25DG      H4  556   0.478   3.973   4.454 -2.4804  1.5079 -2.1853
   25DG      H5  557   0.403   4.115   4.509 -1.7781 -0.1580  0.2478
   25DG      H6  558   0.416   4.499   4.028 -1.5031  1.5397  1.7114
   25DG      H7  559   0.416   4.641   4.116 -1.5278 -1.9638 -2.1323
   25DG      H8  560   0.515   4.630   3.969 -0.4573 -0.7905 -2.3851
   25DG      O9  561   0.571   4.133   4.394  0.2857 -0.4641  0.0147
   25DG     O10  562   0.594   4.541   4.131 -0.3381 -0.2977 -0.4078
   25DG     C11  563   0.705   4.082   4.352  0.2887 -0.8429  0.2890
   25DG     C12  564   0.686   4.456   4.062  0.4691 -0.7411 -0.5346
   25DG     H13  565   0.698   4.004   4.285 -0.8089  1.0577  3.4651
   25DG     H14  566   0.751   4.045   4.440 -1.2367  2.0299  1.2561
   25DG     H15  567   0.746   4.519   3.990 -1.3501 -1.0290 -2.7306
   25DG     H16  568   0.637   4.391   3.998  0.2855  2.9373  0.3312
   25DG     C17  569   0.788   4.199   4.296  0.2072  0.5131 -0.1459
   25DG     C18  570   0.791   4.384   4.146 -0.1551 -0.1009 -0.5068
   25DG     O19  571   0.709   4.282   4.211 -0.6686 -0.5773 -0.0583
   25DG     H20  572   0.879   4.167   4.247 -1.2140  2.8141 -1.4703
   25DG     H21  573   0.821   4.260   4.382  0.7235 -1.0578  0.2873
   25DG     H22  574   0.864   4.336   4.083 -3.2026 -2.5373  0.3659
   25DG     H23  575   0.837   4.450   4.224 -1.1495  1.2036 -0.0149
   26DG      C1  576   3.070   0.805   1.280 -0.2722 -0.2945 -0.0401
   26DG      C2  577   2.499   0.650   1.085 -0.2187 -0.9195  0.0551
   26DG      H3  578   3.080   0.815   1.172 -0.1450 -3.4608  1.2116
   26DG      H4  579   3.053   0.700   1.289  2.8296 -0.0214  1.4816
   26DG      H5  580   3.161   0.835   1.334  2.3109 -0.3472  0.3684
   26DG      H6  581   2.539   0.625   0.989 -0.3525 -0.5573 -1.5465
   26DG      H7  582   2.543   0.562   1.137 -0.8146 -0.4255 -0.0421
   26DG      H8  583   2.394   0.640   1.090  1.2728  0.3901  0.3065
   26DG      O9  584   2.950   0.872   1.312  0.4241 -0.5378 -0.4767
   26DG     O10  585   2.546   0.767   1.151  0.1947 -0.0071 -0.2317
   26DG     C11  586   2.941   1.013   1.267 -0.1037 -0.6567  0.1924
   26DG     C12  587   2.545   0.875   1.065  0.0976 -1.0327  0.4923
   26DG     H13  588   2.963   1.023   1.159  2.0992 -0.5064  1.6438
   26DG     H14  589   3.003   1.084   1.319 -1.4765  2.5255 -0.6640
   26DG     H15  590   2.437   0.887   1.034 -1.6401 -1.0378 -1.1974
   26DG     H16  591   2.600   0.866   0.971  1.1140  0.5529 -0.1754
   26DG     C17  592   2.791   1.055   1.269  0.2658  0.0146 -0.1178
   26DG     C18  593   2.601   0.995   1.140  0.0394  0.2093 -0.3582
   26DG     O19  594   2.727   0.958   1.192 -0.3757  0.2327  0.4776
   26DG     H20  595   2.779   1.162   1.240 -0.9286 -0.9481 -1.7021
   26DG     H21  596   2.757   1.047   1.372  2.6333  1.4567 -1.0920
   26DG     H22  597   2.616   1.077   1.073 -0.4042 -2.1137  1.2149
   26DG     H23  598   2.547   1.012   1.238  1.7643  2.2063  1.1375
   27DG      C1  599   4.985   2.009   4.733  1.0552  1.2317  0.9725
   27DG      C2  600   4.931   1.381   5.025  0.1248 -0.0725  0.0797
   27DG      H3  601   4.916   1.949   4.668  0.4975  0.4790 -0.1575
   27DG      H4  602   5.079   2.021   4.670  2.5441 -1.4380  0.0920
   27DG      H5  603   4.954   2.116   4.742  1.4234 -0.9819 -2.0337
   27DG      H6  604   4.884   1.336   5.111 -1.9238  1.6094 -1.0474
   27DG      H7  605   4.871   1.341   4.940  0.1070  0.3692 -1.0148
   27DG      H8  606   5.031   1.344   4.993 -4.1316  0.8840  2.7251
   27DG      O9  607   4.990   1.937   4.853  0.4087  0.4241  0.2517
   27DG     O10  608   4.932   1.527   5.039  0.3478 -0.0611 -0.3356
   27DG     C11  609   5.070   1.995   4.951  0.0851 -0.6001  0.5351
   27DG     C12  610   5.007   1.567   5.152  0.6501  0.0781 -0.0401
   27DG     H13  611   5.037   2.098   4.968  1.1310  1.2996 -1.1167
   27DG     H14  612   5.175   2.002   4.921  1.9240 -2.2356 -2.0181
   27DG     H15  613   5.115   1.544   5.154 -1.2492 -0.2583  2.5325
   27DG     H16  614   4.971   1.523   5.242  1.0639  0.4317 -0.4630
   27DG     C17  615   5.058   1.923   5.081 -0.4874  0.2480  0.0444
   27DG     C18  616   4.994   1.714   5.177  0.2846 -0.8593  0.0823
   27DG     O19  617   5.038   1.782   5.052  0.3088  0.0631  0.7071
   27DG     H20  618   4.978   1.960   5.146  1.0716  0.0295  1.5841
   27DG     H21  619   5.141   1.936   5.143 -1.7229 -2.7038  0.6269
   27DG     H22  620   4.892   1.745   5.211 -1.2260  1.4851  0.2547
   27DG     H23  621   5.060   1.748   5.255  0.7136  0.1671  0.8963
   28DG      C1  622   2.196   4.974   1.767  0.4161 -0.3348 -0.1348
   28DG      C2  623   2.546   4.401   1.874 -0.0152 -0.4050 -0.4057
   28DG      H3  624   2.092   4.998   1.771  0.3235  3.9268 -0.6515
   28DG      H4  625   2.230   4.949   1.665  1.0410  0.9201 -2.1213
   28DG      H5  626   2.240   5.066   1.801 -1.4577 -2.4506  0.5573
   28DG      H6  627   2.523   4.297   1.889 -0.2769 -1.1771 -0.4012
   28DG      H7  628   2.578   4.408   1.768  0.9587  0.2214  0.4623
   28DG      H8  629   2.626   4.433   1.944  0.9497 -0.7355  0.7234
   28DG      O9  630   2.234   4.869   1.855  0.0457 -0.2392 -0.2484
   28DG     O10  631   2.424   4.469   1.902 -0.1004  0.2623 -0.0189
   28DG     C11  632   2.205   4.882   1.997 -0.5929 -0.0519 -0.4717
   28DG     C12  633   2.373   4.450   2.034 -0.5972  0.7785 -0.4230
   28DG     H13  634   2.118   4.949   2.010 -3.0747  2.0891 -1.2890
   28DG     H14  635   2.295   4.929   2.037  1.0303  1.5094 -2.1338
   28DG     H15  636   2.436   4.490   2.106  0.4020  0.5746 -1.8062
   28DG     H16  637   2.363   4.343   2.050 -2.5574 -1.3237  0.2803
   28DG     C17  638   2.171   4.743   2.055  0.1265 -0.3036 -0.0626
   28DG     C18  639   2.239   4.512   2.046 -0.3516 -0.0082 -0.2254
   28DG     O19  640   2.261   4.649   2.000  0.0285  0.4215  0.1521
   28DG     H20  641   2.069   4.713   2.029 -1.0368 -1.9903 -0.1653
   28DG     H21  642   2.177   4.746   2.165  1.8952  0.9443 -0.9535
   28DG     H22  643   2.161   4.457   2.000 -0.7576  0.1190 -2.2292
   28DG     H23  644   2.217   4.513   2.154  0.3000 -1.6665  0.8339
   29DG      C1  645   4.437   1.423   0.890 -0.2595 -0.4993 -0.0283
   29DG      C2  646   4.753   0.954   0.510  0.6019  0.7359  0.0739
   29DG      H3  647   4.402   1.377   0.980 -0.7121  5.2561 -3.2097
   29DG      H4  648   4.392   1.517   0.876 -1.6134 -1.3672  0.4726
   29DG      H5  649   4.545   1.433   0.899  1.0840  0.0712  0.8224
   29DG      H6  650   4.829   0.920   0.581  2.5934 -2.8548 -2.0665
   29DG      H7  651   4.714   0.861   0.456 -1.5494 -3.2126  0.8435
   29DG      H8  652   4.786   1.026   0.428  1.4868  1.9664 -1.3173
   29DG      O9  653   4.424   1.345   0.766  0.0288  0.3437  0.3459
   29DG     O10  654   4.639   1.014   0.582  0.1171  0.1848  0.7591
   29DG     C11  655   4.290   1.303   0.737  0.7781  0.2521  0.2376
   29DG     C12  656   4.513   0.938   0.579 -0.1024  0.5553 -0.6206
   29DG     H13  657   4.220   1.383   0.716 -1.3437  1.6187 -0.2177
   29DG     H14  658   4.238   1.256   0.822 -0.2149 -2.0215 -0.6276
   29DG     H15  659   4.539   0.834   0.620  2.0987  1.2308  1.8961
   29DG     H16  660   4.480   0.918   0.478 -1.7193 -0.6015  1.8804
   29DG     C17  661   4.278   1.210   0.615  0.0543 -0.6262 -0.3076
   29DG     C18  662   4.418   1.019   0.657 -0.4726  0.3486 -0.6223
   29DG     O19  663   4.399   1.131   0.583  0.3402  0.0504 -0.0389
   29DG     H20  664   4.258   1.281   0.531 -1.9222  2.2048 -1.6874
   29DG     H21  665   4.191   1.146   0.618  0.0959 -1.4728 -0.2085
   29DG     H22  666   4.328   0.964   0.661  1.2403 -0.4355 -2.5492
   29DG     H23  667   4.449   1.046   0.758 -1.5803 -0.8878 -1.1076
   30DG      C1  668   1.747   0.709   3.599 -0.3677 -0.7910  0.9367
   30DG      C2  669   1.201   0.492   3.330  0.1854  0.2522  1.0783
   30DG      H3  670   1.814   0.791   3.639  0.1757 -0.7735  2.7850
   30DG      H4  671   1.782   0.681   3.500  0.0154 -1.1264 -0.5692
   30DG      H5  672   1.762   0.634   3.671 -1.6632  0.6915  1.5570
   30DG      H6  673   1.106   0.520   3.281 -2.7736  1.9246  0.9236
   30DG      H7  674   1.269   0.473   3.249 -0.1185  0.6461  2.4158
   30DG      H8  675   1.192   0.394   3.367  2.3395  0.8553  0.1490
   30DG      O9  676   1.608   0.743   3.600 -0.6801  0.1771  0.3157
   30DG     O10  677   1.240   0.600   3.400  0.0406 -0.1956  0.3547
   30DG     C11  678   1.555   0.800   3.720  0.5357 -0.6922  0.0899
   30DG     C12  679   1.166   0.630   3.513  0.3730 -0.6571  0.0412
   30DG     H13  680   1.616   0.886   3.761  1.0430 -1.9900  2.1079
   30DG     H14  681   1.552   0.718   3.793  0.6403 -1.6239 -1.6412
   30DG     H15  682   1.188   0.559   3.593  0.4486 -0.1145  2.4023
   30DG     H16  683   1.060   0.635   3.491  1.2764  1.5964  0.3262
   30DG     C17  684   1.416   0.854   3.678 -0.5834  0.3935 -0.1512
   30DG     C18  685   1.219   0.764   3.566  0.2816  0.5531 -0.4395
   30DG     O19  686   1.361   0.748   3.611  0.3427 -0.6474  0.5116
   30DG     H20  687   1.441   0.940   3.612 -1.6825  3.9379 -0.7707
   30DG     H21  688   1.363   0.898   3.767 -2.8851  0.6845 -0.0057
   30DG     H22  689   1.210   0.845   3.494 -4.2110 -0.6411  1.0656
   30DG     H23  690   1.160   0.806   3.650  2.9969 -2.3005  1.2019
   31DG      C1  691   2.072   1.593   0.029 -0.6504 -0.4017  0.3857
   31DG      C2  692   2.398   1.961   0.388  0.2386  0.5920  0.4286
   31DG      H3  693   2.060   1.551   0.129  0.7038 -1.6780 -1.4874
   31DG      H4  694   2.030   1.535  -0.051  3.2414 -0.3901  1.6337
   31DG      H5  695   2.020   1.686   0.045 -2.3060 -0.5703 -0.9741
   31DG      H6  696   2.457   1.995   0.467 -3.1339  1.1899  0.3874
   31DG      H7  697   2.400   2.033   0.306 -3.0347 -0.8552  0.6257
   31DG      H8  698   2.294   1.980   0.408  0.7997 -2.4924 -1.7957
   31DG      O9  699   2.204   1.608  -0.010 -0.2757 -0.1584  0.0077
   31DG     O10  700   2.436   1.834   0.345 -0.2942  0.7855 -0.3502
   31DG     C11  701   2.287   1.496   0.019 -0.1926  0.3007  0.2931
   31DG     C12  702   2.371   1.727   0.420 -0.1489  0.3611 -0.0955
   31DG     H13  703   2.378   1.523  -0.036 -1.5338  1.6521  1.4695
   31DG     H14  704   2.251   1.406  -0.035  0.0092  0.0117  0.3454
   31DG     H15  705   2.268   1.746   0.423  1.0689 -0.0503 -1.2236
   31DG     H16  706   2.403   1.739   0.527 -3.6414  0.6718  0.7872
   31DG     C17  707   2.319   1.472   0.164 -0.1186  0.2338  0.2114
   31DG     C18  708   2.396   1.590   0.363  0.6578 -0.3894  0.2103
   31DG     O19  709   2.358   1.594   0.226  0.2460  0.4863 -0.0020
   31DG     H20  710   2.387   1.392   0.185 -1.0028 -0.4473 -1.7703
   31DG     H21  711   2.224   1.434   0.209 -1.1351 -2.3269  0.2082
   31DG     H22  712   2.500   1.564   0.366  0.5706 -2.1266 -0.8074
   31DG     H23  713   2.327   1.521   0.414 -2.1298 -1.6784 -0.1148
   32DG      C1  714   3.194   0.229   4.609 -0.1124 -0.3673  0.1954
   32DG      C2  715   3.125   0.468   3.995  0.3054 -0.3101  0.7526
   32DG      H3  716   3.214   0.255   4.711 -1.0941 -0.9729 -1.7813
   32DG      H4  717   3.249   0.140   4.586 -0.5036 -2.3583 -1.0085
   32DG      H5  718   3.084   0.215   4.604  0.1713  0.0681  0.6238
   32DG      H6  719   3.170   0.375   3.964 -0.8095  0.9857  2.5681
   32DG      H7  720   3.025   0.458   4.019  0.8661  1.8924  2.2237
   32DG      H8  721   3.141   0.541   3.913  2.0008  1.4991 -0.2408
   32DG      O9  722   3.250   0.327   4.521  0.3040 -0.2457  0.4969
   32DG     O10  723   3.195   0.514   4.114  0.5307  0.5117 -0.5254
   32DG     C11  724   3.386   0.353   4.525 -0.1890 -0.5463  0.4329
   32DG     C12  725   3.332   0.522   4.091 -0.1742  0.0931 -0.1767
   32DG     H13  726   3.437   0.262   4.485 -1.0703 -0.0610 -0.2484
   32DG     H14  727   3.420   0.374   4.624  0.6159  1.5110 -1.1275
   32DG     H15  728   3.368   0.592   4.021 -0.5509  1.0554 -0.7833
   32DG     H16  729   3.364   0.421   4.060 -0.2938  1.8783 -0.3451
   32DG     C17  730   3.435   0.475   4.447 -0.7380 -0.1105  0.0252
   32DG     C18  731   3.410   0.555   4.220  0.4094  0.2207  0.5825
   32DG     O19  732   3.352   0.479   4.327  0.1599  0.5491  0.3550
   32DG     H20  733   3.536   0.451   4.413  2.0207  1.1019 -0.9934
   32DG     H21  734   3.430   0.574   4.498 -0.0189 -0.7863 -2.8460
   32DG     H22  735   3.516   0.519   4.206 -2.1052 -1.6836  3.2585
   32DG     H23  736   3.414   0.659   4.234  0.2845 -0.7576 -0.1695
   33DG      C1  737   2.799   0.048   0.824 -0.7240  0.2515  0.6797
   33DG      C2  738   2.893  -0.613   0.579  0.3218 -0.0249  0.4078
   33DG      H3  739   2.853   0.045   0.916 -0.5680  1.6359  0.9903
   33DG      H4  740   2.696   0.034   0.850  1.7962 -1.8163  2.2268
   33DG      H5  741   2.805   0.150   0.788  4.3954  2.4916 -0.1616
   33DG      H6  742   2.879  -0.637   0.687  1.7145  0.0213 -0.5576
   33DG      H7  743   2.798  -0.642   0.532 -0.1627  1.7615  0.6778
   33DG      H8  744   2.966  -0.677   0.536  0.3071  0.4887  0.6694
   33DG      O9  745   2.856  -0.027   0.718  0.4458  0.0732 -0.2053
   33DG     O10  746   2.927  -0.476   0.559  0.2425 -0.3746 -0.0544
   33DG     C11  747   2.998  -0.005   0.702 -0.0902  0.1445 -0.4127
   33DG     C12  748   3.066  -0.465   0.591  0.0682  0.1754 -0.0357
   33DG     H13  749   3.042  -0.031   0.797  0.1907  0.8492 -2.4349
   33DG     H14  750   3.013   0.097   0.684  1.6008  0.2689 -3.5943
   33DG     H15  751   3.127  -0.537   0.530  2.6302  0.6799 -0.7741
   33DG     H16  752   3.079  -0.488   0.694 -2.8199  0.8419  0.7603
   33DG     C17  753   3.056  -0.087   0.590 -0.3137 -0.2674  0.5875
   33DG     C18  754   3.113  -0.326   0.550 -0.1782  0.9849  0.1827
   33DG     O19  755   3.026  -0.230   0.618 -0.1285  0.3827  0.2952
   33DG     H20  756   3.161  -0.059   0.573  1.1746 -2.4074 -0.1424
   33DG     H21  757   3.004  -0.049   0.503  1.3586  1.5828 -1.6000
   33DG     H22  758   3.222  -0.320   0.579 -3.5969 -0.0812  2.3802
   33DG     H23  759   3.112  -0.309   0.444  0.0167 -0.9514 -2.0784
   34DG      C1  760   3.607   3.689   2.623 -0.2284 -0.7753  0.5388
   34DG      C2  761   4.261   3.987   2.646  0.3224 -0.1868 -0.1920
   34DG      H3  762   3.535   3.639   2.693 -1.3380 -1.4063 -2.2356
   34DG      H4  763   3.588   3.668   2.517 -0.7423  4.2833  0.1220
   34DG      H5  764   3.568   3.796   2.618  1.7985  0.3571  1.6778
   34DG      H6  765   4.246   4.011   2.540  0.9571  0.6235  3.3938
   34DG      H7  766   4.239   4.073   2.701 -2.5389  1.0105  0.5168
   34DG      H8  767   4.363   3.973   2.660  0.0011 -1.7019 -0.2672
   34DG      O9  768   3.744   3.679   2.660  0.0134 -0.6953 -0.4702
   34DG     O10  769   4.171   3.889   2.687 -0.0906 -0.2693  0.0995
   34DG     C11  770   3.765   3.638   2.789 -0.2754  0.1645  0.0123
   34DG     C12  771   4.209   3.831   2.817  0.5632  0.0530  0.1108
   34DG     H13  772   3.706   3.551   2.820 -3.7923  0.8597 -1.6513
   34DG     H14  773   3.727   3.712   2.863 -1.6162 -0.8264 -4.3065
   34DG     H15  774   4.181   3.896   2.900  1.2707  1.2954  1.6565
   34DG     H16  775   4.313   3.816   2.827 -1.1449 -0.6819 -0.4292
   34DG     C17  776   3.914   3.606   2.812  0.1536 -0.1180 -0.0204
   34DG     C18  777   4.133   3.700   2.833 -0.2107  0.2966 -0.3031
   34DG     O19  778   3.993   3.726   2.815  0.3368 -0.0384 -0.1184
   34DG     H20  779   3.932   3.540   2.727  1.7697  1.9499 -2.3011
   34DG     H21  780   3.918   3.541   2.899 -1.8867  1.3380  2.7866
   34DG     H22  781   4.174   3.637   2.754  2.2133 -1.2558  0.4046
   34DG     H23  782   4.146   3.655   2.931 -1.7800 -1.9246 -0.6754
   35DG      C1  783   3.464   3.318   3.666  0.3684 -0.6787  0.0928
   35DG      C2  784   3.626   3.027   4.390 -0.0942  0.0079  0.4271
   35DG      H3  785   3.384   3.351   3.602 -0.3600  0.5065 -1.2885
   35DG      H4  786   3.519   3.260   3.605 -1.8267 -0.0190  0.1151
   35DG      H5  787   3.524   3.409   3.687  3.2521  0.8923 -1.0982
   35DG      H6  788   3.585   2.952   4.458 -2.1896 -1.4717 -0.4412
   35DG      H7  789   3.690   2.968   4.320 -1.0373 -1.9489  0.5098
   35DG      H8  790   3.695   3.096   4.436 -2.3226  0.3103  1.3621
   35DG      O9  791   3.422   3.242   3.786  0.3035  0.0871  1.0493
   35DG     O10  792   3.527   3.102   4.322  0.4284  0.3379 -0.3910
   35DG     C11  793   3.348   3.326   3.879 -0.7211  0.3118 -1.0524
   35DG     C12  794   3.446   3.017   4.235 -0.5158  0.4109 -0.0935
   35DG     H13  795   3.267   3.377   3.841 -2.9987  0.3560 -0.0064
   35DG     H14  796   3.410   3.414   3.906  0.9896 -2.0435  1.8942
   35DG     H15  797   3.400   2.948   4.307  0.4203  1.8566  1.7533
   35DG     H16  798   3.506   2.952   4.170 -1.0978 -1.6793 -3.4262
   35DG     C17  799   3.294   3.246   3.991  0.0619 -0.3826  0.9945
   35DG     C18  800   3.330   3.091   4.161  0.3243 -0.2877  0.0469
   35DG     O19  801   3.386   3.160   4.051 -0.2443  0.3360 -0.2243
   35DG     H20  802   3.210   3.196   3.955 -0.5763  1.4542  1.6375
   35DG     H21  803   3.255   3.318   4.066 -0.3166 -0.8213 -0.1763
   35DG     H22  804   3.259   3.027   4.111  1.1858 -0.6064 -0.8106
   35DG     H23  805   3.275   3.162   4.220 -0.2115 -2.9696 -1.2802
   36DG      C1  806   2.193   4.024   5.261 -0.5171 -0.8856 -0.1081
   36DG      C2  807   1.687   4.433   5.513 -0.0843  0.4464  0.8332
   36DG      H3  808   2.162   4.017   5.158  1.7556 -0.1470  0.9690
   36DG      H4  809   2.250   3.936   5.279  1.9493  2.7732  0.8494
   36DG      H5  810   2.261   4.108   5.263  0.0118 -0.2474 -2.1754
   36DG      H6  811   1.699   4.503   5.425  0.6606  0.4521  1.8503
   36DG      H7  812   1.620   4.352   5.467 -2.6654 -0.1282 -0.1578
   36DG      H8  813   1.634   4.478   5.588 -0.2776 -0.9502  0.4959
   36DG      O9  814   2.093   4.072   5.349 -0.1739  0.3801  0.9336
   36DG     O10  815   1.819   4.397   5.553  0.1168 -0.6968 -0.3484
   36DG     C11  816   2.138   4.068   5.485  0.0341  0.5514 -0.0002
   36DG     C12  817   1.840   4.363   5.684  0.2984  0.2602  1.0845
   36DG     H13  818   2.188   4.161   5.498 -0.0137  0.8163 -2.0357
   36DG     H14  819   2.206   3.977   5.499  3.2820 -0.3400 -0.2992
   36DG     H15  820   1.750   4.395   5.752 -1.7893  0.9997 -0.4585
   36DG     H16  821   1.929   4.420   5.701  0.4216  0.1742  1.0384
   36DG     C17  822   2.024   4.052   5.581 -0.5732 -0.1887 -0.4028
   36DG     C18  823   1.877   4.212   5.692 -0.1971 -0.5832  0.0460
   36DG     O19  824   1.954   4.179   5.580  0.0533 -0.3926  0.4403
   36DG     H20  825   2.057   4.035   5.688  0.5709  0.2648 -0.0235
   36DG     H21  826   1.962   3.969   5.550  0.4273 -2.5333 -3.7681
   36DG     H22  827   1.951   4.193   5.769  2.5347  2.9963 -0.6003
   36DG     H23  828   1.790   4.138   5.696  0.1072  2.5943 -2.1269
   37DG      C1  829   5.058   2.092   1.725 -0.2206  0.6935 -0.2488
   37DG      C2  830   5.693   1.797   1.584 -0.1148  0.1746 -1.1425
   37DG      H3  831   5.090   2.085   1.620  0.0348  0.3395 -0.7691
   37DG      H4  832   4.953   2.068   1.736  2.0386  3.3389 -0.7284
   37DG      H5  833   5.115   2.017   1.788  1.9845 -1.5447  1.1517
   37DG      H6  834   5.794   1.791   1.532  0.2352 -0.3871 -0.2863
   37DG      H7  835   5.701   1.771   1.696 -2.0723 -4.1568  1.0619
   37DG      H8  836   5.643   1.718   1.527 -0.2667  1.3967 -0.1546
   37DG      O9  837   5.062   2.228   1.759  0.0372  0.2889 -0.6033
   37DG     O10  838   5.633   1.928   1.573  0.3798  0.2152  0.3324
   37DG     C11  839   5.195   2.276   1.800  0.0309  0.3709  0.0710
   37DG     C12  840   5.509   1.947   1.646  0.1948 -0.7975  0.4060
   37DG     H13  841   5.225   2.222   1.889  1.9430 -3.5628  0.7824
   37DG     H14  842   5.186   2.380   1.827  0.1273 -1.1906  3.1801
   37DG     H15  843   5.542   1.932   1.751  0.3006  0.1303  0.4993
   37DG     H16  844   5.441   1.868   1.613  0.1195  0.9441 -1.8214
   37DG     C17  845   5.306   2.247   1.695  0.3617 -0.2617  0.1554
   37DG     C18  846   5.458   2.093   1.629 -0.3175  0.4712  0.2870
   37DG     O19  847   5.344   2.112   1.711 -0.0600 -0.8660 -0.0617
   37DG     H20  848   5.389   2.311   1.727  0.2724  4.1217  1.3292
   37DG     H21  849   5.273   2.268   1.594 -1.1097 -0.6507 -1.0341
   37DG     H22  850   5.533   2.163   1.657 -0.9438  0.4317 -0.2285
   37DG     H23  851   5.438   2.110   1.525 -0.4766  0.0292 -0.1339
   38DG      C1  852   0.976   3.448   0.833  0.3443 -0.5980 -0.3308
   38DG      C2  853   1.615   3.239   0.848  0.5532 -0.1638  0.2568
   38DG      H3  854   0.996   3.520   0.748 -2.3228  2.4765  0.7730
   38DG      H4  855   1.007   3.488   0.930 -2.3601 -2.0258 -1.4560
   38DG      H5  856   0.871   3.420   0.840  1.7670 -2.7290  0.1701
   38DG      H6  857   1.620   3.199   0.753 -1.5708 -1.3947  0.2494
   38DG      H7  858   1.642   3.347   0.832  0.4688  0.9550  1.4120
   38DG      H8  859   1.692   3.196   0.919 -0.0516  1.7519 -0.0943
   38DG      O9  860   1.059   3.333   0.820  0.4496 -0.0766 -0.3280
   38DG     O10  861   1.484   3.239   0.899  0.1903 -0.0582 -0.0509
   38DG     C11  862   1.017   3.238   0.922 -0.6310  0.0048  0.3800
   38DG     C12  863   1.477   3.298   1.030  1.1255 -0.2747 -0.2134
   38DG     H13  864   1.046   3.144   0.873 -0.3353  2.2843  0.2554
   38DG     H14  865   0.911   3.217   0.944 -0.9622 -1.2879 -0.0814
   38DG     H15  866   1.484   3.406   1.022  3.7495 -1.9264  3.0177
   38DG     H16  867   1.561   3.267   1.087 -0.8715 -2.1073 -0.7116
   38DG     C17  868   1.107   3.244   1.041  0.6157 -0.3705  0.4677
   38DG     C18  869   1.344   3.248   1.081 -0.5207  0.1769  0.0847
   38DG     O19  870   1.235   3.254   0.985  0.0193 -0.9876 -0.1610
   38DG     H20  871   1.100   3.151   1.105  2.5042 -0.4431  2.1202
   38DG     H21  872   1.073   3.327   1.113 -2.4117  1.6487  2.2088
   38DG     H22  873   1.342   3.152   1.126 -3.0237  0.0570  0.2609
   38DG     H23  874   1.315   3.315   1.163 -0.0260  0.3276 -0.5097
   39DG      C1  875   4.327   1.658   1.831 -0.3384  0.0205 -0.1612
   39DG      C2  876   4.185   1.098   1.443  0.7272 -0.9707  0.0102
   39DG      H3  877   4.358   1.734   1.751 -1.9875  1.2770 -1.3574
   39DG      H4  878   4.388   1.651   1.924  2.7840  2.3754  2.1286
   39DG      H5  879   4.220   1.678   1.834 -1.3370  1.2031 -2.1268
   39DG      H6  880   4.080   1.112   1.478  0.7601  0.1001  0.1932
   39DG      H7  881   4.175   1.140   1.344  0.6030  0.5422  3.5002
   39DG      H8  882   4.209   0.990   1.442  2.1155  0.1841 -1.0471
   39DG      O9  883   4.340   1.528   1.772  0.3743 -0.6890 -0.4068
   39DG     O10  884   4.283   1.176   1.517 -0.0062  0.1396  0.2015
   39DG     C11  885   4.479   1.500   1.749 -0.5471  0.3969 -0.1230
   39DG     C12  886   4.407   1.185   1.449 -0.3073  0.7165  0.3666
   39DG     H13  887   4.515   1.406   1.781  2.8743  2.1434  0.5806
   39DG     H14  888   4.541   1.569   1.803 -0.8468  0.3582  0.5836
   39DG     H15  889   4.401   1.214   1.344  2.4199 -1.9105 -2.4273
   39DG     H16  890   4.450   1.085   1.446 -1.2910 -1.7360  1.3330
   39DG     C17  891   4.516   1.513   1.603  0.3166 -0.3385 -0.2224
   39DG     C18  892   4.491   1.283   1.538 -0.1794  0.6557  0.0858
   39DG     O19  893   4.439   1.416   1.533  0.0785 -0.2727 -0.1672
   39DG     H20  894   4.622   1.505   1.594  0.6859  6.0992  0.1879
   39DG     H21  895   4.485   1.619   1.575  2.1967  1.3907  0.2265
   39DG     H22  896   4.508   1.236   1.637 -1.8852 -1.4494 -1.7151
   39DG     H23  897   4.582   1.290   1.488  0.5674 -3.2426  2.9952
   40DG      C1  898   0.661   3.021   4.546  0.6067  0.4341  0.0613
   40DG      C2  899   0.645   2.593   4.077 -0.2643  0.2180  0.1748
   40DG      H3  900   0.727   3.055   4.467 -1.7307  1.9575 -0.8332
   40DG      H4  901   0.708   3.055   4.642  1.7723  2.2560  1.3495
   40DG      H5  902   0.577   3.086   4.519  0.2623 -1.3094 -1.0697
   40DG      H6  903   0.652   2.491   4.045 -0.6360 -2.9497  0.6650
   40DG      H7  904   0.571   2.641   4.004  0.1401 -2.8599 -0.2900
   40DG      H8  905   0.737   2.641   4.054 -1.8419 -0.4028 -0.2487
   40DG      O9  906   0.641   2.883   4.523  0.2738 -0.4821 -0.3316
   40DG     O10  907   0.622   2.594   4.221  0.1938 -0.2805 -0.1770
   40DG     C11  908   0.578   2.815   4.633  0.2380 -0.6197 -0.1269
   40DG     C12  909   0.489   2.551   4.256  0.1317 -0.3412 -0.8356
   40DG     H13  910   0.491   2.870   4.659 -1.6673 -0.4752  1.5863
   40DG     H14  911   0.639   2.821   4.721 -1.0508 -0.9790  0.6021
   40DG     H15  912   0.481   2.448   4.210 -0.5409  0.7585  0.2776
   40DG     H16  913   0.411   2.617   4.212  1.4477  0.3323 -0.0120
   40DG     C17  914   0.551   2.670   4.595 -0.1887 -0.2338 -0.8745
   40DG     C18  915   0.491   2.542   4.413  0.4661 -0.0885  0.5558
   40DG     O19  916   0.510   2.673   4.459 -0.0592 -0.5836 -0.0883
   40DG     H20  917   0.483   2.622   4.655  3.9251 -2.1927  0.9160
   40DG     H21  918   0.642   2.606   4.591  3.3258 -0.2235  0.7176
   40DG     H22  919   0.397   2.501   4.449 -0.4577  0.8830  0.5451
   40DG     H23  920   0.568   2.476   4.441  2.2998 -0.1957  1.2911
   41DG      C1  921   2.232   0.841   0.187 -0.3961 -0.3234  0.2430
   41DG      C2  922   1.739   1.109   0.602  0.4808 -0.3755  0.1098
   41DG      H3  923   2.225   0.767   0.100 -0.3444 -1.4761  1.6428
   41DG      H4  924   2.229   0.790   0.285 -1.1960 -1.3605 -0.9627
   41DG      H5  925   2.317   0.907   0.185  2.4009  1.7527  0.0417
   41DG      H6  926   1.794   1.184   0.660 -1.9797 -1.1199 -1.6876
   41DG      H7  927   1.635   1.137   0.617 -2.5790 -0.2957 -0.7025
   41DG      H8  928   1.747   1.015   0.651  1.9143  2.0326 -2.1726
   41DG      O9  929   2.123   0.931   0.191  0.6591  0.1335 -0.1904
   41DG     O10  930   1.777   1.085   0.466 -0.1908 -0.5254  0.1923
   41DG     C11  931   2.117   1.027   0.084 -0.1270 -0.0118 -0.6938
   41DG     C12  932   1.785   1.205   0.380 -0.5352  0.2333  0.7552
   41DG     H13  933   2.117   0.973  -0.013 -0.1372 -0.7971 -0.3453
   41DG     H14  934   2.204   1.096   0.098  2.7509  1.3618  1.3231
   41DG     H15  935   1.863   1.273   0.421  1.8671  0.3431  0.6514
   41DG     H16  936   1.698   1.267   0.390  0.3219 -1.0901 -1.1295
   41DG     C17  937   1.989   1.109   0.088  0.2745  0.0702 -0.4181
   41DG     C18  938   1.816   1.189   0.226  0.1383 -0.5583  0.3521
   41DG     O19  939   1.954   1.147   0.216  0.1206  0.5787 -0.2273
   41DG     H20  940   1.908   1.045   0.049 -0.9631 -0.2832 -1.7820
   41DG     H21  941   2.007   1.200   0.039  1.1956 -0.4219  0.7439
   41DG     H22  942   1.741   1.129   0.175 -0.2649  0.5825 -1.7568
   41DG     H23  943   1.787   1.283   0.182 -0.3419  1.5351  0.9477
   42DG      C1  944   2.905   0.500   1.537 -0.1127 -0.1687 -0.4118
   42DG      C2  945   2.255   0.528   1.356  0.1612  0.6557 -0.7596
   42DG      H3  946   2.807   0.449   1.563 -0.1859  0.6404  1.7453
   42DG      H4  947   2.976   0.495   1.618  0.8674 -2.2736  0.5109
   42DG      H5  948   2.953   0.446   1.455 -1.4039 -1.7089  0.7662
   42DG      H6  949   2.203   0.605   1.301  0.0496  0.3537  1.6276
   42DG      H7  950   2.312   0.460   1.294  1.4373 -0.4691 -1.3507
   42DG      H8  951   2.171   0.468   1.379 -0.9881 -1.7147 -0.4785
   42DG      O9  952   2.888   0.637   1.491  0.2275 -0.3073  0.1425
   42DG     O10  953   2.308   0.576   1.474 -0.3005 -0.0770  0.0804
   42DG     C11  954   2.878   0.726   1.600  0.3180 -0.6837 -0.2581
   42DG     C12  955   2.435   0.628   1.447 -0.1586  0.4870 -0.2009
   42DG     H13  956   2.896   0.831   1.556 -0.9919  2.0610 -0.4852
   42DG     H14  957   2.939   0.704   1.688  0.0275 -0.7493  0.5222
   42DG     H15  958   2.430   0.728   1.393 -2.0531  2.3551 -0.3115
   42DG     H16  959   2.494   0.559   1.381 -1.1629  1.4966 -0.9136
   42DG     C17  960   2.734   0.724   1.651  0.6827 -0.3675  0.2702
   42DG     C18  961   2.518   0.650   1.579  0.2029  0.3466 -0.0854
   42DG     O19  962   2.649   0.694   1.543 -0.0961  0.4821  0.6761
   42DG     H20  963   2.721   0.819   1.688  0.1252  0.3647 -0.4397
   42DG     H21  964   2.719   0.651   1.732 -1.1851  1.7672  0.5491
   42DG     H22  965   2.468   0.728   1.644  0.0436  0.4279  3.9083
   42DG     H23  966   2.527   0.556   1.641  0.4846 -0.7249 -1.9008
   43DG      C1  967   1.719   2.629   4.387 -0.6428 -0.1462 -0.7182
   43DG      C2  968   1.414   2.155   4.564 -0.0780  0.0547  0.7247
   43DG      H3  969   1.813   2.686   4.365 -2.8000  0.7287 -0.3296
   43DG      H4  970   1.677   2.658   4.483 -0.3083  0.0365 -0.8291
   43DG      H5  971   1.648   2.654   4.308  1.2001  0.4715  0.3417
   43DG      H6  972   1.324   2.119   4.511 -1.0589  1.3501  1.3675
   43DG      H7  973   1.456   2.073   4.612  2.0172  1.8091  0.2893
   43DG      H8  974   1.372   2.217   4.643  0.1970  3.0985 -1.3554
   43DG      O9  975   1.762   2.494   4.378 -0.3025 -0.4675 -0.1581
   43DG     O10  976   1.496   2.238   4.484 -0.2945  0.1526 -0.4288
   43DG     C11  977   1.826   2.459   4.256 -0.1061  0.5906  0.6345
   43DG     C12  978   1.528   2.167   4.366  0.4527 -0.1396  0.9156
   43DG     H13  979   1.920   2.509   4.230  0.3908 -0.6992 -0.0925
   43DG     H14  980   1.760   2.482   4.166 -0.7775  1.1795 -2.3775
   43DG     H15  981   1.436   2.148   4.310  0.6729  0.3069  3.7886
   43DG     H16  982   1.564   2.065   4.374  2.6763  0.0801  0.6035
   43DG     C17  983   1.848   2.313   4.268 -0.1469 -0.3210 -0.7123
   43DG     C18  984   1.620   2.240   4.270 -0.2278  0.0932 -0.0359
   43DG     O19  985   1.748   2.242   4.340 -0.0099  0.6203 -0.0889
   43DG     H20  986   1.943   2.296   4.322  0.5522 -1.1629 -0.2185
   43DG     H21  987   1.861   2.269   4.168 -1.1815  0.0115  2.2998
   43DG     H22  988   1.629   2.168   4.184  2.0727  0.5743  2.0454
   43DG     H23  989   1.591   2.334   4.234  1.2432 -3.9122 -1.3073
   44DG      C1  990   4.561   0.402   2.039 -0.8489  0.3042 -0.6157
   44DG      C2  991   4.488  -0.211   1.625  0.3817 -0.3678  0.2367
   44DG      H3  992   4.588   0.315   2.099  0.3899  2.3281 -0.1453
   44DG      H4  993   4.498   0.464   2.107 -1.1991  0.0675  1.9768
   44DG      H5  994   4.659   0.447   2.023  0.9509  0.5048  2.0378
   44DG      H6  995   4.594  -0.220   1.645 -1.5712 -0.6500 -0.1372
   44DG      H7  996   4.446  -0.276   1.704  0.3788 -1.4319  3.5358
   44DG      H8  997   4.469  -0.252   1.527  0.8542  0.5418  0.7650
   44DG      O9  998   4.506   0.384   1.905 -0.0822  0.0173 -0.3218
   44DG     O10  999   4.437  -0.078   1.637 -0.3322  0.0387 -0.0146
   44DG     C11 1000   4.381   0.311   1.908  0.1317 -0.4186 -0.6414
   44DG     C12 1001   4.525   0.023   1.588 -0.0104 -0.7291  0.5318
   44DG     H13 1002   4.296   0.375   1.944 -0.2078  1.1347 -0.6681
   44DG     H14 1003   4.385   0.212   1.965  1.2116  1.6961 -0.1660
   44DG     H15 1004   4.553  -0.000   1.481  0.7155  1.6759  1.6168
   44DG     H16 1005   4.623   0.006   1.640  0.0484 -5.4196  0.7259
   44DG     C17 1006   4.358   0.278   1.764 -0.9516  0.3682  0.0723
   44DG     C18 1007   4.445   0.152   1.593  0.2810 -0.2059 -0.3787
   44DG     O19 1008   4.452   0.188   1.728  0.2965 -0.3322  0.3803
   44DG     H20 1009   4.362   0.364   1.703  1.5928  1.6161 -1.7862
   44DG     H21 1010   4.256   0.233   1.739  0.9301 -0.5604 -0.5616
   44DG     H22 1011   4.505   0.230   1.537  1.5994  1.4696 -0.0670
   44DG     H23 1012   4.346   0.145   1.548 -0.5851  0.6390  0.3021
   45DG      C1 1013   0.510   2.118   4.172  0.8891 -0.4165 -0.6131
   45DG      C2 1014  -0.015   1.543   3.917  0.9820  0.4518  0.8361
   45DG      H3 1015   0.513   2.079   4.272 -0.4013 -1.4311  0.8032
   45DG      H4 1016   0.420   2.180   4.164  0.9730  2.8445  1.8811
   45DG      H5 1017   0.593   2.175   4.147 -0.7010 -0.2091 -0.3227
   45DG      H6 1018  -0.035   1.560   3.817  1.1357  0.3309  2.8982
   45DG      H7 1019  -0.005   1.436   3.926  0.4649 -0.8855 -0.2210
   45DG      H8 1020  -0.109   1.574   3.963 -2.5272 -1.9543 -1.6375
   45DG      O9 1021   0.519   2.021   4.067 -0.6695 -0.3496 -0.0811
   45DG     O10 1022   0.109   1.605   3.953 -0.1289 -0.2791  0.0764
   45DG     C11 1023   0.397   1.954   4.044  0.1428  0.0989  0.2536
   45DG     C12 1024   0.221   1.547   3.873 -0.4815  0.3399  0.3852
   45DG     H13 1025   0.319   2.020   4.005 -1.7116  0.2694  0.6101
   45DG     H14 1026   0.352   1.914   4.129 -3.0596  3.1902 -1.2921
   45DG     H15 1027   0.195   1.562   3.773  0.0139  1.9950 -2.2288
   45DG     H16 1028   0.229   1.437   3.891  1.7620 -1.3119  1.1427
   45DG     C17 1029   0.427   1.831   3.963 -0.2690 -0.4839 -0.2288
   45DG     C18 1030   0.347   1.608   3.933 -0.4018  0.1597  0.1819
   45DG     O19 1031   0.319   1.744   3.937 -0.0481 -0.3316 -0.4150
   45DG     H20 1032   0.491   1.771   4.034 -0.0216 -0.6719  2.1359
   45DG     H21 1033   0.491   1.839   3.874 -0.2110 -3.0153  0.9635
   45DG     H22 1034   0.365   1.583   4.036 -0.3986  2.9825 -2.1433
   45DG     H23 1035   0.438   1.583   3.872  1.0560 -1.5898 -1.5242
   46DG      C1 1036   1.171   4.537   3.745  0.4347  0.0149 -0.4585
   46DG      C2 1037   0.833   4.357   3.186  0.8991  0.9292  0.0656
   46DG      H3 1038   1.214   4.488   3.829  1.7707 -1.8039 -1.3572
   46DG      H4 1039   1.079   4.580   3.782  0.0545 -1.2566 -1.7603
   46DG      H5 1040   1.243   4.613   3.719  0.0884 -0.4212 -1.8678
   46DG      H6 1041   0.870   4.441   3.131 -2.6529 -0.0733  0.0574
   46DG      H7 1042   0.792   4.288   3.113  1.4705 -0.8414  1.8324
   46DG      H8 1043   0.744   4.392   3.232  2.9828 -0.6949 -4.0323
   46DG      O9 1044   1.157   4.454   3.630  0.8611 -0.2947 -0.2341
   46DG     O10 1045   0.916   4.306   3.277  0.0669  0.0839 -0.1163
   46DG     C11 1046   1.279   4.418   3.575 -1.2089 -0.3686  0.3577
   46DG     C12 1047   1.017   4.220   3.226  0.5183  0.0352 -0.4167
   46DG     H13 1048   1.363   4.403   3.647  2.5730 -3.0287  2.1184
   46DG     H14 1049   1.300   4.499   3.505 -1.9353 -2.9547  1.1147
   46DG     H15 1050   1.070   4.273   3.147  0.2381 -2.6373  1.8036
   46DG     H16 1051   0.981   4.128   3.189 -2.4299  0.9715 -0.8618
   46DG     C17 1052   1.253   4.287   3.497 -0.6440  0.6710  0.3345
   46DG     C18 1053   1.119   4.183   3.339 -0.1610  0.2659  0.7018
   46DG     O19 1054   1.168   4.307   3.386 -0.3585  0.0727  0.6553
   46DG     H20 1055   1.208   4.213   3.564  0.1851  0.8444  1.4926
   46DG     H21 1056   1.353   4.243   3.475 -0.4062 -0.7066 -1.3152
   46DG     H22 1057   1.064   4.138   3.420 -1.5105  0.5820  0.3397
   46DG     H23 1058   1.198   4.128   3.286  3.4052 -1.3997  0.5264
   47DG      C1 1059   5.408   0.424   5.309 -0.0267  0.2835 -0.4312
   47DG      C2 1060   5.415   1.088   5.002  0.2641  1.0483 -0.1529
   47DG      H3 1061   5.488   0.406   5.245  0.6543  0.1955  2.8259
   47DG      H4 1062   5.341   0.342   5.297  2.2683  2.0868  0.5784
   47DG      H5 1063   5.455   0.432   5.411  1.7810  0.1126 -0.1055
   47DG      H6 1064   5.417   1.200   5.021 -0.7507 -0.7403  1.0315
   47DG      H7 1065   5.492   1.061   4.926  1.4612  1.2606  0.8380
   47DG      H8 1066   5.317   1.061   4.962  1.7325  0.4492  1.9544
   47DG      O9 1067   5.356   0.548   5.267 -0.3111  0.4915  0.0160
   47DG     O10 1068   5.433   1.007   5.119  0.4298  0.1304 -0.1666
   47DG     C11 1069   5.242   0.592   5.325 -1.0466 -0.0041 -0.3234
   47DG     C12 1070   5.334   1.028   5.225  0.5141 -1.1856 -0.2060
   47DG     H13 1071   5.230   0.557   5.427  2.3004  0.0085 -2.2979
   47DG     H14 1072   5.161   0.561   5.260 -0.8987  1.8929 -2.2330
   47DG     H15 1073   5.233   0.995   5.201  2.1138 -0.5512 -1.0114
   47DG     H16 1074   5.332   1.140   5.244  2.7649 -1.4556 -1.1263
   47DG     C17 1075   5.236   0.746   5.306 -0.2848  0.6547  0.0421
   47DG     C18 1076   5.353   0.948   5.358  0.3200 -0.1626 -0.7304
   47DG     O19 1077   5.358   0.806   5.342 -0.1282 -0.2425 -0.0034
   47DG     H20 1078   5.156   0.783   5.367  0.0567 -2.1824 -0.5951
   47DG     H21 1079   5.223   0.764   5.196 -0.3428 -2.9912 -0.4110
   47DG     H22 1080   5.441   0.976   5.411 -0.5467  0.4335  0.3454
   47DG     H23 1081   5.269   0.973   5.429 -2.9467 -0.3303  1.0670
   48DG      C1 1082   3.093   2.122   1.950  0.4256  0.9043  0.2481
   48DG      C2 1083   2.854   1.663   1.550  0.1771 -0.6368 -0.6334
   48DG      H3 1084   3.161   2.185   2.003 -1.1007 -0.8961  2.1622
   48DG      H4 1085   3.097   2.022   1.979  1.9644 -0.3925 -1.4195
   48DG      H5 1086   3.002   2.167   2.000 -0.5796 -0.1794 -2.3082
   48DG      H6 1087   2.853   1.684   1.447 -0.1784 -0.9565 -0.1060
   48DG      H7 1088   2.843   1.557   1.568  1.4521  0.9832 -1.8138
   48DG      H8 1089   2.769   1.714   1.575 -1.4459 -1.0970 -1.8412
   48DG      O9 1090   3.078   2.133   1.811 -1.1442 -0.5024 -0.5618
   48DG     O10 1091   2.963   1.737   1.609  0.0027 -0.3589 -0.4741
   48DG     C11 1092   3.199   2.154   1.736  0.2597  0.1633  0.3908
   48DG     C12 1093   3.091   1.727   1.547  1.0496  0.1173  0.0630
   48DG     H13 1094   3.272   2.228   1.770 -0.1417  2.4567 -0.7362
   48DG     H14 1095   3.162   2.199   1.647  1.5029 -0.0795  0.5033
   48DG     H15 1096   3.090   1.779   1.457  0.0924 -0.0031  0.2211
   48DG     H16 1097   3.111   1.624   1.521 -2.2910  3.3970  0.2198
   48DG     C17 1098   3.259   2.015   1.703  0.5489 -0.5797  0.3183
   48DG     C18 1099   3.205   1.788   1.629  0.5107  0.8095  0.4536
   48DG     O19 1100   3.166   1.926   1.640  0.2274 -0.1474  0.4326
   48DG     H20 1101   3.297   1.966   1.794  2.9877 -2.0616 -1.2641
   48DG     H21 1102   3.345   2.030   1.642  1.1202 -0.8436  1.7449
   48DG     H22 1103   3.213   1.752   1.734 -0.6898  0.7476 -2.1280
   48DG     H23 1104   3.295   1.776   1.571  1.5597  2.2103 -3.4649
   49DG      C1 1105   2.075   0.325   2.221 -0.4445 -0.0511 -0.0256
   49DG      C2 1106   2.166   0.763   1.758 -0.4581 -0.2158  1.2676
   49DG      H3 1107   1.996   0.377   2.279  0.2770 -0.2585  3.9683
   49DG      H4 1108   2.120   0.250   2.295 -0.1293  0.0091 -0.7678
   49DG      H5 1109   2.028   0.267   2.139  1.4426 -0.0264  0.0565
   49DG      H6 1110   2.247   0.797   1.695 -1.6391  0.3627  0.7913
   49DG      H7 1111   2.109   0.678   1.721  1.2399 -0.1933 -0.2011
   49DG      H8 1112   2.109   0.857   1.761  1.7565  0.0633  0.4279
   49DG      O9 1113   2.179   0.416   2.176 -0.4601 -0.6517  0.6211
   49DG     O10 1114   2.210   0.720   1.878  0.6010  0.3432  0.1577
   49DG     C11 1115   2.247   0.486   2.275  0.7749 -0.2334  0.1091
   49DG     C12 1116   2.296   0.812   1.939  0.4795 -0.3859  0.3310
   49DG     H13 1117   2.281   0.418   2.355 -0.4145 -0.6707 -1.5435
   49DG     H14 1118   2.185   0.556   2.326  1.5584  0.0826  0.3447
   49DG     H15 1119   2.245   0.899   1.992  0.5227  0.4616 -0.1009
   49DG     H16 1120   2.377   0.846   1.871 -3.7583  0.1495 -0.4527
   49DG     C17 1121   2.356   0.575   2.217  0.7329  0.3228  0.2517
   49DG     C18 1122   2.376   0.746   2.055  0.8974 -0.4901 -0.2254
   49DG     O19 1123   2.288   0.664   2.129  0.0102  0.1675  0.0653
   49DG     H20 1124   2.425   0.511   2.166 -0.2654  1.4827 -1.6665
   49DG     H21 1125   2.399   0.629   2.305  1.4597  0.4958  2.3702
   49DG     H22 1126   2.459   0.692   2.003  0.9745  0.8796 -1.6870
   49DG     H23 1127   2.420   0.820   2.123 -2.2260  0.8971 -2.4693
   50DG      C1 1128   1.499   4.023   2.966  0.0937 -0.5094 -0.0456
   50DG      C2 1129   2.067   4.162   3.336  0.5164  0.4738 -0.3246
   50DG      H3 1130   1.397   4.052   2.979  0.8318  1.6586 -1.5447
   50DG      H4 1131   1.500   3.923   2.930  0.0047 -1.1677 -1.5812
   50DG      H5 1132   1.545   4.102   2.896 -2.7540  4.0972  0.8499
   50DG      H6 1133   2.101   4.261   3.302  1.8707 -0.3818 -1.6991
   50DG      H7 1134   2.103   4.168   3.439 -0.5157  4.2394  0.7593
   50DG      H8 1135   2.138   4.098   3.285 -0.3081  0.1868  2.6905
   50DG      O9 1136   1.558   4.028   3.092  0.2268  0.0627  0.3312
   50DG     O10 1137   1.938   4.112   3.324  0.5006 -0.6472 -0.3517
   50DG     C11 1138   1.517   3.926   3.177 -0.7777 -0.6290 -0.0006
   50DG     C12 1139   1.925   3.989   3.397  0.3095 -0.3177  0.8085
   50DG     H13 1140   1.562   3.828   3.152 -0.7211  1.9077  2.6441
   50DG     H14 1141   1.412   3.917   3.185  1.8533  1.1915  2.2144
   50DG     H15 1142   1.990   3.996   3.486 -1.5793 -0.3293 -0.8761
   50DG     H16 1143   1.962   3.907   3.330  0.1896 -1.0703 -0.0218
   50DG     C17 1144   1.574   3.948   3.318 -0.0976  0.2188  0.0464
   50DG     C18 1145   1.781   3.954   3.432  0.2511  0.5882 -0.1974
   50DG     O19 1146   1.714   3.963   3.306 -0.4611 -0.2907 -0.6818
   50DG     H20 1147   1.534   3.873   3.386  0.3257 -2.5073  1.6216
   50DG     H21 1148   1.535   4.040   3.372  0.2735  0.7116  2.9170
   50DG     H22 1149   1.762   3.851   3.473 -0.1561 -0.2374  2.7847
   50DG     H23 1150   1.757   4.034   3.500 -0.7470  0.1146 -0.1180
   51DG      C1 1151   4.859   1.333   2.390 -0.3739 -0.5096 -0.7051
   51DG      C2 1152   5.559   1.415   2.470  0.9064  0.5810  0.1067
   51DG      H3 1153   4.842   1.430   2.422  2.9367  0.1687  3.1730
   51DG      H4 1154   4.782   1.270   2.447  0.6089  1.7266 -1.0213
   51DG      H5 1155   4.850   1.333   2.283 -1.4503  0.1678  0.6686
   51DG      H6 1156   5.608   1.370   2.556  0.4102  2.3902 -2.1095
   51DG      H7 1157   5.624   1.436   2.379 -0.5275 -0.3039  0.7338
   51DG      H8 1158   5.544   1.521   2.501 -0.0637  0.0391  0.5869
   51DG      O9 1159   4.983   1.286   2.445  0.4889  0.6320 -0.0120
   51DG     O10 1160   5.435   1.359   2.438 -0.3452  0.2210 -0.0710
   51DG     C11 1161   5.001   1.142   2.431 -0.6340  0.0423  0.1140
   51DG     C12 1162   5.439   1.228   2.389  0.0091  0.5878  0.0064
   51DG     H13 1163   5.026   1.115   2.331 -1.9037  1.4420 -0.7287
   51DG     H14 1164   4.910   1.082   2.460 -0.1327 -0.2043 -0.8431
   51DG     H15 1165   5.488   1.162   2.460  0.3740  1.9802  1.5187
   51DG     H16 1166   5.493   1.231   2.295  0.6914 -1.1135  1.3173
   51DG     C17 1167   5.116   1.091   2.522 -0.0863 -0.0602  0.3682
   51DG     C18 1168   5.305   1.159   2.380  0.0484 -0.1367  0.0306
   51DG     O19 1169   5.235   1.168   2.509  0.3520 -0.2743  0.2400
   51DG     H20 1170   5.138   0.988   2.496 -1.5529 -2.8624  0.6123
   51DG     H21 1171   5.088   1.092   2.624  2.0593  0.9277 -1.9099
   51DG     H22 1172   5.243   1.215   2.306  1.9516  2.1112  1.5258
   51DG     H23 1173   5.324   1.049   2.351  1.3856 -2.2144  0.9899
   52DG      C1 1174   2.608   0.711   4.396 -0.3531  0.2479 -0.3869
   52DG      C2 1175   3.235   0.910   4.091 -0.3504 -0.3684  0.5770
   52DG      H3 1176   2.649   0.679   4.491 -2.9788  2.8390 -1.0086
   52DG      H4 1177   2.592   0.620   4.325  1.2380  1.1771  1.7184
   52DG      H5 1178   2.505   0.736   4.406  2.1957  0.0015 -0.0431
   52DG      H6 1179   3.254   0.882   4.195  2.3546  0.1317  0.1838
   52DG      H7 1180   3.289   0.839   4.020  1.8360 -1.0459 -2.3714
   52DG      H8 1181   3.293   1.001   4.081  2.1904 -0.9093  0.5109
   52DG      O9 1182   2.686   0.818   4.343 -0.6719  0.7859 -0.0990
   52DG     O10 1183   3.095   0.946   4.073  0.2713  0.1573  0.4090
   52DG     C11 1184   2.649   0.852   4.209  0.6816 -0.8664  0.4917
   52DG     C12 1185   3.069   1.074   4.137  0.9565  0.8708  0.6245
   52DG     H13 1186   2.538   0.870   4.186  1.0050 -2.0621 -0.5220
   52DG     H14 1187   2.691   0.766   4.146  0.9771 -3.0168 -3.1783
   52DG     H15 1188   3.124   1.152   4.085  2.1129  1.5211 -2.1037
   52DG     H16 1189   3.099   1.086   4.242 -3.1943 -0.2586  0.2777
   52DG     C17 1190   2.711   0.980   4.146  0.6137 -0.8436 -0.2890
   52DG     C18 1191   2.917   1.094   4.119  0.0257 -0.0601 -0.5875
   52DG     O19 1192   2.851   0.979   4.171 -0.3912  1.0679 -0.1744
   52DG     H20 1193   2.663   1.065   4.188 -0.7348  1.0045 -0.2324
   52DG     H21 1194   2.688   0.985   4.041  1.0326 -2.3777 -0.8080
   52DG     H22 1195   2.873   1.185   4.163 -0.2773  1.0079 -1.1379
   52DG     H23 1196   2.887   1.102   4.015  0.6228  0.4040 -0.3867
   53DG      C1 1197   3.530   1.780   3.566 -0.0663  0.3881 -0.4633
   53DG      C2 1198   3.199   2.241   3.951 -0.2038 -0.7263 -0.1606
   53DG      H3 1199   3.491   1.722   3.478 -2.1109  1.4227 -2.0466
   53DG      H4 1200   3.523   1.719   3.661 -1.7375 -0.9397 -1.4448
   53DG      H5 1201   3.636   1.792   3.539 -0.5019 -0.3078  0.2609
   53DG      H6 1202   3.246   2.177   4.018  0.1314  1.0424  0.1183
   53DG      H7 1203   3.213   2.342   3.989 -0.4287  1.3845 -2.1024
   53DG      H8 1204   3.095   2.221   3.943 -2.1835 -0.8514 -0.4822
   53DG      O9 1205   3.448   1.896   3.589  0.0294 -0.0070  0.0967
   53DG     O10 1206   3.277   2.234   3.834  0.7168 -0.2635  0.4319
   53DG     C11 1207   3.420   1.970   3.468  0.2505 -0.4890  0.6958
   53DG     C12 1208   3.226   2.307   3.728  0.3394  0.2322  0.4552
   53DG     H13 1209   3.367   1.912   3.393  1.1868  1.1662 -0.1383
   53DG     H14 1210   3.513   2.005   3.427  2.5134  0.0403  2.1972
   53DG     H15 1211   3.198   2.407   3.757 -0.9254  0.2235  1.3874
   53DG     H16 1212   3.133   2.254   3.701  2.7556 -1.1221  1.5949
   53DG     C17 1213   3.326   2.098   3.497 -0.4773  0.1518  0.1743
   53DG     C18 1214   3.314   2.313   3.597  0.0131 -0.7839 -0.3329
   53DG     O19 1215   3.385   2.191   3.585 -0.1117 -0.1009  0.0200
   53DG     H20 1216   3.235   2.059   3.538  1.3939  0.1289  0.1895
   53DG     H21 1217   3.303   2.156   3.405  1.9701 -0.9215 -2.5110
   53DG     H22 1218   3.259   2.355   3.512  0.4831  1.2966  0.2996
   53DG     H23 1219   3.392   2.388   3.626 -1.1327  1.6863  0.8568
   54DG      C1 1220   3.846   1.035   2.040 -0.0846 -0.0919  0.0468
   54DG      C2 1221   3.329   0.742   2.193 -0.0118 -0.4394  0.5027
   54DG      H3 1222   3.856   1.131   2.087  0.3410 -0.0833 -0.3178
   54DG      H4 1223   3.937   1.016   1.981 -0.4733 -0.3852 -3.0649
   54DG      H5 1224   3.851   0.971   2.131 -2.0303 -0.7696  1.1261
   54DG      H6 1225   3.321   0.806   2.276  0.3426 -1.5874 -0.5346
   54DG      H7 1226   3.275   0.766   2.106  0.8573  2.1182  2.2597
   54DG      H8 1227   3.295   0.643   2.231 -1.8682 -2.1521  4.4824
   54DG      O9 1228   3.732   1.014   1.961 -0.5931  0.3637  0.1760
   54DG     O10 1229   3.464   0.729   2.154 -0.5552  0.2810 -0.3993
   54DG     C11 1230   3.754   0.922   1.848  0.1626  0.5684  0.0578
   54DG     C12 1231   3.495   0.604   2.084  0.2844  0.0933  0.7858
   54DG     H13 1232   3.839   0.936   1.784 -2.5145 -0.8220 -1.2134
   54DG     H14 1233   3.674   0.935   1.775  0.9516 -2.8425  0.8930
   54DG     H15 1234   3.416   0.590   2.014  2.2358 -1.2818  1.0757
   54DG     H16 1235   3.496   0.521   2.157 -0.0924 -2.1767  0.0431
   54DG     C17 1236   3.758   0.777   1.892  0.3334 -0.0023 -0.3419
   54DG     C18 1237   3.626   0.621   2.011 -1.2247 -0.2757 -0.1156
   54DG     O19 1238   3.643   0.756   1.969  0.9170  0.0673 -0.5803
   54DG     H20 1239   3.851   0.748   1.941  0.7781  0.6770 -0.0794
   54DG     H21 1240   3.753   0.724   1.801 -1.7965  1.1287 -2.5147
   54DG     H22 1241   3.708   0.598   2.072 -3.0343 -0.6034 -0.6268
   54DG     H23 1242   3.629   0.543   1.931  1.1417 -0.7359  1.9824
   55DG      C1 1243   3.415   0.983   3.211  0.1774  0.2666 -0.1384
   55DG      C2 1244   3.182   1.212   3.765 -0.0429 -0.8707 -0.2277
   55DG      H3 1245   3.423   1.085   3.205 -1.4044 -0.6324  0.4490
   55DG      H4 1246   3.430   0.925   3.122 -0.0972 -1.3760  2.9179
   55DG      H5 1247   3.502   0.952   3.275 -0.0736 -1.0246  0.3392
   55DG      H6 1248   3.127   1.193   3.856 -0.6642  1.1292 -0.5530
   55DG      H7 1249   3.291   1.211   3.790 -0.4330 -1.0810 -0.4804
   55DG      H8 1250   3.168   1.314   3.731  1.6635 -2.2991 -0.3613
   55DG      O9 1251   3.288   0.945   3.267 -0.0618 -0.6715 -0.1206
   55DG     O10 1252   3.164   1.102   3.665  0.0022  0.0241 -0.7869
   55DG     C11 1253   3.269   0.814   3.308 -0.7015  0.2386  0.6851
   55DG     C12 1254   3.169   0.976   3.728  0.3531  0.3629  0.9159
   55DG     H13 1255   3.359   0.768   3.334  1.5627 -2.1119 -0.3566
   55DG     H14 1256   3.230   0.767   3.217 -0.9805  1.2293 -1.8926
   55DG     H15 1257   3.100   0.978   3.813  0.0190  0.4538 -0.4021
   55DG     H16 1258   3.272   0.964   3.772  1.1903  2.5381  1.2114
   55DG     C17 1259   3.159   0.809   3.412  0.0050 -0.1965  1.1764
   55DG     C18 1260   3.133   0.864   3.635  0.7752 -0.5420  0.0630
   55DG     O19 1261   3.214   0.884   3.520  0.3029 -0.0310  0.1851
   55DG     H20 1262   3.149   0.705   3.439 -1.6946  1.0104  0.9103
   55DG     H21 1263   3.065   0.853   3.377  2.0717 -0.4785 -1.3974
   55DG     H22 1264   3.159   0.772   3.693 -0.6134 -0.9118  3.1005
   55DG     H23 1265   3.023   0.868   3.612 -0.6953 -1.6577  1.0338
   56DG      C1 1266   2.379   4.317   1.355  0.4127 -0.2340 -0.6871
   56DG      C2 1267   1.878   3.818   1.561  0.3600 -0.3126 -0.7303
   56DG      H3 1268   2.449   4.239   1.328 -0.1927  2.9089  1.0914
   56DG      H4 1269   2.446   4.410   1.382 -0.6941  0.2915  1.0571
   56DG      H5 1270   2.334   4.333   1.253 -1.4889 -0.5135 -0.1352
   56DG      H6 1271   1.839   3.829   1.462  1.2480  2.5960 -0.0155
   56DG      H7 1272   1.940   3.725   1.570 -1.4704  0.1875  1.1353
   56DG      H8 1273   1.798   3.816   1.635  0.8391 -0.5609 -1.8169
   56DG      O9 1274   2.283   4.283   1.453  0.1986 -0.0602 -0.1336
   56DG     O10 1275   1.965   3.936   1.572 -0.1779 -0.3701 -0.5065
   56DG     C11 1276   2.346   4.268   1.575 -0.6156  0.3209  0.6023
   56DG     C12 1277   2.012   3.957   1.701  0.1115  0.2552 -0.0797
   56DG     H13 1278   2.404   4.358   1.608  2.0878  0.0987 -1.8201
   56DG     H14 1279   2.407   4.173   1.573 -2.0366 -2.0826  1.0291
   56DG     H15 1280   2.102   3.895   1.726  1.2444 -1.8828  1.0054
   56DG     H16 1281   1.947   3.921   1.777 -1.9045 -0.8175 -0.9043
   56DG     C17 1282   2.239   4.247   1.680 -0.1728  0.0791  0.2186
   56DG     C18 1283   2.059   4.105   1.731 -0.1800 -0.8244  0.0044
   56DG     O19 1284   2.170   4.133   1.642  0.2991  0.8188  0.2205
   56DG     H20 1285   2.166   4.327   1.669  0.9079 -0.7790 -2.0275
   56DG     H21 1286   2.276   4.229   1.775 -1.9115  1.6491  0.3754
   56DG     H22 1287   1.978   4.173   1.708 -0.2595  1.9274 -1.7182
   56DG     H23 1288   2.079   4.118   1.843 -1.1323  0.6888  0.0299
   57DG      C1 1289   2.264   3.097   4.027 -0.1278  0.6093 -0.2734
   57DG      C2 1290   2.798   3.272   3.743 -0.1155  0.3585 -0.8350
   57DG      H3 1291   2.203   3.100   4.116  3.2577 -0.9588 -0.8887
   57DG      H4 1292   2.253   3.001   3.973 -0.5776  0.9642  0.4459
   57DG      H5 1293   2.232   3.177   3.955 -1.5221  0.1052 -0.8023
   57DG      H6 1294   2.799   3.196   3.668 -0.3069  1.1604 -0.0049
   57DG      H7 1295   2.713   3.336   3.725 -0.7333 -1.2861  2.9873
   57DG      H8 1296   2.889   3.336   3.749 -0.6508  0.4842  0.7940
   57DG      O9 1297   2.402   3.096   4.061  0.4555 -0.5883 -0.2342
   57DG     O10 1298   2.754   3.214   3.866  0.3184 -0.2976  0.1876
   57DG     C11 1299   2.448   2.979   4.136 -0.2295  0.4255 -0.0898
   57DG     C12 1300   2.852   3.128   3.924 -0.0857 -0.4468  0.4362
   57DG     H13 1301   2.441   2.881   4.089  0.9843  1.2492 -0.3446
   57DG     H14 1302   2.393   2.973   4.232 -0.3876  2.0712 -1.6258
   57DG     H15 1303   2.946   3.182   3.925 -0.8306  2.2290 -1.0002
   57DG     H16 1304   2.862   3.042   3.854  1.1373  1.8320  0.0512
   57DG     C17 1305   2.595   3.005   4.171  0.5060 -0.3425 -0.6311
   57DG     C18 1306   2.794   3.087   4.059  0.4006 -0.1926 -0.2752
   57DG     O19 1307   2.656   3.032   4.045 -0.1792  0.3204  0.1147
   57DG     H20 1308   2.635   2.910   4.213  1.5624 -1.2619 -0.3775
   57DG     H21 1309   2.597   3.092   4.236  0.5886  2.8589  0.1087
   57DG     H22 1310   2.858   3.016   4.108 -2.1819  2.0587  2.2724
   57DG     H23 1311   2.788   3.174   4.123 -1.5010 -0.2616  1.9805
   58DG      C1 1312   2.335   4.390   5.464 -0.5231  0.0413  0.4095
   58DG      C2 1313   1.742   4.105   5.296  0.4995  0.1703  0.1378
   58DG      H3 1314   2.325   4.494   5.487  2.4557 -0.3827  1.4958
   58DG      H4 1315   2.441   4.367   5.459 -2.3364  0.6436 -1.8629
   58DG      H5 1316   2.300   4.346   5.559  0.7102 -3.8551  2.3223
   58DG      H6 1317   1.689   4.063   5.215  0.0903  2.9941 -0.6982
   58DG      H7 1318   1.789   4.035   5.370  1.0633  0.1070  0.8077
   58DG      H8 1319   1.670   4.168   5.346  3.0742  1.2144  0.7196
   58DG      O9 1320   2.251   4.357   5.354 -0.1260  0.2796  0.1513
   58DG     O10 1321   1.852   4.181   5.242 -0.0865  0.3818 -0.1924
   58DG     C11 1322   2.260   4.450   5.241 -0.7367 -0.2212 -0.3749
   58DG     C12 1323   1.806   4.289   5.153 -0.6553  0.2240  0.9736
   58DG     H13 1324   2.359   4.469   5.205 -0.2939  0.2509 -0.4632
   58DG     H14 1325   2.236   4.544   5.283 -0.0809 -3.1344 -0.8267
   58DG     H15 1326   1.742   4.364   5.209  0.2874 -0.8078 -0.3419
   58DG     H16 1327   1.758   4.240   5.075  1.4949  0.2410 -0.9691
   58DG     C17 1328   2.150   4.420   5.135  0.1644 -0.1483 -0.3402
   58DG     C18 1329   1.928   4.363   5.095  0.4154  0.7141 -0.0551
   58DG     O19 1330   2.026   4.390   5.190 -0.9862 -0.1794  0.2361
   58DG     H20 1331   2.193   4.328   5.089  0.2102 -0.5594 -0.2983
   58DG     H21 1332   2.149   4.493   5.051 -1.9672 -0.3718 -2.7825
   58DG     H22 1333   1.963   4.289   5.024 -0.4434  1.2461 -1.5410
   58DG     H23 1334   1.898   4.456   5.047 -1.2915  0.7511 -1.2368
   59DG      C1 1335   2.282   5.245   2.930 -0.3345  0.2995 -0.8210
   59DG      C2 1336   2.089   5.789   3.277  0.2056 -0.4544  0.5177
   59DG      H3 1337   2.325   5.189   2.839 -1.6143  0.6585 -0.3547
   59DG      H4 1338   2.178   5.229   2.930  5.0338 -1.0408 -1.1292
   59DG      H5 1339   2.317   5.201   3.019 -3.1621 -2.1613 -0.5120
   59DG      H6 1340   2.010   5.763   3.202 -1.5963 -0.6170 -0.1331
   59DG      H7 1341   2.067   5.724   3.359  1.3850  0.7508 -0.3569
   59DG      H8 1342   2.074   5.882   3.320 -2.1142 -0.4281  0.1680
   59DG      O9 1343   2.312   5.381   2.947  0.3195 -0.0228  0.0069
   59DG     O10 1344   2.212   5.760   3.208 -0.2424 -0.2848 -0.4217
   59DG     C11 1345   2.282   5.462   2.837 -0.0426  0.1464 -0.4052
   59DG     C12 1346   2.221   5.832   3.088 -0.2108 -0.4652  0.4253
   59DG     H13 1347   2.175   5.475   2.829 -2.3422  0.4087  1.3577
   59DG     H14 1348   2.318   5.430   2.744 -1.5915  3.1817  3.8795
   59DG     H15 1349   2.237   5.932   3.111  2.9631  2.7156 -0.6365
   59DG     H16 1350   2.133   5.816   3.024  2.0279 -1.7797 -1.1573
   59DG     C17 1351   2.346   5.598   2.859  0.1654  0.4391  0.0109
   59DG     C18 1352   2.335   5.779   3.016 -0.4061 -0.4583  0.0322
   59DG     O19 1353   2.283   5.653   2.977  0.9792 -0.0888  0.3622
   59DG     H20 1354   2.339   5.668   2.775  1.2653  0.2062 -2.1410
   59DG     H21 1355   2.453   5.571   2.879  2.6852 -0.9371  0.5534
   59DG     H22 1356   2.353   5.840   2.930 -0.2414 -1.8371  2.5492
   59DG     H23 1357   2.428   5.765   3.073  1.9601 -0.5158  3.0139
   60DG      C1 1358   4.349   2.301   2.196 -0.4175 -0.0573  0.7726
   60DG      C2 1359   4.811   2.251   1.931  0.3386  0.0313  0.1192
   60DG      H3 1360   4.401   2.399   2.205 -0.6003  0.3302  1.7224
   60DG      H4 1361   4.383   2.238   2.272  0.5682  0.8533 -3.6780
   60DG      H5 1362   4.242   2.310   2.210 -0.9571 -0.2822 -1.0381
   60DG      H6 1363   4.819   2.291   1.831 -1.9138 -0.4522 -0.2496
   60DG      H7 1364   4.819   2.328   2.008 -0.7171 -1.5013 -1.1161
   60DG      H8 1365   4.883   2.175   1.954 -1.7735  2.3749 -0.0087
   60DG      O9 1366   4.373   2.236   2.076 -0.0344  0.6567 -0.5392
   60DG     O10 1367   4.675   2.202   1.924 -0.4588  0.2962  0.0909
   60DG     C11 1368   4.317   2.104   2.060 -0.0018  0.1942  0.6570
   60DG     C12 1369   4.669   2.083   1.846  0.1960  0.6964 -0.8081
   60DG     H13 1370   4.214   2.111   2.095 -0.7248  0.4841 -0.6440
   60DG     H14 1371   4.375   2.028   2.123  1.0154 -1.9647  0.2525
   60DG     H15 1372   4.751   2.011   1.864  0.8056  0.4951  1.9659
   60DG     H16 1373   4.674   2.113   1.748  0.4295 -1.6547 -0.2727
   60DG     C17 1374   4.326   2.055   1.912  0.6278 -0.5544 -0.1687
   60DG     C18 1375   4.546   1.996   1.874 -0.1858  0.8591  0.3751
   60DG     O19 1376   4.444   2.093   1.856 -0.2747 -0.0990  0.1954
   60DG     H20 1377   4.253   2.099   1.847  0.1088  0.6144 -1.3561
   60DG     H21 1378   4.316   1.947   1.914 -0.7417  0.3129  1.0637
   60DG     H22 1379   4.541   1.923   1.791 -0.5839 -1.9327 -0.1489
   60DG     H23 1380   4.549   1.942   1.971  1.2995 -1.1665  2.0749
   61DG      C1 1381   2.030   0.442   1.849 -0.4091  0.1364 -0.2753
   61DG      C2 1382   1.272   0.339   1.453  0.4996 -0.5235  0.0645
   61DG      H3 1383   1.983   0.539   1.865 -0.8736 -0.3772 -1.9012
   61DG      H4 1384   2.130   0.457   1.810  0.4681  1.5744 -2.4264
   61DG      H5 1385   2.031   0.397   1.951 -0.8791  2.8645 -1.7757
   61DG      H6 1386   1.166   0.293   1.443 -3.1259  0.9613 -1.0554
   61DG      H7 1387   1.263   0.414   1.533  0.9826  3.9634 -0.5811
   61DG      H8 1388   1.312   0.371   1.356 -1.7997  0.2852  0.6026
   61DG      O9 1389   1.957   0.360   1.758 -0.0952 -0.1404 -0.0685
   61DG     O10 1390   1.363   0.242   1.502 -0.1512 -0.0647  0.3468
   61DG     C11 1391   1.887   0.434   1.656  0.5524  0.2079 -0.6239
   61DG     C12 1392   1.492   0.310   1.543  0.9519  0.0869 -0.5738
   61DG     H13 1393   1.960   0.489   1.592 -0.4645 -1.6539 -1.8809
   61DG     H14 1394   1.819   0.507   1.710 -0.0490  1.0622  2.7317
   61DG     H15 1395   1.473   0.374   1.627  0.2293 -1.3272 -0.7978
   61DG     H16 1396   1.531   0.363   1.463  0.1796 -0.1835  1.0222
   61DG     C17 1397   1.807   0.331   1.566 -0.0924  0.0161 -0.2163
   61DG     C18 1398   1.594   0.204   1.584 -0.3975  0.0037 -0.5231
   61DG     O19 1399   1.710   0.266   1.651  0.0431 -0.0393  0.2028
   61DG     H20 1400   1.879   0.260   1.528  0.3542  1.8157  0.0967
   61DG     H21 1401   1.761   0.379   1.475  1.4093 -1.2328  2.5766
   61DG     H22 1402   1.564   0.142   1.663 -0.6657 -1.1062  0.2636
   61DG     H23 1403   1.622   0.138   1.500 -0.5632  1.2200  0.2821
   62DG      C1 1404   3.097   4.234   3.571  0.1278  0.1716 -0.2713
   62DG      C2 1405   2.772   4.740   3.209 -0.4209 -0.2705 -0.4688
   62DG      H3 1406   3.100   4.307   3.645  2.2789 -3.0146 -2.0525
   62DG      H4 1407   3.186   4.229   3.512  0.4550  0.0850 -1.5833
   62DG      H5 1408   3.082   4.128   3.613 -2.4695 -1.4507 -1.3562
   62DG      H6 1409   2.667   4.753   3.215 -0.7600  0.0271 -1.8467
   62DG      H7 1410   2.816   4.802   3.297  2.3244  1.0413  0.2990
   62DG      H8 1411   2.804   4.777   3.111  1.3655 -1.0627  0.6192
   62DG      O9 1412   2.987   4.257   3.476  0.3537  0.5793 -0.3417
   62DG     O10 1413   2.814   4.604   3.230  0.3434  0.1273 -0.7535
   62DG     C11 1414   2.863   4.242   3.534 -0.3363  0.3947 -0.4005
   62DG     C12 1415   2.743   4.514   3.152  0.1763 -0.3426  1.0391
   62DG     H13 1416   2.847   4.319   3.613  0.7702  0.0920  0.5966
   62DG     H14 1417   2.847   4.145   3.585  0.5263 -0.8905  2.5235
   62DG     H15 1418   2.825   4.479   3.088 -0.9184 -0.0824 -0.7387
   62DG     H16 1419   2.662   4.559   3.093  2.3492 -3.1863  0.4611
   62DG     C17 1420   2.749   4.260   3.429  1.1106 -0.2652 -0.6938
   62DG     C18 1421   2.691   4.397   3.239  0.0065  0.4342  0.4953
   62DG     O19 1422   2.777   4.372   3.341 -0.6581 -0.3434 -0.2413
   62DG     H20 1423   2.660   4.259   3.483 -0.5321  0.7567 -1.4425
   62DG     H21 1424   2.744   4.176   3.358  1.8926 -1.2627 -1.6878
   62DG     H22 1425   2.585   4.417   3.277  0.3512 -1.8415  0.4987
   62DG     H23 1426   2.680   4.306   3.178  0.3630  2.1843 -2.7658
   63DG      C1 1427   2.146   2.043   4.874 -0.5361  0.8370 -0.5455
   63DG      C2 1428   1.994   2.508   4.589  0.2686  0.1089 -1.0754
   63DG      H3 1429   2.225   1.998   4.939  0.9170  0.4157 -0.7476
   63DG      H4 1430   2.166   2.032   4.767  1.1468  1.5020  2.8572
   63DG      H5 1431   2.050   1.998   4.888  0.5267 -1.0625 -1.4076
   63DG      H6 1432   2.095   2.515   4.626 -0.0988 -3.3778 -0.3553
   63DG      H7 1433   1.997   2.433   4.512 -0.2966 -0.8595 -2.0986
   63DG      H8 1434   1.951   2.595   4.543 -0.5876  1.9229  0.7250
   63DG      O9 1435   2.139   2.189   4.880  0.8180 -0.1087  0.7927
   63DG     O10 1436   1.898   2.473   4.686 -0.2493 -0.3481  0.6216
   63DG     C11 1437   2.155   2.250   5.008 -0.5799 -0.3207 -0.0078
   63DG     C12 1438   1.898   2.570   4.793  0.5402  0.9544 -0.1615
   63DG     H13 1439   2.254   2.222   5.051 -0.2191  1.8102  1.8778
   63DG     H14 1440   2.080   2.213   5.075  0.9730 -2.7705 -0.8759
   63DG     H15 1441   1.797   2.564   4.842 -2.7563 -0.2740 -0.4491
   63DG     H16 1442   1.893   2.679   4.762  2.0250  0.8605 -0.0169
   63DG     C17 1443   2.160   2.397   4.986 -0.4751  0.4967 -0.6235
   63DG     C18 1444   2.012   2.557   4.887  0.3008  0.0573 -0.0151
   63DG     O19 1445   2.042   2.425   4.915 -0.7916 -0.0109 -0.4091
   63DG     H20 1446   2.244   2.410   4.919  0.5593  1.2632 -3.5322
   63DG     H21 1447   2.173   2.456   5.074 -0.3403 -2.3431  2.3121
   63DG     H22 1448   2.100   2.599   4.838  2.7749  1.6002 -0.2898
   63DG     H23 1449   1.976   2.607   4.978  1.6713 -1.6298  0.6458
   64DG      C1 1450   1.543   5.429   3.076 -0.5275  0.3857 -0.0049
   64DG      C2 1451   1.725   5.542   2.429  0.7281 -0.1670 -0.0713
   64DG      H3 1452   1.638   5.476   3.107 -0.4240 -0.1494 -0.3397
   64DG      H4 1453   1.520   5.362   3.152  0.7492  0.6439 -0.4428
   64DG      H5 1454   1.467   5.498   3.074  0.8100 -1.3317  0.2227
   64DG      H6 1455   1.788   5.501   2.361 -0.3903  2.9745  1.3889
   64DG      H7 1456   1.630   5.552   2.379  2.1290  0.5948 -0.6363
   64DG      H8 1457   1.764   5.632   2.477 -1.0135 -1.8858  1.4608
   64DG      O9 1458   1.570   5.381   2.947  0.2857 -0.4483  0.2810
   64DG     O10 1459   1.701   5.449   2.533 -0.4776  0.1287 -0.6923
   64DG     C11 1460   1.484   5.275   2.912 -0.3062 -0.0221  0.1604
   64DG     C12 1461   1.671   5.319   2.480 -0.6483  0.1658 -0.3812
   64DG     H13 1462   1.380   5.314   2.899 -1.2305  0.9411 -0.7260
   64DG     H14 1463   1.459   5.207   3.001  1.4745  0.2558  1.1769
   64DG     H15 1464   1.739   5.288   2.399 -2.1730 -0.6500  0.2641
   64DG     H16 1465   1.571   5.335   2.436  0.8586  0.0418  1.0129
   64DG     C17 1466   1.531   5.194   2.797  0.1204 -0.1192  0.2438
   64DG     C18 1467   1.653   5.224   2.598 -0.1753 -0.1882 -0.6018
   64DG     O19 1468   1.566   5.287   2.696  0.1879  0.4604 -0.5005
   64DG     H20 1469   1.452   5.124   2.761 -2.8813 -0.7889 -0.3451
   64DG     H21 1470   1.628   5.149   2.823  0.2879  1.1433  0.0659
   64DG     H22 1471   1.614   5.126   2.569 -0.3554 -1.3171 -1.2281
   64DG     H23 1472   1.748   5.200   2.653  0.4083  0.9015  3.2805
   65DG      C1 1473   1.541   3.499   5.181  0.1931 -0.2993 -0.2788
   65DG      C2 1474   0.994   3.506   4.774  0.1063 -0.0405 -0.3430
   65DG      H3 1475   1.628   3.453   5.138 -0.2823  4.1808 -0.0459
   65DG      H4 1476   1.555   3.496   5.291  2.0999 -1.3126 -0.1427
   65DG      H5 1477   1.560   3.606   5.162  1.6048  0.4969 -1.1186
   65DG      H6 1478   1.022   3.609   4.800  1.0640  0.3404  0.8066
   65DG      H7 1479   1.036   3.488   4.674 -0.5834  0.4352  0.9969
   65DG      H8 1480   0.887   3.502   4.759  4.7249  3.3192  3.8981
   65DG      O9 1481   1.416   3.456   5.150 -0.1428 -0.5078  0.6445
   65DG     O10 1482   1.048   3.429   4.883  0.0224  0.7270 -1.0057
   65DG     C11 1483   1.401   3.314   5.170 -0.2076  0.0760 -0.5819
   65DG     C12 1484   1.036   3.288   4.879  0.1386 -0.4899  0.1135
   65DG     H13 1485   1.434   3.282   5.264 -2.8654 -2.7129  0.6799
   65DG     H14 1486   1.483   3.264   5.115  0.3646 -1.2927  1.2195
   65DG     H15 1487   1.100   3.246   4.797  0.9877 -0.6923  1.1530
   65DG     H16 1488   0.935   3.255   4.864  1.5286 -1.7104  1.6134
   65DG     C17 1489   1.271   3.230   5.149 -0.2832 -0.2587  0.0876
   65DG     C18 1490   1.084   3.240   5.010 -0.4082 -0.4294 -0.8439
   65DG     O19 1491   1.221   3.274   5.020 -0.2686  0.1207 -0.2907
   65DG     H20 1492   1.201   3.269   5.225  1.2485 -0.8659  0.7462
   65DG     H21 1493   1.281   3.122   5.158 -1.6968 -1.6790  0.4466
   65DG     H22 1494   1.031   3.280   5.098 -0.5857  2.2611  2.0229
   65DG     H23 1495   1.066   3.138   5.020 -0.6271  0.9494  2.9081
   66DG      C1 1496   1.698   3.356   2.495 -0.0720  0.3380 -0.3117
   66DG      C2 1497   2.221   2.922   2.415  0.4954 -0.0745  0.7344
   66DG      H3 1498   1.638   3.266   2.506  1.2887  2.9006 -0.5817
   66DG      H4 1499   1.638   3.435   2.463 -2.4017 -1.2306 -0.4933
   66DG      H5 1500   1.745   3.381   2.586 -0.6905 -2.0396 -0.1679
   66DG      H6 1501   2.262   2.965   2.510 -2.0474 -0.7767  1.1208
   66DG      H7 1502   2.149   2.846   2.447 -0.9589  1.4130  0.5296
   66DG      H8 1503   2.294   2.872   2.359  0.3169 -0.0644 -0.1822
   66DG      O9 1504   1.800   3.327   2.396 -0.1863  0.3915  0.0713
   66DG     O10 1505   2.143   3.023   2.351 -0.3051  0.5105 -0.0575
   66DG     C11 1506   1.746   3.303   2.270  0.1062  0.0542 -1.0527
   66DG     C12 1507   2.112   2.979   2.212 -0.5983 -0.1859 -0.5667
   66DG     H13 1508   1.710   3.404   2.241  0.8963  0.0012  0.1720
   66DG     H14 1509   1.650   3.250   2.274  0.6393 -2.8277  3.8040
   66DG     H15 1510   2.045   2.903   2.233 -1.3707  1.5181  1.7266
   66DG     H16 1511   2.199   2.933   2.160 -1.0060 -0.1891  2.1682
   66DG     C17 1512   1.858   3.253   2.174  0.7550 -0.0619  0.1480
   66DG     C18 1513   2.029   3.083   2.141 -0.2903 -0.5862 -0.1986
   66DG     O19 1514   1.945   3.153   2.237 -0.1993 -0.1715  0.5554
   66DG     H20 1515   1.924   3.338   2.141  0.3088 -0.3969  0.2665
   66DG     H21 1516   1.804   3.222   2.080 -2.5045  1.2960  1.0610
   66DG     H22 1517   2.091   3.157   2.087  0.5309  0.4188  2.0165
   66DG     H23 1518   1.971   3.029   2.070 -1.1090  1.3264  0.4065
   67DG      C1 1519   0.721   2.132   1.753  0.2165 -0.4983 -0.7541
   67DG      C2 1520   0.396   1.813   2.144 -0.1788  0.1033  0.5346
   67DG      H3 1521   0.770   2.105   1.840 -1.5532 -0.0509  0.4083
   67DG      H4 1522   0.715   2.244   1.749 -1.0814  0.4197 -1.3331
   67DG      H5 1523   0.767   2.083   1.663 -0.1226  1.3549  0.6618
   67DG      H6 1524   0.474   1.829   2.215  2.3765 -0.1058 -0.5677
   67DG      H7 1525   0.303   1.769   2.181 -1.3014 -0.0829  1.5466
   67DG      H8 1526   0.424   1.751   2.057 -1.8322 -2.6159  0.4700
   67DG      O9 1527   0.594   2.086   1.785 -0.1353 -0.6787  0.2569
   67DG     O10 1528   0.375   1.936   2.077 -0.1707  0.2302  0.3225
   67DG     C11 1529   0.491   2.127   1.694 -0.5862  0.0037 -0.4764
   67DG     C12 1530   0.253   1.937   1.998 -0.7526 -0.6430  0.0701
   67DG     H13 1531   0.504   2.077   1.598 -0.1675 -0.0695  0.9520
   67DG     H14 1532   0.482   2.237   1.668  0.0819  1.6448  1.4417
   67DG     H15 1533   0.165   1.891   2.051  1.1327 -1.1660 -0.5040
   67DG     H16 1534   0.274   1.875   1.913  1.5120 -2.1827 -0.0592
   67DG     C17 1535   0.362   2.077   1.750  0.0015  1.0787  0.3439
   67DG     C18 1536   0.225   2.077   1.952  0.1256 -0.0867  0.0804
   67DG     O19 1537   0.332   2.135   1.878 -0.2309  0.1396 -0.3678
   67DG     H20 1538   0.350   1.966   1.752 -1.2333 -0.1705 -1.3531
   67DG     H21 1539   0.283   2.094   1.677 -0.9370 -2.1239  2.1922
   67DG     H22 1540   0.135   2.081   1.887 -0.9701  1.3068 -0.2493
   67DG     H23 1541   0.200   2.146   2.025  1.9383 -0.7739 -0.6819
   68DG      C1 1542   4.289   0.773   5.286 -0.5615  0.4607 -0.5041
   68DG      C2 1543   4.378   0.544   6.098 -0.1246  0.6718 -0.9215
   68DG      H3 1544   4.279   0.706   5.201  3.1547  4.0351 -0.0919
   68DG      H4 1545   4.324   0.860   5.229 -0.2550  1.4650 -0.8765
   68DG      H5 1546   4.190   0.793   5.323 -1.9515  0.0753 -2.4865
   68DG      H6 1547   4.332   0.452   6.057  0.3844 -1.5417 -2.6067
   68DG      H7 1548   4.415   0.523   6.192  0.6303  0.4406  0.3952
   68DG      H8 1549   4.304   0.618   6.115  1.0186 -0.8198 -2.9373
   68DG      O9 1550   4.364   0.732   5.396 -0.3353  0.4728  0.5904
   68DG     O10 1551   4.482   0.588   6.008 -0.0529 -0.8163 -0.1609
   68DG     C11 1552   4.464   0.827   5.442  0.0712  0.0590 -0.1842
   68DG     C12 1553   4.424   0.623   5.882 -0.0079  0.5327  0.7682
   68DG     H13 1554   4.429   0.926   5.475  0.8388 -0.6751 -0.3813
   68DG     H14 1555   4.523   0.839   5.351 -0.1918 -1.2898  0.4471
   68DG     H15 1556   4.369   0.712   5.899 -2.4637  1.7228  0.3268
   68DG     H16 1557   4.359   0.552   5.844 -0.3840  0.2807 -0.9343
   68DG     C17 1558   4.546   0.768   5.559  0.3306 -0.2299 -0.8944
   68DG     C18 1559   4.534   0.664   5.775 -0.8950 -0.5477 -0.1021
   68DG     O19 1560   4.462   0.729   5.668  0.5524 -0.4968  0.1145
   68DG     H20 1561   4.634   0.835   5.589  1.1051 -1.1822 -1.6332
   68DG     H21 1562   4.589   0.678   5.523  0.2454  0.2390  1.5817
   68DG     H22 1563   4.611   0.718   5.829  2.2597  0.9185 -2.9033
   68DG     H23 1564   4.588   0.579   5.739  0.9036 -0.3290  0.2410
   69DG      C1 1565   0.142   4.471   0.633  1.0715 -0.4005  0.1702
   69DG      C2 1566   0.360   4.994   1.014  0.8710  0.1003 -0.5891
   69DG      H3 1567   0.070   4.396   0.666 -2.5473  0.9020 -0.8146
   69DG      H4 1568   0.243   4.448   0.663  2.9843 -0.5013 -0.8815
   69DG      H5 1569   0.140   4.479   0.522 -2.3480 -0.2566  0.7197
   69DG      H6 1570   0.410   4.929   1.080  1.1259  2.2494 -0.9894
   69DG      H7 1571   0.440   5.016   0.945 -0.4967 -1.7973  2.2699
   69DG      H8 1572   0.324   5.081   1.075 -2.3017  1.5348  0.9715
   69DG      O9 1573   0.100   4.592   0.691  0.2533 -0.4030  0.2756
   69DG     O10 1574   0.253   4.936   0.941 -0.1499  0.1037  0.4996
   69DG     C11 1575  -0.009   4.659   0.630 -0.2819 -0.4631 -0.1768
   69DG     C12 1576   0.189   5.033   0.857 -0.0487  0.3331 -0.2598
   69DG     H13 1577  -0.101   4.606   0.635 -0.0305  1.2170  2.6109
   69DG     H14 1578   0.014   4.676   0.524  1.9328 -1.0076  1.3982
   69DG     H15 1579   0.245   5.059   0.771  0.3311  1.9432 -0.8866
   69DG     H16 1580   0.172   5.114   0.918 -1.2447  0.8350  0.0299
   69DG     C17 1581  -0.044   4.788   0.704 -0.1871  0.1255 -0.8641
   69DG     C18 1582   0.056   4.970   0.815  0.7196  0.0033 -0.3419
   69DG     O19 1583   0.073   4.868   0.725  0.6912  0.6646 -0.7070
   69DG     H20 1584  -0.075   4.759   0.805  1.7386  0.7887  1.6002
   69DG     H21 1585  -0.117   4.840   0.656  0.5108  0.3742  0.8624
   69DG     H22 1586   0.006   4.933   0.902 -0.4205  0.4664 -2.9747
   69DG     H23 1587  -0.009   5.049   0.776 -1.1621 -1.0020  1.2539
   70DG      C1 1588   0.543   2.216   2.830  0.1571 -0.0793 -0.3168
   70DG      C2 1589   1.089   2.433   3.101 -0.4617 -0.4945  0.6244
   70DG      H3 1590   0.487   2.166   2.749  0.2930 -0.7452 -3.7669
   70DG      H4 1591   0.554   2.322   2.806 -1.8316  0.8399  1.3625
   70DG      H5 1592   0.489   2.214   2.923  0.9582  1.5842  0.1256
   70DG      H6 1593   1.040   2.460   3.188  1.5572  4.0527  0.6531
   70DG      H7 1594   1.191   2.426   3.128 -0.9424 -2.2684  1.1136
   70DG      H8 1595   1.093   2.522   3.045  3.6662 -0.9960 -0.1755
   70DG      O9 1596   0.674   2.162   2.842  0.5290  0.1876  0.6440
   70DG     O10 1597   1.049   2.318   3.032  0.3071  0.2107  0.4963
   70DG     C11 1598   0.735   2.146   2.713 -0.0718  0.0381  0.0466
   70DG     C12 1599   1.133   2.279   2.928 -0.3018  0.4642 -0.4413
   70DG     H13 1600   0.724   2.235   2.657  1.6038 -0.1449  2.6781
   70DG     H14 1601   0.692   2.072   2.648  0.9086  1.2684  1.6733
   70DG     H15 1602   1.229   2.257   2.971 -0.2236  1.0354  1.5587
   70DG     H16 1603   1.148   2.366   2.860  1.2968  2.0688 -0.9973
   70DG     C17 1604   0.880   2.111   2.720  0.1718  0.2719  0.5301
   70DG     C18 1605   1.080   2.155   2.852 -0.1953 -0.0251  0.1007
   70DG     O19 1606   0.950   2.197   2.811  0.5853  0.8885 -0.3477
   70DG     H20 1607   0.916   2.114   2.617 -1.7698  0.7810  1.6598
   70DG     H21 1608   0.896   2.017   2.768 -0.5131  2.3651  0.7206
   70DG     H22 1609   1.145   2.139   2.760 -0.6823  1.1306 -2.3968
   70DG     H23 1610   1.074   2.063   2.903 -1.1544  2.1945 -3.0967
   71DG      C1 1611   3.325   5.481   3.631 -0.2797  1.0921  1.1355
   71DG      C2 1612   2.845   5.002   3.580  0.5321 -0.2261 -0.4372
   71DG      H3 1613   3.386   5.388   3.641 -0.7935  1.7032  2.8525
   71DG      H4 1614   3.372   5.555   3.693 -2.3156  2.1841 -2.1427
   71DG      H5 1615   3.332   5.503   3.531  1.5196 -1.0267 -0.0024
   71DG      H6 1616   2.868   4.992   3.474 -2.7378 -3.4414 -2.4819
   71DG      H7 1617   2.914   4.944   3.633  2.5681  3.4198  3.8361
   71DG      H8 1618   2.743   4.964   3.602 -0.9379  3.6379  0.4252
   71DG      O9 1619   3.187   5.459   3.656 -0.5883 -0.5509 -0.1078
   71DG     O10 1620   2.854   5.136   3.630  0.5124 -0.4943 -0.1236
   71DG     C11 1621   3.099   5.573   3.651  0.2532  0.1600 -0.8075
   71DG     C12 1622   2.761   5.233   3.578 -0.6193  0.8698  0.0027
   71DG     H13 1623   3.106   5.611   3.553  2.1674 -0.7679  0.0500
   71DG     H14 1624   3.133   5.643   3.735 -3.5993  2.5616  2.3998
   71DG     H15 1625   2.655   5.203   3.576 -0.5684  1.3351 -0.3711
   71DG     H16 1626   2.791   5.249   3.473 -0.6135 -1.1254  2.1337
   71DG     C17 1627   2.950   5.528   3.681  0.5568  0.3390 -0.5988
   71DG     C18 1628   2.775   5.370   3.643  0.2907  1.7326 -0.2760
   71DG     O19 1629   2.914   5.407   3.620  0.2020 -0.0700  0.0062
   71DG     H20 1630   2.889   5.619   3.667 -0.8553  0.8029 -0.4231
   71DG     H21 1631   2.954   5.510   3.783  3.7522 -0.9725 -0.8460
   71DG     H22 1632   2.721   5.443   3.590  0.7130 -0.2192  1.5796
   71DG     H23 1633   2.757   5.376   3.749  0.0252 -1.0195 -1.8312
   72DG      C1 1634   3.800   3.619   3.808 -0.1016 -0.3381 -0.0119
   72DG      C2 1635   4.222   3.239   4.132 -0.2080  0.2449 -0.4432
   72DG      H3 1636   3.750   3.681   3.732  0.6458 -1.8275  1.5983
   72DG      H4 1637   3.815   3.667   3.900 -1.1983  1.0666 -0.7584
   72DG      H5 1638   3.719   3.540   3.813 -1.8767  1.8257  1.2996
   72DG      H6 1639   4.305   3.173   4.112 -3.7291  3.2633 -2.1186
   72DG      H7 1640   4.252   3.294   4.224  1.1844  1.1610  1.2912
   72DG      H8 1641   4.135   3.182   4.167  0.0535  2.0105 -2.1616
   72DG      O9 1642   3.925   3.560   3.763  0.0356 -0.2996  0.5880
   72DG     O10 1643   4.198   3.302   4.007 -0.9668  0.8508 -0.2351
   72DG     C11 1644   4.013   3.654   3.721 -0.2703 -0.3738 -0.2747
   72DG     C12 1645   4.309   3.388   3.963 -0.3516  0.1396 -0.2624
   72DG     H13 1646   4.018   3.727   3.806  0.7498  1.6401  0.6066
   72DG     H14 1647   3.976   3.700   3.628 -0.4631 -1.7951  0.1926
   72DG     H15 1648   4.409   3.336   3.977 -2.1230  1.5180  0.3840
   72DG     H16 1649   4.302   3.480   4.025 -0.6870  0.9679  2.3657
   72DG     C17 1650   4.148   3.580   3.704  0.0007 -0.1604 -0.0016
   72DG     C18 1651   4.286   3.434   3.821  0.1554  0.4958  0.6596
   72DG     O19 1652   4.161   3.502   3.819  0.5236  0.0858  0.8829
   72DG     H20 1653   4.220   3.665   3.687  2.9291  1.5029 -1.1634
   72DG     H21 1654   4.148   3.515   3.610  1.0588 -2.1863 -0.0333
   72DG     H22 1655   4.368   3.492   3.776  1.2391 -2.9496 -3.7988
   72DG     H23 1656   4.278   3.351   3.742 -2.5736  0.9194  0.1567
   73DG      C1 1657   3.832   3.810   2.333 -0.0775  0.0007 -0.1964
   73DG      C2 1658   3.868   3.991   2.958  0.3272 -0.3601 -0.0751
   73DG      H3 1659   3.857   3.727   2.394 -3.0602  1.1590 -1.5457
   73DG      H4 1660   3.874   3.809   2.229  1.6692  0.2472  1.5022
   73DG      H5 1661   3.719   3.817   2.328  2.0416  1.2550 -0.5633
   73DG      H6 1662   3.759   3.974   2.974  0.6994  2.2204 -0.5798
   73DG      H7 1663   3.907   3.890   2.976  1.6843 -1.4060  0.6431
   73DG      H8 1664   3.897   4.057   3.024 -0.6514 -0.2494 -2.7748
   73DG      O9 1665   3.899   3.920   2.394 -0.3733  0.0857 -0.1812
   73DG     O10 1666   3.889   4.034   2.824  0.1052  0.1721  0.1748
   73DG     C11 1667   3.862   4.053   2.352  0.7614  0.5352 -0.7088
   73DG     C12 1668   3.856   4.174   2.802 -0.0425 -0.2053 -0.4042
   73DG     H13 1669   3.754   4.077   2.341  1.6068 -1.3078  0.6340
   73DG     H14 1670   3.902   4.079   2.253 -0.1056 -1.1315 -0.4905
   73DG     H15 1671   3.876   4.236   2.890 -0.4257  2.3479 -2.9258
   73DG     H16 1672   3.749   4.175   2.796  0.7665 -0.7155 -1.2709
   73DG     C17 1673   3.931   4.151   2.445  0.4923  0.6436 -0.1554
   73DG     C18 1674   3.908   4.234   2.671  0.1070 -0.1505  0.2861
   73DG     O19 1675   3.879   4.134   2.575  0.1593 -0.8138 -0.3459
   73DG     H20 1676   3.907   4.250   2.403 -1.0751  1.7413  0.6317
   73DG     H21 1677   4.037   4.138   2.447  0.5931 -0.3151  0.6432
   73DG     H22 1678   3.861   4.332   2.658  1.3126  0.3659 -1.2667
   73DG     H23 1679   4.014   4.238   2.670  0.5003  0.7732 -1.0750
   74DG      C1 1680   4.852   3.469   1.978  0.5153 -0.3062 -0.2707
   74DG      C2 1681   4.637   3.107   2.496 -0.4845 -0.2940 -0.4955
   74DG      H3 1682   4.797   3.518   1.897  0.8697  1.2334 -2.6358
   74DG      H4 1683   4.888   3.369   1.940  0.7887 -2.5478 -3.3213
   74DG      H5 1684   4.936   3.531   1.999 -2.1696 -0.1638 -0.2354
   74DG      H6 1685   4.653   3.029   2.421  1.6462  2.0256 -1.1337
   74DG      H7 1686   4.739   3.139   2.521 -0.1974 -0.6019  1.1080
   74DG      H8 1687   4.582   3.065   2.577  0.2847  1.3540 -0.5885
   74DG      O9 1688   4.762   3.458   2.087 -0.1600 -0.3785  0.3226
   74DG     O10 1689   4.555   3.202   2.431  0.2013 -0.5061 -0.1820
   74DG     C11 1690   4.738   3.577   2.153  0.6464  0.3620 -0.3473
   74DG     C12 1691   4.538   3.318   2.501  0.1107 -0.2657  0.1761
   74DG     H13 1692   4.720   3.650   2.071  4.0909 -0.4346 -0.4321
   74DG     H14 1693   4.816   3.616   2.213 -1.1418  0.4682 -0.1605
   74DG     H15 1694   4.607   3.336   2.580  1.4505 -1.8062  1.3997
   74DG     H16 1695   4.445   3.306   2.566 -2.3163 -0.4921 -1.4143
   74DG     C17 1696   4.606   3.559   2.236 -0.7502  0.4818 -0.0149
   74DG     C18 1697   4.523   3.434   2.410 -0.0402  0.3892 -0.6146
   74DG     O19 1698   4.636   3.458   2.331 -0.4645 -0.0446  0.3149
   74DG     H20 1699   4.512   3.529   2.182 -2.7863  1.0172  1.3011
   74DG     H21 1700   4.583   3.656   2.290 -0.3982  0.8335  0.5154
   74DG     H22 1701   4.430   3.409   2.356  0.6634 -1.0665 -2.6270
   74DG     H23 1702   4.517   3.527   2.468 -1.9241  2.0993 -1.1372
   75DG      C1 1703   1.951   2.403   1.969  0.1747 -0.3228  0.5803
   75DG      C2 1704   1.340   2.481   2.158  0.4373 -0.1900  0.2943
   75DG      H3 1705   1.939   2.335   2.050 -0.2299  0.5123  0.2117
   75DG      H4 1706   1.976   2.502   1.993 -0.0146 -1.4649 -2.6411
   75DG      H5 1707   2.025   2.368   1.897 -1.4571  1.5026  0.4949
   75DG      H6 1708   1.380   2.458   2.256 -1.6047  0.2236  0.6756
   75DG      H7 1709   1.307   2.584   2.162 -0.2015 -0.2708  1.8037
   75DG      H8 1710   1.253   2.422   2.129  0.2777 -1.9848  1.1598
   75DG      O9 1711   1.829   2.399   1.906  0.1309 -0.0418  0.4626
   75DG     O10 1712   1.437   2.476   2.052  0.7931  0.2310 -0.4436
   75DG     C11 1713   1.829   2.483   1.794  0.1784  0.0687  0.4694
   75DG     C12 1714   1.386   2.528   1.931 -0.6203  0.1282 -0.5671
   75DG     H13 1715   1.902   2.449   1.712 -0.9650  0.5291 -3.7701
   75DG     H14 1716   1.843   2.593   1.812  0.0194  0.7880  0.5864
   75DG     H15 1717   1.388   2.633   1.939 -1.2534 -1.6054 -0.7731
   75DG     H16 1718   1.288   2.490   1.916  1.7476  0.0316 -1.5090
   75DG     C17 1719   1.694   2.464   1.731 -0.2542  0.0500  0.2711
   75DG     C18 1720   1.474   2.488   1.812 -0.2493  0.1661 -0.0017
   75DG     O19 1721   1.606   2.496   1.842 -0.3827  0.1989  0.1530
   75DG     H20 1722   1.678   2.360   1.693  2.9622 -1.6753 -0.8584
   75DG     H21 1723   1.693   2.536   1.651 -1.8535 -0.5734  2.7041
   75DG     H22 1724   1.439   2.391   1.770  0.8550  0.5571 -0.0861
   75DG     H23 1725   1.454   2.554   1.733 -0.0396  1.8962  1.9099
   76DG      C1 1726   4.688   2.098   3.572  0.3847  0.3591  0.1523
   76DG      C2 1727   4.653   1.709   4.071  0.0853  0.3661  0.1700
   76DG      H3 1728   4.655   2.087   3.466 -0.5056 -1.0065  1.0279
   76DG      H4 1729   4.763   2.173   3.591  0.0560 -1.3036  0.0049
   76DG      H5 1730   4.606   2.117   3.638 -0.1328 -1.3999  0.6621
   76DG      H6 1731   4.727   1.735   4.145  1.3166 -0.9170 -0.5757
   76DG      H7 1732   4.567   1.773   4.084  0.1224 -0.1425 -2.7053
   76DG      H8 1733   4.630   1.611   4.098 -1.5977 -0.1734 -0.5293
   76DG      O9 1734   4.735   1.962   3.603 -0.5927 -0.2280 -0.0931
   76DG     O10 1735   4.695   1.718   3.939 -0.4702 -0.4785 -0.0400
   76DG     C11 1736   4.839   1.913   3.524  0.5796  0.4826 -0.3322
   76DG     C12 1737   4.792   1.617   3.902  0.3848 -0.0349  0.0575
   76DG     H13 1738   4.921   1.976   3.544 -0.7447 -0.4731 -1.4137
   76DG     H14 1739   4.818   1.916   3.426 -1.6078  1.4442  3.0546
   76DG     H15 1740   4.766   1.516   3.932 -0.1080 -0.1078  0.8352
   76DG     H16 1741   4.885   1.648   3.941  1.5205 -1.4417  0.3384
   76DG     C17 1742   4.853   1.764   3.563  0.3616 -0.0591  0.2550
   76DG     C18 1743   4.826   1.610   3.749 -0.2535  0.0140 -0.2838
   76DG     O19 1744   4.855   1.743   3.707 -0.3875 -1.1010  0.7596
   76DG     H20 1745   4.937   1.719   3.508  0.6006 -1.0432  0.6118
   76DG     H21 1746   4.770   1.710   3.518 -0.1007 -0.6680 -2.0411
   76DG     H22 1747   4.923   1.557   3.737  0.3044 -1.3282 -0.0794
   76DG     H23 1748   4.746   1.577   3.693 -1.3418  0.0421  3.1984
   77DG      C1 1749   2.005   4.011   2.991  1.1649  0.0908 -0.1968
   77DG      C2 1750   1.450   4.318   3.175  0.3549 -0.7931 -0.1079
   77DG      H3 1751   2.109   4.031   3.032  0.2945  0.5329  1.0902
   77DG      H4 1752   2.019   3.980   2.888  0.9275  1.1565  0.8945
   77DG      H5 1753   1.964   3.929   3.056  0.0802  2.5368  1.7904
   77DG      H6 1754   1.378   4.366   3.107  2.5177  1.9232  0.2440
   77DG      H7 1755   1.422   4.215   3.192  2.2236  1.6169  0.3433
   77DG      H8 1756   1.446   4.370   3.268  1.0486  0.9449 -2.1731
   77DG      O9 1757   1.923   4.127   2.990  0.0750 -0.0832  0.2313
   77DG     O10 1758   1.575   4.333   3.108 -0.0776 -0.4205 -0.6147
   77DG     C11 1759   1.982   4.240   2.919 -0.5548 -0.6810  0.1177
   77DG     C12 1760   1.629   4.459   3.096  0.0195  0.6525 -0.3818
   77DG     H13 1761   1.940   4.245   2.818  2.4595 -0.4561  2.1295
   77DG     H14 1762   2.088   4.216   2.900 -0.0932 -2.0504 -0.6638
   77DG     H15 1763   1.648   4.510   3.190 -3.2724 -0.4115  2.6370
   77DG     H16 1764   1.550   4.510   3.048  0.4053 -2.1886  0.7964
   77DG     C17 1765   1.963   4.376   2.989  0.6865  0.8125 -0.3423
   77DG     C18 1766   1.753   4.474   3.012  0.3837 -0.1189 -0.2491
   77DG     O19 1767   1.851   4.393   3.070  0.0982 -0.4694 -0.0214
   77DG     H20 1768   1.978   4.459   2.915  1.3723  1.4445  1.1500
   77DG     H21 1769   2.044   4.391   3.062 -1.0409  0.5310 -1.2436
   77DG     H22 1770   1.739   4.446   2.906  1.1025 -1.1447  0.1066
   77DG     H23 1771   1.783   4.575   3.008  1.3952 -0.3597 -0.1659
   78DG      C1 1772   4.262   4.576   3.354 -0.2720  0.4564 -0.7156
   78DG      C2 1773   3.671   4.381   3.074  0.3230  0.9370 -0.0654
   78DG      H3 1774   4.296   4.497   3.427  1.3669 -1.0953  1.0823
   78DG      H4 1775   4.320   4.664   3.367 -2.4024 -0.3706  1.4613
   78DG      H5 1776   4.275   4.523   3.261  0.3270  0.2673 -2.7548
   78DG      H6 1777   3.616   4.284   3.088 -0.7559  2.0241  0.9697
   78DG      H7 1778   3.581   4.446   3.033  2.1419  0.6722 -0.8372
   78DG      H8 1779   3.747   4.361   2.999 -0.0833  2.0069  1.4885
   78DG      O9 1780   4.117   4.592   3.364  0.0174 -0.4210 -0.0298
   78DG     O10 1781   3.739   4.421   3.188 -0.3955 -0.2702 -0.0598
   78DG     C11 1782   4.075   4.612   3.499  0.0922 -0.2394  0.3874
   78DG     C12 1783   3.656   4.431   3.301  0.1507 -0.1405 -0.0013
   78DG     H13 1784   4.065   4.719   3.504 -2.2681  3.0343  0.4419
   78DG     H14 1785   4.146   4.576   3.566 -0.4033 -0.7294 -0.6050
   78DG     H15 1786   3.591   4.349   3.310  0.2157 -1.7781  1.6555
   78DG     H16 1787   3.592   4.519   3.274 -3.0256  0.9097  1.9308
   78DG     C17 1788   3.942   4.534   3.523 -0.0063 -0.2544  0.3568
   78DG     C18 1789   3.723   4.452   3.436  0.0810  0.1441  0.1490
   78DG     O19 1790   3.851   4.526   3.411 -0.4144  0.6729  0.3095
   78DG     H20 1791   3.889   4.583   3.604 -0.0645  1.2826 -0.0530
   78DG     H21 1792   3.965   4.439   3.570  4.2291  0.0788  0.1608
   78DG     H22 1793   3.659   4.520   3.494  0.4892 -0.3991  2.1222
   78DG     H23 1794   3.747   4.359   3.487  1.9486 -0.5413 -0.9624
   79DG      C1 1795   1.064   1.251   2.618  0.7552  0.0645  0.0101
   79DG      C2 1796   0.875   1.393   3.243 -0.0281  0.6987 -0.0157
   79DG      H3 1797   1.066   1.362   2.598  3.1149  0.3490  0.6675
   79DG      H4 1798   0.973   1.219   2.561  0.0756  0.8596 -2.5580
   79DG      H5 1799   1.145   1.208   2.564 -0.8959 -0.9964  1.2285
   79DG      H6 1800   0.902   1.490   3.219  1.7160 -0.1954 -4.0809
   79DG      H7 1801   0.776   1.367   3.199 -0.7990 -3.4528  2.1716
   79DG      H8 1802   0.848   1.370   3.347  0.3169  1.9074 -0.6556
   79DG      O9 1803   1.090   1.213   2.757  0.1519  0.4797  0.6372
   79DG     O10 1804   0.975   1.313   3.187  0.0663 -0.6299 -0.5630
   79DG     C11 1805   1.064   1.081   2.790  0.3567 -1.0212  0.4519
   79DG     C12 1806   0.966   1.175   3.219 -0.1556  0.2067  0.0168
   79DG     H13 1807   1.142   1.018   2.755 -3.0980  0.3760  2.3868
   79DG     H14 1808   0.976   1.040   2.747 -0.8333  1.5516 -0.5301
   79DG     H15 1809   0.926   1.159   3.321  0.8869 -0.4631 -1.8809
   79DG     H16 1810   1.068   1.131   3.227 -0.3637  0.2945  0.4691
   79DG     C17 1811   1.051   1.060   2.941  0.3432 -0.1355  0.2059
   79DG     C18 1812   0.888   1.102   3.110 -0.1926  0.7645  0.5418
   79DG     O19 1813   0.939   1.136   2.983  0.2135 -0.0129  0.6501
   79DG     H20 1814   1.131   1.102   3.004 -0.7250 -0.1185  1.1226
   79DG     H21 1815   1.044   0.949   2.963 -0.6578  0.6282  0.5975
   79DG     H22 1816   0.891   0.990   3.125 -0.8723 -0.7020  1.7228
   79DG     H23 1817   0.785   1.124   3.116  2.0664 -1.0349 -1.9166
   80DG      C1 1818   5.021   3.450   5.168 -0.4509 -0.3773  0.1259
   80DG      C2 1819   5.621   3.503   5.502  0.1187 -0.2478  0.1288
   80DG      H3 1820   4.950   3.403   5.239  1.6052 -0.7026 -1.7275
   80DG      H4 1821   4.976   3.436   5.065 -1.8869 -2.1975  0.3889
   80DG      H5 1822   5.015   3.564   5.190 -0.4812  2.9702  2.2904
   80DG      H6 1823   5.718   3.533   5.467 -0.4592  0.9716  2.2926
   80DG      H7 1824   5.564   3.578   5.551 -1.0065 -0.9340 -0.2380
   80DG      H8 1825   5.639   3.433   5.586 -0.0826  0.3762  1.1758
   80DG      O9 1826   5.152   3.408   5.189 -0.1274 -0.2122 -0.2805
   80DG     O10 1827   5.539   3.445   5.400  0.1470  0.1153  0.2973
   80DG     C11 1828   5.170   3.264   5.195  0.0777  0.6711 -0.1269
   80DG     C12 1829   5.599   3.333   5.343  0.3636  0.0631 -0.6846
   80DG     H13 1830   5.093   3.204   5.148  1.5760  0.5426  1.1466
   80DG     H14 1831   5.155   3.254   5.297  0.2378  1.3563 -3.8329
   80DG     H15 1832   5.589   3.250   5.413 -2.0588  2.0143  2.0607
   80DG     H16 1833   5.703   3.357   5.325 -1.8066 -0.4063  1.6297
   80DG     C17 1834   5.310   3.226   5.147 -0.2175 -0.0738 -0.2683
   80DG     C18 1835   5.536   3.303   5.206  0.1878  0.0364 -0.2733
   80DG     O19 1836   5.392   3.310   5.226 -0.1287  0.1146  0.4356
   80DG     H20 1837   5.325   3.251   5.042  1.9957 -0.5657 -0.5980
   80DG     H21 1838   5.315   3.116   5.156  0.6694 -1.6992 -0.2888
   80DG     H22 1839   5.557   3.376   5.127 -4.1453 -1.5043  1.1200
   80DG     H23 1840   5.566   3.206   5.161 -1.2889 -0.9819 -0.3046
   81DG      C1 1841   0.241   0.603   3.186 -0.6213 -1.1636 -0.3860
   81DG      C2 1842   0.351   0.005   3.381 -0.5797 -0.0794  0.0581
   81DG      H3 1843   0.264   0.572   3.087 -1.8688 -0.8710 -4.0067
   81DG      H4 1844   0.326   0.635   3.244  0.0848  1.2546  0.8813
   81DG      H5 1845   0.174   0.686   3.166 -1.9517  1.5247 -1.3713
   81DG      H6 1846   0.391   0.014   3.280  0.1766 -1.8422  0.9657
   81DG      H7 1847   0.431  -0.031   3.450 -0.5219 -1.3756  3.0165
   81DG      H8 1848   0.284  -0.080   3.379  1.7308  1.2598  2.0648
   81DG      O9 1849   0.159   0.514   3.251 -0.2304  0.1294  0.1493
   81DG     O10 1850   0.288   0.128   3.421 -0.2004 -0.5628  0.1793
   81DG     C11 1851   0.090   0.554   3.365  0.7496 -0.2121 -0.2537
   81DG     C12 1852   0.378   0.213   3.497 -0.3115 -0.3853 -0.4335
   81DG     H13 1853   0.004   0.492   3.358  0.5970 -2.8379  0.5232
   81DG     H14 1854   0.040   0.649   3.365  0.7864 -0.3015  0.7607
   81DG     H15 1855   0.450   0.228   3.417 -0.7142  0.1416 -2.0718
   81DG     H16 1856   0.425   0.162   3.579 -3.6351 -0.8957 -1.0254
   81DG     C17 1857   0.177   0.527   3.483  0.2163  0.5389 -0.4690
   81DG     C18 1858   0.319   0.345   3.546 -0.8056  0.8320  0.6981
   81DG     O19 1859   0.203   0.387   3.468  0.5935 -1.0708  0.0049
   81DG     H20 1860   0.126   0.541   3.571  3.2079  1.7525  1.3379
   81DG     H21 1861   0.270   0.587   3.474  1.9926 -0.4201 -2.1995
   81DG     H22 1862   0.292   0.346   3.644  1.2202 -0.9390 -1.1852
   81DG     H23 1863   0.403   0.415   3.540  1.2385 -1.2089  1.8026
   82DG      C1 1864   1.927   2.888   0.097  0.6411 -0.2872 -0.8176
   82DG      C2 1865   2.575   2.904  -0.022 -0.1752  0.3631  0.5180
   82DG      H3 1866   1.915   2.997   0.100  0.8023 -1.4114  1.9246
   82DG      H4 1867   1.840   2.842   0.143 -0.6126  2.0064  0.2564
   82DG      H5 1868   1.939   2.854  -0.007 -4.4689 -0.9702 -0.1025
   82DG      H6 1869   2.587   3.010  -0.007 -0.5493  2.9550 -1.0914
   82DG      H7 1870   2.667   2.855  -0.038 -3.8880 -0.7050  2.5233
   82DG      H8 1871   2.515   2.889  -0.113 -0.2814  0.9780  2.3463
   82DG      O9 1872   2.052   2.853   0.159  0.1829  0.3840 -0.0980
   82DG     O10 1873   2.513   2.859   0.102  0.2553 -0.4241  0.4021
   82DG     C11 1874   2.073   2.720   0.175  0.0618 -0.2051  0.3711
   82DG     C12 1875   2.537   2.722   0.128  0.0181  0.4682  0.4224
   82DG     H13 1876   2.077   2.677   0.076  0.6105 -0.4014  0.9815
   82DG     H14 1877   1.986   2.678   0.226 -2.0661 -2.5728  0.4280
   82DG     H15 1878   2.638   2.707   0.171  1.8112 -2.2093 -1.3878
   82DG     H16 1879   2.523   2.658   0.040  0.9652  2.3125 -1.5497
   82DG     C17 1880   2.197   2.682   0.250  0.7032 -0.0710 -0.3415
   82DG     C18 1881   2.425   2.680   0.229 -0.3537  0.3978  0.0802
   82DG     O19 1882   2.308   2.728   0.170 -0.1115 -0.4829 -0.1368
   82DG     H20 1883   2.189   2.575   0.277 -0.4584 -0.2637  1.1820
   82DG     H21 1884   2.209   2.734   0.345 -1.3060  0.5154 -0.4649
   82DG     H22 1885   2.428   2.577   0.243  0.6182  3.5273  1.5602
   82DG     H23 1886   2.440   2.719   0.331  2.1986 -1.8833 -0.6146
   83DG      C1 1887   4.040   2.224   4.164 -0.0443  0.1354  0.4952
   83DG      C2 1888   4.548   2.158   4.610  0.2185  0.3404  0.5224
   83DG      H3 1889   4.052   2.290   4.083  0.3362 -0.7549  3.2116
   83DG      H4 1890   4.002   2.288   4.242 -1.0185  0.2299  0.4138
   83DG      H5 1891   3.965   2.152   4.142 -0.7708 -0.3991  2.0881
   83DG      H6 1892   4.632   2.101   4.650 -1.6978 -3.7642  1.3259
   83DG      H7 1893   4.598   2.255   4.586 -0.2959 -0.1682  0.5136
   83DG      H8 1894   4.475   2.181   4.692  0.3543 -0.4164 -0.1521
   83DG      O9 1895   4.153   2.150   4.205 -0.1311  0.1056  0.3656
   83DG     O10 1896   4.473   2.101   4.498  0.5771 -0.1791 -0.1896
   83DG     C11 1897   4.189   2.060   4.105  0.2644  0.3478  0.5818
   83DG     C12 1898   4.561   2.064   4.402  0.5216 -0.9208  0.6838
   83DG     H13 1899   4.253   2.104   4.030  1.4494 -0.2251 -1.7128
   83DG     H14 1900   4.111   2.002   4.050 -1.9420 -0.8943 -2.4617
   83DG     H15 1901   4.639   2.002   4.443  0.7663  2.0321  0.4616
   83DG     H16 1902   4.600   2.152   4.352 -1.1492 -0.4082 -1.7992
   83DG     C17 1903   4.291   1.968   4.169 -0.3768 -0.1859  0.1290
   83DG     C18 1904   4.490   1.984   4.291 -1.1649  0.1494  0.1369
   83DG     O19 1905   4.390   2.057   4.220  0.7028 -0.1535  0.0452
   83DG     H20 1906   4.327   1.917   4.076 -3.3765 -1.3265 -0.3994
   83DG     H21 1907   4.242   1.900   4.244 -1.7380  0.8798 -0.2311
   83DG     H22 1908   4.567   1.957   4.214  0.9872  0.3842 -1.7175
   83DG     H23 1909   4.452   1.899   4.337  0.9667 -1.7705 -2.9363
   84DG      C1 1910   3.573   4.858   5.408 -0.2611  0.1304  0.8021
   84DG      C2 1911   3.469   4.970   6.194 -0.2415  0.0822  0.2020
   84DG      H3 1912   3.641   4.770   5.414 -0.5732 -1.5058 -1.1289
   84DG      H4 1913   3.554   4.897   5.306 -0.1375 -1.3016 -1.1210
   84DG      H5 1914   3.477   4.826   5.439  2.1723 -0.7820 -1.2434
   84DG      H6 1915   3.504   4.990   6.301  0.6532  3.6660 -0.1512
   84DG      H7 1916   3.363   4.994   6.183 -0.8310 -1.7111 -2.0468
   84DG      H8 1917   3.473   4.867   6.174 -0.4625  2.7180  1.1190
   84DG      O9 1918   3.616   4.965   5.493 -0.6194 -0.6865 -0.1219
   84DG     O10 1919   3.553   5.037   6.100 -0.4975  0.0807  0.0142
   84DG     C11 1920   3.534   5.075   5.503 -0.1965 -0.2760 -0.5028
   84DG     C12 1921   3.513   5.034   5.964  0.1898 -0.1139 -0.0909
   84DG     H13 1922   3.427   5.049   5.493 -0.8014 -1.4022 -0.0563
   84DG     H14 1923   3.558   5.147   5.424 -1.6218  2.2660 -0.0624
   84DG     H15 1924   3.405   5.032   5.954 -1.1922 -0.4866 -0.4585
   84DG     H16 1925   3.532   4.939   5.922 -0.1953  2.5243  0.3236
   84DG     C17 1926   3.560   5.160   5.634 -1.2056 -0.0037  0.1286
   84DG     C18 1927   3.569   5.131   5.868 -0.5439 -0.8573 -0.1563
   84DG     O19 1928   3.552   5.071   5.742  0.4213  0.0546  0.7417
   84DG     H20 1929   3.493   5.236   5.645  2.5271  2.2918 -0.0774
   84DG     H21 1930   3.665   5.203   5.624  1.3730  1.4014 -1.7176
   84DG     H22 1931   3.526   5.232   5.870  1.2374 -2.5832 -2.9844
   84DG     H23 1932   3.682   5.139   5.881  1.1468  1.2979  1.0417
   85DG      C1 1933   3.532   2.405   3.938 -0.0611  0.4215  0.0032
   85DG      C2 1934   3.224   1.891   3.855  0.5451 -0.4855 -0.2468
   85DG      H3 1935   3.440   2.413   3.878  0.8322 -1.6759  0.0090
   85DG      H4 1936   3.595   2.485   3.892 -1.0356 -0.7454 -0.5657
   85DG      H5 1937   3.509   2.430   4.040  0.2812 -0.6370 -0.0277
   85DG      H6 1938   3.206   1.904   3.749 -0.4499 -0.8722 -0.0420
   85DG      H7 1939   3.210   1.779   3.869 -1.1085  1.4644  0.1462
   85DG      H8 1940   3.150   1.945   3.914  1.2004 -0.1448  0.3873
   85DG      O9 1941   3.570   2.268   3.934  0.2846 -0.0214  0.4528
   85DG     O10 1942   3.356   1.933   3.885  0.4431 -0.1363 -0.5239
   85DG     C11 1943   3.665   2.249   4.038  0.3835 -0.1861  0.7006
   85DG     C12 1944   3.386   1.904   4.024 -0.7364  0.1367  0.4664
   85DG     H13 1945   3.619   2.279   4.138  0.0636  1.7121 -1.6013
   85DG     H14 1946   3.757   2.307   4.020 -0.9277  2.6522  0.3619
   85DG     H15 1947   3.409   1.800   4.031  1.9239  0.5228  0.6754
   85DG     H16 1948   3.298   1.910   4.091  0.4808  1.8761  1.7140
   85DG     C17 1949   3.700   2.101   4.045  0.0044  0.6935 -0.7735
   85DG     C18 1950   3.497   1.989   4.088  0.5232  0.5128  0.3554
   85DG     O19 1951   3.596   2.021   3.987  0.1936 -0.3807 -0.3207
   85DG     H20 1952   3.734   2.072   4.145  3.0867  1.0168  0.3230
   85DG     H21 1953   3.790   2.080   3.992 -1.0004 -0.4841  0.7793
   85DG     H22 1954   3.462   2.086   4.124  0.9540  0.9551  2.0372
   85DG     H23 1955   3.534   1.939   4.177  2.0344 -1.7682 -1.9875
   86DG      C1 1956   0.419   3.791   1.217  0.1848 -0.7062  0.9958
   86DG      C2 1957   0.907   4.235   1.469  0.5021  0.2118  0.0419
   86DG      H3 1958   0.469   3.701   1.173  0.4592  0.4512  1.9896
   86DG      H4 1959   0.320   3.820   1.170  2.3245  0.1270  2.1822
   86DG      H5 1960   0.414   3.769   1.321  1.8136  0.4292 -3.0532
   86DG      H6 1961   0.911   4.340   1.503 -1.4518 -1.4510  1.3438
   86DG      H7 1962   0.850   4.187   1.548  0.4008  0.8902 -1.1295
   86DG      H8 1963   1.010   4.191   1.465  1.4763  3.4757  0.2643
   86DG      O9 1964   0.497   3.911   1.199 -0.3350  0.1133  0.4690
   86DG     O10 1965   0.822   4.209   1.360 -0.3022  0.4254  0.6559
   86DG     C11 1966   0.509   3.957   1.067 -0.2755  0.5943 -0.1897
   86DG     C12 1967   0.867   4.233   1.229 -0.6429  0.3147  0.1663
   86DG     H13 1968   0.416   3.956   1.012 -0.6244 -0.4748 -0.3384
   86DG     H14 1969   0.573   3.879   1.021 -0.6025 -0.4845  2.9610
   86DG     H15 1970   0.948   4.163   1.206 -1.7265  1.3985 -1.2614
   86DG     H16 1971   0.907   4.340   1.226 -0.7790 -0.4430 -0.2528
   86DG     C17 1972   0.575   4.097   1.059 -0.3032  0.0484  0.4280
   86DG     C18 1973   0.748   4.228   1.135 -0.3176  0.6250 -0.8379
   86DG     O19 1974   0.691   4.094   1.144  0.2553 -0.2035 -0.0379
   86DG     H20 1975   0.494   4.169   1.077 -0.1210  1.3273  0.1850
   86DG     H21 1976   0.615   4.123   0.963 -0.1190  1.7996  1.3977
   86DG     H22 1977   0.678   4.309   1.149 -0.1084 -0.0375 -2.9849
   86DG     H23 1978   0.794   4.245   1.034 -1.6752  0.2310 -0.7402
   87DG      C1 1979   4.567   4.808   5.013  0.0467 -0.8630  0.7680
   87DG      C2 1980   4.884   4.319   4.677  0.0787  0.0338  0.5429
   87DG      H3 1981   4.657   4.819   5.067 -0.7257 -2.9050 -0.4258
   87DG      H4 1982   4.483   4.846   5.068 -1.3107 -0.7529 -2.8948
   87DG      H5 1983   4.579   4.862   4.919  1.2697 -1.9575 -1.4911
   87DG      H6 1984   4.912   4.300   4.574 -1.6257  0.7328 -3.4335
   87DG      H7 1985   4.973   4.348   4.732  1.0409 -0.3377  0.8082
   87DG      H8 1986   4.840   4.227   4.719  2.7882  3.5042  2.4657
   87DG      O9 1987   4.556   4.672   4.989  0.1391 -0.2347  0.7372
   87DG     O10 1988   4.788   4.422   4.679 -0.7211  0.3875  0.7120
   87DG     C11 1989   4.432   4.627   4.936 -0.3669 -0.1303 -0.7589
   87DG     C12 1990   4.663   4.383   4.619  0.2830 -0.0286 -0.5211
   87DG     H13 1991   4.343   4.686   4.963  0.1421 -3.6358  1.1465
   87DG     H14 1992   4.419   4.520   4.970 -1.9722 -0.8038  0.0409
   87DG     H15 1993   4.640   4.287   4.654  0.4247  3.3625 -1.8375
   87DG     H16 1994   4.678   4.361   4.510 -0.0002  0.0317 -3.3977
   87DG     C17 1995   4.444   4.626   4.789 -0.0261 -0.3968  0.2404
   87DG     C18 1996   4.542   4.479   4.625 -0.0616  1.1779 -0.3122
   87DG     O19 1997   4.531   4.518   4.762  0.2125 -0.2438 -0.1996
   87DG     H20 1998   4.478   4.722   4.747  0.2300 -2.0119 -2.4478
   87DG     H21 1999   4.346   4.604   4.748  0.0246 -1.6172 -1.2129
   87DG     H22 2000   4.560   4.563   4.561 -1.8908  0.3575 -0.3818
   87DG     H23 2001   4.449   4.430   4.584  3.0028 -0.7874  0.6078
   88DG      C1 2002   2.252   0.046   1.484 -0.3012 -0.2703  0.0292
   88DG      C2 2003   2.803   0.178   1.911 -0.2752  0.3971 -0.2690
   88DG      H3 2004   2.280  -0.059   1.485  1.2002 -1.2568 -0.4675
   88DG      H4 2005   2.239   0.090   1.385  0.1382  0.5912 -1.8737
   88DG      H5 2006   2.148   0.034   1.524 -0.4480  0.9607  0.5620
   88DG      H6 2007   2.824   0.086   1.976 -2.0662  2.0262  1.3696
   88DG      H7 2008   2.858   0.173   1.814 -1.8966  0.4755 -1.1600
   88DG      H8 2009   2.860   0.244   1.971 -0.9194  1.4704  0.3545
   88DG      O9 2010   2.342   0.109   1.578 -0.7223 -0.0557  0.2175
   88DG     O10 2011   2.670   0.219   1.907 -0.2266 -0.2165 -0.4081
   88DG     C11 2012   2.296   0.245   1.582 -0.1846 -0.0485  0.3027
   88DG     C12 2013   2.644   0.361   1.887 -0.9088 -0.1945  0.0711
   88DG     H13 2014   2.188   0.258   1.571  2.0055 -0.8048  1.3787
   88DG     H14 2015   2.338   0.298   1.499  4.1328  2.9560  1.9192
   88DG     H15 2016   2.696   0.404   1.796 -0.6860 -0.2542 -2.2873
   88DG     H16 2017   2.657   0.426   1.974  2.0996  1.1417 -0.4390
   88DG     C17 2018   2.346   0.323   1.708  0.1887 -0.5508 -0.5254
   88DG     C18 2019   2.493   0.366   1.880  0.7775 -0.0385  0.9221
   88DG     O19 2020   2.472   0.291   1.760  0.5910 -0.4655 -0.3120
   88DG     H20 2021   2.271   0.309   1.781  0.2242  1.0513 -0.0955
   88DG     H21 2022   2.334   0.427   1.687 -2.3984  2.0229  2.1533
   88DG     H22 2023   2.449   0.317   1.968  0.0520 -2.9696 -1.9379
   88DG     H23 2024   2.458   0.476   1.869 -1.6743  2.7729  1.1839
   89DG      C1 2025   4.854   2.694   3.045  0.3574 -0.2639 -0.0555
   89DG      C2 2026   4.838   3.350   3.225  0.6738  0.1252 -0.3928
   89DG      H3 2027   4.813   2.667   3.145  0.7669  2.1638 -0.8284
   89DG      H4 2028   4.897   2.612   2.988 -2.1579 -1.0959 -1.2056
   89DG      H5 2029   4.777   2.721   2.978  0.2573  0.1415  0.6667
   89DG      H6 2030   4.939   3.378   3.266  0.2259 -0.8089 -0.9921
   89DG      H7 2031   4.784   3.443   3.195  0.3131 -0.5238 -1.8735
   89DG      H8 2032   4.785   3.303   3.307  2.8752  2.1120 -0.8837
   89DG      O9 2033   4.943   2.798   3.072 -0.1135  0.1218  0.4578
   89DG     O10 2034   4.832   3.258   3.123 -0.5561 -0.3053  0.7717
   89DG     C11 2035   5.010   2.845   2.956 -0.0014 -0.6748  0.2400
   89DG     C12 2036   4.884   3.304   2.998  0.2041 -0.4856  0.0079
   89DG     H13 2037   5.026   2.763   2.885 -2.0376 -0.1157 -0.8909
   89DG     H14 2038   5.106   2.881   2.988 -0.5454  1.9121 -0.4231
   89DG     H15 2039   4.996   3.323   3.013  3.6714 -1.9095 -0.6612
   89DG     H16 2040   4.836   3.391   2.958 -2.6149 -1.5026  0.2957
   89DG     C17 2041   4.937   2.957   2.878 -0.1262  0.4248 -0.2246
   89DG     C18 2042   4.869   3.192   2.899  0.1498  0.1133  0.6413
   89DG     O19 2043   4.913   3.070   2.964  0.0252  0.8145 -0.0837
   89DG     H20 2044   4.852   2.903   2.838 -0.3230 -2.3838  3.3132
   89DG     H21 2045   4.995   2.980   2.792 -0.3050  0.5400  0.9007
   89DG     H22 2046   4.761   3.180   2.880  0.3626  2.4891  1.9353
   89DG     H23 2047   4.917   3.211   2.801  0.4134 -0.0307 -3.4436
   90DG      C1 2048   5.408   0.864   2.159 -0.7490 -0.1352 -0.2303
   90DG      C2 2049   5.544   0.323   2.536 -0.0210 -0.7391 -0.3180
   90DG      H3 2050   5.359   0.958   2.138 -0.9253 -0.2495 -0.7641
   90DG      H4 2051   5.405   0.800   2.073 -0.3190  0.3493  2.9575
   90DG      H5 2052   5.511   0.904   2.182 -2.3381  0.1628 -1.7898
   90DG      H6 2053   5.573   0.311   2.644  2.2529 -1.4159  2.5053
   90DG      H7 2054   5.488   0.243   2.494 -1.9301 -1.5433  3.1643
   90DG      H8 2055   5.630   0.343   2.475  1.1486 -0.4836  0.2951
   90DG      O9 2056   5.353   0.799   2.277  0.5072 -0.1439  0.1714
   90DG     O10 2057   5.464   0.445   2.539  0.2489 -0.3212 -0.8869
   90DG     C11 2058   5.214   0.762   2.274  0.1914  0.4509  0.0014
   90DG     C12 2059   5.335   0.425   2.596  0.5245 -0.0709 -0.2964
   90DG     H13 2060   5.209   0.680   2.190 -3.2520 -0.4013  0.2157
   90DG     H14 2061   5.161   0.854   2.242  0.1590  1.7365  3.8062
   90DG     H15 2062   5.328   0.389   2.695 -0.4739  0.2103 -1.4185
   90DG     H16 2063   5.286   0.349   2.533  0.0370 -1.2626 -1.4428
   90DG     C17 2064   5.181   0.711   2.417 -0.2756  0.2521 -0.0800
   90DG     C18 2065   5.242   0.543   2.569 -0.8462  0.4680  0.6563
   90DG     O19 2066   5.270   0.605   2.450  0.2708  0.3644  0.0471
   90DG     H20 2067   5.085   0.663   2.405 -0.5272  0.4002 -1.4863
   90DG     H21 2068   5.180   0.790   2.492 -1.7851  0.8493  0.1642
   90DG     H22 2069   5.138   0.520   2.570  1.9015 -0.0666  0.3039
   90DG     H23 2070   5.266   0.616   2.648 -0.1805 -0.0544  2.5462
   91DG      C1 2071   0.545   0.197   3.106  0.6423 -1.0882  0.4703
   91DG      C2 2072  -0.046  -0.046   3.402 -0.3484 -0.3985  0.2020
   91DG      H3 2073   0.545   0.096   3.060 -3.7568  3.0792 -0.7913
   91DG      H4 2074   0.589   0.166   3.205  1.0514 -0.1929  1.6963
   91DG      H5 2075   0.602   0.273   3.048  1.8703 -0.1764  0.6533
   91DG      H6 2076   0.018  -0.131   3.430 -1.1643 -0.4329  0.1601
   91DG      H7 2077  -0.074   0.025   3.482  0.3460  0.7463 -0.4339
   91DG      H8 2078  -0.139  -0.087   3.379 -1.4466  1.1036 -1.0530
   91DG      O9 2079   0.411   0.228   3.144  0.2874 -0.3454 -1.0278
   91DG     O10 2080  -0.005   0.024   3.290 -0.2537 -0.0957 -0.2405
   91DG     C11 2081   0.329   0.265   3.035  0.1194  0.4044 -0.4293
   91DG     C12 2082   0.012  -0.061   3.178  0.2422 -0.1209 -0.2780
   91DG     H13 2083   0.386   0.309   2.951 -0.2159 -0.1621  0.5021
   91DG     H14 2084   0.257   0.348   3.059 -3.5072  0.1728 -0.6505
   91DG     H15 2085  -0.088  -0.093   3.140  3.0964  0.2209 -1.4311
   91DG     H16 2086   0.077  -0.145   3.199 -0.2581  1.1919 -1.3595
   91DG     C17 2087   0.259   0.137   2.982  0.1496  0.7906  0.1792
   91DG     C18 2088   0.076   0.000   3.050  0.0729  0.0960 -0.4388
   91DG     O19 2089   0.187   0.087   3.091  0.3147  0.3852  0.4326
   91DG     H20 2090   0.322   0.059   2.938 -0.4647  0.0366 -2.4303
   91DG     H21 2091   0.192   0.164   2.904  0.2335 -0.0725 -0.2880
   91DG     H22 2092   0.102  -0.082   2.990  2.6491  1.9556 -0.1115
   91DG     H23 2093   0.001   0.067   2.997  1.9108 -0.1649  0.4885
   92DG      C1 2094   4.217   2.564   1.942  0.5676  0.3282  0.4610
   92DG      C2 2095   4.497   2.619   1.638 -0.2500  0.3670 -0.4152
   92DG      H3 2096   4.245   2.549   2.039  2.3907 -0.6076 -0.3783
   92DG      H4 2097   4.127   2.622   1.945  1.0292 -4.4308 -2.9361
   92DG      H5 2098   4.290   2.627   1.905  1.6746  0.2791  1.0556
   92DG      H6 2099   4.543   2.684   1.717 -1.5385  1.7426  0.1833
   92DG      H7 2100   4.521   2.671   1.545  0.0476 -1.2251  0.7750
   92DG      H8 2101   4.387   2.624   1.646  0.5982 -2.0123  1.3542
   92DG      O9 2102   4.209   2.449   1.860  0.0119  0.4995 -0.0314
   92DG     O10 2103   4.536   2.486   1.642 -0.1168  0.2451  0.4467
   92DG     C11 2104   4.113   2.448   1.760  0.6052  0.3682  0.3051
   92DG     C12 2105   4.490   2.409   1.533  0.7596 -0.4876 -0.5407
   92DG     H13 2106   4.132   2.544   1.703  0.2726  0.7729  2.3157
   92DG     H14 2107   4.007   2.442   1.795  0.7267  2.3796  0.8816
   92DG     H15 2108   4.538   2.311   1.539  1.6182 -0.9537  1.6605
   92DG     H16 2109   4.520   2.461   1.449 -0.7261 -1.9785  2.3884
   92DG     C17 2110   4.160   2.340   1.665 -0.3992  0.6152  0.1763
   92DG     C18 2111   4.340   2.393   1.519 -0.4832 -0.7632 -0.0639
   92DG     O19 2112   4.297   2.352   1.647 -0.5055  0.2148  0.3897
   92DG     H20 2113   4.106   2.350   1.570  0.6115  0.5255 -1.8195
   92DG     H21 2114   4.123   2.242   1.701 -1.2273  1.1269  1.4757
   92DG     H22 2115   4.297   2.493   1.490 -1.7581  2.1920 -1.3655
   92DG     H23 2116   4.322   2.324   1.439  0.1410  1.0053 -0.0302
   93DG      C1 2117   0.833   3.695   1.136 -0.3649  0.1849 -0.5845
   93DG      C2 2118   0.464   4.170   1.413  1.0499 -0.4571  0.2334
   93DG      H3 2119   0.740   3.693   1.070 -3.5134  2.2545  3.2189
   93DG      H4 2120   0.867   3.586   1.134  2.9034 -0.8827 -0.3888
   93DG      H5 2121   0.911   3.764   1.096 -0.9662  2.2302 -2.2670
   93DG      H6 2122   0.460   4.239   1.498  0.3137 -1.5379  3.5177
   93DG      H7 2123   0.497   4.229   1.327 -0.3200 -4.4157 -1.2511
   93DG      H8 2124   0.361   4.144   1.401 -2.2026 -4.2400 -3.6600
   93DG      O9 2125   0.803   3.732   1.267  0.2535  0.4624  0.0731
   93DG     O10 2126   0.546   4.055   1.453 -0.4746 -0.4617  0.2289
   93DG     C11 2127   0.750   3.636   1.347  0.3758 -0.0196 -0.2067
   93DG     C12 2128   0.500   3.989   1.567  0.3262 -0.4471 -0.3750
   93DG     H13 2129   0.813   3.550   1.361  0.0400  0.9467  2.0589
   93DG     H14 2130   0.662   3.603   1.297  0.5423  2.1938 -0.0704
   93DG     H15 2131   0.396   3.954   1.555  3.2269 -3.2623  0.4925
   93DG     H16 2132   0.495   4.066   1.646 -3.9943  0.8565 -0.3465
   93DG     C17 2133   0.723   3.693   1.486  0.0469  0.1443 -0.2548
   93DG     C18 2134   0.580   3.860   1.597 -1.0669  0.0957 -0.4748
   93DG     O19 2135   0.651   3.812   1.475  0.0024 -0.0686  0.0450
   93DG     H20 2136   0.820   3.717   1.530  0.0882  1.6184 -1.0174
   93DG     H21 2137   0.679   3.619   1.549 -1.0014  0.6383  1.9553
   93DG     H22 2138   0.650   3.862   1.679  2.3341  1.9936  1.1333
   93DG     H23 2139   0.515   3.775   1.620  0.7365 -0.4045  0.0044
   94DG      C1 2140   4.207   4.663   2.417 -0.3712  0.4405  0.3519
   94DG      C2 2141   4.482   4.679   3.031 -0.3171 -0.3346 -0.0561
   94DG      H3 2142   4.208   4.639   2.314  2.3255  0.2322  0.8044
   94DG      H4 2143   4.227   4.771   2.427  1.7715  2.0806  1.1822
   94DG      H5 2144   4.100   4.651   2.447 -2.2880  0.1183  0.6686
   94DG      H6 2145   4.571   4.710   3.077 -0.3426  1.0172 -0.7234
   94DG      H7 2146   4.435   4.759   2.981 -0.1590 -0.3999  0.7566
   94DG      H8 2147   4.420   4.649   3.118 -3.1177 -1.6577  0.5726
   94DG      O9 2148   4.293   4.586   2.505  0.0326 -0.7757  0.4237
   94DG     O10 2149   4.522   4.568   2.955  0.3374  0.2632 -0.2094
   94DG     C11 2150   4.271   4.451   2.508 -0.2156 -0.2353 -0.2573
   94DG     C12 2151   4.567   4.587   2.824 -0.2994 -0.1108 -0.1685
   94DG     H13 2152   4.248   4.401   2.415 -3.6380  0.6192 -1.6670
   94DG     H14 2153   4.175   4.435   2.561  0.4189 -0.3463  1.0932
   94DG     H15 2154   4.670   4.613   2.830 -4.0732  1.7301  0.6679
   94DG     H16 2155   4.519   4.670   2.780 -0.9091  1.4093 -0.1880
   94DG     C17 2156   4.385   4.381   2.585  0.2254 -0.6895  0.1105
   94DG     C18 2157   4.550   4.460   2.738 -0.4471  0.7999  0.1059
   94DG     O19 2158   4.415   4.454   2.698 -0.1923 -0.6975 -0.3076
   94DG     H20 2159   4.474   4.369   2.523  2.1236 -0.0813 -4.0655
   94DG     H21 2160   4.362   4.271   2.605  2.2747  0.8326 -0.7583
   94DG     H22 2161   4.604   4.479   2.653 -1.2438  1.7435 -0.8979
   94DG     H23 2162   4.596   4.369   2.778 -1.8979  2.1281 -0.1704
   95DG      C1 2163   2.751   1.346   0.609  0.5595 -0.0401 -0.4383
   95DG      C2 2164   3.048   1.644   0.969 -1.0483  0.6215 -1.4036
   95DG      H3 2165   2.814   1.371   0.522  0.3087  2.0472 -3.6356
   95DG      H4 2166   2.658   1.308   0.564 -0.2079 -0.0454 -2.1631
   95DG      H5 2167   2.797   1.275   0.682  0.3290 -1.1589 -0.7727
   95DG      H6 2168   2.973   1.621   0.892  1.7615  0.7416  0.8630
   95DG      H7 2169   3.024   1.748   0.982 -0.3742  0.2498  2.7018
   95DG      H8 2170   3.142   1.637   0.915 -0.7424 -1.2065 -0.3340
   95DG      O9 2171   2.738   1.468   0.678  0.6601 -0.5566 -0.0866
   95DG     O10 2172   3.049   1.557   1.081 -0.1266 -0.3405  0.2666
   95DG     C11 2173   2.645   1.465   0.791  0.3411 -0.1581  0.1811
   95DG     C12 2174   3.040   1.412   1.054 -0.6320 -0.1882  0.0519
   95DG     H13 2175   2.547   1.430   0.763  1.1040 -1.0142  1.0911
   95DG     H14 2176   2.624   1.564   0.829  0.0567 -0.0025  1.5924
   95DG     H15 2177   3.087   1.370   1.139  0.4177  2.6973  1.0897
   95DG     H16 2178   3.109   1.381   0.980 -1.1388  0.5414  0.9617
   95DG     C17 2179   2.704   1.383   0.908 -0.5402 -0.0009  0.0483
   95DG     C18 2180   2.891   1.365   1.045 -1.2378 -0.2234 -0.4754
   95DG     O19 2181   2.840   1.424   0.927  0.2241  0.1362 -0.0072
   95DG     H20 2182   2.701   1.272   0.895 -1.5218  0.6348  1.3158
   95DG     H21 2183   2.644   1.400   0.998  4.8480 -1.0235 -2.1583
   95DG     H22 2184   2.889   1.261   1.043  1.7678  0.2454 -0.8623
   95DG     H23 2185   2.839   1.396   1.139  2.0931 -0.3872  1.3430
   96DG      C1 2186   3.793   2.547   5.451 -0.0729 -0.1932 -0.1363
   96DG      C2 2187   3.589   2.787   4.863  0.2303  0.5748  0.2636
   96DG      H3 2188   3.861   2.637   5.468 -0.6820 -0.6450  1.3656
   96DG      H4 2189   3.854   2.453   5.482  1.5769  0.1418 -0.2531
   96DG      H5 2190   3.701   2.557   5.509 -1.5736 -0.0858 -3.9013
   96DG      H6 2191   3.637   2.874   4.914 -1.1811  2.5201 -0.7557
   96DG      H7 2192   3.591   2.789   4.753 -0.8687 -0.6984  1.9281
   96DG      H8 2193   3.481   2.788   4.894  1.5457 -0.6376 -0.9141
   96DG      O9 2194   3.764   2.521   5.313 -0.3901 -0.0374 -0.1148
   96DG     O10 2195   3.653   2.669   4.913  0.1130 -0.5030 -1.1451
   96DG     C11 2196   3.702   2.394   5.297 -0.6503 -0.7304 -0.1167
   96DG     C12 2197   3.579   2.554   4.867 -0.2353  0.2020 -0.3831
   96DG     H13 2198   3.602   2.406   5.332  1.2311  0.9882  0.8076
   96DG     H14 2199   3.745   2.313   5.348 -3.6373  1.0360  1.9222
   96DG     H15 2200   3.583   2.528   4.760  0.1238 -1.1428  2.0479
   96DG     H16 2201   3.472   2.550   4.882  2.3523  1.3998  2.1832
   96DG     C17 2202   3.674   2.358   5.154  0.2068  0.3870  0.0368
   96DG     C18 2203   3.635   2.431   4.944 -0.5351  0.5021  0.5311
   96DG     O19 2204   3.622   2.461   5.076  0.2411 -0.1482 -0.0964
   96DG     H20 2205   3.609   2.267   5.160 -3.0115  2.1876 -0.6394
   96DG     H21 2206   3.771   2.322   5.112  1.7801 -1.2478 -0.8399
   96DG     H22 2207   3.579   2.340   4.914  2.0291 -0.4143 -0.0050
   96DG     H23 2208   3.740   2.414   4.917 -0.1559  0.7256  0.7585
   97DG      C1 2209   3.819   2.355   3.256 -0.6772 -0.1100  0.3472
   97DG      C2 2210   3.687   2.881   3.624 -0.2747  0.5390 -0.2499
   97DG      H3 2211   3.892   2.398   3.189 -0.3750 -2.4535 -1.3808
   97DG      H4 2212   3.772   2.258   3.230  1.9508 -1.4431  1.0569
   97DG      H5 2213   3.875   2.342   3.351 -1.9502 -1.9862 -2.8558
   97DG      H6 2214   3.639   2.964   3.679  2.6190  0.8989  1.1043
   97DG      H7 2215   3.721   2.796   3.675  2.1130 -0.1682 -0.9734
   97DG      H8 2216   3.777   2.931   3.580  1.7463  1.2955 -0.6697
   97DG      O9 2217   3.720   2.455   3.270 -0.0973  0.2691 -0.4604
   97DG     O10 2218   3.600   2.829   3.524  0.0012 -0.0631  0.3679
   97DG     C11 2219   3.588   2.398   3.278 -0.0650  0.3681  0.5629
   97DG     C12 2220   3.469   2.775   3.568  0.3357 -0.4321 -0.0996
   97DG     H13 2221   3.587   2.328   3.364 -0.5952 -0.0658  0.7558
   97DG     H14 2222   3.559   2.347   3.188 -1.0178  0.6784  1.5727
   97DG     H15 2223   3.406   2.858   3.587  1.6932 -0.6469  1.2041
   97DG     H16 2224   3.486   2.720   3.665  0.1862 -1.1705  0.3681
   97DG     C17 2225   3.484   2.504   3.308 -0.0151 -0.2920 -0.4375
   97DG     C18 2226   3.409   2.672   3.468 -0.2043  0.1613 -0.1713
   97DG     O19 2227   3.515   2.578   3.427  0.9119  0.4272  0.1568
   97DG     H20 2228   3.381   2.465   3.316 -2.2241 -2.3752  0.8069
   97DG     H21 2229   3.475   2.579   3.232  0.2438  0.8774 -2.3189
   97DG     H22 2230   3.324   2.614   3.498 -1.4463 -1.3454 -0.8601
   97DG     H23 2231   3.378   2.711   3.376 -0.6013 -2.9135  0.5365
   98DG      C1 2232   1.611   1.102   2.277 -0.5311 -0.1263  1.0451
   98DG      C2 2233   1.740   0.471   2.461  0.2325 -0.9066  0.1043
   98DG      H3 2234   1.706   1.126   2.337  4.0424  1.1390  0.0221
   98DG      H4 2235   1.556   1.198   2.264  1.1014 -0.1135 -0.7375
   98DG      H5 2236   1.645   1.075   2.181  1.1794  2.7343 -0.4162
   98DG      H6 2237   1.816   0.552   2.459 -1.1396  0.9617  0.4987
   98DG      H7 2238   1.769   0.396   2.529  0.3737  2.7887  0.3056
   98DG      H8 2239   1.744   0.427   2.361 -1.7752 -2.6266 -0.8207
   98DG      O9 2240   1.544   0.988   2.335 -0.6999 -0.0333 -0.7828
   98DG     O10 2241   1.604   0.531   2.470  0.0014 -0.1323  0.6334
   98DG     C11 2242   1.482   1.026   2.457  0.0885  0.1538 -0.1211
   98DG     C12 2243   1.578   0.576   2.597 -0.2880  0.5256  0.4465
   98DG     H13 2244   1.403   1.100   2.429  2.0362  2.3363 -0.0951
   98DG     H14 2245   1.558   1.074   2.522  2.6728  0.8248  2.2074
   98DG     H15 2246   1.669   0.622   2.641  2.4483  0.5051 -0.4122
   98DG     H16 2247   1.550   0.486   2.655 -0.8667 -0.4893  0.6712
   98DG     C17 2248   1.427   0.898   2.529  0.0199 -0.5579  0.5288
   98DG     C18 2249   1.466   0.675   2.600 -0.0378 -0.8956  0.0368
   98DG     O19 2250   1.518   0.784   2.528  0.6168 -0.3262  0.1036
   98DG     H20 2251   1.329   0.878   2.485 -1.0011  0.6981 -0.7750
   98DG     H21 2252   1.401   0.926   2.628 -0.0385 -0.9272 -1.1965
   98DG     H22 2253   1.367   0.650   2.565 -2.3870  2.0883 -0.2655
   98DG     H23 2254   1.450   0.711   2.700  0.1797 -2.3196 -1.5411
   99DG      C1 2255   4.478   4.921   1.776  0.8691  0.3437 -0.0827
   99DG      C2 2256   4.701   4.329   1.985 -1.2103  0.4022 -0.0270
   99DG      H3 2257   4.394   4.984   1.757  0.6042 -2.7934  2.0898
   99DG      H4 2258   4.515   4.867   1.688  2.4332  0.2899 -3.5553
   99DG      H5 2259   4.567   4.973   1.805 -0.6968 -0.1561 -1.9442
   99DG      H6 2260   4.658   4.236   2.027 -1.2883 -0.1320  1.8293
   99DG      H7 2261   4.715   4.307   1.880 -4.8603 -2.1492 -2.2045
   99DG      H8 2262   4.800   4.350   2.029 -1.5209 -0.6995  0.9561
   99DG      O9 2263   4.444   4.824   1.866  0.1305 -0.3306 -0.1833
   99DG     O10 2264   4.611   4.434   2.015  0.3136 -0.0239  0.2096
   99DG     C11 2265   4.403   4.876   1.993  0.2614 -0.8984 -0.1975
   99DG     C12 2266   4.591   4.458   2.157  0.1185 -0.0682 -0.1189
   99DG     H13 2267   4.314   4.943   1.980 -3.1255  0.2597  0.6869
   99DG     H14 2268   4.485   4.938   2.025  2.5395  0.9477  0.2309
   99DG     H15 2269   4.681   4.512   2.188 -1.6698 -0.0221 -2.1528
   99DG     H16 2270   4.567   4.366   2.220 -1.5039 -0.0926  1.4423
   99DG     C17 2271   4.380   4.763   2.096 -1.0012 -0.2409 -0.4929
   99DG     C18 2272   4.482   4.562   2.186  0.5416  0.2865 -0.0205
   99DG     O19 2273   4.499   4.678   2.098 -0.5680  0.5099  0.5582
   99DG     H20 2274   4.293   4.699   2.066 -0.9001 -1.2152  0.0529
   99DG     H21 2275   4.352   4.810   2.192 -0.7494 -0.2301  2.7435
   99DG     H22 2276   4.388   4.511   2.174  0.3355 -0.6183 -1.6117
   99DG     H23 2277   4.485   4.594   2.286 -0.8976 -1.4982 -0.0539
  100DG      C1 2278   5.200   1.571   2.282  0.3135 -0.5245 -0.2234
  100DG      C2 2279   5.030   1.220   2.896  0.2023  0.3484  0.1489
  100DG      H3 2280   5.297   1.561   2.339  0.3328 -0.9829  0.7609
  100DG      H4 2281   5.207   1.667   2.231  2.3451 -0.9044  0.3557
  100DG      H5 2282   5.205   1.486   2.209  1.3361  0.7208 -4.4345
  100DG      H6 2283   5.094   1.132   2.858 -3.1225  1.2333  2.1055
  100DG      H7 2284   5.055   1.244   2.996 -0.7354  0.9444 -4.4428
  100DG      H8 2285   4.928   1.181   2.898  0.3523  0.9498 -0.4474
  100DG      O9 2286   5.087   1.571   2.368 -0.5069 -0.5629 -0.6063
  100DG     O10 2287   5.037   1.336   2.812 -0.1789  0.6080  0.0261
  100DG     C11 2288   5.086   1.696   2.450  0.4365 -0.1683  0.0046
  100DG     C12 2289   4.981   1.452   2.864  0.1357 -1.0025  0.2626
  100DG     H13 2290   5.055   1.779   2.387 -1.8454  0.4065  0.3252
  100DG     H14 2291   5.185   1.720   2.486 -0.8125 -0.7135  0.5183
  100DG     H15 2292   5.065   1.506   2.921  1.4353  0.3695  1.6516
  100DG     H16 2293   4.909   1.436   2.943  4.1384  0.6421  3.4209
  100DG     C17 2294   4.986   1.684   2.567  0.4246  0.4004 -0.3321
  100DG     C18 2295   4.925   1.547   2.754 -0.8347  0.0472  0.9028
  100DG     O19 2296   5.026   1.579   2.655 -0.0183 -0.3511 -0.7387
  100DG     H20 2297   4.886   1.662   2.526 -0.3788 -2.7725 -0.6602
  100DG     H21 2298   4.956   1.784   2.609 -0.0138  0.6072 -1.8414
  100DG     H22 2299   4.841   1.497   2.709 -0.9754  1.6056 -0.6692
  100DG     H23 2300   4.884   1.636   2.802 -1.0737  0.8843  2.0909
  101DG      C1 2301   2.031   5.160   0.700 -0.2412  0.0561  0.2939
  101DG      C2 2302   1.396   5.212   0.577  1.0856  0.4976 -0.1127
  101DG      H3 2303   1.981   5.127   0.792 -0.4838  0.0823  1.1333
  101DG      H4 2304   2.049   5.269   0.708 -0.2551 -2.8021  2.0081
  101DG      H5 2305   2.131   5.112   0.698  0.0892  2.7800  0.5323
  101DG      H6 2306   1.312   5.223   0.509 -1.6391  1.3291 -1.8067
  101DG      H7 2307   1.373   5.124   0.650 -3.3002  2.1304 -2.9025
  101DG      H8 2308   1.435   5.285   0.648  2.1567  1.3010  2.1068
  101DG      O9 2309   1.948   5.168   0.583 -0.0035 -0.1075  0.1713
  101DG     O10 2310   1.504   5.183   0.488  0.3067  0.9649  0.0139
  101DG     C11 2311   1.983   5.256   0.478 -0.0069  0.2632 -0.4634
  101DG     C12 2312   1.520   5.300   0.405  0.7455  0.5933 -0.6517
  101DG     H13 2313   2.076   5.245   0.428  1.6955  0.7138  0.6366
  101DG     H14 2314   1.975   5.358   0.522  2.3400  1.8459  1.9570
  101DG     H15 2315   1.531   5.394   0.454  0.6805  1.8864 -1.6116
  101DG     H16 2316   1.431   5.309   0.341 -1.3171  1.0242 -0.6761
  101DG     C17 2317   1.882   5.245   0.367  0.7179 -0.8195 -0.0281
  101DG     C18 2318   1.647   5.284   0.325  0.4838  0.0608 -0.6294
  101DG     O19 2319   1.750   5.273   0.426 -1.0184 -0.1168  1.0421
  101DG     H20 2320   1.879   5.144   0.315  0.2252  1.3592 -2.0103
  101DG     H21 2321   1.895   5.321   0.290  1.1303 -0.5971  1.0797
  101DG     H22 2322   1.641   5.210   0.252  0.2838  1.0351 -0.1123
  101DG     H23 2323   1.670   5.371   0.267  1.9271  1.1758 -3.1656
  102DG      C1 2324   3.669   0.941   2.418  0.0011  0.2626 -0.1485
  102DG      C2 2325   3.462   1.112   1.724 -0.6965  0.3450  0.2745
  102DG      H3 2326   3.728   0.859   2.398  0.7030 -0.3227  0.0051
  102DG      H4 2327   3.569   0.917   2.448 -3.0779  0.5492  0.1446
  102DG      H5 2328   3.706   0.993   2.512 -2.3996 -1.1077  3.5267
  102DG      H6 2329   3.548   1.157   1.675  2.3967  0.5096 -1.2720
  102DG      H7 2330   3.439   1.006   1.713 -2.1964  0.5399  4.0080
  102DG      H8 2331   3.383   1.174   1.693  1.6863  0.5289 -1.2720
  102DG      O9 2332   3.659   1.031   2.308 -0.4735 -0.0142  0.1428
  102DG     O10 2333   3.470   1.144   1.862  0.7293  0.3122 -0.2041
  102DG     C11 2334   3.593   1.154   2.339 -0.2792 -0.6247 -0.2606
  102DG     C12 2335   3.473   1.281   1.888 -0.2929  0.1806 -0.8950
  102DG     H13 2336   3.621   1.192   2.433  1.0124 -2.1800 -0.0680
  102DG     H14 2337   3.491   1.126   2.349 -0.2000  0.5674  1.0545
  102DG     H15 2338   3.374   1.315   1.915  0.4118  0.6678  0.8313
  102DG     H16 2339   3.492   1.343   1.803  3.2982  0.6660 -0.6871
  102DG     C17 2340   3.598   1.260   2.225 -0.3056 -0.7850  0.1853
  102DG     C18 2341   3.565   1.301   2.002  0.6270  0.0004 -0.4203
  102DG     O19 2342   3.529   1.218   2.111 -0.2423  0.0698  0.3440
  102DG     H20 2343   3.702   1.292   2.211 -0.1973 -0.6998 -0.4427
  102DG     H21 2344   3.536   1.344   2.262  1.4214 -0.6910 -0.2457
  102DG     H22 2345   3.666   1.286   1.965 -1.8862  1.5820  3.5428
  102DG     H23 2346   3.552   1.403   2.031  1.5216 -0.0196  1.3591
  103DG      C1 2347   3.025   2.446   2.404 -0.3470 -0.1766  0.0564
  103DG      C2 2348   3.703   2.072   2.374 -0.0771  0.1535 -0.0730
  103DG      H3 2349   3.089   2.531   2.412  0.8245 -0.6305 -2.1240
  103DG      H4 2350   2.966   2.450   2.494 -0.4067  0.4797  0.8169
  103DG      H5 2351   2.959   2.472   2.325  0.0888  0.1418 -0.5998
  103DG      H6 2352   3.672   2.021   2.462 -0.5574 -0.7156 -0.0646
  103DG      H7 2353   3.774   2.001   2.329 -0.1084 -0.9269 -1.3987
  103DG      H8 2354   3.761   2.161   2.394 -0.0864 -0.9136 -2.5822
  103DG      O9 2355   3.084   2.315   2.392  0.5491  0.0755  1.1465
  103DG     O10 2356   3.578   2.115   2.314 -0.8837  0.2796 -0.1985
  103DG     C11 2357   3.193   2.303   2.301  0.5944  0.5773 -0.1080
  103DG     C12 2358   3.506   2.001   2.263 -0.3051 -0.2162  0.6350
  103DG     H13 2359   3.269   2.375   2.310  1.8885  1.9866 -1.4579
  103DG     H14 2360   3.145   2.307   2.199  0.3790  0.1150  0.9254
  103DG     H15 2361   3.450   1.946   2.348  1.2906  1.1801  0.8509
  103DG     H16 2362   3.587   1.940   2.214 -0.4478  1.4014  0.8573
  103DG     C17 2363   3.260   2.164   2.297  1.1373 -0.9435  0.3383
  103DG     C18 2364   3.408   2.047   2.154 -0.7553 -1.0359 -0.3228
  103DG     O19 2365   3.348   2.172   2.188  0.3227 -0.4123  0.6020
  103DG     H20 2366   3.189   2.086   2.281 -0.1151  1.0878  1.9136
  103DG     H21 2367   3.310   2.141   2.392  0.9415 -0.9471 -0.0303
  103DG     H22 2368   3.461   2.060   2.061 -0.2626  0.6368  0.3349
  103DG     H23 2369   3.326   1.984   2.131 -0.2254  1.5869 -1.1374
  104DG      C1 2370   2.232   4.652   1.566  0.3483 -0.2206 -0.6013
  104DG      C2 2371   2.707   4.807   1.969  0.0867  0.3434 -0.0892
  104DG      H3 2372   2.214   4.754   1.532 -1.6211 -0.1805  0.1116
  104DG      H4 2373   2.170   4.634   1.656  1.0613  0.5175  2.2330
  104DG      H5 2374   2.197   4.592   1.486 -0.6917 -0.2044  1.9555
  104DG      H6 2375   2.813   4.797   1.932 -1.9773  0.4769 -0.1307
  104DG      H7 2376   2.718   4.884   2.044 -1.9801  0.4380  2.0162
  104DG      H8 2377   2.682   4.712   2.013 -1.1720  0.7667 -0.8668
  104DG      O9 2378   2.367   4.622   1.600  0.1242 -0.4226 -0.2772
  104DG     O10 2379   2.616   4.850   1.875  0.2883 -0.2545 -0.2185
  104DG     C11 2380   2.461   4.667   1.495  0.0111 -0.8581 -0.0594
  104DG     C12 2381   2.679   4.940   1.780  0.5630  0.3110  0.2607
  104DG     H13 2382   2.413   4.656   1.398 -1.1743  1.9073 -0.9022
  104DG     H14 2383   2.544   4.594   1.496  1.1232 -1.4430  0.8452
  104DG     H15 2384   2.765   4.903   1.717  0.1102  1.2122 -1.2126
  104DG     H16 2385   2.702   5.034   1.822 -1.8863 -1.4941  1.4420
  104DG     C17 2386   2.483   4.816   1.503  0.1477  0.3172  0.1900
  104DG     C18 2387   2.563   4.970   1.680  0.1186 -0.2815  0.4464
  104DG     O19 2388   2.508   4.844   1.644  0.7391  0.1650  0.3803
  104DG     H20 2389   2.398   4.869   1.457  0.1401  0.7329 -1.8629
  104DG     H21 2390   2.574   4.847   1.443  1.4155  0.3718 -3.7033
  104DG     H22 2391   2.492   5.041   1.724  0.1285 -0.5643  2.3058
  104DG     H23 2392   2.609   5.022   1.591 -1.7525 -1.6073  0.8754
  105DG      C1 2393   2.875   2.417   2.891  0.0655  0.3630  0.1573
  105DG      C2 2394   2.487   1.892   2.991  1.2299 -0.7984  0.4706
  105DG      H3 2395   2.803   2.475   2.946  1.0106  0.2563  0.0434
  105DG      H4 2396   2.914   2.488   2.816 -1.4066 -0.7815  0.0118
  105DG      H5 2397   2.964   2.406   2.967  0.9593  0.9555 -1.0493
  105DG      H6 2398   2.381   1.878   2.979 -1.9420  1.5273  1.7919
  105DG      H7 2399   2.518   1.796   3.023  0.7973  1.2778 -1.9875
  105DG      H8 2400   2.510   1.965   3.070 -2.0157 -0.3728 -0.0263
  105DG      O9 2401   2.829   2.292   2.833 -0.4852 -0.4006  0.1391
  105DG     O10 2402   2.560   1.935   2.879  0.1893 -0.0207 -0.0620
  105DG     C11 2403   2.924   2.232   2.749  0.4353 -0.1985 -0.0155
  105DG     C12 2404   2.659   1.844   2.828  0.2103  0.2662 -0.4866
  105DG     H13 2405   3.022   2.205   2.796  1.1885 -0.2299 -0.9945
  105DG     H14 2406   2.943   2.312   2.677  3.7165  0.5472 -1.1670
  105DG     H15 2407   2.611   1.756   2.794  0.9226  3.1626  2.5750
  105DG     H16 2408   2.733   1.814   2.896  0.5371  1.3879  0.1907
  105DG     C17 2409   2.867   2.112   2.678  0.1347 -0.7875 -0.7149
  105DG     C18 2410   2.734   1.925   2.717 -0.5883 -0.1469  0.8103
  105DG     O19 2411   2.785   2.044   2.775 -0.1938  0.2240 -0.6657
  105DG     H20 2412   2.952   2.049   2.647  2.3907  0.5909  4.7152
  105DG     H21 2413   2.811   2.151   2.597 -0.2779  0.5178  0.5967
  105DG     H22 2414   2.824   1.873   2.689 -3.3717  0.1541  0.7942
  105DG     H23 2415   2.668   1.963   2.637  2.6569 -2.6340  0.6952
  106DG      C1 2416   2.690   2.126   3.206 -0.6522  0.1218  0.2929
  106DG      C2 2417   2.613   2.370   2.534  0.1512 -0.6948  0.7003
  106DG      H3 2418   2.635   2.092   3.289  2.2289 -1.2460 -0.4786
  106DG      H4 2419   2.781   2.178   3.231  2.1415  0.0064 -0.4504
  106DG      H5 2420   2.740   2.038   3.173  1.5200 -0.6859  0.2681
  106DG      H6 2421   2.632   2.458   2.474  1.5857 -0.4788  3.4680
  106DG      H7 2422   2.697   2.296   2.524 -0.0175 -0.2465 -0.6033
  106DG      H8 2423   2.530   2.319   2.482  0.3640  0.4663 -0.9262
  106DG      O9 2424   2.606   2.205   3.116  0.6004 -0.0155 -0.0679
  106DG     O10 2425   2.598   2.397   2.673 -0.0999 -0.2642  0.0214
  106DG     C11 2426   2.603   2.336   3.157 -0.1136  0.4763  0.1579
  106DG     C12 2427   2.531   2.518   2.705  0.7426  0.1728  0.1790
  106DG     H13 2428   2.704   2.378   3.135 -0.7976  2.3074  1.2870
  106DG     H14 2429   2.584   2.339   3.259 -1.1305 -2.3187 -0.9582
  106DG     H15 2430   2.441   2.531   2.635 -1.1932 -2.8151  0.4926
  106DG     H16 2431   2.601   2.599   2.698  1.7418 -1.6999  0.5222
  106DG     C17 2432   2.501   2.416   3.070 -0.2164 -0.0115 -0.0799
  106DG     C18 2433   2.470   2.509   2.853 -0.3985  0.0196  0.3268
  106DG     O19 2434   2.551   2.421   2.932  0.0772 -0.3740  0.7675
  106DG     H20 2435   2.497   2.516   3.110 -0.4898 -0.3318 -0.9795
  106DG     H21 2436   2.397   2.384   3.083 -0.6566 -1.9784 -0.0374
  106DG     H22 2437   2.458   2.611   2.888 -0.6438  0.8976  0.4307
  106DG     H23 2438   2.367   2.462   2.840 -0.8844 -0.9985 -1.0352
  107DG      C1 2439   1.704   5.440   0.712  0.0282 -0.1397  0.6446
  107DG      C2 2440   1.434   4.857   0.668 -0.1654  0.7194  0.6072
  107DG      H3 2441   1.739   5.434   0.613  1.7775  0.0171  1.6577
  107DG      H4 2442   1.782   5.481   0.776  1.3743  0.6381 -0.3169
  107DG      H5 2443   1.618   5.514   0.723 -0.0358 -1.3467 -0.2674
  107DG      H6 2444   1.375   4.888   0.756  3.1330  1.6433 -0.0075
  107DG      H7 2445   1.395   4.887   0.574 -0.4071 -1.3247 -0.0389
  107DG      H8 2446   1.425   4.752   0.658 -0.6475  0.5448  0.9297
  107DG      O9 2447   1.667   5.310   0.765 -0.2258 -0.0441 -0.6413
  107DG     O10 2448   1.571   4.888   0.687 -0.0706  0.0058 -0.0982
  107DG     C11 2449   1.705   5.278   0.903 -0.0559 -0.3172 -0.4596
  107DG     C12 2450   1.623   4.840   0.812  1.0297  0.1212  0.4179
  107DG     H13 2451   1.658   5.340   0.981  0.5528  0.2543  1.9716
  107DG     H14 2452   1.817   5.300   0.909 -1.6042  1.6285 -0.2000
  107DG     H15 2453   1.637   4.736   0.818 -0.2650 -0.4355 -0.5376
  107DG     H16 2454   1.554   4.857   0.897 -0.8154  0.8932 -1.8655
  107DG     C17 2455   1.662   5.135   0.923  0.3903  0.5350 -0.0638
  107DG     C18 2456   1.749   4.916   0.844  0.6181  0.2403 -0.1876
  107DG     O19 2457   1.742   5.058   0.831 -0.8712  0.1031  0.4913
  107DG     H20 2458   1.558   5.123   0.890 -1.2460 -0.0331 -1.0625
  107DG     H21 2459   1.676   5.101   1.027 -1.8192  1.7481  1.3946
  107DG     H22 2460   1.770   4.906   0.949 -1.4332 -1.3187  0.9758
  107DG     H23 2461   1.829   4.875   0.786 -1.8790 -2.1182  1.2663
  108DG      C1 2462   0.127   2.874   1.339  0.1040 -0.4608  0.6862
  108DG      C2 2463  -0.431   3.336   1.303 -0.4792 -0.1386  0.2013
  108DG      H3 2464   0.157   2.794   1.277  1.4960 -0.7468 -0.3414
  108DG      H4 2465   0.076   2.818   1.410  1.7506  1.9167 -1.7020
  108DG      H5 2466   0.215   2.914   1.386  2.4889  0.0570  0.5884
  108DG      H6 2467  -0.455   3.264   1.384  0.4040  0.1768  2.2046
  108DG      H7 2468  -0.456   3.439   1.336 -2.4155  1.1828  0.5528
  108DG      H8 2469  -0.488   3.320   1.214  3.1218 -0.2129  0.0871
  108DG      O9 2470   0.040   2.964   1.265  0.2858  0.8820 -0.1522
  108DG     O10 2471  -0.295   3.321   1.254 -0.1984  0.4609 -0.1750
  108DG     C11 2472   0.112   3.059   1.193 -0.0097  0.2598 -0.4767
  108DG     C12 2473  -0.201   3.362   1.352  0.0314 -0.0055  0.4640
  108DG     H13 2474   0.074   3.059   1.084  2.1567 -0.2389  2.0340
  108DG     H14 2475   0.221   3.038   1.183  2.6168  2.9728 -1.7598
  108DG     H15 2476  -0.206   3.305   1.446  0.5261 -0.3923  0.4941
  108DG     H16 2477  -0.222   3.464   1.390  0.7563 -1.2967 -0.7690
  108DG     C17 2478   0.104   3.206   1.246 -0.0894 -0.3176  0.0575
  108DG     C18 2479  -0.059   3.355   1.299 -0.4958  0.8239  0.3676
  108DG     O19 2480  -0.029   3.213   1.288 -0.1365  0.3645  0.1455
  108DG     H20 2481   0.140   3.268   1.165  0.1813 -1.6331  3.0058
  108DG     H21 2482   0.179   3.219   1.336  0.2289  0.9122  1.8217
  108DG     H22 2483  -0.056   3.412   1.205 -1.5379  2.8345 -1.4456
  108DG     H23 2484   0.002   3.408   1.373 -1.1083  1.3764 -1.2568
  109DG      C1 2485   5.219   1.787   3.705 -0.2640 -0.3965  0.1488
  109DG      C2 2486   4.615   2.057   3.917  0.0494  0.0848 -0.6950
  109DG      H3 2487   5.207   1.778   3.594  0.1606 -0.2219  1.0019
  109DG      H4 2488   5.181   1.695   3.751 -0.4449 -0.1805 -1.8712
  109DG      H5 2489   5.317   1.781   3.734 -1.3094  0.9578  0.4378
  109DG      H6 2490   4.555   2.129   3.863 -0.9373 -3.2041 -1.6464
  109DG      H7 2491   4.572   1.958   3.892 -1.3263 -1.3050  0.0309
  109DG      H8 2492   4.584   2.071   4.026  0.2269  0.2648 -1.0254
  109DG      O9 2493   5.139   1.901   3.750  0.0009 -0.3502  0.7376
  109DG     O10 2494   4.757   2.078   3.904  0.5714  0.4720  0.0674
  109DG     C11 2495   5.184   2.033   3.705 -0.2795 -1.5671  0.0414
  109DG     C12 2496   4.807   2.206   3.940 -0.1208 -0.2429  0.6693
  109DG     H13 2497   5.137   2.059   3.605  1.2212  0.6821 -2.1604
  109DG     H14 2498   5.291   2.029   3.700 -0.0927  0.7015  0.5424
  109DG     H15 2499   4.764   2.249   4.026 -1.5771 -2.2213 -1.1087
  109DG     H16 2500   4.763   2.261   3.858 -0.7058  0.4525 -0.1498
  109DG     C17 2501   5.151   2.145   3.799 -0.2355 -0.6669 -1.0202
  109DG     C18 2502   4.959   2.203   3.938 -0.4166  0.4228  0.2307
  109DG     O19 2503   5.012   2.141   3.818 -0.5692  0.4183 -0.4819
  109DG     H20 2504   5.185   2.242   3.767 -1.1177  0.5304 -0.5060
  109DG     H21 2505   5.201   2.125   3.902  0.4968  2.6765 -0.3887
  109DG     H22 2506   4.985   2.303   3.964  1.0626  0.8680 -1.7509
  109DG     H23 2507   4.997   2.141   4.017  0.1505  0.3122 -0.7160
  110DG      C1 2508   1.521   0.204   0.240 -0.2907  0.3041 -0.0540
  110DG      C2 2509   1.998   0.005  -0.302 -0.4115 -0.2053  0.4779
  110DG      H3 2510   1.466   0.293   0.263 -3.6893  1.5010 -2.1103
  110DG      H4 2511   1.535   0.155   0.340  0.3727  0.3699  1.0224
  110DG      H5 2512   1.449   0.146   0.184  1.0346  0.8335  0.1010
  110DG      H6 2513   2.017   0.109  -0.325  1.4752  1.4824 -0.0926
  110DG      H7 2514   2.093  -0.044  -0.325  0.0576  0.4758 -1.3257
  110DG      H8 2515   1.930  -0.037  -0.373  1.8246 -0.0933  0.4477
  110DG      O9 2516   1.652   0.211   0.182 -0.6123 -0.0022 -0.2551
  110DG     O10 2517   1.956  -0.019  -0.175 -0.2883 -0.0703 -0.1823
  110DG     C11 2518   1.658   0.303   0.072 -0.1061 -0.1404 -0.2594
  110DG     C12 2519   2.028   0.043  -0.078 -0.3392  0.0993 -0.0103
  110DG     H13 2520   1.638   0.404   0.106  0.6262  0.3864 -1.4338
  110DG     H14 2521   1.595   0.277  -0.010  2.0042 -0.4668 -2.5674
  110DG     H15 2522   2.138   0.047  -0.099 -1.3018  0.5053  0.4665
  110DG     H16 2523   2.008  -0.021   0.007 -2.1970 -1.0254 -0.3000
  110DG     C17 2524   1.802   0.311   0.027 -0.1936  0.2378  0.5397
  110DG     C18 2525   1.989   0.186  -0.036 -0.4550  0.5081  0.0871
  110DG     O19 2526   1.845   0.180  -0.009 -0.2538  0.2791  0.2613
  110DG     H20 2527   1.868   0.369   0.092 -0.5175  0.4883  0.9117
  110DG     H21 2528   1.812   0.379  -0.054 -0.7978  0.2767 -0.2705
  110DG     H22 2529   2.043   0.227   0.048  0.8651 -0.6474  0.7769
  110DG     H23 2530   2.013   0.245  -0.122 -0.8477 -0.2500 -2.8304
  111DG      C1 2531   1.589   2.147   2.034  0.2349  0.0077 -0.1282
  111DG      C2 2532   1.567   2.766   2.156 -0.7265 -0.2726  0.3123
  111DG      H3 2533   1.603   2.039   2.024  0.4223  0.8737  1.4742
  111DG      H4 2534   1.559   2.189   1.931  1.1374  0.2621  0.4528
  111DG      H5 2535   1.496   2.174   2.095 -0.3555 -0.9630  2.0835
  111DG      H6 2536   1.561   2.777   2.046  0.9854 -1.8860 -1.4333
  111DG      H7 2537   1.464   2.752   2.172 -0.2540  1.5529 -3.7973
  111DG      H8 2538   1.609   2.868   2.200 -0.1094  2.5502  0.9635
  111DG      O9 2539   1.708   2.212   2.087 -0.1584 -0.5584 -0.4695
  111DG     O10 2540   1.644   2.648   2.191 -0.0566  0.7739  0.0550
  111DG     C11 2541   1.741   2.162   2.217  0.6800  0.1812  0.6421
  111DG     C12 2542   1.627   2.604   2.326 -0.0147  0.2084  0.9691
  111DG     H13 2543   1.816   2.080   2.211  0.8714 -0.6269  0.2763
  111DG     H14 2544   1.649   2.126   2.267  4.3933 -1.4969  1.1667
  111DG     H15 2545   1.528   2.550   2.343 -0.0132  1.2109 -1.1865
  111DG     H16 2546   1.620   2.683   2.404  0.1895 -1.0974 -2.3848
  111DG     C17 2547   1.791   2.283   2.299  0.5621  0.0282  0.9251
  111DG     C18 2548   1.736   2.508   2.362 -0.2451  0.5608 -0.2984
  111DG     O19 2549   1.693   2.384   2.300 -0.0106  0.3432  0.3693
  111DG     H20 2550   1.880   2.337   2.259  1.3886 -1.4926 -1.6060
  111DG     H21 2551   1.807   2.240   2.396  0.3957  1.4058 -2.0442
  111DG     H22 2552   1.837   2.550   2.339 -0.5494 -0.4235 -0.7807
  111DG     H23 2553   1.744   2.501   2.474 -1.5522 -0.2491  0.4789
  112DG      C1 2554   1.896   2.121   4.631  0.4474  0.4814  0.5564
  112DG      C2 2555   1.420   2.598   4.610  0.1589  0.1985  0.5855
  112DG      H3 2556   1.947   2.036   4.660  0.4179  0.7728 -2.8006
  112DG      H4 2557   1.957   2.210   4.640  0.2759  0.4296  0.6678
  112DG      H5 2558   1.868   2.111   4.528 -1.1438 -2.2293  1.2477
  112DG      H6 2559   1.417   2.572   4.502 -1.1810 -2.7464 -0.6569
  112DG      H7 2560   1.323   2.634   4.632  2.0364 -1.4156 -0.8900
  112DG      H8 2561   1.500   2.668   4.630 -2.9868  0.9958 -3.0016
  112DG      O9 2562   1.770   2.144   4.699 -0.1187 -0.0181 -0.0168
  112DG     O10 2563   1.453   2.484   4.684  0.1973 -0.0246  0.2640
  112DG     C11 2564   1.790   2.153   4.838 -0.3389 -0.1134  0.6587
  112DG     C12 2565   1.461   2.505   4.823  0.0933  0.3598 -0.0892
  112DG     H13 2566   1.858   2.236   4.857 -1.2863 -2.1938 -1.2849
  112DG     H14 2567   1.834   2.065   4.878 -0.5596 -1.4577 -0.6920
  112DG     H15 2568   1.366   2.548   4.862 -0.1488  0.1815 -0.5595
  112DG     H16 2569   1.545   2.580   4.841  0.1562  1.1800 -1.9157
  112DG     C17 2570   1.659   2.196   4.903  0.0188 -0.3162 -0.5270
  112DG     C18 2571   1.493   2.375   4.886 -0.9573  0.1606  0.0840
  112DG     O19 2572   1.610   2.313   4.835 -0.0124 -0.2354  0.5415
  112DG     H20 2573   1.676   2.225   5.003 -0.8126  0.3894 -0.6204
  112DG     H21 2574   1.600   2.103   4.898  0.9446  0.2894  2.8220
  112DG     H22 2575   1.492   2.383   5.000 -0.2278 -0.2024  2.6652
  112DG     H23 2576   1.417   2.310   4.860 -2.2042 -1.2423  0.5653
  113DG      C1 2577   4.515   3.674   0.517  0.0246 -0.7191  0.4477
  113DG      C2 2578   3.783   4.037   0.733 -0.3859 -0.3247  0.1710
  113DG      H3 2579   4.498   3.699   0.412  0.5872  1.7709  2.4608
  113DG      H4 2580   4.495   3.568   0.546 -0.3883 -0.7933  3.4131
  113DG      H5 2581   4.616   3.694   0.549  5.3232 -0.2780 -3.5282
  113DG      H6 2582   3.782   3.934   0.755 -0.2959 -0.0373  0.0397
  113DG      H7 2583   3.723   4.088   0.802 -2.3201 -0.7130  1.0447
  113DG      H8 2584   3.736   4.052   0.629 -0.6640 -0.1112  0.5750
  113DG      O9 2585   4.418   3.744   0.587  0.2706 -0.3864  0.4591
  113DG     O10 2586   3.914   4.086   0.727 -0.0076  0.1125  0.0394
  113DG     C11 2587   4.444   3.880   0.550  0.1689  0.2724 -0.5817
  113DG     C12 2588   3.986   4.008   0.632 -0.5448 -0.4294 -0.1266
  113DG     H13 2589   4.442   3.896   0.445  1.5111 -1.2369  2.4477
  113DG     H14 2590   4.548   3.901   0.577 -2.9163  0.5125  0.2163
  113DG     H15 2591   3.956   4.034   0.528  1.7379  0.0179  1.0564
  113DG     H16 2592   3.979   3.898   0.648 -0.1727 -0.5569  0.1031
  113DG     C17 2593   4.355   3.978   0.615  0.1056 -0.3732 -0.8377
  113DG     C18 2594   4.133   4.064   0.630  0.5800  0.2772 -0.3777
  113DG     O19 2595   4.216   3.950   0.600 -0.4521 -0.2219 -0.4968
  113DG     H20 2596   4.383   4.081   0.603 -2.4831 -1.1622  0.9652
  113DG     H21 2597   4.372   3.963   0.722 -0.8172 -0.4265  1.6996
  113DG     H22 2598   4.151   4.145   0.557  2.1947  0.5191 -0.0642
  113DG     H23 2599   4.156   4.099   0.727  2.0088 -0.3284  1.0649
  114DG      C1 2600   0.895   0.851   2.471  0.0835 -0.4487  0.0728
  114DG      C2 2601   0.613   1.210   1.965  0.1411  0.5201  0.3757
  114DG      H3 2602   0.889   0.909   2.562 -0.1640  0.7933 -3.0256
  114DG      H4 2603   0.986   0.786   2.490  0.8171 -0.0695  1.7044
  114DG      H5 2604   0.803   0.791   2.462  1.8900 -0.3338 -0.9335
  114DG      H6 2605   0.660   1.175   2.049  1.0477  2.3225 -2.0294
  114DG      H7 2606   0.508   1.224   1.993 -2.1432 -1.3861 -1.0170
  114DG      H8 2607   0.628   1.131   1.890 -2.1995 -1.9767 -0.3782
  114DG      O9 2608   0.940   0.935   2.365  0.2568  0.2671  0.0560
  114DG     O10 2609   0.687   1.331   1.936  0.6332  0.5717  0.4657
  114DG     C11 2610   0.843   1.046   2.342 -0.0894  0.3018  0.0055
  114DG     C12 2611   0.737   1.401   2.040 -0.4812  0.0830  1.1183
  114DG     H13 2612   0.806   1.092   2.437 -2.3823 -0.9439  2.4376
  114DG     H14 2613   0.753   1.009   2.298  2.5087 -0.6946  2.3974
  114DG     H15 2614   0.649   1.418   2.102 -1.3588 -1.1826  1.6376
  114DG     H16 2615   0.776   1.489   1.996  2.1167 -0.2345  3.0261
  114DG     C17 2616   0.910   1.152   2.252  0.4567 -0.8105 -0.1702
  114DG     C18 2617   0.858   1.338   2.102 -0.7236  0.3305  0.1615
  114DG     O19 2618   0.812   1.250   2.205 -0.3559 -0.0340 -0.5569
  114DG     H20 2619   0.952   1.088   2.175 -1.4282 -2.0744  0.4576
  114DG     H21 2620   0.998   1.197   2.301  0.1040  2.1033 -1.9272
  114DG     H22 2621   0.921   1.285   2.030 -0.1081 -0.2986 -0.0839
  114DG     H23 2622   0.923   1.413   2.145  1.0307 -1.7767 -2.7690
  115DG      C1 2623   0.827   4.847   1.666  0.1713 -0.4427  0.4516
  115DG      C2 2624   0.790   4.550   2.406 -0.8617  0.0895  0.2464
  115DG      H3 2625   0.927   4.806   1.682  1.8443  0.6548 -0.9491
  115DG      H4 2626   0.849   4.949   1.649 -0.4522 -1.0254 -1.3551
  115DG      H5 2627   0.778   4.808   1.576 -1.4601 -1.0714 -0.3420
  115DG      H6 2628   0.766   4.600   2.496 -0.3914 -1.8340  1.4353
  115DG      H7 2629   0.731   4.466   2.391 -0.1208  3.5886  2.8554
  115DG      H8 2630   0.897   4.508   2.411 -1.0954 -0.0010 -1.3901
  115DG      O9 2631   0.736   4.830   1.771 -0.0090 -0.1012 -0.4041
  115DG     O10 2632   0.780   4.631   2.288 -0.1643  0.0428  0.2923
  115DG     C11 2633   0.647   4.717   1.768 -0.5735  0.8232 -0.6233
  115DG     C12 2634   0.824   4.574   2.163 -0.8956 -0.1015 -0.1809
  115DG     H13 2635   0.696   4.635   1.723  2.7276  1.1528 -2.1440
  115DG     H14 2636   0.567   4.749   1.691  0.5378 -0.1945 -0.6159
  115DG     H15 2637   0.779   4.475   2.138 -1.3119  1.5905 -0.9144
  115DG     H16 2638   0.930   4.560   2.151 -1.5531 -1.9295  0.8096
  115DG     C17 2639   0.580   4.700   1.907  0.5024 -0.0314  0.2719
  115DG     C18 2640   0.773   4.667   2.053  0.2234  1.1988 -0.1091
  115DG     O19 2641   0.648   4.625   2.004 -0.5369  0.4319 -0.5232
  115DG     H20 2642   0.485   4.656   1.898 -0.0312  1.7417 -1.4356
  115DG     H21 2643   0.559   4.804   1.940  2.8286 -0.5597 -0.8599
  115DG     H22 2644   0.782   4.773   2.089  1.4477 -1.9140  2.8093
  115DG     H23 2645   0.835   4.653   1.965 -0.0451  1.6523 -1.8326
  116DG      C1 2646   5.009   2.631   1.746 -0.3367  0.3408 -0.2453
  116DG      C2 2647   5.466   3.097   1.643 -0.5118  0.4862  0.3215
  116DG      H3 2648   5.047   2.604   1.649  1.1311  0.0033 -1.6653
  116DG      H4 2649   4.931   2.705   1.744 -1.1122 -2.2049 -0.7716
  116DG      H5 2650   4.974   2.540   1.793  0.7816  1.3801 -2.7639
  116DG      H6 2651   5.474   3.039   1.546  0.7120 -1.3758  0.0715
  116DG      H7 2652   5.390   3.159   1.615  1.6399 -1.2289 -1.1184
  116DG      H8 2653   5.552   3.166   1.664 -2.5560  0.4374 -2.2708
  116DG      O9 2654   5.127   2.689   1.815 -0.0084  0.0091  0.6577
  116DG     O10 2655   5.428   3.007   1.748 -0.5175 -0.3515 -0.1632
  116DG     C11 2656   5.112   2.726   1.947 -0.8808  0.3895  0.3163
  116DG     C12 2657   5.434   3.060   1.881  0.5756  0.3237  0.1870
  116DG     H13 2658   5.091   2.638   2.005  0.0435  2.0337 -0.4072
  116DG     H14 2659   5.027   2.783   1.947 -0.5195  2.8972 -1.4191
  116DG     H15 2660   5.391   3.166   1.890 -0.8161 -0.8964  1.4091
  116DG     H16 2661   5.539   3.091   1.903  0.6706  0.8163 -2.6062
  116DG     C17 2662   5.234   2.793   1.999  0.2490  0.3041 -0.1771
  116DG     C18 2663   5.383   2.969   1.988 -0.0286  0.4037  0.1437
  116DG     O19 2664   5.257   2.916   1.929 -0.2812  0.3030  0.2656
  116DG     H20 2665   5.319   2.717   1.998 -0.1296 -1.6411 -0.9014
  116DG     H21 2666   5.216   2.815   2.112 -0.3222  2.7176  0.1831
  116DG     H22 2667   5.460   2.887   1.981  0.6448  0.0372  1.1262
  116DG     H23 2668   5.378   3.018   2.083  0.7670  2.2546  0.7898
  117DG      C1 2669   3.194   5.344   4.666  0.2127  0.4404 -0.2184
  117DG      C2 2670   3.386   5.353   5.312 -0.5252  0.5094 -0.0413
  117DG      H3 2671   3.263   5.360   4.576  1.2862  1.0586 -1.9173
  117DG      H4 2672   3.091   5.368   4.629 -2.5444 -2.9973 -1.3637
  117DG      H5 2673   3.202   5.240   4.708 -2.4570  1.5225 -0.0470
  117DG      H6 2674   3.383   5.243   5.295  1.6432  1.3519  0.3245
  117DG      H7 2675   3.494   5.368   5.297 -1.1868  0.4617 -1.1423
  117DG      H8 2676   3.380   5.386   5.418  0.8835 -1.6012  1.5445
  117DG      O9 2677   3.231   5.441   4.767  0.7374 -0.7396 -0.8981
  117DG     O10 2678   3.285   5.418   5.240 -0.0574  0.1956 -0.4065
  117DG     C11 2679   3.379   5.453   4.776  0.0509  0.0421 -0.4323
  117DG     C12 2680   3.315   5.554   5.234  0.0574 -0.0166 -0.7307
  117DG     H13 2681   3.434   5.473   4.682  1.1087  3.1469 -0.9950
  117DG     H14 2682   3.398   5.360   4.814  0.1834  2.5939 -0.1883
  117DG     H15 2683   3.352   5.591   5.333  0.3607 -2.0559  1.4213
  117DG     H16 2684   3.220   5.607   5.221 -0.4494  1.7444 -2.6439
  117DG     C17 2685   3.419   5.556   4.879  0.2227 -0.1793  0.0581
  117DG     C18 2686   3.404   5.580   5.116 -0.6581  0.3821 -0.2720
  117DG     O19 2687   3.337   5.542   4.995 -0.2589 -0.1553 -0.2132
  117DG     H20 2688   3.418   5.654   4.843 -0.7622  0.0684  2.2457
  117DG     H21 2689   3.529   5.548   4.913  0.3685 -0.0886 -0.2595
  117DG     H22 2690   3.430   5.684   5.101  1.8340 -1.4751 -0.1780
  117DG     H23 2691   3.492   5.522   5.124  0.7290  2.6892  0.8295
  118DG      C1 2692   2.573   0.238   3.516 -0.6648  0.5349 -0.1769
  118DG      C2 2693   1.950  -0.044   3.082  1.0314 -0.9763 -0.7587
  118DG      H3 2694   2.588   0.168   3.429 -0.3965 -0.4227 -0.5677
  118DG      H4 2695   2.667   0.258   3.566 -2.6342 -1.5465  2.0298
  118DG      H5 2696   2.552   0.338   3.483 -1.3921 -2.9160  0.9204
  118DG      H6 2697   1.914   0.056   3.106  0.0089 -1.8863 -3.4451
  118DG      H7 2698   1.975  -0.040   2.975  0.2285  1.1812  2.5737
  118DG      H8 2699   1.861  -0.111   3.078  1.8113 -1.6596 -1.2234
  118DG      O9 2700   2.470   0.178   3.596  0.5934  0.4937 -0.2289
  118DG     O10 2701   2.051  -0.098   3.168 -0.0879  0.2035 -0.2883
  118DG     C11 2702   2.347   0.161   3.524 -0.5575  0.0568 -0.0593
  118DG     C12 2703   2.009  -0.098   3.303 -0.6986 -0.0108 -0.0876
  118DG     H13 2704   2.334   0.207   3.424  3.1127  2.2438 -0.1398
  118DG     H14 2705   2.285   0.234   3.576  3.4546  0.1969 -0.0921
  118DG     H15 2706   1.919  -0.159   3.317 -0.6578  2.3672  2.5065
  118DG     H16 2707   1.980   0.004   3.317 -0.6100  1.0070  0.7153
  118DG     C17 2708   2.292   0.016   3.527  0.0654  0.6039 -0.5893
  118DG     C18 2709   2.120  -0.122   3.411 -0.0687 -0.2790  0.5332
  118DG     O19 2710   2.199  -0.004   3.416 -0.1819  0.4039  0.3740
  118DG     H20 2711   2.242  -0.001   3.624 -0.2942  0.4961  1.6724
  118DG     H21 2712   2.367  -0.069   3.513  1.1131 -0.6975 -1.3513
  118DG     H22 2713   2.077  -0.136   3.505  0.6946  1.9846 -1.9934
  118DG     H23 2714   2.178  -0.207   3.386 -0.8171  1.5004 -0.4086
  119DG      C1 2715   4.244   0.738   2.524 -0.2876 -1.1574 -0.3178
  119DG      C2 2716   4.640   1.323   2.907  0.2114 -0.2103 -0.1896
  119DG      H3 2717   4.290   0.668   2.458  1.8633 -2.8421  0.0282
  119DG      H4 2718   4.148   0.769   2.484  2.2593  0.0372  1.0157
  119DG      H5 2719   4.223   0.688   2.620 -0.8711 -0.7193 -0.0537
  119DG      H6 2720   4.720   1.300   2.984  2.9254 -0.1028  1.7779
  119DG      H7 2721   4.682   1.348   2.808 -2.4039  0.2217  0.3173
  119DG      H8 2722   4.580   1.408   2.925  3.2088  0.8140 -0.4053
  119DG      O9 2723   4.335   0.850   2.530  0.3423 -0.0232  0.2339
  119DG     O10 2724   4.549   1.211   2.892 -0.1321  0.5309  0.1722
  119DG     C11 2725   4.462   0.799   2.547 -0.1000  0.8624 -0.5083
  119DG     C12 2726   4.620   1.088   2.858  0.0415 -1.0353 -0.0649
  119DG     H13 2727   4.498   0.749   2.461 -0.1775  2.1051  0.6312
  119DG     H14 2728   4.470   0.728   2.635 -0.2202 -0.0705 -2.8200
  119DG     H15 2729   4.673   1.051   2.945  1.9100  0.1488  1.0069
  119DG     H16 2730   4.695   1.109   2.779  0.9184 -0.9244  2.9468
  119DG     C17 2731   4.551   0.929   2.565  0.1250 -0.1457  0.0858
  119DG     C18 2732   4.522   0.990   2.801  1.2798  0.2527 -0.1285
  119DG     O19 2733   4.490   1.017   2.663  0.1891 -0.1894 -0.0810
  119DG     H20 2734   4.545   0.986   2.469 -0.7752  0.1843  0.8095
  119DG     H21 2735   4.653   0.905   2.591  1.9289 -1.1646  0.9353
  119DG     H22 2736   4.569   0.897   2.810 -1.3412 -2.8918 -2.5339
  119DG     H23 2737   4.438   0.984   2.869 -0.1682  1.9552  1.6106
  120DG      C1 2738   1.956   1.568   0.601  0.7392  0.1309 -0.2334
  120DG      C2 2739   2.218   1.794   1.158  0.2178  0.6715 -0.7544
  120DG      H3 2740   1.991   1.466   0.571  2.8466 -0.2762  1.1691
  120DG      H4 2741   2.016   1.653   0.563  0.3865 -1.3690 -1.2194
  120DG      H5 2742   1.850   1.570   0.556 -1.4718  1.6169  0.1997
  120DG      H6 2743   2.215   1.825   1.265 -0.4355 -0.9315 -1.1227
  120DG      H7 2744   2.312   1.732   1.147  1.9224  1.1133 -1.3281
  120DG      H8 2745   2.219   1.889   1.103  2.1114  1.1810 -1.1557
  120DG      O9 2746   1.945   1.589   0.744  0.0750 -0.2373  0.7958
  120DG     O10 2747   2.099   1.732   1.139  0.2813  0.1668 -0.4574
  120DG     C11 2748   1.877   1.478   0.802 -0.7590  0.0727 -0.5661
  120DG     C12 2749   2.101   1.604   1.177  0.6237  0.5934 -0.1586
  120DG     H13 2750   1.932   1.385   0.788 -0.7921  0.2150  0.7445
  120DG     H14 2751   1.776   1.455   0.755 -1.9515  0.3691 -0.5798
  120DG     H15 2752   2.128   1.592   1.285 -1.6197 -0.8264 -0.5171
  120DG     H16 2753   2.171   1.548   1.109 -1.9303  0.6169 -1.0238
  120DG     C17 2754   1.843   1.504   0.950 -0.1753  0.2775 -0.1858
  120DG     C18 2755   1.962   1.545   1.150  0.2899  0.1493  0.8106
  120DG     O19 2756   1.952   1.567   1.014 -0.3253  0.1956  0.0453
  120DG     H20 2757   1.822   1.414   1.002 -0.4292 -1.1164 -1.4136
  120DG     H21 2758   1.758   1.572   0.960 -0.6993  0.2512 -0.5273
  120DG     H22 2759   1.951   1.437   1.169 -0.5782  4.5461 -0.5819
  120DG     H23 2760   1.880   1.595   1.204  1.7522 -1.4376 -0.6172
  121DG      C1 2761   1.414   0.663   4.192 -0.9312 -0.0660 -0.0569
  121DG      C2 2762   0.790   0.684   4.268  0.2290  0.5542  1.1022
  121DG      H3 2763   1.409   0.669   4.082  1.4384  2.1459  1.8714
  121DG      H4 2764   1.516   0.629   4.205  1.5985 -1.3338  1.5413
  121DG      H5 2765   1.414   0.763   4.220  1.0133  0.7221 -1.7702
  121DG      H6 2766   0.692   0.681   4.314  0.0163 -0.0528 -0.2631
  121DG      H7 2767   0.804   0.787   4.231 -2.0441 -1.0842 -2.1986
  121DG      H8 2768   0.813   0.617   4.187 -0.6617  2.7446 -0.6015
  121DG      O9 2769   1.316   0.597   4.266 -0.3640  0.6348 -0.0159
  121DG     O10 2770   0.877   0.667   4.378  0.1612 -0.0840 -0.0021
  121DG     C11 2771   1.348   0.569   4.398  0.0312 -0.2682  0.4219
  121DG     C12 2772   0.877   0.541   4.437  0.5511  0.5555  0.4021
  121DG     H13 2773   1.393   0.657   4.450 -0.5747  1.5285 -2.1783
  121DG     H14 2774   1.422   0.490   4.391 -2.6136  0.4642 -3.8808
  121DG     H15 2775   0.866   0.462   4.358 -0.1752 -0.9236  0.3999
  121DG     H16 2776   0.798   0.538   4.507  0.0572  0.7961 -0.5803
  121DG     C17 2777   1.230   0.501   4.467  0.2251 -0.3924  0.2046
  121DG     C18 2778   1.011   0.520   4.517 -0.6173  0.2185  0.1948
  121DG     O19 2779   1.108   0.548   4.425 -0.0743 -0.1277 -0.2653
  121DG     H20 2780   1.250   0.532   4.561  0.1045 -0.7601 -1.8765
  121DG     H21 2781   1.241   0.393   4.461  0.0779  1.6069 -2.2026
  121DG     H22 2782   1.014   0.594   4.603 -0.6549  1.5645 -0.2422
  121DG     H23 2783   1.012   0.421   4.563 -0.7997  0.9320  1.4372
  122DG      C1 2784   0.535   3.265   2.478  0.0832 -0.0291  0.2482
  122DG      C2 2785   0.984   3.440   2.905 -0.1414  0.3200  0.3081
  122DG      H3 2786   0.448   3.279   2.542 -0.7742 -1.2848 -0.2073
  122DG      H4 2787   0.512   3.228   2.376 -1.5047  0.1137  2.5032
  122DG      H5 2788   0.552   3.376   2.462 -0.8401  0.4765  1.3101
  122DG      H6 2789   1.096   3.444   2.914 -1.9708 -2.1131 -0.4159
  122DG      H7 2790   0.945   3.532   2.850 -2.0380  0.8056 -2.0323
  122DG      H8 2791   0.936   3.438   3.004 -1.8273 -0.5371  1.9046
  122DG      O9 2792   0.641   3.191   2.543 -0.5484  0.0074 -0.7281
  122DG     O10 2793   0.940   3.330   2.826 -0.7432  0.1250  0.1963
  122DG     C11 2794   0.605   3.078   2.609 -0.3951  0.5132  0.1682
  122DG     C12 2795   0.932   3.213   2.909  0.4542 -0.8004  0.1855
  122DG     H13 2796   0.556   3.004   2.539 -1.1207  1.9664  2.2532
  122DG     H14 2797   0.525   3.106   2.674 -0.0479 -0.1896 -0.0861
  122DG     H15 2798   0.856   3.236   2.989  2.3026  0.1003  2.0381
  122DG     H16 2799   1.030   3.208   2.949 -1.3710  1.1267 -2.4615
  122DG     C17 2800   0.723   3.020   2.696  0.3729 -0.6161  0.2318
  122DG     C18 2801   0.900   3.106   2.820  0.2119  0.9911  0.6118
  122DG     O19 2802   0.773   3.129   2.769 -0.1686  0.1864 -1.0129
  122DG     H20 2803   0.785   2.962   2.632 -0.5827 -0.7061 -0.9386
  122DG     H21 2804   0.683   2.960   2.775  0.1530 -0.7368  1.5635
  122DG     H22 2805   0.980   3.089   2.743  0.0967 -4.0187 -1.4309
  122DG     H23 2806   0.905   3.017   2.886  0.6914 -0.0088  3.6473
  123DG      C1 2807   2.088   4.683   3.113  0.1934 -0.3439 -0.1471
  123DG      C2 2808   2.026   4.725   3.696  0.3861 -0.3220 -0.0902
  123DG      H3 2809   2.117   4.680   3.011  0.1729 -0.0791  1.2750
  123DG      H4 2810   1.974   4.696   3.115 -1.1501 -1.4189  0.2735
  123DG      H5 2811   2.118   4.583   3.149  1.6270 -2.1824 -2.1192
  123DG      H6 2812   2.028   4.651   3.778  0.7422  2.0575 -3.5955
  123DG      H7 2813   1.969   4.798   3.754  0.5864 -0.5679  3.4147
  123DG      H8 2814   1.956   4.701   3.612  0.7116  0.8609 -2.6878
  123DG      O9 2815   2.143   4.791   3.180 -0.3694  0.4509  0.0658
  123DG     O10 2816   2.145   4.769   3.630 -0.1582  0.5540 -0.5328
  123DG     C11 2817   2.288   4.808   3.186  0.5282  0.3948  0.2741
  123DG     C12 2818   2.221   4.663   3.559  0.4512 -0.4628 -0.2593
  123DG     H13 2819   2.316   4.853   3.092  1.1334  0.1888  2.1445
  123DG     H14 2820   2.342   4.716   3.188  0.6936  2.6753  0.8964
  123DG     H15 2821   2.146   4.618   3.489 -0.8424 -3.0047 -1.1934
  123DG     H16 2822   2.257   4.593   3.631 -2.0661 -0.1257  1.3717
  123DG     C17 2823   2.351   4.891   3.300 -0.0462  0.4176 -0.2053
  123DG     C18 2824   2.340   4.727   3.481  0.2126 -0.1423 -0.5617
  123DG     O19 2825   2.291   4.853   3.428  0.6341 -0.2281  0.2495
  123DG     H20 2826   2.320   4.989   3.283 -0.5884 -0.5710  0.0640
  123DG     H21 2827   2.455   4.874   3.295 -3.1444 -0.2928  2.4909
  123DG     H22 2828   2.434   4.751   3.534  1.4661  0.0368 -1.3411
  123DG     H23 2829   2.365   4.664   3.400  0.1500  2.1873 -0.2404
  124DG      C1 2830   0.972   3.267   2.474  0.5000  0.0395  0.2190
  124DG      C2 2831   0.561   3.466   2.963  0.0011 -0.0803 -0.6552
  124DG      H3 2832   1.000   3.206   2.560  0.2318  0.2663 -0.7008
  124DG      H4 2833   1.072   3.300   2.435  0.6346  0.8154 -0.9930
  124DG      H5 2834   0.924   3.203   2.402  0.8712 -0.1131  2.3990
  124DG      H6 2835   0.513   3.549   3.014  1.1075  0.5581 -0.4344
  124DG      H7 2836   0.478   3.404   2.933  0.2618  0.2970  0.6527
  124DG      H8 2837   0.631   3.415   3.028 -0.3916  1.3222  1.7648
  124DG      O9 2838   0.894   3.371   2.519 -0.1155  0.0282  0.4015
  124DG     O10 2839   0.636   3.515   2.851  1.1121 -0.0905  0.6693
  124DG     C11 2840   0.847   3.460   2.425  0.2911 -0.0519 -0.5083
  124DG     C12 2841   0.558   3.611   2.769 -0.2981  0.9030  0.0051
  124DG     H13 2842   0.771   3.405   2.360  1.9359  0.9567 -2.8205
  124DG     H14 2843   0.932   3.487   2.367 -1.4469  1.8054  1.4788
  124DG     H15 2844   0.530   3.690   2.834 -0.8950 -1.6378 -1.2795
  124DG     H16 2845   0.467   3.564   2.742 -3.4754  1.3701 -0.2835
  124DG     C17 2846   0.782   3.593   2.471 -0.2276  0.6436  0.3275
  124DG     C18 2847   0.640   3.672   2.654 -0.4296  0.6743  1.1060
  124DG     O19 2848   0.722   3.569   2.595 -0.0885 -0.3420 -0.1472
  124DG     H20 2849   0.702   3.636   2.404 -3.2955 -3.9954 -1.1665
  124DG     H21 2850   0.854   3.663   2.490  0.3808  0.3278  1.2200
  124DG     H22 2851   0.571   3.704   2.573  0.1766 -0.6095  1.1774
  124DG     H23 2852   0.698   3.755   2.700  2.1976 -0.7087 -0.6954
  125DG      C1 2853   2.934   5.193   0.898  0.0248 -0.3734 -0.4064
  125DG      C2 2854   2.547   5.481   0.499 -0.4329  0.1451 -0.4352
  125DG      H3 2855   2.939   5.211   1.009 -2.6318 -0.8688  1.6613
  125DG      H4 2856   2.988   5.280   0.848 -0.5381  0.6319  0.6261
  125DG      H5 2857   2.985   5.101   0.884 -0.3835  1.2128  0.9206
  125DG      H6 2858   2.561   5.420   0.409  0.3297  1.5705 -1.3677
  125DG      H7 2859   2.466   5.546   0.475  1.4609 -2.2753  0.9724
  125DG      H8 2860   2.642   5.530   0.516  0.3783 -1.5159 -0.3847
  125DG      O9 2861   2.800   5.185   0.864 -0.1977  0.2922  0.0354
  125DG     O10 2862   2.533   5.397   0.610  0.3749 -0.0477  0.1142
  125DG     C11 2863   2.733   5.064   0.890  0.0111 -0.8397 -0.4861
  125DG     C12 2864   2.426   5.305   0.589  0.0447  0.3016  0.1398
  125DG     H13 2865   2.754   5.030   0.990  1.5452 -0.9586  0.3869
  125DG     H14 2866   2.769   4.987   0.821  0.4797 -1.6440  0.7950
  125DG     H15 2867   2.449   5.241   0.507 -0.3095  1.1143  2.1359
  125DG     H16 2868   2.319   5.344   0.589 -0.3078 -1.0145  1.8336
  125DG     C17 2869   2.586   5.098   0.870  0.5378  0.1721  0.1214
  125DG     C18 2870   2.432   5.210   0.711  0.1558  0.3994 -0.4452
  125DG     O19 2871   2.567   5.170   0.738 -0.2639 -0.1907  0.1762
  125DG     H20 2872   2.555   5.172   0.947  1.6202 -0.1683  0.0479
  125DG     H21 2873   2.517   5.018   0.872 -1.0522  0.5015  1.7987
  125DG     H22 2874   2.379   5.267   0.790  0.4387  1.5682  2.7665
  125DG     H23 2875   2.379   5.122   0.670  1.3597 -0.6231  0.7006
  126DG      C1 2876   0.388   4.194   4.059  0.6795  0.4346 -0.1611
  126DG      C2 2877   0.366   4.712   4.476  0.6688  0.4575  0.1696
  126DG      H3 2878   0.391   4.088   4.092 -1.0345 -1.3383  2.8920
  126DG      H4 2879   0.486   4.237   4.038 -0.1817  3.4648  0.7206
  126DG      H5 2880   0.327   4.196   3.968 -1.1073 -2.6804 -2.6938
  126DG      H6 2881   0.271   4.733   4.432  0.5733 -1.1842 -0.8488
  126DG      H7 2882   0.394   4.770   4.566 -3.4621  2.6955 -0.6815
  126DG      H8 2883   0.436   4.736   4.396  1.5616  1.6875 -2.3785
  126DG      O9 2884   0.344   4.269   4.171  0.0136  0.2714 -0.4158
  126DG     O10 2885   0.368   4.568   4.499 -0.6047 -0.1363  0.4308
  126DG     C11 2886   0.216   4.234   4.216 -0.5736 -0.1265 -0.4031
  126DG     C12 2887   0.263   4.521   4.581  0.2858 -0.6333 -0.9575
  126DG     H13 2888   0.209   4.129   4.257  0.6850 -2.2379 -0.2728
  126DG     H14 2889   0.143   4.241   4.136 -1.7876 -0.3916  2.9708
  126DG     H15 2890   0.166   4.567   4.559 -0.1160  0.2702 -1.0402
  126DG     H16 2891   0.282   4.554   4.685 -3.9935  0.2749 -4.0444
  126DG     C17 2892   0.180   4.335   4.324  0.1097  0.6572 -1.1221
  126DG     C18 2893   0.238   4.371   4.563  0.3391 -0.1720 -0.2236
  126DG     O19 2894   0.269   4.318   4.435  0.3900 -0.2967 -0.5614
  126DG     H20 2895   0.078   4.306   4.347  0.5740 -0.4219  1.5602
  126DG     H21 2896   0.171   4.441   4.284  0.1580 -0.1963 -1.1919
  126DG     H22 2897   0.291   4.318   4.642  1.4117  0.7310 -1.0347
  126DG     H23 2898   0.136   4.353   4.576  3.1404  1.5283  0.3927
  127DG      C1 2899   0.768   2.397   0.775 -0.5235  0.2009 -0.6274
  127DG      C2 2900   1.106   1.886   0.528  0.0676  0.5728 -0.9678
  127DG      H3 2901   0.801   2.337   0.853  0.9953 -0.2021 -1.7554
  127DG      H4 2902   0.684   2.448   0.810 -1.4146 -0.2752  1.1946
  127DG      H5 2903   0.840   2.470   0.740  0.6270  0.4814 -2.1478
  127DG      H6 2904   1.088   1.796   0.476 -0.8940  0.6514 -2.4082
  127DG      H7 2905   1.181   1.941   0.484 -1.2118 -1.7049  0.6213
  127DG      H8 2906   1.120   1.868   0.634  0.6162  0.2352  2.1708
  127DG      O9 2907   0.745   2.300   0.674 -0.0299  0.2395 -0.0815
  127DG     O10 2908   0.985   1.958   0.509 -0.2672  0.6298  0.1945
  127DG     C11 2909   0.695   2.346   0.559 -0.0805  0.4615 -0.2891
  127DG     C12 2910   0.963   2.005   0.373  0.3814 -0.4204 -0.8595
  127DG     H13 2911   0.768   2.415   0.529  1.1231 -1.3919  2.6669
  127DG     H14 2912   0.597   2.398   0.584  1.5258 -1.7978 -0.4213
  127DG     H15 2913   0.978   1.928   0.302 -2.7002  1.8630  0.9736
  127DG     H16 2914   1.037   2.074   0.341  2.2250 -1.6847 -0.8029
  127DG     C17 2915   0.685   2.229   0.459  0.5088 -0.8221 -0.2772
  127DG     C18 2916   0.824   2.058   0.368  0.1269 -0.0591 -0.0208
  127DG     O19 2917   0.813   2.164   0.459 -0.0647  0.0732 -0.8653
  127DG     H20 2918   0.683   2.268   0.361  1.1900  0.7542 -0.5273
  127DG     H21 2919   0.606   2.164   0.485  0.4159 -1.5013  1.0054
  127DG     H22 2920   0.805   2.096   0.269  0.8578 -2.1049  0.4565
  127DG     H23 2921   0.753   1.989   0.405  0.2947  1.1554 -1.2034
  128DG      C1 2922   4.153   1.406   1.145  0.9891  0.5227 -0.8507
  128DG      C2 2923   4.175   1.179   1.830  0.0860 -0.2606 -0.6801
  128DG      H3 2924   4.249   1.462   1.146  1.7886  1.1042  2.8670
  128DG      H4 2925   4.094   1.429   1.060  3.0829 -1.2129  1.0986
  128DG      H5 2926   4.175   1.307   1.163  0.8327  1.6006 -0.7692
  128DG      H6 2927   4.157   1.080   1.794 -0.8105 -1.6719  0.4632
  128DG      H7 2928   4.283   1.194   1.832 -2.2692  1.1929 -1.1187
  128DG      H8 2929   4.129   1.191   1.925  1.0027 -2.4134  0.7235
  128DG      O9 2930   4.094   1.446   1.270 -0.2351 -0.3362 -0.3271
  128DG     O10 2931   4.108   1.272   1.748  0.1823 -0.3822  0.6074
  128DG     C11 2932   3.968   1.383   1.278  0.7887  0.4077  0.8272
  128DG     C12 2933   3.968   1.244   1.725 -0.4590  0.3198  0.4956
  128DG     H13 2934   3.981   1.287   1.256  1.2561  1.6299 -0.3263
  128DG     H14 2935   3.906   1.424   1.191 -1.4614 -1.5435  1.6654
  128DG     H15 2936   3.925   1.229   1.826  0.5687 -0.5174  1.5997
  128DG     H16 2937   3.962   1.148   1.669 -0.9682 -0.0212  0.3314
  128DG     C17 2938   3.891   1.398   1.411 -0.4518  0.1630  0.0668
  128DG     C18 2939   3.902   1.343   1.637 -0.3761 -0.0809 -0.1141
  128DG     O19 2940   3.965   1.337   1.509 -0.0316 -0.1689 -0.1991
  128DG     H20 2941   3.791   1.358   1.412 -1.0015 -1.7902 -1.0779
  128DG     H21 2942   3.888   1.499   1.446  0.3184 -1.4793 -0.6404
  128DG     H22 2943   3.797   1.315   1.614  1.6516 -1.5516 -0.7124
  128DG     H23 2944   3.900   1.444   1.671 -0.4244 -0.0890 -1.4099
  129DG      C1 2945   2.310   0.558   3.387 -0.3689  0.2435  0.0995
  129DG      C2 2946   2.714   1.160   3.425  0.1824 -0.5399 -0.3863
  129DG      H3 2947   2.328   0.571   3.281  0.4964 -2.1102  1.1750
  129DG      H4 2948   2.205   0.559   3.409  0.1772 -0.0149  0.4355
  129DG      H5 2949   2.357   0.458   3.416  1.0633 -2.8243 -0.0779
  129DG      H6 2950   2.654   1.250   3.424  0.7628 -1.2990 -4.1126
  129DG      H7 2951   2.809   1.180   3.466  0.0544 -0.7634 -1.5739
  129DG      H8 2952   2.727   1.125   3.322 -2.6013  1.8578 -2.4800
  129DG      O9 2953   2.378   0.663   3.457  0.5640  0.2278 -0.2407
  129DG     O10 2954   2.649   1.051   3.489  0.2831 -0.3006 -0.0252
  129DG     C11 2955   2.329   0.679   3.589  0.7436 -0.3341  0.1853
  129DG     C12 2956   2.614   1.089   3.621 -0.0364 -0.8955  0.1680
  129DG     H13 2957   2.319   0.589   3.649 -0.5426 -2.0277 -0.8385
  129DG     H14 2958   2.232   0.729   3.588 -0.0945  0.4903 -1.2249
  129DG     H15 2959   2.528   1.153   3.635  3.0304 -0.2924 -0.5687
  129DG     H16 2960   2.701   1.116   3.682  1.6139  1.3410 -2.0385
  129DG     C17 2961   2.431   0.764   3.669 -0.4251 -0.0387  0.7779
  129DG     C18 2962   2.565   0.957   3.686  0.1942 -0.7209  0.1263
  129DG     O19 2963   2.459   0.888   3.611 -0.2274  0.0327 -0.0540
  129DG     H20 2964   2.517   0.697   3.695  0.2804 -1.7246  3.7087
  129DG     H21 2965   2.372   0.773   3.756 -0.4591 -0.4377 -0.1257
  129DG     H22 2966   2.648   0.887   3.692 -1.8420  1.1831  0.6751
  129DG     H23 2967   2.532   0.979   3.787 -2.1861  1.3131  0.6143
  130DG      C1 2968   4.494   3.544   5.333  0.2674 -0.3791  0.0016
  130DG      C2 2969   4.400   4.212   5.311 -0.0274  0.2804 -0.7068
  130DG      H3 2970   4.521   3.568   5.430 -1.5635 -1.4674 -0.1473
  130DG      H4 2971   4.544   3.452   5.308 -2.7192  1.6422 -2.7498
  130DG      H5 2972   4.392   3.525   5.320 -0.1751  0.7964 -1.0208
  130DG      H6 2973   4.365   4.246   5.413  2.4387 -0.2853  0.7747
  130DG      H7 2974   4.448   4.290   5.254 -1.5477 -0.0481 -1.9637
  130DG      H8 2975   4.307   4.179   5.261 -1.3644 -0.9369  0.0659
  130DG      O9 2976   4.530   3.645   5.236 -0.6049 -0.0480  0.7112
  130DG     O10 2977   4.484   4.102   5.328 -0.6835  0.5096 -0.2107
  130DG     C11 2978   4.672   3.661   5.218 -0.0993  0.3425  0.5362
  130DG     C12 2979   4.614   4.110   5.388 -0.0798 -0.2324 -1.3065
  130DG     H13 2980   4.689   3.699   5.123  2.1032  1.5207  0.9525
  130DG     H14 2981   4.721   3.563   5.217  1.4706 -0.5105 -0.8746
  130DG     H15 2982   4.612   4.173   5.476 -0.1736  1.2562 -0.6642
  130DG     H16 2983   4.694   4.152   5.331  2.6080  1.4178 -1.2775
  130DG     C17 2984   4.731   3.765   5.320 -0.2184  0.7450  0.2509
  130DG     C18 2985   4.653   3.965   5.416  0.1016 -0.4286  0.3698
  130DG     O19 2986   4.659   3.884   5.300 -0.4956  0.1028  0.4019
  130DG     H20 2987   4.834   3.794   5.293  1.4172 -0.2283 -0.0456
  130DG     H21 2988   4.725   3.719   5.420 -0.5179 -1.0605 -0.1388
  130DG     H22 2989   4.750   3.976   5.469 -1.4062 -0.0807  1.1079
  130DG     H23 2990   4.597   3.925   5.499  2.5738  0.0508 -2.1349
  131DG      C1 2991   0.401   1.142   1.171  0.1754 -0.0066 -0.5203
  131DG      C2 2992  -0.059   1.581   1.431 -0.0731 -0.2069 -0.4013
  131DG      H3 2993   0.509   1.102   1.172  1.9838  1.0084  0.9211
  131DG      H4 2994   0.377   1.207   1.085 -0.3087 -0.6734 -2.1264
  131DG      H5 2995   0.329   1.064   1.156 -2.2212 -0.6410  1.7172
  131DG      H6 2996  -0.054   1.646   1.340  0.4894 -0.3601 -5.0941
  131DG      H7 2997  -0.138   1.511   1.410  0.2589 -1.0736  1.7620
  131DG      H8 2998  -0.107   1.644   1.509 -2.4374  0.5366 -0.1991
  131DG      O9 2999   0.370   1.209   1.287  0.1502  0.2248 -0.2415
  131DG     O10 3000   0.059   1.513   1.457  0.0043 -0.5181 -0.1800
  131DG     C11 3001   0.400   1.146   1.405  0.0398  0.2304 -0.3471
  131DG     C12 3002   0.065   1.444   1.584  0.1106  0.2159  0.2901
  131DG     H13 3003   0.498   1.118   1.422 -1.3427  1.6540  2.5968
  131DG     H14 3004   0.346   1.057   1.418  1.0405  0.1713 -1.7472
  131DG     H15 3005  -0.013   1.370   1.578  1.1429 -1.4802 -1.5230
  131DG     H16 3006   0.041   1.513   1.668  0.0800  2.4700  0.7950
  131DG     C17 3007   0.376   1.255   1.514 -0.6302 -0.1066  0.0029
  131DG     C18 3008   0.209   1.382   1.611 -0.4591 -0.2258 -0.3203
  131DG     O19 3009   0.244   1.296   1.507  0.6069  0.1583 -0.1876
  131DG     H20 3010   0.429   1.341   1.479  1.5935 -1.4328  0.1317
  131DG     H21 3011   0.426   1.246   1.611 -2.6592  1.9597 -1.3234
  131DG     H22 3012   0.290   1.451   1.629  0.6581 -2.8149  2.4029
  131DG     H23 3013   0.198   1.319   1.702 -1.5891  1.1799  3.0031
  132DG      C1 3014   3.829   4.627   2.840  0.2193 -0.0364 -0.1490
  132DG      C2 3015   4.027   4.169   3.247 -0.5128 -0.4107 -0.7162
  132DG      H3 3016   3.851   4.721   2.782  0.7857 -1.4253 -2.5385
  132DG      H4 3017   3.753   4.636   2.917 -0.3558  0.0617  1.3622
  132DG      H5 3018   3.806   4.545   2.760 -0.0260  2.4885 -2.2949
  132DG      H6 3019   4.021   4.071   3.214  0.0464  1.0704  3.6061
  132DG      H7 3020   4.096   4.176   3.334 -4.7140 -0.3584 -2.6837
  132DG      H8 3021   3.941   4.206   3.295 -0.0742 -1.8760 -1.7194
  132DG      O9 3022   3.946   4.601   2.924 -0.7437  0.3431 -0.1008
  132DG     O10 3023   4.057   4.249   3.138 -0.2097 -0.2002  0.7718
  132DG     C11 3024   4.069   4.595   2.852 -0.2633  0.3854  0.8435
  132DG     C12 3025   4.191   4.246   3.096  0.5169  0.2458 -0.0721
  132DG     H13 3026   4.082   4.680   2.774 -1.3806  1.0493  2.1936
  132DG     H14 3027   4.079   4.505   2.796  0.8053 -1.5187 -1.4387
  132DG     H15 3028   4.204   4.147   3.060 -0.4179 -0.4480  0.0996
  132DG     H16 3029   4.246   4.269   3.186  0.1098 -1.2293 -2.2696
  132DG     C17 3030   4.185   4.595   2.952 -0.1803 -0.1385 -0.1730
  132DG     C18 3031   4.213   4.349   2.986 -0.7266  0.0053 -0.5004
  132DG     O19 3032   4.179   4.482   3.045 -0.1080  0.1979 -0.0865
  132DG     H20 3033   4.193   4.686   3.011  0.4912  0.1711  1.0505
  132DG     H21 3034   4.280   4.586   2.897  0.1765  1.5492 -0.2920
  132DG     H22 3035   4.310   4.360   2.962 -1.9782 -2.5817  0.4325
  132DG     H23 3036   4.162   4.326   2.898  0.9408 -1.3425 -1.5686
  133DG      C1 3037   2.105   4.489   4.000 -0.5023  0.7093  0.2985
  133DG      C2 3038   1.635   4.670   4.385 -0.3320  0.2504  0.1950
  133DG      H3 3039   2.151   4.588   3.999 -0.2822 -1.4873  2.3835
  133DG      H4 3040   2.150   4.444   3.914  1.4439  0.7721 -0.0140
  133DG      H5 3041   2.153   4.450   4.089  0.1685  1.5533 -0.8867
  133DG      H6 3042   1.711   4.669   4.461 -1.3362  1.1097  0.1947
  133DG      H7 3043   1.646   4.771   4.346 -0.1693 -0.3096 -1.3625
  133DG      H8 3044   1.547   4.667   4.445 -1.2073 -1.7200  2.1697
  133DG      O9 3045   1.960   4.476   4.003  0.0730 -0.3608  0.0650
  133DG     O10 3046   1.643   4.588   4.270 -0.1299  0.5467  0.1059
  133DG     C11 3047   1.910   4.351   3.953  0.0291 -0.2285 -0.2501
  133DG     C12 3048   1.607   4.451   4.297 -0.1632  0.4102 -0.1432
  133DG     H13 3049   1.949   4.269   4.012  2.1998  0.5764  1.6127
  133DG     H14 3050   1.933   4.347   3.848 -2.2438  1.7529 -1.5196
  133DG     H15 3051   1.503   4.447   4.332 -0.3619  1.1149  2.3209
  133DG     H16 3052   1.670   4.412   4.377  1.6231  2.7672 -0.9348
  133DG     C17 3053   1.758   4.354   3.982 -0.6473  0.6742  0.6014
  133DG     C18 3054   1.615   4.377   4.167  0.5379  0.6004  0.1903
  133DG     O19 3055   1.744   4.392   4.114 -0.8818 -0.7218  0.2962
  133DG     H20 3056   1.711   4.262   3.949 -2.0730  1.9552  2.3349
  133DG     H21 3057   1.712   4.435   3.917  0.4871 -1.5544 -2.8547
  133DG     H22 3058   1.600   4.271   4.187 -0.7333 -0.4984 -0.4072
  133DG     H23 3059   1.543   4.421   4.095 -1.1578 -2.1157 -1.7888
  134DG      C1 3060   5.068   2.131   0.098 -0.1176  0.6856  0.6821
  134DG      C2 3061   5.486   1.791   0.537 -0.5534 -0.5294  0.7488
  134DG      H3 3062   4.988   2.096   0.036 -0.3148  0.4019 -0.8026
  134DG      H4 3063   5.118   2.212   0.042 -2.0440 -1.7106 -2.4099
  134DG      H5 3064   5.019   2.168   0.188 -0.9274  0.7247  1.1871
  134DG      H6 3065   5.565   1.866   0.542 -0.2320 -0.4867  0.1260
  134DG      H7 3066   5.403   1.808   0.612  2.3114  1.5247 -1.5198
  134DG      H8 3067   5.534   1.699   0.571  2.2148  1.5085  1.3135
  134DG      O9 3068   5.155   2.026   0.127  0.2689 -0.2522  0.6396
  134DG     O10 3069   5.431   1.767   0.408  0.5250 -0.7626  0.1085
  134DG     C11 3070   5.188   1.952   0.008  1.0547  0.4281 -0.5319
  134DG     C12 3071   5.527   1.743   0.301 -0.0198  0.7086  0.2266
  134DG     H13 3072   5.240   2.021  -0.064 -0.2558 -0.9717 -3.1717
  134DG     H14 3073   5.100   1.902  -0.047  1.0808 -1.3032  1.1614
  134DG     H15 3074   5.576   1.648   0.315 -0.0546  1.4969 -1.1943
  134DG     H16 3075   5.604   1.820   0.304 -3.1315  1.7411  1.0992
  134DG     C17 3076   5.271   1.834   0.054 -0.2100  0.9483 -0.4231
  134DG     C18 3077   5.462   1.744   0.168 -0.2006  0.5000  0.0379
  134DG     O19 3078   5.364   1.856   0.160 -0.8121  0.0039  0.6690
  134DG     H20 3079   5.321   1.795  -0.032  3.3178 -0.1864 -0.2069
  134DG     H21 3080   5.201   1.757   0.092 -1.4536 -1.8917 -1.0800
  134DG     H22 3081   5.530   1.734   0.086  0.0869  1.6721  2.3390
  134DG     H23 3082   5.405   1.647   0.161 -0.1238 -2.3838  2.0212
  135DG      C1 3083   4.974   4.474   3.520  0.6961 -0.6687  0.1507
  135DG      C2 3084   4.567   3.976   3.351 -0.0238 -0.4915  0.0629
  135DG      H3 3085   5.068   4.513   3.481 -1.2881  0.5418 -0.2139
  135DG      H4 3086   4.991   4.396   3.592  0.8411  1.1357 -0.4205
  135DG      H5 3087   4.921   4.560   3.572 -0.4672  0.0195  0.6350
  135DG      H6 3088   4.498   3.905   3.301  2.3724  0.8529  0.8523
  135DG      H7 3089   4.647   3.919   3.399  3.1656  1.8364  0.2230
  135DG      H8 3090   4.508   4.024   3.428 -0.2137 -0.1099 -2.0553
  135DG      O9 3091   4.897   4.422   3.405 -0.6314 -0.1183 -0.5188
  135DG     O10 3092   4.632   4.077   3.272  0.2086 -0.2552  0.3735
  135DG     C11 3093   4.837   4.532   3.328  0.3744  0.3443  1.0966
  135DG     C12 3094   4.542   4.165   3.210 -0.1179  0.1279  0.2378
  135DG     H13 3095   4.911   4.596   3.286 -2.3340  0.5488 -3.2599
  135DG     H14 3096   4.774   4.592   3.393 -0.9826 -0.0235 -2.9548
  135DG     H15 3097   4.468   4.201   3.285  0.0754  0.7113  0.4933
  135DG     H16 3098   4.491   4.105   3.136  2.5066 -1.4236 -3.2765
  135DG     C17 3099   4.743   4.477   3.215 -0.5239 -0.4929 -0.2114
  135DG     C18 3100   4.611   4.293   3.156  0.3049 -0.1458 -0.3921
  135DG     O19 3101   4.670   4.364   3.267 -0.4782  0.5540  0.0694
  135DG     H20 3102   4.810   4.447   3.132 -0.5674 -0.0308 -1.3206
  135DG     H21 3103   4.681   4.561   3.182  1.8440  0.9001  1.0712
  135DG     H22 3104   4.691   4.265   3.086  0.3293  0.7331 -0.2524
  135DG     H23 3105   4.540   4.365   3.109 -0.9825  1.3224  1.4657
  136DG      C1 3106   1.234   0.483   5.012 -0.3186 -0.6853  0.3130
  136DG      C2 3107   1.049   0.123   5.076 -0.8296  0.9162  0.3790
  136DG      H3 3108   1.159   0.470   4.930 -2.9210 -1.1163  1.8589
  136DG      H4 3109   1.255   0.387   5.072 -3.2146 -0.7704  1.7580
  136DG      H5 3110   1.321   0.513   4.957 -0.4918  2.4932 -0.2815
  136DG      H6 3111   1.123   0.081   5.000  3.7008  1.4888 -0.2708
  136DG      H7 3112   0.957   0.074   5.056 -1.6294 -0.9958  0.7024
  136DG      H8 3113   1.050   0.229   5.066 -0.1601  0.0906 -0.0952
  136DG      O9 3114   1.202   0.588   5.093  0.1438  0.4402  0.0780
  136DG     O10 3115   1.088   0.079   5.204 -0.0334 -0.3996 -0.2038
  136DG     C11 3116   1.085   0.570   5.169  0.1963 -0.1318  0.6226
  136DG     C12 3117   1.005   0.132   5.309 -0.2411  0.0283  0.7428
  136DG     H13 3118   1.004   0.532   5.105  1.2207  0.0165 -2.6313
  136DG     H14 3119   1.052   0.673   5.196 -2.3640  1.1751 -0.2714
  136DG     H15 3120   0.997   0.064   5.387  1.7386  2.2989 -0.1201
  136DG     H16 3121   0.901   0.146   5.272 -1.4575  1.9682  0.2508
  136DG     C17 3122   1.104   0.483   5.297  0.2614  0.3056  0.4520
  136DG     C18 3123   1.065   0.260   5.369  0.4681 -0.4023 -0.2433
  136DG     O19 3124   1.058   0.355   5.268 -0.0826 -0.1838  0.8192
  136DG     H20 3125   1.031   0.515   5.367 -0.1158  0.8061 -0.8697
  136DG     H21 3126   1.213   0.484   5.330 -0.9672  0.6836 -0.1647
  136DG     H22 3127   1.009   0.285   5.459  1.9871  4.4640  1.3225
  136DG     H23 3128   1.163   0.239   5.408  1.3024  0.4685  0.2865
  137DG      C1 3129   1.097   0.987   0.987 -0.8704 -0.8467  0.1906
  137DG      C2 3130   1.425   1.021   0.215 -0.5816 -0.2012 -0.1057
  137DG      H3 3131   1.045   0.895   1.009  3.4070  0.3611 -2.0240
  137DG      H4 3132   1.029   1.066   0.980  0.0754 -3.6613 -0.5625
  137DG      H5 3133   1.167   0.996   1.073  0.1464 -1.0547  2.0082
  137DG      H6 3134   1.376   0.928   0.230  0.5760 -0.2036 -0.9905
  137DG      H7 3135   1.359   1.105   0.192 -1.5367  0.2716  0.7341
  137DG      H8 3136   1.492   1.016   0.130  1.3906  0.8011 -1.8789
  137DG      O9 3137   1.163   0.951   0.867 -0.2524 -0.0387 -0.3399
  137DG     O10 3138   1.496   1.052   0.334  0.4518  0.1538  0.0805
  137DG     C11 3139   1.081   0.892   0.772  0.0317  0.0314  0.5341
  137DG     C12 3140   1.402   1.075   0.445  0.1577  0.2666  0.1237
  137DG     H13 3141   0.997   0.958   0.753 -0.3288  1.6332  1.4875
  137DG     H14 3142   1.047   0.798   0.810  1.2248 -0.6976  0.2574
  137DG     H15 3143   1.326   1.145   0.406  0.5814 -0.4013 -0.5416
  137DG     H16 3144   1.455   1.121   0.521 -1.0614  0.2251 -1.0686
  137DG     C17 3145   1.178   0.861   0.655 -0.0541  0.9603  0.6702
  137DG     C18 3146   1.332   0.943   0.505  0.0571  0.1954 -0.4325
  137DG     O19 3147   1.235   0.980   0.605  0.3751  0.4945 -0.4009
  137DG     H20 3148   1.127   0.816   0.565  0.5073 -2.7012  5.5814
  137DG     H21 3149   1.247   0.799   0.694 -0.3084  0.0554 -0.2537
  137DG     H22 3150   1.281   0.885   0.432 -2.8270 -1.2560  3.1743
  137DG     H23 3151   1.416   0.890   0.556 -1.9681  0.1855  2.9639
  138DG      C1 3152   1.825   3.532   4.447  0.3863 -0.1547  0.4258
  138DG      C2 3153   1.038   3.801   4.570 -0.3096  0.2253  0.0687
  138DG      H3 3154   1.890   3.523   4.537  0.9190 -0.3173  0.8016
  138DG      H4 3155   1.831   3.642   4.433  0.0423  0.6151  1.0108
  138DG      H5 3156   1.870   3.489   4.361  1.5360  3.0217 -0.3854
  138DG      H6 3157   1.091   3.883   4.520 -1.7401 -2.3889 -0.7812
  138DG      H7 3158   0.927   3.819   4.553 -4.9272  1.8919 -0.6706
  138DG      H8 3159   1.057   3.804   4.679  0.8366 -2.0506  4.8966
  138DG      O9 3160   1.686   3.493   4.469  0.3343  0.5488  0.0573
  138DG     O10 3161   1.085   3.686   4.501 -0.1791 -0.2135  0.3804
  138DG     C11 3162   1.624   3.474   4.348  0.6937  0.3163  0.5178
  138DG     C12 3163   1.230   3.687   4.486  0.0204 -0.0767  0.3962
  138DG     H13 3164   1.677   3.388   4.301 -0.5410 -1.0690  0.9493
  138DG     H14 3165   1.636   3.562   4.281  2.3990  1.0551  1.4934
  138DG     H15 3166   1.277   3.720   4.579 -0.4516  1.3096  1.1439
  138DG     H16 3167   1.256   3.757   4.412  0.7233  0.2805  2.3048
  138DG     C17 3168   1.474   3.446   4.372 -0.3502 -0.7292  0.4099
  138DG     C18 3169   1.278   3.546   4.439  0.7273 -0.8208 -0.1554
  138DG     O19 3170   1.416   3.555   4.428  0.2753 -0.1661  0.3691
  138DG     H20 3171   1.452   3.359   4.431 -0.5572 -3.1633 -2.9191
  138DG     H21 3172   1.423   3.411   4.283  1.0367  0.5136  0.6395
  138DG     H22 3173   1.259   3.479   4.519 -2.0582 -2.0195 -2.0280
  138DG     H23 3174   1.214   3.527   4.344 -2.0441  0.7912 -1.9535
  139DG      C1 3175   3.186   0.065   1.071 -0.1668  0.7930  0.3711
  139DG      C2 3176   3.665  -0.127   1.484 -0.1523  0.2335 -0.0855
  139DG      H3 3177   3.113   0.059   1.140 -0.7229 -0.6740  1.0440
  139DG      H4 3178   3.201  -0.035   1.043 -0.0420 -1.1779  3.0801
  139DG      H5 3179   3.156   0.130   0.987  3.2396 -1.3957  0.7775
  139DG      H6 3180   3.620  -0.213   1.438  0.5977 -1.2831 -1.2539
  139DG      H7 3181   3.772  -0.142   1.485  1.8693  1.2762 -0.2003
  139DG      H8 3182   3.641  -0.138   1.589 -1.8728  1.0548 -1.7907
  139DG      O9 3183   3.306   0.109   1.129 -0.1537  0.0728 -0.2527
  139DG     O10 3184   3.623  -0.001   1.423 -0.3488 -1.0473 -0.1764
  139DG     C11 3185   3.302   0.242   1.183  0.0859 -0.0624  0.7593
  139DG     C12 3186   3.636   0.121   1.507 -0.4446 -0.3817  0.3738
  139DG     H13 3187   3.230   0.244   1.262  1.8733 -0.2238  0.8829
  139DG     H14 3188   3.270   0.328   1.116 -3.0952  3.9730 -1.2957
  139DG     H15 3189   3.741   0.136   1.542  1.8430 -1.0810 -0.2141
  139DG     H16 3190   3.577   0.112   1.598  1.9379  1.9651  0.2854
  139DG     C17 3191   3.440   0.274   1.252  0.1974  0.4062  0.1605
  139DG     C18 3192   3.595   0.235   1.417 -0.0349  0.1903 -0.2750
  139DG     O19 3193   3.472   0.192   1.364  0.3546 -0.6093 -0.0958
  139DG     H20 3194   3.430   0.379   1.281  0.6917  0.3115 -2.7779
  139DG     H21 3195   3.523   0.276   1.170  1.6237  2.6539 -0.6007
  139DG     H22 3196   3.588   0.329   1.470 -0.6607 -4.2756 -1.5699
  139DG     H23 3197   3.674   0.243   1.348  1.5734 -0.4423 -1.7234
  140DG      C1 3198   2.055   3.894   1.106  0.6430 -0.3079  0.5157
  140DG      C2 3199   1.999   4.546   1.278 -0.5395 -0.1332  0.0131
  140DG      H3 3200   2.013   3.797   1.129 -1.0957  1.7701 -2.2627
  140DG      H4 3201   2.164   3.884   1.118 -0.3092 -0.3749 -2.1535
  140DG      H5 3202   2.025   3.890   1.007  3.0677 -1.7458 -0.3039
  140DG      H6 3203   1.937   4.572   1.196  0.5695 -0.3781  2.3533
  140DG      H7 3204   1.999   4.620   1.355 -1.0430 -1.4516 -0.3114
  140DG      H8 3205   2.091   4.541   1.232 -0.5613 -1.1830 -0.1501
  140DG      O9 3206   2.001   4.011   1.168 -0.3964  0.2822 -0.1109
  140DG     O10 3207   1.976   4.414   1.321  0.1104 -0.2119  0.1218
  140DG     C11 3208   1.864   3.988   1.206  0.1035 -0.0782  0.1006
  140DG     C12 3209   1.839   4.401   1.362  1.1583 -0.2405  0.1894
  140DG     H13 3210   1.854   3.899   1.269  0.1935  1.5790  2.0234
  140DG     H14 3211   1.807   3.972   1.114 -0.2561  0.0963 -0.4994
  140DG     H15 3212   1.780   4.403   1.266  0.4191 -1.7400 -0.1529
  140DG     H16 3213   1.802   4.485   1.422  2.0381  1.2976  0.5137
  140DG     C17 3214   1.799   4.120   1.263 -0.1114 -0.0477 -0.4166
  140DG     C18 3215   1.838   4.272   1.440  0.4058  0.2919 -0.3974
  140DG     O19 3216   1.895   4.163   1.364 -1.0886 -0.1110  0.2429
  140DG     H20 3217   1.701   4.100   1.303  1.4276  0.9030  0.0180
  140DG     H21 3218   1.785   4.188   1.178  1.2004 -0.8481  1.8298
  140DG     H22 3219   1.914   4.284   1.521  2.1052 -1.5959 -2.8399
  140DG     H23 3220   1.738   4.239   1.483 -1.0011  0.4573 -0.5670
  141DG      C1 3221   1.438   3.577   0.805  0.3037 -0.0897  0.5252
  141DG      C2 3222   1.308   2.998   0.699  0.5506 -0.4069  0.0065
  141DG      H3 3223   1.451   3.685   0.814  1.1398 -1.8239 -0.5173
  141DG      H4 3224   1.541   3.549   0.812  1.9616  2.3715 -1.5676
  141DG      H5 3225   1.378   3.542   0.886  2.1363  1.7543 -3.7275
  141DG      H6 3226   1.232   2.985   0.782 -2.3360  0.6110 -2.4547
  141DG      H7 3227   1.311   2.905   0.645 -2.6498  0.3892 -0.9595
  141DG      H8 3228   1.397   3.029   0.743 -0.2633 -0.0493 -0.4842
  141DG      O9 3229   1.373   3.538   0.683  0.4438 -0.8971  0.0146
  141DG     O10 3230   1.261   3.103   0.614 -0.3094  0.4409 -0.4120
  141DG     C11 3231   1.455   3.552   0.566 -0.1950  0.0440 -0.0709
  141DG     C12 3232   1.331   3.100   0.487  0.1984  0.0771  0.3203
  141DG     H13 3233   1.557   3.538   0.592  2.1922  0.7485  0.6556
  141DG     H14 3234   1.447   3.657   0.531  1.1271  2.1854  0.5917
  141DG     H15 3235   1.300   3.014   0.426  0.9788  1.1071 -1.5655
  141DG     H16 3236   1.436   3.086   0.500 -0.5111  0.5205 -1.5224
  141DG     C17 3237   1.395   3.460   0.458 -0.4335  0.1557  0.2773
  141DG     C18 3238   1.325   3.242   0.417  0.0026 -0.2917 -0.0182
  141DG     O19 3239   1.382   3.334   0.509  0.1357 -0.1309 -0.3213
  141DG     H20 3240   1.456   3.469   0.367 -0.0432  0.2156 -0.2785
  141DG     H21 3241   1.301   3.499   0.425  0.2186  0.2787 -0.4743
  141DG     H22 3242   1.399   3.231   0.332 -0.2032  0.4552 -0.5401
  141DG     H23 3243   1.227   3.269   0.390 -2.7356 -0.1492 -0.1678
  142DG      C1 3244   3.631   4.300   2.032  0.3744  0.0174 -0.0215
  142DG      C2 3245   3.974   4.041   1.498  0.4455 -0.4807 -0.3482
  142DG      H3 3246   3.687   4.218   2.080  0.2921  1.6583 -0.4232
  142DG      H4 3247   3.522   4.288   2.029 -2.7490  1.3470  3.1217
  142DG      H5 3248   3.646   4.395   2.085 -0.3751  0.5993 -0.7358
  142DG      H6 3249   4.002   4.067   1.396  1.6341  0.2161  3.0105
  142DG      H7 3250   4.064   4.043   1.561  1.5721  0.7423 -2.5241
  142DG      H8 3251   3.939   3.941   1.499 -1.2609  0.4227  1.3049
  142DG      O9 3252   3.685   4.323   1.901  0.1608  0.1346  0.0936
  142DG     O10 3253   3.877   4.139   1.527  0.3242 -0.5275  0.2411
  142DG     C11 3254   3.691   4.452   1.856  0.2998 -0.2793 -0.2100
  142DG     C12 3255   3.919   4.271   1.501 -0.3993  0.0529 -0.0319
  142DG     H13 3256   3.785   4.497   1.877 -1.6960  0.9547  2.4325
  142DG     H14 3257   3.606   4.509   1.903  0.5799  1.6042 -0.0279
  142DG     H15 3258   3.957   4.277   1.405 -0.1567  0.2287  3.4839
  142DG     H16 3259   4.006   4.282   1.566  0.6403  1.3530 -0.1256
  142DG     C17 3260   3.687   4.461   1.709  0.7313 -0.2884  0.2940
  142DG     C18 3261   3.817   4.384   1.519 -0.2480 -0.0639  0.5409
  142DG     O19 3262   3.793   4.383   1.654 -0.2058 -0.0449 -0.0255
  142DG     H20 3263   3.696   4.562   1.682  1.9766 -2.9570 -0.4355
  142DG     H21 3264   3.597   4.405   1.680  0.7835 -1.7097 -0.5992
  142DG     H22 3265   3.853   4.482   1.495 -1.5075 -2.3334 -2.2996
  142DG     H23 3266   3.723   4.361   1.473 -0.3205 -1.2246 -0.7983
  143DG      C1 3267   4.439   0.171   0.392 -0.1420  0.1571  0.4011
  143DG      C2 3268   3.805  -0.085   0.604  0.1536  0.3048 -0.4111
  143DG      H3 3269   4.510   0.230   0.339  1.2374 -1.6205  0.8988
  143DG      H4 3270   4.500   0.112   0.459 -2.0871 -3.2075 -0.3191
  143DG      H5 3271   4.367   0.240   0.440  0.1436  0.1593  1.8993
  143DG      H6 3272   3.733  -0.139   0.534 -1.0142  0.6955 -2.2735
  143DG      H7 3273   3.752  -0.021   0.676 -1.2657 -0.1265 -1.5224
  143DG      H8 3274   3.863  -0.023   0.537  3.7422 -1.4785 -2.0692
  143DG      O9 3275   4.350   0.092   0.311 -0.2652  0.2445 -0.1502
  143DG     O10 3276   3.880  -0.176   0.686 -0.1449  0.0298  0.2032
  143DG     C11 3277   4.232   0.058   0.375 -0.0930  0.2511  1.0094
  143DG     C12 3278   3.966  -0.257   0.617  0.0781  0.4582 -0.1026
  143DG     H13 3279   4.152   0.033   0.298 -1.8136  0.9789 -0.7365
  143DG     H14 3280   4.187   0.142   0.428 -1.5298  2.1491  0.2150
  143DG     H15 3281   3.933  -0.300   0.521 -2.0006 -0.1636  0.2167
  143DG     H16 3282   3.970  -0.343   0.685 -0.8872 -0.8275  0.0563
  143DG     C17 3283   4.243  -0.066   0.471  0.4505 -0.2650  0.1163
  143DG     C18 3284   4.101  -0.202   0.619 -0.2306  0.0800 -0.0271
  143DG     O19 3285   4.110  -0.096   0.525 -0.5164 -0.4897  0.6292
  143DG     H20 3286   4.294  -0.040   0.561  3.8063 -1.7777 -0.0562
  143DG     H21 3287   4.288  -0.152   0.423 -0.4094  1.0763  1.3256
  143DG     H22 3288   4.121  -0.171   0.720 -0.1827  1.2498  2.0376
  143DG     H23 3289   4.175  -0.281   0.593  3.7219 -1.0546 -0.7844
  144DG      C1 3290   2.016   1.943   3.979  0.2833 -0.7723  0.4454
  144DG      C2 3291   1.548   2.442   3.959 -0.3469  0.3778  0.1183
  144DG      H3 3292   2.035   2.009   4.061 -0.6119 -2.2059  0.9688
  144DG      H4 3293   2.088   1.961   3.902 -0.3141 -1.1283 -3.6211
  144DG      H5 3294   2.041   1.846   4.023 -0.8075  0.3952  2.4319
  144DG      H6 3295   1.651   2.453   3.992 -0.2108 -0.3958 -0.0109
  144DG      H7 3296   1.521   2.520   3.886  0.7392 -0.5786  0.4435
  144DG      H8 3297   1.473   2.450   4.036  1.2878 -1.7810 -0.9929
  144DG      O9 3298   1.880   1.949   3.935  0.5169  0.3405  0.2726
  144DG     O10 3299   1.542   2.311   3.912 -0.3124 -0.0751  0.0122
  144DG     C11 3300   1.787   1.930   4.042 -0.0161 -0.3327  0.5063
  144DG     C12 3301   1.642   2.267   3.826 -1.0526 -0.3001 -0.0260
  144DG     H13 3302   1.793   2.006   4.118 -1.1701  2.4496 -1.6282
  144DG     H14 3303   1.794   1.828   4.090  2.7016  0.4580 -0.2005
  144DG     H15 3304   1.738   2.298   3.871  2.9443 -4.0596 -0.2345
  144DG     H16 3305   1.630   2.306   3.720  0.7739  1.2625  0.6353
  144DG     C17 3306   1.635   1.943   4.002  0.3762  0.3881  0.7158
  144DG     C18 3307   1.642   2.106   3.829  0.1817  0.1202 -0.0347
  144DG     O19 3308   1.604   2.078   3.959 -0.2880  0.0216 -0.1689
  144DG     H20 3309   1.572   1.926   4.086 -0.5993  2.3404 -0.9886
  144DG     H21 3310   1.602   1.869   3.930  0.4520  2.3750  1.0346
  144DG     H22 3311   1.580   2.049   3.761  0.7718  1.6424 -0.2079
  144DG     H23 3312   1.748   2.082   3.805  0.5403 -1.0130  2.3269
  145DG      C1 3313   5.406   4.062   4.377 -0.0641  0.2905  0.7923
  145DG      C2 3314   5.138   3.638   3.934  0.5138 -0.2387  0.0276
  145DG      H3 3315   5.483   4.090   4.452 -1.1425  0.4561  1.7477
  145DG      H4 3316   5.317   4.117   4.403  0.3880 -0.8170 -0.3218
  145DG      H5 3317   5.447   4.108   4.285 -0.7528  1.1222  1.4477
  145DG      H6 3318   5.060   3.703   3.900  2.3737 -1.2693  1.4474
  145DG      H7 3319   5.222   3.653   3.864  2.7151  1.9627 -0.9692
  145DG      H8 3320   5.117   3.536   3.912  0.1696  0.2763 -3.6461
  145DG      O9 3321   5.393   3.917   4.370  0.2987 -0.9247  0.2325
  145DG     O10 3322   5.194   3.659   4.069  0.2652 -0.1463 -0.1164
  145DG     C11 3323   5.358   3.860   4.490  0.5632 -0.5677 -0.1407
  145DG     C12 3324   5.102   3.615   4.171  0.6175  0.0558  0.4523
  145DG     H13 3325   5.285   3.919   4.538  1.2548 -2.2532 -2.0727
  145DG     H14 3326   5.434   3.860   4.563 -1.8695 -1.8601 -1.0811
  145DG     H15 3327   5.047   3.522   4.136  0.8703 -2.3029 -2.7782
  145DG     H16 3328   5.022   3.687   4.185 -1.1797 -0.6794 -1.8630
  145DG     C17 3329   5.291   3.726   4.465 -0.3177  0.3870 -0.1436
  145DG     C18 3330   5.157   3.598   4.310  0.9308 -0.5986  0.0361
  145DG     O19 3331   5.236   3.717   4.338 -0.3197 -0.2238 -0.4089
  145DG     H20 3332   5.216   3.713   4.542  0.2929  0.8870  1.7082
  145DG     H21 3333   5.365   3.647   4.475  0.2658 -0.0665 -0.1249
  145DG     H22 3334   5.071   3.595   4.380 -0.9281  2.1572 -1.9486
  145DG     H23 3335   5.213   3.503   4.326 -1.5341 -0.0482 -0.4262
  146DG      C1 3336   2.380   5.273   3.751 -0.3721 -0.3357 -0.6790
  146DG      C2 3337   2.005   5.049   3.318 -0.3318 -0.9262 -0.4086
  146DG      H3 3338   2.428   5.214   3.828 -2.4240  2.8010  1.0095
  146DG      H4 3339   2.391   5.380   3.781 -0.5795 -0.2429  1.2040
  146DG      H5 3340   2.432   5.262   3.657 -2.2753 -0.3161 -0.4973
  146DG      H6 3341   1.977   4.944   3.314 -0.4287  0.6887 -0.3002
  146DG      H7 3342   1.934   5.090   3.248 -0.0516  0.1136  1.5382
  146DG      H8 3343   2.103   5.051   3.276 -1.5895 -1.0489  1.8224
  146DG      O9 3344   2.243   5.236   3.726  0.2125  0.2151 -1.1296
  146DG     O10 3345   1.987   5.102   3.450  0.0856 -0.2525  0.0904
  146DG     C11 3346   2.167   5.237   3.849 -0.2168  0.9249 -0.2274
  146DG     C12 3347   1.887   5.039   3.530 -0.1712  0.5805 -0.4123
  146DG     H13 3348   2.186   5.329   3.905  2.1243 -0.2056  1.6586
  146DG     H14 3349   2.194   5.159   3.920  0.2218 -1.6505 -0.7763
  146DG     H15 3350   1.918   4.932   3.547  0.2700 -0.1215  0.4156
  146DG     H16 3351   1.798   5.032   3.471 -0.8457 -1.0719  3.0073
  146DG     C17 3352   2.024   5.216   3.817  0.5026  0.0018 -0.1167
  146DG     C18 3353   1.878   5.102   3.663 -0.4283 -0.3045  0.3983
  146DG     O19 3354   2.006   5.104   3.724  0.3696 -0.5458  0.1149
  146DG     H20 3355   1.978   5.315   3.784 -0.7194 -2.9284  1.1165
  146DG     H21 3356   1.967   5.188   3.907  0.5835  0.4554  1.6779
  146DG     H22 3357   1.837   5.207   3.654  0.9999 -0.4867 -0.0270
  146DG     H23 3358   1.804   5.052   3.721  1.1011  0.1792 -1.3932
  147DG      C1 3359   4.559   1.471   1.209 -0.4193  0.0525  0.2006
  147DG      C2 3360   4.674   0.754   0.845 -0.3380 -0.6558 -0.0608
  147DG      H3 3361   4.639   1.528   1.167 -3.3961  0.3228 -0.3164
  147DG      H4 3362   4.569   1.461   1.320 -0.8149  2.1508  0.8790
  147DG      H5 3363   4.464   1.537   1.199 -4.0215 -1.8892  1.1461
  147DG      H6 3364   4.575   0.701   0.829 -1.7939  1.8953  0.4214
  147DG      H7 3365   4.665   0.857   0.819 -0.4317  0.9386 -2.0174
  147DG      H8 3366   4.754   0.711   0.780 -3.4954 -1.6806  2.6949
  147DG      O9 3367   4.537   1.342   1.155 -0.3270 -0.2750 -0.6292
  147DG     O10 3368   4.714   0.756   0.984 -0.6312  0.6492 -0.2562
  147DG     C11 3369   4.650   1.266   1.157 -0.0594 -0.2007  0.1233
  147DG     C12 3370   4.621   0.820   1.070 -0.5696 -0.1114  1.0247
  147DG     H13 3371   4.682   1.263   1.256  0.9024 -1.6614 -1.1819
  147DG     H14 3372   4.727   1.320   1.100 -0.6187  1.9299 -0.5011
  147DG     H15 3373   4.574   0.750   1.135  1.8007 -1.5215 -2.0523
  147DG     H16 3374   4.543   0.883   1.015 -0.6540  0.5362 -3.9075
  147DG     C17 3375   4.614   1.126   1.101  0.3109 -0.0010  1.2378
  147DG     C18 3376   4.697   0.917   1.162 -1.4188  0.3593  0.5052
  147DG     O19 3377   4.723   1.037   1.094 -0.1287 -0.0940 -0.1810
  147DG     H20 3378   4.587   1.150   0.999  0.7857 -0.5117  5.0920
  147DG     H21 3379   4.527   1.093   1.153 -0.1294  0.4031 -0.2205
  147DG     H22 3380   4.644   0.929   1.257 -0.2536 -3.0235  0.9978
  147DG     H23 3381   4.785   0.863   1.189 -1.9946  1.5912  0.9964
  148DG      C1 3382   5.007   2.343   3.550  0.2372 -0.1177 -0.4845
  148DG      C2 3383   5.584   1.919   3.751 -0.3566 -0.2557  0.1187
  148DG      H3 3384   4.994   2.357   3.652 -0.2937  0.4178  2.9331
  148DG      H4 3385   4.938   2.261   3.525 -2.5053  0.2299  0.3568
  148DG      H5 3386   4.956   2.428   3.497 -2.9986 -1.0200  0.3279
  148DG      H6 3387   5.568   1.828   3.696  3.1592 -1.6794 -1.2641
  148DG      H7 3388   5.684   1.913   3.789  1.8143  0.3869  3.8587
  148DG      H8 3389   5.513   1.913   3.829 -1.3172 -0.7366 -2.6642
  148DG      O9 3390   5.137   2.310   3.510 -0.2605 -0.2437  0.0972
  148DG     O10 3391   5.564   2.025   3.662 -0.3939  0.0757  0.5368
  148DG     C11 3392   5.227   2.419   3.538 -0.3116  0.4861  0.0932
  148DG     C12 3393   5.577   2.157   3.728  0.1013  0.1756  0.0726
  148DG     H13 3394   5.213   2.443   3.639 -0.3073 -0.4897  0.9233
  148DG     H14 3395   5.195   2.502   3.481  1.7120  2.8707 -1.6079
  148DG     H15 3396   5.674   2.177   3.783 -0.7215 -0.3410  0.3752
  148DG     H16 3397   5.507   2.176   3.810  2.2464 -1.0217 -0.3998
  148DG     C17 3398   5.382   2.397   3.520 -0.0259 -0.8395 -0.7858
  148DG     C18 3399   5.546   2.255   3.619 -0.7240  0.2708 -0.0848
  148DG     O19 3400   5.412   2.285   3.605 -0.2742 -0.5139  0.5401
  148DG     H20 3401   5.444   2.488   3.555 -1.0545  1.6898 -1.2510
  148DG     H21 3402   5.410   2.366   3.416  0.7947  0.1855  0.7931
  148DG     H22 3403   5.605   2.339   3.645 -0.5695  1.9162  3.0156
  148DG     H23 3404   5.573   2.227   3.512 -1.8940 -3.1046  0.8273
  149DG      C1 3405   3.124   5.239   3.913  0.3861  0.4910 -0.2915
  149DG      C2 3406   3.036   5.059   3.249 -0.0566  0.1786 -0.1143
  149DG      H3 3407   3.122   5.207   4.013  1.5649 -2.5217  0.2078
  149DG      H4 3408   3.031   5.285   3.886 -0.4566 -0.8830  0.6061
  149DG      H5 3409   3.204   5.307   3.917 -1.8651 -3.4260 -0.6246
  149DG      H6 3410   3.081   5.145   3.207  0.0402 -2.2626  1.7110
  149DG      H7 3411   3.034   4.988   3.169  0.7947 -0.9527 -0.6039
  149DG      H8 3412   2.933   5.087   3.277  1.6027 -1.1551 -1.7334
  149DG      O9 3413   3.135   5.144   3.806 -1.2532 -1.2456 -0.2361
  149DG     O10 3414   3.108   5.016   3.363  0.3669  0.4446  0.5178
  149DG     C11 3415   3.265   5.080   3.808  0.1559  0.1027 -0.0889
  149DG     C12 3416   3.244   4.993   3.341 -0.7214 -0.7587 -0.2132
  149DG     H13 3417   3.299   5.048   3.902  3.1066 -0.9620 -2.4758
  149DG     H14 3418   3.339   5.157   3.791  0.0764  0.8764 -0.2056
  149DG     H15 3419   3.301   5.086   3.319  2.7378  2.8233  1.4246
  149DG     H16 3420   3.273   4.918   3.268  3.7722  1.3843 -2.3136
  149DG     C17 3421   3.289   4.978   3.709 -0.3978 -0.0487 -0.4904
  149DG     C18 3422   3.298   4.939   3.471 -0.1331 -0.0102  0.1678
  149DG     O19 3423   3.245   5.021   3.586 -0.2055  0.2010 -0.0146
  149DG     H20 3424   3.241   4.881   3.732  3.1337 -1.1397  0.0817
  149DG     H21 3425   3.392   4.946   3.711  1.2181  0.3350  1.4719
  149DG     H22 3426   3.277   4.834   3.484 -0.1223 -1.9084 -0.7586
  149DG     H23 3427   3.405   4.957   3.463 -0.9968  0.0650  0.7187
  150DG      C1 3428   3.544   0.997   3.574  0.1566  0.3286  0.4559
  150DG      C2 3429   3.037   1.440   3.538 -0.1095  0.0433 -0.2766
  150DG      H3 3430   3.604   0.958   3.495 -1.0236  1.2755  1.3106
  150DG      H4 3431   3.480   0.917   3.616  0.8764 -0.3853  0.2630
  150DG      H5 3432   3.604   1.028   3.659 -1.3492  0.7884  2.8126
  150DG      H6 3433   2.961   1.379   3.580  0.1262  3.4397  0.4854
  150DG      H7 3434   3.082   1.476   3.621 -2.1389 -1.0680 -0.9977
  150DG      H8 3435   2.964   1.512   3.503  0.2497 -0.1749 -0.7447
  150DG      O9 3436   3.465   1.108   3.532  0.6243 -0.2080  0.2201
  150DG     O10 3437   3.128   1.387   3.445  0.6036  0.1387  0.2482
  150DG     C11 3438   3.543   1.211   3.466  0.0452  1.0004 -0.0314
  150DG     C12 3439   3.208   1.485   3.392  0.1392  0.0491  0.7158
  150DG     H13 3440   3.581   1.163   3.377 -3.4657  1.0786 -0.6196
  150DG     H14 3441   3.628   1.233   3.532 -1.1222 -0.0553 -1.1397
  150DG     H15 3442   3.270   1.541   3.467  0.0995  1.7756 -0.6865
  150DG     H16 3443   3.138   1.561   3.343  0.1904  0.9106 -0.5227
  150DG     C17 3444   3.474   1.344   3.425 -0.8214 -0.3719 -0.2579
  150DG     C18 3445   3.287   1.404   3.289  0.3447  0.3056  0.0233
  150DG     O19 3446   3.372   1.299   3.338 -0.0753  0.0771 -0.5345
  150DG     H20 3447   3.534   1.409   3.367 -3.4017 -0.1740 -0.0278
  150DG     H21 3448   3.438   1.402   3.512 -2.4030  0.0327  0.0409
  150DG     H22 3449   3.219   1.369   3.212  1.5316 -2.2350  1.9729
  150DG     H23 3450   3.347   1.463   3.222 -0.4961 -1.2063 -0.4224
  151DG      C1 3451   3.563   0.718   0.044 -0.4687  0.1398  0.4391
  151DG      C2 3452   3.871   0.749   0.621 -0.1710  1.4616  0.6090
  151DG      H3 3453   3.670   0.714   0.030 -0.7025  0.2333  0.8574
  151DG      H4 3454   3.516   0.751  -0.044  0.0427 -3.9443 -1.7898
  151DG      H5 3455   3.544   0.613   0.051  2.5790  1.6195 -0.1422
  151DG      H6 3456   3.970   0.744   0.581 -2.8620  0.4678 -1.4718
  151DG      H7 3457   3.877   0.812   0.704  0.4814 -0.6194 -1.9464
  151DG      H8 3458   3.849   0.657   0.661 -2.3849  0.3940 -0.1260
  151DG      O9 3459   3.523   0.802   0.155  0.3673  0.8054  0.1294
  151DG     O10 3460   3.765   0.800   0.532  0.1635 -0.0135 -0.3381
  151DG     C11 3461   3.514   0.942   0.131 -0.6883  0.3454 -0.7680
  151DG     C12 3462   3.765   0.946   0.552 -0.0588 -0.7532  0.5323
  151DG     H13 3463   3.412   0.945   0.086 -2.9351  1.7047 -1.7002
  151DG     H14 3464   3.588   0.984   0.065  0.0373  0.3724  1.3153
  151DG     H15 3465   3.862   0.994   0.527  4.0488  5.1150 -1.6130
  151DG     H16 3466   3.734   0.964   0.658  0.3308  0.0888  0.1894
  151DG     C17 3467   3.531   1.008   0.267 -0.0049  0.6406 -0.1640
  151DG     C18 3468   3.654   1.004   0.466  0.0905 -0.0820  0.6137
  151DG     O19 3469   3.648   0.956   0.333 -0.6420 -0.3039  0.6153
  151DG     H20 3470   3.446   0.978   0.330  1.5410  0.4754 -2.4482
  151DG     H21 3471   3.536   1.115   0.258 -1.8111 -1.0300  0.2169
  151DG     H22 3472   3.558   0.975   0.512 -1.6526 -0.5440 -1.7640
  151DG     H23 3473   3.653   1.106   0.484 -1.0386  1.3503  0.0228
  152DG      C1 3474   2.847   4.616   3.570  0.4443  0.2477  0.2403
  152DG      C2 3475   3.196   4.556   3.010 -0.0815 -0.1767 -0.1661
  152DG      H3 3476   2.804   4.559   3.657  2.0043  3.2632  0.7001
  152DG      H4 3477   2.766   4.620   3.491 -0.4624  1.0692  2.7554
  152DG      H5 3478   2.860   4.720   3.595  1.9091  0.1706 -1.3202
  152DG      H6 3479   3.287   4.533   2.954 -0.9937  2.7337 -0.1298
  152DG      H7 3480   3.127   4.474   2.968 -0.1949 -0.0639 -1.5708
  152DG      H8 3481   3.172   4.662   2.980  2.1121  1.3902 -0.6832
  152DG      O9 3482   2.966   4.556   3.533  0.3268 -0.4891  0.1191
  152DG     O10 3483   3.203   4.536   3.148  0.0910 -0.5035  0.2034
  152DG     C11 3484   3.076   4.597   3.614 -0.5904 -0.4164 -0.0574
  152DG     C12 3485   3.318   4.598   3.204 -0.4531 -0.0400 -0.2916
  152DG     H13 3486   3.062   4.558   3.715 -1.4264 -1.4503  1.0464
  152DG     H14 3487   3.072   4.704   3.636  1.3141 -2.5532 -3.0247
  152DG     H15 3488   3.286   4.697   3.213  2.0913 -0.5363 -0.1729
  152DG     H16 3489   3.409   4.580   3.144  1.7830  2.1609 -0.5556
  152DG     C17 3490   3.211   4.550   3.568  0.2266  0.5801 -0.1269
  152DG     C18 3491   3.336   4.559   3.352  0.2247 -0.3235  0.3662
  152DG     O19 3492   3.214   4.595   3.423  0.5835  0.6998 -0.0679
  152DG     H20 3493   3.232   4.448   3.576  1.3158  1.4783  0.1050
  152DG     H21 3494   3.292   4.597   3.630 -0.9206 -1.3465 -0.0670
  152DG     H22 3495   3.355   4.453   3.371 -0.0062 -0.0418 -0.4840
  152DG     H23 3496   3.424   4.619   3.380  0.0216 -1.7699 -2.8260
  153DG      C1 3497   1.213   5.118   4.117  0.0643 -0.6949  0.4326
  153DG      C2 3498   0.989   5.611   4.693  0.0540 -0.0490 -0.0864
  153DG      H3 3499   1.316   5.088   4.092  1.7742 -0.2162 -4.1830
  153DG      H4 3500   1.166   5.151   4.028  2.4194 -0.7860  3.0051
  153DG      H5 3501   1.160   5.040   4.167  0.4382  0.3256  0.8756
  153DG      H6 3502   1.038   5.697   4.726 -0.7557  0.9392  2.9572
  153DG      H7 3503   0.913   5.600   4.774 -0.7826  0.5552 -3.0926
  153DG      H8 3504   1.053   5.525   4.702  1.0035 -0.5478  0.5725
  153DG      O9 3505   1.217   5.229   4.198  0.1563  0.3004 -0.4850
  153DG     O10 3506   0.927   5.634   4.569 -0.0220  0.2076 -0.2156
  153DG     C11 3507   1.257   5.345   4.129 -0.4569 -0.2871  0.2796
  153DG     C12 3508   0.972   5.530   4.474  0.6586  0.3513 -0.2921
  153DG     H13 3509   1.182   5.359   4.054  0.2962 -3.3393 -0.7737
  153DG     H14 3510   1.350   5.350   4.088 -0.1251 -0.3176  1.2600
  153DG     H15 3511   0.905   5.541   4.391 -0.5365 -2.1558 -2.6035
  153DG     H16 3512   0.944   5.429   4.495  0.2287  0.9113  0.8356
  153DG     C17 3513   1.246   5.466   4.233  0.4772  0.0914  0.4473
  153DG     C18 3514   1.113   5.552   4.416  0.2196  0.3629 -0.4030
  153DG     O19 3515   1.129   5.449   4.313 -0.1409 -0.2609  0.3047
  153DG     H20 3516   1.244   5.558   4.176 -1.7113 -1.6054 -3.4317
  153DG     H21 3517   1.330   5.452   4.297 -1.2999  1.2555  0.0239
  153DG     H22 3518   1.119   5.654   4.385 -0.3359  0.7785 -1.6829
  153DG     H23 3519   1.196   5.539   4.480  0.5888 -0.9145  0.7074
  154DG      C1 3520   4.822   2.356   1.471  0.0150  0.3482  0.3363
  154DG      C2 3521   4.935   2.389   0.837  0.3185  0.3523 -1.1244
  154DG      H3 3522   4.767   2.389   1.558  1.2515  0.6080 -0.5961
  154DG      H4 3523   4.930   2.337   1.486  1.3561  2.9162  1.0767
  154DG      H5 3524   4.789   2.258   1.438  0.5722 -0.0221 -0.8644
  154DG      H6 3525   4.889   2.292   0.849 -0.3580 -1.1662  0.7893
  154DG      H7 3526   4.925   2.427   0.736 -0.3881 -2.0110  1.8102
  154DG      H8 3527   5.040   2.364   0.861  1.4437 -0.1603 -2.0035
  154DG      O9 3528   4.799   2.448   1.364 -0.2495  0.6109  0.8882
  154DG     O10 3529   4.880   2.481   0.933 -0.2202  0.2524 -0.0339
  154DG     C11 3530   4.853   2.579   1.399  0.3454  0.7762 -0.3761
  154DG     C12 3531   4.953   2.604   0.944 -0.3561 -0.2986 -0.0798
  154DG     H13 3532   4.964   2.566   1.425 -0.2805 -0.5733  1.4575
  154DG     H14 3533   4.806   2.623   1.485  1.7642 -0.3909  0.8947
  154DG     H15 3534   4.935   2.663   0.849 -1.4895 -1.3741  0.2125
  154DG     H16 3535   5.064   2.592   0.951 -0.7332 -1.8657  2.8378
  154DG     C17 3536   4.843   2.674   1.280 -0.5434 -0.2085  0.0682
  154DG     C18 3537   4.893   2.691   1.063 -0.4934 -0.0445 -0.1494
  154DG     O19 3538   4.902   2.607   1.175 -0.6585  0.4552  0.4233
  154DG     H20 3539   4.871   2.776   1.298 -0.6651  0.4405  1.6376
  154DG     H21 3540   4.734   2.684   1.255 -0.1256 -0.4730  0.3926
  154DG     H22 3541   4.953   2.786   1.077  1.2259 -0.6735 -0.8836
  154DG     H23 3542   4.790   2.720   1.030  1.2720  0.5709 -1.7941
  155DG      C1 3543   2.022   3.505   2.657 -0.2711 -0.8665 -0.2318
  155DG      C2 3544   1.777   2.973   2.434 -0.6797 -0.5265 -0.4704
  155DG      H3 3545   1.954   3.474   2.742  0.7638 -1.5561 -1.0191
  155DG      H4 3546   1.959   3.541   2.583  2.5047  1.5781 -0.6309
  155DG      H5 3547   2.085   3.585   2.691 -0.9225 -1.7128  1.1134
  155DG      H6 3548   1.738   3.035   2.348  1.5852  1.7400  2.3020
  155DG      H7 3549   1.837   2.897   2.391  3.8264  0.5227  1.7567
  155DG      H8 3550   1.704   2.910   2.484 -0.2068 -0.7645 -0.6069
  155DG      O9 3551   2.101   3.394   2.628  0.7233 -0.2764 -0.5565
  155DG     O10 3552   1.852   3.056   2.518  0.1594 -0.6133 -0.4771
  155DG     C11 3553   2.156   3.339   2.749 -1.0602  0.1046  0.4449
  155DG     C12 3554   1.895   2.988   2.636  0.6185 -0.0467 -0.0199
  155DG     H13 3555   2.083   3.340   2.830  1.8290  1.8450  3.6339
  155DG     H14 3556   2.243   3.394   2.787 -1.2746  2.1714 -0.1587
  155DG     H15 3557   1.922   2.890   2.613  0.6840 -0.8532  0.7592
  155DG     H16 3558   1.812   2.961   2.701 -0.1859 -0.8159 -2.0207
  155DG     C17 3559   2.211   3.190   2.720  0.0415 -0.2111 -0.5856
  155DG     C18 3560   1.996   3.062   2.723  0.4758 -0.2649 -0.2905
  155DG     O19 3561   2.112   3.111   2.653  0.1923  0.3956  0.5282
  155DG     H20 3562   2.244   3.152   2.812 -0.8705  0.1813 -0.7052
  155DG     H21 3563   2.285   3.209   2.644 -0.3426  0.0600 -4.2945
  155DG     H22 3564   1.945   3.145   2.775  0.9027  0.0571 -0.2328
  155DG     H23 3565   2.028   2.991   2.792 -0.9844 -0.3225 -1.4225
  156DG      C1 3566   2.896   4.250   4.355 -0.2547  0.3491  0.5174
  156DG      C2 3567   3.425   4.023   4.579  0.0783  0.3681  0.0095
  156DG      H3 3568   2.903   4.136   4.345 -0.2160  1.7337  2.3740
  156DG      H4 3569   2.975   4.295   4.298  0.5302  2.3112  1.3214
  156DG      H5 3570   2.810   4.297   4.297 -1.3397 -1.6149 -1.7545
  156DG      H6 3571   3.505   4.007   4.508 -2.6674 -1.2517 -1.6553
  156DG      H7 3572   3.474   4.029   4.677  0.4712  0.1815 -0.0043
  156DG      H8 3573   3.379   3.929   4.571 -1.1607  0.9058 -3.2406
  156DG      O9 3574   2.906   4.284   4.495 -0.3938 -0.5031  0.5171
  156DG     O10 3575   3.327   4.118   4.540 -0.0044 -0.8571  0.4896
  156DG     C11 3576   2.939   4.420   4.518 -0.3030 -0.0993 -0.6261
  156DG     C12 3577   3.388   4.252   4.542 -0.2067 -0.7188  0.0202
  156DG     H13 3578   2.933   4.440   4.625  0.2761  2.0873  2.7532
  156DG     H14 3579   2.864   4.477   4.475 -0.0138 -1.4598  0.6706
  156DG     H15 3580   3.491   4.253   4.513  0.3046 -0.8662 -1.2645
  156DG     H16 3581   3.404   4.275   4.642  2.1053  1.2939  0.3180
  156DG     C17 3582   3.089   4.462   4.480  0.2822 -0.1066 -0.0504
  156DG     C18 3583   3.307   4.369   4.480  0.2698  0.0980 -0.0226
  156DG     O19 3584   3.171   4.350   4.520  0.7485 -0.1599 -0.4349
  156DG     H20 3585   3.115   4.555   4.513 -0.1651 -1.0404 -0.1084
  156DG     H21 3586   3.093   4.471   4.370 -1.4460  4.2931 -3.0941
  156DG     H22 3587   3.357   4.462   4.512  2.5529  1.7415  1.5045
  156DG     H23 3588   3.314   4.360   4.373  0.6366 -1.0346  1.4102
  157DG      C1 3589   0.438   4.358   4.924  0.2875  0.0940 -0.6375
  157DG      C2 3590   0.878   3.918   5.490 -1.1295  0.1635 -0.3872
  157DG      H3 3591   0.396   4.397   5.022  1.8642 -2.7895  1.5134
  157DG      H4 3592   0.387   4.266   4.903  1.1333 -0.3592 -1.3335
  157DG      H5 3593   0.417   4.415   4.835  0.4291 -0.1875  0.5787
  157DG      H6 3594   0.967   3.936   5.545 -0.1051 -1.9410  1.1145
  157DG      H7 3595   0.798   3.915   5.562  0.5165  2.5040 -0.0473
  157DG      H8 3596   0.884   3.816   5.442 -1.0820 -2.8619 -2.1168
  157DG      O9 3597   0.577   4.339   4.949 -0.1487 -0.4453 -0.0755
  157DG     O10 3598   0.852   4.024   5.405  0.1785 -0.3808  0.1891
  157DG     C11 3599   0.619   4.243   5.048 -0.3367 -0.1130 -0.6724
  157DG     C12 3600   0.943   4.020   5.301 -0.4030 -1.0090 -0.4129
  157DG     H13 3601   0.592   4.144   5.022 -0.0689  0.7302  1.7878
  157DG     H14 3602   0.574   4.268   5.139  1.2119 -1.2060  0.7947
  157DG     H15 3603   0.937   3.926   5.239  1.0300 -0.1596  0.0860
  157DG     H16 3604   1.049   4.026   5.337  1.5407  0.9909  0.0662
  157DG     C17 3605   0.767   4.237   5.080 -0.4055  0.2815  0.4061
  157DG     C18 3606   0.924   4.140   5.215 -0.3395 -0.2591 -0.0995
  157DG     O19 3607   0.794   4.131   5.168  0.1540  0.1810 -0.0460
  157DG     H20 3608   0.790   4.325   5.131 -1.3259 -2.4341  1.5375
  157DG     H21 3609   0.824   4.232   4.983  0.6186 -3.3233  0.9712
  157DG     H22 3610   0.942   4.226   5.281  2.3964 -0.1693 -0.3829
  157DG     H23 3611   1.002   4.150   5.132 -0.2233  0.2542 -1.8325
  158DG      C1 3612   3.866   5.164   5.370 -0.8775  0.3431  0.5194
  158DG      C2 3613   3.848   5.854   5.437  0.7412  0.3950 -0.0644
  158DG      H3 3614   3.954   5.162   5.441  0.0651  1.0516  0.9821
  158DG      H4 3615   3.847   5.066   5.325  0.7790 -2.7950 -2.2071
  158DG      H5 3616   3.776   5.206   5.411  0.8657  0.9454 -0.1293
  158DG      H6 3617   3.841   5.956   5.396  3.5953 -3.0852  3.2667
  158DG      H7 3618   3.762   5.827   5.493  1.5833  0.4426  0.4100
  158DG      H8 3619   3.922   5.850   5.507 -1.7553  1.0741 -1.9428
  158DG      O9 3620   3.911   5.252   5.264 -0.1962  0.4213 -0.4580
  158DG     O10 3621   3.869   5.755   5.338 -0.8140 -0.6057  0.2958
  158DG     C11 3622   3.814   5.270   5.167 -0.0154 -0.4736  0.6750
  158DG     C12 3623   3.751   5.742   5.256 -0.2371  0.5178 -0.5693
  158DG     H13 3624   3.716   5.260   5.208 -1.7029  1.9545 -1.1100
  158DG     H14 3625   3.837   5.201   5.089 -3.2920  2.2028 -0.9432
  158DG     H15 3626   3.727   5.840   5.208  1.9443  2.6674 -3.3668
  158DG     H16 3627   3.662   5.715   5.312  1.4626  0.8072  0.3449
  158DG     C17 3628   3.826   5.413   5.115  0.4182  0.4517 -0.3919
  158DG     C18 3629   3.777   5.642   5.147  0.4088  0.3016 -0.3682
  158DG     O19 3630   3.798   5.514   5.213 -0.2261  0.6043 -0.4332
  158DG     H20 3631   3.780   5.415   5.012  1.0141 -2.1561 -1.1158
  158DG     H21 3632   3.923   5.422   5.087 -1.2240 -0.3425  0.3782
  158DG     H22 3633   3.705   5.639   5.063 -2.9475 -0.0424 -0.3214
  158DG     H23 3634   3.865   5.669   5.094  1.8061 -1.4765  1.2858
  159DG      C1 3635   4.593   5.208   4.688  0.3791 -0.4730  0.2032
  159DG      C2 3636   4.106   4.896   5.248  0.1689 -0.0661  0.1175
  159DG      H3 3637   4.569   5.319   4.671  0.1071  2.0411 -0.5051
  159DG      H4 3638   4.632   5.168   4.594  0.2076 -0.2876 -0.5911
  159DG      H5 3639   4.672   5.200   4.760 -0.7539 -4.7601  0.9387
  159DG      H6 3640   4.125   4.995   5.274 -2.0585  2.1578 -0.3767
  159DG      H7 3641   3.995   4.879   5.248 -0.6852 -0.2993 -0.0469
  159DG      H8 3642   4.137   4.828   5.319 -1.0334 -0.3963 -1.9772
  159DG      O9 3643   4.483   5.125   4.724 -0.6573 -0.2634 -0.2113
  159DG     O10 3644   4.154   4.874   5.113 -0.2165 -0.0207 -0.2200
  159DG     C11 3645   4.436   5.170   4.852  0.5374 -0.1682  0.0373
  159DG     C12 3646   4.078   4.932   5.010  0.0234 -0.6199  0.1994
  159DG     H13 3647   4.430   5.278   4.855  1.9295 -1.4614  1.6665
  159DG     H14 3648   4.512   5.128   4.916  0.7713  0.4704 -0.2246
  159DG     H15 3649   4.065   5.043   5.025  0.7943  0.8540 -2.4157
  159DG     H16 3650   3.983   4.886   4.997  4.4079 -0.6005 -1.1408
  159DG     C17 3651   4.296   5.124   4.887 -0.4041  0.4812  0.6212
  159DG     C18 3652   4.159   4.929   4.879  0.0226 -0.2060  0.0935
  159DG     O19 3653   4.286   4.988   4.890 -0.3803  0.2662 -0.0386
  159DG     H20 3654   4.229   5.163   4.806 -2.3925 -2.5119 -0.0151
  159DG     H21 3655   4.267   5.176   4.976 -0.2375 -3.2185  1.2736
  159DG     H22 3656   4.184   4.825   4.852  0.8439  0.3601 -0.1155
  159DG     H23 3657   4.097   4.971   4.794 -3.1528 -1.5955  0.0484
  160DG      C1 3658   3.779   2.073   0.759  0.5538 -0.6014 -0.6639
  160DG      C2 3659   3.612   1.453   0.899  0.1298  0.0229 -0.1343
  160DG      H3 3660   3.745   2.172   0.723 -1.6657 -1.6357 -0.0394
  160DG      H4 3661   3.843   2.022   0.687 -2.1889 -0.8087 -1.0285
  160DG      H5 3662   3.843   2.086   0.847  1.0829  1.3616  1.6192
  160DG      H6 3663   3.565   1.353   0.882  4.4552 -2.6133 -0.4421
  160DG      H7 3664   3.708   1.450   0.845  1.6637 -1.3701  5.2201
  160DG      H8 3665   3.649   1.475   1.000  2.3160  1.2477 -0.7039
  160DG      O9 3666   3.664   1.987   0.789  0.0206 -0.0275  0.1851
  160DG     O10 3667   3.532   1.567   0.858 -0.5868 -0.3258  0.7175
  160DG     C11 3668   3.597   2.044   0.906 -0.1494  0.0897  0.8054
  160DG     C12 3669   3.440   1.612   0.954  0.0511  0.1283  0.0370
  160DG     H13 3670   3.579   2.149   0.886  0.1197  0.4646 -0.1687
  160DG     H14 3671   3.674   2.028   0.987  1.7468 -0.7099  2.5461
  160DG     H15 3672   3.480   1.614   1.051 -0.3870  0.3958  1.6782
  160DG     H16 3673   3.357   1.536   0.954 -1.3051 -0.1976  1.9889
  160DG     C17 3674   3.467   1.973   0.932 -0.2392  0.2863 -0.0832
  160DG     C18 3675   3.389   1.749   0.909 -0.1844 -0.2346 -0.3772
  160DG     O19 3676   3.494   1.836   0.935  0.4228  0.2798 -0.5115
  160DG     H20 3677   3.393   1.999   0.846  2.3434 -1.3025 -0.0433
  160DG     H21 3678   3.419   2.007   1.024 -1.9302  0.8534  0.0683
  160DG     H22 3679   3.363   1.748   0.804  1.5620 -0.3697 -1.4454
  160DG     H23 3680   3.305   1.796   0.961  1.7238  2.2478 -3.7784
  161DG      C1 3681   1.312   0.038   2.551  0.1604  0.0801 -0.7106
  161DG      C2 3682   1.930   0.188   2.729  0.4693  0.0524 -0.5419
  161DG      H3 3683   1.256   0.112   2.495  0.4830 -0.4260  1.8773
  161DG      H4 3684   1.239  -0.020   2.617 -0.7103 -4.5155 -0.5402
  161DG      H5 3685   1.362  -0.028   2.478 -0.0214 -2.1206 -2.1476
  161DG      H6 3686   1.926   0.240   2.629  3.2055 -0.5409 -0.4536
  161DG      H7 3687   1.986   0.234   2.805  0.6736 -1.1147  0.5943
  161DG      H8 3688   1.984   0.098   2.710 -1.4573  0.5123  2.5450
  161DG      O9 3689   1.396   0.095   2.653  0.3926  0.6344 -0.2413
  161DG     O10 3690   1.801   0.186   2.777  0.4462  0.0721  0.3871
  161DG     C11 3691   1.322   0.207   2.705 -0.3872  0.5027  0.0880
  161DG     C12 3692   1.766   0.307   2.838 -0.0462 -0.1088 -0.4670
  161DG     H13 3693   1.214   0.183   2.719  0.0382 -0.0680  4.0289
  161DG     H14 3694   1.311   0.298   2.635  0.7311  1.2807  0.4485
  161DG     H15 3695   1.769   0.389   2.765 -0.5913 -0.1168 -0.1923
  161DG     H16 3696   1.835   0.335   2.912  1.1599 -3.3311  2.1637
  161DG     C17 3697   1.393   0.247   2.827  0.4503  0.3703 -0.4975
  161DG     C18 3698   1.622   0.315   2.888 -0.0234  0.3727 -0.1276
  161DG     O19 3699   1.531   0.260   2.795 -0.4458  0.3231  0.2250
  161DG     H20 3700   1.378   0.190   2.916 -1.8834  1.9967 -1.4520
  161DG     H21 3701   1.349   0.349   2.844  2.0471  2.8753  0.5573
  161DG     H22 3702   1.611   0.251   2.976  0.2125 -1.8109  0.7572
  161DG     H23 3703   1.592   0.413   2.917 -1.9154 -0.3958  0.1008
  162DG      C1 3704   0.380   5.103   4.348 -0.6170  0.0619 -0.2101
  162DG      C2 3705   0.567   5.752   4.352  0.6376  0.3110 -0.3883
  162DG      H3 3706   0.377   5.146   4.251  0.8767 -0.5628  1.8456
  162DG      H4 3707   0.280   5.086   4.391 -0.8877 -0.6605 -1.2759
  162DG      H5 3708   0.431   5.009   4.338 -0.7855  1.3807 -0.8578
  162DG      H6 3709   0.554   5.760   4.249  1.2887 -1.6518 -0.6174
  162DG      H7 3710   0.474   5.800   4.389 -1.4489 -0.7091 -0.6524
  162DG      H8 3711   0.659   5.809   4.365 -0.3347 -2.2511  0.2833
  162DG      O9 3712   0.459   5.197   4.430  0.2995  0.7824 -0.1813
  162DG     O10 3713   0.585   5.615   4.395 -0.0549 -0.4324 -0.4095
  162DG     C11 3714   0.454   5.179   4.566 -0.3114  0.3393  0.4405
  162DG     C12 3715   0.606   5.617   4.534  0.2120  0.5517  0.7540
  162DG     H13 3716   0.468   5.073   4.602 -5.0088  1.2000  2.9893
  162DG     H14 3717   0.354   5.200   4.591  2.2254 -1.6527  1.5779
  162DG     H15 3718   0.514   5.654   4.578 -1.5728 -1.2063 -0.5681
  162DG     H16 3719   0.689   5.685   4.549  1.2154 -0.7991  0.6517
  162DG     C17 3720   0.551   5.273   4.647  0.4853  0.4820 -0.8748
  162DG     C18 3721   0.645   5.483   4.610  0.3047  0.1142  0.1017
  162DG     O19 3722   0.534   5.397   4.589  0.8348  0.5107  0.0013
  162DG     H20 3723   0.647   5.225   4.641 -0.8623  0.6749 -2.0324
  162DG     H21 3724   0.533   5.284   4.757 -2.8351  0.7082  3.7486
  162DG     H22 3725   0.729   5.434   4.573  2.2425  0.1526  1.6346
  162DG     H23 3726   0.664   5.504   4.716 -2.8484  2.4777  0.4624
  163DG      C1 3727   5.464   2.156   0.215  0.1760 -0.4999  0.3191
  163DG      C2 3728   5.448   1.877   0.956  0.2875 -0.9079 -0.7768
  163DG      H3 3729   5.545   2.081   0.235 -1.2448 -0.2745  1.6827
  163DG      H4 3730   5.523   2.242   0.181  0.0123  0.9334  0.4371
  163DG      H5 3731   5.410   2.119   0.129  0.0139  1.0067  3.1439
  163DG      H6 3732   5.362   1.849   1.019  0.3215 -1.2289 -0.7588
  163DG      H7 3733   5.509   1.790   0.944 -2.2606  0.3206  2.6185
  163DG      H8 3734   5.518   1.954   0.987  0.1173 -0.6249  1.4127
  163DG      O9 3735   5.387   2.180   0.331  0.5938 -0.1178 -0.0412
  163DG     O10 3736   5.388   1.907   0.833  0.7326 -0.2321  0.6669
  163DG     C11 3737   5.468   2.190   0.448  0.7581 -0.0020 -0.3242
  163DG     C12 3738   5.311   2.030   0.832  0.6816 -0.6496 -0.0663
  163DG     H13 3739   5.529   2.276   0.439  0.3122  0.3959  0.5381
  163DG     H14 3740   5.534   2.103   0.457  0.5813 -1.2427 -0.8783
  163DG     H15 3741   5.377   2.114   0.847 -0.0617 -1.2683 -1.1104
  163DG     H16 3742   5.239   2.031   0.921  1.0741 -0.8240 -2.0660
  163DG     C17 3743   5.389   2.169   0.579 -0.5083 -0.2310  0.1995
  163DG     C18 3744   5.240   2.036   0.689 -0.7646 -0.7229  0.4410
  163DG     O19 3745   5.330   2.046   0.583 -0.4815  0.1086  1.1497
  163DG     H20 3746   5.324   2.255   0.606 -4.3451  0.4032 -0.1374
  163DG     H21 3747   5.468   2.168   0.648  0.9182  1.4952 -2.2054
  163DG     H22 3748   5.176   1.945   0.673 -1.5819 -0.2365 -0.0147
  163DG     H23 3749   5.161   2.117   0.681 -1.9880 -1.1549 -2.1011
  164DG      C1 3750   5.255   1.619   4.878  0.2014 -0.2843 -0.4108
  164DG      C2 3751   4.549   1.551   4.817 -0.6962 -0.0382 -0.4481
  164DG      H3 3752   5.225   1.525   4.925 -0.2152  1.5883 -0.9561
  164DG      H4 3753   5.256   1.690   4.962  2.7786  0.8046 -0.3526
  164DG      H5 3754   5.352   1.612   4.838 -0.5792 -1.0812  1.9486
  164DG      H6 3755   4.537   1.632   4.895  0.7945  3.4675  1.8537
  164DG      H7 3756   4.453   1.555   4.758 -0.3320  0.9339 -2.2996
  164DG      H8 3757   4.549   1.455   4.881 -1.7007 -1.2078  0.3592
  164DG      O9 3758   5.159   1.670   4.783 -0.4843  0.6280 -0.1279
  164DG     O10 3759   4.668   1.560   4.733  0.4928 -0.6440  0.2436
  164DG     C11 3760   5.129   1.582   4.677 -0.5057  0.5244  0.1912
  164DG     C12 3761   4.676   1.680   4.649 -0.9681 -1.0334 -0.3801
  164DG     H13 3762   5.069   1.490   4.705 -1.2505 -0.1751  0.9060
  164DG     H14 3763   5.219   1.552   4.629  1.4961 -0.1792 -1.5424
  164DG     H15 3764   4.678   1.771   4.714  1.7971 -0.5261  0.3005
  164DG     H16 3765   4.592   1.702   4.576 -0.8509  1.3425  1.2435
  164DG     C17 3766   5.035   1.650   4.581 -0.1453 -0.3733 -0.0213
  164DG     C18 3767   4.804   1.673   4.570 -0.5344  0.0196 -0.4759
  164DG     O19 3768   4.913   1.646   4.655  0.1970 -0.4994 -0.0446
  164DG     H20 3769   5.028   1.603   4.485  0.4033  4.0997  1.0269
  164DG     H21 3770   5.071   1.753   4.562 -3.5972 -0.5084  0.1126
  164DG     H22 3771   4.795   1.588   4.502 -1.0531  2.3496 -0.3874
  164DG     H23 3772   4.819   1.761   4.515 -2.8979 -0.1485  0.0914
  165DG      C1 3773   4.898   0.328   1.282  0.3209 -0.4092  0.3179
  165DG      C2 3774   5.239   0.710   1.817  0.1232  0.8569 -0.2430
  165DG      H3 3775   4.987   0.338   1.217  0.4741 -3.7232 -2.4024
  165DG      H4 3776   4.837   0.412   1.241  0.6907  0.1875 -3.2974
  165DG      H5 3777   4.848   0.224   1.272 -1.6941  1.0029  0.4457
  165DG      H6 3778   5.338   0.693   1.771  1.2792  1.3327 -1.1437
  165DG      H7 3779   5.209   0.812   1.804 -2.1821  0.7770  1.0550
  165DG      H8 3780   5.262   0.706   1.926 -1.5242  0.5276 -1.5369
  165DG      O9 3781   4.933   0.348   1.415  0.1514 -0.4554  0.0063
  165DG     O10 3782   5.141   0.620   1.778 -0.3029  0.0146 -0.0179
  165DG     C11 3783   4.821   0.400   1.494  0.1464  0.4368 -0.5862
  165DG     C12 3784   5.030   0.615   1.860  0.7352  0.0511 -0.2952
  165DG     H13 3785   4.730   0.340   1.465 -1.6734  0.8840 -2.9704
  165DG     H14 3786   4.788   0.505   1.478 -1.3188  0.8220  1.5641
  165DG     H15 3787   4.975   0.705   1.827 -1.4239 -1.2718  0.5095
  165DG     H16 3788   5.042   0.623   1.968  2.1912 -3.4249 -1.6791
  165DG     C17 3789   4.853   0.372   1.640 -0.9175 -0.1532 -0.6683
  165DG     C18 3790   4.939   0.500   1.824 -0.1806  0.5931 -0.7416
  165DG     O19 3791   4.953   0.467   1.683 -0.2832 -1.0646  0.3558
  165DG     H20 3792   4.892   0.275   1.640 -1.9870 -0.2095 -0.4287
  165DG     H21 3793   4.757   0.368   1.698  0.0542  0.1340 -0.3817
  165DG     H22 3794   4.962   0.409   1.879 -2.0621  1.3074 -0.0168
  165DG     H23 3795   4.835   0.517   1.858  3.4395  0.2748  2.3709
  166DG      C1 3796   2.064   3.840   0.584  0.0849 -0.4021  0.4778
  166DG      C2 3797   1.713   4.335   0.936 -0.0923  0.4646 -1.0425
  166DG      H3 3798   2.008   3.777   0.514  0.4988  1.1817  0.6189
  166DG      H4 3799   2.142   3.783   0.634 -0.4516 -0.6861 -1.8895
  166DG      H5 3800   2.120   3.907   0.524  2.3151 -2.7906 -0.2217
  166DG      H6 3801   1.801   4.376   0.984  0.2825 -1.2398  0.2208
  166DG      H7 3802   1.667   4.390   0.864  0.5422 -1.1820 -0.8091
  166DG      H8 3803   1.640   4.333   1.019  1.1745  1.0255 -0.8575
  166DG      O9 3804   1.963   3.892   0.675  0.3184 -0.5623 -0.3560
  166DG     O10 3805   1.744   4.204   0.891  0.0841  0.3781  0.5997
  166DG     C11 3806   1.887   3.777   0.717  0.3168  0.1689 -0.7013
  166DG     C12 3807   1.632   4.128   0.841 -0.5484 -0.2727  0.0557
  166DG     H13 3808   1.953   3.687   0.734  0.2480 -2.1085 -0.2300
  166DG     H14 3809   1.814   3.752   0.639 -0.0498  0.8690 -0.9424
  166DG     H15 3810   1.587   4.183   0.756  1.0610  0.0454  1.7204
  166DG     H16 3811   1.557   4.122   0.909  0.3884 -2.1315 -2.4625
  166DG     C17 3812   1.798   3.797   0.844  0.3887  0.6020  0.4701
  166DG     C18 3813   1.678   3.988   0.784  0.2099 -0.6816  0.0763
  166DG     O19 3814   1.786   3.938   0.862 -0.3391 -0.9163 -0.0826
  166DG     H20 3815   1.849   3.743   0.928 -1.9878 -4.2820 -2.5577
  166DG     H21 3816   1.700   3.743   0.839 -3.5527 -0.8446 -0.1132
  166DG     H22 3817   1.601   3.921   0.778  0.4906 -1.7848 -0.1083
  166DG     H23 3818   1.704   4.007   0.687 -0.6403 -0.2810  2.3622
  167DG      C1 3819   2.833   1.480   2.030 -0.3114  0.2884 -0.0401
  167DG      C2 3820   2.702   2.242   2.154  0.0173 -0.1300  0.0587
  167DG      H3 3821   2.867   1.499   2.128  0.0492  0.9001 -0.0778
  167DG      H4 3822   2.895   1.403   1.988  2.4557  1.0345 -0.1797
  167DG      H5 3823   2.737   1.435   2.046  0.8964 -0.9561  1.4743
  167DG      H6 3824   2.766   2.308   2.093  1.1785  0.2267 -1.1143
  167DG      H7 3825   2.609   2.252   2.106  1.4857 -2.4882 -1.2251
  167DG      H8 3826   2.703   2.283   2.259 -0.9724  0.3437 -1.5773
  167DG      O9 3827   2.806   1.596   1.950 -0.0183  0.4691 -0.2881
  167DG     O10 3828   2.771   2.117   2.137 -0.1292 -0.0890  0.0262
  167DG     C11 3829   2.906   1.688   1.920  0.3372  0.1872  0.1804
  167DG     C12 3830   2.741   2.006   2.218 -0.3807 -0.5704 -0.2422
  167DG     H13 3831   2.873   1.772   1.854 -2.3354  0.3848 -3.6404
  167DG     H14 3832   2.978   1.632   1.870 -0.0944 -0.4930 -2.0704
  167DG     H15 3833   2.655   1.960   2.176  1.3309 -0.8619 -0.5458
  167DG     H16 3834   2.718   2.034   2.324  0.6779 -0.2665  1.6150
  167DG     C17 3835   2.965   1.757   2.047 -0.1942 -0.4008  0.3291
  167DG     C18 3836   2.863   1.912   2.207  0.3263 -0.1565 -0.0335
  167DG     O19 3837   2.885   1.875   2.067  0.0276 -0.8902 -0.8749
  167DG     H20 3838   3.066   1.787   2.022 -2.2673  0.7016  1.3929
  167DG     H21 3839   2.975   1.696   2.130 -3.2339 -0.5835 -0.6973
  167DG     H22 3840   2.946   1.965   2.243 -1.0868  3.0647  2.8113
  167DG     H23 3841   2.845   1.827   2.269  1.7482  2.1863 -1.0243
  168DG      C1 3842   1.671   3.290   0.232  0.4951 -0.2173 -0.3374
  168DG      C2 3843   1.919   3.238  -0.600  0.0200  0.0840 -0.0519
  168DG      H3 3844   1.703   3.247   0.323  1.0332 -0.3328  0.9784
  168DG      H4 3845   1.560   3.304   0.236 -0.0726  0.8419 -2.2885
  168DG      H5 3846   1.705   3.393   0.230  0.4441 -0.1309  1.1512
  168DG      H6 3847   1.897   3.162  -0.674  1.6006 -1.7226  1.1981
  168DG      H7 3848   1.913   3.328  -0.662 -4.5102  1.7540 -2.3081
  168DG      H8 3849   2.012   3.230  -0.555 -0.6489  3.1881 -1.0438
  168DG      O9 3850   1.717   3.220   0.115 -0.4078 -0.7841  0.1799
  168DG     O10 3851   1.816   3.217  -0.506  0.0533  0.4298  0.6204
  168DG     C11 3852   1.702   3.271  -0.013  0.2551 -0.2331  0.6764
  168DG     C12 3853   1.825   3.085  -0.454 -0.6172 -0.3836 -0.5051
  168DG     H13 3854   1.783   3.342  -0.026 -0.5927  1.2388 -1.4552
  168DG     H14 3855   1.621   3.336  -0.022  1.6883  0.3242  1.3048
  168DG     H15 3856   1.927   3.075  -0.401  1.4046 -2.0749 -1.9640
  168DG     H16 3857   1.813   3.012  -0.525  2.0431  0.9594  2.0532
  168DG     C17 3858   1.704   3.146  -0.107 -0.9583  0.2306 -0.2099
  168DG     C18 3859   1.717   3.072  -0.342  0.5868  0.9406 -0.1934
  168DG     O19 3860   1.726   3.178  -0.247  0.8804 -0.0946 -0.1526
  168DG     H20 3861   1.607   3.091  -0.097 -0.6068 -2.0877  0.0079
  168DG     H21 3862   1.783   3.079  -0.073 -2.5229  2.9415 -0.8081
  168DG     H22 3863   1.624   3.080  -0.384 -0.7025  1.0153  0.0875
  168DG     H23 3864   1.729   2.979  -0.292 -0.5762  1.4889 -0.8111
  169DG      C1 3865   1.719   1.892   0.934 -0.1272 -0.3800 -0.3167
  169DG      C2 3866   2.320   1.625   0.831  0.2849 -0.6779 -0.6603
  169DG      H3 3867   1.750   1.823   1.009  1.5138 -0.3435  0.3946
  169DG      H4 3868   1.644   1.837   0.877 -1.1102 -0.4021 -0.3528
  169DG      H5 3869   1.671   1.981   0.973  0.6731 -1.6982 -0.1696
  169DG      H6 3870   2.333   1.609   0.939  0.6502 -1.3602  0.1130
  169DG      H7 3871   2.258   1.543   0.800  0.0748 -1.4947  0.5985
  169DG      H8 3872   2.414   1.618   0.771  2.4351 -0.9077  0.3408
  169DG      O9 3873   1.828   1.928   0.855  0.0666  0.3879  0.7071
  169DG     O10 3874   2.247   1.735   0.783  0.1471  0.5569  0.1513
  169DG     C11 3875   1.906   2.034   0.907  0.3640  0.3999 -0.3772
  169DG     C12 3876   2.316   1.858   0.804  0.7374  0.8425 -1.2027
  169DG     H13 3877   1.950   2.011   1.011  0.7718  2.0502 -0.6281
  169DG     H14 3878   1.840   2.120   0.922  1.2232 -0.8147 -0.1292
  169DG     H15 3879   2.406   1.846   0.744  1.0103 -1.2921 -2.8611
  169DG     H16 3880   2.336   1.869   0.906  0.5876  0.1832 -2.4065
  169DG     C17 3881   2.019   2.068   0.801  0.7707 -0.8010 -0.2631
  169DG     C18 3882   2.231   1.966   0.752 -0.1287 -0.7529  0.0624
  169DG     O19 3883   2.102   1.951   0.812 -0.6307  0.0596  0.4499
  169DG     H20 3884   2.079   2.154   0.831  1.8141 -1.1439  2.3178
  169DG     H21 3885   1.990   2.074   0.689  1.9039 -0.1239 -1.0219
  169DG     H22 3886   2.273   2.062   0.783  1.2901 -3.0677  0.2800
  169DG     H23 3887   2.236   1.972   0.647 -1.0668  0.1018  2.1763
  170DG      C1 3888   3.684   0.016   0.064 -0.1823  0.3434  0.1126
  170DG      C2 3889   4.246  -0.162  -0.249  0.2420 -0.2013  0.3348
  170DG      H3 3890   3.620  -0.031   0.129  2.1256  0.5812  1.3988
  170DG      H4 3891   3.636   0.021  -0.036 -0.2634  3.1710  0.1022
  170DG      H5 3892   3.699   0.118   0.112 -0.3593  1.3014 -0.4766
  170DG      H6 3893   4.175  -0.138  -0.332  2.6085  1.4692  0.5338
  170DG      H7 3894   4.333  -0.097  -0.270 -0.9894 -2.0089  1.3280
  170DG      H8 3895   4.274  -0.268  -0.262  1.0240 -0.2752  0.0383
  170DG      O9 3896   3.805  -0.064   0.066 -0.1141 -0.4310 -0.3088
  170DG     O10 3897   4.169  -0.146  -0.137 -0.5640  0.5460 -1.3485
  170DG     C11 3898   3.842  -0.080   0.205  0.1782 -0.5781  0.2930
  170DG     C12 3899   4.257  -0.137  -0.021  0.3859  0.0699  0.2295
  170DG     H13 3900   3.764  -0.117   0.266  0.1803  1.0039 -0.7545
  170DG     H14 3901   3.867   0.021   0.245 -2.4375  3.0672 -0.1866
  170DG     H15 3902   4.303  -0.039   0.001  1.1122 -3.0949  1.3430
  170DG     H16 3903   4.346  -0.200  -0.028  0.9514  0.2982 -0.8815
  170DG     C17 3904   3.966  -0.172   0.218 -0.5101 -0.4978  0.6919
  170DG     C18 3905   4.173  -0.186   0.097 -0.6582 -0.1414  0.4178
  170DG     O19 3906   4.054  -0.112   0.117 -0.5866 -0.3682  0.7586
  170DG     H20 3907   3.945  -0.273   0.188  3.0767 -1.0889 -0.4308
  170DG     H21 3908   4.003  -0.176   0.322 -0.9372  1.7479  0.0914
  170DG     H22 3909   4.138  -0.290   0.082 -1.5072 -1.7108  0.3944
  170DG     H23 3910   4.228  -0.176   0.192 -1.0309  1.3073 -3.5195
  171DG      C1 3911   1.726   1.638   5.242  0.0275  0.2673 -0.0530
  171DG      C2 3912   1.278   1.915   5.555  1.0773 -0.8837 -0.5321
  171DG      H3 3913   1.832   1.621   5.289 -1.2752 -0.0252  0.9133
  171DG      H4 3914   1.755   1.650   5.132  0.4054  0.6625 -1.3638
  171DG      H5 3915   1.662   1.549   5.245  0.7725  2.9558  0.1276
  171DG      H6 3916   1.210   1.986   5.607  0.7700  2.4391 -0.0090
  171DG      H7 3917   1.224   1.834   5.510 -2.1634  0.5876  0.1341
  171DG      H8 3918   1.346   1.873   5.630  2.2782 -0.2780 -0.2667
  171DG      O9 3919   1.680   1.756   5.305 -0.0851  0.0889  0.4686
  171DG     O10 3920   1.348   1.965   5.442  0.4299  0.2827 -0.0704
  171DG     C11 3921   1.727   1.877   5.241  0.3894 -0.0067 -0.3641
  171DG     C12 3922   1.420   2.078   5.470 -0.3196 -0.5367 -0.0020
  171DG     H13 3923   1.713   1.870   5.137  0.6567 -0.9829  3.0167
  171DG     H14 3924   1.835   1.878   5.247  1.5647 -1.3529 -0.8962
  171DG     H15 3925   1.494   2.066   5.543  0.5430  0.0233  2.8901
  171DG     H16 3926   1.371   2.165   5.509  1.2506  0.5898  0.0019
  171DG     C17 3927   1.682   2.006   5.311 -0.2868  0.3191 -0.5161
  171DG     C18 3928   1.479   2.117   5.338 -0.2761 -0.2524 -0.6116
  171DG     O19 3929   1.549   2.009   5.279  0.5614  0.1484 -0.1270
  171DG     H20 3930   1.731   2.094   5.275 -0.3485 -0.6608  0.6973
  171DG     H21 3931   1.710   1.997   5.419  3.3908 -1.3913  0.8661
  171DG     H22 3932   1.412   2.160   5.262 -0.6343 -1.6439  0.5153
  171DG     H23 3933   1.542   2.205   5.360 -0.2548  1.5552  0.8009
  172DG      C1 3934   5.389   0.350   1.774  0.2824 -0.0210 -0.2019
  172DG      C2 3935   4.985   0.786   1.507  0.6841 -0.1923 -0.0671
  172DG      H3 3936   5.306   0.279   1.785  0.4989  1.3164  1.0502
  172DG      H4 3937   5.394   0.406   1.869 -0.9025 -0.7682  0.2612
  172DG      H5 3938   5.481   0.291   1.775 -0.4445  2.4808  0.9682
  172DG      H6 3939   5.008   0.851   1.597 -0.6931 -0.2480  3.1851
  172DG      H7 3940   4.922   0.840   1.435 -0.3731  1.2108  0.5560
  172DG      H8 3941   4.925   0.701   1.538 -0.9847 -1.1593 -1.7511
  172DG      O9 3942   5.364   0.425   1.653 -0.1641  0.8028  0.7244
  172DG     O10 3943   5.100   0.719   1.462 -0.2633 -0.2445  0.1463
  172DG     C11 3944   5.485   0.482   1.618  0.2239 -0.1473  0.1604
  172DG     C12 3945   5.203   0.804   1.409 -0.2680  0.2907 -0.2207
  172DG     H13 3946   5.561   0.399   1.601  1.4215  0.1715 -0.7442
  172DG     H14 3947   5.516   0.550   1.697  1.9197  1.8338 -1.4115
  172DG     H15 3948   5.229   0.892   1.475 -0.2703  0.6160 -0.9281
  172DG     H16 3949   5.166   0.841   1.309 -1.2798  0.9042 -3.8732
  172DG     C17 3950   5.483   0.569   1.487 -0.0620 -0.4180 -0.3736
  172DG     C18 3951   5.333   0.723   1.388 -0.0293 -0.3458  0.5510
  172DG     O19 3952   5.371   0.656   1.505 -0.0048 -0.4204 -0.4705
  172DG     H20 3953   5.479   0.504   1.397  4.5661  0.1983 -2.4758
  172DG     H21 3954   5.577   0.613   1.499  0.9463  0.9603  1.1556
  172DG     H22 3955   5.316   0.654   1.304 -0.9579  0.9705  0.9620
  172DG     H23 3956   5.407   0.803   1.362 -0.3451  3.4497 -1.1270
  173DG      C1 3957   1.750   2.611   1.227  0.2216  0.6436  0.8272
  173DG      C2 3958   1.860   2.475   0.635 -0.6111  0.5490  0.2339
  173DG      H3 3959   1.813   2.528   1.227  1.1338  1.0546 -0.2217
  173DG      H4 3960   1.694   2.603   1.326  0.0554  0.2586  0.5607
  173DG      H5 3961   1.810   2.695   1.226 -1.1529 -2.0893 -0.3195
  173DG      H6 3962   1.843   2.501   0.529  0.9169  1.1064  1.1009
  173DG      H7 3963   1.937   2.545   0.655 -1.8199  0.4751 -0.6654
  173DG      H8 3964   1.907   2.370   0.639  1.6213 -0.3280  1.7883
  173DG      O9 3965   1.660   2.597   1.115 -0.5000  0.0892 -0.4046
  173DG     O10 3966   1.755   2.486   0.728  0.1027  0.4454  0.5335
  173DG     C11 3967   1.563   2.487   1.129  0.7973 -0.0625  0.4258
  173DG     C12 3968   1.637   2.429   0.667  0.7507 -0.6359 -0.5473
  173DG     H13 3969   1.502   2.519   1.212  1.2680 -0.0407 -0.9339
  173DG     H14 3970   1.606   2.388   1.164  1.9240 -0.4396  1.0428
  173DG     H15 3971   1.659   2.325   0.653 -1.2479 -0.2518 -0.7493
  173DG     H16 3972   1.611   2.475   0.570 -1.2019 -0.9990 -2.8615
  173DG     C17 3973   1.476   2.463   1.010 -0.9477 -0.7841  0.2689
  173DG     C18 3974   1.522   2.434   0.768  0.0039 -0.0303  0.3538
  173DG     O19 3975   1.562   2.418   0.902  0.1576 -0.0222 -0.0777
  173DG     H20 3976   1.449   2.563   0.977  0.7745 -0.2672 -0.3215
  173DG     H21 3977   1.387   2.397   1.024 -0.7543  1.3102  1.2943
  173DG     H22 3978   1.474   2.531   0.760 -2.0757  1.1966  2.0976
  173DG     H23 3979   1.441   2.372   0.738 -0.4424 -0.3418  0.9231
  174DG      C1 3980   1.188   1.005   4.217  0.0279  0.0589  0.1778
  174DG      C2 3981   1.037   0.315   4.169 -0.8062 -0.0922 -0.2753
  174DG      H3 3982   1.163   1.097   4.170 -2.2938 -2.6547  1.7561
  174DG      H4 3983   1.295   0.983   4.195 -1.2725 -1.0247 -1.0396
  174DG      H5 3984   1.176   1.020   4.323  0.1640 -0.2438 -1.0999
  174DG      H6 3985   0.967   0.242   4.134  2.1177 -2.1384  0.6576
  174DG      H7 3986   1.139   0.275   4.172  2.1741 -0.3864 -0.8441
  174DG      H8 3987   1.014   0.326   4.276 -0.3197  1.3675 -0.7388
  174DG      O9 3988   1.105   0.911   4.159 -0.2905  0.5284 -0.7720
  174DG     O10 3989   1.042   0.451   4.110 -0.0653 -0.5890 -0.3743
  174DG     C11 3990   1.131   0.904   4.017  0.6142  0.5684 -0.3744
  174DG     C12 3991   1.011   0.438   3.972 -0.1414 -0.1760 -0.4526
  174DG     H13 3992   1.232   0.862   4.008 -0.3762  0.0039 -0.7273
  174DG     H14 3993   1.130   0.998   3.966 -0.3278 -2.1228  2.6056
  174DG     H15 3994   0.927   0.378   3.951  0.3236 -0.3338 -0.6849
  174DG     H16 3995   1.097   0.395   3.923  2.0883  2.2239  1.7254
  174DG     C17 3996   1.038   0.818   3.938  0.4894 -0.6631 -0.1974
  174DG     C18 3997   0.969   0.582   3.917  0.4874  0.3366  0.2845
  174DG     O19 3998   1.056   0.679   3.973 -0.5297  0.0019  0.2889
  174DG     H20 3999   1.043   0.828   3.833  0.7864  0.3304  3.6259
  174DG     H21 4000   0.936   0.844   3.976  1.2339  0.0760 -0.0717
  174DG     H22 4001   0.982   0.590   3.811  1.2527  0.2634  0.2192
  174DG     H23 4002   0.867   0.613   3.943 -1.2786 -1.0426  1.9242
  175DG      C1 4003   1.726   4.409   2.572  0.4666 -0.3129  0.0612
  175DG      C2 4004   1.181   4.708   2.458  0.5760  0.1687  0.0547
  175DG      H3 4005   1.653   4.334   2.534  1.7571  0.3222  0.2314
  175DG      H4 4006   1.707   4.406   2.683 -1.2952  0.7542 -0.0668
  175DG      H5 4007   1.831   4.377   2.554 -2.1944  1.8477  1.1116
  175DG      H6 4008   1.238   4.746   2.541 -0.4004 -0.8802  2.4040
  175DG      H7 4009   1.114   4.785   2.437  3.3413  0.6805  2.1552
  175DG      H8 4010   1.116   4.631   2.483  1.0276  5.8710 -0.3368
  175DG      O9 4011   1.684   4.523   2.494  0.2142 -0.5799  0.7912
  175DG     O10 4012   1.266   4.670   2.358 -0.2605 -0.1197 -0.3681
  175DG     C11 4013   1.706   4.506   2.353 -0.2669 -0.1904 -0.4841
  175DG     C12 4014   1.342   4.774   2.293 -0.2084 -0.0688  0.2606
  175DG     H13 4015   1.666   4.410   2.321 -1.7135  1.1728 -0.6337
  175DG     H14 4016   1.811   4.494   2.335 -1.7550 -0.7688 -2.0754
  175DG     H15 4017   1.392   4.841   2.372  0.0745  1.7807  1.3351
  175DG     H16 4018   1.272   4.843   2.247  0.8074 -0.8979  1.7819
  175DG     C17 4019   1.656   4.618   2.265  0.1123 -0.4491 -0.1539
  175DG     C18 4020   1.449   4.711   2.193 -0.2501  0.1061  0.0531
  175DG     O19 4021   1.517   4.616   2.275 -0.2722 -0.0889 -0.4537
  175DG     H20 4022   1.683   4.588   2.168 -1.1893 -0.1424 -0.1928
  175DG     H21 4023   1.709   4.713   2.285  0.1263  1.5066  0.1311
  175DG     H22 4024   1.395   4.656   2.117 -0.4295  0.0118  0.1228
  175DG     H23 4025   1.508   4.783   2.142  2.6593 -0.6958  0.9129
  176DG      C1 4026   5.018   4.406   3.974  0.3132  0.4814 -0.3167
  176DG      C2 4027   5.197   5.119   4.189  0.3214  0.1191 -0.4422
  176DG      H3 4028   5.007   4.356   3.875  1.9895  1.0162  1.0690
  176DG      H4 4029   4.938   4.375   4.035  0.0122  1.5377 -0.4258
  176DG      H5 4030   5.111   4.378   4.026 -2.1131 -1.2936 -2.1026
  176DG      H6 4031   5.305   5.099   4.195 -0.3250 -2.0356 -0.3636
  176DG      H7 4032   5.191   5.187   4.109  0.5652 -1.4515 -0.3781
  176DG      H8 4033   5.160   5.160   4.279  2.0286  1.6461  1.0973
  176DG      O9 4034   5.020   4.538   3.947  0.3707  0.4556  0.1398
  176DG     O10 4035   5.128   4.996   4.154  0.1096  0.4530 -0.1241
  176DG     C11 4036   4.897   4.598   3.923  0.1691  0.2009 -0.4970
  176DG     C12 4037   4.991   5.028   4.108 -0.4180  0.0231  0.1221
  176DG     H13 4038   4.818   4.522   3.908 -1.8980  1.7644 -2.2455
  176DG     H14 4039   4.896   4.655   3.832 -0.9059  1.9959  0.5989
  176DG     H15 4040   5.000   5.113   4.042  2.9173  1.4469  1.2034
  176DG     H16 4041   4.925   5.054   4.190 -0.2292  0.0478 -1.7917
  176DG     C17 4042   4.834   4.694   4.030 -0.0326 -0.4988  0.2881
  176DG     C18 4043   4.940   4.916   4.023  0.1909 -0.2138 -0.0502
  176DG     O19 4044   4.914   4.798   4.097  0.2972  0.5323 -0.0559
  176DG     H20 4045   4.803   4.640   4.123 -1.3275 -0.0895  1.2639
  176DG     H21 4046   4.747   4.744   3.990  2.1809 -0.3504 -0.0534
  176DG     H22 4047   4.851   4.956   3.972 -1.5941 -0.8419 -2.0273
  176DG     H23 4048   5.007   4.894   3.942 -1.2296  0.4018  0.8269
  177DG      C1 4049   1.862   0.880   2.433  0.3732  0.0366 -0.2122
  177DG      C2 4050   1.403   0.566   2.211  0.1764 -0.0413  0.3873
  177DG      H3 4051   1.938   0.956   2.442 -2.2414  3.1966  0.5037
  177DG      H4 4052   1.889   0.799   2.497  1.5137 -1.0284  1.3094
  177DG      H5 4053   1.776   0.916   2.471 -1.7654  0.1390 -2.1779
  177DG      H6 4054   1.325   0.575   2.138  2.6729  1.8199 -1.6134
  177DG      H7 4055   1.413   0.461   2.254 -1.0107  0.3608  0.8225
  177DG      H8 4056   1.385   0.623   2.298  0.3760  0.9047  0.3906
  177DG      O9 4057   1.853   0.843   2.297 -0.0776 -0.3162 -0.3900
  177DG     O10 4058   1.523   0.609   2.158 -1.0506  0.2721 -0.4012
  177DG     C11 4059   1.949   0.756   2.255 -0.3021 -0.3339 -0.5299
  177DG     C12 4060   1.594   0.511   2.085 -0.6496 -0.1097 -0.0491
  177DG     H13 4061   1.964   0.660   2.316 -1.3590 -1.3100 -0.2294
  177DG     H14 4062   2.041   0.804   2.245  0.0836 -2.0253  2.6310
  177DG     H15 4063   1.541   0.481   1.992 -0.9721 -1.9424 -2.3408
  177DG     H16 4064   1.610   0.415   2.142  0.5623 -1.5400  1.5098
  177DG     C17 4065   1.903   0.700   2.124 -0.5528  0.3502 -1.1514
  177DG     C18 4066   1.729   0.569   2.049  0.2897  0.4758  0.5592
  177DG     O19 4067   1.774   0.663   2.143 -0.3944 -0.4545  0.0102
  177DG     H20 4068   1.979   0.622   2.098 -0.0492  1.3972  0.9643
  177DG     H21 4069   1.905   0.769   2.045 -1.5323  1.0266 -0.1553
  177DG     H22 4070   1.790   0.480   2.031  1.7674  0.9465 -2.1391
  177DG     H23 4071   1.717   0.619   1.947  1.1175  0.3080 -0.4488
  178DG      C1 4072   0.241   2.869   4.128  0.6973  0.3318  0.6421
  178DG      C2 4073   0.887   2.764   4.290 -0.0473  0.1216 -0.1309
  178DG      H3 4074   0.188   2.796   4.062  2.8772 -0.0415  1.8668
  178DG      H4 4075   0.200   2.964   4.104  2.0726  2.3662 -3.9262
  178DG      H5 4076   0.212   2.852   4.231 -1.7716  0.3068 -0.9934
  178DG      H6 4077   0.839   2.728   4.381 -0.6231 -2.6774 -0.0374
  178DG      H7 4078   0.881   2.675   4.225 -0.7744  1.4358 -0.6281
  178DG      H8 4079   0.992   2.768   4.310 -0.0567  0.4113 -2.9328
  178DG      O9 4080   0.386   2.874   4.108 -0.4882  0.5955  0.1667
  178DG     O10 4081   0.827   2.879   4.239 -0.4967  0.8555  0.2890
  178DG     C11 4082   0.413   2.898   3.971  0.9402  0.5970 -0.0979
  178DG     C12 4083   0.879   2.910   4.117  0.1759 -0.4003  0.5172
  178DG     H13 4084   0.337   2.970   3.936  1.5176  2.4215  1.3025
  178DG     H14 4085   0.413   2.809   3.910  3.6966  0.5924 -2.6109
  178DG     H15 4086   0.908   2.820   4.063 -0.0402 -0.6986  0.3443
  178DG     H16 4087   0.963   2.983   4.118  1.3805  1.5061 -0.2684
  178DG     C17 4088   0.550   2.962   3.940 -0.2368  0.8180 -0.2756
  178DG     C18 4089   0.770   2.971   4.024  0.3590  0.1379 -0.0397
  178DG     O19 4090   0.646   2.899   4.028 -0.1832 -0.2734 -0.3970
  178DG     H20 4091   0.561   3.065   3.950  1.6524  1.3123  0.7654
  178DG     H21 4092   0.572   2.940   3.835 -0.3482  2.3908 -1.4082
  178DG     H22 4093   0.761   3.073   4.071  1.3949  1.0315  1.7657
  178DG     H23 4094   0.803   3.000   3.921 -1.2053  2.1663  0.4431
  179DG      C1 4095   2.134   4.334   4.705  0.0179 -0.0667 -0.1532
  179DG      C2 4096   1.988   5.061   4.489  0.0706 -0.0079  0.2519
  179DG      H3 4097   2.208   4.333   4.622  0.7264  1.7128 -0.9700
  179DG      H4 4098   2.049   4.269   4.676 -0.0659 -0.0631  0.3586
  179DG      H5 4099   2.198   4.295   4.788 -0.0495  0.1447 -2.1057
  179DG      H6 4100   1.970   5.166   4.513  2.0314  0.4586 -0.6474
  179DG      H7 4101   2.073   5.060   4.425  0.2734 -2.6296 -0.8665
  179DG      H8 4102   1.922   5.010   4.425 -1.0487 -1.7417  1.2318
  179DG      O9 4103   2.078   4.459   4.747  0.1546 -0.5839  0.3216
  179DG     O10 4104   2.003   4.966   4.598 -0.2819 -0.1682 -0.2545
  179DG     C11 4105   2.168   4.564   4.773 -0.0179 -0.0364  0.3516
  179DG     C12 4106   1.881   4.907   4.654 -0.3485 -0.8998 -0.0695
  179DG     H13 4107   2.233   4.583   4.691  0.0630 -0.3422  2.4954
  179DG     H14 4108   2.234   4.519   4.845 -1.7643 -0.1759  0.5124
  179DG     H15 4109   1.838   4.837   4.581  0.0744  2.7623  0.7658
  179DG     H16 4110   1.817   4.988   4.670 -1.5300 -1.7788 -2.4984
  179DG     C17 4111   2.094   4.681   4.838  0.5707  0.4266 -0.0029
  179DG     C18 4112   1.923   4.834   4.787  0.5180 -0.1064  0.0400
  179DG     O19 4113   1.993   4.724   4.745 -0.3206  0.2717  0.1685
  179DG     H20 4114   2.168   4.757   4.863  0.9748  2.1599 -0.5698
  179DG     H21 4115   2.058   4.642   4.934  0.1783  3.3642 -0.6238
  179DG     H22 4116   1.989   4.912   4.834 -0.0449  0.9543 -1.2365
  179DG     H23 4117   1.844   4.807   4.856  0.3794 -0.3527 -2.2740
  180DG      C1 4118   3.065   1.777   4.415  0.4788  0.4981 -0.3562
  180DG      C2 4119   2.613   1.282   4.344  0.1768 -0.2648 -0.1790
  180DG      H3 4120   2.998   1.817   4.338  2.2389  1.7390  0.0385
  180DG      H4 4121   3.168   1.800   4.396 -1.4081  0.7550 -2.7195
  180DG      H5 4122   3.025   1.824   4.497 -1.0268 -0.2955  0.5768
  180DG      H6 4123   2.584   1.176   4.352  1.9749 -2.2792 -0.5024
  180DG      H7 4124   2.544   1.336   4.413 -1.8169  0.3040  1.6885
  180DG      H8 4125   2.576   1.316   4.250 -0.7860  0.1485  0.6793
  180DG      O9 4126   3.050   1.639   4.430 -0.0160  0.0940 -0.2900
  180DG     O10 4127   2.753   1.309   4.374 -0.0527  0.3355  0.8119
  180DG     C11 4128   3.120   1.598   4.547  0.4084  0.3125  0.3192
  180DG     C12 4129   2.813   1.219   4.461  0.0316  0.1845 -0.4519
  180DG     H13 4130   3.088   1.647   4.648  0.7143  0.0605  0.0647
  180DG     H14 4131   3.228   1.603   4.533 -2.3002 -0.5822 -0.2829
  180DG     H15 4132   2.814   1.122   4.410  2.1927 -2.5735  0.4756
  180DG     H16 4133   2.770   1.216   4.560  1.5132  0.6507  0.3666
  180DG     C17 4134   3.093   1.443   4.558 -0.1735 -0.0960 -0.0825
  180DG     C18 4135   2.957   1.259   4.478  0.1629 -0.6147  0.3828
  180DG     O19 4136   2.966   1.398   4.512 -0.0218 -0.0670 -0.1015
  180DG     H20 4137   3.112   1.401   4.660 -1.1028 -0.8166 -1.7874
  180DG     H21 4138   3.176   1.388   4.501 -0.6698 -0.3628 -1.5054
  180DG     H22 4139   3.001   1.202   4.554  0.2416 -0.1252 -0.2980
  180DG     H23 4140   3.012   1.252   4.379  4.0242 -5.0434 -1.7183
  181DG      C1 4141   4.667   4.299   3.621 -0.5809  0.3350  0.4632
  181DG      C2 4142   5.007   4.086   3.148 -0.5238  0.2139  0.3861
  181DG      H3 4143   4.611   4.310   3.533  0.6756 -0.5724  0.8994
  181DG      H4 4144   4.722   4.395   3.631 -1.9821  0.3663 -1.4573
  181DG      H5 4145   4.605   4.281   3.708  0.7660 -2.1399 -2.8155
  181DG      H6 4146   5.086   4.032   3.086  3.5748 -0.9724  2.5468
  181DG      H7 4147   4.908   4.069   3.108  1.2204 -1.6416 -0.4576
  181DG      H8 4148   5.011   4.196   3.134  0.6578 -0.4203  0.7434
  181DG      O9 4149   4.757   4.192   3.601 -0.4498  0.5060 -0.2188
  181DG     O10 4150   5.017   4.057   3.285 -0.1754 -0.2932  0.3841
  181DG     C11 4151   4.860   4.174   3.700  0.8869 -0.2570  0.2353
  181DG     C12 4152   5.144   4.081   3.344  0.4330  0.0923 -0.1550
  181DG     H13 4153   4.826   4.135   3.792  1.9669  1.3593 -0.6813
  181DG     H14 4154   4.898   4.273   3.719 -5.3319 -1.8235 -1.5188
  181DG     H15 4155   5.167   4.188   3.320 -0.2202 -1.8058 -1.4602
  181DG     H16 4156   5.228   4.024   3.310 -0.8498  0.3286 -1.0315
  181DG     C17 4157   4.968   4.082   3.648 -0.2923  0.1243  0.1562
  181DG     C18 4158   5.141   4.061   3.495 -0.3085 -0.5662  0.6185
  181DG     O19 4159   5.028   4.143   3.531  0.5333  0.2801 -0.5667
  181DG     H20 4160   4.923   3.986   3.619  1.4956  2.9096 -1.6721
  181DG     H21 4161   5.040   4.086   3.726 -2.6623 -2.8316 -4.8289
  181DG     H22 4162   5.135   3.951   3.521 -0.2237 -4.6455 -2.2558
  181DG     H23 4163   5.233   4.093   3.550 -0.0089 -0.2196  2.9107
  182DG      C1 4164   0.050   3.625   3.288 -0.4046  0.5295 -0.2049
  182DG      C2 4165   0.321   3.499   3.885 -0.9419 -0.2229 -0.1368
  182DG      H3 4166   0.099   3.666   3.205  1.4259 -0.5927  2.0279
  182DG      H4 4167  -0.051   3.660   3.275 -0.7823 -0.0587 -0.6858
  182DG      H5 4168   0.050   3.519   3.275 -1.4803 -1.9161 -0.6068
  182DG      H6 4169   0.285   3.521   3.990 -0.7771  2.2799 -1.4620
  182DG      H7 4170   0.276   3.404   3.854  1.7966  0.1781 -1.6176
  182DG      H8 4171   0.419   3.474   3.899 -0.7355 -1.5139  0.3197
  182DG      O9 4172   0.110   3.666   3.411 -0.3703  0.1742 -0.3468
  182DG     O10 4173   0.294   3.599   3.789 -0.3679  0.1642 -0.2536
  182DG     C11 4174   0.118   3.806   3.434  0.7709 -0.2374  0.5280
  182DG     C12 4175   0.332   3.732   3.828 -0.3228  0.4598  0.2443
  182DG     H13 4176   0.053   3.825   3.514  3.2824  0.0708  0.3683
  182DG     H14 4177   0.091   3.873   3.346  1.7706 -0.7111  3.0622
  182DG     H15 4178   0.437   3.744   3.839  0.6045  0.9912  2.4276
  182DG     H16 4179   0.274   3.748   3.921 -2.3756 -1.7430 -0.8617
  182DG     C17 4180   0.265   3.842   3.481 -0.6465 -0.1027  0.4869
  182DG     C18 4181   0.292   3.827   3.715 -0.4350  0.9428 -0.4391
  182DG     O19 4182   0.312   3.761   3.586 -0.4143  0.4928  0.5370
  182DG     H20 4183   0.271   3.954   3.493  2.4244  0.8401  1.2444
  182DG     H21 4184   0.327   3.825   3.388 -0.1616 -0.6614 -0.7588
  182DG     H22 4185   0.182   3.845   3.737  0.7773  0.5655  1.4914
  182DG     H23 4186   0.344   3.920   3.726 -0.8112  0.7273 -3.3359
  183DG      C1 4187   4.466   0.064   2.760 -0.1985 -0.8253 -0.4426
  183DG      C2 4188   3.877  -0.551   2.575  0.3101  0.7166 -0.9494
  183DG      H3 4189   4.473   0.021   2.864  1.5131  1.1369  1.1114
  183DG      H4 4190   4.500   0.168   2.771  0.1188 -0.7274  4.0405
  183DG      H5 4191   4.547   0.022   2.699 -0.0675  0.8616  0.8409
  183DG      H6 4192   3.944  -0.609   2.504  2.7671 -0.6978 -1.5026
  183DG      H7 4193   3.894  -0.604   2.669 -3.8476 -2.5986 -2.5518
  183DG      H8 4194   3.770  -0.548   2.552 -0.4295 -0.6318  0.0163
  183DG      O9 4195   4.342   0.055   2.712 -0.0350 -0.2811 -0.3506
  183DG     O10 4196   3.937  -0.422   2.591  0.1576 -0.5491  0.2447
  183DG     C11 4197   4.276  -0.069   2.734  0.2952  1.0371  0.8683
  183DG     C12 4198   3.874  -0.340   2.682  0.7794 -0.5039  1.1106
  183DG     H13 4199   4.291  -0.100   2.837  1.5034 -2.3549  0.0608
  183DG     H14 4200   4.325  -0.149   2.667 -2.7486  0.0935 -1.7734
  183DG     H15 4201   3.905  -0.367   2.785  1.8923 -4.0170  0.9688
  183DG     H16 4202   3.762  -0.346   2.667 -0.0837  0.7891  0.8894
  183DG     C17 4203   4.136  -0.067   2.689  0.5909  0.4484  0.6070
  183DG     C18 4204   3.930  -0.195   2.678 -0.2352  0.1370 -0.0997
  183DG     O19 4205   4.071  -0.202   2.695 -0.0769 -0.2860  0.0570
  183DG     H20 4206   4.138  -0.021   2.590 -2.7059  1.1689 -0.6034
  183DG     H21 4207   4.081   0.006   2.749  1.3340  1.4370  1.7177
  183DG     H22 4208   3.888  -0.157   2.583 -2.1730 -1.7753  2.4033
  183DG     H23 4209   3.884  -0.131   2.752  1.1674 -1.0102  2.2722
  184DG      C1 4210   2.171   1.928   1.569  0.2573 -0.8527  0.0594
  184DG      C2 4211   2.607   1.576   1.270  0.5915 -0.2340 -0.0673
  184DG      H3 4212   2.144   1.959   1.673  1.7974  2.0477  0.5910
  184DG      H4 4213   2.074   1.890   1.523  1.7934  1.3410  3.7460
  184DG      H5 4214   2.206   2.016   1.528  1.7239 -1.8155  1.9473
  184DG      H6 4215   2.647   1.634   1.356  0.5817 -2.3307  0.5725
  184DG      H7 4216   2.671   1.596   1.187  0.3229 -0.4761  4.8941
  184DG      H8 4217   2.507   1.618   1.241  3.7936  0.7603 -1.3479
  184DG      O9 4218   2.273   1.826   1.574  0.5142 -0.2453  0.7736
  184DG     O10 4219   2.609   1.437   1.294 -0.4248  0.4727  1.2388
  184DG     C11 4220   2.214   1.695   1.588 -0.1408 -0.4331 -0.2425
  184DG     C12 4221   2.486   1.389   1.340 -0.0806  0.4959  0.0105
  184DG     H13 4222   2.147   1.683   1.504 -3.0027 -1.6385  0.2630
  184DG     H14 4223   2.162   1.678   1.683 -0.7728 -1.4978  1.5993
  184DG     H15 4224   2.508   1.281   1.350 -0.3428  0.0053 -2.2270
  184DG     H16 4225   2.397   1.411   1.276  0.1066 -0.3090  1.9963
  184DG     C17 4226   2.328   1.592   1.595 -0.2429  0.0163  0.0365
  184DG     C18 4227   2.458   1.442   1.472 -0.3299 -0.2607 -0.1537
  184DG     O19 4228   2.381   1.569   1.469 -0.0087  0.3592 -0.2363
  184DG     H20 4229   2.291   1.498   1.629 -1.3483 -1.3728 -0.5487
  184DG     H21 4230   2.389   1.631   1.670  2.1036  0.2730 -0.0353
  184DG     H22 4231   2.410   1.363   1.528 -0.3126  0.2254 -2.4663
  184DG     H23 4232   2.553   1.455   1.525 -1.0037 -0.5452 -0.3968
  185DG      C1 4233   1.117   2.296   0.594 -1.1663 -0.7240 -0.2418
  185DG      C2 4234   0.812   1.781   0.789 -0.3134  0.0947  0.0734
  185DG      H3 4235   1.186   2.381   0.583 -0.0724  1.2912  0.5049
  185DG      H4 4236   1.067   2.300   0.496 -0.4893 -3.1650  0.7517
  185DG      H5 4237   1.190   2.213   0.611  1.7748 -0.7341 -1.4601
  185DG      H6 4238   0.720   1.762   0.849  1.0224  0.0888 -0.4018
  185DG      H7 4239   0.787   1.806   0.681  0.8488 -1.1726 -1.1267
  185DG      H8 4240   0.862   1.679   0.786  3.0086  0.6374 -3.3449
  185DG      O9 4241   1.030   2.303   0.702  0.0141  0.0214  0.0213
  185DG     O10 4242   0.907   1.884   0.816  0.9549 -0.0768 -0.2206
  185DG     C11 4243   1.092   2.336   0.825  0.8087 -0.4524 -0.3889
  185DG     C12 4244   0.965   1.890   0.949  0.0420  0.1580  0.0105
  185DG     H13 4245   1.020   2.395   0.888 -1.8162  1.1204 -1.3366
  185DG     H14 4246   1.173   2.411   0.823  0.6884 -1.3268 -0.9345
  185DG     H15 4247   1.014   1.795   0.985 -4.5633 -1.7241  0.3273
  185DG     H16 4248   0.884   1.911   1.019  3.4628 -1.4687  4.1885
  185DG     C17 4249   1.139   2.211   0.885 -0.0420 -0.2924  0.2151
  185DG     C18 4250   1.075   2.001   0.958 -0.1279  0.3065 -0.1139
  185DG     O19 4251   1.031   2.117   0.889 -0.8621 -0.2343 -0.1367
  185DG     H20 4252   1.163   2.230   0.993  1.8498 -0.6879  4.5600
  185DG     H21 4253   1.237   2.177   0.850  2.2109 -0.4941  0.5787
  185DG     H22 4254   1.119   2.025   1.053 -0.3628  2.6822 -2.7987
  185DG     H23 4255   1.167   1.961   0.908 -1.4157  1.7210 -0.6466
  186DG      C1 4256   1.106   2.437   0.041 -0.1801  0.3336 -0.0720
  186DG      C2 4257   0.667   2.183  -0.474  0.4549 -0.0588  1.0483
  186DG      H3 4258   1.213   2.409   0.022  2.9496  3.6594  2.1569
  186DG      H4 4259   1.091   2.421   0.144 -0.6070  2.4422  1.4176
  186DG      H5 4260   1.096   2.541   0.004  1.7506 -1.9814 -0.2961
  186DG      H6 4261   0.565   2.164  -0.499  1.9013 -0.2075  1.0686
  186DG      H7 4262   0.693   2.273  -0.530  0.8360  1.0495  0.1845
  186DG      H8 4263   0.730   2.098  -0.502  2.0926  1.4202  0.4659
  186DG      O9 4264   1.025   2.346  -0.037 -0.3204  0.2915  0.0820
  186DG     O10 4265   0.683   2.206  -0.330  0.2257 -0.3003  0.0682
  186DG     C11 4266   1.068   2.212  -0.035 -0.0798 -0.2624 -0.3023
  186DG     C12 4267   0.657   2.084  -0.259  0.1416  0.2260 -0.1686
  186DG     H13 4268   1.141   2.187   0.049  0.9231 -0.8403  0.6620
  186DG     H14 4269   1.124   2.191  -0.123  2.1621  0.5348 -0.3877
  186DG     H15 4270   0.717   1.993  -0.302 -0.7198 -3.2530 -0.5596
  186DG     H16 4271   0.556   2.046  -0.253 -0.0409 -1.8215  0.5385
  186DG     C17 4272   0.948   2.120  -0.028  0.4194  0.0436 -1.1757
  186DG     C18 4273   0.717   2.098  -0.117 -0.3729 -0.1420 -0.0123
  186DG     O19 4274   0.854   2.142  -0.136 -0.1031  0.2965 -0.5457
  186DG     H20 4275   0.908   2.128   0.076  0.0464  1.0433 -0.4096
  186DG     H21 4276   0.983   2.016  -0.050 -0.0444 -5.3576 -0.2306
  186DG     H22 4277   0.662   2.155  -0.038  1.9379  0.0499  1.3208
  186DG     H23 4278   0.709   2.004  -0.076  0.7933 -0.3269 -1.2502
  187DG      C1 4279   4.603   5.280   2.979 -0.8673  0.0298  0.4637
  187DG      C2 4280   4.188   5.065   3.430 -0.3707 -0.1912  0.0240
  187DG      H3 4281   4.626   5.339   2.891  3.2679 -4.1048  3.6723
  187DG      H4 4282   4.679   5.206   2.979 -0.7707 -0.2401 -3.9326
  187DG      H5 4283   4.611   5.342   3.070 -2.9189  0.2034 -0.8546
  187DG      H6 4284   4.121   4.993   3.473  1.2140 -0.5385 -0.1860
  187DG      H7 4285   4.290   5.032   3.460  0.1407  0.4104 -0.6988
  187DG      H8 4286   4.179   5.154   3.490 -0.7560 -0.7026 -1.0005
  187DG      O9 4287   4.475   5.233   2.973  0.3622 -0.3108  0.1811
  187DG     O10 4288   4.178   5.078   3.289  0.0619  0.4544  0.4070
  187DG     C11 4289   4.448   5.132   2.873  0.0679 -0.0788 -0.0462
  187DG     C12 4290   4.171   4.953   3.217 -0.2739  0.1302  0.2297
  187DG     H13 4291   4.515   5.052   2.873 -0.7281  0.7299 -0.3188
  187DG     H14 4292   4.440   5.178   2.774 -1.1413 -0.4339  1.1814
  187DG     H15 4293   4.073   4.907   3.255 -0.3755  0.4652  0.2126
  187DG     H16 4294   4.256   4.883   3.246  1.3095 -1.0079  2.3989
  187DG     C17 4295   4.308   5.062   2.885  0.5479 -0.4897 -0.4858
  187DG     C18 4296   4.166   4.979   3.064  0.3415  0.1061 -0.1963
  187DG     O19 4297   4.291   5.045   3.026  0.1348 -0.9180  0.3685
  187DG     H20 4298   4.309   4.963   2.850 -1.5019  2.9272 -0.0639
  187DG     H21 4299   4.226   5.119   2.838  0.1985 -1.3363 -1.0176
  187DG     H22 4300   4.147   4.881   3.008 -0.9332 -1.5077 -1.7015
  187DG     H23 4301   4.089   5.053   3.034  0.6599  0.2790  1.9715
  188DG      C1 4302   4.088   2.577   5.135 -0.1788 -0.2081  1.0399
  188DG      C2 4303   3.431   2.722   5.229  0.2494  0.3570 -0.5426
  188DG      H3 4304   4.043   2.497   5.069 -2.3791 -0.6658  2.2198
  188DG      H4 4305   4.099   2.528   5.233 -0.9682  1.1655  1.0969
  188DG      H5 4306   4.190   2.596   5.107  1.2979 -1.2766  1.5744
  188DG      H6 4307   3.356   2.805   5.237 -4.1011  0.1493 -1.1885
  188DG      H7 4308   3.426   2.647   5.155  0.3254 -1.6219 -1.8986
  188DG      H8 4309   3.420   2.671   5.325  3.4871 -0.6966 -2.6374
  188DG      O9 4310   4.008   2.693   5.151 -0.9365 -0.2150 -0.1110
  188DG     O10 4311   3.561   2.774   5.224  0.5338 -0.0475 -0.2153
  188DG     C11 4312   4.049   2.786   5.243 -0.2059 -0.7842 -1.0226
  188DG     C12 4313   3.585   2.858   5.330  0.3348  0.2893  0.2770
  188DG     H13 4314   4.145   2.827   5.205 -0.1249  0.7620  0.2292
  188DG     H14 4315   4.079   2.727   5.326 -0.3038 -0.2547  0.6028
  188DG     H15 4316   3.566   2.807   5.421  0.7593  1.7692 -0.9601
  188DG     H16 4317   3.514   2.942   5.330 -0.4487  1.3382 -0.6899
  188DG     C17 4318   3.950   2.892   5.269  0.6255 -0.2252 -0.8302
  188DG     C18 4319   3.720   2.923   5.320 -0.1335 -0.0266 -0.5730
  188DG     O19 4320   3.825   2.830   5.292 -0.4616  0.7360  0.1148
  188DG     H20 4321   3.941   2.954   5.182  0.5869  1.5357  0.9377
  188DG     H21 4322   3.973   2.953   5.354  0.4868 -1.5063 -1.0633
  188DG     H22 4323   3.718   2.989   5.237  0.4651  1.1905  0.6790
  188DG     H23 4324   3.746   2.982   5.412  0.9856 -0.9790 -0.6747
  189DG      C1 4325   3.587   1.717   0.406  0.2340  0.1256  0.2879
  189DG      C2 4326   3.752   1.722   1.117 -0.4931 -0.2069  0.3733
  189DG      H3 4327   3.618   1.754   0.315 -4.0392  1.5182  1.2834
  189DG      H4 4328   3.487   1.762   0.417 -1.9468  1.4682 -0.4531
  189DG      H5 4329   3.579   1.606   0.390 -0.2521 -0.2599  0.3198
  189DG      H6 4330   3.819   1.785   1.178  4.9719 -1.0170  0.1025
  189DG      H7 4331   3.646   1.738   1.143 -1.7860 -0.4061 -1.9391
  189DG      H8 4332   3.776   1.630   1.153 -1.4779  3.0084  2.1262
  189DG      O9 4333   3.689   1.756   0.503  0.7553 -0.4398  0.3411
  189DG     O10 4334   3.779   1.726   0.977  0.0892 -0.2836 -0.0778
  189DG     C11 4335   3.813   1.693   0.475 -0.0547 -0.3017  0.2669
  189DG     C12 4336   3.907   1.667   0.951 -0.1041 -0.2870  0.2585
  189DG     H13 4337   3.853   1.735   0.381  1.9667  0.6737 -0.5463
  189DG     H14 4338   3.804   1.584   0.452 -0.4013  2.0616 -0.5343
  189DG     H15 4339   3.917   1.558   0.955 -0.7586  0.9739  2.7488
  189DG     H16 4340   3.978   1.689   1.030  1.0697 -0.0826  0.6277
  189DG     C17 4341   3.924   1.704   0.580 -0.0044  0.1333 -0.4715
  189DG     C18 4342   3.951   1.711   0.805 -0.6541  0.0714 -0.0607
  189DG     O19 4343   3.867   1.662   0.704 -0.6809  0.1653 -0.2361
  189DG     H20 4344   3.955   1.806   0.578 -0.4268  0.3249  1.3176
  189DG     H21 4345   4.010   1.647   0.553  2.6930 -0.5812  0.0057
  189DG     H22 4346   3.945   1.812   0.812  0.0808 -0.7187  1.0046
  189DG     H23 4347   4.053   1.685   0.791  2.3020  3.1024 -0.7559
  190DG      C1 4348   2.216   0.419   4.883 -0.3164 -0.3188  0.4016
  190DG      C2 4349   1.762   0.982   4.905  0.4307 -0.1742 -0.2158
  190DG      H3 4350   2.205   0.342   4.956 -2.9385 -3.0357 -1.3325
  190DG      H4 4351   2.309   0.406   4.828 -0.6314  3.2744  0.4511
  190DG      H5 4352   2.142   0.399   4.808  2.4115  0.4482  3.6978
  190DG      H6 4353   1.724   0.953   4.810  2.9279 -1.6592  0.0661
  190DG      H7 4354   1.679   0.962   4.969 -0.1734  2.3845 -1.8009
  190DG      H8 4355   1.792   1.087   4.902 -1.0914  0.9175 -1.3634
  190DG      O9 4356   2.194   0.552   4.934 -0.1359  0.0858  0.4458
  190DG     O10 4357   1.873   0.901   4.953 -0.2371 -0.2027  0.3959
  190DG     C11 4358   2.240   0.577   5.066  0.3542 -0.6006  0.3200
  190DG     C12 4359   1.921   0.950   5.075 -0.6803 -0.2512 -0.7634
  190DG     H13 4360   2.346   0.549   5.080  1.0746 -0.5241 -1.2888
  190DG     H14 4361   2.171   0.522   5.132  1.5554 -0.3279 -0.8407
  190DG     H15 4362   1.860   0.925   5.159 -0.3218  1.2319  1.6812
  190DG     H16 4363   1.922   1.057   5.087  0.2534  0.0156  0.4517
  190DG     C17 4364   2.221   0.723   5.102  0.5917  0.0020  0.2394
  190DG     C18 4365   2.065   0.901   5.100 -0.0585  0.6201  0.7514
  190DG     O19 4366   2.087   0.760   5.088 -0.1711 -0.2435  0.3390
  190DG     H20 4367   2.282   0.785   5.036  3.1729  1.4519 -1.2203
  190DG     H21 4368   2.259   0.743   5.199 -1.4114 -1.7119 -1.0298
  190DG     H22 4369   2.131   0.953   5.026 -2.1341 -0.8624  0.5479
  190DG     H23 4370   2.095   0.946   5.196 -2.5950  2.6088 -2.9188
  191DG      C1 4371   4.006   4.258   4.146 -0.0816 -0.2275  0.2213
  191DG      C2 4372   3.551   3.652   4.067 -0.1419  0.8197 -0.1348
  191DG      H3 4373   4.103   4.273   4.196  0.0788  1.1934  1.2054
  191DG      H4 4374   3.976   4.360   4.130  1.1429  1.1581 -0.6206
  191DG      H5 4375   4.013   4.212   4.043 -1.9106 -2.2400 -0.5055
  191DG      H6 4376   3.458   3.697   4.029 -1.0789 -0.0410 -2.5920
  191DG      H7 4377   3.558   3.566   3.997 -2.5809  1.6011  1.4121
  191DG      H8 4378   3.527   3.604   4.171  0.3881  0.7256 -1.9313
  191DG      O9 4379   3.905   4.199   4.225  0.1008  0.2097 -0.2386
  191DG     O10 4380   3.662   3.748   4.069  0.1417 -0.5817 -0.2711
  191DG     C11 4381   3.948   4.102   4.326  0.0639  0.3411  0.9879
  191DG     C12 4382   3.629   3.862   4.145  0.0673 -0.1963  0.2839
  191DG     H13 4383   4.009   4.155   4.397 -1.1728 -0.0947 -0.1760
  191DG     H14 4384   4.010   4.023   4.282 -1.0035 -1.4247  0.1935
  191DG     H15 4385   3.563   3.848   4.220 -0.5433 -1.1632 -0.6922
  191DG     H16 4386   3.586   3.932   4.075  4.3480  1.0514 -2.0778
  191DG     C17 4387   3.824   4.044   4.393  0.1213  0.1089  0.1865
  191DG     C18 4388   3.758   3.908   4.214  0.3335 -0.5365  0.2149
  191DG     O19 4389   3.723   4.012   4.302  0.4541  0.5308  0.5805
  191DG     H20 4390   3.791   4.126   4.463  1.4990  2.2255  3.2323
  191DG     H21 4391   3.856   3.949   4.446 -1.0895 -2.3629  2.8729
  191DG     H22 4392   3.793   3.819   4.269  1.2204  2.0068  5.0638
  191DG     H23 4393   3.847   3.938   4.150  1.4522 -1.8049  0.7079
  192DG      C1 4394   5.007   1.046   3.886  0.2955  0.6275  0.1282
  192DG      C2 4395   4.526   1.243   3.284  0.7050 -0.7308 -0.6741
  192DG      H3 4396   4.958   0.950   3.863 -0.4156 -0.8629  0.9822
  192DG      H4 4397   4.946   1.110   3.959  1.6227  1.7418  2.2736
  192DG      H5 4398   5.104   1.020   3.938 -1.3140  1.2164  0.2522
  192DG      H6 4399   4.509   1.248   3.173 -3.0399 -0.6565 -1.4020
  192DG      H7 4400   4.478   1.154   3.324 -2.0424 -1.2201 -1.4334
  192DG      H8 4401   4.482   1.324   3.326  1.1132 -2.7547 -1.0142
  192DG      O9 4402   5.033   1.135   3.774  0.2976 -0.0457 -0.5296
  192DG     O10 4403   4.665   1.244   3.321 -0.4734  0.4635  0.3388
  192DG     C11 4404   4.915   1.186   3.717  0.2089 -0.1071 -0.7868
  192DG     C12 4405   4.730   1.369   3.325  0.5127  0.1679 -0.6894
  192DG     H13 4406   4.867   1.255   3.784 -0.3546 -2.2596  0.7470
  192DG     H14 4407   4.843   1.107   3.689  0.1243  2.0269  0.5957
  192DG     H15 4408   4.671   1.440   3.381 -1.3355  0.7920  1.8377
  192DG     H16 4409   4.755   1.405   3.228 -0.4173  1.0793  1.5232
  192DG     C17 4410   4.967   1.260   3.590  0.0623 -0.0654 -0.0125
  192DG     C18 4411   4.861   1.359   3.399 -0.1789 -0.1472  0.0087
  192DG     O19 4412   4.846   1.305   3.530  0.4147  0.4134 -0.4129
  192DG     H20 4413   5.019   1.183   3.530  0.3831 -0.3043 -0.5516
  192DG     H21 4414   5.034   1.337   3.620 -0.2295 -1.6569 -0.9278
  192DG     H22 4415   4.928   1.298   3.342  0.5216  2.2596  0.8106
  192DG     H23 4416   4.916   1.457   3.400  0.1980  3.8323 -1.1535
  193DG      C1 4417   2.105   1.319   1.405  0.6283  0.1622 -0.0833
  193DG      C2 4418   1.491   1.935   1.632 -0.0919  0.1421  0.1926
  193DG      H3 4419   2.192   1.365   1.356 -0.1864  1.7837  3.9807
  193DG      H4 4420   2.072   1.232   1.346  1.6035  1.0961 -0.2675
  193DG      H5 4421   2.131   1.282   1.499 -0.6885  0.1400 -0.1404
  193DG      H6 4422   1.387   1.951   1.631  2.4256 -0.3556  1.6902
  193DG      H7 4423   1.518   1.950   1.730  0.1821 -0.5015 -3.0150
  193DG      H8 4424   1.538   2.007   1.575  0.3199 -2.8466  0.5980
  193DG      O9 4425   1.998   1.400   1.424 -0.1885 -0.6479 -0.0050
  193DG     O10 4426   1.518   1.801   1.586 -0.2547  0.0363  0.0339
  193DG     C11 4427   1.893   1.333   1.500 -0.3556 -0.3152 -0.0918
  193DG     C12 4428   1.651   1.758   1.586  0.3224  0.0245 -0.4049
  193DG     H13 4429   1.930   1.304   1.598  0.7038 -3.1076  0.7418
  193DG     H14 4430   1.862   1.241   1.442  3.4603 -1.5393 -2.5130
  193DG     H15 4431   1.713   1.771   1.676  2.2908  1.6711 -1.0025
  193DG     H16 4432   1.710   1.815   1.515  1.5788  0.8327  2.1190
  193DG     C17 4433   1.760   1.415   1.495 -0.1305 -0.6851  0.0816
  193DG     C18 4434   1.649   1.621   1.532  0.6805  1.0069  0.2911
  193DG     O19 4435   1.770   1.542   1.561  0.9769  0.3177  0.1081
  193DG     H20 4436   1.683   1.366   1.555  0.1437 -2.4904  3.0818
  193DG     H21 4437   1.730   1.439   1.393 -0.0374  2.6263 -0.2943
  193DG     H22 4438   1.568   1.559   1.578 -0.0718  0.4412  1.8096
  193DG     H23 4439   1.630   1.630   1.417  0.2024 -0.5932 -1.2945
  194DG      C1 4440   3.336   2.101   2.737 -0.0151 -0.1224  0.2657
  194DG      C2 4441   3.290   1.618   2.152  0.0383  0.1681 -0.4129
  194DG      H3 4442   3.307   2.171   2.809 -1.9427 -0.3081 -1.1208
  194DG      H4 4443   3.362   2.152   2.645  2.7057 -2.4212 -5.4840
  194DG      H5 4444   3.426   2.061   2.769 -1.0790 -0.3594  2.7217
  194DG      H6 4445   3.379   1.676   2.133 -2.5079  0.5997 -1.1289
  194DG      H7 4446   3.335   1.520   2.175 -0.4375  1.1544  2.1361
  194DG      H8 4447   3.217   1.619   2.072  2.7399 -1.6966  1.3603
  194DG      O9 4448   3.232   2.005   2.713  0.0506  0.3213 -0.3771
  194DG     O10 4449   3.244   1.672   2.276 -0.1868  1.2075  0.0818
  194DG     C11 4450   3.265   1.889   2.642  0.2836 -0.4483  0.5895
  194DG     C12 4451   3.145   1.585   2.334 -0.6758  0.7847  0.0991
  194DG     H13 4452   3.319   1.821   2.696 -1.0692 -0.8261  0.5938
  194DG     H14 4453   3.309   1.915   2.545  0.8540  1.8027 -0.8876
  194DG     H15 4454   3.193   1.494   2.363  0.4577 -2.0474  0.8550
  194DG     H16 4455   3.070   1.552   2.264  1.7594  0.4514  0.3221
  194DG     C17 4456   3.132   1.818   2.607  0.0453  0.1804 -0.3577
  194DG     C18 4457   3.081   1.648   2.457 -0.5360 -0.1339 -0.3698
  194DG     O19 4458   3.177   1.704   2.542  0.1214  0.1283 -0.0070
  194DG     H20 4459   3.076   1.889   2.546  0.7626 -0.4977  1.0422
  194DG     H21 4460   3.074   1.791   2.697 -0.0014 -0.9705  0.5301
  194DG     H22 4461   3.003   1.726   2.418 -0.2027  0.4323  1.1557
  194DG     H23 4462   3.031   1.564   2.508 -1.6001 -2.5799  3.1925
  195DG      C1 4463   3.102   3.846   4.479  0.0568 -0.1746 -0.1227
  195DG      C2 4464   3.249   4.408   4.877  0.1257  0.2109 -0.4480
  195DG      H3 4465   3.069   3.748   4.469  2.8234  0.0172  0.0196
  195DG      H4 4466   3.204   3.848   4.449 -1.8155 -2.1300  0.5797
  195DG      H5 4467   3.037   3.912   4.417  0.0832  2.2854  0.6279
  195DG      H6 4468   3.278   4.448   4.773 -1.6771 -4.4509  0.8705
  195DG      H7 4469   3.189   4.483   4.931  0.9503 -0.7495  0.8861
  195DG      H8 4470   3.341   4.381   4.922 -1.0687 -1.7571 -1.7700
  195DG      O9 4471   3.094   3.897   4.613  0.1194  0.1241  0.3590
  195DG     O10 4472   3.173   4.298   4.840 -0.1628 -0.0831 -0.0769
  195DG     C11 4473   3.122   3.815   4.719 -0.4457 -0.7328  0.8306
  195DG     C12 4474   3.124   4.244   4.957  0.3786 -0.1101  0.4260
  195DG     H13 4475   3.231   3.789   4.715  0.5816 -1.5840 -1.5001
  195DG     H14 4476   3.071   3.718   4.705  0.5065  0.0697 -3.0643
  195DG     H15 4477   3.076   4.312   5.027 -1.9312 -0.8136  2.0066
  195DG     H16 4478   3.214   4.210   5.017 -0.9350 -0.5385  3.5966
  195DG     C17 4479   3.085   3.897   4.846 -0.4765 -0.3096  0.0364
  195DG     C18 4480   3.054   4.113   4.936 -0.3132 -0.1749 -0.2561
  195DG     O19 4481   3.122   4.036   4.842 -0.3585 -0.2320  0.2783
  195DG     H20 4482   3.122   3.845   4.936 -1.9210  0.6035  0.8524
  195DG     H21 4483   2.978   3.890   4.854 -3.5500  2.4103 -1.6657
  195DG     H22 4484   3.020   4.070   5.031  0.8893 -2.1724  0.9659
  195DG     H23 4485   2.948   4.134   4.901 -0.4713  2.0705  1.6124
  196DG      C1 4486   1.988   1.148   4.680  0.0970 -0.0160 -0.4184
  196DG      C2 4487   1.491   1.178   4.032 -0.7084  0.1328  0.3692
  196DG      H3 4488   2.016   1.252   4.650 -2.0357  0.8222 -1.3346
  196DG      H4 4489   2.047   1.069   4.634 -2.7051 -0.1947 -0.0508
  196DG      H5 4490   1.997   1.136   4.787 -0.8116  0.8167 -0.0735
  196DG      H6 4491   1.487   1.097   3.968 -1.9251  2.0463  1.3695
  196DG      H7 4492   1.397   1.235   4.025 -2.2196  1.9922  0.4024
  196DG      H8 4493   1.578   1.235   3.993  2.4816  1.6101  0.7278
  196DG      O9 4494   1.847   1.144   4.638 -0.7299 -0.1902  0.7739
  196DG     O10 4495   1.513   1.136   4.168 -0.0470  0.0548  0.3945
  196DG     C11 4496   1.771   1.260   4.683  0.0440  0.0575 -0.4335
  196DG     C12 4497   1.542   1.241   4.263  0.4052 -0.8094 -0.1780
  196DG     H13 4498   1.829   1.346   4.655  2.2624 -0.7634  0.1106
  196DG     H14 4499   1.765   1.265   4.790  1.7231 -0.1705  3.0015
  196DG     H15 4500   1.453   1.314   4.282 -0.8514 -0.8763 -2.7379
  196DG     H16 4501   1.616   1.307   4.214  0.0981  0.0888  1.3773
  196DG     C17 4502   1.620   1.267   4.627  0.6729 -0.7217 -0.3213
  196DG     C18 4503   1.596   1.182   4.399 -0.2765 -0.0716  0.1368
  196DG     O19 4504   1.630   1.291   4.485 -0.2692  0.1235 -0.5541
  196DG     H20 4505   1.569   1.344   4.680 -2.7044 -0.2442 -0.0502
  196DG     H21 4506   1.576   1.176   4.674 -0.2497 -0.6197  2.9273
  196DG     H22 4507   1.510   1.132   4.443 -0.0106  1.7346  1.1719
  196DG     H23 4508   1.670   1.105   4.376 -0.1053  1.0314 -0.5634
  197DG      C1 4509   0.183   3.450   2.830 -0.5282  0.4194  0.6801
  197DG      C2 4510   0.659   3.004   3.145  0.5240  1.0630  0.5323
  197DG      H3 4511   0.249   3.501   2.900  1.8962  0.4279  0.9724
  197DG      H4 4512   0.083   3.491   2.816 -0.9128 -1.7624 -1.5209
  197DG      H5 4513   0.231   3.443   2.729  1.2898  1.9742  2.1464
  197DG      H6 4514   0.701   3.021   3.047  0.1161  0.3223  4.4771
  197DG      H7 4515   0.704   3.049   3.230 -0.0369 -2.6250  0.5152
  197DG      H8 4516   0.663   2.893   3.150  0.4189  1.2918 -0.8438
  197DG      O9 4517   0.175   3.309   2.864 -0.2257  0.0751  0.2115
  197DG     O10 4518   0.529   3.054   3.169  1.0563  0.6450  0.1081
  197DG     C11 4519   0.107   3.287   2.984  0.2582 -0.0220  0.4060
  197DG     C12 4520   0.429   2.961   3.117  0.1009  0.2251  0.4350
  197DG     H13 4521   0.003   3.308   2.973  1.6627 -2.8637 -0.4267
  197DG     H14 4522   0.159   3.355   3.051 -1.6408  0.8407  1.0403
  197DG     H15 4523   0.428   2.867   3.165  0.0753  1.0076 -2.2744
  197DG     H16 4524   0.443   2.945   3.007 -1.4141 -0.7216  2.9834
  197DG     C17 4525   0.123   3.142   3.020  0.4585  0.0924 -0.4357
  197DG     C18 4526   0.283   3.008   3.128  0.3580  0.1297  0.2217
  197DG     O19 4527   0.266   3.125   3.060  0.1897 -0.2827  0.0846
  197DG     H20 4528   0.080   3.074   2.941 -0.7903 -1.8769 -1.3415
  197DG     H21 4529   0.070   3.123   3.116  1.6919 -0.0484 -1.1512
  197DG     H22 4530   0.224   2.928   3.090  1.1873 -0.4600  1.0617
  197DG     H23 4531   0.261   3.014   3.236 -2.0656  0.8193 -2.4140
  198DG      C1 4532   2.698   2.539   4.265  0.0426  0.4581 -0.0689
  198DG      C2 4533   2.250   2.119   4.359  0.2136 -0.1119  0.2956
  198DG      H3 4534   2.757   2.621   4.302 -1.4429  0.5752  0.6323
  198DG      H4 4535   2.588   2.555   4.281 -1.4468  0.6485 -0.5586
  198DG      H5 4536   2.712   2.519   4.154  0.4083  0.0299  0.9030
  198DG      H6 4537   2.279   2.096   4.258  0.4700 -0.4825  2.1527
  198DG      H7 4538   2.274   2.036   4.431 -1.8150  1.2501  3.4427
  198DG      H8 4539   2.145   2.146   4.361  0.2154 -0.8281 -1.7518
  198DG      O9 4540   2.717   2.415   4.333 -0.5442 -0.4050 -0.1828
  198DG     O10 4541   2.333   2.223   4.400 -0.2754  0.2152 -0.2799
  198DG     C11 4542   2.742   2.428   4.472  0.1301 -0.0985  0.0999
  198DG     C12 4543   2.316   2.251   4.539  0.5765 -0.0740  0.1078
  198DG     H13 4544   2.833   2.500   4.487  2.5022  1.3443  1.7817
  198DG     H14 4545   2.790   2.331   4.502  0.7298 -1.5148 -0.2908
  198DG     H15 4546   2.337   2.159   4.585  2.1986  1.6132  0.1595
  198DG     H16 4547   2.210   2.264   4.569 -0.7226 -0.4330 -0.5369
  198DG     C17 4548   2.623   2.464   4.555  0.8435  0.7476 -0.6705
  198DG     C18 4549   2.396   2.376   4.579  0.0962  0.4661 -0.7719
  198DG     O19 4550   2.530   2.365   4.518  0.2612 -0.0706 -0.1924
  198DG     H20 4551   2.585   2.562   4.527  1.2174  3.3622 -1.2412
  198DG     H21 4552   2.643   2.464   4.664  0.3108  0.0226  0.2523
  198DG     H22 4553   2.343   2.463   4.541  2.5225  2.4844  2.3561
  198DG     H23 4554   2.406   2.390   4.685 -2.8725 -0.2436 -1.8869
  199DG      C1 4555   0.487   1.472   0.419  0.4917  0.0330 -0.1602
  199DG      C2 4556   0.297   0.949   0.700 -0.2301 -0.0615  0.2300
  199DG      H3 4557   0.485   1.577   0.449  0.1626 -2.6828  0.2628
  199DG      H4 4558   0.388   1.429   0.401 -0.1393  0.7957 -1.8208
  199DG      H5 4559   0.520   1.478   0.318 -1.1923 -2.2781 -1.2428
  199DG      H6 4560   0.277   0.898   0.605  0.0918  1.8587  0.8765
  199DG      H7 4561   0.233   0.913   0.780  1.6073 -2.2284  0.4212
  199DG      H8 4562   0.262   1.047   0.684  2.5985  0.4152 -2.7441
  199DG      O9 4563   0.572   1.394   0.510 -0.3008  0.0285  0.5473
  199DG     O10 4564   0.432   0.927   0.722 -0.0000  0.3274  0.5166
  199DG     C11 4565   0.641   1.290   0.449  0.3409  0.1693  0.7870
  199DG     C12 4566   0.484   1.025   0.806 -0.6639 -0.2901 -0.3529
  199DG     H13 4567   0.715   1.328   0.378  2.5276  0.8653 -0.3069
  199DG     H14 4568   0.583   1.212   0.399 -0.0020 -3.1186  2.6550
  199DG     H15 4569   0.516   0.981   0.907  2.9403  0.8078  0.4464
  199DG     H16 4570   0.415   1.102   0.830 -0.5077  0.5543  0.5450
  199DG     C17 4571   0.702   1.208   0.558 -0.4492 -0.8927 -0.1700
  199DG     C18 4572   0.618   1.076   0.753 -0.2388  0.3654 -0.2227
  199DG     O19 4573   0.594   1.153   0.632  0.2331 -0.5165 -0.0987
  199DG     H20 4574   0.749   1.280   0.630 -0.1391  1.5512  0.2349
  199DG     H21 4575   0.778   1.136   0.527  1.3156 -1.1886 -0.5109
  199DG     H22 4576   0.671   1.121   0.828  2.3526 -1.3629 -0.3272
  199DG     H23 4577   0.684   0.997   0.715  3.8193 -0.4064 -0.7830
  200DG      C1 4578   3.085   3.559   1.957  0.4322 -0.6674 -0.3595
  200DG      C2 4579   2.690   3.972   1.647 -0.4660 -0.0783 -0.5796
  200DG      H3 4580   3.170   3.558   2.025 -1.3003  0.7926 -2.7440
  200DG      H4 4581   3.030   3.464   1.982  0.0442 -2.3248  3.3635
  200DG      H5 4582   3.031   3.650   1.974 -0.9026 -0.2587  1.9018
  200DG      H6 4583   2.619   3.883   1.653  1.2532 -1.4419  0.7382
  200DG      H7 4584   2.668   4.045   1.725  2.5347  1.3834 -1.6813
  200DG      H8 4585   2.662   4.007   1.549 -2.4461  1.9325  1.6663
  200DG      O9 4586   3.153   3.564   1.830  0.0141 -0.0082  0.2372
  200DG     O10 4587   2.822   3.932   1.645 -0.4355 -0.4862  0.3166
  200DG     C11 4588   3.245   3.675   1.809 -0.1434 -0.4298  0.6709
  200DG     C12 4589   2.858   3.881   1.770  0.3744  0.0823  1.2029
  200DG     H13 4590   3.340   3.629   1.800 -1.7086  2.8937  0.3179
  200DG     H14 4591   3.237   3.749   1.883  2.5868 -0.5043 -0.9319
  200DG     H15 4592   2.800   3.785   1.786  0.0402  1.0116  0.4765
  200DG     H16 4593   2.825   3.944   1.849 -3.5812 -1.7220 -0.5981
  200DG     C17 4594   3.196   3.746   1.694 -0.0610 -0.3026 -0.5913
  200DG     C18 4595   3.010   3.865   1.784  0.3592  0.0004 -0.2662
  200DG     O19 4596   3.054   3.771   1.699  0.1588 -0.3800  0.1876
  200DG     H20 4597   3.220   3.694   1.603  1.2575  0.9093 -0.3447
  200DG     H21 4598   3.246   3.841   1.674 -0.6423 -2.7269  0.1187
  200DG     H22 4599   3.054   3.961   1.755 -1.8066  0.0887 -1.9239
  200DG     H23 4600   3.042   3.852   1.883 -0.0177  1.2042 -3.0299
  201DG      C1 4601   5.354   4.546   2.419 -0.3370 -0.6401 -0.3752
  201DG      C2 4602   5.852   4.388   2.212  0.2413 -0.3075 -0.1672
  201DG      H3 4603   5.390   4.445   2.449 -3.3147  0.4144 -1.5062
  201DG      H4 4604   5.242   4.540   2.389 -1.4839 -2.7014  0.6147
  201DG      H5 4605   5.353   4.615   2.510  0.0297  0.8076 -1.5278
  201DG      H6 4606   5.812   4.319   2.133 -0.4957 -0.6617  0.2770
  201DG      H7 4607   5.956   4.389   2.194 -0.4828 -1.8507 -1.2610
  201DG      H8 4608   5.842   4.347   2.311  0.8864  0.7015  0.8787
  201DG      O9 4609   5.439   4.596   2.316 -0.2317  0.5640  0.0349
  201DG     O10 4610   5.803   4.515   2.225  0.2690 -0.3633  0.5301
  201DG     C11 4611   5.397   4.718   2.260 -0.2378  0.3286  0.2429
  201DG     C12 4612   5.779   4.580   2.100  0.2135 -0.2423 -0.3465
  201DG     H13 4613   5.408   4.798   2.333 -0.6481 -2.9251  0.7667
  201DG     H14 4614   5.297   4.728   2.221 -1.4823 -3.5235  0.9402
  201DG     H15 4615   5.697   4.530   2.050 -0.0847 -1.1958  0.5828
  201DG     H16 4616   5.861   4.566   2.037 -0.3627 -0.6070 -1.1607
  201DG     C17 4617   5.511   4.759   2.162 -0.7966  0.2846 -0.3458
  201DG     C18 4618   5.744   4.729   2.117  0.3543  0.6216 -0.7673
  201DG     O19 4619   5.639   4.740   2.222  0.2166  0.2713  0.2914
  201DG     H20 4620   5.496   4.857   2.121  3.0458 -2.0750 -0.6738
  201DG     H21 4621   5.507   4.695   2.073  1.8796  1.8919 -0.4432
  201DG     H22 4622   5.838   4.784   2.140  0.5477 -1.3820  0.8014
  201DG     H23 4623   5.698   4.781   2.029 -2.0161 -3.9148  0.5910
  202DG      C1 4624   2.542   3.470   1.337 -0.4586 -0.6987 -0.0921
  202DG      C2 4625   1.855   3.530   1.149  0.5756  0.7479  0.0569
  202DG      H3 4626   2.561   3.575   1.319 -1.1193 -1.0726 -0.6080
  202DG      H4 4627   2.626   3.408   1.305 -0.4785 -1.8929  0.3552
  202DG      H5 4628   2.527   3.460   1.445  0.5459  0.7936  0.8192
  202DG      H6 4629   1.777   3.467   1.191 -0.8315 -0.6966 -2.6742
  202DG      H7 4630   1.862   3.622   1.210  2.5023 -0.1284 -1.2385
  202DG      H8 4631   1.810   3.559   1.059  0.8887 -0.3021  0.5996
  202DG      O9 4632   2.427   3.424   1.257 -0.0669 -0.5710 -0.5005
  202DG     O10 4633   1.989   3.484   1.127  0.5430  0.3211  0.1020
  202DG     C11 4634   2.417   3.284   1.266  0.1522  0.8378 -0.0413
  202DG     C12 4635   1.991   3.358   1.061  0.3919 -0.1640  0.1134
  202DG     H13 4636   2.366   3.252   1.361 -3.0732  0.2578 -0.1150
  202DG     H14 4637   2.517   3.229   1.266  2.1844  0.0436  0.1118
  202DG     H15 4638   1.938   3.364   0.962  3.4644  0.7640 -3.0092
  202DG     H16 4639   1.936   3.292   1.132  2.0165  1.4686  1.7616
  202DG     C17 4640   2.335   3.242   1.146  0.3666 -0.3067 -0.6546
  202DG     C18 4641   2.134   3.294   1.037 -0.2392  0.5321  0.4574
  202DG     O19 4642   2.214   3.311   1.149 -0.5051 -0.2584  0.3841
  202DG     H20 4643   2.304   3.138   1.157  0.5006 -1.4011  1.1916
  202DG     H21 4644   2.399   3.257   1.053  0.0980 -0.0972 -1.2570
  202DG     H22 4645   2.125   3.187   1.017  0.3241 -2.8479 -1.1905
  202DG     H23 4646   2.175   3.342   0.950  1.2218  1.1018 -1.4280
  203DG      C1 4647   3.656   1.079   5.099 -0.1916 -0.2836  0.0646
  203DG      C2 4648   4.244   1.228   5.159  0.4661  0.2150  0.0066
  203DG      H3 4649   3.693   1.015   5.012  2.1174  1.0039 -0.2446
  203DG      H4 4650   3.663   1.184   5.058  0.0801 -0.6528 -0.6420
  203DG      H5 4651   3.547   1.045   5.112  0.5644 -1.8788 -1.0391
  203DG      H6 4652   4.338   1.166   5.167  0.8624 -1.4489 -1.6283
  203DG      H7 4653   4.220   1.239   5.055 -0.7446 -1.4836  0.8402
  203DG      H8 4654   4.268   1.326   5.197  0.1627 -0.6403  1.8373
  203DG      O9 4655   3.732   1.090   5.218 -0.6823  0.1951 -0.0228
  203DG     O10 4656   4.126   1.183   5.226 -0.4995 -0.4965 -0.3889
  203DG     C11 4657   3.742   0.963   5.282 -0.0426 -0.6273 -0.2413
  203DG     C12 4658   4.124   1.196   5.365  1.0136  0.1021  0.0493
  203DG     H13 4659   3.797   0.895   5.218  0.1722 -0.6791  0.0395
  203DG     H14 4660   3.647   0.919   5.303  2.3011 -0.0147 -0.4666
  203DG     H15 4661   4.134   1.303   5.380 -0.4422 -1.0921  0.5210
  203DG     H16 4662   4.202   1.129   5.407  0.1123 -1.5155 -0.6874
  203DG     C17 4663   3.820   0.974   5.412  0.0056 -0.9524 -0.5229
  203DG     C18 4664   3.974   1.160   5.417  0.1398 -0.0628  0.7189
  203DG     O19 4665   3.957   1.022   5.393 -0.2314  0.3036  0.4881
  203DG     H20 4666   3.821   0.871   5.457 -2.9619 -0.7869 -0.5655
  203DG     H21 4667   3.767   1.034   5.485  1.3772 -0.0930 -0.2277
  203DG     H22 4668   3.948   1.189   5.520 -2.4166 -2.7326 -1.5334
  203DG     H23 4669   3.906   1.214   5.354 -0.1176  3.0492  2.5563
  204DG      C1 4670   2.678   1.851   5.165  0.8525 -0.1924 -0.0310
  204DG      C2 4671   3.349   2.035   5.128 -0.0254 -0.2250 -0.3267
  204DG      H3 4672   2.656   1.778   5.241 -1.1985 -1.7474  1.5998
  204DG      H4 4673   2.697   1.790   5.079 -1.5409 -0.7145  0.2523
  204DG      H5 4674   2.588   1.916   5.155  0.6155  2.3410 -2.6432
  204DG      H6 4675   3.427   2.108   5.155  0.6307 -2.4863 -1.3073
  204DG      H7 4676   3.386   1.935   5.106  2.4011  0.1336  3.6204
  204DG      H8 4677   3.316   2.073   5.037  2.2135 -0.3225  1.6612
  204DG      O9 4678   2.795   1.909   5.220  0.5195  0.4379  0.1949
  204DG     O10 4679   3.249   2.025   5.223 -0.5259  0.1621 -0.4403
  204DG     C11 4680   2.764   1.978   5.334 -0.2544 -0.6127  0.1730
  204DG     C12 4681   3.199   2.158   5.257  0.3821 -0.4495 -0.1180
  204DG     H13 4682   2.704   1.920   5.410 -2.3938  1.0466 -0.4960
  204DG     H14 4683   2.696   2.065   5.314 -1.0106 -0.7404 -0.3928
  204DG     H15 4684   3.167   2.213   5.166  0.7502 -1.5169  0.5121
  204DG     H16 4685   3.282   2.216   5.307 -0.8233  0.6515 -0.3837
  204DG     C17 4686   2.889   2.036   5.391 -0.2942 -0.2584 -0.4664
  204DG     C18 4687   3.086   2.148   5.362  1.2558  0.1403 -0.4598
  204DG     O19 4688   2.980   2.078   5.297 -0.3764 -0.2027  0.1631
  204DG     H20 4689   2.950   1.972   5.448 -3.3523 -1.1145 -0.9106
  204DG     H21 4690   2.861   2.111   5.467  0.1757 -1.8339 -1.7241
  204DG     H22 4691   3.120   2.094   5.451  0.4294 -3.4025  1.0780
  204DG     H23 4692   3.044   2.245   5.403 -1.5415  2.3416 -0.7271
  205DG      C1 4693   3.475   4.437   0.857 -0.0540 -0.0672 -1.0946
  205DG      C2 4694   3.931   5.096   0.956  0.1288  0.2688 -0.4228
  205DG      H3 4695   3.378   4.407   0.910 -1.5014  2.6869  0.8651
  205DG      H4 4696   3.567   4.382   0.898  3.5544  0.5533 -1.1540
  205DG      H5 4697   3.463   4.409   0.755  0.2642 -1.6468 -1.2826
  205DG      H6 4698   4.033   5.100   0.931 -0.1296 -0.2369  1.4057
  205DG      H7 4699   3.868   5.128   0.875 -1.8328 -1.6840 -1.1306
  205DG      H8 4700   3.912   5.159   1.041  1.9954 -0.0421 -0.6876
  205DG      O9 4701   3.503   4.572   0.868 -0.1591  0.7999 -0.2833
  205DG     O10 4702   3.878   4.962   0.973 -0.0788 -0.3870 -0.1471
  205DG     C11 4703   3.535   4.622   0.995  0.2817  0.9279  0.3599
  205DG     C12 4704   3.868   4.878   0.859  0.0472  0.3985  0.4522
  205DG     H13 4705   3.621   4.562   1.044  2.1565  0.5800  0.9093
  205DG     H14 4706   3.451   4.611   1.062  2.4259 -0.4445 -1.5785
  205DG     H15 4707   3.973   4.860   0.838 -3.5411 -0.5802 -1.8205
  205DG     H16 4708   3.825   4.925   0.766 -1.3906 -3.9199 -0.5123
  205DG     C17 4709   3.571   4.769   1.000  0.2308  0.6886 -0.0421
  205DG     C18 4710   3.785   4.754   0.887  0.4943 -0.1901 -0.3289
  205DG     O19 4711   3.649   4.797   0.892 -0.0938 -0.4488  0.0027
  205DG     H20 4712   3.620   4.789   1.095 -1.0804 -1.9600  1.1829
  205DG     H21 4713   3.478   4.837   0.990  0.8191 -1.6986  0.2308
  205DG     H22 4714   3.812   4.686   0.808 -0.5907  1.5620 -2.5831
  205DG     H23 4715   3.815   4.704   0.979 -1.4316 -0.8648  2.3750
  206DG      C1 4716   3.799   2.485   3.578  0.3033  0.4156 -0.0867
  206DG      C2 4717   3.649   3.037   3.243 -0.0801  0.1803 -0.0797
  206DG      H3 4718   3.817   2.521   3.681  1.4279  0.8259  2.1989
  206DG      H4 4719   3.842   2.386   3.576  0.8243 -0.3753 -3.9276
  206DG      H5 4720   3.691   2.486   3.556  2.5929  0.7810 -1.2185
  206DG      H6 4721   3.671   3.128   3.309  0.3074  1.7692 -0.5535
  206DG      H7 4722   3.652   3.071   3.144  2.0271 -0.2800  2.8879
  206DG      H8 4723   3.562   2.985   3.276 -0.8162 -2.5402 -3.6873
  206DG      O9 4724   3.856   2.570   3.483  0.3097 -0.2095  0.3851
  206DG     O10 4725   3.751   2.938   3.265  0.3690  1.2729 -0.3641
  206DG     C11 4726   3.995   2.572   3.487  0.2131 -0.3209 -0.6530
  206DG     C12 4727   3.879   2.990   3.267  0.0664 -0.1602 -0.5434
  206DG     H13 4728   4.041   2.477   3.471 -0.0271  1.5943  1.3858
  206DG     H14 4729   4.030   2.629   3.572  1.0349  0.7488 -0.9714
  206DG     H15 4730   3.885   3.045   3.359  2.0159  0.8579  3.3590
  206DG     H16 4731   3.896   3.042   3.174 -1.7449  1.2770  0.4695
  206DG     C17 4732   4.025   2.663   3.357  0.1522  0.2404 -0.1252
  206DG     C18 4733   3.978   2.877   3.266 -0.2804  0.4349 -0.4064
  206DG     O19 4734   3.958   2.785   3.372 -0.1487 -0.2556 -0.1712
  206DG     H20 4735   3.993   2.603   3.268  1.9245  1.5793 -1.0051
  206DG     H21 4736   4.134   2.681   3.343 -1.6285 -1.1830 -0.9039
  206DG     H22 4737   3.974   2.835   3.166 -0.8759  0.3017  0.7915
  206DG     H23 4738   4.075   2.923   3.283 -0.5456 -0.2685 -2.7159
  207DG      C1 4739   3.246   0.143   2.182  0.1056  0.6566 -0.7531
  207DG      C2 4740   3.143  -0.121   2.767 -0.8654  0.9171 -0.2123
  207DG      H3 4741   3.167   0.206   2.128  0.0739 -1.6714 -0.5573
  207DG      H4 4742   3.247   0.036   2.156 -1.6417 -0.3604 -0.6861
  207DG      H5 4743   3.352   0.172   2.159  0.4512 -0.5084 -1.2771
  207DG      H6 4744   3.153  -0.217   2.711  0.7183 -0.0509  0.0376
  207DG      H7 4745   3.192  -0.141   2.856 -0.0479  0.6547 -2.6585
  207DG      H8 4746   3.039  -0.111   2.798  0.8876  1.8760  2.1702
  207DG      O9 4747   3.221   0.165   2.314 -0.2421  0.1663 -0.0506
  207DG     O10 4748   3.206  -0.012   2.702  0.8111  0.1385 -0.9736
  207DG     C11 4749   3.207   0.305   2.342  0.8444 -0.2592  0.0865
  207DG     C12 4750   3.187   0.111   2.777 -0.2661 -0.0675  0.0054
  207DG     H13 4751   3.098   0.322   2.330 -0.7525 -2.1109  0.5451
  207DG     H14 4752   3.272   0.362   2.273  0.8177 -0.5948  0.2039
  207DG     H15 4753   3.231   0.105   2.878 -2.3674  1.2971  2.0130
  207DG     H16 4754   3.084   0.123   2.797 -0.5693  2.7936 -0.1056
  207DG     C17 4755   3.252   0.328   2.487 -0.0953 -0.3002 -0.5033
  207DG     C18 4756   3.234   0.239   2.706  0.0780  0.2991 -0.4158
  207DG     O19 4757   3.204   0.221   2.571  0.1460  0.2655  0.0926
  207DG     H20 4758   3.226   0.425   2.537 -1.2263  0.4260  1.1507
  207DG     H21 4759   3.362   0.315   2.492  1.6252  1.1296  0.2826
  207DG     H22 4760   3.171   0.318   2.744  0.0649 -0.3354  0.6010
  207DG     H23 4761   3.338   0.255   2.722 -3.5998 -1.8090 -1.6965
  208DG      C1 4762   0.076   5.315   4.307  0.1328  0.2884  0.8710
  208DG      C2 4763   0.751   5.245   4.274 -0.1849  1.0997 -0.1690
  208DG      H3 4764   0.072   5.291   4.407 -2.3484  1.1851 -3.3911
  208DG      H4 4765   0.091   5.220   4.267  2.7141 -1.1824 -0.2557
  208DG      H5 4766  -0.021   5.345   4.265 -1.8203 -0.0436 -0.5393
  208DG      H6 4767   0.757   5.150   4.222 -1.7669  1.2020  2.0119
  208DG      H7 4768   0.843   5.300   4.252 -0.5902  0.6273 -0.2428
  208DG      H8 4769   0.737   5.234   4.379 -1.0448 -0.7124  0.5715
  208DG      O9 4770   0.187   5.395   4.277 -0.3401 -0.2338  0.1461
  208DG     O10 4771   0.638   5.319   4.223 -0.3899  0.1904  0.0804
  208DG     C11 4772   0.192   5.412   4.139 -0.3043 -0.4084 -0.2715
  208DG     C12 4773   0.645   5.355   4.090 -0.3255  0.2449  0.3313
  208DG     H13 4774   0.107   5.472   4.111  0.9997 -1.0785 -2.0951
  208DG     H14 4775   0.198   5.321   4.083  2.0676  1.3740 -0.2760
  208DG     H15 4776   0.628   5.267   4.028  0.3755 -1.9105  1.9545
  208DG     H16 4777   0.740   5.381   4.045  0.7237  2.7710  1.3594
  208DG     C17 4778   0.311   5.497   4.088 -0.8959 -0.6811  0.2763
  208DG     C18 4779   0.547   5.467   4.058  0.1889 -0.7994 -0.0811
  208DG     O19 4780   0.426   5.424   4.127  0.4188 -0.1730  0.0664
  208DG     H20 4781   0.299   5.599   4.127 -0.6594  0.6114 -2.1077
  208DG     H21 4782   0.299   5.506   3.977 -0.2989  0.0661  3.4776
  208DG     H22 4783   0.579   5.556   4.108 -0.0451 -1.0206  1.4338
  208DG     H23 4784   0.532   5.477   3.948 -3.1061 -0.4304 -1.3623
  209DG      C1 4785   1.431   1.749   3.174 -0.7041 -0.0530 -1.0903
  209DG      C2 4786   2.113   1.676   3.571 -0.7158 -0.0369 -0.4444
  209DG      H3 4787   1.333   1.701   3.193  0.6435  0.4232 -2.0624
  209DG      H4 4788   1.501   1.681   3.130 -0.3258  1.4617  4.4192
  209DG      H5 4789   1.425   1.832   3.104 -2.2953  1.3343 -1.6347
  209DG      H6 4790   2.171   1.710   3.660 -0.2033 -0.5363  1.6116
  209DG      H7 4791   2.124   1.568   3.564  0.7979  0.5733  1.9954
  209DG      H8 4792   2.149   1.723   3.486 -2.5903  1.4088 -1.3700
  209DG      O9 4793   1.494   1.789   3.297 -0.3638  0.2470 -0.1910
  209DG     O10 4794   1.977   1.690   3.598  0.0289  0.0252  0.6882
  209DG     C11 4795   1.515   1.685   3.389 -0.0897 -0.7242  0.4709
  209DG     C12 4796   1.922   1.826   3.621 -0.2034  0.4644  0.4321
  209DG     H13 4797   1.560   1.596   3.340  0.4767 -0.2163  0.1780
  209DG     H14 4798   1.415   1.662   3.418  0.0776  0.2632  1.8810
  209DG     H15 4799   1.966   1.884   3.542  0.9728 -2.9024  1.1102
  209DG     H16 4800   1.968   1.872   3.703 -0.0756  1.4148  0.6787
  209DG     C17 4801   1.590   1.723   3.516 -0.8034  0.5160 -0.4228
  209DG     C18 4802   1.772   1.824   3.619 -0.3895 -0.0558 -0.2330
  209DG     O19 4803   1.723   1.764   3.497  0.0305 -0.4049 -0.0077
  209DG     H20 4804   1.595   1.639   3.587 -1.7019  1.8095 -2.1278
  209DG     H21 4805   1.526   1.797   3.570  0.4267 -1.4188  2.9354
  209DG     H22 4806   1.745   1.776   3.713 -0.8061  1.8095 -0.2351
  209DG     H23 4807   1.725   1.928   3.628 -1.2151  1.7051  1.4955
  210DG      C1 4808   0.757   4.590   0.450 -0.4741  0.6211  0.0187
  210DG      C2 4809   0.128   3.960   0.600  1.1464 -0.0209  0.0054
  210DG      H3 4810   0.799   4.671   0.393 -0.1379 -2.9660 -0.1214
  210DG      H4 4811   0.834   4.521   0.479  0.7993  0.3465  0.4643
  210DG      H5 4812   0.722   4.628   0.548  1.2699 -0.1063  0.5469
  210DG      H6 4813   0.078   4.030   0.670  1.6486 -0.9490  0.7706
  210DG      H7 4814   0.053   3.948   0.519 -0.7650 -1.0534  2.0661
  210DG      H8 4815   0.136   3.868   0.654  0.8434  0.3626  0.2677
  210DG      O9 4816   0.659   4.521   0.371  0.2029  0.4931 -0.1505
  210DG     O10 4817   0.253   4.014   0.564  0.0510  0.8390  0.0245
  210DG     C11 4818   0.574   4.432   0.441 -0.6498 -0.1193 -0.7638
  210DG     C12 4819   0.245   4.144   0.516  0.5789  0.4106 -0.2404
  210DG     H13 4820   0.511   4.485   0.514  1.1315 -1.3991 -1.3759
  210DG     H14 4821   0.618   4.367   0.511 -0.4040  1.5918 -1.6165
  210DG     H15 4822   0.167   4.197   0.568  1.0757 -1.8522  0.8452
  210DG     H16 4823   0.217   4.140   0.416  0.2994  0.8948  2.3051
  210DG     C17 4824   0.477   4.362   0.342  0.1272 -0.8273  0.1437
  210DG     C18 4825   0.370   4.223   0.514 -0.0555 -0.0472  0.7720
  210DG     O19 4826   0.358   4.309   0.401  0.6117 -0.4411  0.0241
  210DG     H20 4827   0.530   4.297   0.281  2.1486  0.6119  0.4652
  210DG     H21 4828   0.444   4.440   0.274  0.9053  1.3139  1.6714
  210DG     H22 4829   0.396   4.278   0.602  0.3354 -0.5095 -2.3665
  210DG     H23 4830   0.463   4.166   0.492 -1.9543 -0.3038 -0.4076
  211DG      C1 4831   2.940   2.542   1.985 -0.5875  0.5571 -1.0153
  211DG      C2 4832   2.582   3.118   2.547  0.4483  0.0907  0.3603
  211DG      H3 4833   3.006   2.473   2.041  1.9409 -2.0302  0.2524
  211DG      H4 4834   3.001   2.614   1.944 -1.3881 -0.3638 -1.3175
  211DG      H5 4835   2.888   2.485   1.914  0.1400  2.4370  0.6695
  211DG      H6 4836   2.692   3.136   2.538  5.3869  0.0267  1.7919
  211DG      H7 4837   2.524   3.202   2.504 -1.9422 -1.0068 -2.1965
  211DG      H8 4838   2.568   3.117   2.659  0.6233  0.1509  0.3104
  211DG      O9 4839   2.854   2.592   2.085 -0.0942 -0.5683 -0.3485
  211DG     O10 4840   2.561   2.990   2.492 -0.3283 -0.1744  0.0677
  211DG     C11 4841   2.778   2.696   2.026 -0.2085  0.1695 -0.9231
  211DG     C12 4842   2.603   2.973   2.364 -0.1806  0.1371  0.6250
  211DG     H13 4843   2.740   2.668   1.927 -2.4047  2.4223 -0.5951
  211DG     H14 4844   2.826   2.790   2.013 -1.5087 -0.1880  1.1329
  211DG     H15 4845   2.702   3.017   2.351 -0.4644  1.0283  1.4126
  211DG     H16 4846   2.533   3.016   2.298  1.0716 -1.0791  0.0831
  211DG     C17 4847   2.656   2.707   2.125 -0.0080 -0.0195  0.1376
  211DG     C18 4848   2.625   2.828   2.327  0.2530 -0.0816  0.2964
  211DG     O19 4849   2.697   2.812   2.208 -0.3688  0.1335  0.1420
  211DG     H20 4850   2.648   2.619   2.180 -0.5627  1.5136 -1.9636
  211DG     H21 4851   2.569   2.733   2.067  1.6850  3.3431 -1.6894
  211DG     H22 4852   2.671   2.767   2.408 -1.6649 -3.5371  0.6348
  211DG     H23 4853   2.530   2.780   2.321 -0.2571  1.0074 -0.4580
  212DG      C1 4854   4.309   1.561   3.113 -0.4782  0.1608 -0.4459
  212DG      C2 4855   4.028   1.968   3.248  0.2577  0.7135 -0.5044
  212DG      H3 4856   4.372   1.518   3.034  1.5292 -0.1057 -0.5502
  212DG      H4 4857   4.211   1.517   3.101  0.0125  2.0653 -0.7972
  212DG      H5 4858   4.341   1.515   3.206 -2.3846  0.7378  2.6581
  212DG      H6 4859   3.973   1.887   3.212  1.6348  0.3661  0.6164
  212DG      H7 4860   4.104   1.929   3.321 -2.5826 -2.5937 -1.6542
  212DG      H8 4861   3.960   2.038   3.299 -1.5550  0.0554  0.6337
  212DG      O9 4862   4.315   1.698   3.113 -0.1432  0.1441 -0.0167
  212DG     O10 4863   4.078   2.033   3.132 -0.3332 -0.3727  0.1786
  212DG     C11 4864   4.438   1.754   3.119 -0.0312  0.0017 -0.1236
  212DG     C12 4865   4.164   2.143   3.153 -0.2904 -0.2131  0.0169
  212DG     H13 4866   4.486   1.755   3.026 -0.4752 -0.2583  1.6482
  212DG     H14 4867   4.504   1.694   3.176  1.1390 -1.3178  0.5151
  212DG     H15 4868   4.131   2.208   3.235  1.8796 -2.0319 -0.6931
  212DG     H16 4869   4.158   2.206   3.065  0.8963 -1.3290  0.5853
  212DG     C17 4870   4.427   1.894   3.185 -0.6100  0.4147  0.2954
  212DG     C18 4871   4.304   2.097   3.187 -0.2619  0.9621 -0.2778
  212DG     O19 4872   4.319   1.971   3.128 -0.5656 -0.3130 -0.0120
  212DG     H20 4873   4.524   1.951   3.174 -0.2774  0.2567  0.8338
  212DG     H21 4874   4.419   1.890   3.300  0.2500  2.0926  0.2974
  212DG     H22 4875   4.387   2.160   3.148 -0.4469 -0.3733 -1.0324
  212DG     H23 4876   4.322   2.089   3.297 -0.0238  1.4531 -1.1599
  213DG      C1 4877   2.266   2.695   5.307  0.1374  0.5951 -0.0505
  213DG      C2 4878   2.286   3.188   5.761 -0.0519 -0.5419 -0.8332
  213DG      H3 4879   2.371   2.691   5.293  1.0473 -0.8487 -0.0523
  213DG      H4 4880   2.206   2.653   5.226 -3.4467  0.0022  0.6862
  213DG      H5 4881   2.245   2.627   5.385 -2.0525  1.1711 -2.0819
  213DG      H6 4882   2.377   3.133   5.793 -0.4122  0.4143 -0.4140
  213DG      H7 4883   2.291   3.288   5.807 -0.0133  0.1040  0.2688
  213DG      H8 4884   2.208   3.148   5.825  2.2054 -1.7403 -1.6376
  213DG      O9 4885   2.217   2.819   5.342 -0.3826 -0.1521  0.1422
  213DG     O10 4886   2.248   3.170   5.633 -0.0853 -0.5255 -0.6258
  213DG     C11 4887   2.239   2.907   5.234 -0.5215 -0.2977 -0.4865
  213DG     C12 4888   2.319   3.246   5.542 -0.6836 -0.5322  0.3940
  213DG     H13 4889   2.177   2.874   5.149 -0.3975  1.2384  1.6280
  213DG     H14 4890   2.346   2.909   5.207  0.6400 -1.8011  2.8648
  213DG     H15 4891   2.422   3.214   5.536 -0.0753  1.7490 -0.2210
  213DG     H16 4892   2.309   3.360   5.563  1.6113  2.5252 -0.8945
  213DG     C17 4893   2.189   3.044   5.270 -0.3446  0.2428  0.6416
  213DG     C18 4894   2.264   3.226   5.398  0.3197 -0.0980 -0.8277
  213DG     O19 4895   2.244   3.084   5.395  0.6418 -0.7388  0.6346
  213DG     H20 4896   2.080   3.046   5.288  1.9673  1.5224  1.2898
  213DG     H21 4897   2.214   3.115   5.192  2.7872 -1.2613 -0.0662
  213DG     H22 4898   2.170   3.274   5.385  1.2757 -1.7880 -0.4856
  213DG     H23 4899   2.327   3.281   5.324 -1.2754  0.2326  0.5010
  214DG      C1 4900   4.813   1.210   0.758 -0.1379 -0.4888  0.1659
  214DG      C2 4901   4.429   1.146   0.242  0.2505 -0.0209  0.0273
  214DG      H3 4902   4.829   1.111   0.736 -1.2679  1.5435 -1.8141
  214DG      H4 4903   4.712   1.206   0.805 -1.6818 -0.1632  2.3805
  214DG      H5 4904   4.880   1.234   0.841 -2.3236 -0.4044  0.5932
  214DG      H6 4905   4.349   1.146   0.316 -0.5125 -2.0323  2.4555
  214DG      H7 4906   4.383   1.189   0.154 -2.3464  1.5409  3.3074
  214DG      H8 4907   4.469   1.047   0.230 -0.6786 -2.3843  2.7515
  214DG      O9 4908   4.811   1.278   0.633 -1.2691 -0.5071  0.0049
  214DG     O10 4909   4.536   1.234   0.275  0.2651 -0.1251 -0.5473
  214DG     C11 4910   4.934   1.253   0.566 -0.9369 -0.7648 -0.1287
  214DG     C12 4911   4.654   1.210   0.188  0.3532  0.0240 -0.3718
  214DG     H13 4912   4.949   1.146   0.555  4.5660 -1.8954  0.1080
  214DG     H14 4913   5.024   1.290   0.619 -0.0304 -2.9873 -1.3034
  214DG     H15 4914   4.644   1.226   0.078 -0.0924 -2.6618 -0.5665
  214DG     H16 4915   4.676   1.108   0.198 -0.8868  1.4317 -1.7642
  214DG     C17 4916   4.932   1.311   0.421  0.2467  0.0506 -0.5278
  214DG     C18 4917   4.764   1.305   0.234  0.3129  0.1950 -0.6874
  214DG     O19 4918   4.804   1.265   0.363 -0.4348  0.2868 -0.0753
  214DG     H20 4919   5.016   1.266   0.369  0.6048 -0.4757 -0.5741
  214DG     H21 4920   4.955   1.417   0.415  1.9912 -1.7351 -1.6444
  214DG     H22 4921   4.849   1.293   0.172  0.4298  0.0524  1.3825
  214DG     H23 4922   4.735   1.415   0.231 -1.7818  2.0253 -0.1586
  215DG      C1 4923   4.345   3.755   0.088 -0.1850  0.4832 -0.3694
  215DG      C2 4924   4.236   3.564  -0.504  0.4724 -0.4633  0.0119
  215DG      H3 4925   4.338   3.828   0.166 -0.1685  0.7999 -1.0735
  215DG      H4 4926   4.450   3.737   0.073  2.0630 -0.3512  0.4173
  215DG      H5 4927   4.294   3.663   0.105 -1.8537  0.5552 -0.3794
  215DG      H6 4928   4.316   3.505  -0.468 -0.2338 -0.5543  1.2761
  215DG      H7 4929   4.161   3.489  -0.540 -1.8265 -1.5036 -2.9056
  215DG      H8 4930   4.284   3.625  -0.586 -0.2881  1.2569 -1.4856
  215DG      O9 4931   4.300   3.819  -0.032 -0.5094 -0.4877  0.0029
  215DG     O10 4932   4.192   3.647  -0.394 -0.0275  0.2524  0.3712
  215DG     C11 4933   4.162   3.869  -0.022  0.2966 -0.5666  0.2215
  215DG     C12 4934   4.070   3.711  -0.433 -0.1824  0.1954 -0.2694
  215DG     H13 4935   4.152   3.940   0.061  0.7086  2.4855 -0.0319
  215DG     H14 4936   4.092   3.796   0.003 -0.6806  3.5415  2.2739
  215DG     H15 4937   3.994   3.633  -0.468 -2.9533  2.0280 -1.8705
  215DG     H16 4938   4.099   3.776  -0.513 -1.3369 -1.6800  1.4958
  215DG     C17 4939   4.111   3.938  -0.155  0.0923 -0.7646 -0.3486
  215DG     C18 4940   4.017   3.787  -0.311 -0.6039 -0.0379 -0.0913
  215DG     O19 4941   4.134   3.868  -0.274 -0.0315 -0.2786 -0.4196
  215DG     H20 4942   4.172   4.032  -0.173  0.5240  3.6028 -0.2229
  215DG     H21 4943   4.014   3.974  -0.144  1.0546  0.0147 -0.3300
  215DG     H22 4944   3.939   3.856  -0.334 -0.3741 -0.2587 -0.3763
  215DG     H23 4945   3.998   3.737  -0.217  0.5109  0.7979 -2.4232
  216DG      C1 4946   1.768   0.798   0.303 -0.3769 -0.9162  0.5626
  216DG      C2 4947   2.195   1.215   0.511  0.6874  0.2772  0.5018
  216DG      H3 4948   1.777   0.861   0.211  2.3817  1.0905 -1.4767
  216DG      H4 4949   1.686   0.828   0.370 -2.7657 -1.5860  1.9180
  216DG      H5 4950   1.736   0.701   0.270  0.6185  0.7504 -0.6822
  216DG      H6 4951   2.167   1.256   0.611 -0.7949 -0.4421  1.5736
  216DG      H7 4952   2.306   1.222   0.493  2.8016  2.4006  3.6758
  216DG      H8 4953   2.147   1.260   0.432  1.1056  0.8108  0.4796
  216DG      O9 4954   1.901   0.788   0.352  0.3554 -0.0610 -0.1666
  216DG     O10 4955   2.167   1.081   0.502  0.1568  0.1479  0.1758
  216DG     C11 4956   1.914   0.698   0.464  0.0608 -0.0778 -0.1340
  216DG     C12 4957   2.213   1.008   0.617 -0.1065  0.3777  0.3649
  216DG     H13 4958   1.880   0.598   0.433 -1.1465  1.6382  0.3745
  216DG     H14 4959   1.838   0.723   0.540 -0.5838 -0.3513 -0.5107
  216DG     H15 4960   2.150   1.035   0.697  1.0337 -1.1786 -1.2535
  216DG     H16 4961   2.319   1.034   0.635  1.4327  0.6496 -0.2884
  216DG     C17 4962   2.056   0.691   0.525 -0.3372 -0.5707  0.2294
  216DG     C18 4963   2.207   0.861   0.582 -0.1092 -0.2965  1.3856
  216DG     O19 4964   2.079   0.828   0.539 -0.1822 -0.4144 -0.2096
  216DG     H20 4965   2.139   0.655   0.462  1.7253 -1.5746 -0.6632
  216DG     H21 4966   2.067   0.645   0.619  0.8021 -0.7744 -1.4558
  216DG     H22 4967   2.286   0.835   0.511  0.4714  0.3793  1.2143
  216DG     H23 4968   2.229   0.807   0.674 -0.9953  0.6598  2.9567
  217DG      C1 4969   5.440   3.578   3.679 -0.0396  0.3741  0.4277
  217DG      C2 4970   6.015   3.476   3.381  0.2131  0.1650  0.3438
  217DG      H3 4971   5.392   3.607   3.587  0.2162 -2.3914 -0.3118
  217DG      H4 4972   5.497   3.664   3.718  3.4299 -0.3885  0.4393
  217DG      H5 4973   5.370   3.546   3.754  2.3756 -2.5386  0.7647
  217DG      H6 4974   6.108   3.420   3.354 -1.4234 -2.0102  1.5867
  217DG      H7 4975   5.969   3.511   3.292 -2.0781  2.6818  0.7668
  217DG      H8 4976   6.047   3.565   3.439 -1.0850 -1.5311 -2.1767
  217DG      O9 4977   5.536   3.475   3.651 -0.2404 -0.0015  0.6378
  217DG     O10 4978   5.922   3.398   3.456  0.1633 -0.6392 -0.4464
  217DG     C11 4979   5.487   3.364   3.578 -0.1717  0.2700 -0.1177
  217DG     C12 4980   5.908   3.268   3.404  0.9168  0.2066  0.1270
  217DG     H13 4981   5.469   3.405   3.476 -1.5824  2.1906  0.2957
  217DG     H14 4982   5.386   3.318   3.607  0.2986 -1.7142  0.0855
  217DG     H15 4983   5.988   3.200   3.408 -2.1406 -1.4179 -2.1606
  217DG     H16 4984   5.900   3.277   3.286  1.3654  0.6725  0.2355
  217DG     C17 4985   5.591   3.253   3.592 -0.4338  0.4395  0.2203
  217DG     C18 4986   5.805   3.198   3.486  0.5930  0.9642 -0.2783
  217DG     O19 4987   5.705   3.296   3.519  0.8140  0.2100 -0.1442
  217DG     H20 4988   5.559   3.156   3.553 -0.7457  0.5984 -1.5556
  217DG     H21 4989   5.605   3.236   3.698 -1.2955  1.2271  0.1528
  217DG     H22 4990   5.765   3.122   3.430 -1.0844  1.3347  4.3316
  217DG     H23 4991   5.849   3.134   3.568  1.6489  1.5985 -0.7549
  218DG      C1 4992   0.334   5.039   1.912  0.4910  0.3615  0.4715
  218DG      C2 4993   0.497   4.515   1.356 -0.4362 -0.0610  0.5998
  218DG      H3 4994   0.263   5.052   1.986  3.5430 -0.7484 -0.3742
  218DG      H4 4995   0.335   5.124   1.844 -0.7500  0.4218  0.4836
  218DG      H5 4996   0.418   5.043   1.973 -2.2435 -0.4581 -0.2029
  218DG      H6 4997   0.573   4.577   1.313  0.6086 -0.7417 -2.5363
  218DG      H7 4998   0.565   4.448   1.411  1.3199  0.4846 -1.5475
  218DG      H8 4999   0.447   4.463   1.274 -1.0860  1.5961 -0.2367
  218DG      O9 5000   0.312   4.916   1.851 -0.1057 -0.1502 -0.1151
  218DG     O10 5001   0.421   4.598   1.430  0.2162  0.7270  0.1418
  218DG     C11 5002   0.215   4.932   1.752 -0.3534 -0.5045 -0.9427
  218DG     C12 5003   0.348   4.521   1.527 -0.1940 -0.3439  0.6770
  218DG     H13 5004   0.253   4.968   1.659 -2.7316 -0.2973  0.7850
  218DG     H14 5005   0.124   4.983   1.781 -0.4593 -0.5155 -1.2161
  218DG     H15 5006   0.410   4.495   1.610  0.4623 -1.1289  0.9013
  218DG     H16 5007   0.304   4.429   1.481  1.8251 -1.7705  0.4106
  218DG     C17 5008   0.175   4.795   1.702  0.4950  0.7492 -0.9158
  218DG     C18 5009   0.242   4.601   1.592  0.2693 -1.0673 -0.4207
  218DG     O19 5010   0.291   4.716   1.666 -0.0617  0.2470 -0.4973
  218DG     H20 5011   0.111   4.801   1.618 -1.4177 -1.9593 -0.2412
  218DG     H21 5012   0.131   4.745   1.793  3.2831  0.4000  0.6153
  218DG     H22 5013   0.182   4.638   1.510  0.0659  2.2501 -0.6171
  218DG     H23 5014   0.182   4.531   1.650  2.4339  1.4565  0.1315
  219DG      C1 5015   2.974   0.703   4.303 -0.5342 -0.0688  0.3708
  219DG      C2 5016   2.982   0.146   4.032 -0.5016  0.1080 -0.3620
  219DG      H3 5017   3.036   0.712   4.213 -0.8621 -0.4968 -0.5763
  219DG      H4 5018   2.968   0.804   4.353  1.8309 -1.4077  1.1614
  219DG      H5 5019   2.869   0.674   4.270 -0.2021 -1.0613 -0.5126
  219DG      H6 5020   2.917   0.192   3.948 -0.6918  2.7424 -1.1178
  219DG      H7 5021   3.083   0.159   4.008  0.7990 -1.2182  2.1615
  219DG      H8 5022   2.958   0.037   4.036 -1.9636 -1.7577  2.0387
  219DG      O9 5023   3.044   0.601   4.377  0.3511  0.1201 -0.1062
  219DG     O10 5024   2.960   0.212   4.161 -0.0499  0.6848 -0.0476
  219DG     C11 5025   2.979   0.561   4.504  0.4243  0.0495 -0.0619
  219DG     C12 5026   2.821   0.206   4.204 -0.0462  0.4204  0.1614
  219DG     H13 5027   2.933   0.647   4.555 -0.0687  1.4186 -0.5830
  219DG     H14 5028   3.061   0.531   4.574  1.1856 -2.4887 -0.3011
  219DG     H15 5029   2.793   0.101   4.189  0.5338 -0.6651  1.6773
  219DG     H16 5030   2.758   0.268   4.145 -2.0323 -2.3329 -0.3623
  219DG     C17 5031   2.873   0.451   4.475 -0.6861  0.1373 -0.5936
  219DG     C18 5032   2.816   0.256   4.352  0.5393 -0.3384  0.2203
  219DG     O19 5033   2.909   0.363   4.367 -0.9989 -0.3839  0.0430
  219DG     H20 5034   2.780   0.500   4.454 -1.7531  2.5719 -1.8738
  219DG     H21 5035   2.863   0.393   4.568 -2.6426  1.8545 -2.3451
  219DG     H22 5036   2.717   0.284   4.390 -0.6442  0.6584 -0.0628
  219DG     H23 5037   2.851   0.181   4.422  0.4639  0.8183 -1.8216
  220DG      C1 5038   3.660   4.782   4.715 -0.0182  0.5849 -0.3853
  220DG      C2 5039   4.022   4.077   4.936  0.4485  0.5332 -0.7539
  220DG      H3 5040   3.731   4.835   4.649  2.6878  1.2336  0.3633
  220DG      H4 5041   3.679   4.824   4.819 -1.7891 -1.6317 -0.6129
  220DG      H5 5042   3.571   4.836   4.697 -1.8883  0.4585  2.1335
  220DG      H6 5043   3.983   3.998   5.004 -2.5335 -0.2647  0.8172
  220DG      H7 5044   4.051   4.027   4.846 -0.2552 -3.3299 -1.7061
  220DG      H8 5045   4.120   4.119   4.973  3.8035  2.2725  0.2437
  220DG      O9 5046   3.655   4.640   4.701 -0.0860 -0.9761 -0.1672
  220DG     O10 5047   3.932   4.186   4.912  0.1677  0.0753 -0.5553
  220DG     C11 5048   3.680   4.582   4.825 -0.4916  0.6388 -0.4561
  220DG     C12 5049   3.812   4.153   4.836 -0.3356 -0.2504 -0.7518
  220DG     H13 5050   3.590   4.595   4.881  0.1653 -1.7018  0.0522
  220DG     H14 5051   3.760   4.618   4.893  1.4769  2.9243  0.8477
  220DG     H15 5052   3.799   4.051   4.844  0.8876  1.3798  0.4871
  220DG     H16 5053   3.827   4.180   4.735  1.2225 -3.8007 -2.3291
  220DG     C17 5054   3.694   4.433   4.793  0.4528 -0.5884 -0.2652
  220DG     C18 5055   3.696   4.220   4.903  0.3525 -0.1692 -0.1984
  220DG     O19 5056   3.717   4.361   4.914 -0.1803  0.1475 -0.3025
  220DG     H20 5057   3.784   4.415   4.733 -0.2218  0.5133 -0.4986
  220DG     H21 5058   3.619   4.393   4.730  3.1126  0.2033 -0.3371
  220DG     H22 5059   3.598   4.185   4.864  2.1782 -0.6115  2.4566
  220DG     H23 5060   3.685   4.178   5.005 -1.4484 -0.0223 -2.4692
  221DG      C1 5061   1.776   5.138   5.448 -0.0549 -0.9522 -0.1990
  221DG      C2 5062   1.580   5.713   5.175 -0.3326 -0.6181 -0.4788
  221DG      H3 5063   1.769   5.055   5.514  1.0589 -1.8891  2.3478
  221DG      H4 5064   1.872   5.175   5.487 -1.4115 -1.3621 -0.8524
  221DG      H5 5065   1.783   5.095   5.344 -2.0533 -1.3668 -0.5953
  221DG      H6 5066   1.499   5.737   5.110  0.3568 -1.0991  2.5016
  221DG      H7 5067   1.616   5.813   5.204  3.4452  1.4168 -0.0880
  221DG      H8 5068   1.660   5.665   5.119  1.1749 -2.9609 -0.7668
  221DG      O9 5069   1.679   5.239   5.462 -0.2211 -0.4759  0.0333
  221DG     O10 5070   1.541   5.638   5.284  0.2670  0.2381 -0.1325
  221DG     C11 5071   1.548   5.194   5.470 -0.4008  0.4690 -0.8973
  221DG     C12 5072   1.410   5.580   5.264 -0.7459 -0.5298  1.3672
  221DG     H13 5073   1.554   5.130   5.561 -1.8250  0.2871  1.1914
  221DG     H14 5074   1.536   5.132   5.387 -0.5575 -4.1258  0.1461
  221DG     H15 5075   1.421   5.514   5.177  1.1252  0.6275  0.6686
  221DG     H16 5076   1.329   5.651   5.237  2.0731  0.5112  0.2628
  221DG     C17 5077   1.442   5.296   5.496  0.0947 -0.2724 -0.4963
  221DG     C18 5078   1.373   5.499   5.383  0.1273  0.8990  0.6060
  221DG     O19 5079   1.457   5.385   5.382 -0.2942 -0.0255 -0.1560
  221DG     H20 5080   1.466   5.343   5.594 -0.9682  2.7449 -0.0848
  221DG     H21 5081   1.348   5.258   5.508  0.3249 -0.3811 -1.1307
  221DG     H22 5082   1.395   5.556   5.475  1.1362  0.5358  1.9772
  221DG     H23 5083   1.275   5.454   5.392 -0.8530  0.8269  1.2576
  222DG      C1 5084   4.073   5.406   3.158  0.4960  0.7036 -0.7230
  222DG      C2 5085   4.574   4.978   3.315 -0.2357  0.1074 -0.2644
  222DG      H3 5086   4.007   5.397   3.242  0.9721  1.4840 -2.7152
  222DG      H4 5087   4.067   5.325   3.084  0.8198  0.5790  0.2302
  222DG      H5 5088   4.049   5.498   3.100 -0.9361  2.1880 -0.3085
  222DG      H6 5089   4.675   4.942   3.348  0.1115 -0.0590  1.3023
  222DG      H7 5090   4.502   4.934   3.382  1.2833 -1.7080 -0.7657
  222DG      H8 5091   4.547   4.952   3.216 -0.5351  2.3541  0.6155
  222DG      O9 5092   4.203   5.399   3.220 -0.5554 -0.3115 -0.0207
  222DG     O10 5093   4.559   5.119   3.312  0.0022 -0.1406  0.9003
  222DG     C11 5094   4.239   5.496   3.321  0.6205  0.7570 -0.9045
  222DG     C12 5095   4.577   5.174   3.443 -0.1985 -0.0361 -1.2230
  222DG     H13 5096   4.192   5.486   3.415 -0.0274  2.9537 -0.6026
  222DG     H14 5097   4.210   5.597   3.292 -2.1715 -0.7645  3.2290
  222DG     H15 5098   4.675   5.151   3.500  0.0234 -1.7300 -0.7219
  222DG     H16 5099   4.503   5.129   3.513  1.0318  0.3593 -1.8607
  222DG     C17 5100   4.387   5.480   3.355  0.1348  0.0428 -0.5930
  222DG     C18 5101   4.557   5.326   3.443 -0.2957 -0.9536  0.8015
  222DG     O19 5102   4.423   5.347   3.394 -0.3211 -0.5921  0.4580
  222DG     H20 5103   4.419   5.550   3.436  0.4852 -0.6971 -0.6533
  222DG     H21 5104   4.451   5.510   3.272  1.2291  0.8946  1.7176
  222DG     H22 5105   4.565   5.378   3.534  0.6412 -1.2932  0.6242
  222DG     H23 5106   4.627   5.366   3.367  2.0135 -0.6993 -1.1070
  223DG      C1 5107   2.542   3.767   4.380  0.3024 -0.0689 -0.4447
  223DG      C2 5108   3.178   3.550   4.147 -0.6472  0.5548 -0.0176
  223DG      H3 5109   2.595   3.732   4.468  1.8876  0.3869  1.2711
  223DG      H4 5110   2.451   3.713   4.369 -1.2422  0.4706  1.4303
  223DG      H5 5111   2.503   3.866   4.405 -2.3151 -2.1126 -0.6742
  223DG      H6 5112   3.165   3.637   4.217 -3.2782  1.8831  1.1127
  223DG      H7 5113   3.229   3.472   4.214 -0.1150  1.9083 -3.3109
  223DG      H8 5114   3.244   3.579   4.066 -1.3859  0.7789 -0.2986
  223DG      O9 5115   2.626   3.768   4.262 -0.0649 -0.4566 -0.2796
  223DG     O10 5116   3.060   3.485   4.107 -0.4811  0.1869  0.5788
  223DG     C11 5117   2.748   3.839   4.290  0.3158  0.8475  0.4139
  223DG     C12 5118   2.992   3.548   3.992 -0.3910 -0.3550 -0.0084
  223DG     H13 5119   2.807   3.809   4.377  0.2429 -0.0091 -0.2412
  223DG     H14 5120   2.724   3.946   4.311  2.6561  0.6012 -0.6080
  223DG     H15 5121   2.905   3.484   3.989 -1.9545  0.4587  1.0452
  223DG     H16 5122   3.041   3.540   3.895 -2.1124  1.1847 -1.1484
  223DG     C17 5123   2.841   3.835   4.169 -0.2453  0.7752 -0.5250
  223DG     C18 5124   2.932   3.688   4.015 -0.0835  0.0240  0.0144
  223DG     O19 5125   2.888   3.700   4.154  0.7387 -0.1985 -0.0376
  223DG     H20 5126   2.923   3.903   4.173 -1.4574 -0.7717  1.7969
  223DG     H21 5127   2.781   3.864   4.086 -2.3107 -3.9240  0.4323
  223DG     H22 5128   3.006   3.766   3.998  3.2511  0.1799 -1.1785
  223DG     H23 5129   2.840   3.702   3.943 -2.2228 -0.4691 -1.8279
  224DG      C1 5130   4.706   4.404   5.150  0.2020  0.3712 -0.0427
  224DG      C2 5131   4.761   4.861   4.648  0.2058 -0.0145  0.2792
  224DG      H3 5132   4.731   4.297   5.166 -0.6457  1.0247  2.2974
  224DG      H4 5133   4.608   4.423   5.111  3.3555 -1.5379 -1.8194
  224DG      H5 5134   4.718   4.444   5.251  1.2589 -0.7781 -0.6435
  224DG      H6 5135   4.814   4.924   4.579 -1.0102  1.7292  1.2239
  224DG      H7 5136   4.693   4.797   4.597  0.7334 -0.8693 -0.0954
  224DG      H8 5137   4.697   4.928   4.704 -0.5998 -0.8666 -1.6014
  224DG      O9 5138   4.799   4.469   5.066 -0.6683  0.5501 -0.6855
  224DG     O10 5139   4.850   4.774   4.716 -0.0426  0.4936 -0.1382
  224DG     C11 5140   4.939   4.462   5.112  0.0599 -0.0098  0.9032
  224DG     C12 5141   4.952   4.835   4.793  0.2791  0.3113  0.0178
  224DG     H13 5142   4.986   4.361   5.109 -1.0550 -1.2244  1.9378
  224DG     H14 5143   4.955   4.507   5.208  0.8533  1.3000 -3.1368
  224DG     H15 5144   4.914   4.907   4.866 -1.4420 -0.0246  1.7607
  224DG     H16 5145   5.004   4.895   4.725 -0.9526  0.6533  1.4847
  224DG     C17 5146   5.031   4.543   5.020  0.4112 -0.0747  0.3054
  224DG     C18 5147   5.044   4.732   4.863 -0.1217  0.1336  0.1457
  224DG     O19 5148   4.959   4.658   4.959 -0.6048 -0.1188 -0.1832
  224DG     H20 5149   5.060   4.488   4.929 -0.7200  0.9103 -0.1249
  224DG     H21 5150   5.131   4.573   5.068  0.8666  1.7371  0.5107
  224DG     H22 5151   5.074   4.672   4.776  0.9369  0.6686 -0.2696
  224DG     H23 5152   5.130   4.780   4.904 -0.7889 -0.4512  2.5369
  225DG      C1 5153   2.597   3.499   4.021  0.9472 -0.0571 -0.5391
  225DG      C2 5154   2.623   2.942   3.644 -0.3433  1.1583 -0.5590
  225DG      H3 5155   2.645   3.567   3.956  2.0733 -2.3202 -0.8852
  225DG      H4 5156   2.669   3.431   4.078  0.0553  0.0950  0.7325
  225DG      H5 5157   2.553   3.559   4.101  2.5209  2.0231 -0.1423
  225DG      H6 5158   2.563   2.856   3.625 -0.5161  1.3993 -0.9463
  225DG      H7 5159   2.680   2.967   3.554 -3.4169  1.4193 -0.5530
  225DG      H8 5160   2.687   2.924   3.734 -0.5866  1.1878 -0.2376
  225DG      O9 5161   2.510   3.422   3.935  0.3062 -0.1295 -0.1687
  225DG     O10 5162   2.549   3.055   3.691 -0.1950  0.0234 -0.1242
  225DG     C11 5163   2.447   3.501   3.844 -0.2987  0.2833  0.5327
  225DG     C12 5164   2.477   3.118   3.584 -0.2541  0.2112  0.3802
  225DG     H13 5165   2.527   3.557   3.796 -1.4661 -0.0540  1.8772
  225DG     H14 5166   2.368   3.569   3.888  2.0832  1.0550 -0.0850
  225DG     H15 5167   2.422   3.044   3.522 -1.1009  2.2131 -3.5030
  225DG     H16 5168   2.548   3.165   3.516 -0.5715 -0.8093 -1.4387
  225DG     C17 5169   2.359   3.419   3.755 -0.1398 -0.5106  0.6922
  225DG     C18 5170   2.376   3.227   3.629  0.0133  0.9526  0.1322
  225DG     O19 5171   2.444   3.313   3.709  0.5105 -0.1127 -0.1530
  225DG     H20 5172   2.313   3.481   3.673  0.1975 -0.2761  0.3248
  225DG     H21 5173   2.280   3.378   3.816  1.4437 -1.0119  0.4181
  225DG     H22 5174   2.342   3.282   3.544  3.9869 -1.5876  2.6435
  225DG     H23 5175   2.291   3.177   3.671 -0.1413 -0.1574  0.5103
  226DG      C1 5176   1.313   5.167   2.311  0.2008 -0.0890  0.6441
  226DG      C2 5177   0.753   5.372   2.772 -0.3702  0.0956  0.8411
  226DG      H3 5178   1.271   5.069   2.305  0.2579  1.2847 -0.8279
  226DG      H4 5179   1.399   5.163   2.376  0.0321  0.1257 -1.6223
  226DG      H5 5180   1.348   5.200   2.214  0.3291  2.4603 -1.1891
  226DG      H6 5181   0.709   5.274   2.769  0.4035  3.0371 -1.7615
  226DG      H7 5182   0.835   5.358   2.845  2.1443 -0.8929 -0.2550
  226DG      H8 5183   0.684   5.454   2.804  4.0439 -0.5492 -0.3541
  226DG      O9 5184   1.231   5.272   2.358  0.2130  0.3235 -0.0379
  226DG     O10 5185   0.805   5.396   2.642  0.1423 -0.8634 -0.3060
  226DG     C11 5186   1.099   5.271   2.309  0.0880  0.2762  0.4727
  226DG     C12 5187   0.885   5.515   2.643 -0.2673  0.2240  0.1608
  226DG     H13 5188   1.033   5.198   2.338  1.6179 -1.0450 -1.0934
  226DG     H14 5189   1.108   5.267   2.200  0.6017  0.8156 -0.6812
  226DG     H15 5190   0.969   5.485   2.711  1.3223  0.5966  0.2801
  226DG     H16 5191   0.830   5.600   2.678 -0.4427  0.1929  0.0389
  226DG     C17 5192   1.037   5.408   2.323 -0.5532  0.1367  0.2383
  226DG     C18 5193   0.939   5.538   2.500 -0.2894 -0.2099 -0.8088
  226DG     O19 5194   1.006   5.421   2.459 -0.5182 -0.0382  0.2335
  226DG     H20 5195   0.947   5.424   2.267  2.3304  1.2441  0.6311
  226DG     H21 5196   1.107   5.485   2.291  0.4217  1.0218 -1.6196
  226DG     H22 5197   0.855   5.567   2.442  0.6971  1.0136  1.2479
  226DG     H23 5198   1.002   5.630   2.510  0.4995  0.9026  1.9429
  227DG      C1 5199   4.932   3.105   3.508 -0.3258 -0.4992 -0.4663
  227DG      C2 5200   4.552   3.133   3.052 -0.4059 -0.2470  0.3242
  227DG      H3 5201   4.995   3.100   3.601  1.0380  0.9485  0.5455
  227DG      H4 5202   4.829   3.119   3.535  0.6331 -1.3057  0.8533
  227DG      H5 5203   4.959   3.192   3.454 -1.9625  1.1096 -0.8671
  227DG      H6 5204   4.580   3.079   2.964  1.7313 -0.8814  0.1880
  227DG      H7 5205   4.450   3.126   3.054 -1.2758  0.7272  0.8790
  227DG      H8 5206   4.587   3.235   3.049 -0.3186 -0.8852 -0.3118
  227DG      O9 5207   4.954   2.993   3.425 -0.4009 -0.1653  0.0819
  227DG     O10 5208   4.617   3.063   3.168 -0.4287 -0.2600  0.2600
  227DG     C11 5209   4.914   2.871   3.479 -0.1705  0.1116  0.7060
  227DG     C12 5210   4.550   2.935   3.192  0.3499 -0.0538  0.6795
  227DG     H13 5211   4.943   2.858   3.584 -0.9456 -0.0884  0.9867
  227DG     H14 5212   4.971   2.793   3.423  0.3478 -2.4860 -0.1875
  227DG     H15 5213   4.558   2.862   3.110  1.8473 -0.3505 -2.0275
  227DG     H16 5214   4.448   2.952   3.213  2.9934 -0.5610 -0.6854
  227DG     C17 5215   4.762   2.856   3.470 -0.0700  0.1792 -0.6819
  227DG     C18 5216   4.584   2.878   3.327  0.8692 -0.2414 -0.5148
  227DG     O19 5217   4.719   2.878   3.336 -0.0735 -0.4480  0.7240
  227DG     H20 5218   4.715   2.923   3.534 -0.0074 -1.3970 -0.5753
  227DG     H21 5219   4.720   2.759   3.509  0.9913 -1.4820 -0.4539
  227DG     H22 5220   4.530   2.932   3.413 -1.8019  0.4670 -0.2059
  227DG     H23 5221   4.559   2.773   3.336 -0.6753  0.4564  2.1092
  228DG      C1 5222   0.471   2.116   3.170 -0.3626 -0.2107  0.1153
  228DG      C2 5223   0.885   2.589   2.808 -0.3904  0.1889  0.6073
  228DG      H3 5224   0.376   2.145   3.126  0.4742  1.7066 -0.3636
  228DG      H4 5225   0.456   2.055   3.260 -1.5884 -1.9748  1.4085
  228DG      H5 5226   0.519   2.050   3.090  0.0222  1.4599 -0.2918
  228DG      H6 5227   0.917   2.502   2.750  1.7078 -1.6209  4.7272
  228DG      H7 5228   0.821   2.648   2.747  0.9053  1.7223 -3.1485
  228DG      H8 5229   0.970   2.652   2.830 -0.2693 -1.4090 -0.0575
  228DG      O9 5230   0.563   2.218   3.181 -0.1749 -0.0792  0.3669
  228DG     O10 5231   0.823   2.552   2.931  0.2335  0.1738 -0.4575
  228DG     C11 5232   0.525   2.322   3.275  0.3321 -0.1128  0.3477
  228DG     C12 5233   0.776   2.646   3.015  0.2672 -0.0028  0.1621
  228DG     H13 5234   0.514   2.284   3.376  0.6956  1.1561 -2.2832
  228DG     H14 5235   0.443   2.373   3.237 -0.6913 -1.3326  0.3875
  228DG     H15 5236   0.699   2.704   2.967  2.6024 -1.5862  0.0834
  228DG     H16 5237   0.847   2.727   3.024  0.6510  0.5815 -0.1381
  228DG     C17 5238   0.639   2.422   3.280  0.3172 -0.0006 -0.6311
  228DG     C18 5239   0.744   2.595   3.158  0.8417  0.2707  0.1390
  228DG     O19 5240   0.652   2.484   3.146  0.3189  0.0025 -0.4708
  228DG     H20 5241   0.733   2.372   3.318 -0.5985  0.7886  1.1177
  228DG     H21 5242   0.628   2.491   3.370  2.7388  0.6389 -0.7530
  228DG     H22 5243   0.839   2.575   3.203  0.3149  2.7214 -0.4965
  228DG     H23 5244   0.692   2.667   3.225  0.2133  0.0687  0.8884
  229DG      C1 5245   1.213   2.411   5.140 -0.3444  0.0629  0.6499
  229DG      C2 5246   0.718   2.515   5.443 -0.3328  0.3722 -0.0279
  229DG      H3 5247   1.219   2.327   5.207  2.3848  2.1372  1.8500
  229DG      H4 5248   1.256   2.498   5.190  1.6343  1.0485  3.9497
  229DG      H5 5249   1.278   2.395   5.052  0.5576 -1.1438  0.4888
  229DG      H6 5250   0.818   2.532   5.472  0.2775 -0.2556 -0.4159
  229DG      H7 5251   0.666   2.603   5.468 -0.6627 -1.2160 -0.0241
  229DG      H8 5252   0.694   2.433   5.515 -1.1879 -0.4005  0.8374
  229DG      O9 5253   1.082   2.453   5.112  0.1656 -0.8609 -0.1701
  229DG     O10 5254   0.707   2.485   5.303  0.2582  0.1338 -0.1959
  229DG     C11 5255   1.057   2.470   4.974 -0.5263  0.0709 -0.2708
  229DG     C12 5256   0.702   2.597   5.212 -0.2555 -0.1884 -0.3638
  229DG     H13 5257   1.038   2.371   4.932  1.3906  3.3859  0.5702
  229DG     H14 5258   1.142   2.523   4.930 -0.1185  1.6210  0.2942
  229DG     H15 5259   0.776   2.681   5.239  0.2962 -1.2402  1.2675
  229DG     H16 5260   0.604   2.644   5.221  0.8608  0.8699 -1.7407
  229DG     C17 5261   0.925   2.544   4.967 -0.6267 -0.7275  0.8101
  229DG     C18 5262   0.703   2.559   5.064 -0.0551 -0.1341 -0.0459
  229DG     O19 5263   0.817   2.474   5.026  0.3945  0.0426 -0.3834
  229DG     H20 5264   0.913   2.554   4.856  1.5171  0.3657 -0.6629
  229DG     H21 5265   0.932   2.648   4.996 -2.3343  1.6662  0.0053
  229DG     H22 5266   0.618   2.510   5.033 -1.1042  2.5310 -2.0562
  229DG     H23 5267   0.701   2.650   4.998 -0.1127  1.0195 -0.3213
  230DG      C1 5268   3.102   5.253   1.367  0.5634 -0.5745 -0.0835
  230DG      C2 5269   3.699   5.540   1.046 -0.0575 -0.0757 -0.5129
  230DG      H3 5270   3.019   5.192   1.348  1.7866  2.4832  0.3259
  230DG      H4 5271   3.049   5.347   1.382  1.9842  0.7957 -1.6629
  230DG      H5 5272   3.148   5.218   1.467 -0.4233 -0.5771  0.5726
  230DG      H6 5273   3.649   5.635   1.023 -0.3536  0.6654 -0.4221
  230DG      H7 5274   3.779   5.561   1.115  1.3845  0.2548 -0.5435
  230DG      H8 5275   3.737   5.511   0.944 -1.9799 -2.0760  1.1160
  230DG      O9 5276   3.193   5.253   1.253  0.2395 -0.6573  0.7254
  230DG     O10 5277   3.610   5.437   1.090 -0.1672 -0.0201  0.2977
  230DG     C11 5278   3.246   5.119   1.236  0.0538 -0.2363 -0.3661
  230DG     C12 5279   3.673   5.315   1.103  0.0956 -0.2364  0.6419
  230DG     H13 5280   3.168   5.050   1.208 -0.7714  0.5968  0.6720
  230DG     H14 5281   3.284   5.093   1.327 -0.5758  2.5388  0.0537
  230DG     H15 5282   3.735   5.307   1.191 -1.4350 -1.2042  0.9980
  230DG     H16 5283   3.741   5.295   1.021 -0.4864 -0.3267  2.8943
  230DG     C17 5284   3.350   5.116   1.126  0.3155 -0.0418 -0.5864
  230DG     C18 5285   3.564   5.215   1.079  0.4425 -0.2616 -0.2208
  230DG     O19 5286   3.454   5.205   1.168 -0.3996  0.3259 -0.9447
  230DG     H20 5287   3.316   5.140   1.028  0.1785 -2.0488  0.5907
  230DG     H21 5288   3.396   5.015   1.125 -0.5856  1.3874  0.2412
  230DG     H22 5289   3.514   5.244   0.991  1.0916 -0.1171 -1.0343
  230DG     H23 5290   3.600   5.110   1.064  0.1405 -4.5721  1.1238
  231DG      C1 5291   0.858   4.326   2.756  0.0753  0.0214 -0.1690
  231DG      C2 5292   0.318   4.688   3.116  0.0671  0.7134 -0.1049
  231DG      H3 5293   0.832   4.422   2.715 -1.3325 -2.4719  0.2991
  231DG      H4 5294   0.860   4.258   2.673 -0.8853  1.7496  3.3982
  231DG      H5 5295   0.959   4.330   2.797  1.3377  1.8393 -2.8316
  231DG      H6 5296   0.263   4.724   3.027  1.4747  1.8166 -0.4011
  231DG      H7 5297   0.252   4.701   3.202 -2.2990 -0.9936 -0.5859
  231DG      H8 5298   0.403   4.755   3.124  1.4748  0.3383 -1.0695
  231DG      O9 5299   0.769   4.281   2.857 -0.6166  0.9744 -0.6838
  231DG     O10 5300   0.349   4.552   3.090  0.7308  0.7269 -0.0098
  231DG     C11 5301   0.639   4.255   2.820  0.5752 -0.1573 -0.3843
  231DG     C12 5302   0.427   4.490   3.192  0.3424  0.9133 -0.0408
  231DG     H13 5303   0.652   4.160   2.756 -1.1100 -0.1715 -0.6946
  231DG     H14 5304   0.600   4.335   2.761  1.3135  1.6241 -0.1176
  231DG     H15 5305   0.363   4.480   3.279 -0.4842  2.6062 -2.4821
  231DG     H16 5306   0.522   4.542   3.204 -0.5322 -1.3661 -2.1177
  231DG     C17 5307   0.551   4.230   2.946  0.7062  0.2140 -0.7856
  231DG     C18 5308   0.455   4.345   3.135  0.5924  0.1415  0.7658
  231DG     O19 5309   0.537   4.354   3.018 -0.2415  0.2950  0.3293
  231DG     H20 5310   0.595   4.159   3.007  0.2529  0.4336 -0.9113
  231DG     H21 5311   0.453   4.195   2.907  3.8459  0.8857 -1.6425
  231DG     H22 5312   0.513   4.297   3.209 -2.6065  0.6117 -2.5789
  231DG     H23 5313   0.364   4.287   3.104 -0.0103  1.2669 -2.7021
  232DG      C1 5314   5.461   2.592   1.553  0.3679  0.3688 -0.4766
  232DG      C2 5315   5.056   3.144   1.742  0.3657  0.1753  0.5117
  232DG      H3 5316   5.503   2.567   1.459 -0.1529 -1.5768 -0.7057
  232DG      H4 5317   5.416   2.504   1.593 -1.0615  0.5668  0.5630
  232DG      H5 5318   5.547   2.626   1.615  1.4978  1.4162 -2.5176
  232DG      H6 5319   5.125   3.149   1.816 -0.3326  0.1570 -1.5401
  232DG      H7 5320   5.076   3.231   1.697  1.7324  0.4120 -1.4248
  232DG      H8 5321   4.958   3.152   1.800  0.2687 -2.3559 -1.5391
  232DG      O9 5322   5.365   2.698   1.531 -0.0773  0.0097  0.7808
  232DG     O10 5323   5.063   3.022   1.674 -0.3665 -0.2426  0.0149
  232DG     C11 5324   5.277   2.670   1.422  0.7239  0.2385 -0.1714
  232DG     C12 5325   4.973   3.008   1.565 -0.3156  0.1510 -0.2318
  232DG     H13 5326   5.194   2.602   1.453  0.7382  0.0018 -0.1416
  232DG     H14 5327   5.331   2.621   1.337  0.1740 -2.1953  0.9491
  232DG     H15 5328   4.916   3.103   1.550  2.2831  1.0205  0.5284
  232DG     H16 5329   4.902   2.922   1.576 -2.5315  0.2398 -0.6931
  232DG     C17 5330   5.210   2.801   1.366 -0.0998 -0.3517  0.0639
  232DG     C18 5331   5.057   2.974   1.436  0.5098  0.2508  0.2126
  232DG     O19 5332   5.116   2.844   1.462 -0.3631 -0.2970 -0.0508
  232DG     H20 5333   5.170   2.784   1.274 -2.4760  1.1089  1.6844
  232DG     H21 5334   5.287   2.879   1.344 -0.6850  0.5798  0.8778
  232DG     H22 5335   4.998   2.969   1.352 -1.0068 -1.4226  1.0895
  232DG     H23 5336   5.126   3.058   1.417 -1.6804 -1.6462  3.2031
  233DG      C1 5337   4.221   0.612   4.534 -0.0941  0.3670  0.0812
  233DG      C2 5338   4.212  -0.065   4.685  0.5349  0.4694  0.1316
  233DG      H3 5339   4.234   0.687   4.464 -0.4425 -0.4365 -0.3931
  233DG      H4 5340   4.288   0.636   4.610 -0.3638 -3.4907 -0.4752
  233DG      H5 5341   4.117   0.613   4.567 -1.5590  1.3930  1.0828
  233DG      H6 5342   4.107  -0.064   4.699 -0.4302 -1.8006 -2.3219
  233DG      H7 5343   4.241  -0.160   4.659 -1.5664 -0.3974  1.5797
  233DG      H8 5344   4.263  -0.047   4.781  1.6261  1.9363  2.6231
  233DG      O9 5345   4.238   0.482   4.475  0.3348  0.0908  0.1308
  233DG     O10 5346   4.237   0.021   4.572 -0.5523  0.3594  0.0132
  233DG     C11 5347   4.376   0.475   4.443  0.2756  0.2683 -0.7498
  233DG     C12 5348   4.371   0.002   4.529  0.1711  0.3148  0.2777
  233DG     H13 5349   4.437   0.483   4.532 -1.3579 -1.3692  3.4288
  233DG     H14 5350   4.404   0.558   4.385 -1.5026  0.0616 -1.2511
  233DG     H15 5351   4.378  -0.095   4.483 -0.9655 -1.7122 -2.0092
  233DG     H16 5352   4.456   0.005   4.607  1.9590 -1.4130  0.5327
  233DG     C17 5353   4.417   0.336   4.377 -0.6103 -0.4993 -0.8751
  233DG     C18 5354   4.400   0.099   4.425 -0.6650 -0.1700 -0.1587
  233DG     O19 5355   4.394   0.233   4.473 -0.6646 -0.5835 -0.1582
  233DG     H20 5356   4.523   0.324   4.330  0.5213 -1.0351 -2.3793
  233DG     H21 5357   4.350   0.325   4.294 -2.6458 -2.1927 -0.5353
  233DG     H22 5358   4.500   0.088   4.381  0.1005 -1.1615  0.0743
  233DG     H23 5359   4.315   0.078   4.354 -1.3695  1.0587  0.0519
  234DG      C1 5360   0.402   3.246   0.319 -0.1093 -0.6607 -0.4349
  234DG      C2 5361   0.695   2.802   0.595 -0.6419  0.7200 -0.6162
  234DG      H3 5362   0.367   3.153   0.276  0.5580 -0.5102  0.1839
  234DG      H4 5363   0.495   3.273   0.268  0.3404 -0.5730 -0.6778
  234DG      H5 5364   0.332   3.331   0.299  1.8605 -1.4490  1.5803
  234DG      H6 5365   0.710   2.726   0.667 -1.3745 -0.1184  0.5093
  234DG      H7 5366   0.641   2.757   0.513  0.5582 -1.2187  1.9902
  234DG      H8 5367   0.785   2.832   0.553 -0.9174 -1.6158  0.3200
  234DG      O9 5368   0.424   3.228   0.458  0.0167  0.0641  0.0022
  234DG     O10 5369   0.627   2.912   0.658 -0.0140  0.2759 -0.1376
  234DG     C11 5370   0.498   3.332   0.519  0.5618 -0.1443  0.3095
  234DG     C12 5371   0.698   2.968   0.765  0.8341  0.3415  0.1828
  234DG     H13 5372   0.446   3.425   0.530  1.8100 -0.4593 -0.1096
  234DG     H14 5373   0.592   3.347   0.461  0.5165 -0.9241  0.9187
  234DG     H15 5374   0.801   2.982   0.729 -0.5574  5.2815  0.6951
  234DG     H16 5375   0.706   2.912   0.857  1.8649 -0.9607 -1.5227
  234DG     C17 5376   0.541   3.279   0.655  0.2428 -0.4242 -0.4253
  234DG     C18 5377   0.639   3.107   0.774 -0.2854  0.4271  0.2069
  234DG     O19 5378   0.599   3.155   0.647 -0.0334  0.4768  0.5742
  234DG     H20 5379   0.457   3.273   0.726  0.3312 -0.8483  0.4156
  234DG     H21 5380   0.604   3.345   0.699 -1.7206  1.1562 -1.5452
  234DG     H22 5381   0.551   3.109   0.838 -0.9550 -0.2410 -0.9647
  234DG     H23 5382   0.719   3.165   0.822  1.5441  1.8381  1.0989
  235DG      C1 5383   1.561   4.089   2.592 -0.0702 -0.0853 -0.2247
  235DG      C2 5384   1.533   4.813   2.644  0.1323  0.1064 -0.1518
  235DG      H3 5385   1.523   3.989   2.612  3.1679  0.2764 -0.9563
  235DG      H4 5386   1.671   4.096   2.608 -0.4641  1.7694 -0.6512
  235DG      H5 5387   1.545   4.113   2.487  2.4052  0.5777 -0.3627
  235DG      H6 5388   1.503   4.890   2.705 -1.4518  0.8077 -0.4121
  235DG      H7 5389   1.638   4.794   2.671  1.0569  0.3148  0.1660
  235DG      H8 5390   1.541   4.845   2.541 -0.3135 -1.9486  1.4986
  235DG      O9 5391   1.501   4.184   2.678  0.1033  0.9140  0.1049
  235DG     O10 5392   1.447   4.704   2.638 -0.3373  0.3484  0.4250
  235DG     C11 5393   1.361   4.188   2.673  0.5596  0.1871  0.3066
  235DG     C12 5394   1.404   4.669   2.768  0.2287  0.3564 -0.3624
  235DG     H13 5395   1.325   4.098   2.713  3.1675  0.0742  1.9830
  235DG     H14 5396   1.327   4.194   2.572 -0.9146  0.7731  3.0235
  235DG     H15 5397   1.351   4.746   2.827 -2.2464 -0.1538  1.5681
  235DG     H16 5398   1.499   4.647   2.822  0.7052  0.9374  0.5503
  235DG     C17 5399   1.300   4.313   2.751  0.1520  0.1140  0.5601
  235DG     C18 5400   1.310   4.549   2.786 -0.2645 -0.2537 -0.0158
  235DG     O19 5401   1.354   4.436   2.712 -0.4075 -0.0377  0.6373
  235DG     H20 5402   1.304   4.297   2.855  0.2488 -1.7203 -1.9853
  235DG     H21 5403   1.192   4.317   2.737  2.6334  0.0349  0.3619
  235DG     H22 5404   1.288   4.529   2.895 -0.5576  0.7145 -0.3444
  235DG     H23 5405   1.212   4.576   2.752  1.5396  0.0966  2.0918
  236THF     O1 5406   2.441   3.365   1.772  0.3025  0.0459 -0.4199
  236THF     C2 5407   2.371   3.410   1.894 -0.0931 -0.3899 -0.3506
  236THF     C3 5408   2.548   3.450   1.745 -0.7386  0.1057  0.9109
  236THF     H4 5409   2.303   3.341   1.941 -1.0856 -0.0164 -0.2007
  236THF     H5 5410   2.296   3.479   1.854  0.4161 -1.5749 -3.1675
  236THF     H6 5411   2.625   3.397   1.686 -0.0526  0.6266 -0.1764
  236THF     H7 5412   2.509   3.532   1.692 -1.4134 -1.4743 -2.3474
  236THF     C8 5413   2.603   3.508   1.878  0.0747 -0.4559 -1.0380
  236THF     C9 5414   2.491   3.468   1.973  0.2346  0.5813 -0.6030
  236THF    H10 5415   2.619   3.616   1.880 -0.7648 -0.7100  0.7380
  236THF    H11 5416   2.700   3.460   1.902 -2.7016 -3.1699  1.3244
  236THF    H12 5417   2.520   3.401   2.049 -2.1889  0.4756  0.7846
  236THF    H13 5418   2.450   3.554   2.023 -2.7938  2.2038 -3.0133
  237THF     O1 5419   3.677   5.285   3.575  0.4233 -0.5193  0.0505
  237THF     C2 5420   3.702   5.171   3.488  0.1972  0.9250  0.2237
  237THF     C3 5421   3.791   5.307   3.647 -0.5469 -0.1048  0.7801
  237THF     H4 5422   3.631   5.150   3.405  0.2599 -0.5932 -0.2704
  237THF     H5 5423   3.695   5.081   3.550 -0.2717 -1.5588  0.5240
  237THF     H6 5424   3.802   5.412   3.683  0.1162  0.7753 -0.1916
  237THF     H7 5425   3.802   5.237   3.732 -1.4785 -1.6928  1.1321
  237THF     C8 5426   3.899   5.280   3.549  0.3221 -0.2977  0.8681
  237THF     C9 5427   3.842   5.190   3.443 -0.0421  0.0875 -0.4397
  237THF    H10 5428   3.971   5.226   3.608  1.5952 -1.8150  1.6295
  237THF    H11 5429   3.945   5.367   3.503  0.4218 -0.6854  0.3291
  237THF    H12 5430   3.835   5.255   3.357  0.3356 -1.0138 -0.5273
  237THF    H13 5431   3.910   5.107   3.414  2.8606  0.7490  0.4431
  238THF     O1 5432   1.902   3.596   5.278 -0.0632 -0.2357  0.4415
  238THF     C2 5433   1.951   3.718   5.226 -0.0152  0.6868 -0.2777
  238THF     C3 5434   1.922   3.498   5.176  0.4874 -0.7539 -0.5396
  238THF     H4 5435   1.992   3.783   5.302 -0.2276 -0.8563  1.0415
  238THF     H5 5436   1.875   3.770   5.168  0.4995 -0.5540  0.4924
  238THF     H6 5437   1.901   3.389   5.211 -0.3781  1.6224  1.1697
  238THF     H7 5438   1.848   3.510   5.097 -1.3468 -1.8164 -0.7204
  238THF     C8 5439   2.065   3.527   5.124  0.5694 -0.2479 -0.3951
  238THF     C9 5440   2.074   3.674   5.135  0.0755 -0.5629  0.2001
  238THF    H10 5441   2.087   3.498   5.026 -2.1038 -0.9042 -0.2757
  238THF    H11 5442   2.136   3.491   5.200 -0.8602 -2.5483 -1.6006
  238THF    H12 5443   2.170   3.709   5.168 -3.6368 -1.0390  1.1930
  238THF    H13 5444   2.050   3.716   5.036 -2.7905  0.8225 -0.1561
  239THF     O1 5445   5.481   0.963   4.672  0.1827 -0.1989  0.0776
  239THF     C2 5446   5.495   0.875   4.569  0.4182 -0.1138  0.1044
  239THF     C3 5447   5.457   1.097   4.619  0.6076 -0.9051 -0.0309
  239THF     H4 5448   5.398   0.843   4.534 -2.4089 -0.7556 -0.3593
  239THF     H5 5449   5.552   0.783   4.593  0.7705  2.1649  2.3548
  239THF     H6 5450   5.355   1.099   4.594  1.5617  1.4126  2.3991
  239THF     H7 5451   5.472   1.171   4.692  1.4694  1.6827  0.4090
  239THF     C8 5452   5.533   1.105   4.485 -0.3700 -0.1067  0.2152
  239THF     C9 5453   5.561   0.959   4.459 -0.5124  0.3746  0.0053
  239THF    H10 5454   5.627   1.161   4.502 -2.4779 -1.7358  0.5683
  239THF    H11 5455   5.473   1.144   4.406 -0.8030  2.4612  3.2701
  239THF    H12 5456   5.518   0.926   4.366  1.1767  2.2278  0.3778
  239THF    H13 5457   5.669   0.933   4.453  1.3108 -2.3701 -2.8262
  240THF     O1 5458   2.077   5.265   4.207 -0.0560 -0.3795 -0.0237
  240THF     C2 5459   2.050   5.354   4.315 -0.5596  0.1591 -0.0053
  240THF     C3 5460   2.215   5.265   4.182 -0.3619  0.0080 -0.0592
  240THF     H4 5461   1.957   5.317   4.357 -0.1199  3.1413  2.4583
  240THF     H5 5462   2.033   5.450   4.267 -0.3008 -2.7182 -3.5034
  240THF     H6 5463   2.236   5.181   4.121 -1.2672 -1.3663  1.1860
  240THF     H7 5464   2.239   5.361   4.141  1.2244  0.3325  0.3686
  240THF     C8 5465   2.276   5.263   4.318  0.0740  1.0088 -0.1763
  240THF     C9 5466   2.182   5.346   4.397 -0.2414  0.0127  0.1412
  240THF    H10 5467   2.379   5.292   4.328  1.3722  0.7081  0.5470
  240THF    H11 5468   2.266   5.153   4.341 -0.0589 -0.9822  0.8036
  240THF    H12 5469   2.176   5.306   4.492  2.5776 -1.0450 -2.0536
  240THF    H13 5470   2.215   5.448   4.405  1.8135 -0.3615  1.4248
  241THF     O1 5471   4.180   1.024   2.132 -0.1658 -0.4744 -0.6228
  241THF     C2 5472   4.308   0.979   2.087  0.4564  0.5011 -0.9290
  241THF     C3 5473   4.188   1.086   2.262  0.1459 -0.2201  0.1517
  241THF     H4 5474   4.337   1.011   1.987 -3.3170  1.8962 -2.1381
  241THF     H5 5475   4.309   0.872   2.078  0.4602  0.1611 -1.7237
  241THF     H6 5476   4.106   1.157   2.267 -1.6761  2.8499  1.6250
  241THF     H7 5477   4.162   1.018   2.343  0.2039 -1.8061 -0.9270
  241THF     C8 5478   4.332   1.140   2.269 -0.0902 -0.2279 -0.0210
  241THF     C9 5479   4.400   1.034   2.191 -0.7515 -0.4114 -0.0902
  241THF    H10 5480   4.378   1.157   2.367 -0.3763 -0.6908 -0.6491
  241THF    H11 5481   4.325   1.237   2.216  1.2107  1.0500  0.0990
  241THF    H12 5482   4.494   1.070   2.143 -1.2654 -0.5606  3.6458
  241THF    H13 5483   4.415   0.945   2.250  0.5270 -0.6191 -1.1406
  242THF     O1 5484   1.246   1.257   4.510 -0.2839  0.0952 -0.0420
  242THF     C2 5485   1.266   1.278   4.650  0.3267  0.0372  0.8106
  242THF     C3 5486   1.225   1.387   4.458  0.1422 -0.2612 -0.3686
  242THF     H4 5487   1.355   1.331   4.664  0.0798  0.5834 -0.4175
  242THF     H5 5488   1.256   1.185   4.702 -0.0051 -2.7086  0.9626
  242THF     H6 5489   1.318   1.442   4.434 -2.1430  0.1896 -1.1853
  242THF     H7 5490   1.180   1.367   4.361 -1.8861  1.4543 -0.4478
  242THF     C8 5491   1.123   1.449   4.562 -0.1322 -0.6788 -0.6447
  242THF     C9 5492   1.146   1.366   4.692  0.6422  0.0840 -0.0822
  242THF    H10 5493   1.015   1.439   4.525 -3.0768  0.0934  2.5332
  242THF    H11 5494   1.151   1.555   4.576  0.1701  3.4037 -0.6302
  242THF    H12 5495   1.161   1.430   4.785 -0.3861  1.3597  0.2475
  242THF    H13 5496   1.063   1.305   4.710  3.1527  0.5793 -0.9829
  243THF     O1 5497   0.710   1.427   0.049 -0.1558  0.3771  0.1017
  243THF     C2 5498   0.668   1.328  -0.051 -0.0510 -0.0970 -1.0585
  243THF     C3 5499   0.644   1.550   0.032 -0.8133  0.3131  0.7630
  243THF     H4 5500   0.646   1.219  -0.028 -0.2003 -0.7338 -2.4233
  243THF     H5 5501   0.734   1.334  -0.137 -0.8900 -0.5801  0.8973
  243THF     H6 5502   0.587   1.559   0.124 -0.3388 -1.7507 -1.4141
  243THF     H7 5503   0.717   1.632   0.029 -0.8403 -0.5525  1.2290
  243THF     C8 5504   0.563   1.537  -0.091 -0.1637  0.1740 -0.4200
  243THF     C9 5505   0.541   1.388  -0.101  0.0223 -0.7416  0.4292
  243THF    H10 5506   0.615   1.570  -0.181 -0.2978 -0.6364 -0.2367
  243THF    H11 5507   0.469   1.600  -0.070  1.1252 -0.0814  0.6285
  243THF    H12 5508   0.459   1.352  -0.040  1.1386 -2.7789  0.2667
  243THF    H13 5509   0.514   1.357  -0.202 -0.4716 -2.5884 -2.1260
  244THF     O1 5510   0.140   2.097   5.218  0.6218 -0.1009 -0.0606
  244THF     C2 5511   0.078   2.022   5.316 -0.0872 -0.2774  0.1368
  244THF     C3 5512   0.275   2.062   5.193 -0.5706 -0.2103 -0.1451
  244THF     H4 5513  -0.036   2.027   5.303 -0.8081 -0.4987 -0.6691
  244THF     H5 5514   0.107   2.066   5.414 -0.4648 -1.0473 -4.6587
  244THF     H6 5515   0.297   2.056   5.085  0.8837  3.8817 -2.2607
  244THF     H7 5516   0.341   2.128   5.254 -0.3803  2.0409 -1.2070
  244THF     C8 5517   0.279   1.923   5.256 -0.0858 -0.0505  0.1275
  244THF     C9 5518   0.135   1.883   5.279  0.1336 -0.0754  0.4512
  244THF    H10 5519   0.336   1.948   5.348  1.2970  0.9796 -2.1105
  244THF    H11 5520   0.336   1.848   5.198  0.7180 -0.2278  0.4209
  244THF    H12 5521   0.087   1.851   5.184  0.1582  0.2979 -0.4538
  244THF    H13 5522   0.108   1.812   5.362 -0.6384  0.1367  1.2444
  245THF     O1 5523   3.671   4.592   2.484  0.4522 -0.2847  0.0155
  245THF     C2 5524   3.556   4.540   2.538  0.2930 -0.3887 -0.5907
  245THF     C3 5525   3.626   4.713   2.421 -0.7184  0.4232 -0.1721
  245THF     H4 5526   3.519   4.601   2.623 -1.4257 -0.5595 -2.9803
  245THF     H5 5527   3.574   4.439   2.565 -0.6919 -2.0656 -1.4128
  245THF     H6 5528   3.624   4.806   2.484 -2.0551  0.1267  2.8041
  245THF     H7 5529   3.701   4.733   2.341  2.2106 -2.0862  2.4561
  245THF     C8 5530   3.498   4.686   2.356  0.9525  0.3341 -0.7232
  245THF     C9 5531   3.458   4.555   2.416  0.1108 -0.0924 -0.4316
  245THF    H10 5532   3.514   4.682   2.248 -2.1647 -0.4963  2.0780
  245THF    H11 5533   3.425   4.766   2.373  0.4803 -1.7698 -1.8880
  245THF    H12 5534   3.354   4.542   2.432 -0.5543  0.7651 -0.2592
  245THF    H13 5535   3.497   4.486   2.339  2.4157  0.2104 -1.4084
  246THF     O1 5536   0.710   2.535   1.592 -1.2510 -0.4315 -0.1833
  246THF     C2 5537   0.812   2.552   1.695  0.1779  0.0388 -0.9092
  246THF     C3 5538   0.736   2.632   1.492  0.1222  0.7709  0.5172
  246THF     H4 5539   0.817   2.461   1.742  1.1736  0.5542 -1.5500
  246THF     H5 5540   0.782   2.634   1.759 -0.4554 -2.7843 -2.7155
  246THF     H6 5541   0.687   2.619   1.399 -0.3045  0.6578 -2.0840
  246THF     H7 5542   0.718   2.737   1.522  2.3204 -1.7795  1.7280
  246THF     C8 5543   0.886   2.617   1.474  0.0907  0.0240  0.2950
  246THF     C9 5544   0.935   2.578   1.611  0.0845  0.5888  0.1483
  246THF    H10 5545   0.913   2.712   1.431  1.0393  0.6870  0.6154
  246THF    H11 5546   0.908   2.540   1.393  1.2401  0.5105 -3.7727
  246THF    H12 5547   0.998   2.492   1.593  0.8773 -2.0017 -2.4108
  246THF    H13 5548   0.998   2.668   1.649 -0.6345  3.2109 -0.3192
  247THF     O1 5549   2.425   2.579   3.528 -0.5928  0.2753  0.3716
  247THF     C2 5550   2.427   2.459   3.454 -0.0129 -0.2740  0.3443
  247THF     C3 5551   2.428   2.543   3.666  0.1568  0.8260 -0.6979
  247THF     H4 5552   2.451   2.478   3.353  0.4629  0.7393  1.4812
  247THF     H5 5553   2.324   2.417   3.476 -0.5088 -1.5601  0.6932
  247THF     H6 5554   2.467   2.631   3.723 -1.1884  0.8604  1.8032
  247THF     H7 5555   2.330   2.515   3.709 -1.6494 -1.0120  1.2456
  247THF     C8 5556   2.509   2.425   3.677  0.3191  0.2896  0.0121
  247THF     C9 5557   2.528   2.372   3.531  0.1595  0.2052  0.7274
  247THF    H10 5558   2.463   2.347   3.743  0.1178 -0.8417  0.6069
  247THF    H11 5559   2.600   2.453   3.734 -3.8121  0.6880  1.0296
  247THF    H12 5560   2.637   2.390   3.505  2.0550  0.7859 -1.7484
  247THF    H13 5561   2.493   2.271   3.517  0.8315 -2.2827 -0.9498
  248THF     O1 5562   2.560   3.002   3.032  0.2513  0.5997  0.2530
  248THF     C2 5563   2.572   2.862   3.055  0.6076  0.8804  0.1328
  248THF     C3 5564   2.629   3.079   3.133 -0.4991  0.0508  0.6628
  248THF     H4 5565   2.649   2.817   2.999 -2.2273  0.1788  1.5409
  248THF     H5 5566   2.491   2.806   3.021  1.6931 -2.2914 -1.5175
  248THF     H6 5567   2.710   3.144   3.089 -1.1218  1.6717 -0.8746
  248THF     H7 5568   2.554   3.142   3.179  0.7381  1.3517  2.1049
  248THF     C8 5569   2.677   2.985   3.236  0.2331 -0.1124  1.3893
  248THF     C9 5570   2.597   2.857   3.208  0.3142  0.3105 -1.1743
  248THF    H10 5571   2.675   3.033   3.335  0.5248  3.2588  1.0652
  248THF    H11 5572   2.782   2.964   3.204 -0.2290  0.4883  2.5642
  248THF    H12 5573   2.642   2.766   3.251 -1.9078  2.0141  0.3219
  248THF    H13 5574   2.503   2.867   3.271 -0.9320  0.1271 -1.7308
  249THF     O1 5575   4.188   1.681   4.118 -0.1155 -0.2829 -0.6996
  249THF     C2 5576   4.050   1.698   4.147 -0.7515  0.2766 -0.3215
  249THF     C3 5577   4.202   1.620   3.992  0.7656  0.0700 -0.3630
  249THF     H4 5578   4.048   1.774   4.222  0.9407  0.7716 -1.2973
  249THF     H5 5579   4.010   1.602   4.189 -0.8232  1.4696 -1.2214
  249THF     H6 5580   4.303   1.632   3.951  0.3439  0.6428  0.5581
  249THF     H7 5581   4.167   1.514   3.999 -0.9978  0.8905 -1.6737
  249THF     C8 5582   4.097   1.704   3.912 -0.1937  0.1166 -1.1769
  249THF     C9 5583   3.986   1.736   4.017  0.6025  0.1602 -0.5191
  249THF    H10 5584   4.062   1.675   3.815 -1.3465  2.1477 -1.2537
  249THF    H11 5585   4.138   1.799   3.879 -0.0859 -1.3572 -2.6174
  249THF    H12 5586   3.948   1.837   4.012 -2.1354 -1.3111  0.2165
  249THF    H13 5587   3.890   1.679   4.006 -1.7698 -1.4094 -2.1272
  250THF     O1 5588   0.558   2.881   5.312  0.3123  0.0959  0.0992
  250THF     C2 5589   0.426   2.929   5.329  0.2861  0.7627  0.9841
  250THF     C3 5590   0.623   2.966   5.214 -0.2850 -0.0549 -0.2742
  250THF     H4 5591   0.433   3.005   5.404 -1.3639 -1.3133 -1.0623
  250THF     H5 5592   0.360   2.856   5.367 -2.0410 -1.3174  2.3512
  250THF     H6 5593   0.683   3.043   5.256  2.9599 -0.0345  1.2390
  250THF     H7 5594   0.691   2.910   5.155 -2.2308 -2.3057 -1.6899
  250THF     C8 5595   0.515   3.027   5.123 -0.4262  0.3184  0.4261
  250THF     C9 5596   0.387   2.969   5.185  0.2314 -0.1211  0.1518
  250THF    H10 5597   0.523   3.003   5.013 -1.5913 -0.1499  0.2737
  250THF    H11 5598   0.518   3.133   5.130 -0.3934  0.0550 -0.4140
  250THF    H12 5599   0.304   3.036   5.188  1.4108  1.1221 -0.4983
  250THF    H13 5600   0.358   2.887   5.123 -1.7916 -0.2309  1.9199
  251THF     O1 5601   3.923   0.785   0.217 -0.0878 -0.1276 -0.5098
  251THF     C2 5602   4.007   0.900   0.232 -0.3645 -0.0822 -0.4515
  251THF     C3 5603   3.996   0.705   0.128  0.0466 -0.7300 -0.2155
  251THF     H4 5604   3.969   0.967   0.312 -1.6106  2.7442 -2.6861
  251THF     H5 5605   4.009   0.965   0.138 -1.9712  0.8380  3.1660
  251THF     H6 5606   3.949   0.610   0.129  1.2754  2.5469 -3.4246
  251THF     H7 5607   4.001   0.746   0.027 -2.2447  0.2701  0.8878
  251THF     C8 5608   4.138   0.705   0.184  0.1465 -0.0962 -0.3393
  251THF     C9 5609   4.133   0.825   0.280 -0.3323 -0.2762  0.1391
  251THF    H10 5610   4.207   0.725   0.102 -1.0471 -1.1714  1.0735
  251THF    H11 5611   4.169   0.608   0.226 -0.8689  1.5686 -2.2270
  251THF    H12 5612   4.122   0.795   0.383 -2.3256  1.1162 -0.3320
  251THF    H13 5613   4.240   0.874   0.273  4.1598 -1.3069 -2.0217
  252THF     O1 5614   1.843   3.802   3.868 -0.1319 -0.6137  0.1420
  252THF     C2 5615   1.755   3.865   3.777  0.0006 -0.4882  0.5848
  252THF     C3 5616   1.789   3.845   3.997 -0.1808  0.1185  0.3781
  252THF     H4 5617   1.654   3.820   3.780  0.0922 -0.5402  0.0633
  252THF     H5 5618   1.806   3.854   3.687  2.0248 -1.2756 -0.2718
  252THF     H6 5619   1.696   3.803   4.016  0.2818  1.1452 -1.0087
  252THF     H7 5620   1.863   3.839   4.076  0.6340  2.5300  0.9607
  252THF     C8 5621   1.760   3.993   3.988  0.0255 -0.3427  0.0101
  252THF     C9 5622   1.748   4.007   3.837 -0.0345  0.5101  0.6473
  252THF    H10 5623   1.839   4.061   4.018 -1.3308  3.4509 -2.1264
  252THF    H11 5624   1.667   4.017   4.036  0.9220  0.2579  0.0618
  252THF    H12 5625   1.657   4.062   3.825  0.2183  0.7325  1.0797
  252THF    H13 5626   1.833   4.065   3.795  1.0856 -0.2138  0.1852
  253THF     O1 5627   4.658   2.840   0.417 -0.4410  0.1559  0.0368
  253THF     C2 5628   4.783   2.906   0.394  0.1026  0.4165  0.9977
  253THF     C3 5629   4.702   2.704   0.461  0.1012 -0.4741  0.0164
  253THF     H4 5630   4.781   3.009   0.387 -0.0276 -3.4279 -0.5351
  253THF     H5 5631   4.817   2.872   0.289 -0.5849 -1.5417  0.1836
  253THF     H6 5632   4.618   2.645   0.504 -2.4487  2.0477  1.2869
  253THF     H7 5633   4.734   2.638   0.382  0.8940 -0.5883 -0.0279
  253THF     C8 5634   4.816   2.721   0.560  0.1596  0.3983  0.7268
  253THF     C9 5635   4.869   2.855   0.513 -0.1632 -0.0034 -0.9991
  253THF    H10 5636   4.887   2.637   0.550  1.3977 -1.8099 -2.6888
  253THF    H11 5637   4.782   2.725   0.663  0.4397  1.9250 -1.4053
  253THF    H12 5638   4.866   2.920   0.604  2.5872 -1.6895  2.1052
  253THF    H13 5639   4.969   2.847   0.478  1.2417 -2.7998 -0.5403
  254THF     O1 5640   1.647   0.551   0.554 -0.2839  0.1452  0.0935
  254THF     C2 5641   1.598   0.495   0.677 -0.3233  0.5083  0.3123
  254THF     C3 5642   1.578   0.486   0.454  0.1705  0.6802 -0.7294
  254THF     H4 5643   1.601   0.572   0.757  2.0311  1.2933  0.1884
  254THF     H5 5644   1.660   0.407   0.699 -0.9648  1.4286  0.7110
  254THF     H6 5645   1.603   0.535   0.365 -1.7463 -0.3455  0.3618
  254THF     H7 5646   1.602   0.379   0.442 -1.8772 -0.0787  2.0892
  254THF     C8 5647   1.438   0.486   0.505  0.9257  0.0810 -0.0901
  254THF     C9 5648   1.455   0.455   0.649  0.0475  0.5992 -0.4331
  254THF    H10 5649   1.379   0.420   0.446  0.2263  1.5085  0.0742
  254THF    H11 5650   1.390   0.584   0.488  0.0252 -0.4796 -0.8744
  254THF    H12 5651   1.381   0.509   0.704  2.2358  1.5814  0.2659
  254THF    H13 5652   1.444   0.350   0.663  1.9768  0.2093  0.0864
  255THF     O1 5653   0.263   1.042   2.419 -0.2627  0.1668  0.6739
  255THF     C2 5654   0.301   1.142   2.314 -0.5301  0.5873 -1.2224
  255THF     C3 5655   0.350   0.930   2.423  1.0012 -0.0414  0.7671
  255THF     H4 5656   0.323   1.236   2.356 -1.3127 -1.8695  1.2800
  255THF     H5 5657   0.212   1.147   2.247 -1.8127  0.0476  1.3055
  255THF     H6 5658   0.432   0.942   2.497 -0.1754  2.1833 -2.4963
  255THF     H7 5659   0.306   0.835   2.447 -2.4129  2.2279  1.8064
  255THF     C8 5660   0.409   0.928   2.280 -0.3916  0.4015  0.0758
  255THF     C9 5661   0.426   1.076   2.251  0.2415  0.2054  0.6075
  255THF    H10 5662   0.345   0.866   2.214 -2.2916 -1.4339  0.3498
  255THF    H11 5663   0.511   0.879   2.279  1.9501 -1.5678  1.2734
  255THF    H12 5664   0.516   1.124   2.291 -0.5918  1.0835 -0.7375
  255THF    H13 5665   0.428   1.091   2.144  2.8749  0.0226  2.2432
  256THF     O1 5666   2.430   4.261   4.249 -0.3623  0.1551 -0.1498
  256THF     C2 5667   2.471   4.309   4.374 -0.5291 -0.1116  0.1715
  256THF     C3 5668   2.521   4.311   4.158 -0.1583 -0.2288 -0.1342
  256THF     H4 5669   2.554   4.251   4.417 -0.7995  2.5982 -2.5430
  256THF     H5 5670   2.380   4.305   4.437 -0.3634 -1.0586 -1.9640
  256THF     H6 5671   2.620   4.272   4.174 -2.4948  0.3151  1.6720
  256THF     H7 5672   2.503   4.279   4.054  1.9754 -0.7143 -1.3252
  256THF     C8 5673   2.521   4.460   4.193 -0.0630  0.7962 -0.0941
  256THF     C9 5674   2.510   4.454   4.343  0.5013  0.4562 -0.6557
  256THF    H10 5675   2.440   4.509   4.144 -3.4007  1.4599 -2.3989
  256THF    H11 5676   2.616   4.505   4.153  0.2619  0.2800 -2.2842
  256THF    H12 5677   2.611   4.471   4.381 -2.8605 -0.6815  1.9774
  256THF    H13 5678   2.432   4.521   4.374  1.3587  1.0046  1.1342
  257THF     O1 5679   0.541   2.134   3.604 -0.4733 -0.3609 -0.1731
  257THF     C2 5680   0.521   2.241   3.703 -0.0821  0.0366  0.1635
  257THF     C3 5681   0.681   2.092   3.598 -0.4516  0.2590  0.7813
  257THF     H4 5682   0.466   2.213   3.788 -0.1485  0.1274 -1.2112
  257THF     H5 5683   0.451   2.315   3.663 -0.8922  1.0526  4.1221
  257THF     H6 5684   0.702   2.020   3.678  0.5229 -1.0062 -0.5254
  257THF     H7 5685   0.701   2.057   3.500  0.6337 -0.1341  1.1050
  257THF     C8 5686   0.752   2.226   3.617 -0.3139 -0.3308 -0.2653
  257THF     C9 5687   0.659   2.293   3.720 -0.1943 -0.8364  0.4180
  257THF    H10 5688   0.775   2.287   3.532  2.7579  0.5672 -0.8733
  257THF    H11 5689   0.847   2.206   3.660 -1.6129  0.3510 -1.6965
  257THF    H12 5690   0.700   2.249   3.818  1.3207  0.9738  0.0626
  257THF    H13 5691   0.683   2.402   3.717 -0.1353  3.8070  2.2130
  258THF     O1 5692   4.651   3.237   0.810  0.2774  0.4304 -0.1458
  258THF     C2 5693   4.536   3.286   0.738 -0.5942 -0.0606  0.4002
  258THF     C3 5694   4.763   3.277   0.732  0.1441 -0.3904 -0.3027
  258THF     H4 5695   4.518   3.387   0.767 -0.0839 -0.6709  2.8953
  258THF     H5 5696   4.442   3.223   0.746 -0.5102 -2.0579 -2.5042
  258THF     H6 5697   4.831   3.349   0.776 -0.5324  0.0378 -2.3952
  258THF     H7 5698   4.824   3.181   0.714  2.7486 -0.2390 -0.3124
  258THF     C8 5699   4.713   3.338   0.603 -0.3136  0.2818 -0.4141
  258THF     C9 5700   4.576   3.276   0.593  0.2723  0.1784  0.1508
  258THF    H10 5701   4.775   3.322   0.515  2.2321  2.8139 -1.1820
  258THF    H11 5702   4.711   3.442   0.625  0.4411  1.6004 -0.7631
  258THF    H12 5703   4.506   3.335   0.534 -0.1167  2.4966  1.8556
  258THF    H13 5704   4.590   3.177   0.570  2.3324 -0.4563  0.1682
  259THF     O1 5705   5.068   4.356   1.524  0.6483  0.5667 -0.1013
  259THF     C2 5706   5.154   4.393   1.412 -0.4562  0.1524 -0.5349
  259THF     C3 5707   5.063   4.214   1.541  0.7273 -0.2071 -0.0484
  259THF     H4 5708   5.262   4.400   1.443  3.9729 -0.5535 -0.1208
  259THF     H5 5709   5.138   4.490   1.375  1.6762 -1.7066 -0.2432
  259THF     H6 5710   5.145   4.174   1.601  2.5558  0.3952  0.3124
  259THF     H7 5711   4.966   4.198   1.595 -0.1860 -2.8012  0.7104
  259THF     C8 5712   5.056   4.179   1.398 -0.5513  0.4664  0.1575
  259THF     C9 5713   5.133   4.284   1.319 -0.3871 -0.1432  0.2666
  259THF    H10 5714   4.955   4.192   1.361 -0.1759 -0.9146  0.9474
  259THF    H11 5715   5.082   4.079   1.375 -0.3426  3.1443  0.1435
  259THF    H12 5716   5.225   4.238   1.282 -0.5918  1.3588  0.1752
  259THF    H13 5717   5.077   4.314   1.235 -1.2369 -1.1956  2.5021
  260THF     O1 5718   4.327   2.473   3.647  0.0217 -0.0811 -0.0847
  260THF     C2 5719   4.365   2.505   3.515  0.3591 -0.7462  0.0720
  260THF     C3 5720   4.258   2.344   3.643  0.4659  0.2811  0.4124
  260THF     H4 5721   4.467   2.540   3.511 -1.6124  1.3205 -0.9369
  260THF     H5 5722   4.304   2.586   3.483  0.5200  0.9917 -0.7370
  260THF     H6 5723   4.255   2.298   3.743  2.1526  0.4287  0.7573
  260THF     H7 5724   4.158   2.355   3.614  0.4986  1.5627  0.0251
  260THF     C8 5725   4.326   2.264   3.528 -0.8636  0.7228 -0.2481
  260THF     C9 5726   4.363   2.376   3.435 -0.4149 -0.4322  0.4460
  260THF    H10 5727   4.262   2.192   3.480 -3.4777  1.6012 -0.1996
  260THF    H11 5728   4.418   2.218   3.572 -0.3174  1.0416  0.6565
  260THF    H12 5729   4.454   2.367   3.378 -0.3091 -1.0668 -3.9875
  260THF    H13 5730   4.284   2.395   3.360  0.0386 -0.8053  2.2311
  261THF     O1 5731   2.891   1.249   1.473 -0.3396  0.7793 -0.2044
  261THF     C2 5732   3.011   1.313   1.434  0.4635  0.0604  0.5462
  261THF     C3 5733   2.862   1.271   1.610 -0.1097  0.0884 -0.4411
  261THF     H4 5734   2.995   1.425   1.422  1.1303 -1.9122  0.1440
  261THF     H5 5735   3.047   1.290   1.333  0.3446 -3.8633  1.0135
  261THF     H6 5736   2.782   1.342   1.622 -0.0153 -1.5106 -0.7224
  261THF     H7 5737   2.830   1.179   1.646 -1.0189 -0.6177  0.5929
  261THF     C8 5738   2.989   1.326   1.676  0.7847 -0.4074 -0.3149
  261THF     C9 5739   3.092   1.304   1.561 -0.2385 -0.4240  0.3582
  261THF    H10 5740   3.007   1.274   1.771 -1.9108 -1.1752  2.0156
  261THF    H11 5741   2.975   1.431   1.693 -0.8259  0.2246  0.3677
  261THF    H12 5742   3.173   1.376   1.570  0.5100 -0.6962 -0.1420
  261THF    H13 5743   3.143   1.205   1.573  0.2458 -2.0780  0.6670
  262THF     O1 5744   3.792   2.649   0.242  0.0559  0.0797  0.2640
  262THF     C2 5745   3.770   2.784   0.213  0.8498 -0.1643 -0.5614
  262THF     C3 5746   3.906   2.659   0.335 -0.4761 -0.1301 -1.5534
  262THF     H4 5747   3.721   2.830   0.294 -0.2355 -0.6904 -1.7367
  262THF     H5 5748   3.707   2.792   0.122 -1.5753 -3.2564 -0.7147
  262THF     H6 5749   3.879   2.698   0.435 -0.5479  0.3337 -1.7678
  262THF     H7 5750   3.945   2.565   0.364  1.0708  0.4005  2.6208
  262THF     C8 5751   4.001   2.742   0.257 -0.9441  0.0910  0.0277
  262THF     C9 5752   3.909   2.848   0.199  0.7503  0.0065 -0.1381
  262THF    H10 5753   4.045   2.678   0.182  0.2497 -0.8645 -2.3697
  262THF    H11 5754   4.067   2.787   0.336  0.6489  2.1655 -0.0666
  262THF    H12 5755   3.904   2.942   0.249 -2.1749 -0.8356 -0.5502
  262THF    H13 5756   3.933   2.866   0.096 -2.8581 -0.8772  2.1370
  263THF     O1 5757   0.846   2.636   2.491 -0.2361  0.1589  0.1044
  263THF     C2 5758   0.982   2.670   2.478  0.0821 -0.6954  0.5914
  263THF     C3 5759   0.828   2.503   2.451  0.6960 -0.4143 -0.7279
  263THF     H4 5760   1.036   2.639   2.563  0.7109 -2.2283 -1.8533
  263THF     H5 5761   0.991   2.776   2.468  0.1466 -0.8478 -0.9454
  263THF     H6 5762   0.854   2.433   2.532  2.7191 -3.0972  1.7459
  263THF     H7 5763   0.732   2.478   2.418 -0.2446  0.3782 -1.8537
  263THF     C8 5764   0.921   2.495   2.326 -1.0609 -0.1218 -0.9357
  263THF     C9 5765   1.041   2.583   2.364  0.9921 -0.1923 -0.7856
  263THF    H10 5766   0.866   2.551   2.240 -0.6846  0.0025  1.9162
  263THF    H11 5767   0.955   2.397   2.298 -0.4825 -0.3750 -0.4995
  263THF    H12 5768   1.123   2.526   2.403 -0.2850  1.3416 -2.3025
  263THF    H13 5769   1.077   2.634   2.281 -1.4134 -1.7792  3.5930
  264THF     O1 5770   5.060   5.355   0.454  0.0777 -0.7486 -0.7168
  264THF     C2 5771   5.033   5.470   0.529 -0.1219  0.3333 -0.3203
  264THF     C3 5772   4.938   5.318   0.385 -0.4751 -0.8010 -0.5569
  264THF     H4 5773   5.125   5.527   0.548  0.0874 -1.2752 -1.4746
  264THF     H5 5774   4.975   5.451   0.625 -2.3014 -2.4119  1.6920
  264THF     H6 5775   4.953   5.262   0.295  0.0989  0.6233  0.9638
  264THF     H7 5776   4.877   5.256   0.448  0.7961 -1.7039  0.7507
  264THF     C8 5777   4.857   5.447   0.366 -0.1973 -0.2707 -0.0922
  264THF     C9 5778   4.943   5.544   0.432  0.4574  0.4275  0.0061
  264THF    H10 5779   4.757   5.440   0.407 -1.1023  2.1012 -0.2671
  264THF    H11 5780   4.849   5.473   0.259 -1.0580  0.6530  0.5376
  264THF    H12 5781   5.013   5.588   0.364 -2.8847  1.8559  1.2094
  264THF    H13 5782   4.879   5.624   0.472 -0.0946  1.1592  2.5091
  265THF     O1 5783   1.673   0.707   4.039 -0.2867  0.1984  0.3406
  265THF     C2 5784   1.738   0.816   4.090  0.5302 -0.5056 -0.3882
  265THF     C3 5785   1.757   0.601   4.081  0.0042  0.0354 -0.4310
  265THF     H4 5786   1.678   0.904   4.076  0.7173 -0.1615 -2.2316
  265THF     H5 5787   1.830   0.835   4.032 -0.9132  0.8803 -2.9957
  265THF     H6 5788   1.704   0.504   4.081 -1.1051  2.0058 -0.8419
  265THF     H7 5789   1.845   0.590   4.012  3.0839 -1.6639  0.7590
  265THF     C8 5790   1.795   0.630   4.230 -0.2221  0.3515 -0.0572
  265THF     C9 5791   1.774   0.782   4.233 -0.4361 -0.3557 -0.2909
  265THF    H10 5792   1.895   0.592   4.255  1.6794  1.3106  1.0623
  265THF    H11 5793   1.725   0.582   4.308 -0.0086 -1.1162  0.5827
  265THF    H12 5794   1.682   0.797   4.292  0.9574 -1.4435 -1.5231
  265THF    H13 5795   1.855   0.848   4.278  0.4480  1.6965 -3.7237
  266THF     O1 5796   3.271   3.468   4.602 -0.1897  0.2503  0.2327
  266THF     C2 5797   3.335   3.568   4.516 -0.2179  0.4994  0.7157
  266THF     C3 5798   3.381   3.403   4.660  0.3691  0.1043 -0.2748
  266THF     H4 5799   3.365   3.659   4.568  0.5558 -0.9783 -1.6640
  266THF     H5 5800   3.262   3.592   4.435  1.4999  0.9791 -2.4652
  266THF     H6 5801   3.406   3.446   4.762  2.3340 -1.4742  3.3387
  266THF     H7 5802   3.343   3.303   4.664  0.1491  0.7332 -1.5282
  266THF     C8 5803   3.496   3.406   4.561  0.0202 -0.4904  0.1233
  266THF     C9 5804   3.460   3.507   4.452  0.0563 -0.1505 -0.1304
  266THF    H10 5805   3.493   3.307   4.521 -1.0598  0.2813  1.4674
  266THF    H11 5806   3.588   3.423   4.620 -0.5381 -1.2591  1.0619
  266THF    H12 5807   3.543   3.574   4.451 -0.4255  0.7659  2.4251
  266THF    H13 5808   3.440   3.463   4.356  0.1725 -0.7311  0.9453
  267THF     O1 5809   3.841   0.301   2.452  0.0357 -0.1696  0.6880
  267THF     C2 5810   3.708   0.353   2.460  0.4040  0.3125  0.4031
  267THF     C3 5811   3.838   0.160   2.494 -0.2808  0.9274  0.4610
  267THF     H4 5812   3.654   0.319   2.373 -2.0121  2.1558 -1.9053
  267THF     H5 5813   3.702   0.461   2.471 -0.8095 -0.7302  0.3114
  267THF     H6 5814   3.812   0.081   2.420 -0.5904  1.2009 -2.4891
  267THF     H7 5815   3.943   0.131   2.521  0.4582  2.1282  1.2605
  267THF     C8 5816   3.730   0.157   2.601  0.4430  0.9688 -0.4756
  267THF     C9 5817   3.648   0.289   2.579  0.3503  0.4663  0.6162
  267THF    H10 5818   3.778   0.156   2.701  1.1815 -1.0291 -0.1553
  267THF    H11 5819   3.665   0.068   2.578 -0.8611  0.0728 -0.8076
  267THF    H12 5820   3.541   0.281   2.582  1.2031 -2.4762  1.0677
  267THF    H13 5821   3.678   0.353   2.659  0.1159 -2.3105 -0.4500
  268THF     O1 5822   3.192   2.244   0.948 -0.1581  0.3739 -0.9024
  268THF     C2 5823   3.276   2.290   0.847 -0.0512 -0.0965  0.3440
  268THF     C3 5824   3.057   2.221   0.905  0.1762 -0.2382 -0.5799
  268THF     H4 5825   3.329   2.211   0.798 -1.9521  0.7792  0.4411
  268THF     H5 5826   3.350   2.354   0.900 -0.6404 -0.7342  3.1298
  268THF     H6 5827   3.038   2.119   0.857  3.4097 -2.7150 -1.3028
  268THF     H7 5828   2.985   2.250   0.981  2.9272  0.8129  0.0711
  268THF     C8 5829   3.044   2.324   0.784 -0.2702  0.4525 -0.0717
  268THF     C9 5830   3.182   2.381   0.766  0.2993  0.1906 -0.1858
  268THF    H10 5831   2.972   2.405   0.795 -0.0732 -1.0900  1.6182
  268THF    H11 5832   3.024   2.272   0.694  0.5198  0.0929  1.9189
  268THF    H12 5833   3.207   2.381   0.661  0.3695  0.8783  1.9999
  268THF    H13 5834   3.213   2.486   0.794 -4.0026  1.8020 -0.8835
  269THF     O1 5835   3.112   2.422   4.981  0.0364  0.7037 -0.6211
  269THF     C2 5836   3.179   2.537   4.925 -0.0982  0.3817 -0.1510
  269THF     C3 5837   2.975   2.458   4.980 -0.4063  0.1108 -0.1232
  269THF     H4 5838   3.259   2.483   4.860  0.4410  1.0287 -3.4704
  269THF     H5 5839   3.224   2.595   5.003 -0.3361  0.1704  1.6406
  269THF     H6 5840   2.904   2.370   4.987  0.8151  2.0831 -0.1496
  269THF     H7 5841   2.971   2.525   5.061 -3.0474  0.5829 -0.9859
  269THF     C8 5842   2.962   2.526   4.846  0.5829  0.0274  0.4729
  269THF     C9 5843   3.086   2.618   4.839  0.5200  0.9041  0.1050
  269THF    H10 5844   2.870   2.580   4.818  1.9783  0.3274 -0.5005
  269THF    H11 5845   2.974   2.448   4.773  0.3063 -1.0208  2.4357
  269THF    H12 5846   3.126   2.629   4.735  0.2425  1.2962 -1.0550
  269THF    H13 5847   3.064   2.714   4.870  1.6364 -0.2016 -1.0719
  270THF     O1 5848   4.972   1.091   4.786  0.3228 -0.4875 -0.5729
  270THF     C2 5849   5.023   1.077   4.653  0.3357  0.0211 -0.3055
  270THF     C3 5850   4.845   1.026   4.784 -0.1171  0.3151  0.0607
  270THF     H4 5851   5.086   0.983   4.653  2.6306  0.5715  1.0377
  270THF     H5 5852   5.088   1.166   4.637  0.9572  1.9080 -3.5362
  270THF     H6 5853   4.869   0.918   4.781 -0.2518  0.5011  1.0062
  270THF     H7 5854   4.777   1.052   4.868 -1.8715  1.6378 -2.7299
  270THF     C8 5855   4.780   1.051   4.650 -0.2304 -0.4432  0.1214
  270THF     C9 5856   4.901   1.063   4.560  0.3744  0.3321 -0.2704
  270THF    H10 5857   4.740   1.153   4.642  0.3562  1.4970  0.2204
  270THF    H11 5858   4.712   0.970   4.613  1.8150  0.1684  0.3734
  270THF    H12 5859   4.891   0.971   4.504 -1.6365  0.4757  1.0487
  270THF    H13 5860   4.897   1.148   4.489 -0.2080 -1.1187  2.7272
  271THF     O1 5861   0.367   2.410   1.414 -0.1196 -0.0980  0.4846
  271THF     C2 5862   0.360   2.292   1.330  0.7020 -0.9367  0.4855
  271THF     C3 5863   0.270   2.503   1.355  0.4652 -0.3245 -0.4536
  271THF     H4 5864   0.371   2.198   1.387 -1.1741 -0.9910  0.1810
  271THF     H5 5865   0.451   2.299   1.267  2.1219 -0.9332  0.8477
  271THF     H6 5866   0.222   2.568   1.421 -1.6668 -0.5563 -2.4496
  271THF     H7 5867   0.308   2.560   1.264  0.3347 -1.6306 -1.5047
  271THF     C8 5868   0.162   2.408   1.325  0.4889  0.2287  0.6583
  271THF     C9 5869   0.222   2.291   1.259 -0.5924  0.4453 -0.1539
  271THF    H10 5870   0.084   2.452   1.264 -0.3017 -0.0344  2.8156
  271THF    H11 5871   0.111   2.366   1.415  0.4246 -1.6224 -1.3059
  271THF    H12 5872   0.175   2.195   1.281 -0.9708  0.9685  0.1661
  271THF    H13 5873   0.242   2.301   1.151  1.8188  0.9969  2.6271
  272THF     O1 5874   1.993   0.740   1.131 -0.2875  0.0996 -0.2565
  272THF     C2 5875   1.960   0.601   1.115 -0.2002  0.1565  0.3687
  272THF     C3 5876   2.030   0.796   1.012  0.7431  0.4139  0.2800
  272THF     H4 5877   1.905   0.556   1.197 -1.9590  0.0721 -0.0356
  272THF     H5 5878   2.050   0.541   1.094  0.5473  1.6733  0.9010
  272THF     H6 5879   2.036   0.907   1.012  0.8798  0.3818 -2.9083
  272THF     H7 5880   2.129   0.759   0.988  0.9816  0.5745 -6.0094
  272THF     C8 5881   1.924   0.732   0.916  0.8567  0.2028 -0.3654
  272THF     C9 5882   1.879   0.601   0.987  0.4123 -0.8678 -0.0943
  272THF    H10 5883   1.955   0.709   0.815 -1.3306 -1.7157 -0.2094
  272THF    H11 5884   1.849   0.810   0.923  2.5673  0.3470 -0.5775
  272THF    H12 5885   1.772   0.606   1.013  0.0599  1.3159  1.4195
  272THF    H13 5886   1.906   0.514   0.915  2.2662  1.9733 -1.2163
  273THF     O1 5887   3.090   3.551   1.445 -0.4288 -0.6918 -0.2414
  273THF     C2 5888   3.135   3.420   1.473 -0.2930 -0.8220  0.1425
  273THF     C3 5889   2.950   3.555   1.464 -0.7962 -0.4546  0.5682
  273THF     H4 5890   3.205   3.422   1.549 -1.5736 -3.6568 -0.1390
  273THF     H5 5891   3.180   3.389   1.380 -1.8908 -0.1871 -0.7851
  273THF     H6 5892   2.915   3.648   1.502 -1.2559  1.6786  1.6365
  273THF     H7 5893   2.911   3.551   1.360 -0.1412  0.0140 -1.3844
  273THF     C8 5894   2.920   3.436   1.562 -0.0576  0.6556  0.2534
  273THF     C9 5895   3.015   3.330   1.508  0.2025 -0.2278 -0.7280
  273THF    H10 5896   2.813   3.402   1.556  1.4214  1.1791 -1.6095
  273THF    H11 5897   2.959   3.467   1.663  3.7285 -1.8608 -0.9571
  273THF    H12 5898   3.024   3.254   1.583  3.1730  1.1303 -0.4131
  273THF    H13 5899   2.977   3.282   1.419  1.1828  2.2735 -1.2920
  274THF     O1 5900   3.531   4.270   3.832  0.1316  0.4081  0.2812
  274THF     C2 5901   3.552   4.158   3.745  0.4308 -0.3057 -0.5892
  274THF     C3 5902   3.643   4.286   3.919 -0.8188  0.0434  0.1495
  274THF     H4 5903   3.577   4.196   3.650  0.4491 -0.2114  0.9014
  274THF     H5 5904   3.457   4.104   3.734 -0.9045  0.7692 -2.0877
  274THF     H6 5905   3.681   4.381   3.920  1.9883 -1.1557 -0.6255
  274THF     H7 5906   3.605   4.251   4.015 -3.2917  0.1250  0.5374
  274THF     C8 5907   3.744   4.184   3.868  0.0841 -0.1872  0.0454
  274THF     C9 5908   3.663   4.069   3.807 -0.4069 -0.2750  0.4610
  274THF    H10 5909   3.808   4.145   3.943 -0.1175  2.3937 -2.2887
  274THF    H11 5910   3.797   4.233   3.794 -1.1221 -0.0307 -0.4959
  274THF    H12 5911   3.721   4.015   3.740  1.5651  2.0125 -0.8669
  274THF    H13 5912   3.621   4.009   3.893 -1.4662 -2.8001  0.4416
  275THF     O1 5913   3.658   3.141   2.267 -0.4116 -0.1450  0.3027
  275THF     C2 5914   3.692   3.007   2.254  0.0576  0.4600  0.1262
  275THF     C3 5915   3.769   3.229   2.233  0.0100  0.3876  0.0842
  275THF     H4 5916   3.644   2.976   2.159  1.1225 -1.5177  0.6823
  275THF     H5 5917   3.651   2.954   2.334 -2.3321 -0.8675  0.4459
  275THF     H6 5918   3.769   3.249   2.124  0.5608 -3.5154 -1.3988
  275THF     H7 5919   3.768   3.324   2.289  1.0175  0.1154 -0.1746
  275THF     C8 5920   3.893   3.139   2.264 -0.1966  0.0887  0.1331
  275THF     C9 5921   3.842   2.997   2.253 -0.0443  0.3939 -0.0366
  275THF    H10 5922   3.942   3.152   2.368  0.3701 -1.5248  0.8636
  275THF    H11 5923   3.968   3.159   2.185 -0.0440 -1.2860 -0.8017
  275THF    H12 5924   3.871   2.954   2.151  1.0485 -0.1071  2.4793
  275THF    H13 5925   3.878   2.931   2.330 -0.7031  0.3877  0.2389
  276THF     O1 5926   4.818   5.362   4.492 -0.2820 -0.0854  0.5040
  276THF     C2 5927   4.842   5.507   4.486  0.2830 -0.1038  0.0479
  276THF     C3 5928   4.924   5.300   4.411  0.6358  0.1047 -0.1539
  276THF     H4 5929   4.803   5.556   4.572  2.2008 -1.8518  2.6543
  276THF     H5 5930   4.794   5.548   4.396  0.5562  0.1349  3.1522
  276THF     H6 5931   4.973   5.232   4.472 -0.1751 -1.1044  0.0743
  276THF     H7 5932   4.872   5.242   4.329 -1.8393 -0.1021 -0.8519
  276THF     C8 5933   5.016   5.416   4.375  0.0366  0.4032 -0.1601
  276THF     C9 5934   4.990   5.526   4.471 -0.0611  0.6598 -0.5657
  276THF    H10 5935   4.967   5.454   4.284  1.0952  1.2554  0.7954
  276THF    H11 5936   5.123   5.393   4.361 -2.1377  1.5252  0.6720
  276THF    H12 5937   5.053   5.499   4.560  2.9513 -0.1350  0.0085
  276THF    H13 5938   5.022   5.624   4.436  1.0686  0.1272  1.1652
  277THF     O1 5939   4.789   4.663   1.863  0.2799 -0.3727  0.1673
  277THF     C2 5940   4.841   4.706   1.989 -0.2011 -0.2475  0.3956
  277THF     C3 5941   4.845   4.753   1.766  0.0390 -0.0709 -0.1408
  277THF     H4 5942   4.934   4.663   1.997  0.1481 -0.9294 -0.4822
  277THF     H5 5943   4.786   4.683   2.072  2.6083 -0.6781 -3.4233
  277THF     H6 5944   4.933   4.725   1.708  0.7890  2.2113 -0.0738
  277THF     H7 5945   4.767   4.783   1.685  0.8031 -1.3187  0.4471
  277THF     C8 5946   4.869   4.885   1.838  0.5981 -0.0498 -0.1492
  277THF     C9 5947   4.855   4.858   1.993  0.0055  0.3330  0.6149
  277THF    H10 5948   4.793   4.965   1.815 -1.1425 -1.0580 -1.1209
  277THF    H11 5949   4.972   4.915   1.818  0.5760 -3.1458  0.3427
  277THF    H12 5950   4.939   4.892   2.042 -0.6191 -0.2452 -1.4204
  277THF    H13 5951   4.764   4.905   2.035  0.9894 -2.6758  2.9668
  278THF     O1 5952   4.876   2.406   3.236  0.4988 -0.1914 -0.2463
  278THF     C2 5953   4.943   2.286   3.190  0.2293 -0.1315  0.5080
  278THF     C3 5954   4.741   2.404   3.186 -0.1952 -0.4193 -0.0383
  278THF     H4 5955   5.040   2.268   3.235 -1.7191  2.0155 -1.8593
  278THF     H5 5956   4.959   2.303   3.085 -0.5907 -0.1171 -2.1284
  278THF     H6 5957   4.680   2.472   3.250 -1.3256 -0.7570  1.1490
  278THF     H7 5958   4.736   2.419   3.077 -1.9936 -0.9096 -1.1921
  278THF     C8 5959   4.700   2.256   3.212  0.5662  0.0721  0.1671
  278THF     C9 5960   4.834   2.180   3.210  0.2546  0.0807  0.3796
  278THF    H10 5961   4.634   2.223   3.134  1.7838 -0.1548  0.6006
  278THF    H11 5962   4.640   2.236   3.302 -0.2143  1.3461  1.0704
  278THF    H12 5963   4.853   2.127   3.299 -1.2764 -1.3909 -2.1072
  278THF    H13 5964   4.846   2.117   3.126 -1.0567  0.6512  0.9068
  279THF     O1 5965   2.450   5.079   5.429  0.1121  0.2397 -0.2311
  279THF     C2 5966   2.362   4.973   5.389 -0.6341  0.3706  0.5304
  279THF     C3 5967   2.396   5.196   5.375 -0.3353  0.3312 -0.8591
  279THF     H4 5968   2.319   4.910   5.470 -0.1976  2.4638 -1.4441
  279THF     H5 5969   2.414   4.898   5.328  0.1557  0.6617  0.8457
  279THF     H6 5970   2.332   5.243   5.449  0.7024 -1.0454 -1.8276
  279THF     H7 5971   2.470   5.270   5.344  0.4881  2.1887  1.0307
  279THF     C8 5972   2.304   5.164   5.260 -1.1918 -0.0070  0.0728
  279THF     C9 5973   2.243   5.035   5.303  0.1397 -0.4147  0.0916
  279THF    H10 5974   2.379   5.141   5.181  1.5027 -2.7993  2.2432
  279THF    H11 5975   2.229   5.232   5.222 -0.5695  1.1929 -2.0803
  279THF    H12 5976   2.156   5.054   5.365  1.7323 -0.4875  0.1152
  279THF    H13 5977   2.194   4.956   5.237 -2.8656  0.9179 -0.9166
  280THF     O1 5978   4.961   3.862   5.046 -0.0559  0.3874  0.2533
  280THF     C2 5979   5.094   3.825   5.013  0.5021 -0.5709 -0.9812
  280THF     C3 5980   4.966   3.986   5.121 -0.4203 -0.3336  0.6099
  280THF     H4 5981   5.089   3.760   4.929 -3.1349  0.8217  1.6690
  280THF     H5 5982   5.141   3.795   5.101  0.2275  2.8068  0.1772
  280THF     H6 5983   4.865   4.037   5.132 -0.0300  0.8741  0.5429
  280THF     H7 5984   5.017   3.972   5.215  1.1325 -0.2148 -0.6810
  280THF     C8 5985   5.055   4.058   5.018  0.3073 -0.7143 -0.2223
  280THF     C9 5986   5.165   3.956   4.976 -0.1847  0.7340  1.1334
  280THF    H10 5987   5.104   4.142   5.062  2.5810 -1.2764  3.3791
  280THF    H11 5988   4.983   4.079   4.938  1.5055 -0.6958 -0.3304
  280THF    H12 5989   5.173   3.970   4.864  2.8922 -0.0834 -0.1074
  280THF    H13 5990   5.259   3.984   5.024 -1.3377  2.7388 -3.9688
  281THF     O1 5991   5.384   2.491   2.069 -0.5780  0.6750  0.0788
  281THF     C2 5992   5.488   2.512   2.166  0.9202 -0.5167  0.3005
  281THF     C3 5993   5.445   2.483   1.944 -0.2732  0.3362 -0.2333
  281THF     H4 5994   5.548   2.416   2.178  1.8883 -3.0983  0.4875
  281THF     H5 5995   5.451   2.543   2.264 -1.6518  3.0982 -1.4012
  281THF     H6 5996   5.476   2.383   1.931 -0.9819  1.6848  1.6046
  281THF     H7 5997   5.369   2.520   1.873 -1.0860 -1.1706  2.9565
  281THF     C8 5998   5.566   2.580   1.957 -0.2038  0.0945 -0.1510
  281THF     C9 5999   5.576   2.622   2.097 -0.3024 -0.5743 -0.6289
  281THF    H10 6000   5.547   2.668   1.893 -1.8931 -1.3598 -0.4255
  281THF    H11 6001   5.664   2.542   1.916  0.3422  1.7525  0.1952
  281THF    H12 6002   5.674   2.624   2.141 -0.4607  0.7128  0.5207
  281THF    H13 6003   5.522   2.713   2.116 -0.7194  0.0794  0.3566
  282THF     O1 6004   4.575   3.932   3.791  0.2135  0.9042  0.0581
  282THF     C2 6005   4.650   3.815   3.758  0.2545  0.0928  0.0899
  282THF     C3 6006   4.585   3.962   3.931 -0.3604 -0.5180 -0.1119
  282THF     H4 6007   4.756   3.830   3.771 -2.1382 -0.5097 -1.4426
  282THF     H5 6008   4.646   3.777   3.654  0.7094  0.2885  0.3819
  282THF     H6 6009   4.684   4.014   3.934 -1.9703  0.4398 -0.6642
  282THF     H7 6010   4.498   4.011   3.972 -0.6473 -0.1422 -0.2015
  282THF     C8 6011   4.597   3.820   3.990 -0.1189 -0.8500  0.9967
  282THF     C9 6012   4.621   3.721   3.874 -0.5570 -0.3793  0.9992
  282THF    H10 6013   4.509   3.792   4.051 -2.0458  1.8002  1.8144
  282THF    H11 6014   4.686   3.825   4.048 -0.7502 -0.4033 -3.2374
  282THF    H12 6015   4.708   3.651   3.890  1.4105 -0.2018 -1.4038
  282THF    H13 6016   4.527   3.669   3.862  3.2388 -1.1096 -0.0149
  283THF     O1 6017   1.647   3.942   0.281  0.2442  0.8479 -0.0291
  283THF     C2 6018   1.769   3.895   0.331 -0.1401  0.4517  0.2133
  283THF     C3 6019   1.613   3.866   0.167 -0.1456 -0.2575 -0.1192
  283THF     H4 6020   1.793   3.935   0.435  0.7039 -2.0434 -0.1372
  283THF     H5 6021   1.852   3.929   0.268  0.6083  1.4561  1.5556
  283THF     H6 6022   1.498   3.868   0.152 -2.5335  1.8473  0.0876
  283THF     H7 6023   1.659   3.887   0.076 -0.1013  0.2441 -1.6598
  283THF     C8 6024   1.651   3.720   0.205  0.1750 -0.6076 -0.1029
  283THF     C9 6025   1.750   3.739   0.322 -0.3178 -0.4553  0.5360
  283THF    H10 6026   1.699   3.667   0.122 -1.9463 -3.0446  0.3826
  283THF    H11 6027   1.560   3.667   0.236 -1.8437  0.1830  2.1039
  283THF    H12 6028   1.695   3.698   0.407 -1.9514 -0.6191  1.1445
  283THF    H13 6029   1.839   3.688   0.300  1.4596 -1.3591  1.9143
  284THF     O1 6030   2.584   4.362   2.249  0.1225  0.1224 -0.4034
  284THF     C2 6031   2.638   4.446   2.354  0.3358  0.1504  0.1977
  284THF     C3 6032   2.537   4.243   2.315 -0.1927  0.2072  0.1841
  284THF     H4 6033   2.552   4.485   2.412 -0.0087  2.3508 -0.6837
  284THF     H5 6034   2.700   4.528   2.323  0.3685  0.3903  1.8018
  284THF     H6 6035   2.433   4.251   2.349 -1.2829 -1.0003 -1.7567
  284THF     H7 6036   2.544   4.166   2.237  2.9469 -0.4984  0.7391
  284THF     C8 6037   2.640   4.213   2.428  0.3202 -0.3845  0.5790
  284THF     C9 6038   2.721   4.348   2.433 -0.1803  0.5381  0.3489
  284THF    H10 6039   2.700   4.123   2.408 -1.7817 -1.2744 -0.6987
  284THF    H11 6040   2.595   4.202   2.525 -0.6305 -1.7394  0.2447
  284THF    H12 6041   2.719   4.397   2.528 -0.1376 -3.5320 -0.1030
  284THF    H13 6042   2.820   4.333   2.401 -0.3610  1.3588  1.9374
  285THF     O1 6043   4.653   0.250   0.866  0.5295 -0.0694 -0.1422
  285THF     C2 6044   4.514   0.278   0.836  0.3128  0.0488 -0.1006
  285THF     C3 6045   4.686   0.254   1.001  0.2038 -0.2692  0.7067
  285THF     H4 6046   4.447   0.188   0.829 -0.6666  0.6449 -0.9104
  285THF     H5 6047   4.517   0.335   0.742  3.1347 -1.0123  2.1739
  285THF     H6 6048   4.667   0.167   1.051 -0.2456  0.7555 -0.5584
  285THF     H7 6049   4.787   0.278   1.015 -0.2092 -0.2280 -0.6987
  285THF     C8 6050   4.586   0.360   1.051 -0.5209  0.3259  0.2269
  285THF     C9 6051   4.457   0.338   0.967 -0.1885 -0.4282  0.4640
  285THF    H10 6052   4.612   0.465   1.031 -1.5833  3.1843  3.2099
  285THF    H11 6053   4.550   0.355   1.156  1.2601 -2.1352  1.1801
  285THF    H12 6054   4.381   0.269   1.007  1.3139 -0.3898 -1.1631
  285THF    H13 6055   4.410   0.437   0.953  1.0977  1.7312 -0.4621
  286THF     O1 6056   1.025   0.074   3.694  0.0745 -0.3493  0.5226
  286THF     C2 6057   0.984  -0.024   3.788 -0.0882  0.3184 -0.1844
  286THF     C3 6058   0.914   0.163   3.689 -0.1938 -0.1403 -0.5474
  286THF     H4 6059   0.981   0.009   3.894  0.1760 -0.2587 -1.0951
  286THF     H5 6060   1.049  -0.108   3.778  1.7429 -0.0262 -3.3135
  286THF     H6 6061   0.903   0.205   3.787  0.8621 -1.2196  2.4607
  286THF     H7 6062   0.933   0.234   3.611 -2.0267 -1.0008  1.4975
  286THF     C8 6063   0.790   0.065   3.668 -0.1326 -0.0372  0.2368
  286THF     C9 6064   0.843  -0.063   3.737  0.2631 -0.5419 -0.6546
  286THF    H10 6065   0.772   0.045   3.559  0.1780 -1.0379  1.0252
  286THF    H11 6066   0.700   0.105   3.706 -2.0492  0.6383 -0.4875
  286THF    H12 6067   0.782  -0.104   3.818 -0.7058  1.0254  0.9116
  286THF    H13 6068   0.852  -0.134   3.660  0.0139 -1.3221  1.5339
  287THF     O1 6069   4.548   2.888   3.709 -0.0094 -0.2801  0.5929
  287THF     C2 6070   4.403   2.889   3.702  0.1729 -0.8643  1.1229
  287THF     C3 6071   4.589   2.996   3.787 -0.3966  0.3190  0.3178
  287THF     H4 6072   4.353   2.796   3.705  0.9959  2.4444  2.2872
  287THF     H5 6073   4.377   2.929   3.609  1.4425  0.2856  1.3537
  287THF     H6 6074   4.677   2.982   3.844 -0.4738  0.2865 -0.9734
  287THF     H7 6075   4.599   3.082   3.723 -1.0556 -0.1186 -3.6341
  287THF     C8 6076   4.473   3.024   3.883 -1.4619 -0.5238 -0.0998
  287THF     C9 6077   4.351   2.974   3.815  0.7544  0.8645  0.1783
  287THF    H10 6078   4.469   3.131   3.898 -2.6837  2.4774  0.7869
  287THF    H11 6079   4.482   2.981   3.984  1.5037 -0.1102 -1.1052
  287THF    H12 6080   4.289   2.918   3.886 -0.2443  1.8138 -0.1622
  287THF    H13 6081   4.301   3.061   3.775  0.7098 -0.3467 -3.1036
  288THF     O1 6082   3.089   2.115   4.464  0.1855 -0.2874 -0.2660
  288THF     C2 6083   3.105   2.243   4.529 -0.1093  0.1636  0.0577
  288THF     C3 6084   3.219   2.060   4.451  0.0663  0.8263  0.3832
  288THF     H4 6085   3.042   2.247   4.617 -1.9259  0.1704  0.6044
  288THF     H5 6086   3.091   2.327   4.459 -0.2197 -1.2515 -0.6728
  288THF     H6 6087   3.223   1.975   4.527  1.5448 -0.3132  1.3949
  288THF     H7 6088   3.248   2.013   4.358 -0.1007 -1.8128  4.6674
  288THF     C8 6089   3.322   2.163   4.499 -0.3149 -0.2231 -0.3111
  288THF     C9 6090   3.243   2.254   4.585 -0.4114 -0.1663  0.7134
  288THF    H10 6091   3.354   2.214   4.407  0.9403  3.3037 -2.2654
  288THF    H11 6092   3.410   2.121   4.544 -1.2571  1.3718  0.7503
  288THF    H12 6093   3.249   2.224   4.688  1.9320 -3.6413 -0.2547
  288THF    H13 6094   3.273   2.359   4.577  1.0962 -2.9956  1.7574
  289THF     O1 6095   1.304   5.195   0.940 -0.2400  0.0365 -0.2852
  289THF     C2 6096   1.292   5.327   0.886  0.6529  0.1199  0.0364
  289THF     C3 6097   1.177   5.160   0.991  0.1868  0.1337  0.2132
  289THF     H4 6098   1.255   5.320   0.781 -0.2900  0.9829  1.2109
  289THF     H5 6099   1.381   5.383   0.874 -1.9814  1.1930 -0.2796
  289THF     H6 6100   1.121   5.131   0.899  0.0704 -1.2693  2.0578
  289THF     H7 6101   1.175   5.076   1.065 -1.6054 -1.6410 -0.1947
  289THF     C8 6102   1.121   5.293   1.044  1.0176 -0.9119  0.1447
  289THF     C9 6103   1.186   5.401   0.966 -0.1200  1.0137  0.2330
  289THF    H10 6104   1.133   5.311   1.150 -1.9613 -0.1497 -0.0903
  289THF    H11 6105   1.015   5.305   1.032  0.1381  2.4112  1.1758
  289THF    H12 6106   1.109   5.441   0.904 -2.7229  0.8972  1.2210
  289THF    H13 6107   1.229   5.473   1.031  1.0925  0.7185  0.5513
  290THF     O1 6108   1.999   3.080   4.536 -0.1147  0.1455 -0.0336
  290THF     C2 6109   1.922   3.181   4.465  0.1480  0.1957  0.2640
  290THF     C3 6110   1.930   2.963   4.531 -0.2372  0.1252 -0.0583
  290THF     H4 6111   1.906   3.173   4.361  1.2692 -0.7416 -0.5247
  290THF     H5 6112   1.978   3.274   4.484  1.9408 -3.1591 -0.3237
  290THF     H6 6113   1.939   2.905   4.438 -1.6688 -0.7766 -3.3293
  290THF     H7 6114   1.946   2.890   4.611 -0.3817  0.8156 -2.8325
  290THF     C8 6115   1.786   3.016   4.556  0.1457 -0.0335 -0.2242
  290THF     C9 6116   1.786   3.165   4.536 -0.1306  0.0577  0.8097
  290THF    H10 6117   1.748   2.985   4.656 -1.3795 -0.0758 -3.9228
  290THF    H11 6118   1.731   2.964   4.480  0.9718 -2.3411  0.7928
  290THF    H12 6119   1.698   3.196   4.482 -0.7485 -1.5469  1.3390
  290THF    H13 6120   1.769   3.225   4.618  0.4024  0.9158 -0.1008
  291THF     O1 6121   3.906   4.581   0.612 -0.3298 -0.0320 -0.2103
  291THF     C2 6122   3.905   4.438   0.573 -1.0841 -0.1482  0.2156
  291THF     C3 6123   3.786   4.630   0.558 -0.1959 -0.3347 -0.1420
  291THF     H4 6124   3.972   4.373   0.633  0.3012 -2.1310 -3.2499
  291THF     H5 6125   3.939   4.443   0.469 -3.1360  1.2593 -0.3968
  291THF     H6 6126   3.739   4.718   0.600  1.1547 -2.4687 -2.6425
  291THF     H7 6127   3.809   4.667   0.459  0.1193  0.8478  2.1504
  291THF     C8 6128   3.684   4.520   0.541  0.8699  0.3572 -0.3071
  291THF     C9 6129   3.760   4.396   0.583  0.4988 -0.3320  0.1342
  291THF    H10 6130   3.650   4.517   0.445 -0.0259  1.5925  3.7142
  291THF    H11 6131   3.603   4.530   0.608  0.4610  0.5050  0.8847
  291THF    H12 6132   3.740   4.353   0.679 -1.1385  2.0842 -2.4487
  291THF    H13 6133   3.731   4.316   0.518  0.7560 -0.5321 -1.0776
  292THF     O1 6134   0.814   5.031   5.159 -0.2411 -0.0375  0.1323
  292THF     C2 6135   0.807   5.037   5.012 -0.2019 -0.2494  0.4004
  292THF     C3 6136   0.801   4.894   5.197 -0.4192 -0.6885  0.1407
  292THF     H4 6137   0.859   5.125   4.985  0.3841 -0.6075 -1.0628
  292THF     H5 6138   0.704   5.046   4.976  0.4720 -0.6528  0.8956
  292THF     H6 6139   0.843   4.875   5.295  3.6167  0.4590  0.3117
  292THF     H7 6140   0.692   4.871   5.193 -1.3851 -0.2497  1.5845
  292THF     C8 6141   0.867   4.820   5.085  0.1120  0.1984 -0.1941
  292THF     C9 6142   0.872   4.909   4.960 -0.1599 -0.5636  0.2970
  292THF    H10 6143   0.807   4.730   5.068 -1.1506 -1.3060  1.7545
  292THF    H11 6144   0.969   4.786   5.105  0.8840 -4.3558 -1.2377
  292THF    H12 6145   0.975   4.935   4.927  1.3118 -2.1666 -0.4476
  292THF    H13 6146   0.812   4.873   4.874 -0.7568 -0.1692  1.6512
  293THF     O1 6147   4.808   4.478   2.422 -0.3341 -0.8352 -0.2748
  293THF     C2 6148   4.780   4.343   2.457 -0.7751  1.0902  0.1001
  293THF     C3 6149   4.947   4.506   2.458  0.2773 -0.0290  0.0109
  293THF     H4 6150   4.689   4.308   2.423 -0.9236  0.0659 -2.0583
  293THF     H5 6151   4.781   4.336   2.571 -0.2726  2.0343  1.6432
  293THF     H6 6152   4.984   4.586   2.400  1.8115  1.0647  3.1392
  293THF     H7 6153   4.940   4.541   2.562 -0.7877  0.8346  0.7794
  293THF     C8 6154   5.019   4.372   2.427  0.2266  0.0492 -0.0738
  293THF     C9 6155   4.909   4.270   2.398 -0.2764  0.0263 -0.2920
  293THF    H10 6156   5.084   4.348   2.502 -0.1083  2.0351  1.2342
  293THF    H11 6157   5.094   4.390   2.343  1.4896  1.6132 -0.1070
  293THF    H12 6158   4.909   4.246   2.293  0.3008  0.5468 -0.7052
  293THF    H13 6159   4.938   4.188   2.456 -2.2412 -2.0687  0.7154
  294THF     O1 6160   0.385   2.775   2.824 -0.5648  0.0179 -0.2852
  294THF     C2 6161   0.244   2.786   2.813 -0.1520 -0.0161 -0.2418
  294THF     C3 6162   0.420   2.641   2.798  0.3730 -0.6134 -0.3640
  294THF     H4 6163   0.211   2.760   2.708 -2.6842  0.3945 -2.8803
  294THF     H5 6164   0.204   2.884   2.840  2.1093  2.2831  1.3710
  294THF     H6 6165   0.415   2.615   2.694  0.2657  0.3302  1.4544
  294THF     H7 6166   0.517   2.613   2.831 -2.5604  1.0592 -0.0802
  294THF     C8 6167   0.307   2.579   2.885  0.7012  0.0154 -0.0099
  294THF     C9 6168   0.187   2.675   2.894 -0.1962 -0.0067 -0.1908
  294THF    H10 6169   0.349   2.568   2.986  1.4025  1.2240  2.1157
  294THF    H11 6170   0.278   2.480   2.856  0.6039 -2.8025  1.8146
  294THF    H12 6171   0.101   2.641   2.838  1.5705 -2.4555  2.1782
  294THF    H13 6172   0.163   2.694   2.998 -0.5961 -2.1565  0.0579
  295THF     O1 6173   3.175   3.974   4.173  0.1093 -0.2016 -0.1455
  295THF     C2 6174   3.248   3.932   4.066 -0.2518  0.3507 -0.3703
  295THF     C3 6175   3.228   4.097   4.223  0.0629  0.2663  0.7597
  295THF     H4 6176   3.197   3.856   4.005 -2.1777  1.1370 -2.9624
  295THF     H5 6177   3.339   3.877   4.105 -1.5051 -1.3881  4.0315
  295THF     H6 6178   3.164   4.162   4.275 -1.4015  0.0907 -1.8680
  295THF     H7 6179   3.313   4.076   4.284  0.7485 -1.8872 -0.0731
  295THF     C8 6180   3.279   4.166   4.097 -0.2507 -0.4207  0.3074
  295THF     C9 6181   3.294   4.057   3.994  0.4092  0.2100 -0.0625
  295THF    H10 6182   3.375   4.219   4.102 -1.8331 -0.2962  0.0745
  295THF    H11 6183   3.208   4.246   4.049 -1.6336  0.7516  0.3684
  295THF    H12 6184   3.233   4.091   3.911  2.0983  1.9221  1.0039
  295THF    H13 6185   3.395   4.056   3.972 -1.3262 -1.4413  0.5136
  296THF     O1 6186   0.717   3.530   3.641  0.3754 -0.1317 -0.3148
  296THF     C2 6187   0.767   3.598   3.747 -0.2979  0.4517  0.1963
  296THF     C3 6188   0.690   3.402   3.682  0.2896 -0.6872  1.2036
  296THF     H4 6189   0.691   3.608   3.820  3.5609 -1.2988  0.5152
  296THF     H5 6190   0.805   3.692   3.716 -1.1266 -0.9121  1.3782
  296THF     H6 6191   0.594   3.388   3.731 -0.5477  0.7282 -0.7333
  296THF     H7 6192   0.699   3.333   3.601  2.7930  0.0016 -2.4105
  296THF     C8 6193   0.798   3.372   3.784  0.6251  0.1175  0.0061
  296THF     C9 6194   0.878   3.497   3.802 -0.3794  0.3439  0.1888
  296THF    H10 6195   0.861   3.291   3.750  0.6248  2.1763  0.6936
  296THF    H11 6196   0.753   3.332   3.875  1.2230  1.0923  2.7530
  296THF    H12 6197   0.903   3.530   3.909  2.9124 -0.3702  0.4573
  296THF    H13 6198   0.968   3.486   3.743  0.3581 -0.8290 -0.8587
  297THF     O1 6199   4.531   3.974   1.256  0.7025  0.2993 -0.2133
  297THF     C2 6200   4.540   4.007   1.397 -0.5987  0.7429  0.3380
  297THF     C3 6201   4.391   3.949   1.227  0.2705 -0.3056  0.1484
  297THF     H4 6202   4.528   4.116   1.423  2.1433  2.7482 -0.3459
  297THF     H5 6203   4.642   3.978   1.428 -0.1470 -4.0647 -1.9083
  297THF     H6 6204   4.354   4.019   1.147  0.7426 -0.2981 -0.1747
  297THF     H7 6205   4.371   3.846   1.189 -1.0975 -4.3627 -1.4184
  297THF     C8 6206   4.321   3.949   1.364 -0.2905 -0.6198  0.3979
  297THF     C9 6207   4.432   3.918   1.457 -0.3786 -1.1192 -0.0440
  297THF    H10 6208   4.228   3.890   1.360  0.2310 -0.3546  1.3787
  297THF    H11 6209   4.287   4.050   1.390  2.6003  1.7760 -0.7827
  297THF    H12 6210   4.401   3.940   1.561 -0.7076  1.4929 -0.9858
  297THF    H13 6211   4.452   3.814   1.453 -0.6442  0.5222  0.7455
  298THF     O1 6212   1.877   1.563   3.082 -0.4092 -0.1576  0.3608
  298THF     C2 6213   1.889   1.633   3.205 -0.3950 -0.3106  0.4430
  298THF     C3 6214   1.927   1.651   2.988  0.1610 -0.1177  0.6556
  298THF     H4 6215   1.988   1.646   3.251  1.3004 -0.7533 -0.5110
  298THF     H5 6216   1.831   1.587   3.280 -0.0881  0.2995  0.6935
  298THF     H6 6217   2.038   1.652   2.989 -0.0245  0.1372 -0.1795
  298THF     H7 6218   1.892   1.619   2.892 -0.2992  0.0978 -0.1564
  298THF     C8 6219   1.855   1.782   3.014 -0.5607  0.2989  0.6183
  298THF     C9 6220   1.817   1.765   3.158  0.0624 -0.3882  0.1178
  298THF    H10 6221   1.770   1.793   2.953 -0.6679 -1.7493  1.0354
  298THF    H11 6222   1.919   1.872   3.003  2.0460 -0.3706 -1.7360
  298THF    H12 6223   1.832   1.851   3.219 -0.6835 -0.0109  0.3156
  298THF    H13 6224   1.709   1.759   3.162  2.7295  1.8005 -1.8724
  299THF     O1 6225   1.451   0.403   3.686  0.2578  0.5123  0.1146
  299THF     C2 6226   1.508   0.406   3.814 -0.4253 -0.2796  0.0948
  299THF     C3 6227   1.317   0.342   3.709 -0.6753 -0.0462 -0.0619
  299THF     H4 6228   1.463   0.488   3.871 -1.5619  1.6601  1.0831
  299THF     H5 6229   1.610   0.433   3.802  0.2257 -0.6056  1.1283
  299THF     H6 6230   1.252   0.415   3.762 -3.0778  0.8601 -0.5401
  299THF     H7 6231   1.272   0.320   3.619  0.9955  0.0452  0.2162
  299THF     C8 6232   1.344   0.230   3.806 -0.4407 -0.2935  0.1519
  299THF     C9 6233   1.474   0.267   3.867 -0.3634 -0.4304 -0.3502
  299THF    H10 6234   1.333   0.143   3.738  0.8795  2.4089  0.3004
  299THF    H11 6235   1.264   0.223   3.878  0.3494 -0.7579 -0.8535
  299THF    H12 6236   1.476   0.261   3.974  0.2066  0.5153  0.8320
  299THF    H13 6237   1.551   0.203   3.821  1.1446 -3.9550 -2.7216
  300THF     O1 6238   3.120   1.838   2.975  0.9629  0.2143 -0.6886
  300THF     C2 6239   3.034   1.951   2.957 -0.3685 -0.3156  0.2161
  300THF     C3 6240   3.156   1.837   3.109  0.6313  0.2772 -0.2505
  300THF     H4 6241   2.935   1.909   2.978  2.5142  1.0661  1.1662
  300THF     H5 6242   3.025   1.980   2.856  0.6454 -0.4083  1.1259
  300THF     H6 6243   3.081   1.784   3.165  1.4786 -1.4415  0.2085
  300THF     H7 6244   3.248   1.782   3.133  0.3929 -2.4442 -2.8346
  300THF     C8 6245   3.165   1.988   3.154 -0.1614  0.1883  0.0133
  300THF     C9 6246   3.071   2.055   3.060 -0.6266  0.0233  0.6679
  300THF    H10 6247   3.265   2.026   3.148  0.1748  0.6670 -2.1256
  300THF    H11 6248   3.127   1.996   3.252 -3.1055  0.7028 -3.8550
  300THF    H12 6249   2.983   2.096   3.095  2.2847  0.1021  0.5707
  300THF    H13 6250   3.128   2.129   3.007  0.9010 -0.1698 -0.1540
  301THF     O1 6251   1.832   0.276   1.183  0.5883 -0.0407  0.5702
  301THF     C2 6252   1.700   0.305   1.146 -0.2730 -0.4980 -0.8249
  301THF     C3 6253   1.866   0.145   1.162 -0.9802 -0.5077  1.0415
  301THF     H4 6254   1.688   0.413   1.115 -0.0639 -0.5463 -1.0169
  301THF     H5 6255   1.625   0.271   1.222 -2.7667 -2.8198  0.0225
  301THF     H6 6256   1.960   0.153   1.113  1.3813  1.8321 -0.0428
  301THF     H7 6257   1.873   0.097   1.262  0.7276  2.1647  0.7893
  301THF     C8 6258   1.746   0.081   1.077 -0.5161 -0.2419 -0.0516
  301THF     C9 6259   1.680   0.205   1.026 -0.0107 -0.4067 -0.2562
  301THF    H10 6260   1.673   0.022   1.139 -1.6391  0.8099 -2.1081
  301THF    H11 6261   1.796   0.023   0.996  2.0225 -0.3956 -0.8277
  301THF    H12 6262   1.729   0.236   0.936  2.2828  0.0552  1.9145
  301THF    H13 6263   1.577   0.192   1.005  0.2998 -1.8233  0.6408
  302THF     O1 6264   1.403   1.684   4.009  0.4739 -0.1620 -0.5790
  302THF     C2 6265   1.289   1.742   4.076 -0.3432 -0.0693  0.2163
  302THF     C3 6266   1.371   1.572   3.933  0.7858 -0.3650 -0.0253
  302THF     H4 6267   1.255   1.821   4.006 -1.3274 -2.0693  2.6705
  302THF     H5 6268   1.311   1.781   4.173 -2.8120  0.6681  0.1148
  302THF     H6 6269   1.331   1.593   3.830  1.4670  1.0330 -1.7822
  302THF     H7 6270   1.452   1.506   3.916 -0.4440 -0.2459 -1.1125
  302THF     C8 6271   1.266   1.518   4.033 -0.5584  0.0057  0.5187
  302THF     C9 6272   1.187   1.629   4.078 -0.0069  0.0358  0.3464
  302THF    H10 6273   1.327   1.467   4.113 -0.0312 -0.1454  0.9621
  302THF    H11 6274   1.200   1.442   3.989  1.6442 -1.2677  0.1007
  302THF    H12 6275   1.097   1.642   4.015  1.3438  1.3387 -2.5122
  302THF    H13 6276   1.152   1.609   4.178  2.2018  1.1761  0.2930
  303THF     O1 6277   0.974   4.857   3.793 -0.2478  0.4096  0.0820
  303THF     C2 6278   0.995   4.891   3.927  0.6639 -0.0713 -0.4116
  303THF     C3 6279   0.958   4.980   3.729  0.3735 -0.2646  0.3486
  303THF     H4 6280   1.096   4.927   3.949 -1.7197 -0.1626  1.0181
  303THF     H5 6281   0.978   4.802   3.985  2.1973  1.1582 -0.1987
  303THF     H6 6282   1.050   5.031   3.718  1.5271 -2.7305 -1.4648
  303THF     H7 6283   0.903   4.967   3.632 -0.5792 -1.1348  0.9069
  303THF     C8 6284   0.868   5.064   3.826  0.2011  0.0170  0.4619
  303THF     C9 6285   0.888   4.993   3.965 -1.0549 -0.3586  0.2680
  303THF    H10 6286   0.761   5.060   3.807 -0.5776 -0.7175  0.3000
  303THF    H11 6287   0.896   5.164   3.823  0.6991 -1.4613  2.3764
  303THF    H12 6288   0.925   5.057   4.045  0.9698 -0.2389  0.4529
  303THF    H13 6289   0.800   4.933   3.993  0.7835 -0.5787 -0.5748
  304THF     O1 6290   3.039   3.031   3.668 -0.1122 -0.9615  0.4220
  304THF     C2 6291   3.044   2.925   3.570  0.2979 -0.0023  0.2318
  304THF     C3 6292   3.143   3.120   3.636 -0.4536  0.0704  0.8248
  304THF     H4 6293   2.948   2.876   3.552  1.2325  2.4952 -1.5564
  304THF     H5 6294   3.111   2.852   3.605 -1.9811  3.7037  1.9287
  304THF     H6 6295   3.129   3.219   3.676 -1.2791 -0.1347 -1.3723
  304THF     H7 6296   3.239   3.074   3.667  2.1012 -0.2206 -0.5714
  304THF     C8 6297   3.147   3.119   3.477 -1.1187  0.1821 -0.0594
  304THF     C9 6298   3.093   2.983   3.436 -0.4387  0.1234 -0.7152
  304THF    H10 6299   3.243   3.128   3.432 -2.0429  0.0067  2.0304
  304THF    H11 6300   3.089   3.197   3.435  0.5110 -1.0812  2.7070
  304THF    H12 6301   3.016   3.002   3.357 -0.4976 -3.9688  3.6873
  304THF    H13 6302   3.170   2.926   3.389 -0.0690  1.1448 -2.1521
  305THF     O1 6303   4.565   1.555   4.343 -0.0038 -0.5242 -0.2299
  305THF     C2 6304   4.429   1.547   4.321 -0.2897  0.0124  0.7991
  305THF     C3 6305   4.619   1.425   4.335 -0.0018 -0.1805  0.3646
  305THF     H4 6306   4.394   1.593   4.228  1.2130 -1.9101  1.5582
  305THF     H5 6307   4.398   1.616   4.397  2.5404  1.3066 -0.8372
  305THF     H6 6308   4.621   1.391   4.233  0.9754  0.7360  0.6210
  305THF     H7 6309   4.720   1.422   4.380  0.5079 -0.6074  0.0974
  305THF     C8 6310   4.509   1.346   4.414 -0.4293 -0.2157  0.2693
  305THF     C9 6311   4.388   1.405   4.347  0.5151  0.3990 -0.5041
  305THF    H10 6312   4.520   1.363   4.519 -2.0509  0.4657  1.7865
  305THF    H11 6313   4.508   1.237   4.391 -1.0809  0.5651  0.3506
  305THF    H12 6314   4.378   1.359   4.255 -0.7251  2.3459 -5.0215
  305THF    H13 6315   4.308   1.393   4.411  0.6287 -0.5538 -1.4542
  306THF     O1 6316   2.907   2.878   1.471 -0.3578  0.1731  0.1635
  306THF     C2 6317   3.041   2.857   1.454 -0.1726 -0.4849 -0.5897
  306THF     C3 6318   2.882   2.927   1.605  0.1604 -0.0680  0.5302
  306THF     H4 6319   3.086   2.888   1.364  0.1848  2.7988 -0.7449
  306THF     H5 6320   3.049   2.748   1.462  0.0436  3.7692 -1.9429
  306THF     H6 6321   2.862   3.028   1.602  0.8421 -3.0170  0.2465
  306THF     H7 6322   2.798   2.875   1.657 -0.2318 -0.6060  0.0652
  306THF     C8 6323   3.011   2.905   1.682 -0.0037 -0.7861  0.5040
  306THF     C9 6324   3.115   2.916   1.569 -1.0297 -0.3752 -0.4161
  306THF    H10 6325   3.010   2.805   1.714  2.1445  4.9369 -0.5470
  306THF    H11 6326   3.013   2.969   1.772  0.3369 -1.0178  0.8368
  306THF    H12 6327   3.134   3.025   1.550  0.4082 -0.5714 -0.4569
  306THF    H13 6328   3.214   2.864   1.587  0.1948 -0.6805 -0.3075
  307THF     O1 6329   2.865   3.458   5.136  0.1638 -0.2186  0.3443
  307THF     C2 6330   2.814   3.479   5.002 -0.4919 -0.6341  0.4587
  307THF     C3 6331   2.992   3.514   5.129 -0.2813 -0.0372 -0.1820
  307THF     H4 6332   2.707   3.475   4.999 -0.2432 -0.0013 -2.6246
  307THF     H5 6333   2.839   3.386   4.941 -0.0267  1.7428 -1.4752
  307THF     H6 6334   3.020   3.541   5.230 -0.9510  0.8353  0.4799
  307THF     H7 6335   3.071   3.449   5.090 -0.5325 -1.3904 -0.3119
  307THF     C8 6336   2.973   3.639   5.052 -0.0836  0.2685  0.3429
  307THF     C9 6337   2.896   3.592   4.931  0.4310 -0.1295  0.1786
  307THF    H10 6338   3.070   3.672   5.025 -0.2616 -1.7886 -0.4139
  307THF    H11 6339   2.928   3.718   5.112 -0.6812 -1.9180  1.0561
  307THF    H12 6340   2.835   3.677   4.902 -0.2801  2.3258  1.1675
  307THF    H13 6341   2.963   3.548   4.852 -1.3293 -0.7329  0.4803
  308THF     O1 6342   4.973   1.716   1.305  0.2219  0.1825  0.0481
  308THF     C2 6343   5.108   1.738   1.340 -0.1032 -0.5865 -0.2298
  308THF     C3 6344   4.890   1.759   1.414  0.2474 -0.0903  0.7629
  308THF     H4 6345   5.162   1.755   1.244 -0.5630  0.9284  0.0025
  308THF     H5 6346   5.152   1.651   1.392  1.3712 -3.2209 -0.2324
  308THF     H6 6347   4.790   1.759   1.368 -1.2418 -0.6794  0.8732
  308THF     H7 6348   4.893   1.689   1.501  1.2451  3.7075 -1.4513
  308THF     C8 6349   4.957   1.891   1.455  0.3768  0.7161  1.1143
  308THF     C9 6350   5.109   1.864   1.418 -0.7220  0.4175  0.3279
  308THF    H10 6351   4.950   1.917   1.563  2.1731 -0.1766  1.9273
  308THF    H11 6352   4.915   1.987   1.402  3.2715 -0.3133 -2.6023
  308THF    H12 6353   5.166   1.939   1.365 -3.2238  0.8070 -0.6148
  308THF    H13 6354   5.165   1.858   1.513 -1.2616 -1.0465  1.9435
  309THF     O1 6355   2.796   0.751   0.758 -0.3138  0.1877  0.2351
  309THF     C2 6356   2.823   0.885   0.715  0.0451 -0.4120 -0.9585
  309THF     C3 6357   2.919   0.692   0.771  0.2684 -0.4636 -0.2092
  309THF     H4 6358   2.734   0.956   0.725  2.8039 -0.7747  1.3195
  309THF     H5 6359   2.867   0.882   0.615  2.2805 -2.6828  0.8231
  309THF     H6 6360   2.910   0.600   0.829  1.2548  0.0826 -1.5503
  309THF     H7 6361   2.953   0.661   0.667 -2.3378  0.6584 -1.1198
  309THF     C8 6362   3.005   0.798   0.843 -0.3829  0.8541 -0.2095
  309THF     C9 6363   2.930   0.928   0.809 -0.1532 -0.3532  0.5076
  309THF    H10 6364   3.109   0.792   0.804  2.0725 -0.3789  1.0162
  309THF    H11 6365   3.007   0.780   0.955  0.0987  1.0456  1.6057
  309THF    H12 6366   2.880   0.968   0.901  0.3993  0.5125 -0.8159
  309THF    H13 6367   2.997   1.006   0.779  0.8137 -2.1407  0.9201
  310THF     O1 6368   3.487   4.398   0.262 -0.1576  0.1975  0.0072
  310THF     C2 6369   3.461   4.261   0.269 -0.1033 -0.0850 -0.0244
  310THF     C3 6370   3.359   4.459   0.249  0.7185  0.0551 -0.6020
  310THF     H4 6371   3.553   4.208   0.311  2.1511 -1.2425  0.1166
  310THF     H5 6372   3.441   4.217   0.172  0.5972  2.0623 -0.9793
  310THF     H6 6373   3.366   4.554   0.303  0.4425 -0.1100  0.7209
  310THF     H7 6374   3.333   4.489   0.150 -1.2505  0.9535  1.0257
  310THF     C8 6375   3.262   4.371   0.322  0.5151 -0.2456  0.2001
  310THF     C9 6376   3.339   4.255   0.370 -0.4265 -0.1631 -0.2176
  310THF    H10 6377   3.171   4.343   0.266 -0.0369 -0.3873 -1.9223
  310THF    H11 6378   3.215   4.418   0.401 -0.6742 -2.8492 -2.8595
  310THF    H12 6379   3.366   4.277   0.473  2.0028 -0.4947 -2.1338
  310THF    H13 6380   3.292   4.161   0.367 -1.5362  2.1037  1.5935
  311THF     O1 6381   3.745   0.313   2.012 -0.1718 -0.3945  0.1856
  311THF     C2 6382   3.630   0.272   1.933 -0.5508  0.0619 -0.0372
  311THF     C3 6383   3.816   0.199   2.051  0.5208 -0.2120  0.6336
  311THF     H4 6384   3.596   0.334   1.849 -1.7875 -0.3028  0.7216
  311THF     H5 6385   3.548   0.266   2.006  0.2331 -1.4403  1.5900
  311THF     H6 6386   3.903   0.180   1.996 -0.4450 -0.6958  0.4420
  311THF     H7 6387   3.852   0.212   2.154  2.2723 -0.1419 -2.5951
  311THF     C8 6388   3.724   0.080   2.023 -0.5036 -0.4175 -0.2263
  311THF     C9 6389   3.641   0.120   1.903 -0.9544  1.1847 -0.5457
  311THF    H10 6390   3.664   0.078   2.117 -2.5923  0.2401 -0.0634
  311THF    H11 6391   3.770  -0.008   2.019  0.4387  0.0618 -0.8558
  311THF    H12 6392   3.697   0.107   1.810  1.7052 -2.4956  1.0075
  311THF    H13 6393   3.542   0.084   1.892  2.1562 -0.0079 -1.1760
  312THF     O1 6394   2.123   3.052   3.233  0.5205  0.4014 -0.0491
  312THF     C2 6395   2.230   3.140   3.279  0.0443  0.0254 -0.4653
  312THF     C3 6396   2.066   3.113   3.127  0.1277  0.2630  0.7111
  312THF     H4 6397   2.319   3.125   3.219  0.5091 -0.3252  1.6311
  312THF     H5 6398   2.259   3.147   3.386  0.5873  1.7888  0.1956
  312THF     H6 6399   2.126   3.106   3.034 -1.2154  2.9909 -0.3018
  312THF     H7 6400   1.976   3.062   3.106 -1.2368 -1.7538 -0.5176
  312THF     C8 6401   2.047   3.252   3.171  0.0034  0.4290 -0.2909
  312THF     C9 6402   2.178   3.276   3.244  0.5125 -0.0156  0.8289
  312THF    H10 6403   1.955   3.264   3.234  1.0357  1.1644 -2.8860
  312THF    H11 6404   2.035   3.327   3.093  0.9188  0.8160 -0.2375
  312THF    H12 6405   2.252   3.323   3.177  1.9115  0.8092  0.9642
  312THF    H13 6406   2.170   3.340   3.335  2.0079  0.2964 -1.1247
  313THF     O1 6407   2.017   2.721   2.774  0.4232  0.0816 -0.1754
  313THF     C2 6408   2.076   2.642   2.673 -0.4617 -0.4922  0.4685
  313THF     C3 6409   1.883   2.665   2.792 -0.5443  0.5865  0.0756
  313THF     H4 6410   2.183   2.641   2.679 -0.4395  1.1128  0.9173
  313THF     H5 6411   2.046   2.684   2.575  1.7521 -0.1913 -2.0490
  313THF     H6 6412   1.838   2.697   2.884 -1.2897  2.6705 -1.6050
  313THF     H7 6413   1.817   2.690   2.714  0.7098 -1.9797 -0.3258
  313THF     C8 6414   1.919   2.514   2.795  0.6560  0.2136  0.0174
  313THF     C9 6415   2.022   2.503   2.686 -0.2125  0.1351  0.4855
  313THF    H10 6416   1.830   2.454   2.769  1.9690  1.2225 -1.0872
  313THF    H11 6417   1.954   2.493   2.892 -0.4522  1.0342 -1.1751
  313THF    H12 6418   2.094   2.429   2.715 -0.6960  0.7605  0.8274
  313THF    H13 6419   1.971   2.468   2.592 -1.5334 -1.5350 -1.3924
  314THF     O1 6420   4.457   5.299   0.845  0.1479  0.3930 -0.1844
  314THF     C2 6421   4.513   5.261   0.721  0.1262  0.3779  0.0365
  314THF     C3 6422   4.566   5.331   0.937  0.3051 -0.7169 -0.4052
  314THF     H4 6423   4.441   5.279   0.643  0.0556 -2.2644 -1.3250
  314THF     H5 6424   4.536   5.153   0.719 -0.7897  2.3285  1.2048
  314THF     H6 6425   4.534   5.398   1.017 -1.2951  0.3107 -0.7787
  314THF     H7 6426   4.599   5.246   0.991 -1.5993  1.4876  0.0231
  314THF     C8 6427   4.684   5.382   0.852 -0.0459  0.5762 -0.6696
  314THF     C9 6428   4.638   5.343   0.711  0.1591  0.3654  1.2889
  314THF    H10 6429   4.784   5.346   0.873  0.8991  1.5733  1.7397
  314THF    H11 6430   4.699   5.492   0.843 -0.1866  1.4160 -0.3532
  314THF    H12 6431   4.608   5.437   0.654 -3.9402  2.2248  2.0056
  314THF    H13 6432   4.710   5.277   0.660  0.5418 -0.4512 -0.9196
  315THF     O1 6433   1.430   4.419   0.339  0.4567  0.0658  0.0882
  315THF     C2 6434   1.446   4.283   0.342 -0.1190  0.5190 -0.2344
  315THF     C3 6435   1.412   4.455   0.474 -0.5850  0.6545  0.1327
  315THF     H4 6436   1.482   4.248   0.249  0.2976 -1.1938  0.6277
  315THF     H5 6437   1.345   4.242   0.354  0.2654  1.6615  1.5185
  315THF     H6 6438   1.411   4.567   0.487  1.7462 -0.5662 -0.4156
  315THF     H7 6439   1.316   4.429   0.513 -1.0561  1.1820 -0.4512
  315THF     C8 6440   1.528   4.378   0.551  0.1358 -0.3608  0.2028
  315THF     C9 6441   1.541   4.249   0.458 -0.3772 -0.2918 -0.4900
  315THF    H10 6442   1.501   4.365   0.653  0.7356  1.7970 -3.1507
  315THF    H11 6443   1.621   4.438   0.544  0.2644  2.1693  0.4025
  315THF    H12 6444   1.642   4.230   0.422  0.0611 -1.4580 -1.3161
  315THF    H13 6445   1.508   4.157   0.507  3.0807 -1.3328  0.0490
  316THF     O1 6446   3.745   3.076   2.737  0.1282  0.5399 -0.2573
  316THF     C2 6447   3.684   3.173   2.815 -0.3582 -0.1202  0.6255
  316THF     C3 6448   3.690   3.088   2.610 -0.2635  0.3137  0.5774
  316THF     H4 6449   3.757   3.217   2.890  0.2793  1.5336 -0.7140
  316THF     H5 6450   3.609   3.119   2.870  0.5471 -0.2698  0.2027
  316THF     H6 6451   3.762   3.130   2.540  1.3252  1.6685 -2.2989
  316THF     H7 6452   3.655   2.991   2.581  1.7246 -1.7289  1.1546
  316THF     C8 6453   3.564   3.182   2.609 -0.2327  0.0529  0.0912
  316THF     C9 6454   3.608   3.269   2.721  0.3002 -0.5434 -0.3730
  316THF    H10 6455   3.470   3.128   2.639 -2.9185 -3.1615  1.6643
  316THF    H11 6456   3.549   3.228   2.505  0.0878  0.2078 -4.8820
  316THF    H12 6457   3.687   3.338   2.692 -1.3699  1.2228  0.4981
  316THF    H13 6458   3.535   3.328   2.768  2.0030 -0.0399 -0.1960
  317THF     O1 6459   4.250   4.014   4.488 -0.1361 -0.1045  0.6836
  317THF     C2 6460   4.392   3.990   4.473 -0.7087 -0.1174 -0.0551
  317THF     C3 6461   4.197   3.889   4.473 -0.2766 -0.9339  0.3564
  317THF     H4 6462   4.435   3.938   4.554  0.1029  0.6049 -0.9714
  317THF     H5 6463   4.458   4.073   4.446  0.9690 -1.7935  0.8824
  317THF     H6 6464   4.224   3.826   4.561 -0.1343 -0.1977  1.8142
  317THF     H7 6465   4.089   3.880   4.473  0.2368 -0.4934 -1.5873
  317THF     C8 6466   4.254   3.837   4.341  0.1115 -0.0411 -0.2999
  317THF     C9 6467   4.398   3.882   4.362  0.0239 -0.2163 -0.0064
  317THF    H10 6468   4.206   3.885   4.257 -1.1757  1.0294  1.2247
  317THF    H11 6469   4.256   3.734   4.329  3.0050  2.4408 -1.0869
  317THF    H12 6470   4.456   3.793   4.398  0.6573  0.2960  1.2608
  317THF    H13 6471   4.439   3.926   4.270  1.0545  0.8777 -2.4839
  318THF     O1 6472   1.491   1.731   5.021  0.0890 -0.0281 -0.1639
  318THF     C2 6473   1.467   1.844   4.938  0.1700  0.0131 -0.1316
  318THF     C3 6474   1.489   1.616   4.935  0.0101 -0.0327 -0.0328
  318THF     H4 6475   1.493   1.930   4.987 -0.3318 -2.4472 -0.9988
  318THF     H5 6476   1.363   1.855   4.917  1.4038  0.0560 -2.2574
  318THF     H6 6477   1.523   1.527   4.980  2.1875 -0.1706 -0.1794
  318THF     H7 6478   1.388   1.590   4.902 -0.2580  3.4735  0.2026
  318THF     C8 6479   1.575   1.662   4.813  0.0648  0.5243 -0.3517
  318THF     C9 6480   1.542   1.807   4.810  0.2802  0.0880 -0.1142
  318THF    H10 6481   1.548   1.608   4.722  2.4618  1.0254 -0.5591
  318THF    H11 6482   1.681   1.636   4.825  0.3965 -0.7831 -0.8805
  318THF    H12 6483   1.642   1.855   4.800 -0.4950  1.6944  0.0291
  318THF    H13 6484   1.490   1.833   4.726  2.2799 -0.4857  2.4377
  319THF     O1 6485   0.696   0.596   0.999 -0.0452 -0.2230 -0.1314
  319THF     C2 6486   0.598   0.549   0.910 -0.2292  0.1814  0.2559
  319THF     C3 6487   0.768   0.699   0.931 -0.5223 -0.0582 -0.2502
  319THF     H4 6488   0.498   0.581   0.921  1.1184  0.4127  2.7890
  319THF     H5 6489   0.590   0.445   0.938  1.3143  2.0969 -0.2324
  319THF     H6 6490   0.711   0.792   0.931  3.1301 -0.1897  0.4271
  319THF     H7 6491   0.863   0.732   0.975  2.4962  1.6754  0.5115
  319THF     C8 6492   0.779   0.628   0.796 -0.4101 -0.0224  0.2911
  319THF     C9 6493   0.651   0.560   0.769  0.4123  0.6799 -0.7270
  319THF    H10 6494   0.856   0.553   0.809 -0.5737 -1.0702 -0.5285
  319THF    H11 6495   0.811   0.692   0.713  0.0074 -0.9738 -0.1524
  319THF    H12 6496   0.595   0.625   0.699 -1.6397 -0.0301  0.0962
  319THF    H13 6497   0.664   0.459   0.738 -2.7587 -1.7236  2.3887
  320THF     O1 6498   4.776   3.128   1.242  0.2251  0.1306  0.2560
  320THF     C2 6499   4.753   3.093   1.106  0.1860 -0.8275  0.0237
  320THF     C3 6500   4.646   3.158   1.303 -0.2153 -0.2479  0.1366
  320THF     H4 6501   4.826   3.024   1.064 -1.1951  1.3763 -1.7771
  320THF     H5 6502   4.740   3.185   1.054 -3.0663 -0.3019  3.4969
  320THF     H6 6503   4.649   3.155   1.410 -0.8220  0.8150  0.9867
  320THF     H7 6504   4.617   3.265   1.288 -1.6405 -2.7392 -0.3646
  320THF     C8 6505   4.544   3.074   1.235  0.2809  0.1623  0.5662
  320THF     C9 6506   4.612   3.031   1.108  0.4852 -0.4747  0.4679
  320THF    H10 6507   4.451   3.130   1.226 -2.0432  1.4757 -0.3787
  320THF    H11 6508   4.532   2.996   1.313  2.1655  2.6603  0.6319
  320THF    H12 6509   4.624   2.923   1.105  0.4363 -2.0883  0.2930
  320THF    H13 6510   4.545   3.049   1.026 -1.0493 -0.2546  1.6074
  321THF     O1 6511   3.801   1.200   4.794 -0.3394 -0.2605 -0.4170
  321THF     C2 6512   3.765   1.338   4.747 -0.3331  0.0857  1.0284
  321THF     C3 6513   3.916   1.226   4.877 -0.4712  0.4834  0.5808
  321THF     H4 6514   3.701   1.386   4.823 -1.4365  0.1961  1.7125
  321THF     H5 6515   3.700   1.318   4.659 -2.0398 -0.2123 -1.2345
  321THF     H6 6516   3.877   1.265   4.974 -0.7136 -0.4208  0.8208
  321THF     H7 6517   3.967   1.131   4.899 -0.4195  0.1198  2.7436
  321THF     C8 6518   4.004   1.327   4.804  0.1374  0.2876  0.4327
  321THF     C9 6519   3.904   1.402   4.717 -0.8927  0.1259  0.5213
  321THF    H10 6520   4.083   1.291   4.739  2.6318  1.2477  2.1965
  321THF    H11 6521   4.057   1.386   4.869 -0.0400  1.1206  0.4857
  321THF    H12 6522   3.898   1.501   4.737 -0.4242 -3.8106 -0.3861
  321THF    H13 6523   3.935   1.397   4.612  1.8331 -0.1901 -0.3449
  322THF     O1 6524   2.590   1.517   3.491 -0.0111  0.6124 -0.6631
  322THF     C2 6525   2.646   1.646   3.520 -0.0892  0.0339 -0.4618
  322THF     C3 6526   2.452   1.547   3.470 -0.8064  0.1931 -0.7836
  322THF     H4 6527   2.743   1.643   3.484 -2.3280 -3.6078  0.5861
  322THF     H5 6528   2.662   1.675   3.622  1.4010 -1.6668 -3.1063
  322THF     H6 6529   2.396   1.459   3.426 -1.7056 -0.4517 -0.2096
  322THF     H7 6530   2.403   1.565   3.569 -1.6497 -0.4423 -1.9061
  322THF     C8 6531   2.451   1.676   3.384  0.0939  0.2810 -0.6167
  322THF     C9 6532   2.569   1.742   3.422  0.3461 -0.2857  1.0058
  322THF    H10 6533   2.358   1.733   3.413  0.0878 -0.0566  1.6775
  322THF    H11 6534   2.443   1.644   3.282  0.9693  0.2580  0.7963
  322THF    H12 6535   2.624   1.778   3.335 -2.2976  0.7859 -0.3211
  322THF    H13 6536   2.549   1.835   3.477 -1.4114  0.8619  1.0119
  323THF     O1 6537   0.638   0.675   5.247  0.4309 -0.1627  0.4376
  323THF     C2 6538   0.727   0.604   5.330 -0.1635 -0.5505  0.2130
  323THF     C3 6539   0.545   0.742   5.335 -0.7052  0.3394  0.1880
  323THF     H4 6540   0.795   0.670   5.388 -0.4625  2.3191 -1.6341
  323THF     H5 6541   0.784   0.552   5.256 -1.6241  3.1074  2.0943
  323THF     H6 6542   0.592   0.834   5.370 -0.8368 -2.3038 -1.6123
  323THF     H7 6543   0.450   0.775   5.291 -2.8655  0.3961  1.5761
  323THF     C8 6544   0.535   0.644   5.449  0.6224 -0.4092 -0.6815
  323THF     C9 6545   0.634   0.531   5.428  0.9031  0.0746 -0.0006
  323THF    H10 6546   0.430   0.608   5.442  0.3610  3.3644 -1.0106
  323THF    H11 6547   0.556   0.696   5.539 -1.4502  1.4412 -2.2671
  323THF    H12 6548   0.687   0.508   5.514 -0.5662 -2.6324 -2.2450
  323THF    H13 6549   0.575   0.440   5.391 -2.8269  0.0237  1.4721
  324THF     O1 6550   5.212   3.714   3.083 -0.1211 -0.2061 -0.0586
  324THF     C2 6551   5.147   3.616   3.007  0.1059 -0.6532  0.9477
  324THF     C3 6552   5.268   3.800   2.992  0.4260  0.2021  0.5498
  324THF     H4 6553   5.063   3.568   3.060  1.6982  0.0311  0.7761
  324THF     H5 6554   5.228   3.552   2.974 -0.6275  2.6881 -1.1348
  324THF     H6 6555   5.283   3.900   3.039 -2.6727 -1.6575  0.2946
  324THF     H7 6556   5.366   3.767   2.975 -1.0715  0.2225 -3.0332
  324THF     C8 6557   5.169   3.805   2.873  0.2141  0.1847 -0.2191
  324THF     C9 6558   5.098   3.679   2.884 -0.0460 -0.1856 -0.2931
  324THF    H10 6559   5.208   3.822   2.774 -1.1961  0.1961 -4.0221
  324THF    H11 6560   5.111   3.894   2.890  0.9041 -1.3467  0.4192
  324THF    H12 6561   4.996   3.707   2.907 -2.5288  0.2824 -0.5038
  324THF    H13 6562   5.100   3.615   2.800  0.5885 -0.1114  2.8005
  325THF     O1 6563   2.652   3.794   2.810  0.3112 -0.3503 -0.1973
  325THF     C2 6564   2.614   3.930   2.790  0.3606 -0.2826  0.2122
  325THF     C3 6565   2.777   3.801   2.878 -0.2668 -0.1091 -0.1265
  325THF     H4 6566   2.551   3.964   2.870  0.7931  0.8856 -1.8406
  325THF     H5 6567   2.556   3.939   2.688 -1.0285  0.1636 -0.3592
  325THF     H6 6568   2.751   3.838   2.977  1.7272 -0.5735  1.6557
  325THF     H7 6569   2.824   3.700   2.877 -1.5847 -0.4105 -0.5046
  325THF     C8 6570   2.848   3.906   2.807 -0.3630  0.4315 -0.1423
  325THF     C9 6571   2.742   4.021   2.797  0.1129  0.6577  1.0170
  325THF    H10 6572   2.868   3.861   2.708  3.0601  0.9061  2.0800
  325THF    H11 6573   2.938   3.939   2.862 -2.3653 -0.4904  0.8130
  325THF    H12 6574   2.723   4.087   2.883 -0.4202 -1.5481 -0.7456
  325THF    H13 6575   2.767   4.077   2.709 -0.9019  0.8382 -0.0977
  326THF     O1 6576   5.305   4.978   0.313 -0.0911  0.1377 -0.2701
  326THF     C2 6577   5.445   4.975   0.324 -0.1498  0.0316 -0.6962
  326THF     C3 6578   5.255   5.087   0.388  0.5492 -0.3174  0.2863
  326THF     H4 6579   5.485   4.969   0.221 -1.1734 -0.0525 -0.0008
  326THF     H5 6580   5.467   4.891   0.385  0.1456  3.5160  0.0074
  326THF     H6 6581   5.156   5.108   0.344 -0.6329 -1.7928 -3.7831
  326THF     H7 6582   5.225   5.057   0.485 -1.3055 -0.8144  0.9322
  326THF     C8 6583   5.361   5.191   0.385  0.7942 -0.2942  0.0147
  326THF     C9 6584   5.484   5.108   0.392  0.8661 -0.6107 -0.1280
  326THF    H10 6585   5.353   5.265   0.467  0.0711  0.1968  1.1185
  326THF    H11 6586   5.362   5.242   0.285 -1.0968 -2.1405 -4.7308
  326THF    H12 6587   5.557   5.163   0.336  1.6178  1.5455 -1.1137
  326THF    H13 6588   5.527   5.084   0.491 -1.1113 -0.8161  0.8853
  327THF     O1 6589   5.139   4.555   0.515 -0.3531  0.3125  0.6959
  327THF     C2 6590   5.155   4.663   0.427  0.6100  0.2797  0.3844
  327THF     C3 6591   4.996   4.530   0.523  0.0879 -0.4035 -0.2121
  327THF     H4 6592   5.145   4.619   0.328 -2.1417 -1.2009  0.4872
  327THF     H5 6593   5.253   4.712   0.422  1.4081 -0.7509 -0.5243
  327THF     H6 6594   4.966   4.485   0.431  0.2369  1.9994 -1.9954
  327THF     H7 6595   4.970   4.465   0.608 -3.2078  1.3063  1.8603
  327THF     C8 6596   4.944   4.668   0.533 -0.3718 -0.0101  0.8410
  327THF     C9 6597   5.032   4.751   0.439  0.2163  0.3679  0.0933
  327THF    H10 6598   4.973   4.698   0.634 -0.1906 -0.4517  0.5367
  327THF    H11 6599   4.840   4.681   0.530  0.3004  2.4793 -0.5521
  327THF    H12 6600   4.975   4.745   0.346 -1.0636  0.3856  2.6859
  327THF    H13 6601   5.036   4.854   0.477 -1.8971  0.9515 -0.1141
  328THF     O1 6602   1.619   3.323   2.832 -0.0547  0.6920  0.2245
  328THF     C2 6603   1.511   3.391   2.891  0.6013 -0.3440 -0.0713
  328THF     C3 6604   1.672   3.236   2.931  0.6481 -0.0438  0.0220
  328THF     H4 6605   1.441   3.439   2.821  2.4620 -0.2004 -1.5788
  328THF     H5 6606   1.550   3.468   2.954 -0.0333 -1.4233 -0.5056
  328THF     H6 6607   1.729   3.155   2.886  3.8235 -1.0662 -0.5094
  328THF     H7 6608   1.730   3.286   3.009  2.3403  2.0058  0.6805
  328THF     C8 6609   1.543   3.181   2.979  0.0946  0.1012  0.0860
  328THF     C9 6610   1.434   3.281   2.967  0.4421 -0.0326  0.3070
  328THF    H10 6611   1.557   3.147   3.075  1.5021 -1.5312 -2.1944
  328THF    H11 6612   1.521   3.101   2.916  3.8538  2.2953  1.0242
  328THF    H12 6613   1.348   3.238   2.914  0.2469 -4.4620  0.1499
  328THF    H13 6614   1.406   3.323   3.061 -1.2782  1.2959  0.4539
  329THF     O1 6615   4.895   5.089   0.767 -0.1319  0.0704  0.1879
  329THF     C2 6616   4.932   4.958   0.816 -0.2161  0.5024 -0.0152
  329THF     C3 6617   5.022   5.149   0.732  0.5910 -0.1156  0.4384
  329THF     H4 6618   4.906   4.888   0.734 -2.8038 -0.6059  0.7543
  329THF     H5 6619   4.868   4.929   0.893  0.4323 -0.8037 -1.6899
  329THF     H6 6620   5.049   5.128   0.629 -1.8384  2.3733 -0.9389
  329THF     H7 6621   5.022   5.256   0.736  1.3099 -1.9194 -0.7384
  329THF     C8 6622   5.129   5.085   0.827  0.4854  0.5863  0.3438
  329THF     C9 6623   5.082   4.941   0.853 -0.1157 -0.4375  0.3504
  329THF    H10 6624   5.137   5.151   0.912  0.5490 -1.0436 -1.0776
  329THF    H11 6625   5.222   5.083   0.774 -2.2895 -0.5754 -0.5450
  329THF    H12 6626   5.137   4.872   0.797 -0.6668 -0.2034  0.1441
  329THF    H13 6627   5.090   4.917   0.952 -0.2087  1.3051  0.8136
  330THF     O1 6628   1.278   1.622   1.061  0.1744 -0.6294 -0.1280
  330THF     C2 6629   1.413   1.674   1.049  0.5207  0.3059  0.4759
  330THF     C3 6630   1.281   1.497   1.131  0.0626  0.1433  0.4799
  330THF     H4 6631   1.414   1.777   1.086  2.1291  0.6187  0.8280
  330THF     H5 6632   1.434   1.672   0.942  0.9519  0.7026  0.6028
  330THF     H6 6633   1.257   1.521   1.238  0.4452  1.9313  2.2091
  330THF     H7 6634   1.209   1.428   1.087 -0.8094  3.1648 -3.1176
  330THF     C8 6635   1.426   1.450   1.117 -0.6509 -0.2909  0.5281
  330THF     C9 6636   1.496   1.580   1.133 -0.1009  0.2753 -0.1959
  330THF    H10 6637   1.451   1.406   1.015 -0.7941  0.1639 -2.7293
  330THF    H11 6638   1.452   1.367   1.176 -0.2842  2.8277 -0.0349
  330THF    H12 6639   1.491   1.615   1.237  0.2842 -0.9181 -0.0033
  330THF    H13 6640   1.603   1.592   1.095 -1.4553 -2.6244  0.5067
  331THF     O1 6641   5.374   4.711   1.861 -0.3387  0.3144  0.1301
  331THF     C2 6642   5.286   4.828   1.872 -0.0485  0.3611  0.6966
  331THF     C3 6643   5.327   4.645   1.745 -0.5264 -0.7385 -0.7078
  331THF     H4 6644   5.316   4.908   1.931 -0.5862 -1.3600  1.1899
  331THF     H5 6645   5.187   4.791   1.912 -3.5242 -2.3622 -0.1474
  331THF     H6 6646   5.407   4.577   1.711 -0.6304  0.1145 -2.7022
  331THF     H7 6647   5.242   4.584   1.770  0.8039  1.6327 -1.1646
  331THF     C8 6648   5.296   4.753   1.643 -0.6856  0.0827 -0.5479
  331THF     C9 6649   5.274   4.878   1.726  1.0651 -0.2270  0.4164
  331THF    H10 6650   5.209   4.726   1.578 -1.3494  0.0153 -0.7018
  331THF    H11 6651   5.374   4.770   1.576  1.2696 -1.2786 -0.0116
  331THF    H12 6652   5.342   4.967   1.695  1.4929  2.1311 -1.1858
  331THF    H13 6653   5.173   4.911   1.709 -0.2391 -0.0907  0.0798
  332THF     O1 6654   5.136   3.970   1.076 -0.1334  0.3896  0.3425
  332THF     C2 6655   5.084   4.036   0.972  0.0897  0.1343  0.0540
  332THF     C3 6656   5.039   3.881   1.123  0.1509 -0.1096 -0.2617
  332THF     H4 6657   5.079   3.969   0.879 -0.2150 -1.3448  0.5707
  332THF     H5 6658   5.134   4.128   0.932  0.4763  1.7048 -0.3750
  332THF     H6 6659   5.024   3.800   1.056  1.7614 -1.2363  2.4650
  332THF     H7 6660   5.061   3.834   1.221 -0.6463 -3.1340  2.2767
  332THF     C8 6661   4.912   3.965   1.116 -0.1731  0.3900  1.0478
  332THF     C9 6662   4.937   4.065   1.009 -0.1020  0.8138  0.0668
  332THF    H10 6663   4.905   4.003   1.214 -1.1062 -0.3346  0.2957
  332THF    H11 6664   4.825   3.906   1.105  2.7207 -1.4867 -0.7708
  332THF    H12 6665   4.889   4.023   0.925  0.6426 -1.2166 -0.7705
  332THF    H13 6666   4.904   4.167   1.036  1.2545 -2.4586 -0.8351
  333THF     O1 6667   4.779   5.270   2.444 -0.1474 -0.4254  0.2042
  333THF     C2 6668   4.720   5.284   2.572 -0.5302 -0.3282 -0.2749
  333THF     C3 6669   4.838   5.399   2.400  0.1367 -0.7860  0.0282
  333THF     H4 6670   4.706   5.191   2.623 -2.0616 -2.5576  1.3983
  333THF     H5 6671   4.618   5.320   2.568 -1.4346 -0.4631  0.3073
  333THF     H6 6672   4.909   5.399   2.321 -0.4673  3.3139 -0.5097
  333THF     H7 6673   4.760   5.461   2.373  4.3964 -1.7203  0.4300
  333THF     C8 6674   4.900   5.439   2.534 -0.1791  0.6470  0.5114
  333THF     C9 6675   4.815   5.377   2.641 -0.4665  0.4202 -0.1319
  333THF    H10 6676   4.914   5.541   2.545 -1.8299 -1.6467 -0.2708
  333THF    H11 6677   5.002   5.394   2.534 -0.2062  3.2130 -2.1447
  333THF    H12 6678   4.875   5.334   2.721 -1.5493 -0.8747 -1.6681
  333THF    H13 6679   4.757   5.454   2.680 -2.0158 -0.3842  1.6243
  334THF     O1 6680   1.400   3.351   2.234  0.6345  0.1742  1.0287
  334THF     C2 6681   1.424   3.315   2.100  0.0601  0.1527  0.2546
  334THF     C3 6682   1.280   3.430   2.245  0.4306  0.4341  0.4821
  334THF     H4 6683   1.499   3.238   2.090 -0.1109  1.8335  0.1985
  334THF     H5 6684   1.449   3.405   2.039 -0.8230  1.0239 -1.3660
  334THF     H6 6685   1.230   3.427   2.345 -2.2631 -0.0699  1.0259
  334THF     H7 6686   1.306   3.537   2.229  0.2603 -2.1202 -1.1981
  334THF     C8 6687   1.196   3.363   2.139 -0.0233  0.5815  0.2108
  334THF     C9 6688   1.288   3.258   2.068  0.3380 -0.1107 -0.3341
  334THF    H10 6689   1.150   3.442   2.082  1.0637 -0.1433 -0.2945
  334THF    H11 6690   1.112   3.314   2.193 -0.5333  0.0018 -0.0949
  334THF    H12 6691   1.272   3.155   2.111  0.4777 -0.7178  1.2801
  334THF    H13 6692   1.276   3.242   1.967 -0.0257 -0.5036  2.4103
  335THF     O1 6693   3.502   0.335   5.476 -0.5665  0.0101 -0.5877
  335THF     C2 6694   3.446   0.249   5.576 -0.5585  0.3446 -0.0156
  335THF     C3 6695   3.397   0.394   5.402  0.5136 -0.8846 -0.1449
  335THF     H4 6696   3.504   0.253   5.669  0.4736 -1.3189 -3.4002
  335THF     H5 6697   3.454   0.146   5.544  0.6615  0.1968 -1.1236
  335THF     H6 6698   3.425   0.495   5.368 -1.0100  0.7465  1.5859
  335THF     H7 6699   3.359   0.335   5.322  0.0275  1.6408 -1.7581
  335THF     C8 6700   3.294   0.418   5.511  0.4360  0.4132  0.0761
  335THF     C9 6701   3.301   0.295   5.601 -0.2449 -0.5787 -0.3987
  335THF    H10 6702   3.198   0.444   5.468  3.6060  1.0624 -1.0332
  335THF    H11 6703   3.325   0.508   5.572  0.7409  0.8328 -3.3671
  335THF    H12 6704   3.279   0.316   5.702 -0.0290  2.9586 -3.6217
  335THF    H13 6705   3.229   0.220   5.562 -0.9876  0.7491  0.1667
  336THF     O1 6706   4.193   5.281   3.751  0.0119 -0.0983  0.6976
  336THF     C2 6707   4.173   5.147   3.806  0.0169  0.9353  0.1014
  336THF     C3 6708   4.334   5.321   3.761  0.2972  0.3479 -0.4014
  336THF     H4 6709   4.131   5.092   3.722 -0.8098  3.9187  1.5651
  336THF     H5 6710   4.096   5.135   3.883  0.6434  1.1882 -1.2256
  336THF     H6 6711   4.384   5.314   3.670  1.7697  2.3080 -0.6787
  336THF     H7 6712   4.332   5.419   3.788  1.5023  1.7862 -2.4979
  336THF     C8 6713   4.399   5.216   3.857 -0.0684 -0.1833 -0.2267
  336THF     C9 6714   4.310   5.095   3.840  0.0959  0.1184  0.3609
  336THF    H10 6715   4.399   5.254   3.965 -1.7492 -0.0610  0.8806
  336THF    H11 6716   4.500   5.207   3.832 -0.6833 -1.2677  3.0480
  336THF    H12 6717   4.352   5.037   3.754  0.6390 -0.3323  1.2112
  336THF    H13 6718   4.316   5.038   3.930  0.1086  3.7338 -1.8722
  337THF     O1 6719   2.148   2.963   3.744  0.3495  0.0712 -0.4016
  337THF     C2 6720   2.149   2.829   3.693  0.1253  0.6000 -0.7754
  337THF     C3 6721   2.053   3.031   3.665 -0.3225 -0.7591 -0.1917
  337THF     H4 6722   2.058   2.763   3.719 -1.1945 -1.8391 -0.0117
  337THF     H5 6723   2.237   2.773   3.712 -1.3135 -1.3596 -0.1469
  337THF     H6 6724   1.962   3.036   3.721  0.2110 -1.6116 -1.0149
  337THF     H7 6725   2.084   3.132   3.642  1.3568 -0.5792 -1.7453
  337THF     C8 6726   2.030   2.953   3.541  0.3021  0.2699 -0.3109
  337THF     C9 6727   2.132   2.852   3.544 -0.0319  0.2999 -0.1405
  337THF    H10 6728   2.042   3.011   3.446 -0.5956 -3.1185  1.3109
  337THF    H11 6729   1.934   2.899   3.540 -1.4023 -0.8480 -0.9824
  337THF    H12 6730   2.100   2.763   3.486 -2.3143 -0.1166  1.3384
  337THF    H13 6731   2.226   2.888   3.501 -1.7509  2.2459  0.1007
  338THF     O1 6732   4.301   2.392   4.349  0.2708  0.1169  0.4445
  338THF     C2 6733   4.256   2.477   4.248  0.9838 -0.4863 -0.7931
  338THF     C3 6734   4.446   2.401   4.342 -0.4067  0.5760  0.6710
  338THF     H4 6735   4.147   2.500   4.262 -2.3130 -0.3643 -0.6612
  338THF     H5 6736   4.278   2.432   4.145 -1.2995  0.8911 -2.1363
  338THF     H6 6737   4.497   2.350   4.423 -1.3817 -1.1167 -0.7921
  338THF     H7 6738   4.473   2.350   4.251 -0.8729 -2.2849 -0.4749
  338THF     C8 6739   4.472   2.548   4.324 -0.6142 -0.3040 -0.5041
  338THF     C9 6740   4.346   2.605   4.262 -0.0944 -0.5296  0.4552
  338THF    H10 6741   4.559   2.570   4.269  1.0875 -2.3838 -3.8178
  338THF    H11 6742   4.470   2.585   4.430 -2.7123  1.1028 -1.1041
  338THF    H12 6743   4.309   2.676   4.339  0.3602  1.5450  1.2476
  338THF    H13 6744   4.368   2.649   4.162 -1.0368 -0.2998 -0.5302
  339THF     O1 6745   3.081   4.204   1.122  1.0973  0.4099 -0.3639
  339THF     C2 6746   3.154   4.319   1.134 -0.1123  0.1964  0.8417
  339THF     C3 6747   2.942   4.227   1.089 -0.4441 -0.1900  0.7119
  339THF     H4 6748   3.181   4.364   1.037 -1.5366 -1.4640  2.3934
  339THF     H5 6749   3.241   4.316   1.193 -1.4310  1.3261  1.6768
  339THF     H6 6750   2.928   4.203   0.977  1.3850  1.2749 -1.7618
  339THF     H7 6751   2.876   4.165   1.145 -1.5626  4.6446  0.4902
  339THF     C8 6752   2.915   4.370   1.127  0.2175 -0.6021 -0.5997
  339THF     C9 6753   3.040   4.407   1.198  0.5529 -0.5487  0.0319
  339THF    H10 6754   2.824   4.382   1.192 -0.6771  0.6531 -3.3484
  339THF    H11 6755   2.899   4.422   1.036 -2.1963 -0.8922  1.3053
  339THF    H12 6756   3.070   4.509   1.197  1.7044 -1.7158 -1.8881
  339THF    H13 6757   3.027   4.367   1.303  1.1541 -1.2646 -0.5889
  340THF     O1 6758   4.774   0.250   2.436 -0.2575  0.3773  0.0252
  340THF     C2 6759   4.804   0.388   2.405 -0.1083  0.3521  0.0810
  340THF     C3 6760   4.653   0.238   2.503 -0.3650  0.0978  0.3428
  340THF     H4 6761   4.866   0.378   2.318  2.4054  1.7052  0.3080
  340THF     H5 6762   4.869   0.433   2.478  1.7241  0.5862 -2.7815
  340THF     H6 6763   4.591   0.156   2.460 -0.7694  1.2518  1.6813
  340THF     H7 6764   4.673   0.212   2.614  2.7983  2.7203  0.6361
  340THF     C8 6765   4.571   0.367   2.471 -0.4136 -0.3481  0.2545
  340THF     C9 6766   4.672   0.454   2.397  0.3781  0.3353 -0.6364
  340THF    H10 6767   4.532   0.414   2.563 -1.0577  0.7643 -0.7271
  340THF    H11 6768   4.481   0.346   2.412 -0.6324 -2.1105 -1.4800
  340THF    H12 6769   4.636   0.460   2.297  0.1310  0.6412  0.2526
  340THF    H13 6770   4.679   0.559   2.422  1.1658  0.1275 -1.4346
  341THF     O1 6771   5.257   3.917   2.395 -0.1438  0.0233 -0.2977
  341THF     C2 6772   5.227   3.793   2.336 -0.5806 -0.3710 -0.2289
  341THF     C3 6773   5.147   3.972   2.472 -0.2381  0.5226 -0.0697
  341THF     H4 6774   5.216   3.708   2.409  0.2351 -2.3818  1.7370
  341THF     H5 6775   5.306   3.774   2.259  1.7402  0.2788 -2.6984
  341THF     H6 6776   5.158   3.943   2.576  0.6024 -0.6325  2.5411
  341THF     H7 6777   5.145   4.083   2.466  1.2339 -2.1379  0.6961
  341THF     C8 6778   5.027   3.902   2.402 -0.2657 -0.2327 -0.0092
  341THF     C9 6779   5.082   3.827   2.285 -0.0538  0.1803 -0.0324
  341THF    H10 6780   4.948   3.970   2.368  0.2890 -1.1838 -1.7104
  341THF    H11 6781   4.988   3.825   2.463 -1.2311  1.3887  0.8162
  341THF    H12 6782   5.032   3.742   2.236  1.5128 -1.5355 -0.2478
  341THF    H13 6783   5.088   3.898   2.200  3.7662 -0.8647  1.1850
  342THF     O1 6784   2.744   0.583   4.726 -0.1648  0.6246  0.0227
  342THF     C2 6785   2.808   0.663   4.824  0.7278 -0.6943 -0.1025
  342THF     C3 6786   2.683   0.471   4.790 -0.5155  0.0620 -0.0718
  342THF     H4 6787   2.829   0.768   4.796 -0.5302  1.4830 -1.9214
  342THF     H5 6788   2.897   0.616   4.848 -1.9681  1.6466 -1.8492
  342THF     H6 6789   2.607   0.430   4.724  0.0620 -0.3361 -2.3356
  342THF     H7 6790   2.757   0.390   4.793 -0.2333  1.2269 -1.6533
  342THF     C8 6791   2.641   0.514   4.935 -0.6038  0.1546 -0.0938
  342THF     C9 6792   2.705   0.649   4.941  0.0021 -0.5077 -0.5212
  342THF    H10 6793   2.674   0.451   5.024 -1.8167  3.7024  2.6916
  342THF    H11 6794   2.539   0.527   4.933  0.2775  0.3966 -0.7789
  342THF    H12 6795   2.623   0.723   4.919 -1.8051 -1.0985 -0.1018
  342THF    H13 6796   2.724   0.679   5.048 -2.3339 -0.1758  3.1149
  343THF     O1 6797   4.465   4.836   5.350 -0.3301 -0.0460  0.3286
  343THF     C2 6798   4.408   4.905   5.462 -0.4259  0.0096  0.1212
  343THF     C3 6799   4.424   4.701   5.354  0.1546 -0.1063  0.4614
  343THF     H4 6800   4.304   4.931   5.438 -0.2890  0.6734  0.1116
  343THF     H5 6801   4.465   4.996   5.487 -2.0431 -2.9239 -0.0015
  343THF     H6 6802   4.336   4.671   5.299 -0.1711 -1.3725  0.3502
  343THF     H7 6803   4.498   4.624   5.325 -0.8652 -0.1425 -0.4519
  343THF     C8 6804   4.388   4.676   5.507 -0.9622 -0.1861  0.0100
  343THF     C9 6805   4.425   4.809   5.572 -0.6928  0.5866  0.0503
  343THF    H10 6806   4.439   4.596   5.560  1.1334 -1.3161  4.9142
  343THF    H11 6807   4.284   4.659   5.521  0.1937  1.6926  0.9483
  343THF    H12 6808   4.369   4.814   5.662 -1.3495  0.1795  0.3508
  343THF    H13 6809   4.534   4.802   5.592 -0.5680 -1.2589  0.2935
  344THF     O1 6810   4.142   4.893   1.687 -0.2018  0.1985 -0.0533
  344THF     C2 6811   4.156   4.817   1.569 -1.1620 -0.1821 -0.4777
  344THF     C3 6812   4.103   4.799   1.790  0.5074 -0.0920  0.4372
  344THF     H4 6813   4.249   4.767   1.568  0.2050  0.4154 -1.4566
  344THF     H5 6814   4.150   4.878   1.478  0.5032  1.5028  0.6500
  344THF     H6 6815   4.202   4.758   1.823  1.3672 -1.4587 -0.4917
  344THF     H7 6816   4.052   4.851   1.868 -0.7563 -0.0278  0.8363
  344THF     C8 6817   4.013   4.712   1.713 -0.3936  0.0407  0.0286
  344THF     C9 6818   4.048   4.714   1.569  0.1668  0.0993  0.4969
  344THF    H10 6819   3.914   4.746   1.741  2.1813 -0.4597 -0.1827
  344THF    H11 6820   4.022   4.608   1.754  3.3968  0.9631 -0.7423
  344THF    H12 6821   4.055   4.630   1.513  0.5912  4.1008 -1.6260
  344THF    H13 6822   3.969   4.768   1.517  0.1378  1.2006 -0.8132
  345THF     O1 6823   0.333   1.171   4.194 -0.1333  0.0971  0.0182
  345THF     C2 6824   0.440   1.263   4.181  0.0665  0.4708  0.4050
  345THF     C3 6825   0.400   1.044   4.195  0.2513  0.4152 -0.1036
  345THF     H4 6826   0.419   1.371   4.197  1.8778  3.5900  2.1039
  345THF     H5 6827   0.488   1.255   4.084  0.7416 -2.6247 -1.9179
  345THF     H6 6828   0.320   0.982   4.236  2.8982  1.9013  2.3360
  345THF     H7 6829   0.423   1.011   4.095  1.3565  1.5597 -0.2740
  345THF     C8 6830   0.515   1.063   4.283  0.6922  0.0049 -1.1877
  345THF     C9 6831   0.542   1.214   4.278  0.2132 -0.2334  0.0002
  345THF    H10 6832   0.596   1.003   4.250  1.1904 -2.5429 -2.0345
  345THF    H11 6833   0.498   1.034   4.389 -0.6375 -1.1748 -1.3975
  345THF    H12 6834   0.530   1.251   4.380 -1.9815  0.9031 -0.9470
  345THF    H13 6835   0.642   1.226   4.241 -0.8124  1.5383  2.4917
  346THF     O1 6836   3.939   0.157   3.353 -0.2136 -0.6956  0.0232
  346THF     C2 6837   3.815   0.105   3.402 -0.3927  0.2215 -0.1684
  346THF     C3 6838   3.922   0.279   3.280 -0.6085 -0.7210  0.2182
  346THF     H4 6839   3.801   0.090   3.516 -3.4011  0.4890  2.7488
  346THF     H5 6840   3.811   0.005   3.360 -1.0334  1.1216 -0.3223
  346THF     H6 6841   3.922   0.361   3.355 -2.3136 -0.3430  0.3663
  346THF     H7 6842   4.001   0.302   3.205  0.2504 -1.0422  1.0266
  346THF     C8 6843   3.776   0.270   3.232  0.2616  0.1708  0.2050
  346THF     C9 6844   3.707   0.186   3.339  0.5772  0.3047 -1.0217
  346THF    H10 6845   3.769   0.224   3.132 -1.6042  0.4265  0.8817
  346THF    H11 6846   3.720   0.364   3.238  1.1684  1.0182  1.8444
  346THF    H12 6847   3.666   0.253   3.415 -1.7881 -1.2958  3.2842
  346THF    H13 6848   3.626   0.121   3.291  0.6116  1.4811 -0.0610
  347THF     O1 6849   0.289   5.190   2.928  0.2022 -0.5908 -0.2064
  347THF     C2 6850   0.382   5.134   2.844 -0.2193 -0.4429 -0.2162
  347THF     C3 6851   0.356   5.224   3.045  0.5255  0.0206 -0.1117
  347THF     H4 6852   0.449   5.204   2.797  1.8070 -1.1901  0.8520
  347THF     H5 6853   0.324   5.080   2.767 -1.2092 -2.7077 -1.2045
  347THF     H6 6854   0.428   5.302   3.020  1.8913 -0.0250  0.1891
  347THF     H7 6855   0.289   5.260   3.125  0.1410  0.2211 -0.6637
  347THF     C8 6856   0.438   5.095   3.078 -0.0754  0.1976  0.5760
  347THF     C9 6857   0.467   5.040   2.933 -0.0619 -0.3051 -0.5341
  347THF    H10 6858   0.380   5.026   3.140 -0.8624  1.4170 -0.5328
  347THF    H11 6859   0.532   5.106   3.129  0.9317 -1.0612 -0.4117
  347THF    H12 6860   0.573   5.025   2.912  0.0281 -0.2018 -0.5015
  347THF    H13 6861   0.421   4.947   2.925 -1.0935  1.7743  0.3251
  348THF     O1 6862   5.338   0.162   3.693  0.4658  0.3166  0.6609
  348THF     C2 6863   5.454   0.237   3.661  0.2694  0.6101 -0.5497
  348THF     C3 6864   5.364   0.055   3.783  0.2815 -0.2366  0.1153
  348THF     H4 6865   5.434   0.334   3.705 -1.9308 -1.1761 -0.8267
  348THF     H5 6866   5.468   0.256   3.559 -3.2647 -1.1377  2.1683
  348THF     H6 6867   5.291   0.058   3.864  2.4322 -1.4479 -0.6573
  348THF     H7 6868   5.355  -0.033   3.732 -0.6831 -0.1868 -1.9090
  348THF     C8 6869   5.513   0.076   3.829  1.0227 -0.0843  0.1197
  348THF     C9 6870   5.571   0.154   3.716 -0.3475  1.0589 -0.3128
  348THF    H10 6871   5.569  -0.013   3.859  0.9007 -1.2260  0.1734
  348THF    H11 6872   5.508   0.143   3.918  0.0816  0.6277 -0.5561
  348THF    H12 6873   5.653   0.207   3.762  2.2228 -0.4851  0.0906
  348THF    H13 6874   5.607   0.095   3.628  0.6274  3.0145  0.7862
  349THF     O1 6875   3.870   3.206   0.891  0.0116  0.0343 -0.1666
  349THF     C2 6876   3.991   3.195   0.813 -0.8486 -0.3022 -0.4596
  349THF     C3 6877   3.909   3.259   1.014 -0.8599 -0.2540 -0.0907
  349THF     H4 6878   4.007   3.283   0.750 -1.5705  0.7652  0.3207
  349THF     H5 6879   3.999   3.103   0.752 -0.2467 -0.4762 -0.8758
  349THF     H6 6880   3.920   3.369   1.013 -0.4061 -0.5404  1.3796
  349THF     H7 6881   3.835   3.242   1.083  0.1046 -0.1911 -2.0718
  349THF     C8 6882   4.031   3.183   1.047  0.2199 -0.2866 -0.7228
  349THF     C9 6883   4.105   3.198   0.920 -0.4533 -0.4684  0.0853
  349THF    H10 6884   4.022   3.079   1.083  1.3024 -0.8592 -1.0558
  349THF    H11 6885   4.076   3.240   1.136 -3.5643  0.6143  1.6018
  349THF    H12 6886   4.160   3.294   0.927 -0.8007 -1.3825 -1.1043
  349THF    H13 6887   4.183   3.122   0.917  2.6326 -0.3632  0.3419
  350THF     O1 6888   4.566   0.438   3.113  0.2809 -0.1312  0.0446
  350THF     C2 6889   4.599   0.565   3.063 -0.2988  0.0338  0.1411
  350THF     C3 6890   4.512   0.451   3.246 -0.3712 -0.6683  0.1528
  350THF     H4 6891   4.597   0.549   2.954  1.3211 -1.3924  0.6169
  350THF     H5 6892   4.701   0.588   3.093 -3.4516 -0.4437  1.0176
  350THF     H6 6893   4.444   0.371   3.272 -2.7585  1.7277  2.0890
  350THF     H7 6894   4.599   0.453   3.308 -1.2806  1.0545 -0.3612
  350THF     C8 6895   4.439   0.586   3.241 -0.1810  0.1380 -0.4295
  350THF     C9 6896   4.507   0.658   3.127  0.1434  0.8327 -0.4635
  350THF    H10 6897   4.441   0.637   3.334  0.4444 -1.1696 -2.6551
  350THF    H11 6898   4.333   0.565   3.211  0.5428  2.7253  0.2825
  350THF    H12 6899   4.438   0.694   3.052 -0.2491  0.1930  1.8555
  350THF    H13 6900   4.556   0.745   3.171  1.3571  2.0975  0.4548
  351THF     O1 6901   3.327   5.349   2.444 -0.0047  0.3780  0.1500
  351THF     C2 6902   3.449   5.407   2.410 -0.5628 -0.3398 -0.1154
  351THF     C3 6903   3.367   5.212   2.473  0.2364  0.3811 -0.4279
  351THF     H4 6904   3.509   5.404   2.504 -3.6339 -1.9171  2.1387
  351THF     H5 6905   3.441   5.509   2.367  1.3697  0.3370  0.1999
  351THF     H6 6906   3.426   5.207   2.568 -3.3787 -0.1843  0.9806
  351THF     H7 6907   3.282   5.146   2.486  1.1699 -0.5854 -2.7415
  351THF     C8 6908   3.454   5.174   2.356 -0.2366  0.4710  0.1895
  351THF     C9 6909   3.504   5.314   2.318  0.4266  0.1096 -0.2314
  351THF    H10 6910   3.392   5.127   2.280  0.5909 -2.3553 -1.6908
  351THF    H11 6911   3.532   5.096   2.395  1.8557 -1.5153  1.3327
  351THF    H12 6912   3.616   5.321   2.324  0.0746 -0.5035 -2.2495
  351THF    H13 6913   3.468   5.342   2.218 -0.0885 -0.8446 -2.0653
  352THF     O1 6914   0.114   5.242   2.566  0.1813  0.4175 -0.2848
  352THF     C2 6915   0.054   5.210   2.440 -0.0214  0.2614  0.6726
  352THF     C3 6916   0.252   5.275   2.545 -0.6388  0.9503  0.4085
  352THF     H4 6917   0.038   5.289   2.368  1.6737 -1.5654  2.5648
  352THF     H5 6918  -0.037   5.147   2.453 -0.6079  2.5852  0.3879
  352THF     H6 6919   0.258   5.372   2.501  1.1343 -0.8888 -1.0574
  352THF     H7 6920   0.307   5.259   2.635 -0.5887 -1.6346 -3.4881
  352THF     C8 6921   0.289   5.170   2.432 -0.1758 -0.3597 -0.8886
  352THF     C9 6922   0.154   5.117   2.374 -0.0143  0.0905  0.7715
  352THF    H10 6923   0.336   5.087   2.483  2.0332  1.9909 -0.1645
  352THF    H11 6924   0.363   5.198   2.357 -0.0039 -0.0318  1.0834
  352THF    H12 6925   0.150   5.115   2.266 -0.7096 -2.9118  0.4605
  352THF    H13 6926   0.138   5.013   2.405  0.1911  0.5866  2.7662
  353THF     O1 6927   0.684   1.578   3.703 -1.0395 -0.3798 -0.1998
  353THF     C2 6928   0.743   1.697   3.733  0.4697  0.1160 -0.2632
  353THF     C3 6929   0.787   1.503   3.649 -0.2303  0.1323  0.6849
  353THF     H4 6930   0.781   1.684   3.835 -0.0892 -0.7493  0.1130
  353THF     H5 6931   0.670   1.774   3.750 -2.1934 -0.7832  0.5790
  353THF     H6 6932   0.858   1.473   3.726 -2.3073 -1.7264 -4.0613
  353THF     H7 6933   0.749   1.409   3.602 -0.9694 -3.0133 -3.6008
  353THF     C8 6934   0.848   1.593   3.540  0.3532  0.0446  1.1880
  353THF     C9 6935   0.853   1.722   3.624 -0.1396  0.5501  0.1464
  353THF    H10 6936   0.795   1.611   3.444  0.7117 -1.4801  0.7257
  353THF    H11 6937   0.952   1.562   3.519 -0.6345  2.9542 -2.0596
  353THF    H12 6938   0.952   1.723   3.674  0.8288  0.1828  0.4251
  353THF    H13 6939   0.844   1.816   3.569 -1.0662  2.6423 -1.6407
  354THF     O1 6940   1.175   0.701   1.146  0.4991 -0.1443  0.0786
  354THF     C2 6941   1.284   0.654   1.065 -0.2144 -0.7659 -0.3242
  354THF     C3 6942   1.187   0.646   1.273 -0.3524 -0.0556 -0.0550
  354THF     H4 6943   1.318   0.748   1.016 -2.6017  1.0841  0.2084
  354THF     H5 6944   1.253   0.592   0.980 -0.6497  1.3067  3.6281
  354THF     H6 6945   1.157   0.715   1.349  0.9550 -0.1742  4.9353
  354THF     H7 6946   1.148   0.549   1.289  3.0459  0.4382 -2.8338
  354THF     C8 6947   1.334   0.653   1.292 -0.4786  0.0481 -0.8387
  354THF     C9 6948   1.380   0.586   1.161 -0.2767  0.0597 -0.1445
  354THF    H10 6949   1.371   0.593   1.378 -1.5666 -0.3780  0.2304
  354THF    H11 6950   1.370   0.758   1.302 -2.3222  0.9683  1.7992
  354THF    H12 6951   1.480   0.609   1.133  1.0047 -1.3325  1.0780
  354THF    H13 6952   1.352   0.481   1.161 -1.5449  1.1840  2.8558
  355THF     O1 6953   2.200   0.825   3.237 -0.4618 -0.1392 -0.4446
  355THF     C2 6954   2.172   0.766   3.108 -0.3551  0.6624 -0.1550
  355THF     C3 6955   2.071   0.851   3.288 -0.7327 -0.0719  0.8308
  355THF     H4 6956   2.261   0.709   3.067  1.1177  2.1204 -1.7653
  355THF     H5 6957   2.163   0.849   3.039 -0.8649  0.6504  0.5896
  355THF     H6 6958   2.068   0.866   3.401 -1.5743  0.8146  1.4415
  355THF     H7 6959   2.016   0.926   3.234 -1.6066 -0.1046 -0.1425
  355THF     C8 6960   1.996   0.722   3.268 -0.6647  0.3334  0.1161
  355THF     C9 6961   2.042   0.687   3.127  0.2061 -0.1730 -0.8457
  355THF    H10 6962   1.888   0.725   3.266 -0.0610 -1.8903 -0.4920
  355THF    H11 6963   2.021   0.635   3.331 -1.8697 -2.5482 -1.9651
  355THF    H12 6964   2.062   0.580   3.107  0.9433  0.0097  1.8527
  355THF    H13 6965   1.967   0.709   3.050 -1.1643  0.7890 -0.5057
  356THF     O1 6966   0.070   4.257   1.153 -0.1016 -0.1086  0.2035
  356THF     C2 6967   0.014   4.169   1.058  0.7587 -0.5535 -0.0480
  356THF     C3 6968   0.191   4.306   1.106  0.3765  0.6674  0.3648
  356THF     H4 6969  -0.094   4.148   1.079  2.6459  0.7208  3.2349
  356THF     H5 6970   0.061   4.069   1.059 -3.0389  0.2458  1.2009
  356THF     H6 6971   0.209   4.398   1.143  2.1067 -0.1574  1.9876
  356THF     H7 6972   0.265   4.233   1.139 -0.1134 -1.9681  1.0964
  356THF     C8 6973   0.179   4.301   0.955  0.0927  0.3249 -0.3996
  356THF     C9 6974   0.044   4.235   0.926  0.0559 -0.3240  0.3062
  356THF    H10 6975   0.263   4.244   0.914 -1.6315  2.5156  1.6184
  356THF    H11 6976   0.169   4.398   0.915 -0.6027  3.9825  1.1409
  356THF    H12 6977  -0.029   4.306   0.899  0.6690 -2.2915 -1.0313
  356THF    H13 6978   0.054   4.168   0.840 -2.3080  0.6946  0.6114
  357THF     O1 6979   3.003   5.056   1.680  0.1927 -0.5500 -0.2105
  357THF     C2 6980   3.037   5.153   1.776 -0.0124 -0.4618 -0.2849
  357THF     C3 6981   3.107   4.948   1.676 -0.7037 -0.0934  0.5115
  357THF     H4 6982   2.971   5.177   1.855  0.7557 -3.3749 -1.3537
  357THF     H5 6983   3.058   5.246   1.726 -2.8282  2.6496  4.4721
  357THF     H6 6984   3.073   4.867   1.742 -0.1986 -1.1085 -0.5681
  357THF     H7 6985   3.123   4.920   1.570 -1.4659  0.3639 -2.0101
  357THF     C8 6986   3.236   5.001   1.742  0.3493 -0.0843 -0.2238
  357THF     C9 6987   3.169   5.101   1.830  0.0086 -0.1483 -0.4714
  357THF    H10 6988   3.302   5.048   1.670 -0.3828 -1.9079 -0.3825
  357THF    H11 6989   3.297   4.929   1.793  1.4739 -0.3203  0.1525
  357THF    H12 6990   3.159   5.037   1.915 -3.0240  0.2492 -3.5144
  357THF    H13 6991   3.244   5.176   1.852  0.1192  0.2314 -0.9658
  358THF     O1 6992   3.193   2.821   1.083 -0.0518  0.4386 -0.1035
  358THF     C2 6993   3.109   2.725   1.017  0.8577 -0.3184 -0.4436
  358THF     C3 6994   3.314   2.752   1.119 -0.0888 -0.1667  0.5252
  358THF     H4 6995   3.151   2.731   0.918  2.0303 -1.6018  0.5502
  358THF     H5 6996   3.000   2.749   1.013  2.3358 -0.0870  1.9996
  358THF     H6 6997   3.377   2.730   1.034  1.5481 -1.4493 -1.4122
  358THF     H7 6998   3.384   2.825   1.174  0.4079  0.0360  2.3390
  358THF     C8 6999   3.261   2.620   1.173  0.2091 -0.5989 -1.0184
  358THF     C9 7000   3.141   2.590   1.083  0.2221  0.5795  0.3467
  358THF    H10 7001   3.234   2.629   1.276  0.9469  0.0016  0.3392
  358THF    H11 7002   3.337   2.538   1.177 -0.6848 -0.7919  0.4135
  358THF    H12 7003   3.166   2.521   1.006 -0.4510  0.1313 -1.6883
  358THF    H13 7004   3.068   2.546   1.143 -0.6707 -3.2651 -1.4895
  359THF     O1 7005   0.874   1.107   5.140  0.0356 -0.4396 -0.9377
  359THF     C2 7006   1.009   1.093   5.179  0.3514  0.4401  0.1834
  359THF     C3 7007   0.803   1.002   5.194  0.1793  0.4569  0.1246
  359THF     H4 7008   1.016   1.121   5.282 -2.5785 -0.6637  0.2002
  359THF     H5 7009   1.073   1.151   5.111  2.6090 -0.4364 -0.9942
  359THF     H6 7010   0.750   1.038   5.285  0.6895 -1.0643 -1.0565
  359THF     H7 7011   0.720   0.968   5.129 -1.0383 -1.5865  0.9444
  359THF     C8 7012   0.906   0.891   5.206  0.4255 -0.7017 -0.8652
  359THF     C9 7013   1.039   0.950   5.168 -0.9079 -0.8483  0.4355
  359THF    H10 7014   0.878   0.802   5.155 -0.3916  0.8771  0.3390
  359THF    H11 7015   0.916   0.854   5.310  1.1507 -0.2064  2.2609
  359THF    H12 7016   1.115   0.925   5.241 -0.5013  3.5270 -3.4482
  359THF    H13 7017   1.071   0.917   5.071  0.7783 -0.7235  0.7484
  360THF     O1 7018   2.993   4.242   3.857 -0.4794  0.3189  0.5130
  360THF     C2 7019   2.955   4.363   3.921 -0.1650 -0.0996  0.4207
  360THF     C3 7020   2.930   4.133   3.922  0.9623  0.4961 -0.2742
  360THF     H4 7021   2.954   4.450   3.861 -1.6719  0.9303  0.9183
  360THF     H5 7022   3.024   4.395   4.005  1.1671  1.0113  2.3921
  360THF     H6 7023   2.919   4.041   3.869  1.7898 -0.5944  0.8667
  360THF     H7 7024   2.996   4.099   3.996 -2.6805  0.7019  1.7355
  360THF     C8 7025   2.809   4.194   3.998  0.0861 -0.2564  0.5235
  360THF     C9 7026   2.815   4.340   3.965 -0.7965 -0.5776  0.9165
  360THF    H10 7027   2.830   4.181   4.105 -0.3469 -0.8038  2.5171
  360THF    H11 7028   2.711   4.144   3.971  0.3645  0.0696  1.3627
  360THF    H12 7029   2.744   4.363   3.886 -2.0250 -2.4645  2.9890
  360THF    H13 7030   2.800   4.406   4.053 -0.2947 -2.3765 -1.6083
  361THF     O1 7031   3.217   1.203   2.467  0.7428 -0.5335  0.1322
  361THF     C2 7032   3.272   1.258   2.582 -0.1322 -0.3731  0.1824
  361THF     C3 7033   3.077   1.173   2.493  0.2129  0.5286 -0.3339
  361THF     H4 7034   3.322   1.352   2.565  0.8377 -0.2262 -0.3506
  361THF     H5 7035   3.344   1.183   2.612 -0.0382 -1.3705 -1.2480
  361THF     H6 7036   3.021   1.211   2.403 -3.5938 -1.3540 -1.6761
  361THF     H7 7037   3.071   1.066   2.503  2.5210  1.5022 -1.9432
  361THF     C8 7038   3.043   1.257   2.616 -0.5822 -0.7246  0.1504
  361THF     C9 7039   3.171   1.254   2.697  0.1256 -0.2303  0.6062
  361THF    H10 7040   2.954   1.224   2.669 -0.0142 -1.4808  2.6383
  361THF    H11 7041   3.018   1.360   2.589 -2.0337 -0.9052  0.5746
  361THF    H12 7042   3.184   1.325   2.777 -0.8287 -0.4905  1.5072
  361THF    H13 7043   3.183   1.152   2.743  0.2798 -0.6891 -0.6725
  362THF     O1 7044   3.837   2.463   0.724 -0.4104 -0.0062 -0.0956
  362THF     C2 7045   3.966   2.506   0.674  1.0811  0.3266 -0.2675
  362THF     C3 7046   3.861   2.429   0.860 -0.1719 -0.3826  0.0335
  362THF     H4 7047   3.983   2.611   0.658 -1.2029 -2.1201 -3.5895
  362THF     H5 7048   3.979   2.470   0.574 -2.4492 -0.5547 -0.2441
  362THF     H6 7049   3.867   2.510   0.928  0.8568 -1.5012 -0.9316
  362THF     H7 7050   3.784   2.362   0.898  0.7595  0.5289 -1.8268
  362THF     C8 7051   3.998   2.364   0.858 -0.9392  0.1038  0.0290
  362THF     C9 7052   4.079   2.454   0.766  0.0109 -0.1539 -0.3513
  362THF    H10 7053   3.984   2.261   0.817 -1.8249 -1.6026 -2.7521
  362THF    H11 7054   4.044   2.344   0.958  4.3696 -1.8151  0.8473
  362THF    H12 7055   4.117   2.549   0.813  0.3048  1.3531 -1.8720
  362THF    H13 7056   4.159   2.399   0.729  0.2322 -1.0697  0.6381
  363THF     O1 7057   2.319   0.085   5.092 -0.2386  0.0286 -0.0666
  363THF     C2 7058   2.398   0.077   5.215 -0.2928  0.0739 -0.3612
  363THF     C3 7059   2.419   0.119   4.995  0.8639 -0.2999 -0.0174
  363THF     H4 7060   2.460  -0.018   5.222 -1.8200  0.8183 -4.1285
  363THF     H5 7061   2.326   0.080   5.292 -0.9066 -1.5206  0.1474
  363THF     H6 7062   2.481   0.029   4.984  1.2825  0.0670  0.3118
  363THF     H7 7063   2.378   0.152   4.896 -2.9986 -0.4611 -0.5279
  363THF     C8 7064   2.501   0.225   5.060  1.2745  0.0076 -0.2921
  363THF     C9 7065   2.479   0.212   5.209 -0.4776  0.1745 -0.2600
  363THF    H10 7066   2.460   0.320   5.036 -1.8397  1.1895 -1.3124
  363THF    H11 7067   2.609   0.233   5.031  1.3365  1.3670 -0.6926
  363THF    H12 7068   2.578   0.191   5.259 -0.1945  0.7239 -0.2504
  363THF    H13 7069   2.410   0.292   5.238 -2.5136  0.7810 -2.0611
  364THF     O1 7070   2.463   0.627   0.490  0.1086  0.1001 -0.2665
  364THF     C2 7071   2.430   0.580   0.612  0.2979 -0.1855 -0.4786
  364THF     C3 7072   2.512   0.515   0.409 -0.9158  1.2463 -0.4573
  364THF     H4 7073   2.337   0.520   0.608  0.0249 -0.8898  1.9709
  364THF     H5 7074   2.436   0.658   0.685 -1.9799 -0.0497 -1.7365
  364THF     H6 7075   2.420   0.487   0.348  0.0183  1.2371 -1.8442
  364THF     H7 7076   2.597   0.538   0.348 -1.8877  0.2900  0.2930
  364THF     C8 7077   2.552   0.404   0.516  0.1545 -0.2666 -0.0976
  364THF     C9 7078   2.542   0.486   0.643 -0.0153 -0.3505 -0.6982
  364THF    H10 7079   2.646   0.360   0.509 -2.4358 -2.6103 -1.9969
  364THF    H11 7080   2.494   0.312   0.518  0.2127 -0.8252  0.7345
  364THF    H12 7081   2.510   0.428   0.726  1.3247 -1.7924  0.5527
  364THF    H13 7082   2.637   0.541   0.677  1.6019  1.7087  0.4326
  365THF     O1 7083   1.735   2.724   3.979 -0.1417 -0.1665 -0.2104
  365THF     C2 7084   1.697   2.869   3.989  0.3974 -0.2820  0.2823
  365THF     C3 7085   1.877   2.711   3.984  0.3745  0.1199 -0.8095
  365THF     H4 7086   1.592   2.894   4.012  0.7060 -0.8672 -0.5114
  365THF     H5 7087   1.709   2.926   3.892  1.9960 -0.6807 -0.6711
  365THF     H6 7088   1.908   2.621   4.044 -1.2841 -1.5928 -2.2488
  365THF     H7 7089   1.913   2.694   3.883  0.9895  2.5714 -2.5145
  365THF     C8 7090   1.926   2.852   4.043  0.2774  0.0097 -0.0628
  365THF     C9 7091   1.793   2.916   4.090 -1.0283  0.9946  0.1983
  365THF    H10 7092   1.986   2.916   3.981 -0.2681  1.4129  0.4499
  365THF    H11 7093   1.994   2.827   4.120 -0.8077 -3.3440  2.6577
  365THF    H12 7094   1.767   2.864   4.192  2.2902  0.6701  0.4099
  365THF    H13 7095   1.806   3.022   4.109 -1.7664  2.2914  2.3453
  366THF     O1 7096   0.002   3.054   4.618  0.0593  0.4902  0.0581
  366THF     C2 7097   0.079   3.170   4.665 -0.7737  0.1387  0.8196
  366THF     C3 7098   0.094   2.985   4.527 -0.2544 -0.2697  0.3242
  366THF     H4 7099   0.028   3.215   4.748  1.8940  0.0315  0.9810
  366THF     H5 7100   0.088   3.238   4.581  2.1161  0.0091  0.3063
  366THF     H6 7101   0.067   2.879   4.511 -1.0585 -1.1925 -2.6056
  366THF     H7 7102   0.090   3.034   4.436  2.0447 -0.0889  0.9008
  366THF     C8 7103   0.225   3.002   4.599  0.5682 -0.5590 -0.1490
  366THF     C9 7104   0.220   3.117   4.693 -0.2763 -0.6727 -0.0180
  366THF    H10 7105   0.307   2.998   4.530  0.5889 -1.0413  0.0568
  366THF    H11 7106   0.247   2.925   4.670  2.5616 -0.5051 -1.3197
  366THF    H12 7107   0.229   3.095   4.798 -0.2027  1.6344  0.0827
  366THF    H13 7108   0.291   3.201   4.675  0.3852 -1.6246 -3.1595
  367THF     O1 7109   0.706   4.616   5.389 -0.6660 -0.2527  0.1285
  367THF     C2 7110   0.614   4.560   5.297 -0.1786 -0.2355 -0.1629
  367THF     C3 7111   0.649   4.587   5.521  0.0637 -0.0980 -0.5098
  367THF     H4 7112   0.624   4.457   5.301 -0.7591  4.3816 -1.5019
  367THF     H5 7113   0.627   4.572   5.187  0.8392 -0.5057 -0.7887
  367THF     H6 7114   0.701   4.495   5.563  0.6565 -0.1862  1.3985
  367THF     H7 7115   0.668   4.668   5.586  2.3564  0.9643  0.0185
  367THF     C8 7116   0.498   4.594   5.508 -0.5811  0.4409  0.4203
  367THF     C9 7117   0.480   4.602   5.354  0.5887 -0.3926  0.0052
  367THF    H10 7118   0.453   4.681   5.557  1.1558  0.1401  3.3012
  367THF    H11 7119   0.470   4.497   5.559  1.4331 -0.9703 -0.2733
  367THF    H12 7120   0.395   4.538   5.315  0.3214  0.3819 -1.1318
  367THF    H13 7121   0.454   4.705   5.332  0.6378  1.8558  1.7676
  368THF     O1 7122   0.722   0.461   4.788  0.1361 -0.0213  0.4506
  368THF     C2 7123   0.825   0.419   4.887  0.6419  0.6735  0.2003
  368THF     C3 7124   0.594   0.429   4.837  0.3609  0.7736  0.8355
  368THF     H4 7125   0.876   0.499   4.942 -0.0060 -0.6872 -2.4403
  368THF     H5 7126   0.903   0.363   4.837  4.0562 -2.4661 -1.3703
  368THF     H6 7127   0.536   0.515   4.812  1.6875 -0.0257 -0.4814
  368THF     H7 7128   0.554   0.344   4.773 -0.5693 -1.0539 -0.8735
  368THF     C8 7129   0.613   0.388   4.980 -0.5709  0.2659 -0.4046
  368THF     C9 7130   0.751   0.333   4.980  0.2327  0.0956  0.8616
  368THF    H10 7131   0.546   0.311   5.014  2.3023  2.8172  1.4925
  368THF    H11 7132   0.609   0.469   5.046 -1.4482  0.4102 -2.2949
  368THF    H12 7133   0.793   0.340   5.081  2.1707  3.0006 -1.6882
  368THF    H13 7134   0.753   0.229   4.954 -0.6489  0.6923 -0.7893
  369THF     O1 7135   3.336   3.101   5.058 -0.4470  0.3175  0.8590
  369THF     C2 7136   3.251   3.121   5.171 -0.7292  0.0713  0.2279
  369THF     C3 7137   3.262   3.132   4.942  0.0066 -0.4339  0.6836
  369THF     H4 7138   3.234   3.224   5.184  1.5997 -0.5787  1.7507
  369THF     H5 7139   3.297   3.080   5.256  0.3288 -1.0767 -0.5185
  369THF     H6 7140   3.253   3.244   4.933  1.7103  1.9689  2.4562
  369THF     H7 7141   3.306   3.102   4.847  0.9022  0.8096  0.5725
  369THF     C8 7142   3.120   3.079   4.972  0.0244 -0.3469  0.1301
  369THF     C9 7143   3.118   3.075   5.125 -0.2571 -0.2842  0.1667
  369THF    H10 7144   3.116   2.980   4.928 -0.9967 -0.5744  1.8574
  369THF    H11 7145   3.034   3.139   4.934  0.8746  0.1860  0.3848
  369THF    H12 7146   3.041   3.128   5.176  3.6103  2.0511  0.9135
  369THF    H13 7147   3.121   2.972   5.159  0.5478  1.5863 -0.7172
  370THF     O1 7148   3.714   5.057   1.521  0.2819 -0.0292 -0.8704
  370THF     C2 7149   3.855   5.068   1.504  0.7080 -0.2155 -0.0051
  370THF     C3 7150   3.674   4.929   1.472 -0.4769 -0.2933  0.0133
  370THF     H4 7151   3.899   4.997   1.574  0.5460  0.1686  2.0448
  370THF     H5 7152   3.880   5.170   1.527  3.9274  1.3543  1.3100
  370THF     H6 7153   3.693   4.844   1.545 -0.6529 -1.1221 -0.1282
  370THF     H7 7154   3.571   4.928   1.442  0.5048  0.1067 -0.0834
  370THF     C8 7155   3.768   4.909   1.351  0.5857  0.6465  0.1239
  370THF     C9 7156   3.872   5.028   1.353 -0.2039  0.0405 -0.0706
  370THF    H10 7157   3.709   4.901   1.262 -1.3737 -0.6521 -3.1528
  370THF    H11 7158   3.821   4.819   1.350  2.0108 -1.1444 -0.5588
  370THF    H12 7159   3.979   5.012   1.331 -0.4040 -0.2048  1.7525
  370THF    H13 7160   3.826   5.107   1.296 -0.6207 -0.8448  1.8218
  371THF     O1 7161   1.455   3.091   4.320 -0.0240  0.0344  0.3764
  371THF     C2 7162   1.385   3.010   4.409 -0.0203  0.1376 -0.1371
  371THF     C3 7163   1.382   3.102   4.199  0.3798 -0.4284 -1.0585
  371THF     H4 7164   1.429   3.032   4.507  2.2679  0.4429 -1.5269
  371THF     H5 7165   1.398   2.902   4.377  2.0850 -1.8652  2.8017
  371THF     H6 7166   1.416   3.170   4.124 -2.0304  2.0362 -0.0625
  371THF     H7 7167   1.388   3.015   4.148  1.1727  1.1612  1.2400
  371THF     C8 7168   1.239   3.132   4.258  0.0977 -0.0316  0.6756
  371THF     C9 7169   1.232   3.053   4.390 -0.4189  0.7259  0.1808
  371THF    H10 7170   1.163   3.106   4.187 -0.3472  2.4269 -1.0619
  371THF    H11 7171   1.228   3.236   4.287  2.1940  0.0468 -0.0769
  371THF    H12 7172   1.201   3.119   4.474 -0.8533 -1.3468  1.7406
  371THF    H13 7173   1.157   2.965   4.394 -0.1666 -0.6659  2.5719
  372THF     O1 7174   5.044   1.344   1.399 -0.4034 -0.0024  0.4155
  372THF     C2 7175   5.063   1.251   1.293 -0.0171  0.0157 -0.1217
  372THF     C3 7176   4.913   1.327   1.450 -1.1300  0.7543 -0.0611
  372THF     H4 7177   5.161   1.252   1.247 -0.9180  1.0357 -0.0939
  372THF     H5 7178   5.001   1.277   1.209 -0.6438 -1.4273  0.3567
  372THF     H6 7179   4.904   1.370   1.550  0.3039 -0.6342  0.3702
  372THF     H7 7180   4.840   1.360   1.387  0.7391 -0.2946 -0.4829
  372THF     C8 7181   4.916   1.170   1.462 -0.1287  0.3015 -0.1884
  372THF     C9 7182   4.985   1.125   1.342 -0.7827 -0.6499  0.5206
  372THF    H10 7183   4.819   1.122   1.464  0.1121  2.1241  2.2661
  372THF    H11 7184   4.986   1.136   1.548 -0.1493  1.1994 -0.3221
  372THF    H12 7185   5.061   1.053   1.364 -1.5797 -0.2161  0.4499
  372THF    H13 7186   4.930   1.071   1.262 -2.7482 -0.6953  0.5277
  373THF     O1 7187   4.020   3.638   0.928 -0.1847  0.1396  0.7151
  373THF     C2 7188   4.135   3.691   0.867 -0.3602 -0.0321 -0.3533
  373THF     C3 7189   3.938   3.749   0.953  0.8532  0.5384 -0.2999
  373THF     H4 7190   4.123   3.710   0.760  0.0975  0.0345  0.7716
  373THF     H5 7191   4.222   3.625   0.890 -1.6670 -1.1223  1.7308
  373THF     H6 7192   3.891   3.769   0.860  1.5355  1.5731  1.2703
  373THF     H7 7193   3.861   3.744   1.037  0.5789 -0.1116  2.8685
  373THF     C8 7194   4.021   3.869   0.985  0.0110 -0.3709 -0.4328
  373THF     C9 7195   4.160   3.822   0.943  0.1050  0.4276 -0.9589
  373THF    H10 7196   4.012   3.886   1.092  1.0729  0.2868 -1.2952
  373THF    H11 7197   3.982   3.955   0.929  0.5727  1.5086 -1.6031
  373THF    H12 7198   4.193   3.905   0.882  1.2246 -0.5156 -0.1107
  373THF    H13 7199   4.226   3.819   1.032  1.8913  1.6263  1.2012
  374THF     O1 7200   4.814   2.131   1.023  0.0607 -0.9765  0.3333
  374THF     C2 7201   4.757   2.061   0.912 -0.8916  0.1418  0.7222
  374THF     C3 7202   4.817   2.028   1.124  0.1559  0.0958  0.3112
  374THF     H4 7203   4.763   2.118   0.820 -1.3053  0.6534  0.0323
  374THF     H5 7204   4.648   2.052   0.922 -0.1283 -0.7963  0.2954
  374THF     H6 7205   4.903   2.049   1.188  0.9171 -3.0594  0.5119
  374THF     H7 7206   4.734   2.040   1.191  0.6000  0.9798 -0.3117
  374THF     C8 7207   4.829   1.889   1.054  0.1993  0.1339  0.4306
  374THF     C9 7208   4.819   1.922   0.910 -0.9767 -0.0726 -0.4085
  374THF    H10 7209   4.752   1.821   1.078 -0.0953 -0.4873 -1.4255
  374THF    H11 7210   4.926   1.841   1.081  0.6434 -1.4677 -0.2554
  374THF    H12 7211   4.921   1.923   0.869 -2.2280  0.6024 -1.1117
  374THF    H13 7212   4.765   1.851   0.843 -2.8669  0.0251 -1.5077
  375THF     O1 7213   4.767   0.880   3.343 -0.5635 -0.3255 -0.0849
  375THF     C2 7214   4.907   0.865   3.365 -1.3229  0.2121 -0.3069
  375THF     C3 7215   4.745   0.919   3.212  0.0357 -0.0051 -0.1240
  375THF     H4 7216   4.941   0.759   3.364 -0.9794  4.1441  1.7771
  375THF     H5 7217   4.940   0.915   3.463  1.2196 -1.6056  2.1255
  375THF     H6 7218   4.759   0.829   3.154  3.2024  0.9087 -0.3758
  375THF     H7 7219   4.652   0.973   3.197 -0.2444 -1.2484  0.5847
  375THF     C8 7220   4.864   1.006   3.170 -0.7333  0.4137  0.5218
  375THF     C9 7221   4.974   0.933   3.243  0.2899 -0.0096  0.0004
  375THF    H10 7222   4.849   1.106   3.210  0.5831  0.2743 -0.2562
  375THF    H11 7223   4.892   1.018   3.061  1.5367  2.2741 -1.5475
  375THF    H12 7224   5.007   0.849   3.189  0.8285 -2.1570 -1.6724
  375THF    H13 7225   5.057   0.998   3.256 -0.0711 -0.7826 -0.0664
  376THF     O1 7226   1.176   2.804   0.448 -0.4839 -0.1164 -0.1957
  376THF     C2 7227   1.160   2.678   0.500  0.1504 -0.1098  0.5869
  376THF     C3 7228   1.061   2.848   0.367  0.1469  0.0908 -0.5781
  376THF     H4 7229   1.183   2.671   0.605 -0.4461  1.3494 -0.5575
  376THF     H5 7230   1.234   2.629   0.440  0.0434 -1.8223 -0.4200
  376THF     H6 7231   0.995   2.902   0.437  1.1498 -2.0341  1.5648
  376THF     H7 7232   1.093   2.899   0.272 -0.6120  1.4278 -3.8130
  376THF     C8 7233   0.992   2.706   0.341 -0.1298 -0.0866 -0.2964
  376THF     C9 7234   1.023   2.631   0.462  0.8274 -0.4859  0.1920
  376THF    H10 7235   1.051   2.668   0.258  1.5498 -1.1146  1.9021
  376THF    H11 7236   0.887   2.706   0.314  0.3429  1.2428  0.6616
  376THF    H12 7237   0.945   2.658   0.542 -0.3654 -0.9231 -0.7053
  376THF    H13 7238   1.015   2.522   0.446  1.1680  0.4990  0.7251
  377THF     O1 7239   4.363   3.911   2.222  0.2606  0.6800 -0.4569
  377THF     C2 7240   4.494   3.961   2.187  0.2878 -0.8536  0.2486
  377THF     C3 7241   4.271   4.020   2.237 -0.3203  0.4338 -0.3289
  377THF     H4 7242   4.493   3.981   2.082 -0.4274 -0.6534  0.7030
  377THF     H5 7243   4.574   3.891   2.211  2.5204  0.3538  1.6477
  377THF     H6 7244   4.220   4.032   2.146 -1.1367  0.0897 -0.8212
  377THF     H7 7245   4.189   3.995   2.311 -0.8025  1.2613  3.4016
  377THF     C8 7246   4.365   4.143   2.281 -0.1832 -0.2743 -0.5234
  377THF     C9 7247   4.508   4.088   2.268  0.0182 -0.1594 -0.1406
  377THF    H10 7248   4.337   4.173   2.384  0.8123 -0.9331  1.9657
  377THF    H11 7249   4.365   4.224   2.202  0.1045 -1.7579 -1.0250
  377THF    H12 7250   4.574   4.154   2.220  1.1186 -0.8054  0.9054
  377THF    H13 7251   4.555   4.077   2.358  0.7261  1.2582 -0.4342
  378THF     O1 7252   0.732   0.853   1.265 -0.2330 -0.1692  0.1563
  378THF     C2 7253   0.652   0.808   1.374 -0.2790  0.3793  0.2773
  378THF     C3 7254   0.850   0.787   1.278  0.6242 -0.5772  0.4429
  378THF     H4 7255   0.615   0.706   1.360 -0.8167  1.2528 -0.9288
  378THF     H5 7256   0.567   0.876   1.383  0.7134 -2.0187 -3.6234
  378THF     H6 7257   0.855   0.679   1.259  0.2044  0.9522  0.2266
  378THF     H7 7258   0.925   0.831   1.207  0.8056  0.4227 -1.5976
  378THF     C8 7259   0.887   0.813   1.425  0.2124 -0.1975  0.0990
  378THF     C9 7260   0.753   0.815   1.490  0.3110  0.2752 -0.9661
  378THF    H10 7261   0.936   0.903   1.443 -1.5555  1.0628  0.6436
  378THF    H11 7262   0.947   0.741   1.480 -2.1732 -1.1915 -1.3542
  378THF    H12 7263   0.725   0.736   1.558 -0.0729  4.3341 -2.0494
  378THF    H13 7264   0.735   0.910   1.545  0.8452 -0.0982 -1.5669
  379THF     O1 7265   0.163   3.755   2.599  0.1446  0.2257  0.8743
  379THF     C2 7266   0.038   3.745   2.526  0.2378 -0.5700 -0.0107
  379THF     C3 7267   0.269   3.759   2.500  0.0532 -0.5234  0.2579
  379THF     H4 7268  -0.031   3.821   2.565  1.3992  2.3210 -3.1951
  379THF     H5 7269  -0.018   3.655   2.546  1.1939 -0.2348  2.2033
  379THF     H6 7270   0.346   3.826   2.538  1.2567 -1.4312 -0.4483
  379THF     H7 7271   0.313   3.666   2.487 -2.6688  0.6164  1.0587
  379THF     C8 7272   0.210   3.813   2.369 -0.0981  0.1301 -0.1571
  379THF     C9 7273   0.066   3.755   2.374 -0.7708 -0.0842 -0.4916
  379THF    H10 7274   0.261   3.773   2.280 -0.0318 -0.8646 -2.4130
  379THF    H11 7275   0.227   3.924   2.377 -1.1977  2.4947 -0.9465
  379THF    H12 7276  -0.008   3.814   2.324 -2.0739 -0.2340 -0.4832
  379THF    H13 7277   0.064   3.659   2.321  0.1159 -0.8750 -0.1240
  380THF     O1 7278   5.237   0.703   4.921  0.1453  0.3209 -0.0238
  380THF     C2 7279   5.196   0.793   4.827 -1.2120  0.0742  0.4037
  380THF     C3 7280   5.267   0.581   4.853 -0.7950  1.0692 -0.6019
  380THF     H4 7281   5.293   0.839   4.791  0.8024 -1.5747 -1.6988
  380THF     H5 7282   5.136   0.867   4.874  1.1298 -1.0883 -0.0145
  380THF     H6 7283   5.373   0.593   4.812  0.3195 -1.3285 -1.8527
  380THF     H7 7284   5.266   0.499   4.915  3.5273  0.7562  0.3680
  380THF     C8 7285   5.179   0.574   4.730 -0.3631  0.0150 -0.6530
  380THF     C9 7286   5.128   0.716   4.720  0.5394  0.9415  0.3096
  380THF    H10 7287   5.103   0.503   4.747  1.4217  1.4076 -0.9758
  380THF    H11 7288   5.239   0.544   4.643  2.1061 -1.2595  0.7745
  380THF    H12 7289   5.140   0.751   4.620 -0.3754 -1.7000  0.3541
  380THF    H13 7290   5.020   0.723   4.739 -3.5466 -0.2625 -1.9146
  381THF     O1 7291   2.526   3.513   5.396 -0.0269 -0.0620  0.0917
  381THF     C2 7292   2.437   3.579   5.305  0.1540 -0.1600  0.9886
  381THF     C3 7293   2.651   3.580   5.395 -0.0851 -0.5697  0.0314
  381THF     H4 7294   2.333   3.557   5.314  2.4175  2.5432 -1.4170
  381THF     H5 7295   2.473   3.557   5.204 -1.9412 -1.7733 -1.5487
  381THF     H6 7296   2.708   3.544   5.477 -2.1203 -0.7945 -0.2599
  381THF     H7 7297   2.704   3.551   5.299 -0.9169  0.5997  3.1904
  381THF     C8 7298   2.611   3.724   5.398 -0.5108  0.1072  0.4585
  381THF     C9 7299   2.466   3.723   5.339  0.4476  0.3430  0.8546
  381THF    H10 7300   2.688   3.772   5.339  0.1090 -0.0513 -1.2953
  381THF    H11 7301   2.621   3.764   5.501 -1.5262  1.6170 -3.3479
  381THF    H12 7302   2.391   3.747   5.418  0.0135 -0.8987  2.9452
  381THF    H13 7303   2.434   3.786   5.254 -1.8236  0.9121 -0.3785
  382THF     O1 7304   2.221   2.380   5.372  0.1519  0.2009  0.6186
  382THF     C2 7305   2.329   2.312   5.310  0.5531  0.7306  0.2724
  382THF     C3 7306   2.203   2.322   5.496 -0.1306 -0.3209  0.2029
  382THF     H4 7307   2.374   2.371   5.227  0.2429 -2.3977 -2.1993
  382THF     H5 7308   2.315   2.208   5.276 -0.5324 -0.4833 -0.3500
  382THF     H6 7309   2.158   2.389   5.563  1.7627  1.9048 -1.4448
  382THF     H7 7310   2.132   2.231   5.490 -1.9400 -3.1890 -2.8955
  382THF     C8 7311   2.345   2.274   5.544  0.0274 -0.4604  0.4675
  382THF     C9 7312   2.427   2.319   5.432 -0.1794  0.1619 -0.0992
  382THF    H10 7313   2.347   2.167   5.571  0.2984 -0.4220  1.1507
  382THF    H11 7314   2.371   2.321   5.633 -0.3188 -0.5186  0.7245
  382THF    H12 7315   2.462   2.422   5.440 -0.1451 -1.0337 -0.1555
  382THF    H13 7316   2.523   2.268   5.420  1.7512  2.1531 -2.0003
  383THF     O1 7317   4.867   4.299   0.056  0.2738  0.2860  0.5735
  383THF     C2 7318   4.939   4.389   0.127 -0.0637 -0.5227  0.0584
  383THF     C3 7319   4.966   4.214   0.001  0.0026  0.3048  0.2427
  383THF     H4 7320   4.971   4.341   0.214  2.2755  1.1607 -2.4682
  383THF     H5 7321   4.881   4.475   0.150  0.0670 -0.6613  1.1179
  383THF     H6 7322   4.981   4.126   0.068  2.5507  0.1362  0.1777
  383THF     H7 7323   4.931   4.167  -0.085  0.0838  0.6641  1.5220
  383THF     C8 7324   5.077   4.300  -0.038 -0.2567 -0.1904  0.2950
  383THF     C9 7325   5.043   4.438   0.024 -0.4769  0.6147 -0.3990
  383THF    H10 7326   5.094   4.316  -0.144  1.0298  1.5624  0.2308
  383THF    H11 7327   5.168   4.251  -0.009  0.2267 -1.0723  0.9290
  383THF    H12 7328   5.129   4.487   0.071  0.8802  0.6648  1.4831
  383THF    H13 7329   4.997   4.500  -0.053  2.0385 -0.4373 -1.3759
  384THF     O1 7330   4.174   0.406   3.763 -0.6187  0.9232 -0.1828
  384THF     C2 7331   4.230   0.483   3.662 -1.1412  0.6599 -0.2065
  384THF     C3 7332   4.136   0.278   3.706 -0.1667  0.1663  0.6398
  384THF     H4 7333   4.293   0.569   3.708 -0.6824 -0.7986 -2.1472
  384THF     H5 7334   4.158   0.545   3.615  0.8351  1.2044  3.9477
  384THF     H6 7335   4.136   0.197   3.777 -4.0883  2.0099 -0.2915
  384THF     H7 7336   4.032   0.264   3.666 -1.4368  0.5449 -3.2146
  384THF     C8 7337   4.221   0.257   3.582 -0.6199 -0.0746  0.0007
  384THF     C9 7338   4.301   0.383   3.566  0.3911 -0.6836 -0.5449
  384THF    H10 7339   4.162   0.247   3.494  2.0916 -1.2471  2.2837
  384THF    H11 7340   4.286   0.163   3.595 -0.3055 -0.3299  1.9146
  384THF    H12 7341   4.409   0.385   3.600 -0.6918  2.3048  0.9662
  384THF    H13 7342   4.289   0.421   3.463 -0.7012 -0.1849 -0.3013
  385THF     O1 7343   2.997   2.516   3.945 -0.1708 -0.1080 -0.0387
  385THF     C2 7344   3.027   2.649   4.003  0.2087  0.1535 -0.2915
  385THF     C3 7345   2.882   2.529   3.861 -0.8321 -0.3534 -0.7605
  385THF     H4 7346   3.129   2.667   3.985 -0.6809 -1.7905 -1.4526
  385THF     H5 7347   3.007   2.654   4.110  0.6732 -0.5000 -2.5553
  385THF     H6 7348   2.896   2.451   3.785  1.9633  1.3883 -3.2381
  385THF     H7 7349   2.793   2.528   3.929 -2.3962 -0.1435  2.0268
  385THF     C8 7350   2.897   2.666   3.804 -0.0854 -0.4014  0.2953
  385THF     C9 7351   2.955   2.752   3.919 -0.2570 -0.2443  0.1944
  385THF    H10 7352   2.805   2.709   3.750 -2.1171  2.1788  2.3830
  385THF    H11 7353   2.976   2.678   3.727 -0.2230 -1.0458 -0.7075
  385THF    H12 7354   3.013   2.841   3.887  0.1428 -0.2549 -3.0562
  385THF    H13 7355   2.876   2.794   3.988 -1.1560 -0.5472  2.5197
  386THF     O1 7356   1.634   2.716   5.241  0.0290 -0.1897 -0.2718
  386THF     C2 7357   1.513   2.777   5.289  0.3915 -0.1474  0.3250
  386THF     C3 7358   1.633   2.694   5.103 -0.0036 -0.5372  0.2005
  386THF     H4 7359   1.527   2.878   5.324 -0.0570 -0.1135  0.7847
  386THF     H5 7360   1.468   2.727   5.372 -0.5756  1.4939  0.0751
  386THF     H6 7361   1.722   2.735   5.066 -1.1707  0.4562  2.7485
  386THF     H7 7362   1.613   2.586   5.084 -1.5722 -2.4671  1.3607
  386THF     C8 7363   1.511   2.779   5.054  0.1098 -0.1995 -0.8342
  386THF     C9 7364   1.425   2.778   5.175 -0.1532  0.6442 -0.2147
  386THF    H10 7365   1.473   2.727   4.969 -0.9931  2.3238 -1.3070
  386THF    H11 7366   1.527   2.886   5.022  2.8929  3.4632 -2.1397
  386THF    H12 7367   1.356   2.857   5.178  2.3228  0.3881 -0.2436
  386THF    H13 7368   1.364   2.687   5.170  0.0604 -1.5840 -3.1378
  387THF     O1 7369   2.075   1.887   5.193 -0.0811  0.0208  0.8076
  387THF     C2 7370   2.118   1.908   5.327  0.2540 -0.0030 -0.4668
  387THF     C3 7371   2.142   1.776   5.146 -0.1516 -0.0768 -0.2097
  387THF     H4 7372   2.076   1.825   5.390  0.2856 -3.0269 -0.6041
  387THF     H5 7373   2.083   2.005   5.364  0.0774  1.4928 -1.8355
  387THF     H6 7374   2.123   1.683   5.206 -0.4608 -1.6872  1.4944
  387THF     H7 7375   2.147   1.758   5.038  0.3544 -2.1416 -2.2069
  387THF     C8 7376   2.287   1.805   5.183  0.1346 -0.0231 -0.2270
  387THF     C9 7377   2.273   1.889   5.314 -1.1152  0.2653  0.2683
  387THF    H10 7378   2.338   1.874   5.111  0.3798  0.5471 -1.1296
  387THF    H11 7379   2.346   1.716   5.200  0.5419  1.7947 -0.5691
  387THF    H12 7380   2.310   1.837   5.399  0.2429  0.9672  4.0604
  387THF    H13 7381   2.324   1.980   5.302  0.9876 -1.7089  2.4772
  388THF     O1 7382   0.837   0.819   3.665  0.2634 -0.0668  0.3596
  388THF     C2 7383   0.724   0.755   3.710  0.5104  0.1215 -0.0472
  388THF     C3 7384   0.818   0.958   3.667  0.1067  0.1501  0.2357
  388THF     H4 7385   0.753   0.656   3.741  1.0489 -0.6460 -0.6237
  388THF     H5 7386   0.646   0.746   3.635  3.0864 -1.3055 -0.0724
  388THF     H6 7387   0.907   1.010   3.683  0.9882  0.3216 -1.3892
  388THF     H7 7388   0.777   0.999   3.577  0.6745 -1.4582 -0.0967
  388THF     C8 7389   0.728   0.987   3.788  0.4286  0.7556  0.7071
  388THF     C9 7390   0.685   0.842   3.829 -0.4634 -0.3045  0.1009
  388THF    H10 7391   0.647   1.053   3.767  1.1191 -0.9964  0.6299
  388THF    H11 7392   0.784   1.030   3.867 -1.3270  0.2703  0.7749
  388THF    H12 7393   0.748   0.796   3.904  0.4398 -0.4645  1.4165
  388THF    H13 7394   0.587   0.832   3.874 -1.0501 -2.6629 -2.1359
  389THF     O1 7395   0.587   2.323   1.982 -0.0527  0.0855 -0.1248
  389THF     C2 7396   0.515   2.422   1.918  0.3764  0.2514 -0.1964
  389THF     C3 7397   0.705   2.393   2.026  0.2958 -0.6993 -0.0337
  389THF     H4 7398   0.416   2.385   1.915  0.1237  1.2560  1.3581
  389THF     H5 7399   0.548   2.443   1.816 -2.1527 -0.1202  0.6393
  389THF     H6 7400   0.747   2.350   2.120 -2.1894  1.5687  1.8488
  389THF     H7 7401   0.786   2.395   1.957  2.3964 -0.4471 -0.7834
  389THF     C8 7402   0.655   2.538   2.054  0.2342 -0.5399  1.5498
  389THF     C9 7403   0.512   2.542   2.007 -0.5738 -0.0323 -0.0860
  389THF    H10 7404   0.729   2.616   2.019 -1.8706  0.4681 -0.6105
  389THF    H11 7405   0.652   2.558   2.160  3.4439  0.0509  1.4959
  389THF    H12 7406   0.444   2.518   2.082 -0.1190 -0.1358 -0.7185
  389THF    H13 7407   0.475   2.637   1.965 -0.7434 -0.2824  0.8041
  390THF     O1 7408   2.104   5.480   2.317  0.4418  0.0487 -0.2258
  390THF     C2 7409   2.053   5.347   2.318 -0.1093 -0.2563 -0.7070
  390THF     C3 7410   2.191   5.493   2.426  0.9163 -0.2430 -0.3325
  390THF     H4 7411   2.018   5.309   2.221 -0.3253 -0.5840 -2.9274
  390THF     H5 7412   1.977   5.333   2.396  0.2202 -0.5467  0.9705
  390THF     H6 7413   2.285   5.550   2.403  0.2582 -2.0909  0.4986
  390THF     H7 7414   2.147   5.537   2.513  1.5076 -2.8093  0.2030
  390THF     C8 7415   2.231   5.353   2.472 -0.4120  0.2594  0.2207
  390THF     C9 7416   2.175   5.269   2.363  0.4703 -0.1538 -0.0293
  390THF    H10 7417   2.174   5.321   2.558 -1.4216  0.2533 -1.1918
  390THF    H11 7418   2.338   5.327   2.476  1.5880 -1.6915 -0.0991
  390THF    H12 7419   2.246   5.256   2.285 -0.4922 -1.7952  2.2376
  390THF    H13 7420   2.131   5.175   2.391 -3.7210 -2.5298  0.2639
  391THF     O1 7421   2.436   4.840   4.477 -0.1775  0.4316 -0.2194
  391THF     C2 7422   2.447   4.817   4.332  0.1603 -0.2737 -0.1841
  391THF     C3 7423   2.484   4.972   4.501  0.0711 -0.2652 -0.3668
  391THF     H4 7424   2.375   4.864   4.268  1.7391  0.3996 -0.3194
  391THF     H5 7425   2.443   4.709   4.293  1.8816  0.4841  0.8623
  391THF     H6 7426   2.403   5.044   4.510 -1.9160  0.0338  2.1537
  391THF     H7 7427   2.548   4.965   4.585  0.9969 -0.7226  0.3887
  391THF     C8 7428   2.561   5.023   4.377 -0.1438 -0.0277 -0.7984
  391THF     C9 7429   2.581   4.889   4.303 -0.2655  0.4180 -0.3242
  391THF    H10 7430   2.651   5.074   4.401  0.2790 -1.2498 -3.9019
  391THF    H11 7431   2.505   5.095   4.322  0.9606 -1.6857  2.7018
  391THF    H12 7432   2.579   4.914   4.199  3.6620  1.0675  3.1641
  391THF    H13 7433   2.672   4.846   4.339 -0.8303  0.4361 -0.8766
  392THF     O1 7434   0.504   0.520   1.510 -0.1993  0.2336  0.0246
  392THF     C2 7435   0.421   0.448   1.604 -0.7320  0.1651 -0.3758
  392THF     C3 7436   0.625   0.450   1.479  0.1417 -0.1981 -0.6097
  392THF     H4 7437   0.315   0.457   1.592  1.0795  1.4037 -2.2328
  392THF     H5 7438   0.460   0.481   1.699 -1.6260 -3.3313 -0.9574
  392THF     H6 7439   0.614   0.463   1.375 -1.3514 -0.2125 -0.6777
  392THF     H7 7440   0.713   0.508   1.520  2.0941  1.0246 -0.0895
  392THF     C8 7441   0.612   0.308   1.543 -0.2141 -0.8977  0.2859
  392THF     C9 7442   0.463   0.306   1.574  0.5527  0.3115  0.0386
  392THF    H10 7443   0.675   0.311   1.639 -0.4713 -1.8781  0.1960
  392THF    H11 7444   0.644   0.235   1.473  2.2064  4.0822 -1.7523
  392THF    H12 7445   0.407   0.259   1.500 -1.0246  2.1404  1.9879
  392THF    H13 7446   0.445   0.238   1.658  0.9142 -1.6324 -2.2122
  393THF     O1 7447   0.547   5.265   3.784 -0.4447  0.6525  0.4620
  393THF     C2 7448   0.478   5.349   3.691  0.1888  0.0779 -0.7546
  393THF     C3 7449   0.467   5.156   3.798  0.1274 -0.4622  1.0064
  393THF     H4 7450   0.496   5.319   3.587 -2.3345 -2.6472  1.2025
  393THF     H5 7451   0.512   5.446   3.715 -1.2036 -1.0004 -1.4654
  393THF     H6 7452   0.468   5.077   3.717 -1.1884 -1.6137  0.3810
  393THF     H7 7453   0.489   5.103   3.892 -1.8868 -0.8726  0.5038
  393THF     C8 7454   0.325   5.218   3.805 -0.3413  0.0452  0.1151
  393THF     C9 7455   0.330   5.342   3.724  0.6516  0.9885  0.2708
  393THF    H10 7456   0.306   5.232   3.917 -1.4447  1.5298 -0.3141
  393THF    H11 7457   0.247   5.159   3.757  0.8847  0.8227  1.0367
  393THF    H12 7458   0.270   5.336   3.633 -1.1345 -0.8955 -0.4783
  393THF    H13 7459   0.306   5.436   3.768  0.5563 -2.0560 -0.7943
  394THF     O1 7460   1.245   1.324   3.028 -0.1852  0.0932 -0.0959
  394THF     C2 7461   1.287   1.364   3.153  0.7806  0.5847 -0.3229
  394THF     C3 7462   1.360   1.310   2.939  0.4205 -1.0662 -0.1321
  394THF     H4 7463   1.237   1.332   3.245 -1.3682  0.9910  0.5798
  394THF     H5 7464   1.279   1.474   3.159 -2.5269  1.4167 -0.1061
  394THF     H6 7465   1.340   1.220   2.888 -1.7982  1.7949  1.6318
  394THF     H7 7466   1.355   1.396   2.878 -2.3638 -2.4148  1.0054
  394THF     C8 7467   1.484   1.307   3.030  0.1589 -0.0743 -0.0288
  394THF     C9 7468   1.428   1.311   3.175  0.3339 -0.2944  0.3249
  394THF    H10 7469   1.547   1.397   3.016  2.1166 -1.4668 -1.1905
  394THF    H11 7470   1.557   1.224   3.009 -0.5304 -1.6329  1.0007
  394THF    H12 7471   1.419   1.214   3.220 -1.0790 -1.8618 -1.6007
  394THF    H13 7472   1.483   1.377   3.242 -1.8732  3.0428 -0.5922
  395THF     O1 7473   1.048   1.591   1.407  0.3552 -0.2974  0.2457
  395THF     C2 7474   0.994   1.695   1.323 -0.4598 -0.1376  0.2108
  395THF     C3 7475   1.128   1.650   1.507 -0.3342 -0.7504  0.3551
  395THF     H4 7476   0.902   1.719   1.375  0.2717 -1.1637  2.7293
  395THF     H5 7477   0.971   1.665   1.229  0.5393  2.2494 -0.6971
  395THF     H6 7478   1.099   1.640   1.613 -0.5346 -0.6014 -1.6087
  395THF     H7 7479   1.220   1.595   1.507  2.4334  1.0089 -1.1977
  395THF     C8 7480   1.164   1.791   1.462  0.4258  0.5051 -0.0267
  395THF     C9 7481   1.093   1.804   1.327 -0.1423  0.4662  0.3427
  395THF    H10 7482   1.268   1.818   1.448  0.1412  3.5893 -0.5243
  395THF    H11 7483   1.119   1.858   1.531  1.1847 -0.2281  0.2491
  395THF    H12 7484   1.065   1.907   1.309 -2.1316  0.0316  1.7462
  395THF    H13 7485   1.168   1.787   1.253  0.1258 -1.4736  0.4868
  396THF     O1 7486   3.458   0.528   1.565  0.3041  0.0539  1.0324
  396THF     C2 7487   3.321   0.567   1.577  0.2832 -0.5257  0.9921
  396THF     C3 7488   3.522   0.601   1.665 -0.5128  0.3755  0.5907
  396THF     H4 7489   3.271   0.520   1.664  0.3456  1.9104  0.5253
  396THF     H5 7490   3.273   0.531   1.490 -0.2099 -0.3331  2.3338
  396THF     H6 7491   3.498   0.547   1.762  0.6055  2.5758  0.7232
  396THF     H7 7492   3.631   0.598   1.654  1.3363 -0.0943  0.1867
  396THF     C8 7493   3.461   0.747   1.660 -0.1261 -0.0347  0.2274
  396THF     C9 7494   3.340   0.717   1.574  0.0515  0.1942 -0.2487
  396THF    H10 7495   3.539   0.817   1.623  3.2551  0.0689 -1.5561
  396THF    H11 7496   3.423   0.775   1.760 -0.0319 -0.0435 -1.9248
  396THF    H12 7497   3.245   0.768   1.607  1.5091  2.0166 -1.0912
  396THF    H13 7498   3.369   0.744   1.468  0.2120 -0.0589 -0.6110
  397THF     O1 7499   1.925   1.289   3.804  0.1823  0.5307  0.4078
  397THF     C2 7500   2.028   1.379   3.813 -0.3049 -0.1606 -0.6396
  397THF     C3 7501   1.829   1.315   3.906 -0.4947  0.2681 -0.3278
  397THF     H4 7502   2.070   1.401   3.719 -0.6887  0.9323  2.9649
  397THF     H5 7503   2.102   1.337   3.878  1.4983  1.1792  0.4544
  397THF     H6 7504   1.729   1.340   3.870  0.9930 -0.0848  1.8862
  397THF     H7 7505   1.810   1.228   3.973 -0.8975 -2.1961  0.5864
  397THF     C8 7506   1.871   1.440   3.987 -0.6685  0.5389 -0.0280
  397THF     C9 7507   1.957   1.499   3.877 -0.5665  0.2196 -0.7571
  397THF    H10 7508   1.931   1.413   4.073  1.4235 -1.6038  0.7670
  397THF    H11 7509   1.793   1.508   4.011  0.1486 -0.5436 -0.6047
  397THF    H12 7510   1.902   1.544   3.800 -0.4419 -1.2782  1.9081
  397THF    H13 7511   2.035   1.570   3.913 -1.3127  0.8385  0.4120
  398THF     O1 7512   1.226   4.659   0.756 -0.3763 -0.4912 -0.2112
  398THF     C2 7513   1.090   4.701   0.744 -0.1193 -0.3148 -0.3370
  398THF     C3 7514   1.224   4.540   0.834  0.2216  0.3867 -0.8730
  398THF     H4 7515   1.048   4.652   0.655  1.0738 -0.8728  0.7260
  398THF     H5 7516   1.089   4.806   0.713 -0.9190 -0.0851 -1.6979
  398THF     H6 7517   1.191   4.459   0.768  0.5756  0.0236 -0.3837
  398THF     H7 7518   1.320   4.498   0.872  0.1252 -2.3863  0.5289
  398THF     C8 7519   1.127   4.570   0.944 -1.0990 -0.1559  0.4375
  398THF     C9 7520   1.031   4.680   0.885  0.1792 -0.4667  0.1307
  398THF    H10 7521   1.183   4.613   1.024 -2.5898 -1.8675  0.0818
  398THF    H11 7522   1.064   4.494   0.981 -1.2530  0.9597  2.2595
  398THF    H12 7523   0.922   4.654   0.880 -2.2093  0.2314  0.7483
  398THF    H13 7524   1.031   4.778   0.932 -1.1110  1.4119  2.8140
  399THF     O1 7525   5.149   3.646   0.788 -0.6915  0.6925  0.5442
  399THF     C2 7526   5.193   3.756   0.707 -0.0259  0.3939 -0.1402
  399THF     C3 7527   5.087   3.564   0.690 -0.3955  0.1082  0.7129
  399THF     H4 7528   5.253   3.810   0.771  1.2851 -0.9809  1.4747
  399THF     H5 7529   5.106   3.814   0.664  0.0881  1.1893 -2.0215
  399THF     H6 7530   5.058   3.469   0.731 -2.9011 -0.2645 -1.4049
  399THF     H7 7531   4.995   3.616   0.657 -1.0735 -0.4404  0.0276
  399THF     C8 7532   5.189   3.556   0.572 -0.6607 -0.1359  0.0065
  399THF     C9 7533   5.265   3.690   0.584  0.0554  0.6538 -0.0879
  399THF    H10 7534   5.149   3.528   0.475  3.2329  0.7752  0.5464
  399THF    H11 7535   5.259   3.474   0.588  1.7377 -1.3809  1.5998
  399THF    H12 7536   5.373   3.670   0.596  1.9406 -2.7193  1.5307
  399THF    H13 7537   5.245   3.763   0.505  2.6120  2.1065  0.6084
  400THF     O1 7538   4.096   3.578   0.249 -0.0295 -0.2708 -0.0904
  400THF     C2 7539   3.955   3.628   0.259  0.0082 -0.1998 -0.0324
  400THF     C3 7540   4.137   3.530   0.374 -0.4317  0.2637  0.0322
  400THF     H4 7541   3.890   3.546   0.258  2.4494 -0.0828 -1.6165
  400THF     H5 7542   3.928   3.701   0.176 -2.4996  1.9423  1.1308
  400THF     H6 7543   4.110   3.429   0.381  1.6946  1.3951  0.4464
  400THF     H7 7544   4.245   3.534   0.394  1.9590  1.5434  1.4701
  400THF     C8 7545   4.069   3.631   0.469  0.0294  0.3119 -0.2165
  400THF     C9 7546   3.954   3.704   0.394  0.4894 -0.3178 -0.2582
  400THF    H10 7547   4.142   3.709   0.497  1.2457  0.7881  0.0184
  400THF    H11 7548   4.036   3.575   0.553 -0.8005  1.3132  1.8719
  400THF    H12 7549   3.852   3.691   0.441 -0.0432 -4.4256  2.0707
  400THF    H13 7550   3.981   3.806   0.378  0.7168  0.1868  0.7695
  401THF     O1 7551   3.573   5.191   3.971  0.0130  0.3212 -0.9352
  401THF     C2 7552   3.612   5.094   3.879  0.1686 -0.4744 -0.4702
  401THF     C3 7553   3.689   5.263   4.016 -0.3337 -0.9346  0.9299
  401THF     H4 7554   3.592   5.145   3.784  0.7850 -2.2595 -1.0843
  401THF     H5 7555   3.540   5.010   3.882 -0.0526  0.6262 -2.6115
  401THF     H6 7556   3.725   5.343   3.946 -0.2827  1.1391 -0.5944
  401THF     H7 7557   3.667   5.314   4.110 -0.8495 -0.2030 -1.3866
  401THF     C8 7558   3.783   5.144   4.040  0.1771 -0.2213  0.6349
  401THF     C9 7559   3.755   5.058   3.919 -0.0976 -0.1593 -0.3521
  401THF    H10 7560   3.743   5.084   4.127 -0.9074 -0.4355 -0.9722
  401THF    H11 7561   3.889   5.169   4.048  1.0356 -1.3084 -1.5602
  401THF    H12 7562   3.822   5.073   3.836 -3.0253  1.5262 -0.0003
  401THF    H13 7563   3.759   4.943   3.932 -0.0707 -0.5887 -0.3599
  402THF     O1 7564   2.354   2.935   1.936  0.3039  0.8451 -0.0055
  402THF     C2 7565   2.313   2.844   1.834 -0.6194 -0.1853 -0.4996
  402THF     C3 7566   2.404   3.047   1.863 -0.2198  0.0191  0.0661
  402THF     H4 7567   2.223   2.880   1.786  0.3804  2.3718  2.2935
  402THF     H5 7568   2.288   2.742   1.868 -1.3014 -2.3931 -2.1623
  402THF     H6 7569   2.315   3.102   1.832  3.9462  0.4591  2.5053
  402THF     H7 7570   2.456   3.118   1.930 -1.2907 -0.9913  2.0062
  402THF     C8 7571   2.498   2.981   1.760 -0.7088 -0.4609 -0.5547
  402THF     C9 7572   2.432   2.842   1.740 -0.1659 -0.0059 -0.1586
  402THF    H10 7573   2.595   2.977   1.804  1.6271 -0.7882  0.2042
  402THF    H11 7574   2.518   3.038   1.669  0.2590 -2.5118  0.7847
  402THF    H12 7575   2.401   2.825   1.637 -1.8082  1.2723  0.4401
  402THF    H13 7576   2.508   2.764   1.770  0.0381 -0.7051 -0.4734
  403THF     O1 7577   2.825   1.994   3.466  0.5180 -1.0562  0.5088
  403THF     C2 7578   2.813   2.133   3.494  0.2138 -0.3407 -0.3795
  403THF     C3 7579   2.931   1.946   3.544  0.0550  0.3113  0.0041
  403THF     H4 7580   2.725   2.184   3.466 -0.6712 -1.4418 -0.9552
  403THF     H5 7581   2.893   2.190   3.447  1.1230 -0.9449  0.2421
  403THF     H6 7582   2.919   1.831   3.561  0.6716 -0.0725 -0.4307
  403THF     H7 7583   3.027   1.965   3.500 -2.5486  3.9303  2.2430
  403THF     C8 7584   2.917   2.022   3.666  0.3397  0.7250 -0.2313
  403THF     C9 7585   2.814   2.129   3.642  0.3850  0.4424  0.1238
  403THF    H10 7586   3.007   2.074   3.690 -3.9436  1.3275  0.7270
  403THF    H11 7587   2.892   1.954   3.750  0.5446 -0.6399 -0.8530
  403THF    H12 7588   2.717   2.082   3.669  0.9114 -0.1077  1.6753
  403THF    H13 7589   2.825   2.231   3.690 -2.6352 -0.7712  0.6440
  404THF     O1 7590   5.490   5.234   2.099  0.0738  0.4350 -0.7526
  404THF     C2 7591   5.494   5.277   1.966  0.1154  0.4865 -0.3082
  404THF     C3 7592   5.352   5.218   2.128 -0.1919 -0.0920 -0.0144
  404THF     H4 7593   5.597   5.277   1.935 -0.7873  0.1825 -0.0161
  404THF     H5 7594   5.468   5.379   1.945  2.7655 -1.2383  1.1641
  404THF     H6 7595   5.335   5.136   2.206  0.0947  0.0640  1.0600
  404THF     H7 7596   5.313   5.310   2.161 -0.8596  0.2653 -0.2560
  404THF     C8 7597   5.280   5.177   1.993  0.6062 -0.2215 -0.6885
  404THF     C9 7598   5.400   5.170   1.902  0.2628 -0.0041  0.1279
  404THF    H10 7599   5.198   5.242   1.951 -0.0208  1.6848 -2.0019
  404THF    H11 7600   5.234   5.085   2.023 -1.2075 -1.3228  0.4108
  404THF    H12 7601   5.451   5.076   1.909 -2.4897 -1.2043  1.0825
  404THF    H13 7602   5.367   5.185   1.799 -0.7798  1.2295 -1.4644
  405THF     O1 7603   5.271   4.243   0.252  0.1401  0.8346 -0.2897
  405THF     C2 7604   5.208   4.118   0.300 -0.0642  0.8124 -0.1694
  405THF     C3 7605   5.398   4.212   0.215  0.5842  0.3815 -0.0197
  405THF     H4 7606   5.169   4.060   0.211  0.4423  2.2182 -3.1353
  405THF     H5 7607   5.120   4.142   0.361 -1.6590  0.2042 -2.2303
  405THF     H6 7608   5.407   4.199   0.112 -1.7708 -1.2312  0.3641
  405THF     H7 7609   5.478   4.281   0.252 -0.3411  0.2172 -0.7687
  405THF     C8 7610   5.429   4.067   0.268  1.1561  0.3197 -1.0568
  405THF     C9 7611   5.319   4.050   0.363  0.2504  0.5952  0.3601
  405THF    H10 7612   5.530   4.061   0.319  1.6388  1.0856  1.3902
  405THF    H11 7613   5.430   4.002   0.182  0.7513  1.5679  1.4509
  405THF    H12 7614   5.300   3.942   0.387 -1.4682  3.2203 -0.7377
  405THF    H13 7615   5.339   4.102   0.449  0.7671  0.0995 -0.2976
  406THF     O1 7616   4.457   4.445   0.291  0.2673 -0.2806  0.5455
  406THF     C2 7617   4.450   4.498   0.415 -0.0925  0.0286 -0.3445
  406THF     C3 7618   4.591   4.428   0.257 -0.0753  0.2989  0.6639
  406THF     H4 7619   4.354   4.484   0.462  1.4125 -2.0831  0.1862
  406THF     H5 7620   4.486   4.597   0.427 -1.8558 -2.0937  2.4383
  406THF     H6 7621   4.602   4.361   0.172  1.0621 -0.0001  1.5781
  406THF     H7 7622   4.636   4.527   0.243 -1.2206 -2.0267 -0.7243
  406THF     C8 7623   4.644   4.360   0.383 -0.2046 -0.0381  0.4995
  406THF     C9 7624   4.540   4.399   0.487 -1.0607 -0.6792  0.8590
  406THF    H10 7625   4.743   4.406   0.401 -2.2091 -0.0430  0.2915
  406THF    H11 7626   4.662   4.255   0.382 -3.4448  0.8656  1.3660
  406THF    H12 7627   4.490   4.311   0.517  1.0905  2.4655  0.3329
  406THF    H13 7628   4.583   4.445   0.576  0.2637 -0.3722 -0.7727
  407THF     O1 7629   2.782   2.159   4.177 -0.8397 -0.0838  0.5689
  407THF     C2 7630   2.905   2.111   4.235 -0.3064  1.1058 -0.2899
  407THF     C3 7631   2.810   2.165   4.034 -0.2920  0.2561  0.1960
  407THF     H4 7632   2.894   2.073   4.339  2.5356  1.5430  0.1362
  407THF     H5 7633   2.988   2.190   4.231  2.4973 -0.8326  2.3102
  407THF     H6 7634   2.723   2.183   3.972 -1.3934  0.7296  0.5478
  407THF     H7 7635   2.871   2.255   4.019  0.0712  1.4858  3.1479
  407THF     C8 7636   2.876   2.032   4.007 -0.5398  0.9717  0.1934
  407THF     C9 7637   2.951   2.003   4.136 -0.4227  0.1665 -0.0193
  407THF    H10 7638   2.945   2.050   3.922 -0.7251 -0.5150 -1.7526
  407THF    H11 7639   2.802   1.955   3.990  1.1985  0.6944 -1.2718
  407THF    H12 7640   2.917   1.906   4.167  0.8234  1.4433  3.5934
  407THF    H13 7641   3.060   1.991   4.147 -0.6908  0.3747 -2.4019
  408THF     O1 7642   3.128   3.183   0.556  0.5766 -0.2464 -0.2883
  408THF     C2 7643   3.239   3.206   0.456 -0.1381  0.1998  0.0827
  408THF     C3 7644   3.061   3.299   0.596 -0.1316 -0.1089 -0.6702
  408THF     H4 7645   3.204   3.182   0.354 -1.4235 -0.1019  1.0487
  408THF     H5 7646   3.323   3.138   0.482  1.6959 -2.0283  0.2814
  408THF     H6 7647   2.955   3.315   0.574  0.3368 -0.3634  2.0264
  408THF     H7 7648   3.079   3.316   0.700  0.0364 -0.6436 -1.7869
  408THF     C8 7649   3.141   3.412   0.528  0.3441 -0.5290  0.0199
  408THF     C9 7650   3.273   3.352   0.490 -0.1124  0.2864 -0.9224
  408THF    H10 7651   3.148   3.497   0.595  0.8622  0.5727 -1.8698
  408THF    H11 7652   3.095   3.453   0.429  0.8054 -1.0584 -0.0805
  408THF    H12 7653   3.322   3.401   0.404  0.1304 -0.3098 -0.0198
  408THF    H13 7654   3.328   3.359   0.580  0.5637 -1.3571  1.0123
  409THF     O1 7655   1.528   0.677   3.274 -0.5968 -0.2209 -0.5496
  409THF     C2 7656   1.459   0.798   3.256  0.0095  0.2349  0.4102
  409THF     C3 7657   1.542   0.618   3.148 -0.1909 -0.1418  0.7788
  409THF     H4 7658   1.464   0.871   3.337 -0.8748 -2.8817 -0.3353
  409THF     H5 7659   1.353   0.775   3.233  0.5028  0.4899 -1.2911
  409THF     H6 7660   1.615   0.538   3.145 -3.4852 -2.6881  2.9060
  409THF     H7 7661   1.445   0.580   3.100 -0.1286  0.4263 -1.1085
  409THF     C8 7662   1.602   0.736   3.066 -0.1039  0.3558 -0.0852
  409THF     C9 7663   1.542   0.860   3.141 -0.2860 -0.2093  0.0323
  409THF    H10 7664   1.571   0.741   2.966  0.5136 -0.6776  0.0433
  409THF    H11 7665   1.715   0.740   3.059 -0.8959 -2.6928  1.1114
  409THF    H12 7666   1.632   0.909   3.183 -0.0483 -2.6496 -1.6015
  409THF    H13 7667   1.488   0.928   3.082 -2.2646 -1.0335  3.0300
  410THF     O1 7668   5.488   0.624   0.627  0.4695  0.1113 -0.0254
  410THF     C2 7669   5.624   0.596   0.597 -0.7178 -0.6129 -0.3375
  410THF     C3 7670   5.432   0.529   0.709  0.8115  0.1026  0.4303
  410THF     H4 7671   5.677   0.694   0.580  2.0117  1.1158  0.5843
  410THF     H5 7672   5.626   0.530   0.502  0.7636 -4.8081 -1.6144
  410THF     H6 7673   5.402   0.577   0.799  1.5181 -1.5616  1.4498
  410THF     H7 7674   5.344   0.478   0.675  0.7119  2.0036  0.4583
  410THF     C8 7675   5.547   0.433   0.745  0.8643 -0.1710  0.1917
  410THF     C9 7676   5.674   0.517   0.713  0.2292  0.1346 -0.2224
  410THF    H10 7677   5.546   0.346   0.682  0.6983 -1.4328 -0.8203
  410THF    H11 7678   5.547   0.398   0.851  0.5169  0.8777 -0.8208
  410THF    H12 7679   5.685   0.600   0.786 -0.3945  0.9568 -0.9600
  410THF    H13 7680   5.764   0.457   0.702 -1.2923  0.9329 -0.2388
  411THF     O1 7681   5.262   1.941   2.342 -0.1177 -0.2286 -0.1309
  411THF     C2 7682   5.317   2.068   2.382 -0.2063 -0.9286 -0.6917
  411THF     C3 7683   5.302   1.915   2.205 -0.7211 -0.2358  1.1334
  411THF     H4 7684   5.393   2.053   2.459  0.4513 -0.9487 -1.5229
  411THF     H5 7685   5.245   2.122   2.446 -0.7469  0.0924 -0.9785
  411THF     H6 7686   5.391   1.851   2.208 -3.7115 -0.0083  1.1050
  411THF     H7 7687   5.217   1.874   2.143 -0.1207  0.7350 -1.9953
  411THF     C8 7688   5.329   2.053   2.151  0.1129  0.3046  0.8394
  411THF     C9 7689   5.370   2.140   2.256 -0.2311 -0.4831 -0.3750
  411THF    H10 7690   5.232   2.088   2.120  1.3825  1.7245 -0.3503
  411THF    H11 7691   5.397   2.069   2.065 -0.6681  1.6887  0.5535
  411THF    H12 7692   5.478   2.152   2.257 -2.9608  0.0559 -0.9167
  411THF    H13 7693   5.321   2.237   2.242  2.0321  2.1136 -0.4706
  412THF     O1 7694   5.052   3.276   3.913 -0.4106 -0.4329 -0.4569
  412THF     C2 7695   4.996   3.230   4.031 -0.2449 -0.9405 -0.2182
  412THF     C3 7696   4.944   3.315   3.834  0.3846  0.1003 -0.2206
  412THF     H4 7697   4.962   3.315   4.089  1.8868  1.9747  1.1581
  412THF     H5 7698   5.057   3.178   4.101 -0.7890  0.4460 -0.1668
  412THF     H6 7699   4.912   3.412   3.863  2.4237 -0.8344 -0.8015
  412THF     H7 7700   4.982   3.325   3.733  1.5335  0.8842 -0.4538
  412THF     C8 7701   4.847   3.205   3.851  0.4576  0.2023 -0.4679
  412THF     C9 7702   4.876   3.141   3.984 -0.3333  0.5765  0.0342
  412THF    H10 7703   4.857   3.128   3.774  2.5747 -0.8036  1.3060
  412THF    H11 7704   4.749   3.246   3.840  0.3660  2.5030 -0.8095
  412THF    H12 7705   4.800   3.152   4.061 -0.9124  0.5978 -0.8966
  412THF    H13 7706   4.907   3.037   3.972 -1.6797 -4.1906  1.0321
  413THF     O1 7707   3.280   2.763   2.841 -0.1682 -0.4730 -0.0730
  413THF     C2 7708   3.190   2.667   2.780 -0.5909 -0.3610 -0.2221
  413THF     C3 7709   3.308   2.693   2.967  0.2942  0.2905  0.0309
  413THF     H4 7710   3.183   2.678   2.673  0.5654 -0.6654  0.4567
  413THF     H5 7711   3.083   2.676   2.809  0.8846 -2.2960  1.2819
  413THF     H6 7712   3.392   2.740   3.013  3.3856 -0.6595 -1.0172
  413THF     H7 7713   3.221   2.706   3.026  4.5297 -0.8749 -2.1044
  413THF     C8 7714   3.325   2.543   2.941 -0.3655  0.6844  0.0185
  413THF     C9 7715   3.249   2.525   2.813 -0.1911  0.7924 -0.1043
  413THF    H10 7716   3.281   2.479   3.016 -1.3291  2.1841 -1.3029
  413THF    H11 7717   3.430   2.516   2.924 -0.0079  0.7013 -0.4097
  413THF    H12 7718   3.318   2.495   2.731 -2.5176 -1.5776 -1.1602
  413THF    H13 7719   3.168   2.452   2.830  0.7590 -3.2232  0.8497
  414THF     O1 7720   5.436   3.069   0.296 -0.8801  0.4286  0.1837
  414THF     C2 7721   5.509   3.172   0.233 -0.1119 -0.2866 -0.3330
  414THF     C3 7722   5.308   3.123   0.329 -1.5099  0.0649  0.0508
  414THF     H4 7723   5.477   3.182   0.134 -0.6064 -1.0323  1.3687
  414THF     H5 7724   5.613   3.148   0.229 -1.4787 -0.5149  2.2765
  414THF     H6 7725   5.231   3.125   0.245 -1.7516 -2.0333 -1.6689
  414THF     H7 7726   5.267   3.057   0.405 -0.1832  1.9426 -0.5838
  414THF     C8 7727   5.342   3.266   0.383  0.7503 -0.3869  0.5473
  414THF     C9 7728   5.479   3.294   0.320  0.7350 -0.3429  0.3500
  414THF    H10 7729   5.374   3.260   0.491  1.0543 -2.5121  0.1701
  414THF    H11 7730   5.263   3.345   0.368  0.2410 -0.0986 -1.7965
  414THF    H12 7731   5.482   3.383   0.260  0.5368 -3.0951  2.4442
  414THF    H13 7732   5.549   3.320   0.394  0.4441  2.0438  1.4615
  415THF     O1 7733   5.203   0.652   3.700 -0.0877 -0.4932  0.0457
  415THF     C2 7734   5.134   0.776   3.676  0.2794 -0.4967  0.2180
  415THF     C3 7735   5.253   0.605   3.578  0.9877 -0.0239 -0.0887
  415THF     H4 7736   5.146   0.811   3.776 -0.5498  1.6816 -0.0179
  415THF     H5 7737   5.025   0.766   3.655 -0.2505 -0.7080  1.5889
  415THF     H6 7738   5.339   0.536   3.587  1.6013 -1.1682 -0.8734
  415THF     H7 7739   5.185   0.538   3.518  1.8394 -0.8417  0.8948
  415THF     C8 7740   5.306   0.738   3.514 -0.1296 -0.1132 -0.2611
  415THF     C9 7741   5.218   0.847   3.569  0.1301  0.0995 -1.1164
  415THF    H10 7742   5.298   0.733   3.406  0.5173  0.6060  1.0316
  415THF    H11 7743   5.419   0.754   3.531  1.5298  1.5701  0.3994
  415THF    H12 7744   5.268   0.940   3.606  3.3814 -0.7812 -0.1527
  415THF    H13 7745   5.153   0.892   3.496  0.2905 -0.6413  1.7464
  416THF     O1 7746   3.089   2.774   5.324 -0.3262  0.1689  0.2918
  416THF     C2 7747   2.956   2.774   5.277  0.0084 -0.6097 -1.1237
  416THF     C3 7748   3.112   2.644   5.387  0.0510  0.0041  0.1799
  416THF     H4 7749   2.962   2.735   5.177  0.6439 -0.9370  2.7226
  416THF     H5 7750   2.914   2.877   5.269 -1.0527  0.9887 -0.8026
  416THF     H6 7751   3.186   2.588   5.326 -0.6341  0.8741  0.6845
  416THF     H7 7752   3.135   2.653   5.492 -1.5091  0.2677  0.8057
  416THF     C8 7753   2.984   2.562   5.377  0.1456 -0.5380 -0.2618
  416THF     C9 7754   2.882   2.669   5.360 -0.0945  0.0600 -0.2910
  416THF    H10 7755   2.965   2.504   5.466  0.7143  0.8175  1.5732
  416THF    H11 7756   2.982   2.499   5.290  0.6847  0.7770  0.6023
  416THF    H12 7757   2.789   2.642   5.316 -0.4071 -0.5862 -0.9211
  416THF    H13 7758   2.862   2.707   5.458 -2.5784  0.3410 -1.0129
  417THF     O1 7759   0.621   5.077   2.337  0.1253  0.1677  0.1545
  417THF     C2 7760   0.643   5.134   2.462  0.3289 -1.1365 -0.0374
  417THF     C3 7761   0.678   4.953   2.331  0.0285 -0.3412  0.3675
  417THF     H4 7762   0.571   5.094   2.536  1.7881  2.3213  1.4226
  417THF     H5 7763   0.613   5.242   2.467 -2.6356  2.0355  2.2022
  417THF     H6 7764   0.616   4.882   2.390 -0.4667  2.0300 -2.0539
  417THF     H7 7765   0.691   4.935   2.226 -0.4817  1.2188  1.3847
  417THF     C8 7766   0.813   4.963   2.399  1.0605 -0.5545  0.9197
  417THF     C9 7767   0.793   5.083   2.489  0.0080  0.5734 -0.3473
  417THF    H10 7768   0.902   4.994   2.334 -1.3090  2.7716  0.2806
  417THF    H11 7769   0.844   4.871   2.462 -1.4690 -0.8394 -1.2902
  417THF    H12 7770   0.819   5.062   2.595  3.2326 -1.8809  1.9497
  417THF    H13 7771   0.857   5.162   2.455 -0.7314  0.8643  2.8365
  418THF     O1 7772   3.113   4.611   0.547  0.0572 -0.3381 -0.2371
  418THF     C2 7773   2.999   4.529   0.570 -0.3008 -0.5037  0.0249
  418THF     C3 7774   3.208   4.581   0.644  0.1557 -0.4406  0.5454
  418THF     H4 7775   2.994   4.430   0.531  1.3872  1.2284  1.2674
  418THF     H5 7776   2.904   4.577   0.540 -2.4889 -1.2208 -0.2511
  418THF     H6 7777   3.252   4.483   0.613  1.0291 -1.4830  0.0069
  418THF     H7 7778   3.292   4.648   0.650  0.1824  0.7438  0.3712
  418THF     C8 7779   3.122   4.560   0.771  0.0308  0.3337 -0.0749
  418THF     C9 7780   2.981   4.520   0.725 -0.4750  0.0629  0.5502
  418THF    H10 7781   3.122   4.642   0.842  2.3647 -1.6308 -3.8431
  418THF    H11 7782   3.159   4.485   0.833  2.7096 -0.5827 -3.2186
  418THF    H12 7783   2.960   4.422   0.766 -0.4439  0.0653 -1.2037
  418THF    H13 7784   2.909   4.593   0.769  2.8883  0.8939 -0.0444
  419THF     O1 7785   0.293   1.498   4.476  0.2714 -0.0924 -0.2777
  419THF     C2 7786   0.220   1.540   4.601  0.2470 -0.3604  0.6888
  419THF     C3 7787   0.197   1.442   4.387  0.5774 -0.0909  0.0178
  419THF     H4 7788   0.206   1.649   4.597 -0.4189  0.4728 -0.8869
  419THF     H5 7789   0.272   1.509   4.688  1.7931  0.3719  0.6523
  419THF     H6 7790   0.207   1.487   4.284 -0.3371  0.5841 -0.9180
  419THF     H7 7791   0.223   1.339   4.379  0.9115  2.3134 -0.9786
  419THF     C8 7792   0.059   1.458   4.446  0.3240 -0.3544 -0.1438
  419THF     C9 7793   0.088   1.464   4.595  0.3275  0.2653 -0.3543
  419THF    H10 7794  -0.021   1.387   4.415 -3.2362  0.7798 -0.4568
  419THF    H11 7795   0.024   1.557   4.413 -1.0281 -0.4636 -4.9573
  419THF    H12 7796   0.008   1.521   4.653 -0.4865  1.4790 -1.6949
  419THF    H13 7797   0.097   1.369   4.643 -0.4391  0.6216  1.0195
  420THF     O1 7798   0.529   0.206   2.773 -0.0397  0.0124  0.2726
  420THF     C2 7799   0.454   0.150   2.665  0.2409 -0.3928  0.4999
  420THF     C3 7800   0.577   0.336   2.741  0.2303  0.3262 -0.2104
  420THF     H4 7801   0.375   0.082   2.705 -0.0024 -1.5542 -1.4601
  420THF     H5 7802   0.528   0.099   2.599  0.6540  1.2178 -0.9001
  420THF     H6 7803   0.540   0.398   2.827 -2.0909 -2.4757 -0.4809
  420THF     H7 7804   0.683   0.351   2.734  1.9527  2.4120  0.4989
  420THF     C8 7805   0.505   0.373   2.604 -0.8140 -0.1311 -0.1010
  420THF     C9 7806   0.397   0.272   2.587  0.4590  0.1665  1.1043
  420THF    H10 7807   0.583   0.374   2.524 -0.6558 -3.1289 -1.2610
  420THF    H11 7808   0.456   0.469   2.609 -2.9761  0.1459 -0.3532
  420THF    H12 7809   0.309   0.310   2.638 -0.2585 -4.3650  0.0854
  420THF    H13 7810   0.379   0.258   2.481 -0.4134  1.3071 -0.3129
  421THF     O1 7811   0.568   3.569   5.417 -0.2430  0.4002 -0.8128
  421THF     C2 7812   0.686   3.644   5.400 -0.9462 -0.1656  0.0381
  421THF     C3 7813   0.548   3.475   5.312 -0.6606  0.1935  0.3358
  421THF     H4 7814   0.721   3.689   5.494  0.7525  2.9896  1.4188
  421THF     H5 7815   0.683   3.730   5.327  0.0013 -2.4796 -0.2857
  421THF     H6 7816   0.478   3.398   5.326  3.1472  0.7055  1.2386
  421THF     H7 7817   0.524   3.537   5.229  2.1263  2.4162 -0.3981
  421THF     C8 7818   0.687   3.423   5.296 -0.3572  0.2762  0.0869
  421THF     C9 7819   0.781   3.539   5.344  0.2011 -0.5928  0.3575
  421THF    H10 7820   0.698   3.416   5.190  1.1177  3.2449  0.2113
  421THF    H11 7821   0.714   3.324   5.340 -0.5552 -0.3807  1.0942
  421THF    H12 7822   0.845   3.498   5.421  0.4802 -2.8313  2.1933
  421THF    H13 7823   0.858   3.577   5.277 -0.5383 -0.8410 -0.5862
  422THF     O1 7824   4.516   4.535   4.298  0.3488  0.9129 -0.0237
  422THF     C2 7825   4.576   4.484   4.184  0.4559  0.3392 -0.2930
  422THF     C3 7826   4.372   4.543   4.262 -0.3488 -0.2903 -0.2493
  422THF     H4 7827   4.674   4.448   4.211  1.3722 -0.9080 -3.3592
  422THF     H5 7828   4.590   4.556   4.102  0.3456  1.3013  1.9286
  422THF     H6 7829   4.319   4.514   4.353  1.5165 -0.0864 -0.8366
  422THF     H7 7830   4.342   4.641   4.231  0.8593 -1.1350  1.9599
  422THF     C8 7831   4.346   4.435   4.163  0.3430  0.2282  0.6679
  422THF     C9 7832   4.482   4.366   4.141  0.1511 -0.2884 -0.0241
  422THF    H10 7833   4.317   4.494   4.072 -1.2732 -2.0014 -1.5538
  422THF    H11 7834   4.264   4.381   4.198 -2.9239  1.4492 -0.1293
  422THF    H12 7835   4.488   4.281   4.214 -3.5695 -0.1352  0.6648
  422THF    H13 7836   4.497   4.345   4.033  0.5485  0.4421 -1.1323
  423THF     O1 7837   0.970   3.930   1.425 -0.6764 -0.3978 -0.2030
  423THF     C2 7838   1.065   3.876   1.339 -0.3976  0.4896  0.4638
  423THF     C3 7839   1.025   3.906   1.553 -0.1323 -0.1271 -0.3766
  423THF     H4 7840   1.160   3.939   1.335 -0.6348  0.6185 -2.4084
  423THF     H5 7841   1.031   3.878   1.234 -0.0067  0.7112 -2.0921
  423THF     H6 7842   1.106   3.978   1.572  2.4012  2.1524  1.9852
  423THF     H7 7843   0.952   3.927   1.627  1.4494 -0.5495 -1.5501
  423THF     C8 7844   1.082   3.762   1.547  0.0502  0.4506 -0.3087
  423THF     C9 7845   1.091   3.735   1.400 -0.3244 -0.3751 -0.5155
  423THF    H10 7846   1.008   3.700   1.583 -2.0269  0.5245 -1.3620
  423THF    H11 7847   1.176   3.747   1.594 -1.1815  1.3387  1.8644
  423THF    H12 7848   1.191   3.698   1.378  1.8359  0.0419 -1.6614
  423THF    H13 7849   1.022   3.662   1.361 -2.4213  0.2296  1.5846
  424THF     O1 7850   2.529   4.509   2.836 -0.0435 -0.2648 -0.4187
  424THF     C2 7851   2.566   4.368   2.830 -0.1700  0.9829  0.4421
  424THF     C3 7852   2.414   4.524   2.915  0.4461 -0.1835  0.0892
  424THF     H4 7853   2.665   4.340   2.870  1.4821  0.0748 -1.0130
  424THF     H5 7854   2.574   4.340   2.725  0.4350  2.2751  0.1524
  424THF     H6 7855   2.447   4.554   3.017 -0.8014 -1.5989  2.4221
  424THF     H7 7856   2.340   4.600   2.883 -1.6289  0.9419  4.4303
  424THF     C8 7857   2.345   4.393   2.919  0.0025  0.3855  0.4026
  424THF     C9 7858   2.459   4.298   2.907 -0.5153 -0.1551 -0.2617
  424THF    H10 7859   2.277   4.373   2.836 -1.7051 -3.6199  1.2027
  424THF    H11 7860   2.283   4.379   3.009 -1.4364 -1.6572  0.6322
  424THF    H12 7861   2.484   4.272   3.007 -2.7952 -1.0890 -0.9613
  424THF    H13 7862   2.433   4.198   2.861  1.3516 -2.0336 -1.3943
  425THF     O1 7863   2.662   1.557   4.590  0.2612  0.3382 -0.1243
  425THF     C2 7864   2.734   1.659   4.651  0.6477  0.4346  0.1685
  425THF     C3 7865   2.555   1.516   4.672  0.2832  0.4374 -0.0171
  425THF     H4 7866   2.689   1.757   4.653 -0.5742  1.7317 -1.2245
  425THF     H5 7867   2.832   1.673   4.608 -1.6936  1.5197  2.0960
  425THF     H6 7868   2.475   1.597   4.677 -0.3463  0.2482 -1.7362
  425THF     H7 7869   2.506   1.425   4.641  0.7935 -2.5773  3.4168
  425THF     C8 7870   2.619   1.522   4.813  0.7559 -0.2117  0.9174
  425THF     C9 7871   2.749   1.601   4.794  0.0247  0.2087 -0.1917
  425THF    H10 7872   2.632   1.423   4.859 -0.1043 -0.9097 -1.4297
  425THF    H11 7873   2.554   1.589   4.872  0.1402  1.0191  0.5062
  425THF    H12 7874   2.765   1.674   4.870  0.7712  0.6389  1.0438
  425THF    H13 7875   2.833   1.537   4.794  0.3768 -1.3322  2.1672
  426THF     O1 7876   1.468   0.883   4.777 -0.3315 -0.3749  0.6976
  426THF     C2 7877   1.428   0.751   4.741  0.5753  0.7850  0.0630
  426THF     C3 7878   1.363   0.936   4.858  0.4315  0.0420  0.3851
  426THF     H4 7879   1.450   0.689   4.826  2.0483 -0.6025  0.2640
  426THF     H5 7880   1.489   0.716   4.654 -1.7847 -2.3641  1.4869
  426THF     H6 7881   1.364   0.895   4.965 -1.5813 -4.1552  2.7100
  426THF     H7 7882   1.372   1.045   4.865  1.5645  0.0976 -1.2842
  426THF     C8 7883   1.236   0.892   4.786 -0.1290  0.7037  0.1687
  426THF     C9 7884   1.277   0.766   4.714 -0.0279 -0.0845  0.0698
  426THF    H10 7885   1.216   0.967   4.708  1.1956 -2.3900 -0.8907
  426THF    H11 7886   1.145   0.873   4.841  0.1398  0.1808 -1.3676
  426THF    H12 7887   1.212   0.687   4.754  2.6024  1.1208 -1.1152
  426THF    H13 7888   1.266   0.769   4.602  3.2113 -2.3545  0.3807
  427THF     O1 7889   3.282   1.057   2.074  0.0125  0.1085  0.2256
  427THF     C2 7890   3.231   1.158   2.164  0.6818 -0.2332 -0.7761
  427THF     C3 7891   3.181   1.018   1.977  0.4234  0.3545  0.0146
  427THF     H4 7892   3.296   1.232   2.201 -2.8365  0.6288  1.4459
  427THF     H5 7893   3.209   1.105   2.253  1.1692 -0.1740 -0.1006
  427THF     H6 7894   3.220   1.030   1.874 -3.9530  0.9057 -1.0011
  427THF     H7 7895   3.154   0.911   1.991 -1.1677  1.7332  0.7818
  427THF     C8 7896   3.060   1.097   2.007 -0.5088 -0.0105 -0.0798
  427THF     C9 7897   3.120   1.219   2.075 -0.1458 -0.4421  0.4460
  427THF    H10 7898   2.988   1.035   2.065  1.2495  2.0100  0.2212
  427THF    H11 7899   3.007   1.124   1.920  0.2929 -1.4694  1.5972
  427THF    H12 7900   3.165   1.280   1.996  0.4184 -1.6908 -0.2329
  427THF    H13 7901   3.046   1.278   2.126 -1.2428  2.0079  0.2208
  428THF     O1 7902   0.539   2.658   0.973  0.3655 -0.1262 -0.0647
  428THF     C2 7903   0.459   2.744   1.055  0.2650 -0.0204 -0.0553
  428THF     C3 7904   0.653   2.618   1.055 -0.0337 -0.0089  0.9524
  428THF     H4 7905   0.409   2.697   1.133  1.0439  0.4611  1.7036
  428THF     H5 7906   0.393   2.807   0.995 -1.3493 -1.7129 -2.7794
  428THF     H6 7907   0.643   2.553   1.135 -0.6928  1.0163 -1.0807
  428THF     H7 7908   0.736   2.583   0.990  2.0473 -1.3772 -2.2171
  428THF     C8 7909   0.697   2.752   1.108 -0.1173 -0.0325 -0.1942
  428THF     C9 7910   0.562   2.830   1.126  0.2004  0.2426  0.8700
  428THF    H10 7911   0.759   2.807   1.034 -1.1468  3.6945 -1.4204
  428THF    H11 7912   0.751   2.753   1.204  0.6870 -0.3867  2.2514
  428THF    H12 7913   0.538   2.862   1.229  0.8564 -0.7499 -0.7880
  428THF    H13 7914   0.584   2.921   1.080  0.5701  0.6819  0.4888
  429THF     O1 7915   5.279   5.262   3.896 -0.2253  0.3242  0.5619
  429THF     C2 7916   5.207   5.217   3.783  0.0370 -0.3535  0.1938
  429THF     C3 7917   5.411   5.216   3.892 -1.0664  0.5598  0.5920
  429THF     H4 7918   5.126   5.284   3.757 -0.2870 -0.3863  0.7907
  429THF     H5 7919   5.178   5.114   3.800 -0.8813  0.2532 -1.3609
  429THF     H6 7920   5.475   5.263   3.968 -0.9540 -0.6273  0.3584
  429THF     H7 7921   5.416   5.110   3.914 -0.2394 -1.0393  1.7685
  429THF     C8 7922   5.450   5.217   3.748 -0.0277  0.8177  0.0534
  429THF     C9 7923   5.316   5.206   3.672  0.2822 -0.0469  0.1191
  429THF    H10 7924   5.514   5.133   3.726 -0.9926 -0.2639 -1.6416
  429THF    H11 7925   5.499   5.310   3.729  0.9382  1.4057 -2.8035
  429THF    H12 7926   5.309   5.284   3.600  4.1625  1.7406 -2.0312
  429THF    H13 7927   5.314   5.117   3.606 -0.4153  0.6725 -0.0320
  430THF     O1 7928   0.975   1.027   4.702  0.0575  0.5995 -0.0321
  430THF     C2 7929   0.894   1.084   4.598 -0.3667 -0.7936  0.3056
  430THF     C3 7930   0.887   0.959   4.785  0.0586  0.0010  0.3152
  430THF     H4 7931   0.951   1.107   4.508 -2.3501  2.1226 -0.4061
  430THF     H5 7932   0.847   1.187   4.627 -3.4669  1.1121  0.3596
  430THF     H6 7933   0.940   0.871   4.826  0.1103 -3.0917 -0.3278
  430THF     H7 7934   0.849   1.018   4.866 -1.3958  1.2178  0.4082
  430THF     C8 7935   0.769   0.915   4.694 -0.1452 -0.2623 -0.6152
  430THF     C9 7936   0.783   0.984   4.563  0.1553  0.3893  0.1792
  430THF    H10 7937   0.675   0.939   4.743 -1.5521  0.3112  1.7754
  430THF    H11 7938   0.778   0.811   4.674 -0.5961  0.8847 -1.7937
  430THF    H12 7939   0.828   0.916   4.481 -1.8543 -0.6867 -2.0504
  430THF    H13 7940   0.700   1.040   4.519 -1.7835  2.5598 -0.7622
  431THF     O1 7941   0.359   2.280   4.625  0.2054 -0.6161 -0.3157
  431THF     C2 7942   0.401   2.252   4.759 -0.6604 -0.5153  0.7342
  431THF     C3 7943   0.276   2.180   4.583  0.2078 -0.3483 -0.2926
  431THF     H4 7944   0.347   2.322   4.830  2.0010 -1.7842 -0.1562
  431THF     H5 7945   0.503   2.272   4.771 -3.4311  1.6420 -2.6267
  431THF     H6 7946   0.172   2.186   4.613 -1.1634 -1.7384  0.0449
  431THF     H7 7947   0.276   2.195   4.471  2.9835  2.6738  0.8212
  431THF     C8 7948   0.340   2.056   4.648  0.7777 -0.4463 -0.2241
  431THF     C9 7949   0.373   2.103   4.787  0.6274  0.0172 -0.0244
  431THF    H10 7950   0.438   2.020   4.612 -1.1534  0.1499 -0.6201
  431THF    H11 7951   0.270   1.971   4.640 -0.5663  1.4078  0.1380
  431THF    H12 7952   0.289   2.083   4.852 -0.0052  2.4319 -1.4559
  431THF    H13 7953   0.460   2.051   4.833  0.4777 -1.2956  1.9933
  432THF     O1 7954   5.055   5.045   5.024  0.2248  0.8159 -0.3746
  432THF     C2 7955   5.180   5.042   5.082  0.1989  0.3091  0.2519
  432THF     C3 7956   5.050   5.155   4.945 -0.3154  0.4395 -0.5460
  432THF     H4 7957   5.215   4.947   5.118  1.9523  1.5235 -1.0049
  432THF     H5 7958   5.186   5.115   5.159  3.3664 -3.2355  0.3459
  432THF     H6 7959   4.964   5.149   4.890  1.1119 -0.5987 -0.8415
  432THF     H7 7960   5.053   5.253   5.008 -0.9049  1.6541 -2.9136
  432THF     C8 7961   5.178   5.149   4.869  0.2517  0.2971 -0.5167
  432THF     C9 7962   5.276   5.103   4.980  0.0421 -0.3446 -0.0038
  432THF    H10 7963   5.185   5.247   4.836  1.9636 -0.5779 -0.2394
  432THF    H11 7964   5.168   5.076   4.789 -0.2817  2.2046  0.0967
  432THF    H12 7965   5.351   5.033   4.956 -1.7427 -1.0886 -0.8349
  432THF    H13 7966   5.317   5.197   5.016  1.0380  1.9575 -1.4863
  433THF     O1 7967   3.642   1.468   2.501 -0.1945 -0.1242 -0.0161
  433THF     C2 7968   3.765   1.544   2.479 -0.5003  0.4608  0.0348
  433THF     C3 7969   3.520   1.547   2.482  0.4265 -0.0190  0.0651
  433THF     H4 7970   3.815   1.524   2.379 -0.2121 -1.4191 -0.2749
  433THF     H5 7971   3.838   1.527   2.560  0.8759  0.4138 -1.3813
  433THF     H6 7972   3.452   1.498   2.413 -1.8625  0.2690  1.9003
  433THF     H7 7973   3.461   1.568   2.576 -0.7223  1.3398 -0.1314
  433THF     C8 7974   3.575   1.677   2.426  0.1980  0.0523 -0.2076
  433THF     C9 7975   3.717   1.686   2.483 -0.2056  0.0708 -0.3565
  433THF    H10 7976   3.505   1.761   2.446  2.4417  1.8766  1.6450
  433THF    H11 7977   3.570   1.672   2.317  1.9417 -2.0597 -0.1526
  433THF    H12 7978   3.775   1.753   2.422 -0.7727  1.2672 -0.4766
  433THF    H13 7979   3.703   1.722   2.587 -1.2694 -0.6846  3.5075
  434THF     O1 7980   4.845   4.166   4.139  0.0705 -0.3362  0.0748
  434THF     C2 7981   4.938   4.062   4.107 -0.4337 -0.5234  0.3669
  434THF     C3 7982   4.884   4.233   4.257 -0.2004 -0.0271 -0.2026
  434THF     H4 7983   5.006   4.116   4.030  1.6100  0.0617 -1.1171
  434THF     H5 7984   4.900   3.966   4.067 -0.2298  1.8223 -1.1648
  434THF     H6 7985   4.872   4.343   4.244 -1.1413  1.1217 -0.5243
  434THF     H7 7986   4.820   4.219   4.356 -1.0017  1.4015  1.0321
  434THF     C8 7987   5.024   4.176   4.292 -0.4912 -0.9429  0.2479
  434THF     C9 7988   5.019   4.038   4.236 -0.0234  0.2708 -0.3310
  434THF    H10 7989   5.047   4.174   4.398 -0.3745 -0.1869  0.7735
  434THF    H11 7990   5.108   4.230   4.236 -0.1856  0.2017 -1.1119
  434THF    H12 7991   5.112   3.997   4.208  2.3180  0.3844 -0.4790
  434THF    H13 7992   4.974   3.972   4.311  2.0434  0.1195  0.8245
  435THF     O1 7993   4.861   4.911   0.006 -0.4400  0.1829  0.1380
  435THF     C2 7994   4.786   4.835  -0.093 -0.3633  0.2644  0.1944
  435THF     C3 7995   4.993   4.854   0.010  0.0299 -0.4272  0.6189
  435THF     H4 7996   4.709   4.900  -0.131  0.6640  1.5194 -0.8190
  435THF     H5 7997   4.730   4.751  -0.047 -1.0434 -1.3397  1.1301
  435THF     H6 7998   5.060   4.929   0.049 -1.4175  2.2760 -1.2038
  435THF     H7 7999   5.000   4.775   0.077  0.2077  0.6474 -3.9982
  435THF     C8 8000   5.018   4.816  -0.130  0.5995 -0.7082 -0.4123
  435THF     C9 8001   4.888   4.795  -0.204 -0.7989 -0.0465 -0.1289
  435THF    H10 8002   5.081   4.731  -0.122  0.6423  1.4570  1.7691
  435THF    H11 8003   5.079   4.893  -0.181  1.6576  0.4251  1.3320
  435THF    H12 8004   4.874   4.858  -0.299 -1.1254  1.8853  0.2173
  435THF    H13 8005   4.887   4.686  -0.222 -1.0229  0.3429 -0.7394
  436THF     O1 8006   0.927   2.946   5.477 -1.0537 -0.1217 -0.7156
  436THF     C2 8007   1.024   3.047   5.434  0.5319  0.5745  0.0811
  436THF     C3 8008   0.999   2.828   5.468  0.1426 -0.5978 -0.2043
  436THF     H4 8009   1.099   3.075   5.512 -0.1421 -0.5613 -2.0289
  436THF     H5 8010   0.960   3.130   5.393 -0.8577  0.2910  0.2639
  436THF     H6 8011   1.086   2.822   5.536  1.3290  2.0361 -1.9985
  436THF     H7 8012   0.922   2.748   5.470 -0.5780 -1.4924 -1.5583
  436THF     C8 8013   1.052   2.841   5.327  1.3176  0.7691 -0.3239
  436THF     C9 8014   1.101   2.984   5.316  0.3824  0.7920 -0.4282
  436THF    H10 8015   0.971   2.821   5.254  2.7303  0.2267  0.8726
  436THF    H11 8016   1.125   2.761   5.308 -1.8756 -0.0935  0.9442
  436THF    H12 8017   1.211   2.975   5.325 -0.9863  0.0714 -1.4784
  436THF    H13 8018   1.063   3.031   5.217  1.5591 -0.5069 -1.8118
  437THF     O1 8019   1.651   4.357   4.910 -0.1557 -0.5766 -0.4122
  437THF     C2 8020   1.699   4.361   4.784  0.2495  0.9081  0.0666
  437THF     C3 8021   1.596   4.487   4.945 -0.4781  0.2273 -0.8953
  437THF     H4 8022   1.706   4.264   4.740  3.5889 -0.6685  0.3277
  437THF     H5 8023   1.796   4.411   4.791  2.1181  0.0045  0.5551
  437THF     H6 8024   1.512   4.472   5.006  0.6338 -2.8773  2.5685
  437THF     H7 8025   1.671   4.540   5.001 -3.1924 -2.8966  1.9668
  437THF     C8 8026   1.568   4.559   4.817  0.5339  0.9287  0.1852
  437THF     C9 8027   1.617   4.454   4.704 -0.1895  0.4311  0.0797
  437THF    H10 8028   1.631   4.649   4.812  2.1698  0.5734 -0.9644
  437THF    H11 8029   1.472   4.597   4.807  2.1995 -0.5258  1.4278
  437THF    H12 8030   1.528   4.399   4.668 -0.9191  2.7465 -0.1481
  437THF    H13 8031   1.663   4.497   4.619 -0.2722  1.4138  0.1392
  438THF     O1 8032   0.839   2.094   3.175 -0.1621  0.1948 -0.1930
  438THF     C2 8033   0.806   1.960   3.207  0.6614  0.2823  0.8986
  438THF     C3 8034   0.937   2.128   3.267  0.4047 -0.1470 -0.5136
  438THF     H4 8035   0.760   1.908   3.114 -0.1797 -0.8582 -1.0716
  438THF     H5 8036   0.739   1.971   3.294  0.2685 -0.2312  0.1183
  438THF     H6 8037   0.971   2.223   3.228  0.3516 -0.4600  1.6210
  438THF     H7 8038   0.898   2.155   3.367  0.6203 -1.3073 -1.0478
  438THF     C8 8039   1.028   2.008   3.275  0.3105 -0.5796 -0.5892
  438THF     C9 8040   0.940   1.893   3.258 -0.6889  0.2265  0.0842
  438THF    H10 8041   1.080   2.009   3.363  0.0397  0.5645 -2.6337
  438THF    H11 8042   1.103   2.019   3.196 -2.3691 -3.0852  0.2893
  438THF    H12 8043   0.976   1.829   3.176  0.2263  1.8428 -0.5651
  438THF    H13 8044   0.934   1.826   3.341 -3.0107 -0.5759  1.1905
  439THF     O1 8045   0.362   5.012   1.326  0.0235 -0.1666 -0.4337
  439THF     C2 8046   0.422   5.103   1.419 -0.3717 -0.3967 -0.3155
  439THF     C3 8047   0.402   4.887   1.365  0.3348  0.6503 -0.1592
  439THF     H4 8048   0.361   5.118   1.507 -1.6483  2.7157 -2.3383
  439THF     H5 8049   0.436   5.200   1.368  0.8786 -1.1713 -2.2976
  439THF     H6 8050   0.354   4.856   1.453  1.3451  1.9146  0.3949
  439THF     H7 8051   0.383   4.813   1.285  0.6141  3.0934  1.6978
  439THF     C8 8052   0.549   4.903   1.383  0.6601 -0.4764  0.2089
  439THF     C9 8053   0.558   5.040   1.449  0.2621  0.0693 -0.6791
  439THF    H10 8054   0.595   4.917   1.282 -1.7509  0.8971 -2.5930
  439THF    H11 8055   0.597   4.820   1.436  3.3799  0.1532  0.4615
  439THF    H12 8056   0.573   5.012   1.551  0.5731 -0.1601 -0.4783
  439THF    H13 8057   0.641   5.105   1.428 -0.1293  0.5681 -1.8856
  440THF     O1 8058   2.498   0.988   2.773 -0.0646 -0.4891 -0.0205
  440THF     C2 8059   2.395   0.895   2.768  0.3046 -0.1507  0.1163
  440THF     C3 8060   2.511   1.040   2.647  0.4053 -0.4778 -0.4192
  440THF     H4 8061   2.373   0.861   2.870  0.4915  0.1907  0.2364
  440THF     H5 8062   2.418   0.807   2.699  0.0327  2.1098 -0.9826
  440THF     H6 8063   2.574   1.127   2.642  0.2817  1.1032  0.1428
  440THF     H7 8064   2.545   0.961   2.580 -1.1831  1.9985  0.8777
  440THF     C8 8065   2.366   1.073   2.607  0.1066  0.4041 -0.5601
  440THF     C9 8066   2.286   0.984   2.706  0.1058  0.4950 -0.3090
  440THF    H10 8067   2.331   1.064   2.501 -3.0166  1.5698 -1.3661
  440THF    H11 8068   2.349   1.184   2.619 -0.4988  2.2728 -1.3744
  440THF    H12 8069   2.249   1.053   2.779  1.2846 -1.5189  0.3082
  440THF    H13 8070   2.210   0.926   2.658 -0.0227  2.0893  0.6989
  441THF     O1 8071   3.452   0.764   2.632  0.2978 -0.0806  0.5808
  441THF     C2 8072   3.512   0.639   2.665  0.6501  0.1395 -0.5162
  441THF     C3 8073   3.484   0.853   2.732 -0.2646 -0.0959  0.0993
  441THF     H4 8074   3.531   0.584   2.576  0.2972 -0.0395  1.5352
  441THF     H5 8075   3.437   0.592   2.734 -2.1361  0.6218 -0.6041
  441THF     H6 8076   3.496   0.948   2.693 -0.2603 -0.9028  0.8119
  441THF     H7 8077   3.413   0.854   2.811  0.4034  0.2722  2.5657
  441THF     C8 8078   3.623   0.821   2.780 -0.0333  0.3314  0.5672
  441THF     C9 8079   3.646   0.683   2.730  0.2077 -0.3241  0.1128
  441THF    H10 8080   3.629   0.855   2.881  0.5286  1.5184 -1.6424
  441THF    H11 8081   3.698   0.881   2.736  1.1031 -1.5832 -0.0034
  441THF    H12 8082   3.724   0.680   2.660 -0.3358  1.1745  0.8113
  441THF    H13 8083   3.661   0.603   2.803 -1.0963 -0.6199 -0.7954
  442THF     O1 8084   0.991   3.206   1.404  0.2803  0.0455 -0.0893
  442THF     C2 8085   1.009   3.069   1.429  0.6026  0.4825  0.8260
  442THF     C3 8086   0.859   3.228   1.356  0.5005 -0.5544  0.0990
  442THF     H4 8087   1.016   3.061   1.534  0.5698 -0.0649 -0.0404
  442THF     H5 8088   1.102   3.030   1.384  0.1056 -0.4520 -0.3200
  442THF     H6 8089   0.823   3.322   1.396  0.4531 -2.3564  1.6764
  442THF     H7 8090   0.876   3.243   1.248 -0.6650  0.8938 -1.5491
  442THF     C8 8091   0.780   3.106   1.388  0.3716 -0.3380  0.0859
  442THF     C9 8092   0.889   2.998   1.369  0.0618 -0.2205  1.0450
  442THF    H10 8093   0.698   3.102   1.316  2.1138  0.7685  1.0641
  442THF    H11 8094   0.750   3.106   1.495  0.2651 -1.4056  1.7116
  442THF    H12 8095   0.858   2.916   1.425 -3.7757  1.3616 -2.0408
  442THF    H13 8096   0.903   2.978   1.267 -0.9015 -2.0160  0.7274
  443THF     O1 8097   2.435   4.926   0.376 -0.7287 -0.1625  0.3724
  443THF     C2 8098   2.387   4.859   0.490  0.0492  0.4524 -0.0717
  443THF     C3 8099   2.339   4.918   0.266 -0.8173 -0.3466  0.1138
  443THF     H4 8100   2.432   4.898   0.582  1.1725 -0.6389 -0.5310
  443THF     H5 8101   2.417   4.750   0.471 -0.8482  0.0527  1.0853
  443THF     H6 8102   2.341   5.005   0.200 -0.3361 -0.0850  1.5410
  443THF     H7 8103   2.357   4.824   0.217 -0.7920 -0.5975  3.3256
  443THF     C8 8104   2.207   4.911   0.337  0.0819 -0.8567  0.4944
  443THF     C9 8105   2.238   4.892   0.487 -0.0783  0.0204 -0.0586
  443THF    H10 8106   2.137   4.840   0.299  3.0785  0.6836 -0.9098
  443THF    H11 8107   2.159   5.012   0.314 -1.0827 -0.0884 -0.1948
  443THF    H12 8108   2.229   4.985   0.547 -1.2913 -0.1440  0.1991
  443THF    H13 8109   2.185   4.817   0.542  1.1952  0.0544 -2.7414
  444THF     O1 8110   4.248   2.299   4.679 -0.6933  0.3326 -0.4077
  444THF     C2 8111   4.193   2.428   4.672  0.2554 -0.0113  0.1854
  444THF     C3 8112   4.161   2.219   4.758  0.1868 -0.5932 -0.0589
  444THF     H4 8113   4.135   2.419   4.578  1.3227 -0.4227 -1.3129
  444THF     H5 8114   4.268   2.508   4.662 -2.7463  2.4235 -1.0011
  444THF     H6 8115   4.079   2.178   4.705 -0.6309  1.7584  3.3297
  444THF     H7 8116   4.214   2.138   4.813 -0.0483 -1.5612  1.6568
  444THF     C8 8117   4.103   2.320   4.861 -0.6450  0.1891  0.2554
  444THF     C9 8118   4.104   2.456   4.791 -0.0637  0.4525  0.1316
  444THF    H10 8119   4.167   2.341   4.948  0.5165 -0.3231 -1.2959
  444THF    H11 8120   4.007   2.292   4.904  0.4381 -0.2117  1.5054
  444THF    H12 8121   4.004   2.478   4.756 -1.3446  1.4206  0.6319
  444THF    H13 8122   4.147   2.535   4.852  2.3372 -3.0808  0.0912
  445THF     O1 8123   5.250   0.920   4.117 -0.2200  0.3462 -0.0025
  445THF     C2 8124   5.200   1.003   4.221  0.0115  0.4755 -0.3150
  445THF     C3 8125   5.209   0.788   4.149 -0.2791 -1.0036 -0.2157
  445THF     H4 8126   5.188   1.104   4.195 -0.8679  3.0628  1.4483
  445THF     H5 8127   5.279   1.003   4.293 -0.0911  0.0996  0.0972
  445THF     H6 8128   5.222   0.729   4.062  0.5554 -1.8162  0.7805
  445THF     H7 8129   5.281   0.750   4.221 -0.2258  1.2119 -0.1893
  445THF     C8 8130   5.070   0.807   4.205 -0.5603 -0.1651  0.2340
  445THF     C9 8131   5.081   0.937   4.284  0.3418 -0.5075 -0.5088
  445THF    H10 8132   5.043   0.717   4.257  1.4103  0.4807 -0.4861
  445THF    H11 8133   5.001   0.825   4.131  1.8906 -1.5320  0.0782
  445THF    H12 8134   4.999   1.001   4.270  2.0555 -3.0853 -0.3462
  445THF    H13 8135   5.099   0.919   4.396 -0.2419 -1.5838 -0.0679
  446THF     O1 8136   1.456   4.776   3.816  0.2890 -0.2975 -0.7223
  446THF     C2 8137   1.534   4.708   3.726 -0.4319 -0.1530 -0.9108
  446THF     C3 8138   1.416   4.902   3.764 -0.6263 -0.9323  0.0117
  446THF     H4 8139   1.500   4.607   3.728 -1.3517 -1.6353  0.3375
  446THF     H5 8140   1.646   4.705   3.761  1.9277  2.4070 -0.7637
  446THF     H6 8141   1.334   4.944   3.819  1.8878 -0.7944 -2.3676
  446THF     H7 8142   1.493   4.980   3.772  0.4147  0.4202  0.6352
  446THF     C8 8143   1.397   4.874   3.614 -0.3031  0.2770  0.0717
  446THF     C9 8144   1.509   4.771   3.589  0.0807  0.1925  1.1501
  446THF    H10 8145   1.415   4.959   3.546  0.4117  0.6099 -1.4274
  446THF    H11 8146   1.305   4.824   3.596  1.3002 -0.9219  1.3449
  446THF    H12 8147   1.480   4.701   3.508  1.5847  0.5182  1.8139
  446THF    H13 8148   1.604   4.822   3.556  2.2031  0.2266  2.3960
  447THF     O1 8149   2.995   3.122   2.823  0.1838 -0.1563  0.0019
  447THF     C2 8150   3.034   2.988   2.856 -0.8867 -0.1166  0.7200
  447THF     C3 8151   3.001   3.192   2.947  0.4344 -0.3980 -0.6432
  447THF     H4 8152   3.092   2.940   2.775  0.3226 -0.1406  0.5131
  447THF     H5 8153   2.951   2.925   2.878  0.8676  1.2822 -0.2298
  447THF     H6 8154   3.063   3.275   2.922 -0.3779 -0.6286  0.3975
  447THF     H7 8155   2.898   3.218   2.955  1.7897 -0.9598  0.8808
  447THF     C8 8156   3.064   3.113   3.059  0.4943  0.3724  0.5619
  447THF     C9 8157   3.130   3.005   2.975  0.9701 -0.3656  0.6649
  447THF    H10 8158   2.990   3.066   3.120 -2.6393 -1.2005  1.2217
  447THF    H11 8159   3.130   3.169   3.124 -4.1766 -1.3494  2.6851
  447THF    H12 8160   3.225   3.045   2.932  1.2136  0.5867 -3.8899
  447THF    H13 8161   3.144   2.918   3.037 -0.8318  0.9954  0.8756
  448THF     O1 8162   2.291   3.825   2.036  0.5720  1.1844  0.0935
  448THF     C2 8163   2.349   3.846   1.909 -0.2962  0.0671 -0.0604
  448THF     C3 8164   2.216   3.937   2.071  0.6779 -0.3251  0.0960
  448THF     H4 8165   2.279   3.801   1.840  0.6990  0.7759  1.0489
  448THF     H5 8166   2.440   3.787   1.898 -0.2696  0.6983  0.6795
  448THF     H6 8167   2.120   3.951   2.014  1.2134  3.6379 -1.2289
  448THF     H7 8168   2.183   3.936   2.178 -2.7546  1.7729  1.5828
  448THF     C8 8169   2.315   4.047   2.030  0.7401  0.1562  0.1186
  448THF     C9 8170   2.377   3.996   1.898 -0.0631 -0.7717 -0.9740
  448THF    H10 8171   2.376   4.059   2.115  1.1500  2.7647 -0.0826
  448THF    H11 8172   2.259   4.142   2.019 -2.1870  0.1770  1.4228
  448THF    H12 8173   2.317   4.044   1.822  1.8293  0.6170 -0.7570
  448THF    H13 8174   2.487   4.020   1.888  0.8920 -1.7428 -0.2793
  449THF     O1 8175   0.305   1.565   1.238 -0.8200  0.0505  0.7004
  449THF     C2 8176   0.400   1.602   1.331 -1.0105  1.0385  0.6820
  449THF     C3 8177   0.246   1.682   1.178  0.3286 -0.4378 -0.3137
  449THF     H4 8178   0.483   1.530   1.338 -2.1365  1.6137  0.1306
  449THF     H5 8179   0.348   1.607   1.427 -0.6917 -0.2607 -0.1600
  449THF     H6 8180   0.239   1.683   1.066 -0.6323 -0.7284 -0.2254
  449THF     H7 8181   0.141   1.701   1.209 -1.7975 -0.8369  2.7952
  449THF     C8 8182   0.331   1.801   1.223 -0.8623  0.7694  0.2718
  449THF     C9 8183   0.452   1.734   1.287  0.1685  0.0124 -0.1375
  449THF    H10 8184   0.285   1.861   1.303  0.0753 -1.6969  1.0704
  449THF    H11 8185   0.356   1.869   1.140 -0.5258  1.9235  1.5888
  449THF    H12 8186   0.531   1.708   1.213  0.1961 -0.6580 -0.9171
  449THF    H13 8187   0.493   1.791   1.365 -0.5756 -0.6662  3.2442
  450THF     O1 8188   2.825   1.779   0.156 -0.0397  0.0404  0.4084
  450THF     C2 8189   2.714   1.693   0.140  0.3412  0.1411 -0.1342
  450THF     C3 8190   2.900   1.730   0.266  0.5379 -0.3757 -0.4564
  450THF     H4 8191   2.662   1.708   0.046  0.0987 -2.0156 -1.7876
  450THF     H5 8192   2.645   1.726   0.218 -0.8957 -2.3266 -0.9166
  450THF     H6 8193   2.995   1.779   0.282 -0.9250  1.3241  0.3316
  450THF     H7 8194   2.837   1.751   0.360  0.8018  0.1614  3.5160
  450THF     C8 8195   2.903   1.576   0.234  0.6951 -0.0181 -0.0743
  450THF     C9 8196   2.772   1.551   0.157 -0.1608 -0.9350  0.1184
  450THF    H10 8197   2.914   1.513   0.319  1.2143  1.9808 -0.8136
  450THF    H11 8198   2.989   1.565   0.169  0.8006  1.0666 -0.8025
  450THF    H12 8199   2.792   1.502   0.058  2.5001 -1.1236 -2.6293
  450THF    H13 8200   2.707   1.495   0.223  1.8047 -0.1471  1.1904
  451THF     O1 8201   2.907   5.493   2.561  0.4009  0.2179 -0.5094
  451THF     C2 8202   2.803   5.394   2.545 -0.1239 -0.8174  0.0287
  451THF     C3 8203   2.855   5.600   2.634  0.0458 -0.9791 -0.0467
  451THF     H4 8204   2.835   5.298   2.503 -0.4660 -3.8529 -0.6230
  451THF     H5 8205   2.720   5.428   2.479 -2.8002  2.9982  0.8441
  451THF     H6 8206   2.945   5.661   2.667 -0.3268 -5.5829  3.0586
  451THF     H7 8207   2.806   5.658   2.555  2.8799 -1.6878 -1.2941
  451THF     C8 8208   2.774   5.529   2.745 -0.3881 -0.0377 -0.4021
  451THF     C9 8209   2.747   5.385   2.692 -0.1705 -0.9298 -0.3156
  451THF    H10 8210   2.674   5.571   2.771 -1.6648  0.3632 -0.0159
  451THF    H11 8211   2.826   5.522   2.839 -1.0368  0.4602  1.5848
  451THF    H12 8212   2.805   5.311   2.745  1.3020 -0.7283 -1.2860
  451THF    H13 8213   2.645   5.361   2.706 -1.8080 -0.3338 -2.2562
  452THF     O1 8214   2.923   0.808   2.725 -0.0511 -0.5779 -0.1560
  452THF     C2 8215   2.840   0.818   2.612  0.1286  0.3110 -0.3678
  452THF     C3 8216   3.042   0.728   2.701 -0.0679  0.0116  0.3668
  452THF     H4 8217   2.794   0.910   2.600  1.4402 -0.8652  0.1833
  452THF     H5 8218   2.772   0.733   2.612 -0.9460 -0.7528 -1.0406
  452THF     H6 8219   3.122   0.751   2.777  0.3321  2.6163  1.3091
  452THF     H7 8220   3.014   0.623   2.706  0.9938 -1.9371  0.5667
  452THF     C8 8221   3.065   0.759   2.548  0.2814  0.1020  0.1101
  452THF     C9 8222   2.930   0.797   2.490 -0.5489 -1.1316 -0.6898
  452THF    H10 8223   3.118   0.678   2.497 -1.8382  0.1645  1.2081
  452THF    H11 8224   3.131   0.839   2.534 -2.3406  1.2664 -0.4755
  452THF    H12 8225   2.935   0.891   2.432  0.2812  0.0693  0.1741
  452THF    H13 8226   2.897   0.723   2.423 -0.9150  0.2390  1.2499
  453THF     O1 8227   2.568   2.372   1.804  0.2739  0.3364  0.1977
  453THF     C2 8228   2.481   2.364   1.687 -1.2969  0.1374 -0.4415
  453THF     C3 8229   2.494   2.443   1.900  0.3267  0.8154  0.0854
  453THF     H4 8230   2.516   2.283   1.616  0.8672  0.9984 -1.1868
  453THF     H5 8231   2.485   2.464   1.643 -1.5708 -1.5659  0.2914
  453THF     H6 8232   2.533   2.434   2.003 -1.6623  2.5340  0.8926
  453THF     H7 8233   2.485   2.545   1.874 -0.1957 -1.7637 -2.9083
  453THF     C8 8234   2.358   2.384   1.886  0.7805  0.1811  0.0010
  453THF     C9 8235   2.342   2.351   1.738  0.0595  0.2024  0.4508
  453THF    H10 8236   2.287   2.456   1.923  1.0562 -0.9560 -1.6627
  453THF    H11 8237   2.358   2.289   1.942 -1.8723 -0.5760  0.1273
  453THF    H12 8238   2.305   2.258   1.703 -0.5696  1.1870  0.4704
  453THF    H13 8239   2.280   2.428   1.686  0.5988  2.0880 -0.4297
  454THF     O1 8240   0.110   0.771   5.486  0.2287  0.2045  0.6169
  454THF     C2 8241   0.082   0.705   5.609  0.0438 -0.3553  0.1388
  454THF     C3 8242   0.224   0.854   5.519  0.1606 -0.1329 -0.2344
  454THF     H4 8243   0.161   0.634   5.638  0.7374  0.9222  0.2748
  454THF     H5 8244  -0.013   0.656   5.605 -0.0837 -2.4217  0.2521
  454THF     H6 8245   0.321   0.799   5.495  0.8061  0.0199  0.6824
  454THF     H7 8246   0.210   0.942   5.455 -2.9702 -0.2805  0.2463
  454THF     C8 8247   0.222   0.892   5.668  1.0312 -0.2655  1.1490
  454THF     C9 8248   0.089   0.832   5.706 -0.3027  0.3988 -0.2855
  454THF    H10 8249   0.229   1.004   5.670 -0.0710 -0.9710 -2.3964
  454THF    H11 8250   0.299   0.842   5.717  0.1348  1.6051  1.2062
  454THF    H12 8251   0.084   0.806   5.807  2.5718  0.4493  1.6965
  454THF    H13 8252   0.006   0.894   5.690  1.4327 -2.3442 -0.6590
  455THF     O1 8253   1.291   5.051   0.172 -0.0380 -0.3995  0.4617
  455THF     C2 8254   1.257   4.930   0.111 -0.6348 -0.0097 -0.0011
  455THF     C3 8255   1.169   5.133   0.197  0.0238 -0.0804  0.7449
  455THF     H4 8256   1.233   4.874   0.204  0.9574  1.2476 -3.6733
  455THF     H5 8257   1.327   4.870   0.058  0.4785  2.7506  0.9342
  455THF     H6 8258   1.117   5.104   0.284 -0.5447  2.0658 -1.2940
  455THF     H7 8259   1.183   5.244   0.201 -0.3455  1.6225 -0.8017
  455THF     C8 8260   1.092   5.100   0.072  0.5644 -0.4395  1.0166
  455THF     C9 8261   1.123   4.957   0.040  0.3072  1.2874 -0.6205
  455THF    H10 8262   1.118   5.168  -0.014  2.3640  0.5187 -1.3582
  455THF    H11 8263   0.988   5.121   0.081  1.4374 -0.1121 -1.8814
  455THF    H12 8264   1.051   4.882   0.064 -0.4087  0.6000  1.3417
  455THF    H13 8265   1.126   4.932  -0.072  1.9969 -1.0591 -0.8194
  456THF     O1 8266   0.838   1.440   4.056  0.7534 -0.0313  0.2733
  456THF     C2 8267   0.818   1.313   4.001 -0.8557 -0.4899 -0.2715
  456THF     C3 8268   0.865   1.424   4.201  0.2101 -0.2677  0.6889
  456THF     H4 8269   0.837   1.316   3.893 -0.9708  0.8729  1.1517
  456THF     H5 8270   0.716   1.288   4.025  2.2267 -1.3351  0.3637
  456THF     H6 8271   0.901   1.527   4.232 -1.1198 -0.1327 -0.4356
  456THF     H7 8272   0.778   1.386   4.260 -3.4104 -1.7914  1.8622
  456THF     C8 8273   0.970   1.313   4.191  0.2143 -0.2738 -0.0994
  456THF     C9 8274   0.916   1.227   4.079  0.5083  0.3080  0.1133
  456THF    H10 8275   0.992   1.262   4.285 -3.2842  1.2049 -3.0029
  456THF    H11 8276   1.059   1.358   4.149  0.6179 -1.2080 -2.2510
  456THF    H12 8277   1.004   1.202   4.027 -2.0410  3.6146  0.4989
  456THF    H13 8278   0.865   1.140   4.120 -1.7498  1.4223 -0.9376
  457THF     O1 8279   2.250   0.018   1.854 -0.3579 -0.2316 -0.0816
  457THF     C2 8280   2.219  -0.118   1.809  0.2108 -0.3606  0.2248
  457THF     C3 8281   2.135   0.087   1.897 -0.3344 -0.7050  0.1324
  457THF     H4 8282   2.308  -0.190   1.803 -2.2890 -1.1624 -3.3241
  457THF     H5 8283   2.175  -0.124   1.708  0.7494  2.2937 -0.6077
  457THF     H6 8284   2.175   0.140   1.987 -0.1291  1.4574 -0.0571
  457THF     H7 8285   2.102   0.151   1.816 -0.9207 -1.6844 -1.3643
  457THF     C8 8286   2.025  -0.023   1.922  0.6221  0.4245 -0.3010
  457THF     C9 8287   2.103  -0.152   1.901 -0.1066 -0.0331  0.3154
  457THF    H10 8288   1.943  -0.006   1.854  3.3392  0.4033 -1.1095
  457THF    H11 8289   1.989  -0.029   2.022  0.3682  2.4977 -0.0390
  457THF    H12 8290   2.152  -0.187   1.994 -1.7180  2.1233 -0.7973
  457THF    H13 8291   2.041  -0.236   1.874  3.7729  0.1760 -1.1515
  458THF     O1 8292   0.702   1.984   2.159  0.7329  0.3689 -0.3812
  458THF     C2 8293   0.788   2.013   2.269 -0.3554 -0.3724 -0.4364
  458THF     C3 8294   0.743   1.869   2.092 -0.0505 -0.3091  0.1808
  458THF     H4 8295   0.751   1.967   2.364 -1.3502 -0.6432  0.5316
  458THF     H5 8296   0.804   2.117   2.289  0.4938 -0.9036 -0.5498
  458THF     H6 8297   0.667   1.787   2.110 -0.0868  1.3200  4.0571
  458THF     H7 8298   0.747   1.909   1.988 -0.7675 -3.5672 -2.0984
  458THF     C8 8299   0.892   1.834   2.132  0.2347  0.5909  0.0975
  458THF     C9 8300   0.923   1.948   2.235  0.5286 -0.0162 -0.8030
  458THF    H10 8301   0.955   1.830   2.044 -4.4154 -2.7836  1.7540
  458THF    H11 8302   0.894   1.732   2.177 -0.4948 -1.3060 -1.6135
  458THF    H12 8303   0.978   1.928   2.330 -0.0628  1.4062  0.6900
  458THF    H13 8304   0.979   2.029   2.199 -1.2915  1.9915 -1.3787
  459THF     O1 8305   1.637   0.606   5.396  0.0641 -0.3569 -0.1931
  459THF     C2 8306   1.654   0.746   5.401  0.2290  0.2665  0.0861
  459THF     C3 8307   1.521   0.569   5.318  0.5482 -0.5702  0.5029
  459THF     H4 8308   1.702   0.784   5.311  3.0701 -0.9726 -2.6928
  459THF     H5 8309   1.714   0.775   5.485 -3.2427 -2.5609  1.1980
  459THF     H6 8310   1.539   0.535   5.217  1.2214 -0.1380  0.8832
  459THF     H7 8311   1.446   0.506   5.365 -1.2305 -1.0735  2.9426
  459THF     C8 8312   1.445   0.700   5.305  0.2141 -0.1214 -0.3987
  459THF     C9 8313   1.508   0.794   5.401 -0.2644 -0.3790 -0.3987
  459THF    H10 8314   1.334   0.696   5.315 -1.1352 -0.6544  0.4889
  459THF    H11 8315   1.472   0.742   5.205 -0.5022  0.5950 -2.3799
  459THF    H12 8316   1.492   0.895   5.370  0.7223  0.3421 -1.4850
  459THF    H13 8317   1.468   0.793   5.510 -2.4089  1.8795  0.6699
  460THF     O1 8318   3.694   1.306   3.948  0.3713 -0.2138  0.0427
  460THF     C2 8319   3.572   1.329   3.885  0.1957  0.5369  0.3844
  460THF     C3 8320   3.769   1.435   3.965  0.2712 -0.1327 -0.0971
  460THF     H4 8321   3.494   1.344   3.957  1.9494 -2.3722  0.0755
  460THF     H5 8322   3.546   1.247   3.825  0.8692  2.1788  1.2971
  460THF     H6 8323   3.772   1.460   4.070 -1.5798 -0.7387  0.7159
  460THF     H7 8324   3.869   1.429   3.921  0.3157  1.5854 -1.7634
  460THF     C8 8325   3.683   1.530   3.890 -0.1520  0.5366 -0.4782
  460THF     C9 8326   3.591   1.452   3.804  0.2957  0.3340  0.0558
  460THF    H10 8327   3.741   1.601   3.834 -0.0474 -1.0825 -0.8336
  460THF    H11 8328   3.622   1.574   3.968 -2.1419 -0.2963  2.6787
  460THF    H12 8329   3.491   1.501   3.775  1.2717  2.4224 -0.4429
  460THF    H13 8330   3.638   1.419   3.714  0.3455  0.1255  1.4773
  461THF     O1 8331   2.122   1.791   4.594 -0.4811 -0.4544 -0.1317
  461THF     C2 8332   2.238   1.718   4.624  0.2130  0.4277  0.8289
  461THF     C3 8333   2.073   1.750   4.467 -0.4580  0.0624  0.2056
  461THF     H4 8334   2.263   1.705   4.723 -0.4544 -1.3807 -0.2274
  461THF     H5 8335   2.324   1.770   4.577  2.3326 -0.4774 -1.6244
  461THF     H6 8336   1.975   1.791   4.461  2.3736 -0.2150  0.3463
  461THF     H7 8337   2.133   1.774   4.380 -0.2790  1.9129 -1.5201
  461THF     C8 8338   2.079   1.602   4.479  0.0298 -0.2150 -0.1206
  461THF     C9 8339   2.214   1.587   4.545  0.6247 -0.4110  0.2105
  461THF    H10 8340   2.070   1.560   4.380 -0.0181 -3.1533 -2.6341
  461THF    H11 8341   2.002   1.555   4.543 -2.7907 -0.0558 -1.2119
  461THF    H12 8342   2.209   1.509   4.617  2.0500  1.3895  0.2995
  461THF    H13 8343   2.289   1.570   4.473 -0.5745 -4.2879  0.3736
  462THF     O1 8344   2.674   1.967   0.814  0.4625  0.3664 -0.4213
  462THF     C2 8345   2.740   1.848   0.767  0.4652 -0.4822 -0.3626
  462THF     C3 8346   2.675   2.057   0.708  0.0814  0.4165  0.3040
  462THF     H4 8347   2.665   1.781   0.724 -0.9509  0.9907  3.6033
  462THF     H5 8348   2.785   1.786   0.847 -1.0607 -0.7855  2.8488
  462THF     H6 8349   2.570   2.070   0.666  1.3707  1.0095  2.7112
  462THF     H7 8350   2.711   2.154   0.750  0.4805  0.7174  0.9985
  462THF     C8 8351   2.770   2.009   0.598  0.1845  0.1433 -0.5854
  462THF     C9 8352   2.840   1.886   0.659  1.1483 -0.3471 -0.2412
  462THF    H10 8353   2.844   2.078   0.561 -2.3543  0.1244  0.8243
  462THF    H11 8354   2.703   1.991   0.513 -0.5977  0.0454 -0.8895
  462THF    H12 8355   2.854   1.814   0.582 -1.3280 -0.5360 -0.7536
  462THF    H13 8356   2.925   1.921   0.722  3.5252  0.4812  0.8289
  463THF     O1 8357   3.635   3.768   1.250 -0.8422 -0.6983 -0.2900
  463THF     C2 8358   3.715   3.788   1.367 -0.1867 -0.5633 -0.0823
  463THF     C3 8359   3.616   3.625   1.261  0.7221  0.7309  0.2460
  463THF     H4 8360   3.649   3.788   1.446  3.7644  1.3047 -1.3336
  463THF     H5 8361   3.777   3.879   1.355 -0.0969 -2.2777  0.6086
  463THF     H6 8362   3.525   3.621   1.328 -1.0641 -0.1917  0.3533
  463THF     H7 8363   3.599   3.588   1.161  0.0775 -1.4171 -2.2031
  463THF     C8 8364   3.747   3.573   1.322 -0.0560 -0.1476 -0.2040
  463THF     C9 8365   3.821   3.686   1.368 -0.1585  0.5469 -1.4309
  463THF    H10 8366   3.811   3.534   1.240  0.9332  0.7613 -1.4878
  463THF    H11 8367   3.742   3.492   1.390  0.1873  1.9514 -1.0010
  463THF    H12 8368   3.874   3.688   1.466 -0.8267 -0.0993  0.0565
  463THF    H13 8369   3.888   3.711   1.297 -0.8858 -0.5871  2.2617
  464THF     O1 8370   3.795   1.432   3.501 -0.1176  0.1880 -0.3263
  464THF     C2 8371   3.862   1.559   3.513 -0.1767 -0.1778 -0.6094
  464THF     C3 8372   3.900   1.353   3.437 -0.1204  0.1916  0.4274
  464THF     H4 8373   3.935   1.542   3.586  0.7654  2.8842 -0.5672
  464THF     H5 8374   3.785   1.629   3.540  0.1080 -0.3304 -0.8731
  464THF     H6 8375   3.970   1.316   3.507  0.1942  1.9830  1.9572
  464THF     H7 8376   3.855   1.267   3.397 -4.6157  1.2185  1.8249
  464THF     C8 8377   3.963   1.453   3.333  0.1082  0.6866 -0.8809
  464THF     C9 8378   3.931   1.592   3.381 -0.1549  0.4051 -0.2536
  464THF    H10 8379   3.926   1.422   3.236  0.5468  1.3443 -0.3498
  464THF    H11 8380   4.072   1.446   3.337 -2.3964  2.1942 -2.1667
  464THF    H12 8381   4.020   1.650   3.405  1.1112 -1.0752 -0.4652
  464THF    H13 8382   3.868   1.643   3.311 -0.1922  0.9064 -0.9523
  465THF     O1 8383   4.755   3.615   1.135 -0.4367 -0.3118 -0.0922
  465THF     C2 8384   4.628   3.675   1.150  0.1752  0.4686 -0.4242
  465THF     C3 8385   4.759   3.548   1.009  0.0373  0.0756 -0.5686
  465THF     H4 8386   4.662   3.775   1.187  2.2183  0.2864  1.7217
  465THF     H5 8387   4.560   3.621   1.216 -0.3138 -2.0387  0.6670
  465THF     H6 8388   4.864   3.536   0.978 -0.6560 -0.2517 -3.8699
  465THF     H7 8389   4.724   3.445   1.010 -0.7635  2.4058 -0.2625
  465THF     C8 8390   4.676   3.629   0.915 -0.7820 -0.0607 -0.3004
  465THF     C9 8391   4.567   3.677   1.004 -1.4020  0.0323 -0.3129
  465THF    H10 8392   4.640   3.583   0.824 -2.6174  1.3024  0.0822
  465THF    H11 8393   4.732   3.720   0.887 -1.9138 -0.4896  1.1910
  465THF    H12 8394   4.541   3.775   0.963  2.5877 -2.9785 -0.4554
  465THF    H13 8395   4.475   3.611   1.002 -1.0002 -1.9410  0.5869
  466THF     O1 8396   3.636   2.205   0.192  0.0190  0.1304  0.0817
  466THF     C2 8397   3.592   2.125   0.301 -0.8468  0.2039  0.2524
  466THF     C3 8398   3.758   2.268   0.238 -0.0523  0.1403  0.2542
  466THF     H4 8399   3.633   2.026   0.288  1.6212 -0.9879 -0.5471
  466THF     H5 8400   3.486   2.113   0.288 -0.1009  0.9210 -2.8555
  466THF     H6 8401   3.849   2.210   0.227  0.5694 -1.1831 -0.3078
  466THF     H7 8402   3.785   2.353   0.178  3.4018 -1.9194  2.4960
  466THF     C8 8403   3.739   2.307   0.385  0.2454 -0.2663  0.4977
  466THF     C9 8404   3.627   2.212   0.428 -0.5563  0.2704  0.3585
  466THF    H10 8405   3.718   2.415   0.391  0.7347 -2.4138 -1.9194
  466THF    H11 8406   3.828   2.283   0.441  1.4290  2.3659  1.4727
  466THF    H12 8407   3.672   2.157   0.510  2.2311 -0.1175 -0.0753
  466THF    H13 8408   3.538   2.263   0.459  2.0359  1.3107 -2.0545
  467THF     O1 8409   2.043   4.011   4.308  0.2556 -0.0750  0.5681
  467THF     C2 8410   2.173   4.067   4.285  0.3743  0.1847 -0.4869
  467THF     C3 8411   2.061   3.875   4.335  0.0469 -0.3269  0.2963
  467THF     H4 8412   2.229   4.082   4.374  1.9485 -0.7979 -2.3158
  467THF     H5 8413   2.158   4.159   4.231 -1.3255  1.6842  2.6101
  467THF     H6 8414   2.090   3.856   4.434  0.6186 -1.0842 -1.8431
  467THF     H7 8415   1.974   3.815   4.317 -0.5346 -1.4747 -0.0326
  467THF     C8 8416   2.182   3.828   4.255 -0.2217  0.9079 -0.4050
  467THF     C9 8417   2.234   3.958   4.195 -0.4591 -0.3759  0.6863
  467THF    H10 8418   2.153   3.753   4.183  1.4958 -1.6077 -0.9014
  467THF    H11 8419   2.252   3.777   4.324  2.4131  2.9216 -0.2066
  467THF    H12 8420   2.340   3.972   4.190 -0.3987  1.4897  0.1110
  467THF    H13 8421   2.203   3.967   4.093  0.8740  0.9322  0.3716
  468THF     O1 8422   3.258   4.563   5.202 -0.2649 -0.0366 -0.5191
  468THF     C2 8423   3.290   4.491   5.328  0.2100  0.1908 -0.0412
  468THF     C3 8424   3.369   4.630   5.156 -0.3239  0.1024  0.0373
  468THF     H4 8425   3.219   4.409   5.322  0.9573 -0.2404  1.7735
  468THF     H5 8426   3.272   4.558   5.415  1.9036 -1.8989  1.6511
  468THF     H6 8427   3.342   4.664   5.052 -4.0118  0.9011  0.8769
  468THF     H7 8428   3.367   4.716   5.220  0.0145  0.0560  0.4894
  468THF     C8 8429   3.486   4.538   5.184  0.1426  0.7298 -0.8454
  468THF     C9 8430   3.433   4.450   5.303 -0.6523  0.3030 -0.4100
  468THF    H10 8431   3.570   4.601   5.220  1.3758 -1.5212 -2.9521
  468THF    H11 8432   3.527   4.479   5.099  1.5669  0.5046 -0.2418
  468THF    H12 8433   3.433   4.349   5.262  1.2308  0.0611 -1.0552
  468THF    H13 8434   3.508   4.438   5.383 -0.8233 -0.9937 -0.2065
  469THF     O1 8435   1.167   2.610   4.063 -0.2135  0.3267  0.2632
  469THF     C2 8436   1.150   2.503   4.150  0.6447  0.2471  0.6717
  469THF     C3 8437   1.235   2.713   4.133  0.1782  0.0720  0.4570
  469THF     H4 8438   1.153   2.422   4.071  0.7508 -1.1376 -1.5082
  469THF     H5 8439   1.056   2.507   4.214  2.6033 -1.9703 -2.0064
  469THF     H6 8440   1.290   2.777   4.062  2.0423 -2.6722  0.1649
  469THF     H7 8441   1.181   2.781   4.204  2.4050 -1.1689  0.1287
  469THF     C8 8442   1.331   2.643   4.215  0.7427 -0.3404  0.2020
  469THF     C9 8443   1.267   2.508   4.241 -0.3074  0.2828  0.0994
  469THF    H10 8444   1.359   2.692   4.308 -1.4161  0.3750  0.4950
  469THF    H11 8445   1.417   2.636   4.150 -1.3558 -0.7453 -2.4553
  469THF    H12 8446   1.329   2.421   4.222 -0.5779  1.4725  2.3036
  469THF    H13 8447   1.232   2.488   4.343 -1.9565 -0.3761  0.8327
  470THF     O1 8448   1.233   1.403   0.630  0.1053  0.9533  0.0388
  470THF     C2 8449   1.194   1.280   0.685 -0.2786 -0.6078 -1.2004
  470THF     C3 8450   1.207   1.502   0.728 -0.7570  0.3716 -0.1007
  470THF     H4 8451   1.284   1.234   0.726  0.2052 -2.3404  2.0522
  470THF     H5 8452   1.164   1.212   0.606 -1.5489  0.2806  0.5779
  470THF     H6 8453   1.282   1.494   0.811  1.3749  2.4289  2.2683
  470THF     H7 8454   1.183   1.593   0.680  0.2239 -5.3043 -0.0843
  470THF     C8 8455   1.084   1.455   0.794 -0.2504  0.3503 -0.4226
  470THF     C9 8456   1.089   1.303   0.794  0.7005  0.2780  0.6615
  470THF    H10 8457   0.992   1.498   0.749 -2.1451 -2.3192 -1.7964
  470THF    H11 8458   1.084   1.492   0.901  0.1082  1.4316 -1.0833
  470THF    H12 8459   1.120   1.274   0.902 -1.2785 -1.0231  1.7799
  470THF    H13 8460   0.993   1.258   0.769  0.0047  0.1405 -0.9900
  471THF     O1 8461   5.191   5.236   5.475 -0.2916 -0.3934  0.0662
  471THF     C2 8462   5.055   5.218   5.436  0.2083 -0.7200  0.1095
  471THF     C3 8463   5.217   5.355   5.541 -0.2406  0.1068  0.2056
  471THF     H4 8464   5.020   5.148   5.509 -0.7480 -1.8041 -0.9973
  471THF     H5 8465   5.040   5.168   5.338 -0.6261  0.9292 -0.4285
  471THF     H6 8466   5.181   5.335   5.639  1.7746 -0.6389 -0.9823
  471THF     H7 8467   5.319   5.386   5.531  0.1468  0.9224 -0.6342
  471THF     C8 8468   5.115   5.447   5.468  0.2065  0.0155 -0.5627
  471THF     C9 8469   4.992   5.362   5.442  0.3616 -0.4895 -0.3205
  471THF    H10 8470   5.161   5.479   5.371  0.4926  0.0719  0.9938
  471THF    H11 8471   5.101   5.535   5.534 -1.0524  1.9301 -1.3650
  471THF    H12 8472   4.914   5.366   5.516  1.4165  1.3326 -0.8667
  471THF    H13 8473   4.939   5.394   5.356  3.2755  1.6585  1.6725
  472THF     O1 8474   1.668   5.206   3.870 -0.0451 -0.5326 -0.5268
  472THF     C2 8475   1.651   5.287   3.983 -0.1036 -0.1779 -0.4411
  472THF     C3 8476   1.584   5.257   3.764  0.9093  0.0835  0.0777
  472THF     H4 8477   1.735   5.286   4.053  1.4137  0.1466  1.1734
  472THF     H5 8478   1.569   5.250   4.040  2.1028 -2.5338  1.2094
  472THF     H6 8479   1.612   5.226   3.666  2.2096 -2.3247 -0.7400
  472THF     H7 8480   1.485   5.224   3.782  0.2169  2.3115 -2.1850
  472THF     C8 8481   1.605   5.408   3.776 -0.8324  0.6905 -0.0503
  472THF     C9 8482   1.607   5.426   3.928  0.0987  0.6351 -0.6932
  472THF    H10 8483   1.525   5.464   3.730  0.5498 -0.6021  1.5725
  472THF    H11 8484   1.701   5.434   3.725  1.1964  0.2190 -0.4626
  472THF    H12 8485   1.677   5.502   3.958 -1.6293 -0.7854  3.5148
  472THF    H13 8486   1.510   5.458   3.965  2.8924  0.6816 -0.7188
  473THF     O1 8487   4.008   4.384   1.175  0.0617 -0.2004  0.5923
  473THF     C2 8488   3.897   4.426   1.102  0.3516 -0.2502  0.5480
  473THF     C3 8489   4.042   4.254   1.121 -0.1563 -0.2488  0.0670
  473THF     H4 8490   3.882   4.538   1.120 -1.1087  3.1339  1.3504
  473THF     H5 8491   3.812   4.369   1.130  2.8042  1.1247 -0.0200
  473THF     H6 8492   4.146   4.227   1.146  1.9233 -0.8338  2.7871
  473THF     H7 8493   3.975   4.178   1.158 -1.6440 -1.0935  1.6577
  473THF     C8 8494   4.023   4.265   0.973  1.0788 -0.2938  0.2358
  473THF     C9 8495   3.943   4.400   0.963  0.3857 -0.9079  0.3054
  473THF    H10 8496   3.964   4.181   0.938 -1.7885  0.2323  0.1750
  473THF    H11 8497   4.116   4.274   0.916 -1.3123 -2.0056 -3.0436
  473THF    H12 8498   3.991   4.493   0.932  2.1900 -0.5365 -1.4072
  473THF    H13 8499   3.866   4.382   0.885 -1.1484 -0.3535 -0.3682
  474THF     O1 8500   0.359   4.000   5.388  1.1386  0.2079  0.5194
  474THF     C2 8501   0.302   4.131   5.383  0.0138  0.1026 -0.3507
  474THF     C3 8502   0.500   4.009   5.373  0.1342  0.0829  0.1368
  474THF     H4 8503   0.204   4.146   5.418  2.3105  0.6983 -0.5878
  474THF     H5 8504   0.303   4.155   5.284 -0.5360 -0.9642  2.4385
  474THF     H6 8505   0.550   3.920   5.415  0.4748  0.3692  0.1179
  474THF     H7 8506   0.523   3.998   5.268 -0.7312 -0.8894 -0.7819
  474THF     C8 8507   0.540   4.143   5.440 -0.3932  0.2494  1.0786
  474THF     C9 8508   0.406   4.215   5.460 -0.4731  0.2783  0.1212
  474THF    H10 8509   0.623   4.182   5.386 -0.4553  0.8997 -0.6072
  474THF    H11 8510   0.578   4.122   5.540 -1.2178  1.5946 -1.2419
  474THF    H12 8511   0.378   4.224   5.564 -2.6587  1.7275 -0.3658
  474THF    H13 8512   0.417   4.315   5.418  3.3382 -5.7440 -0.0364
  475THF     O1 8513   0.187   1.634   4.902 -0.0841 -0.4146 -0.1256
  475THF     C2 8514   0.214   1.580   5.032  0.8774 -0.3871 -0.2472
  475THF     C3 8515   0.274   1.740   4.902 -1.0874  0.1025 -0.0288
  475THF     H4 8516   0.174   1.482   5.032 -1.4959  0.4241 -0.8535
  475THF     H5 8517   0.171   1.638   5.116 -1.6323  2.5436  1.1128
  475THF     H6 8518   0.270   1.784   4.798  0.1439  3.0844 -0.4608
  475THF     H7 8519   0.238   1.827   4.959  0.3071  3.4871 -1.8712
  475THF     C8 8520   0.406   1.694   4.955  0.3483 -0.0626 -0.7666
  475THF     C9 8521   0.366   1.570   5.038  0.1015  0.2339  0.4187
  475THF    H10 8522   0.453   1.781   5.011  0.8748 -0.2184 -1.2455
  475THF    H11 8523   0.477   1.668   4.876 -0.7610  2.1753  0.2662
  475THF    H12 8524   0.403   1.480   4.984 -1.3025  0.3840 -0.5640
  475THF    H13 8525   0.412   1.562   5.139  1.0181  0.9138  0.5467
  476THF     O1 8526   0.739   0.318   3.399  0.4558  0.1958  0.1009
  476THF     C2 8527   0.688   0.417   3.494 -0.6919 -0.9505  0.8163
  476THF     C3 8528   0.806   0.389   3.299 -0.3291  0.4907  0.4836
  476THF     H4 8529   0.774   0.454   3.556  1.7882  1.1991 -0.8673
  476THF     H5 8530   0.614   0.382   3.553  1.1379  1.0652  1.3626
  476THF     H6 8531   0.910   0.399   3.334  2.0294  1.3747 -1.0154
  476THF     H7 8532   0.807   0.332   3.200 -3.5969  2.5362 -1.5908
  476THF     C8 8533   0.742   0.532   3.291  0.2836  0.5339  0.3769
  476THF     C9 8534   0.632   0.523   3.398 -0.2972  0.2011  0.0080
  476THF    H10 8535   0.694   0.553   3.185  0.3714  0.2710 -1.5846
  476THF    H11 8536   0.820   0.606   3.316  1.2091  0.4346 -2.5036
  476THF    H12 8537   0.607   0.621   3.447 -1.3654  0.6927  2.4476
  476THF    H13 8538   0.532   0.487   3.359  0.9164 -0.2362 -0.0546
  477THF     O1 8539   1.734   1.055   2.927  0.3864  0.6236  0.2427
  477THF     C2 8540   1.758   1.004   2.795  0.4286  0.0279 -0.6193
  477THF     C3 8541   1.844   1.138   2.959 -0.4504 -0.1165 -0.1246
  477THF     H4 8542   1.726   1.083   2.726 -2.3994  1.2759 -2.8977
  477THF     H5 8543   1.700   0.919   2.773  1.0677 -1.1269  1.0092
  477THF     H6 8544   1.819   1.237   2.915 -2.2155  0.2288 -0.9221
  477THF     H7 8545   1.875   1.152   3.065 -2.5282 -1.7893  2.1321
  477THF     C8 8546   1.963   1.075   2.894  0.6722  0.1772 -0.0433
  477THF     C9 8547   1.905   0.960   2.809  0.1366 -0.2709  0.3470
  477THF    H10 8548   2.049   1.052   2.955  0.5216  0.7599  0.4673
  477THF    H11 8549   1.992   1.150   2.826 -0.4172 -2.3788 -1.5029
  477THF    H12 8550   1.949   0.950   2.717  1.3921  2.0426 -0.7301
  477THF    H13 8551   1.924   0.857   2.846  0.8271  0.6347  0.6345
  478THF     O1 8552   2.759   2.505   0.183  0.4642 -0.0372 -0.2909
  478THF     C2 8553   2.805   2.503   0.320  0.3661  0.2369  0.2595
  478THF     C3 8554   2.701   2.377   0.170  0.2674  0.0527  0.5157
  478THF     H4 8555   2.724   2.540   0.384  0.8513 -0.6411 -0.1063
  478THF     H5 8556   2.894   2.565   0.314 -0.6744 -0.7790 -1.0855
  478THF     H6 8557   2.598   2.378   0.219 -0.9198 -0.6255  2.2748
  478THF     H7 8558   2.676   2.369   0.064 -0.5425  1.6524  0.0224
  478THF     C8 8559   2.810   2.287   0.224 -0.5214  0.4178 -0.5484
  478THF     C9 8560   2.847   2.359   0.350  0.4960  0.6456 -0.0469
  478THF    H10 8561   2.893   2.282   0.159 -1.5828  0.8484 -1.9611
  478THF    H11 8562   2.784   2.179   0.245 -0.3763 -1.2386 -0.8982
  478THF    H12 8563   2.786   2.315   0.431 -0.6385 -0.6335  1.7319
  478THF    H13 8564   2.956   2.350   0.374  0.1545 -2.2911  0.6428
  479THF     O1 8565   0.270   2.572   3.531  0.0274  0.8077 -0.2282
  479THF     C2 8566   0.265   2.580   3.388 -0.2653  0.2819 -0.8370
  479THF     C3 8567   0.203   2.684   3.577  0.4884  0.1385  0.0626
  479THF     H4 8568   0.167   2.554   3.341 -1.0920  0.5048 -0.8523
  479THF     H5 8569   0.330   2.507   3.344 -0.7312  1.2802 -3.1804
  479THF     H6 8570   0.093   2.676   3.569 -0.0918  1.8221  0.1775
  479THF     H7 8571   0.241   2.709   3.674 -0.7194 -2.1837  0.7709
  479THF     C8 8572   0.239   2.800   3.475 -0.4998  0.1889 -0.2292
  479THF     C9 8573   0.295   2.722   3.357 -0.3318 -1.0434 -0.0962
  479THF    H10 8574   0.318   2.859   3.517  2.0139  0.3707 -1.3754
  479THF    H11 8575   0.154   2.859   3.443  1.7768  1.0375 -0.6303
  479THF    H12 8576   0.250   2.752   3.262 -2.2120  0.7863 -1.3332
  479THF    H13 8577   0.400   2.742   3.353  1.9219 -1.0083  0.7577
  480THF     O1 8578   0.450   3.478   4.914  0.1398  0.4298  0.4970
  480THF     C2 8579   0.384   3.503   4.790 -0.7681  0.1142 -0.6943
  480THF     C3 8580   0.583   3.431   4.896 -0.5311  0.4585  0.4984
  480THF     H4 8581   0.369   3.614   4.767  0.5980 -0.5303 -0.8514
  480THF     H5 8582   0.287   3.448   4.785  0.1214  0.5326 -4.3649
  480THF     H6 8583   0.653   3.514   4.883  0.7962  0.4748  1.4273
  480THF     H7 8584   0.620   3.359   4.968 -0.5590 -2.4814 -0.3207
  480THF     C8 8585   0.574   3.362   4.762 -0.1014 -0.0573  0.6994
  480THF     C9 8586   0.476   3.450   4.685 -0.0329  0.0622 -0.4326
  480THF    H10 8587   0.529   3.258   4.771 -0.7594  2.0073 -0.4908
  480THF    H11 8588   0.667   3.349   4.705  0.0013 -1.8577  2.2004
  480THF    H12 8589   0.534   3.524   4.628  0.5386  0.2844 -1.2764
  480THF    H13 8590   0.432   3.395   4.605  1.3647  0.9291  0.4802
  481THF     O1 8591   2.007   1.369   4.901  0.1059 -0.4537  0.2990
  481THF     C2 8592   1.931   1.363   5.019 -0.3581 -0.2761  0.3001
  481THF     C3 8593   2.132   1.425   4.918  0.2884  0.7597  0.2919
  481THF     H4 8594   1.886   1.265   5.032  0.9785  0.9945 -0.1696
  481THF     H5 8595   1.850   1.437   5.015 -0.1828  0.7647 -1.6298
  481THF     H6 8596   2.211   1.382   4.849 -0.9211 -0.7083  2.6275
  481THF     H7 8597   2.131   1.528   4.886 -2.0683 -0.8319 -0.6076
  481THF     C8 8598   2.165   1.412   5.064 -0.2293  0.0769 -0.5824
  481THF     C9 8599   2.026   1.404   5.132  0.0167  0.5515 -0.3342
  481THF    H10 8600   2.234   1.490   5.095  0.3743  2.5724  1.1524
  481THF    H11 8601   2.225   1.321   5.080  0.0030 -0.4252  0.4035
  481THF    H12 8602   2.023   1.333   5.209  0.8577  2.1821 -0.0948
  481THF    H13 8603   1.993   1.496   5.177  0.6800  0.6922 -1.0424
  482THF     O1 8604   0.641   4.462   4.483 -0.0888 -0.0865 -0.3529
  482THF     C2 8605   0.718   4.585   4.476 -0.0694 -0.0641  0.4256
  482THF     C3 8606   0.657   4.403   4.608  0.2409 -0.0089  0.2444
  482THF     H4 8607   0.648   4.668   4.468 -0.3302 -0.5890 -0.3884
  482THF     H5 8608   0.788   4.583   4.391 -1.3791 -0.3111  1.0316
  482THF     H6 8609   0.559   4.346   4.634 -0.1502 -1.4845  1.3277
  482THF     H7 8610   0.748   4.335   4.602  0.9984  0.1564 -1.5814
  482THF     C8 8611   0.671   4.523   4.696  0.1066  0.2192 -0.0054
  482THF     C9 8612   0.784   4.599   4.612  0.3615  0.4808 -0.4884
  482THF    H10 8613   0.707   4.500   4.796  1.9019 -0.3486  0.6438
  482THF    H11 8614   0.570   4.574   4.704 -1.1672  1.5829 -1.2682
  482THF    H12 8615   0.803   4.699   4.653 -0.3331 -1.5323 -0.2874
  482THF    H13 8616   0.874   4.536   4.610  0.1737  0.8426 -1.5272
  483THF     O1 8617   4.142   3.698   1.820 -0.3447 -0.0335  0.2961
  483THF     C2 8618   4.241   3.650   1.727  0.2323 -0.4320 -0.4730
  483THF     C3 8619   4.196   3.813   1.892  0.3866 -1.1739  0.6658
  483THF     H4 8620   4.231   3.717   1.636  1.8993  2.5213 -0.1187
  483THF     H5 8621   4.227   3.548   1.693 -0.0611  2.4458  2.2904
  483THF     H6 8622   4.162   3.910   1.847 -1.1789  0.1700  1.4158
  483THF     H7 8623   4.176   3.800   2.000 -0.6534  1.0704  0.7226
  483THF     C8 8624   4.347   3.800   1.861 -0.0866  0.1006  0.3306
  483THF     C9 8625   4.375   3.667   1.793  0.3472  0.0095  0.0850
  483THF    H10 8626   4.412   3.805   1.949  0.8596 -1.2125  0.3565
  483THF    H11 8627   4.369   3.886   1.801 -1.9906 -0.8361 -1.9890
  483THF    H12 8628   4.450   3.663   1.707 -1.9813 -1.8174 -1.4300
  483THF    H13 8629   4.399   3.583   1.855 -1.0797  0.1362  1.0324
  484THF     O1 8630   2.262   2.615   3.166 -0.2154 -0.9306  0.0833
  484THF     C2 8631   2.157   2.535   3.124  0.4902  0.4220 -0.2032
  484THF     C3 8632   2.232   2.748   3.130  0.4160  0.0193 -0.8613
  484THF     H4 8633   2.158   2.451   3.189  2.5098  1.4977  1.2752
  484THF     H5 8634   2.174   2.518   3.018  0.0581  0.0808  0.4848
  484THF     H6 8635   2.270   2.826   3.188  1.9558 -0.9803 -1.6291
  484THF     H7 8636   2.264   2.775   3.032 -2.1201  1.3479  0.8230
  484THF     C8 8637   2.081   2.755   3.144 -0.1929 -0.9117 -0.3508
  484THF     C9 8638   2.037   2.614   3.161  0.2213  0.1651 -0.2734
  484THF    H10 8639   2.041   2.797   3.054  1.0559  0.6702 -0.7722
  484THF    H11 8640   2.059   2.807   3.239 -0.9931 -0.1079  2.9146
  484THF    H12 8641   2.020   2.603   3.272 -0.3655  0.2531  0.6090
  484THF    H13 8642   1.945   2.599   3.103 -0.8038 -0.7426  2.0655
  485THF     O1 8643   3.303   4.732   4.397 -0.1218  0.0901 -0.3813
  485THF     C2 8644   3.297   4.830   4.505  0.4304  0.2327  0.1701
  485THF     C3 8645   3.440   4.732   4.356  0.2653  0.1419  0.0609
  485THF     H4 8646   3.340   4.790   4.596  0.2614 -1.4368  1.6697
  485THF     H5 8647   3.193   4.861   4.529  1.5854  0.5403  0.7074
  485THF     H6 8648   3.499   4.683   4.434  0.9542 -1.1248 -0.5237
  485THF     H7 8649   3.464   4.672   4.264  1.2421 -1.7217 -0.2018
  485THF     C8 8650   3.474   4.881   4.342 -0.2474 -0.5815 -0.4994
  485THF     C9 8651   3.390   4.940   4.449  0.5618  0.7054  0.0152
  485THF    H10 8652   3.443   4.917   4.245 -1.3109 -0.1366 -0.5774
  485THF    H11 8653   3.585   4.909   4.353 -1.4542  1.2134 -1.2179
  485THF    H12 8654   3.454   4.986   4.526  1.9656  0.5518 -2.7911
  485THF    H13 8655   3.332   5.023   4.401  0.6654  0.5643  1.3518
  486THF     O1 8656   0.519   0.222   0.107 -0.1122 -0.5645 -0.1840
  486THF     C2 8657   0.403   0.151   0.074  0.4493  0.4336  0.2845
  486THF     C3 8658   0.641   0.146   0.098  0.2415  0.2128  0.6818
  486THF     H4 8659   0.365   0.167  -0.031 -1.4888  1.5493  1.4859
  486THF     H5 8660   0.323   0.176   0.132 -0.4894  0.2419 -2.0930
  486THF     H6 8661   0.670   0.137  -0.007 -0.6117  1.2346 -0.2492
  486THF     H7 8662   0.716   0.184   0.165  1.3989 -2.0678 -1.3279
  486THF     C8 8663   0.582   0.012   0.149 -0.4767  0.7042  0.5586
  486THF     C9 8664   0.450   0.006   0.088  0.0841  0.1461  0.0251
  486THF    H10 8665   0.571   0.016   0.257 -0.4728 -0.9997 -0.3726
  486THF    H11 8666   0.647  -0.074   0.128  1.6656 -1.3112  1.5543
  486THF    H12 8667   0.458  -0.028  -0.024  0.8460 -0.2882 -2.8682
  486THF    H13 8668   0.379  -0.066   0.131 -0.8591  1.6871 -1.0965
  487THF     O1 8669   5.091   4.659   1.044  0.4549 -0.0964  0.7892
  487THF     C2 8670   4.977   4.616   1.127  0.1151 -0.1857 -0.0561
  487THF     C3 8671   5.089   4.579   0.929  0.5801  0.1046  0.3416
  487THF     H4 8672   4.905   4.690   1.142  1.2118 -1.0847  0.3714
  487THF     H5 8673   5.012   4.595   1.229  2.2386  2.8969  1.6182
  487THF     H6 8674   5.032   4.631   0.855 -1.6269 -2.9045 -0.6718
  487THF     H7 8675   5.182   4.564   0.876 -1.1530  0.6575 -1.0101
  487THF     C8 8676   5.027   4.445   0.964 -0.0653 -0.5635 -0.0012
  487THF     C9 8677   4.917   4.490   1.063  0.1440  0.2183 -0.4306
  487THF    H10 8678   5.090   4.374   1.012 -2.8579  0.9143  3.1256
  487THF    H11 8679   4.993   4.400   0.875  1.0087  0.6499  1.4217
  487THF    H12 8680   4.827   4.493   0.997 -1.4537 -0.7202 -2.6333
  487THF    H13 8681   4.888   4.411   1.137  2.8753 -0.0547  0.1085
  488THF     O1 8682   4.174   0.196   5.431 -0.0689 -0.3605 -0.6696
  488THF     C2 8683   4.251   0.240   5.319  0.0024 -0.0893  0.2354
  488THF     C3 8684   4.234   0.260   5.542  0.3581 -0.0797 -0.2431
  488THF     H4 8685   4.231   0.347   5.305  1.4697 -0.6764 -1.6677
  488THF     H5 8686   4.219   0.190   5.231  0.7201  1.1576  0.1989
  488THF     H6 8687   4.213   0.367   5.539  0.4354 -0.8074  1.5614
  488THF     H7 8688   4.185   0.227   5.635 -2.1894  1.3550  1.1991
  488THF     C8 8689   4.385   0.237   5.519  0.1517  0.3018 -0.2546
  488THF     C9 8690   4.398   0.227   5.371 -0.4174  0.2368 -0.0541
  488THF    H10 8691   4.426   0.138   5.547  1.6065  0.6603  0.6999
  488THF    H11 8692   4.455   0.309   5.559 -0.3879 -0.4166 -0.5781
  488THF    H12 8693   4.455   0.309   5.332  0.5753 -1.9292 -0.5166
  488THF    H13 8694   4.433   0.131   5.331 -1.2387  0.1793  2.8928
  489THF     O1 8695   3.077   3.322   0.210 -0.2531  0.4657 -0.9686
  489THF     C2 8696   2.945   3.278   0.242  0.0665 -0.3277  0.1666
  489THF     C3 8697   3.069   3.419   0.107 -0.2856 -0.2036  0.7545
  489THF     H4 8698   2.900   3.363   0.292 -1.9855  2.6886  0.5842
  489THF     H5 8699   2.939   3.191   0.303 -1.2217 -4.2855 -1.8188
  489THF     H6 8700   3.019   3.511   0.138  0.5243 -0.1071  1.3105
  489THF     H7 8701   3.163   3.441   0.059  0.5459 -0.1246 -4.1077
  489THF     C8 8702   2.982   3.342   0.011  0.2568 -0.0073  0.7280
  489THF     C9 8703   2.888   3.253   0.105  0.3941 -0.2557  0.7786
  489THF    H10 8704   3.052   3.272  -0.027  1.8480  0.1410  0.9957
  489THF    H11 8705   2.929   3.396  -0.065  0.9465 -0.0435 -0.0043
  489THF    H12 8706   2.789   3.280   0.091  1.3511 -0.3106 -3.2866
  489THF    H13 8707   2.893   3.145   0.088 -0.1680  0.0892 -0.1297
  490THF     O1 8708   1.039   1.131   0.239  0.5757  0.3184 -0.2752
  490THF     C2 8709   1.053   1.144   0.097  0.1939  0.2278 -1.2451
  490THF     C3 8710   0.956   1.018   0.263 -1.0721 -0.2526  0.3450
  490THF     H4 8711   1.132   1.210   0.069 -1.7531 -0.0656 -0.3797
  490THF     H5 8712   0.954   1.192   0.068 -0.9079  2.4266  0.0245
  490THF     H6 8713   0.961   0.983   0.370  0.0107  1.6031  0.8474
  490THF     H7 8714   0.849   1.032   0.242  0.5827 -1.1024 -0.2562
  490THF     C8 8715   1.003   0.916   0.154  0.7179 -0.2446 -0.3031
  490THF     C9 8716   1.056   0.999   0.044 -0.0746 -0.0125  0.2020
  490THF    H10 8717   0.914   0.853   0.129  0.9715  0.3620  1.0452
  490THF    H11 8718   1.080   0.843   0.193  0.1170 -4.6932 -0.7142
  490THF    H12 8719   1.163   0.974   0.032 -0.2357 -2.5270  0.1285
  490THF    H13 8720   0.999   0.984  -0.047  1.0064 -1.3698  1.7655
  491THF     O1 8721   3.154   5.407   3.365 -0.0481 -0.3827 -0.3589
  491THF     C2 8722   3.262   5.435   3.277 -0.4602  0.4703  0.7385
  491THF     C3 8723   3.034   5.456   3.314 -0.1715  0.4473 -0.3350
  491THF     H4 8724   3.304   5.334   3.250  1.2936 -1.5088  1.8064
  491THF     H5 8725   3.329   5.505   3.322 -0.0351  1.2881  0.2982
  491THF     H6 8726   2.966   5.372   3.348 -2.2758 -2.4312  4.4632
  491THF     H7 8727   2.999   5.553   3.347  3.5036  1.4307  4.1713
  491THF     C8 8728   3.056   5.444   3.164  0.0479 -0.1945 -0.4464
  491THF     C9 8729   3.197   5.503   3.158 -0.3690 -0.1020 -0.8562
  491THF    H10 8730   2.981   5.493   3.099  1.0675  1.3546 -0.7278
  491THF    H11 8731   3.059   5.348   3.120 -0.0587  0.6761 -0.6949
  491THF    H12 8732   3.247   5.473   3.068  0.6007 -0.4072  3.2403
  491THF    H13 8733   3.195   5.614   3.168  2.2217  1.6783  1.2638
  492THF     O1 8734   1.278   4.269   1.424 -0.0726  0.1454  0.5746
  492THF     C2 8735   1.382   4.206   1.339 -0.0673  0.7001 -0.0123
  492THF     C3 8736   1.281   4.411   1.408  0.0025 -0.1525  0.2417
  492THF     H4 8737   1.345   4.113   1.291  0.6979  0.5900 -3.0933
  492THF     H5 8738   1.473   4.176   1.393  1.6896 -0.9938 -0.4370
  492THF     H6 8739   1.189   4.451   1.443  0.0010 -1.6922  0.1200
  492THF     H7 8740   1.364   4.462   1.453  2.7678  1.8489 -0.1044
  492THF     C8 8741   1.291   4.413   1.259 -0.6821 -0.2683  0.0663
  492THF     C9 8742   1.407   4.319   1.240 -0.2375  0.4468  0.5520
  492THF    H10 8743   1.307   4.513   1.218 -0.4112 -0.6978  0.2556
  492THF    H11 8744   1.200   4.368   1.213 -2.4877  1.3150 -3.1525
  492THF    H12 8745   1.406   4.271   1.147 -0.2060 -0.8201  0.4772
  492THF    H13 8746   1.504   4.367   1.241  1.7713  0.3803  0.3398
  493THF     O1 8747   0.730   2.206   4.538 -0.0600  0.1378  0.2486
  493THF     C2 8748   0.779   2.270   4.653 -0.0600 -0.2672 -0.1684
  493THF     C3 8749   0.798   2.261   4.422  0.5045  0.0250  0.2234
  493THF     H4 8750   0.779   2.202   4.741  1.2160 -2.5649  0.4747
  493THF     H5 8751   0.713   2.363   4.664 -1.0596  1.0441 -0.9745
  493THF     H6 8752   0.837   2.176   4.367 -1.4562 -0.6538  1.5537
  493THF     H7 8753   0.733   2.311   4.346 -0.1857 -0.4779 -2.1067
  493THF     C8 8754   0.908   2.356   4.466 -0.3541  0.4456 -0.2676
  493THF     C9 8755   0.919   2.332   4.617  0.3296 -0.0706  0.5648
  493THF    H10 8756   0.886   2.459   4.443  0.5767 -0.8862 -3.0745
  493THF    H11 8757   1.009   2.332   4.416 -2.4101  1.3785 -0.8451
  493THF    H12 8758   0.994   2.257   4.643 -0.0917  0.4906 -0.9500
  493THF    H13 8759   0.945   2.429   4.668  2.5570  1.3200  0.2252
  494THF     O1 8760   0.696   1.579   4.977  0.0370 -0.0898  0.4105
  494THF     C2 8761   0.800   1.671   4.940 -0.3025  0.1657 -0.6469
  494THF     C3 8762   0.758   1.479   5.053  0.3403  0.2845 -0.3659
  494THF     H4 8763   0.828   1.739   5.034 -0.1956  3.2902  1.6971
  494THF     H5 8764   0.778   1.745   4.860 -0.9988  2.1416  0.0739
  494THF     H6 8765   0.778   1.518   5.154 -0.1336  1.1181  1.3320
  494THF     H7 8766   0.709   1.386   5.069 -0.5260 -1.6433  1.0994
  494THF     C8 8767   0.886   1.452   4.977  0.2315 -0.3474  0.4480
  494THF     C9 8768   0.903   1.572   4.891  0.0788 -0.8479 -0.0092
  494THF    H10 8769   0.875   1.363   4.910 -1.0415  0.0737  1.1770
  494THF    H11 8770   0.974   1.434   5.042  1.3022 -2.7343  0.2626
  494THF    H12 8771   0.996   1.622   4.904  2.6138  1.0152 -1.4821
  494THF    H13 8772   0.884   1.554   4.783 -4.0899  2.3137 -1.7319
  495THF     O1 8773   3.671   0.262   3.950 -0.2362 -0.4730 -0.0297
  495THF     C2 8774   3.748   0.143   3.926  0.6034  0.3878  0.3410
  495THF     C3 8775   3.762   0.363   4.001  0.5817  0.2111  0.6628
  495THF     H4 8776   3.802   0.135   3.830 -0.0413 -2.2189 -0.6793
  495THF     H5 8777   3.685   0.057   3.919 -2.5133  2.1388  0.1764
  495THF     H6 8778   3.824   0.399   3.925  1.6396  0.0735 -2.5445
  495THF     H7 8779   3.702   0.442   4.045 -0.4969  0.8463  0.2919
  495THF     C8 8780   3.838   0.284   4.100  0.2437  0.0865 -0.0616
  495THF     C9 8781   3.833   0.142   4.047 -0.1117  1.1705 -0.3437
  495THF    H10 8782   3.768   0.294   4.185 -1.0901 -0.5274  0.2340
  495THF    H11 8783   3.939   0.325   4.117 -0.5480  0.4162 -2.7363
  495THF    H12 8784   3.929   0.101   4.021 -1.1306  1.6564  0.8617
  495THF    H13 8785   3.777   0.083   4.119 -1.9884  2.8869 -3.7346
  496THF     O1 8786   2.375   4.377   3.674 -0.0298 -0.4673 -0.2291
  496THF     C2 8787   2.318   4.291   3.583 -0.0779  0.1549  0.5963
  496THF     C3 8788   2.444   4.318   3.779  0.1195  0.4979  0.3863
  496THF     H4 8789   2.397   4.254   3.517 -0.3619  0.6626 -0.5114
  496THF     H5 8790   2.247   4.349   3.521  1.9846 -1.3640  3.0755
  496THF     H6 8791   2.541   4.286   3.740  0.0670 -0.3242 -0.7921
  496THF     H7 8792   2.454   4.389   3.859  3.6371 -0.3764 -1.9868
  496THF     C8 8793   2.353   4.194   3.805  0.1221 -0.8014 -0.5514
  496THF     C9 8794   2.274   4.177   3.676 -0.0211  0.0574  0.0417
  496THF    H10 8795   2.284   4.216   3.887  0.8533 -0.0999 -5.3732
  496THF    H11 8796   2.416   4.105   3.815 -3.0263  1.9080 -3.0692
  496THF    H12 8797   2.280   4.085   3.628  3.3491  1.0300  1.4885
  496THF    H13 8798   2.169   4.197   3.715 -1.2690 -0.3687  2.7633
  497THF     O1 8799   3.366   0.506   3.745  0.8640  0.1351 -0.1270
  497THF     C2 8800   3.495   0.439   3.759 -0.1798  0.1034 -0.1478
  497THF     C3 8801   3.316   0.483   3.616  0.0239 -0.3665  0.2590
  497THF     H4 8802   3.482   0.337   3.792 -0.4585  1.8712  2.6775
  497THF     H5 8803   3.554   0.492   3.840 -1.5563 -1.8179 -0.1407
  497THF     H6 8804   3.277   0.376   3.613 -1.6135 -1.9699 -2.9968
  497THF     H7 8805   3.239   0.553   3.583 -2.0341 -0.8577 -2.0090
  497THF     C8 8806   3.442   0.499   3.531  0.2749  0.3018 -0.4244
  497THF     C9 8807   3.560   0.458   3.626  0.2142  0.1390  0.1456
  497THF    H10 8808   3.464   0.608   3.512  0.4502 -0.0182 -1.7198
  497THF    H11 8809   3.426   0.441   3.437  0.8550  2.2642  0.4289
  497THF    H12 8810   3.606   0.359   3.598 -1.8707  1.4636  1.9670
  497THF    H13 8811   3.643   0.535   3.640  2.0816  0.7301 -1.1471
  498THF     O1 8812   5.188   0.982   0.951 -0.0139 -0.0130  0.3021
  498THF     C2 8813   5.044   0.963   0.966  0.6807 -0.6550 -0.1818
  498THF     C3 8814   5.235   0.863   0.903 -0.6765  0.2504 -0.0993
  498THF     H4 8815   4.982   1.047   0.948 -1.3052 -0.7535  1.1517
  498THF     H5 8816   5.033   0.951   1.070  1.7210  0.5359  1.6388
  498THF     H6 8817   5.325   0.870   0.839 -2.6879 -2.2349  1.3153
  498THF     H7 8818   5.276   0.802   0.993  1.8422 -2.1202  0.3703
  498THF     C8 8819   5.122   0.806   0.819  0.1085 -0.0867  0.2954
  498THF     C9 8820   4.998   0.843   0.890 -0.1634 -0.3664  0.3328
  498THF    H10 8821   5.139   0.697   0.801 -0.4885 -0.0142 -0.3910
  498THF    H11 8822   5.126   0.855   0.726 -1.1924  0.2355  2.2162
  498THF    H12 8823   4.919   0.869   0.824  0.0759 -0.0467  4.0538
  498THF    H13 8824   4.968   0.767   0.959  0.1163  1.4714  1.9809
  499THF     O1 8825   1.966   4.342   0.736 -0.5017 -0.0774  0.2276
  499THF     C2 8826   1.919   4.329   0.601  0.3371 -0.0513  0.0811
  499THF     C3 8827   2.060   4.449   0.734 -0.1854 -0.3785  0.1955
  499THF     H4 8828   1.853   4.420   0.591 -0.8087  2.1626  2.6606
  499THF     H5 8829   1.862   4.234   0.581 -1.1103 -0.6012 -1.5289
  499THF     H6 8830   2.016   4.537   0.774 -2.7407 -1.6102 -0.5102
  499THF     H7 8831   2.129   4.420   0.815  1.3775  1.6659 -4.9266
  499THF     C8 8832   2.120   4.449   0.595 -0.6917 -1.1920  0.1726
  499THF     C9 8833   2.046   4.344   0.517 -0.4349 -0.4818 -0.5027
  499THF    H10 8834   2.224   4.437   0.623 -2.1922  0.4988 -0.2457
  499THF    H11 8835   2.111   4.552   0.556 -1.6247  2.3007  2.3789
  499THF    H12 8836   2.033   4.385   0.414  1.8081 -1.8862  0.5147
  499THF    H13 8837   2.096   4.244   0.508  0.9452 -2.8914 -3.5352
  500THF     O1 8838   1.034   4.632   4.849 -0.5383  0.5853  0.6499
  500THF     C2 8839   1.015   4.503   4.902 -0.1544  0.0562  1.1491
  500THF     C3 8840   1.173   4.646   4.860 -0.1136 -0.7565  0.1016
  500THF     H4 8841   1.040   4.426   4.833  3.2883  0.5747  1.1915
  500THF     H5 8842   0.904   4.494   4.914 -1.4436 -2.5688  0.4413
  500THF     H6 8843   1.225   4.584   4.788 -1.2037  0.5346  0.1635
  500THF     H7 8844   1.219   4.739   4.839  0.3937 -0.7613  1.6137
  500THF     C8 8845   1.210   4.597   4.999 -0.8786 -0.5684  0.1930
  500THF     C9 8846   1.089   4.507   5.038 -0.4863  0.2362  0.1307
  500THF    H10 8847   1.235   4.671   5.075  0.0312 -1.8192 -0.6374
  500THF    H11 8848   1.294   4.529   4.998  0.9101  2.5747  3.4434
  500THF    H12 8849   1.122   4.412   5.083 -0.7626 -0.7795 -0.4853
  500THF    H13 8850   1.036   4.556   5.116 -0.4126 -0.9141 -1.9616
  501THF     O1 8851   4.266   0.643   1.300  0.0407  0.0933  0.2187
  501THF     C2 8852   4.149   0.642   1.379 -0.2313 -0.7992  0.1092
  501THF     C3 8853   4.272   0.526   1.226  0.7705  0.4061 -0.3962
  501THF     H4 8854   4.120   0.746   1.395 -1.3962  1.9627 -0.3006
  501THF     H5 8855   4.168   0.600   1.479 -0.5193 -2.2225  0.2795
  501THF     H6 8856   4.349   0.529   1.144  1.6221 -3.4982 -2.2447
  501THF     H7 8857   4.316   0.458   1.298  0.0129 -1.3699 -2.5191
  501THF     C8 8858   4.128   0.494   1.180 -0.6955  1.0372 -0.2581
  501THF     C9 8859   4.047   0.562   1.291 -0.4215 -0.7058 -0.3965
  501THF    H10 8860   4.100   0.388   1.189  0.3643  2.1545 -1.0493
  501THF    H11 8861   4.098   0.536   1.081 -3.2119  4.5206  0.3757
  501THF    H12 8862   3.974   0.618   1.240  1.2694  0.7169  0.7885
  501THF    H13 8863   3.997   0.483   1.348  0.0994  1.8483  0.6132
  502THF     O1 8864   0.300   3.618   0.266 -0.5687  0.2791 -0.0669
  502THF     C2 8865   0.434   3.661   0.231  0.0973  0.4615 -0.2862
  502THF     C3 8866   0.223   3.732   0.322 -0.2714  0.9034  0.6082
  502THF     H4 8867   0.477   3.595   0.152  3.1143  1.7827  0.1424
  502THF     H5 8868   0.487   3.651   0.324  0.9637  1.3172  1.5434
  502THF     H6 8869   0.120   3.712   0.310  1.3978 -1.2260  1.2241
  502THF     H7 8870   0.249   3.736   0.425 -0.7574 -1.0728 -0.6906
  502THF     C8 8871   0.278   3.850   0.242 -0.5518 -0.3911  0.5864
  502THF     C9 8872   0.417   3.813   0.194 -0.3613  0.0313 -0.1115
  502THF    H10 8873   0.265   3.947   0.283  0.6909  1.8626 -1.0659
  502THF    H11 8874   0.218   3.857   0.152  0.7881  0.3344  0.5436
  502THF    H12 8875   0.431   3.833   0.092  0.6716 -0.1461  1.5846
  502THF    H13 8876   0.480   3.879   0.251  3.0704 -0.2128 -0.4505
  503THF     O1 8877   2.905   4.763   5.295 -0.7222 -0.6545  0.4337
  503THF     C2 8878   2.914   4.643   5.213  0.1665 -0.1448 -0.6485
  503THF     C3 8879   2.772   4.795   5.286 -0.2648 -0.0152  0.3493
  503THF     H4 8880   2.863   4.564   5.269 -0.0724  1.0297 -0.5442
  503THF     H5 8881   3.019   4.616   5.182  2.0627 -0.0515  0.3593
  503THF     H6 8882   2.711   4.728   5.349 -1.8564  0.9174  1.3287
  503THF     H7 8883   2.762   4.894   5.324  1.5601 -1.4769 -2.2246
  503THF     C8 8884   2.733   4.779   5.141 -0.2065  0.2571  0.5517
  503THF     C9 8885   2.837   4.683   5.087 -0.6536  0.5541  0.1290
  503THF    H10 8886   2.761   4.864   5.083  0.7703  1.1806 -2.5691
  503THF    H11 8887   2.630   4.744   5.127  0.4391 -0.0097  2.5566
  503THF    H12 8888   2.804   4.606   5.024  1.6310  2.8781 -1.2591
  503THF    H13 8889   2.903   4.732   5.021 -1.0959 -1.8671  0.2399
  504THF     O1 8890   0.382   0.765   4.501 -0.7749  0.2820  0.3370
  504THF     C2 8891   0.352   0.657   4.584 -0.1712 -0.6476  0.5061
  504THF     C3 8892   0.378   0.718   4.366  0.7805  0.7776 -0.4458
  504THF     H4 8893   0.247   0.626   4.561 -1.7790 -1.9867  0.7546
  504THF     H5 8894   0.364   0.685   4.690 -1.5394 -1.5550 -1.2333
  504THF     H6 8895   0.275   0.726   4.342  0.9089 -0.1751  1.5437
  504THF     H7 8896   0.443   0.764   4.295 -0.5221  2.2263 -0.2082
  504THF     C8 8897   0.412   0.572   4.375  0.5396 -0.1967 -0.5423
  504THF     C9 8898   0.437   0.549   4.521  0.2943  0.0853 -0.1667
  504THF    H10 8899   0.503   0.556   4.319  0.9925  1.0050 -1.6278
  504THF    H11 8900   0.327   0.506   4.337 -0.5293  0.6145  0.4741
  504THF    H12 8901   0.408   0.453   4.555 -1.0843  0.3415  0.5851
  504THF    H13 8902   0.544   0.564   4.540  0.1062 -1.2388 -0.5680
  505THF     O1 8903   0.238   3.944   1.807 -0.0643 -0.2542 -0.4254
  505THF     C2 8904   0.125   3.930   1.892 -0.1369  0.1275 -0.4788
  505THF     C3 8905   0.330   3.850   1.846 -0.5467  0.1459 -0.1136
  505THF     H4 8906   0.044   3.865   1.850 -1.3452  1.9150 -2.7912
  505THF     H5 8907   0.081   4.031   1.893  0.0141 -0.4219  2.1379
  505THF     H6 8908   0.312   3.753   1.802  0.2750 -1.5687  1.8284
  505THF     H7 8909   0.426   3.890   1.807 -1.2942 -1.0209  0.4890
  505THF     C8 8910   0.326   3.848   1.996 -0.1179  0.3487 -0.2879
  505THF     C9 8911   0.183   3.891   2.023 -0.6494  0.2828 -0.6032
  505THF    H10 8912   0.399   3.924   2.036  0.0883  0.6902  2.8716
  505THF    H11 8913   0.352   3.746   2.030 -0.6286 -2.8998 -0.7555
  505THF    H12 8914   0.131   3.803   2.062  2.3027 -1.3548  1.7352
  505THF    H13 8915   0.169   3.972   2.091 -0.1771  0.6939 -2.3005
  506THF     O1 8916   3.899   0.271   0.890 -0.0686  0.2427  0.2397
  506THF     C2 8917   3.962   0.152   0.844 -0.4208 -0.0440  0.7601
  506THF     C3 8918   3.958   0.379   0.812  0.1548 -0.1763 -0.1825
  506THF     H4 8919   3.909   0.115   0.757 -1.4078 -0.9165  1.6726
  506THF     H5 8920   3.963   0.072   0.914  1.0471 -0.3456  0.8916
  506THF     H6 8921   3.907   0.388   0.714  1.2386  1.5809 -0.5678
  506THF     H7 8922   3.934   0.470   0.864 -0.2335  1.5644  2.0273
  506THF     C8 8923   4.113   0.349   0.816 -0.3390  0.6890 -0.2989
  506THF     C9 8924   4.108   0.201   0.798  0.6305  0.2465 -0.7880
  506THF    H10 8925   4.152   0.369   0.917  1.9108 -1.1301  0.1789
  506THF    H11 8926   4.185   0.398   0.739  2.4421 -0.1492 -2.5234
  506THF    H12 8927   4.126   0.171   0.695 -1.8950 -0.7727  1.4678
  506THF    H13 8928   4.185   0.166   0.864 -0.8179  1.6618  1.2897
  507THF     O1 8929   1.588   0.703   1.526 -0.4287 -0.0536  0.0262
  507THF     C2 8930   1.723   0.742   1.524 -0.1142 -0.1960  0.9193
  507THF     C3 8931   1.513   0.812   1.544 -0.2899  0.7763 -0.5515
  507THF     H4 8932   1.779   0.670   1.471 -6.1066 -0.7203  0.3153
  507THF     H5 8933   1.756   0.757   1.631  2.6382  3.4319  0.2497
  507THF     H6 8934   1.414   0.784   1.527 -0.0657  0.2588 -0.1522
  507THF     H7 8935   1.507   0.832   1.651 -1.6147 -2.1254  2.3613
  507THF     C8 8936   1.584   0.922   1.458 -0.1979 -1.0281  0.5619
  507THF     C9 8937   1.733   0.881   1.449  0.6660  0.2188 -0.4256
  507THF    H10 8938   1.572   1.022   1.511 -0.6890  0.8298  1.6691
  507THF    H11 8939   1.536   0.930   1.358  2.2843  0.3726  0.0986
  507THF    H12 8940   1.753   0.874   1.345 -0.6196  2.4588 -0.3667
  507THF    H13 8941   1.795   0.955   1.493 -0.7411 -2.4521  2.7063
  508THF     O1 8942   0.321   3.957   2.969  0.9676  0.2694  0.0928
  508THF     C2 8943   0.264   3.929   2.837 -0.0123  0.2076 -0.0841
  508THF     C3 8944   0.210   3.972   3.064  0.0058 -0.9727 -0.4712
  508THF     H4 8945   0.265   3.820   2.826 -2.1537  0.5881 -0.5167
  508THF     H5 8946   0.318   3.985   2.761  0.9783  0.8906  0.2050
  508THF     H6 8947   0.189   3.868   3.099 -1.4919 -1.5909 -0.8186
  508THF     H7 8948   0.231   4.044   3.145 -0.3679 -2.1147  0.0844
  508THF     C8 8949   0.090   4.029   2.985  0.8014 -0.0271 -0.3163
  508THF     C9 8950   0.116   3.977   2.848 -1.4058  0.9545  0.4874
  508THF    H10 8951   0.088   4.137   2.969  1.3147 -1.4045 -0.1693
  508THF    H11 8952  -0.005   3.997   3.017  0.5266  2.0357  0.6152
  508THF    H12 8953   0.053   3.897   2.823  0.2511 -0.8847 -0.2782
  508THF    H13 8954   0.108   4.052   2.773  1.7326 -1.3055 -0.6918
  509THF     O1 8955   3.513   1.218   4.255 -0.1346  0.1127 -0.0857
  509THF     C2 8956   3.571   1.243   4.385  0.4128  0.0390  0.6753
  509THF     C3 8957   3.394   1.295   4.260  0.2844 -0.3347  0.2573
  509THF     H4 8958   3.671   1.214   4.399 -4.5329 -0.7605 -0.3057
  509THF     H5 8959   3.515   1.201   4.470 -2.3420  2.4045 -0.9641
  509THF     H6 8960   3.372   1.312   4.158  3.4426  3.0515 -0.1970
  509THF     H7 8961   3.311   1.239   4.305 -0.6447  0.1947 -4.1806
  509THF     C8 8962   3.431   1.430   4.333  0.1396 -0.4165 -0.2985
  509THF     C9 8963   3.569   1.399   4.386  0.8573 -0.3483  0.6857
  509THF    H10 8964   3.369   1.451   4.413 -0.5141  0.0380 -3.3771
  509THF    H11 8965   3.424   1.510   4.263  1.5159 -0.8507  2.4400
  509THF    H12 8966   3.646   1.451   4.325  0.7611  1.4917 -0.4700
  509THF    H13 8967   3.585   1.435   4.491 -0.6298  1.2310 -0.3409
  510THF     O1 8968   2.284   2.147   1.041 -0.3966 -0.1941  0.2520
  510THF     C2 8969   2.382   2.231   0.994 -0.5968 -0.5477  0.6196
  510THF     C3 8970   2.319   2.131   1.180 -0.1808 -0.2115 -0.1635
  510THF     H4 8971   2.329   2.271   0.908  0.3055 -0.0969  0.5840
  510THF     H5 8972   2.476   2.184   0.983 -3.5136  1.4645  0.3682
  510THF     H6 8973   2.223   2.117   1.235  1.9352 -2.2991  1.6072
  510THF     H7 8974   2.382   2.044   1.193  0.2781 -1.1552 -0.0314
  510THF     C8 8975   2.390   2.262   1.230  0.3868  0.3879 -0.5231
  510THF     C9 8976   2.402   2.339   1.098  0.4372  0.1262 -0.0060
  510THF    H10 8977   2.481   2.228   1.287  0.7044 -2.8021 -1.9765
  510THF    H11 8978   2.331   2.324   1.304  0.2433  3.2432 -0.4208
  510THF    H12 8979   2.317   2.411   1.091 -4.4944 -2.1841 -0.0007
  510THF    H13 8980   2.493   2.398   1.085  1.9040  1.3396 -0.0532
  511THF     O1 8981   0.277   0.871   3.406 -0.5931 -0.2007  0.3933
  511THF     C2 8982   0.373   0.961   3.342  0.5278 -0.0753  0.1806
  511THF     C3 8983   0.299   0.872   3.548  0.3887 -0.0248  0.8526
  511THF     H4 8984   0.331   1.061   3.325  0.4913 -2.1655  0.9897
  511THF     H5 8985   0.400   0.911   3.247 -0.4051 -0.6762 -3.3915
  511THF     H6 8986   0.200   0.889   3.595  0.4669 -3.6356 -0.5095
  511THF     H7 8987   0.329   0.770   3.584  0.3920 -2.1521  0.1449
  511THF     C8 8988   0.406   0.975   3.574 -0.6318  0.8518  0.2928
  511THF     C9 8989   0.489   0.971   3.449 -0.0750  0.6671  0.3803
  511THF    H10 8990   0.468   0.946   3.656  1.1299 -2.1431  1.7634
  511THF    H11 8991   0.357   1.071   3.588 -1.0925 -3.2754 -0.6746
  511THF    H12 8992   0.551   1.060   3.447 -0.3091 -0.8055  0.8854
  511THF    H13 8993   0.550   0.877   3.448  0.1040 -2.1920 -1.0255
  512THF     O1 8994   4.538   3.292   3.585  0.3640  0.2920 -0.0871
  512THF     C2 8995   4.630   3.404   3.592 -0.0579  0.4791  0.2267
  512THF     C3 8996   4.513   3.273   3.444 -0.5937 -0.2536  0.9305
  512THF     H4 8997   4.730   3.382   3.557  0.5162  1.4560 -1.8308
  512THF     H5 8998   4.635   3.450   3.691  0.8476  0.9331  0.3329
  512THF     H6 8999   4.588   3.193   3.420  1.2895 -3.6556  4.1340
  512THF     H7 9000   4.416   3.232   3.450  0.5245  2.9078 -0.9999
  512THF     C8 9001   4.517   3.418   3.381 -0.1190 -0.0075  0.5721
  512THF     C9 9002   4.567   3.498   3.492 -0.2497 -0.5992 -0.3917
  512THF    H10 9003   4.421   3.461   3.351  1.6261  3.2528  1.4311
  512THF    H11 9004   4.593   3.425   3.307 -1.1195 -1.4718  2.1999
  512THF    H12 9005   4.647   3.564   3.450 -0.8041  0.0489 -0.6301
  512THF    H13 9006   4.493   3.568   3.534 -2.1073 -1.1436  2.5803
  513THF     O1 9007   2.869   4.818   2.898  1.1179  0.8215  0.4414
  513THF     C2 9008   2.773   4.748   2.819  0.0721  0.4309 -0.0779
  513THF     C3 9009   2.828   4.951   2.892 -0.2590  1.0524  0.7065
  513THF     H4 9010   2.770   4.643   2.844 -0.2908 -1.0214 -0.3490
  513THF     H5 9011   2.799   4.752   2.719 -1.0324 -0.3419  2.7856
  513THF     H6 9012   2.869   5.002   2.980 -3.4967 -4.4250 -0.8303
  513THF     H7 9013   2.867   4.987   2.797 -2.4281  5.0047  1.0680
  513THF     C8 9014   2.676   4.949   2.895 -0.4200  0.9160  0.2456
  513THF     C9 9015   2.635   4.816   2.837  0.1136  0.9224 -0.3372
  513THF    H10 9016   2.633   5.034   2.842  1.5265  2.8487  1.6945
  513THF    H11 9017   2.631   4.955   2.997  1.4883 -0.4981  0.0017
  513THF    H12 9018   2.570   4.758   2.910 -0.3247 -1.2938 -0.1115
  513THF    H13 9019   2.574   4.832   2.752  0.5843 -3.7420 -0.1023
  514THF     O1 9020   3.679   2.788   1.715  0.3319  0.7096 -0.7156
  514THF     C2 9021   3.798   2.857   1.732 -0.5464 -0.6223  0.3974
  514THF     C3 9022   3.634   2.761   1.845 -0.7225  0.4358 -0.5223
  514THF     H4 9023   3.777   2.962   1.756  1.8455  1.2899  2.5857
  514THF     H5 9024   3.856   2.851   1.642 -0.0390 -3.0986  0.9774
  514THF     H6 9025   3.575   2.848   1.879 -0.6402  3.3249  0.4857
  514THF     H7 9026   3.564   2.680   1.844 -3.2607  0.4977 -0.3877
  514THF     C8 9027   3.762   2.747   1.934 -0.1597  0.3213 -0.5120
  514THF     C9 9028   3.879   2.791   1.846  0.5974 -0.2194 -0.1989
  514THF    H10 9029   3.777   2.638   1.955 -1.7826 -0.6439 -0.4240
  514THF    H11 9030   3.749   2.795   2.033 -0.3676 -0.0950 -2.0456
  514THF    H12 9031   3.960   2.852   1.895 -1.9971  1.1509 -0.4509
  514THF    H13 9032   3.934   2.700   1.816  1.4696  0.2796 -0.5850
  515THF     O1 9033   3.491   1.358   0.114  0.0737 -0.4628 -0.0995
  515THF     C2 9034   3.411   1.290   0.023  0.0396  0.3284  0.0679
  515THF     C3 9035   3.628   1.344   0.072 -0.8125  0.0963 -0.7987
  515THF     H4 9036   3.310   1.328   0.014 -1.1115 -0.9846  0.0477
  515THF     H5 9037   3.420   1.189   0.052 -1.2972 -0.2425  0.7257
  515THF     H6 9038   3.705   1.398   0.131 -0.8524  0.8698  0.5964
  515THF     H7 9039   3.656   1.238   0.091 -0.0762  1.3252  0.1367
  515THF     C8 9040   3.620   1.365  -0.079  0.5221 -0.1187  0.3964
  515THF     C9 9041   3.480   1.314  -0.116 -0.3816  0.5186  0.0166
  515THF    H10 9042   3.699   1.324  -0.142  0.5804  0.4844 -0.4827
  515THF    H11 9043   3.629   1.476  -0.111 -0.5114 -0.5029  0.7500
  515THF    H12 9044   3.420   1.388  -0.170 -3.5468  0.7974 -0.8026
  515THF    H13 9045   3.488   1.224  -0.168 -0.4693  4.4193 -1.4678
  516THF     O1 9046   1.788   2.700   3.540 -0.4448  1.0172  0.1343
  516THF     C2 9047   1.654   2.681   3.593 -0.1733  0.1953 -0.0621
  516THF     C3 9048   1.772   2.720   3.399  0.2570 -0.0317  0.1255
  516THF     H4 9049   1.609   2.780   3.603  1.8215 -1.0223 -1.0803
  516THF     H5 9050   1.649   2.632   3.689 -2.1319 -0.2059 -3.3133
  516THF     H6 9051   1.739   2.819   3.380 -0.9456 -2.1876  1.4937
  516THF     H7 9052   1.862   2.710   3.345 -1.1843  2.7345  1.7799
  516THF     C8 9053   1.668   2.610   3.358  0.1074  0.4583 -0.3586
  516THF     C9 9054   1.583   2.606   3.480  0.9470 -0.1306 -0.4148
  516THF    H10 9055   1.731   2.518   3.345 -0.6557 -0.7885  1.5779
  516THF    H11 9056   1.618   2.625   3.256 -2.7167  0.1288 -4.0859
  516THF    H12 9057   1.483   2.644   3.449 -0.5727 -0.1130  0.6297
  516THF    H13 9058   1.578   2.500   3.499 -0.0597  2.7194  0.6825
  517THF     O1 9059   5.044   2.793   4.268 -0.7034 -0.0451  0.2338
  517THF     C2 9060   5.136   2.822   4.162 -0.1117 -0.6347 -0.5016
  517THF     C3 9061   5.096   2.834   4.397 -0.4852  0.6438 -0.2224
  517THF     H4 9062   5.117   2.917   4.111 -0.1048  1.6203 -1.5448
  517THF     H5 9063   5.151   2.736   4.086  0.4767 -4.2825 -1.0433
  517THF     H6 9064   5.026   2.901   4.445 -1.3596 -0.5551 -1.2115
  517THF     H7 9065   5.114   2.745   4.462 -0.2863 -1.2070  0.2359
  517THF     C8 9066   5.227   2.902   4.365 -0.3458  0.2154 -0.6815
  517THF     C9 9067   5.269   2.854   4.231 -0.4051 -0.9281 -0.5099
  517THF    H10 9068   5.299   2.870   4.449 -2.6782  2.6616 -0.4772
  517THF    H11 9069   5.233   3.011   4.348  1.4383 -1.0188 -0.2567
  517THF    H12 9070   5.330   2.929   4.180 -0.7701 -0.7930  1.0495
  517THF    H13 9071   5.331   2.764   4.240  0.0589  3.1473 -0.1290
  518THF     O1 9072   0.037   4.766   5.457  0.4830 -0.1751  0.1073
  518THF     C2 9073   0.172   4.817   5.458 -0.2157  0.0068  0.2071
  518THF     C3 9074  -0.031   4.811   5.344 -0.1765  0.1563  0.1955
  518THF     H4 9075   0.237   4.765   5.385 -1.9408  0.1767  0.3243
  518THF     H5 9076   0.231   4.821   5.546 -1.4227  0.0638 -1.2070
  518THF     H6 9077   0.000   4.751   5.261  0.0575 -1.2261  2.1331
  518THF     H7 9078  -0.141   4.811   5.354  1.7552  1.0922 -0.0672
  518THF     C8 9079   0.022   4.952   5.325  0.3652 -0.1778  0.1994
  518THF     C9 9080   0.155   4.958   5.397  0.3818  0.0586  0.4419
  518THF    H10 9081  -0.053   5.022   5.345 -0.6294  1.2846 -0.2942
  518THF    H11 9082   0.028   4.974   5.217 -1.3757 -1.3190  2.6156
  518THF    H12 9083   0.232   4.989   5.321 -1.5452  1.5988  0.2141
  518THF    H13 9084   0.145   5.039   5.475  0.3324 -1.4926 -1.0437
  519THF     O1 9085   4.088   2.743   4.627  0.2057 -0.2761  0.0912
  519THF     C2 9086   4.030   2.828   4.732 -0.7916  0.2735  0.7733
  519THF     C3 9087   4.030   2.778   4.503  0.0579 -0.1644  0.5168
  519THF     H4 9088   4.087   2.915   4.751 -1.5490  0.1347 -0.8199
  519THF     H5 9089   4.036   2.768   4.820  0.3031 -0.1563 -1.7062
  519THF     H6 9090   4.084   2.859   4.457 -0.4341 -0.8433  1.0245
  519THF     H7 9091   4.061   2.694   4.443  0.0529  0.4598 -1.0447
  519THF     C8 9092   3.884   2.812   4.535 -0.3473  0.1861  0.3891
  519THF     C9 9093   3.887   2.852   4.685 -0.8014  0.4943 -0.1394
  519THF    H10 9094   3.821   2.723   4.516  1.9768  0.7942  2.1424
  519THF    H11 9095   3.848   2.888   4.474  0.2564 -2.0002  1.4799
  519THF    H12 9096   3.861   2.947   4.707 -1.4081  0.1962  0.1634
  519THF    H13 9097   3.827   2.778   4.741 -3.6891 -0.2608 -1.8048
  520THF     O1 9098   3.332   5.459   1.523 -0.1209 -0.4459 -0.3211
  520THF     C2 9099   3.350   5.434   1.661  0.8473  0.2628 -0.1116
  520THF     C3 9100   3.262   5.577   1.509 -0.2117  0.0196  0.2677
  520THF     H4 9101   3.455   5.431   1.676  0.2643 -0.3517 -1.5464
  520THF     H5 9102   3.314   5.341   1.698 -0.1012  1.0839  0.6964
  520THF     H6 9103   3.327   5.662   1.526  0.2512  1.3735 -2.7893
  520THF     H7 9104   3.222   5.598   1.411  0.3014 -0.6720 -1.1603
  520THF     C8 9105   3.162   5.578   1.625 -0.1078  0.2075 -0.2258
  520THF     C9 9106   3.263   5.535   1.733 -0.0062  0.6510 -0.4272
  520THF    H10 9107   3.088   5.493   1.617 -1.2188 -2.1044 -1.2120
  520THF    H11 9108   3.116   5.673   1.639 -1.1381  1.8448  0.4803
  520THF    H12 9109   3.315   5.622   1.775 -3.0809  1.4993  2.2315
  520THF    H13 9110   3.208   5.486   1.816 -1.1950 -1.7059 -1.6926
  521THF     O1 9111   3.700   2.250   1.759 -0.1846  0.1026 -0.2801
  521THF     C2 9112   3.763   2.120   1.759 -0.0956 -0.4115  0.1999
  521THF     C3 9113   3.721   2.308   1.884  0.1471  0.0495 -0.4240
  521THF     H4 9114   3.859   2.135   1.726 -0.7113 -1.3702 -0.4232
  521THF     H5 9115   3.700   2.047   1.696  3.1339 -0.9550 -2.1676
  521THF     H6 9116   3.755   2.411   1.881 -0.9849 -0.4964  0.9272
  521THF     H7 9117   3.619   2.311   1.924 -0.9279  3.8874 -0.6905
  521THF     C8 9118   3.793   2.210   1.976  0.0872  0.1138 -1.0552
  521THF     C9 9119   3.767   2.077   1.907  0.4788  0.6164 -0.3940
  521THF    H10 9120   3.770   2.204   2.081  0.1999 -0.0550 -2.2328
  521THF    H11 9121   3.894   2.242   1.965 -0.7546  2.1777  0.0509
  521THF    H12 9122   3.843   2.001   1.926  0.0118 -1.1149 -0.0095
  521THF    H13 9123   3.669   2.036   1.939 -1.5915 -0.8277 -1.5834
  522THF     O1 9124   4.699   0.886   4.321  0.5664 -0.4135  0.4297
  522THF     C2 9125   4.618   0.774   4.327 -1.0109 -0.4688  0.3994
  522THF     C3 9126   4.665   0.973   4.218  0.5316 -0.1775  0.4858
  522THF     H4 9127   4.608   0.747   4.426  0.3283  0.1949 -0.6066
  522THF     H5 9128   4.663   0.700   4.265 -3.4790 -0.2856  1.5286
  522THF     H6 9129   4.699   1.068   4.246  1.9360 -1.5156 -1.6789
  522THF     H7 9130   4.718   0.952   4.124 -1.5867  2.2337 -1.3600
  522THF     C8 9131   4.513   0.961   4.210  0.2812  0.0573  0.4793
  522THF     C9 9132   4.482   0.817   4.276 -0.1832  0.3625 -0.7094
  522THF    H10 9133   4.483   0.964   4.104  0.8213 -1.1687 -1.8581
  522THF    H11 9134   4.466   1.037   4.272  1.6881 -2.4025  0.8837
  522THF    H12 9135   4.425   0.821   4.364  0.5288  1.6663 -0.5600
  522THF    H13 9136   4.442   0.743   4.207  0.2419 -1.7743  2.0221
  523THF     O1 9137   3.334   3.763   5.034  0.0173 -0.4079 -0.4438
  523THF     C2 9138   3.423   3.857   4.966 -0.3658  0.7478 -0.6335
  523THF     C3 9139   3.418   3.651   5.067 -0.7191  0.0949  0.4513
  523THF     H4 9140   3.381   3.951   4.956  0.9973 -2.4084 -1.6177
  523THF     H5 9141   3.431   3.822   4.862  0.3642  0.3347  1.1020
  523THF     H6 9142   3.369   3.586   5.148  0.1907  1.1603 -1.1459
  523THF     H7 9143   3.433   3.586   4.982  0.3905  0.4490  0.4612
  523THF     C8 9144   3.553   3.706   5.111  0.0647  0.3954  0.5898
  523THF     C9 9145   3.555   3.841   5.053 -0.6737  0.4921  0.1705
  523THF    H10 9146   3.642   3.643   5.085 -0.0685  0.6542  0.4670
  523THF    H11 9147   3.554   3.718   5.219  2.0992 -1.3561 -1.7937
  523THF    H12 9148   3.554   3.911   5.133 -4.3029 -4.9076 -0.5164
  523THF    H13 9149   3.644   3.863   4.994 -0.7363  1.2859  2.0285
  524THF     O1 9150   0.287   0.958   1.646  0.7691 -0.5923  0.3663
  524THF     C2 9151   0.330   1.007   1.774 -0.3356  1.2453 -0.0603
  524THF     C3 9152   0.247   0.822   1.652 -0.1788 -0.0786 -0.1986
  524THF     H4 9153   0.318   1.111   1.799  1.0555 -1.4301  1.5554
  524THF     H5 9154   0.440   0.984   1.769  0.3714  0.1042 -2.0739
  524THF     H6 9155   0.189   0.802   1.563  0.7866 -0.1445  0.2666
  524THF     H7 9156   0.344   0.754   1.653 -1.0531  0.6743 -1.8416
  524THF     C8 9157   0.166   0.815   1.781  0.1060  0.4439 -0.1564
  524THF     C9 9158   0.254   0.908   1.867 -0.0639 -0.4406  0.4090
  524THF    H10 9159   0.164   0.711   1.813 -3.5194  2.4325  0.9605
  524THF    H11 9160   0.059   0.836   1.778 -0.6503 -0.6920  1.1849
  524THF    H12 9161   0.175   0.962   1.917  1.4631 -0.6497 -0.6615
  524THF    H13 9162   0.314   0.862   1.948 -0.1713  0.7039  2.8438
  525THF     O1 9163   2.758   1.343   3.110 -0.4706  0.2224 -0.0946
  525THF     C2 9164   2.737   1.341   2.971 -0.2925  0.2883  0.0959
  525THF     C3 9165   2.863   1.444   3.136  0.4473 -0.4057 -0.2302
  525THF     H4 9166   2.635   1.369   2.964  1.1757  0.8338 -1.0518
  525THF     H5 9167   2.755   1.248   2.932  2.0737  1.1488 -1.6063
  525THF     H6 9168   2.827   1.493   3.225  0.2105 -1.5841  0.5024
  525THF     H7 9169   2.970   1.406   3.146  0.2442 -1.1372 -0.7372
  525THF     C8 9170   2.868   1.536   3.012  0.1733  0.4734  0.3147
  525THF     C9 9171   2.839   1.437   2.902  0.0910 -0.3082 -0.4375
  525THF    H10 9172   2.965   1.585   2.997 -1.9522 -0.8845  1.0683
  525THF    H11 9173   2.788   1.610   3.025  0.7730  2.0337  0.0804
  525THF    H12 9174   2.792   1.489   2.815  1.4940 -3.1099 -0.7123
  525THF    H13 9175   2.925   1.380   2.862 -2.6016  0.4439 -1.0505
  526THF     O1 9176   4.554   1.589   2.108 -0.3044 -0.4421 -0.0201
  526THF     C2 9177   4.669   1.656   2.164 -0.6699  0.3199 -0.2781
  526THF     C3 9178   4.506   1.510   2.212 -0.2028  0.3054 -0.2224
  526THF     H4 9179   4.697   1.743   2.106 -2.6980  3.9725 -0.6523
  526THF     H5 9180   4.755   1.594   2.187  0.4621 -1.4242  0.8510
  526THF     H6 9181   4.407   1.474   2.186  0.7210  0.5127 -0.4757
  526THF     H7 9182   4.559   1.416   2.239  1.1320  1.5641 -0.8590
  526THF     C8 9183   4.521   1.594   2.340 -0.9293 -0.2394 -0.0482
  526THF     C9 9184   4.610   1.710   2.294 -0.6806 -0.1532  0.1949
  526THF    H10 9185   4.565   1.550   2.434 -0.3470 -0.3385  0.8811
  526THF    H11 9186   4.427   1.633   2.375 -3.1808  2.0133 -1.4725
  526THF    H12 9187   4.552   1.794   2.265 -0.2451  0.2286 -4.4512
  526THF    H13 9188   4.695   1.742   2.363  1.4651  0.3640 -1.6514
  527THF     O1 9189   2.554   0.669   5.279 -0.0953 -0.0388  0.1470
  527THF     C2 9190   2.612   0.538   5.300  0.3203 -0.0113  0.5497
  527THF     C3 9191   2.461   0.699   5.384  0.0014 -0.0175  0.0462
  527THF     H4 9192   2.717   0.517   5.280 -1.3173 -0.1579 -0.6945
  527THF     H5 9193   2.568   0.455   5.240  0.7398 -0.1306  4.0765
  527THF     H6 9194   2.456   0.807   5.417  2.6342  1.9226  0.2900
  527THF     H7 9195   2.362   0.647   5.365 -0.1214  1.5822  0.9993
  527THF     C8 9196   2.518   0.639   5.511 -0.2365  0.0722  0.5880
  527THF     C9 9197   2.569   0.510   5.449 -0.4887  0.8220 -0.5600
  527THF    H10 9198   2.447   0.624   5.592  2.6069 -1.7349 -3.0314
  527THF    H11 9199   2.607   0.693   5.540  2.1644  1.2351 -1.9814
  527THF    H12 9200   2.651   0.462   5.513 -2.2532 -0.7570  1.4395
  527THF    H13 9201   2.489   0.440   5.442  0.8372 -1.9110  1.7999
  528THF     O1 9202   2.131   1.889   2.292  0.4539 -0.0574 -0.1030
  528THF     C2 9203   2.131   1.969   2.173 -1.1476 -0.3040 -0.4867
  528THF     C3 9204   2.265   1.877   2.339 -0.6280  0.2557  0.7991
  528THF     H4 9205   2.040   2.007   2.135 -1.0740  2.4319 -1.2228
  528THF     H5 9206   2.174   1.927   2.080  0.6497 -1.8459  0.3514
  528THF     H6 9207   2.263   1.866   2.441 -3.9441 -0.4892 -2.5539
  528THF     H7 9208   2.313   1.798   2.285  0.3594  0.7312  0.4815
  528THF     C8 9209   2.332   2.007   2.293  0.4622  0.1440  0.3310
  528THF     C9 9210   2.230   2.079   2.213 -0.3038  0.1732 -0.2524
  528THF    H10 9211   2.432   1.974   2.250  1.6660 -2.5130  0.0767
  528THF    H11 9212   2.356   2.066   2.375 -1.5715 -0.5567  0.5190
  528THF    H12 9213   2.188   2.157   2.274 -1.3373 -0.9687  0.2608
  528THF    H13 9214   2.272   2.131   2.134 -1.7492 -1.4858 -1.4248
  529THF     O1 9215   1.003   5.191   0.663 -0.0151 -0.4275 -0.2922
  529THF     C2 9216   0.973   5.222   0.530 -0.2994  0.1992 -0.5301
  529THF     C3 9217   1.018   5.056   0.679  0.5837  0.3391 -0.3128
  529THF     H4 9218   1.071   5.221   0.478  0.3336 -2.5256  0.9370
  529THF     H5 9219   0.919   5.312   0.519 -0.2974 -3.5100  2.2075
  529THF     H6 9220   1.119   5.035   0.686 -0.6951  0.4342  0.5803
  529THF     H7 9221   0.972   5.024   0.773 -0.9750 -1.5799 -0.7687
  529THF     C8 9222   0.959   4.989   0.554  0.2309  0.7530  0.1439
  529THF     C9 9223   0.884   5.102   0.492 -0.1745  0.2623 -0.3078
  529THF    H10 9224   0.892   4.904   0.579 -1.0245  1.1899  0.4881
  529THF    H11 9225   1.040   4.955   0.487  2.9756 -1.9635 -2.1939
  529THF    H12 9226   0.856   5.088   0.390  0.2112 -0.2179  1.5063
  529THF    H13 9227   0.787   5.111   0.545  1.5627  1.1539  1.1024
  530THF     O1 9228   1.133   3.001   3.734 -0.6338  0.2577  0.1691
  530THF     C2 9229   1.212   3.004   3.617  0.1252 -0.2097 -0.6277
  530THF     C3 9230   1.196   3.080   3.825 -0.9930 -0.0049  0.5344
  530THF     H4 9231   1.171   3.072   3.542  1.9732 -0.7523 -1.4711
  530THF     H5 9232   1.217   2.903   3.570 -0.9815  1.4774 -1.6490
  530THF     H6 9233   1.184   3.190   3.800  1.3278  0.6659  2.3811
  530THF     H7 9234   1.162   3.056   3.927  0.5104  2.0396  0.0866
  530THF     C8 9235   1.339   3.046   3.808  0.0581 -0.4392  0.1749
  530THF     C9 9236   1.354   3.041   3.657  0.3703  0.4280  0.7108
  530THF    H10 9237   1.351   2.944   3.840  1.7442  1.4313 -1.3913
  530THF    H11 9238   1.402   3.115   3.860 -2.6042 -0.5472  0.5850
  530THF    H12 9239   1.389   3.141   3.625  0.6707  0.7591  1.0735
  530THF    H13 9240   1.425   2.955   3.638 -0.9899 -0.1501  1.7446
  531THF     O1 9241   1.778   2.070   1.435  0.4127 -0.1827 -0.3046
  531THF     C2 9242   1.795   2.182   1.341 -0.6575 -0.1882 -0.6979
  531THF     C3 9243   1.840   2.108   1.556  0.2758  0.3184  0.6901
  531THF     H4 9244   1.720   2.254   1.369  0.3402 -1.5885 -1.9990
  531THF     H5 9245   1.777   2.135   1.244  2.1429 -1.6877  1.1937
  531THF     H6 9246   1.765   2.159   1.617 -0.8455 -0.5993 -0.4171
  531THF     H7 9247   1.886   2.028   1.611  0.5452  1.2456 -0.8595
  531THF     C8 9248   1.944   2.217   1.522 -0.4106  0.9740 -0.7394
  531THF     C9 9249   1.943   2.215   1.370 -0.3528 -0.1229  0.5122
  531THF    H10 9250   2.050   2.204   1.564  3.9276 -0.8562  0.6883
  531THF    H11 9251   1.911   2.310   1.564  1.9801 -3.0319  0.7964
  531THF    H12 9252   1.962   2.316   1.330 -1.8720  0.4392  0.7802
  531THF    H13 9253   1.997   2.141   1.311 -1.4224  2.2480 -1.0118
  532THF     O1 9254   2.987   0.623   5.325 -0.0234 -0.3584 -1.0019
  532THF     C2 9255   2.946   0.711   5.432 -0.6425  0.5196 -0.8411
  532THF     C3 9256   3.111   0.655   5.267  0.6678 -0.4567 -0.2308
  532THF     H4 9257   2.943   0.650   5.529 -1.4813  0.7818  2.6608
  532THF     H5 9258   2.842   0.744   5.415 -1.8448 -0.7869 -2.2703
  532THF     H6 9259   3.172   0.566   5.254 -0.2215  0.3803  1.6547
  532THF     H7 9260   3.091   0.710   5.172 -1.4674 -0.6887 -1.5985
  532THF     C8 9261   3.181   0.746   5.374  0.4774  0.1896  0.7156
  532THF     C9 9262   3.060   0.818   5.437  1.0507 -0.0866 -0.3820
  532THF    H10 9263   3.254   0.822   5.332  1.8263  2.5016  1.0600
  532THF    H11 9264   3.223   0.681   5.448 -2.3527  0.6518 -1.0217
  532THF    H12 9265   3.082   0.868   5.533  1.0523 -0.0210 -0.8049
  532THF    H13 9266   3.025   0.904   5.377  1.9517  4.1252  0.6961
  533THF     O1 9267   0.108   5.468   5.365 -0.3786 -0.1382 -0.0334
  533THF     C2 9268   0.037   5.358   5.312  0.0983 -0.0769  0.2463
  533THF     C3 9269   0.140   5.554   5.252  0.1168  0.8634  0.3583
  533THF     H4 9270  -0.017   5.317   5.395  0.3845 -0.1899  2.7490
  533THF     H5 9271   0.112   5.291   5.268 -0.9754 -1.9209  0.2190
  533THF     H6 9272   0.166   5.651   5.278  0.7583 -0.7644 -0.8194
  533THF     H7 9273   0.226   5.525   5.189 -1.9883 -0.1367 -1.1673
  533THF     C8 9274   0.016   5.551   5.160 -0.4202 -0.0643  0.7092
  533THF     C9 9275  -0.054   5.419   5.198 -1.2777 -0.3303 -0.4377
  533THF    H10 9276   0.036   5.552   5.054 -1.7446 -0.7820  0.8134
  533THF    H11 9277  -0.049   5.639   5.185 -0.8226 -2.8728 -0.4291
  533THF    H12 9278  -0.157   5.437   5.225 -1.6859  0.9804  1.2278
  533THF    H13 9279  -0.047   5.358   5.110 -0.1213  0.8780 -3.8828
  534THF     O1 9280   2.107   4.959   2.589 -0.3587 -0.3500 -0.2819
  534THF     C2 9281   1.973   4.934   2.611 -0.3830 -0.5069 -0.2965
  534THF     C3 9282   2.183   4.880   2.681 -0.3254  0.2119 -0.6272
  534THF     H4 9283   1.948   4.836   2.573 -0.6173  0.0351 -0.5042
  534THF     H5 9284   1.913   5.008   2.553 -0.8420  0.1633  2.8356
  534THF     H6 9285   2.188   4.781   2.646 -0.1995  1.5190  2.3483
  534THF     H7 9286   2.285   4.913   2.705  2.0958 -1.5645 -0.7472
  534THF     C8 9287   2.088   4.892   2.808  0.6291  0.2320  0.4543
  534THF     C9 9288   1.958   4.943   2.757  0.5934 -0.5207  0.4755
  534THF    H10 9289   2.127   4.964   2.880  0.9308  0.2642  0.7287
  534THF    H11 9290   2.056   4.797   2.856 -1.3634 -0.2194 -0.6594
  534THF    H12 9291   1.864   4.898   2.790  0.3738  1.4220  2.0398
  534THF    H13 9292   1.949   5.053   2.784 -2.0331  0.6772 -0.1956
  535THF     O1 9293   4.203   2.887   0.781  0.0113  0.0920 -0.0748
  535THF     C2 9294   4.190   2.900   0.644  0.2577  0.2759 -0.2409
  535THF     C3 9295   4.338   2.888   0.825  0.0983 -0.2888 -0.7558
  535THF     H4 9296   4.188   3.004   0.618  0.5895  1.1301  3.2900
  535THF     H5 9297   4.094   2.860   0.611 -1.6066 -1.3047 -0.3768
  535THF     H6 9298   4.362   2.988   0.864  3.3299 -0.6244 -3.7352
  535THF     H7 9299   4.354   2.816   0.910 -0.2140 -3.4999 -1.0915
  535THF     C8 9300   4.417   2.859   0.697  0.2907  0.2749  0.0571
  535THF     C9 9301   4.310   2.830   0.589 -0.0692  0.1430  0.5620
  535THF    H10 9302   4.467   2.769   0.722  1.0182 -0.8058  1.6772
  535THF    H11 9303   4.478   2.937   0.660  2.9427 -0.8717 -0.4165
  535THF    H12 9304   4.323   2.858   0.484  2.6976 -1.4460  0.6014
  535THF    H13 9305   4.283   2.723   0.598  1.6166  0.2131  1.0180
  536THF     O1 9306   3.384   0.543   5.078  0.4241  0.7680 -0.3421
  536THF     C2 9307   3.463   0.465   4.990 -0.0363 -0.2089  0.1810
  536THF     C3 9308   3.429   0.677   5.096 -0.4611  0.0302  0.1467
  536THF     H4 9309   3.410   0.399   4.916 -0.2717  1.4161 -2.9211
  536THF     H5 9310   3.539   0.417   5.048 -2.5990  2.1174  1.0538
  536THF     H6 9311   3.360   0.751   5.053 -0.6580  0.0931  1.9548
  536THF     H7 9312   3.436   0.713   5.202  1.4697  1.5432  0.1842
  536THF     C8 9313   3.567   0.680   5.020  0.3981  0.5655 -0.1094
  536THF     C9 9314   3.544   0.571   4.914  0.4094 -0.4835 -0.0945
  536THF    H10 9315   3.651   0.655   5.081 -0.7660 -1.4101 -1.1253
  536THF    H11 9316   3.587   0.783   4.990  1.7217  3.5134  1.5103
  536THF    H12 9317   3.490   0.606   4.831  1.7179 -0.6452  1.2213
  536THF    H13 9318   3.640   0.540   4.861 -0.7136 -1.0569 -3.0220
  537THF     O1 9319   0.733   1.494   2.566  0.0155 -0.4272 -0.0628
  537THF     C2 9320   0.743   1.631   2.576  0.1528  0.1553 -0.2802
  537THF     C3 9321   0.697   1.466   2.429  0.1835 -0.4058  0.1795
  537THF     H4 9322   0.823   1.659   2.512 -2.0257 -1.2506 -1.2280
  537THF     H5 9323   0.766   1.653   2.676  0.9998  0.7304 -1.8132
  537THF     H6 9324   0.784   1.484   2.358  0.6331  1.7399  0.9960
  537THF     H7 9325   0.661   1.364   2.411 -1.7788  2.0855 -1.8353
  537THF     C8 9326   0.588   1.571   2.404  0.2824 -0.1351  0.1178
  537THF     C9 9327   0.620   1.683   2.512 -0.3971  0.5007 -0.8815
  537THF    H10 9328   0.488   1.526   2.420  0.0001  3.0768  0.8247
  537THF    H11 9329   0.599   1.609   2.299 -0.5498  2.0918  2.5827
  537THF    H12 9330   0.638   1.781   2.465 -1.0519  0.1483  1.6025
  537THF    H13 9331   0.536   1.676   2.583  0.3008  1.2645  1.8884
  538THF     O1 9332   0.981   3.378   4.443  0.4641  0.4586 -0.2237
  538THF     C2 9333   0.895   3.264   4.448  0.3268  0.1715 -0.5718
  538THF     C3 9334   0.953   3.446   4.324  0.9120  0.1550 -0.8142
  538THF     H4 9335   0.796   3.303   4.471  0.9014 -0.4703 -1.1458
  538THF     H5 9336   0.927   3.191   4.521 -0.4312  1.9333  1.1032
  538THF     H6 9337   0.858   3.501   4.345 -1.1137 -2.0625  2.9085
  538THF     H7 9338   1.028   3.518   4.292 -0.3203  0.3225  0.2743
  538THF     C8 9339   0.936   3.328   4.226  0.3796  0.4007 -0.6070
  538THF     C9 9340   0.894   3.210   4.310  0.8732  0.7889 -0.6497
  538THF    H10 9341   1.032   3.321   4.182 -1.0200  0.0248 -0.2260
  538THF    H11 9342   0.851   3.347   4.157 -0.3419  2.4708 -0.9242
  538THF    H12 9343   0.793   3.184   4.290 -4.5651  0.0376  0.6725
  538THF    H13 9344   0.959   3.123   4.302  0.7145  1.7373  0.5010
  539THF     O1 9345   5.441   1.149   2.972 -0.5035 -0.0291 -0.5642
  539THF     C2 9346   5.541   1.180   3.068 -0.0041 -0.1057  0.1453
  539THF     C3 9347   5.348   1.074   3.048  0.0654 -0.2976  0.9306
  539THF     H4 9348   5.510   1.251   3.138 -0.6672 -1.6653 -1.4336
  539THF     H5 9349   5.624   1.220   3.007  0.8154  1.1896  0.0786
  539THF     H6 9350   5.284   1.149   3.094  0.0571 -0.1303 -0.4999
  539THF     H7 9351   5.271   1.012   2.987 -0.5214 -2.3512  0.3945
  539THF     C8 9352   5.418   0.983   3.143 -0.2263 -0.0208  0.2900
  539THF     C9 9353   5.554   1.057   3.154  0.0861  0.5918  0.0194
  539THF    H10 9354   5.424   0.887   3.103  3.5833 -0.1936 -1.7781
  539THF    H11 9355   5.377   0.977   3.237 -0.4791  2.4889 -0.9883
  539THF    H12 9356   5.599   1.071   3.253  2.6777  0.9387 -0.2155
  539THF    H13 9357   5.634   0.989   3.115  1.1170  1.3460  0.7226
  540THF     O1 9358   0.450   1.214   4.908 -0.2140  0.2206 -0.5256
  540THF     C2 9359   0.562   1.249   4.825  0.5246  0.0191 -0.5651
  540THF     C3 9360   0.330   1.209   4.825 -0.6830  0.1175  0.1969
  540THF     H4 9361   0.641   1.178   4.835  1.8288 -0.8466  1.8667
  540THF     H5 9362   0.599   1.344   4.862 -2.2799 -1.2534 -0.8506
  540THF     H6 9363   0.255   1.143   4.871 -0.0171  1.2610 -2.1053
  540THF     H7 9364   0.286   1.309   4.813 -0.0156 -3.1688  0.3632
  540THF     C8 9365   0.391   1.155   4.693 -0.2100 -0.1845 -0.2032
  540THF     C9 9366   0.513   1.243   4.684  0.4234  0.0259  0.1740
  540THF    H10 9367   0.325   1.181   4.615 -1.2623 -0.5050  0.2591
  540THF    H11 9368   0.415   1.047   4.686  1.5433 -2.1119 -1.2582
  540THF    H12 9369   0.583   1.202   4.606 -3.2417  1.4256 -3.0092
  540THF    H13 9370   0.495   1.347   4.651  1.1970  0.4201  1.0214
  541THF     O1 9371   2.175   1.242   4.352  0.1261 -0.1774 -0.0411
  541THF     C2 9372   2.074   1.285   4.265  0.4264  0.5358 -0.5387
  541THF     C3 9373   2.212   1.114   4.303  0.2197  0.6417 -0.0750
  541THF     H4 9374   2.109   1.314   4.162  0.0142  0.6770  0.2955
  541THF     H5 9375   2.028   1.368   4.305 -0.0348 -2.3758 -1.1969
  541THF     H6 9376   2.278   1.130   4.221 -2.3175 -1.1863  0.5991
  541THF     H7 9377   2.271   1.051   4.373 -0.4990 -1.5187  0.4139
  541THF     C8 9378   2.081   1.042   4.263  0.1859 -0.2071  0.6707
  541THF     C9 9379   1.981   1.159   4.255  0.2155  0.2515 -0.7952
  541THF    H10 9380   2.051   0.973   4.340 -2.6011 -0.1829  0.2931
  541THF    H11 9381   2.103   0.985   4.168 -2.1621 -1.9541 -0.1990
  541THF    H12 9382   1.932   1.155   4.161 -0.8978  0.0866 -0.7290
  541THF    H13 9383   1.901   1.172   4.324 -2.7262  0.4597  1.1621
  542THF     O1 9384   2.685   3.630   0.271  0.2114 -0.0341 -0.0249
  542THF     C2 9385   2.557   3.575   0.277  0.4323  0.2804  0.1596
  542THF     C3 9386   2.728   3.652   0.405 -0.2576 -0.0540 -0.1667
  542THF     H4 9387   2.558   3.480   0.218  1.2827 -0.1041  0.7411
  542THF     H5 9388   2.479   3.641   0.236  0.8556 -1.4403 -3.3678
  542THF     H6 9389   2.842   3.648   0.410  0.6024  0.1235  0.6859
  542THF     H7 9390   2.694   3.754   0.433  2.0549 -0.9654  0.7128
  542THF     C8 9391   2.671   3.537   0.481 -0.3049  1.0535 -0.2925
  542THF     C9 9392   2.528   3.525   0.421 -0.7198  0.4609  0.2174
  542THF    H10 9393   2.659   3.559   0.585 -0.0648  0.5766  0.3854
  542THF    H11 9394   2.726   3.434   0.464  1.1812 -1.7773 -0.4765
  542THF    H12 9395   2.496   3.424   0.424  3.2785 -1.9577 -1.4259
  542THF    H13 9396   2.458   3.583   0.483  0.7502 -1.9532  2.7010
  543THF     O1 9397   0.868   4.935   4.553 -0.7265 -0.7463  0.0970
  543THF     C2 9398   0.959   4.886   4.465 -0.0273  0.6376  0.0208
  543THF     C3 9399   0.943   5.026   4.634 -0.7063  0.3128 -0.1857
  543THF     H4 9400   0.899   4.846   4.384  1.6310  0.3170 -2.8100
  543THF     H5 9401   1.016   4.813   4.523  1.5802 -2.9891 -0.6771
  543THF     H6 9402   0.876   5.091   4.683 -0.4317  0.7232  0.0407
  543THF     H7 9403   0.991   4.962   4.711  0.3815 -0.7967 -1.2458
  543THF     C8 9404   1.051   5.093   4.549 -0.2478  0.6383  0.2530
  543THF     C9 9405   1.051   5.002   4.430  0.2327  0.6278 -0.6135
  543THF    H10 9406   1.147   5.093   4.599  1.1884 -1.1365  0.4057
  543THF    H11 9407   1.030   5.194   4.514 -0.2560 -0.1269 -0.0080
  543THF    H12 9408   1.012   5.057   4.344  1.8746 -1.3211  1.5140
  543THF    H13 9409   1.154   4.970   4.403  2.1557 -1.4411 -1.2082
  544THF     O1 9410   0.593   4.751   2.740  0.1971 -0.4129 -0.5945
  544THF     C2 9411   0.735   4.764   2.737 -0.0855  0.1568 -0.3676
  544THF     C3 9412   0.559   4.660   2.855 -0.3383 -0.1251  0.0998
  544THF     H4 9413   0.767   4.850   2.673 -0.9499 -0.3491 -0.5597
  544THF     H5 9414   0.770   4.674   2.691  1.3981  0.4974  2.0819
  544THF     H6 9415   0.464   4.678   2.899 -1.1918 -0.1410  1.7898
  544THF     H7 9416   0.561   4.546   2.838  0.9298 -2.9444  3.2795
  544THF     C8 9417   0.669   4.698   2.950  0.3751 -0.0843 -0.6437
  544THF     C9 9418   0.780   4.763   2.878  0.4255 -0.1813  0.6735
  544THF    H10 9419   0.706   4.615   3.015  3.5344 -1.1983  1.0149
  544THF    H11 9420   0.629   4.779   3.008 -0.5435 -1.6242 -3.0984
  544THF    H12 9421   0.825   4.854   2.911  1.0118 -1.8820  1.6144
  544THF    H13 9422   0.870   4.704   2.881 -0.6019  0.3881  0.2908
  545THF     O1 9423   0.428   2.470   5.451  0.6554  0.1792 -0.2070
  545THF     C2 9424   0.387   2.476   5.590  0.2545  0.1480 -0.4472
  545THF     C3 9425   0.358   2.360   5.388 -0.1291  0.3902  1.3401
  545THF     H4 9426   0.400   2.584   5.625 -2.0162 -0.3381  0.2324
  545THF     H5 9427   0.449   2.406   5.650  0.1494 -1.0131 -2.3397
  545THF     H6 9428   0.352   2.366   5.284 -1.1078  0.7873 -0.1382
  545THF     H7 9429   0.402   2.265   5.425 -2.1267 -0.7406 -0.8344
  545THF     C8 9430   0.220   2.367   5.445  0.6448 -0.0965  0.2900
  545THF     C9 9431   0.235   2.427   5.584  0.0105 -0.2217  0.2757
  545THF    H10 9432   0.180   2.268   5.452  0.8809 -3.9922  1.7221
  545THF    H11 9433   0.164   2.437   5.387  3.1552  2.2269  1.8206
  545THF    H12 9434   0.180   2.522   5.587  1.9328  0.4358 -0.9844
  545THF    H13 9435   0.202   2.365   5.659  2.7999 -1.6776  1.9851
  546THF     O1 9436   2.982   3.137   1.960 -0.2932 -0.1939  0.0149
  546THF     C2 9437   2.872   3.222   1.928 -0.0491  0.0316  0.0667
  546THF     C3 9438   3.031   3.180   2.091  0.7620  0.4093 -0.0600
  546THF     H4 9439   2.800   3.167   1.871 -1.8082 -1.7868  2.2056
  546THF     H5 9440   2.911   3.303   1.880 -0.6706 -2.4290  3.3653
  546THF     H6 9441   3.106   3.109   2.132  1.0891  0.2482 -0.7891
  546THF     H7 9442   3.079   3.279   2.087  1.4177  1.7927  0.2996
  546THF     C8 9443   2.895   3.195   2.164 -0.6649  0.1618  0.6598
  546THF     C9 9444   2.806   3.255   2.063  0.0709 -0.1699 -0.7654
  546THF    H10 9445   2.912   3.257   2.246  2.2071 -2.5523  0.9734
  546THF    H11 9446   2.859   3.098   2.201  0.3569  2.0384  0.4009
  546THF    H12 9447   2.701   3.223   2.071 -2.2371  0.5974  2.3344
  546THF    H13 9448   2.812   3.364   2.072  0.0653 -2.1648  0.3333
  547THF     O1 9449   1.405   1.855   0.726 -0.0975 -0.4202  0.1478
  547THF     C2 9450   1.433   1.994   0.704  0.1336 -0.1545 -0.0696
  547THF     C3 9451   1.479   1.772   0.638  0.4009 -0.1589 -0.1513
  547THF     H4 9452   1.449   2.043   0.800 -0.0116  1.6663  1.2233
  547THF     H5 9453   1.347   2.038   0.667  0.8391  1.4505  0.1013
  547THF     H6 9454   1.571   1.743   0.689  1.5201 -0.8038 -0.6930
  547THF     H7 9455   1.418   1.684   0.605 -0.2030  1.5800  1.0434
  547THF     C8 9456   1.524   1.864   0.523  0.5083  0.1756 -0.1061
  547THF     C9 9457   1.550   1.995   0.600  0.5451  0.3711  0.3345
  547THF    H10 9458   1.437   1.872   0.454  0.5799  0.8824  0.5385
  547THF    H11 9459   1.619   1.837   0.474  2.8569  0.0286 -2.4608
  547THF    H12 9460   1.637   1.973   0.659 -3.5433  2.7809 -0.8349
  547THF    H13 9461   1.572   2.087   0.550  3.4324  0.4908  1.9050
  548THF     O1 9462   3.370   3.837   0.181  0.2871 -0.1429  0.2922
  548THF     C2 9463   3.234   3.827   0.175  0.9164 -0.2925  0.3291
  548THF     C3 9464   3.402   3.843   0.314  0.2472 -0.3081 -0.4161
  548THF     H4 9465   3.204   3.780   0.076 -0.8230 -1.9459 -0.5909
  548THF     H5 9466   3.181   3.924   0.170 -0.2253 -1.0321 -0.2299
  548THF     H6 9467   3.505   3.831   0.323  1.7131  0.4690  1.9175
  548THF     H7 9468   3.375   3.935   0.361  0.2787  0.0307  1.2183
  548THF     C8 9469   3.320   3.725   0.370 -1.1644  0.4256 -0.2807
  548THF     C9 9470   3.190   3.736   0.292 -0.2626 -0.0401 -1.1141
  548THF    H10 9471   3.320   3.726   0.479 -1.8623  0.0406  1.0475
  548THF    H11 9472   3.364   3.628   0.345  1.0526  0.5340 -0.0069
  548THF    H12 9473   3.146   3.643   0.244 -1.2987 -1.8939 -2.4666
  548THF    H13 9474   3.109   3.790   0.344 -1.1655 -1.8527 -0.8084
  549THF     O1 9475   1.720   3.135   1.817 -0.5952  0.1055  0.4595
  549THF     C2 9476   1.824   3.039   1.777  0.0248 -0.2343  0.4841
  549THF     C3 9477   1.599   3.086   1.770 -0.2943  0.0077  0.1046
  549THF     H4 9478   1.902   3.052   1.844 -1.1969 -2.0038  2.8400
  549THF     H5 9479   1.862   3.045   1.678 -1.5178 -0.5173  1.5625
  549THF     H6 9480   1.512   3.139   1.806  1.9150  0.3791 -0.1727
  549THF     H7 9481   1.592   3.091   1.664 -1.1353  2.9836  0.6201
  549THF     C8 9482   1.605   2.946   1.825 -1.1006  0.2857  0.5467
  549THF     C9 9483   1.751   2.912   1.798  0.1296 -0.0598 -0.5443
  549THF    H10 9484   1.538   2.869   1.783  2.1095 -3.1865  1.9493
  549THF    H11 9485   1.580   2.956   1.937 -1.8861 -2.9752  3.0540
  549THF    H12 9486   1.795   2.848   1.872 -0.0572 -2.3721 -1.8125
  549THF    H13 9487   1.768   2.844   1.716  0.0520  1.2378  1.7799
  550THF     O1 9488   1.333   3.460   3.938 -0.1087 -0.3474 -0.5169
  550THF     C2 9489   1.442   3.555   3.951 -0.4948 -0.0048  0.0496
  550THF     C3 9490   1.236   3.486   4.039  0.6058 -0.1327  0.0968
  550THF     H4 9491   1.498   3.568   3.859 -1.2364 -0.2858 -1.2348
  550THF     H5 9492   1.516   3.522   4.024  0.3604 -2.0339  0.3273
  550THF     H6 9493   1.137   3.453   3.994 -0.7855  0.0393  0.1059
  550THF     H7 9494   1.254   3.427   4.137  0.8634 -0.1438  1.8115
  550THF     C8 9495   1.237   3.641   4.055  0.4649  0.2495 -0.1207
  550THF     C9 9496   1.373   3.680   3.997 -0.3963  0.0600 -0.1105
  550THF    H10 9497   1.227   3.656   4.162 -0.2484 -0.5928 -0.9241
  550THF    H11 9498   1.152   3.692   4.003  1.0475  0.9974  0.0997
  550THF    H12 9499   1.360   3.744   3.915 -2.2478 -1.0775  2.8025
  550THF    H13 9500   1.437   3.741   4.054  0.7930 -1.1596 -0.5527
  551THF     O1 9501   1.125   2.027   3.649 -0.2690 -0.7419 -0.4981
  551THF     C2 9502   1.202   2.151   3.647 -0.8506 -0.2192 -0.8753
  551THF     C3 9503   1.222   1.924   3.666  0.5540 -0.1624 -0.0086
  551THF     H4 9504   1.149   2.225   3.705  2.5032 -0.6061 -1.3827
  551THF     H5 9505   1.206   2.183   3.542  1.8189  1.5378 -1.2407
  551THF     H6 9506   1.171   1.849   3.711  0.4794 -1.0900 -0.0387
  551THF     H7 9507   1.257   1.888   3.575  0.7140 -0.8856 -0.9428
  551THF     C8 9508   1.323   1.987   3.765 -0.4010 -0.8631 -0.1560
  551THF     C9 9509   1.342   2.127   3.703 -0.2911  0.2217  0.1764
  551THF    H10 9510   1.419   1.927   3.781  1.2766  2.7041  0.0648
  551THF    H11 9511   1.274   1.987   3.858 -0.7761 -0.5349  2.2120
  551THF    H12 9512   1.371   2.192   3.776 -2.6139  1.2831 -0.4418
  551THF    H13 9513   1.404   2.128   3.617  1.8340 -3.0177  1.0644
  552THF     O1 9514   3.718   3.511   3.200  0.0281 -0.1931  0.4422
  552THF     C2 9515   3.849   3.537   3.244 -0.5863  0.1316  0.3395
  552THF     C3 9516   3.654   3.430   3.302 -0.6992  0.4908 -0.4589
  552THF     H4 9517   3.852   3.639   3.279 -0.6553  0.8852 -0.0747
  552THF     H5 9518   3.919   3.527   3.159 -0.7438 -3.2706  0.1923
  552THF     H6 9519   3.558   3.466   3.333  1.3593  1.6190 -0.2972
  552THF     H7 9520   3.649   3.334   3.246  1.3196  1.4773 -1.3595
  552THF     C8 9521   3.753   3.430   3.424  0.0109 -0.2168 -0.4001
  552THF     C9 9522   3.880   3.442   3.343  0.0728  0.4664 -0.0418
  552THF    H10 9523   3.743   3.347   3.500 -1.3830  0.0809  0.8517
  552THF    H11 9524   3.745   3.528   3.472  0.7777  0.6196  1.4942
  552THF    H12 9525   3.959   3.467   3.411  0.3328  0.1271  1.2444
  552THF    H13 9526   3.905   3.341   3.307 -2.3637 -0.0845  2.2809
  553THF     O1 9527   3.786   3.140   4.886 -0.4875  0.0507 -0.7032
  553THF     C2 9528   3.863   3.233   4.949 -0.0498 -0.7088 -0.5512
  553THF     C3 9529   3.655   3.193   4.876  0.7061  0.3060  0.0778
  553THF     H4 9530   3.911   3.294   4.880  2.1952  0.9509 -0.5242
  553THF     H5 9531   3.942   3.183   5.006  0.4600 -1.8341 -1.5239
  553THF     H6 9532   3.664   3.239   4.775 -2.9573 -0.3052 -1.2038
  553THF     H7 9533   3.578   3.119   4.882  2.6618  0.7498  0.1406
  553THF     C8 9534   3.633   3.294   4.983  0.2790  0.3442 -0.9813
  553THF     C9 9535   3.769   3.293   5.050  0.4990  0.4117 -0.5774
  553THF    H10 9536   3.553   3.273   5.048  0.6874  1.3687 -0.6325
  553THF    H11 9537   3.615   3.392   4.944  1.6710 -2.7294  1.7466
  553THF    H12 9538   3.792   3.395   5.075  0.5951  1.2698  0.3755
  553THF    H13 9539   3.780   3.236   5.130  2.6319  1.8394  0.1107
  554THF     O1 9540   1.033   2.790   1.862 -0.3494 -0.0319  0.1373
  554THF     C2 9541   1.079   2.744   1.991 -0.9238 -0.1706  0.3132
  554THF     C3 9542   1.133   2.881   1.813 -0.0868 -0.3349 -0.0649
  554THF     H4 9543   1.132   2.648   1.971 -1.7705  1.7992 -3.4745
  554THF     H5 9544   0.999   2.722   2.068 -0.2625  0.2036 -1.0997
  554THF     H6 9545   1.210   2.823   1.771  3.4830  1.0574 -0.6993
  554THF     H7 9546   1.101   2.955   1.741  0.7277  1.5233 -1.3049
  554THF     C8 9547   1.189   2.945   1.939  0.8770  0.4275  0.3952
  554THF     C9 9548   1.175   2.848   2.050 -0.0282 -0.3188 -0.0911
  554THF    H10 9549   1.128   3.035   1.959  1.1774 -1.0724  2.4555
  554THF    H11 9550   1.294   2.970   1.918  0.6985 -0.6223  0.7775
  554THF    H12 9551   1.269   2.797   2.075  0.4795  1.0861  1.5469
  554THF    H13 9552   1.128   2.891   2.136  1.1140 -1.3431  1.9949
  555THF     O1 9553   1.152   3.942   2.873 -0.2634 -0.1071 -0.3168
  555THF     C2 9554   1.027   4.001   2.866 -1.2013  0.0342 -0.1118
  555THF     C3 9555   1.159   3.869   3.001  0.2220  0.7734  0.5094
  555THF     H4 9556   1.004   4.020   2.760 -0.3902 -0.4715  1.1575
  555THF     H5 9557   1.025   4.093   2.923  1.0545 -2.5739 -0.4300
  555THF     H6 9558   1.237   3.791   2.996  0.8395 -1.4692  0.3035
  555THF     H7 9559   1.177   3.935   3.081  0.9589  0.3856 -2.3947
  555THF     C8 9560   1.016   3.818   3.016 -0.2770  0.7825 -0.2140
  555THF     C9 9561   0.936   3.891   2.915 -0.6720 -0.4478 -0.0493
  555THF    H10 9562   0.996   3.832   3.124 -0.8740 -1.3604  0.0677
  555THF    H11 9563   1.003   3.709   2.995 -0.8846  1.2152  0.6900
  555THF    H12 9564   0.901   3.822   2.830  2.2255 -2.2810 -1.5995
  555THF    H13 9565   0.846   3.934   2.955  2.1840 -2.2787 -1.9106
  556THF     O1 9566   5.068   2.218   2.855  0.5226 -0.2648 -0.5162
  556THF     C2 9567   5.107   2.206   2.722 -0.3480 -0.2421  0.0474
  556THF     C3 9568   5.034   2.089   2.898 -0.0481 -0.3500  0.4425
  556THF     H4 9569   5.190   2.277   2.712 -1.4953  0.8631  0.1976
  556THF     H5 9570   5.027   2.234   2.651 -1.0751 -0.7782  1.2702
  556THF     H6 9571   5.014   2.084   3.007 -0.3395  2.8341  0.7154
  556THF     H7 9572   4.931   2.053   2.866 -0.1265 -0.4649  0.8039
  556THF     C8 9573   5.130   1.986   2.830  0.1362 -1.2859  0.2272
  556THF     C9 9574   5.162   2.062   2.704 -0.0996  0.4312 -0.8008
  556THF    H10 9575   5.091   1.890   2.813 -0.1772  0.2529 -0.7377
  556THF    H11 9576   5.215   1.979   2.894  1.1905  1.6751  1.2855
  556THF    H12 9577   5.264   2.061   2.705 -0.6217 -2.4045  0.0437
  556THF    H13 9578   5.134   2.011   2.608  0.1422  0.6627 -0.4350
  557THF     O1 9579   5.062   0.019   4.857 -1.0567  0.0774  0.2178
  557THF     C2 9580   4.969   0.124   4.842  0.5072  0.6265 -0.2590
  557THF     C3 9581   5.197   0.062   4.825  0.4585  0.0509  0.1896
  557THF     H4 9582   4.871   0.111   4.896 -4.1168 -1.0611 -0.2643
  557THF     H5 9583   4.954   0.135   4.737  2.3413  0.3297 -1.0232
  557THF     H6 9584   5.278  -0.006   4.864  0.9389  1.3280 -2.3869
  557THF     H7 9585   5.221   0.051   4.720  1.1202  0.6757  2.3331
  557THF     C8 9586   5.198   0.211   4.868  0.0535 -0.1990  0.2070
  557THF     C9 9587   5.048   0.242   4.891  0.7282  0.0095 -0.3166
  557THF    H10 9588   5.254   0.281   4.804 -0.7224 -1.1127  0.3914
  557THF    H11 9589   5.258   0.224   4.961  1.0393 -0.9236  0.2610
  557THF    H12 9590   5.038   0.241   4.997 -0.2407  0.1010 -2.9954
  557THF    H13 9591   5.022   0.338   4.844  0.2058  0.3535  0.5359
  558THF     O1 9592   1.057   0.313   1.119 -0.0723 -0.1384  0.1866
  558THF     C2 9593   0.954   0.407   1.106  0.9965 -0.2605 -0.8603
  558THF     C3 9594   0.992   0.190   1.142 -0.0247 -0.6277  0.3106
  558THF     H4 9595   0.985   0.494   1.052 -0.1164  1.7503  1.4480
  558THF     H5 9596   0.918   0.440   1.203  1.5356 -0.8504  1.7368
  558THF     H6 9597   1.050   0.097   1.143 -0.3302  2.5511  0.8792
  558THF     H7 9598   0.955   0.179   1.242 -2.5499 -0.6797 -1.6520
  558THF     C8 9599   0.876   0.194   1.047  0.8820 -0.5018 -0.6047
  558THF     C9 9600   0.830   0.337   1.048 -0.3175  0.1713  0.0284
  558THF    H10 9601   0.797   0.127   1.093 -1.5310 -1.3375 -1.1578
  558THF    H11 9602   0.903   0.162   0.942  0.8395  0.6340 -0.4592
  558THF    H12 9603   0.801   0.380   0.948  0.0848 -0.1502  0.3981
  558THF    H13 9604   0.749   0.339   1.121  1.8992 -2.7951  0.8899
  559THF     O1 9605   0.282   1.324   3.496  0.5017  0.3236 -0.2434
  559THF     C2 9606   0.261   1.373   3.364 -0.0273  0.5707  0.2637
  559THF     C3 9607   0.373   1.419   3.547 -0.0337 -0.0334 -0.2800
  559THF     H4 9608   0.179   1.446   3.378 -0.0422  1.0073  1.8778
  559THF     H5 9609   0.212   1.303   3.287 -1.1680  2.0690 -2.6262
  559THF     H6 9610   0.320   1.505   3.574  2.2113 -1.4916  1.9729
  559THF     H7 9611   0.416   1.376   3.634 -2.5036 -2.8246 -3.7837
  559THF     C8 9612   0.468   1.456   3.434 -0.1544 -0.2203  0.8406
  559THF     C9 9613   0.388   1.440   3.312  0.5178 -0.0508  0.5074
  559THF    H10 9614   0.545   1.380   3.428 -1.3268  2.2089  0.5445
  559THF    H11 9615   0.519   1.551   3.444 -1.4730 -0.8056  0.3210
  559THF    H12 9616   0.371   1.533   3.262  2.8713 -0.1198 -0.5156
  559THF    H13 9617   0.421   1.375   3.227 -1.0819 -0.8649 -1.7688
  560THF     O1 9618   5.306   4.213   2.830  0.2245 -0.1776 -0.3138
  560THF     C2 9619   5.180   4.224   2.774 -0.3230  0.2880 -0.1199
  560THF     C3 9620   5.307   4.299   2.939  0.4648  0.8919  0.0744
  560THF     H4 9621   5.104   4.162   2.832 -3.5219 -3.4900  0.9307
  560THF     H5 9622   5.179   4.185   2.672  3.0531  2.0903  1.8062
  560THF     H6 9623   5.278   4.245   3.029  1.2080  0.6827 -1.2416
  560THF     H7 9624   5.401   4.349   2.952 -0.9491  1.3248  1.4657
  560THF     C8 9625   5.199   4.396   2.914 -0.0464  0.5493  0.8318
  560THF     C9 9626   5.142   4.368   2.778  0.2487 -0.1722 -0.2297
  560THF    H10 9627   5.229   4.502   2.932  2.1539  0.2596  1.6086
  560THF    H11 9628   5.109   4.378   2.977 -1.2995 -1.7199  0.6868
  560THF    H12 9629   5.037   4.391   2.773 -0.8289 -0.5317  0.9639
  560THF    H13 9630   5.195   4.418   2.701  0.7753  0.0494 -3.0352
  561THF     O1 9631   4.837   4.922   2.913 -0.2316 -0.6932  0.1930
  561THF     C2 9632   4.959   4.863   2.869 -0.2581  0.3820 -0.4546
  561THF     C3 9633   4.855   4.950   3.051 -0.2980  0.6874 -0.5088
  561THF     H4 9634   5.018   4.948   2.838 -1.3508 -0.2734  2.6380
  561THF     H5 9635   4.950   4.793   2.786 -0.4878 -0.3130 -0.4011
  561THF     H6 9636   4.920   5.039   3.075  1.6950 -1.1763 -0.2100
  561THF     H7 9637   4.754   4.966   3.088 -1.4930 -1.8893  0.5733
  561THF     C8 9638   4.931   4.826   3.101 -0.1510 -0.4717  0.2480
  561THF     C9 9639   5.016   4.782   2.985  0.1299 -0.3244 -0.1905
  561THF    H10 9640   4.852   4.758   3.127  0.7924  0.6643  2.4115
  561THF    H11 9641   4.999   4.848   3.181  0.0790  2.5473  1.7327
  561THF    H12 9642   5.120   4.800   3.011 -1.4032  1.9108  1.3658
  561THF    H13 9643   5.013   4.676   2.985 -0.4341 -0.8622  3.0157
  562THF     O1 9644   4.630   1.543   5.467 -0.0018 -0.2686  0.7839
  562THF     C2 9645   4.722   1.565   5.363  1.0283 -0.6217 -0.0062
  562THF     C3 9646   4.503   1.515   5.412 -0.6694 -0.6308 -0.5393
  562THF     H4 9647   4.798   1.488   5.371 -0.2833  2.3785  0.2688
  562THF     H5 9648   4.766   1.666   5.380  1.7808  1.4692  0.8841
  562THF     H6 9649   4.454   1.434   5.468 -0.6252  1.0541 -0.6103
  562THF     H7 9650   4.447   1.608   5.420  0.9283 -0.8568  1.0485
  562THF     C8 9651   4.530   1.484   5.264  0.5931 -0.0556  0.3658
  562THF     C9 9652   4.642   1.567   5.232 -0.0349 -0.6425  0.1412
  562THF    H10 9653   4.447   1.510   5.195 -0.5662  1.1286  0.0333
  562THF    H11 9654   4.570   1.386   5.246 -0.7429 -2.7394 -1.5560
  562THF    H12 9655   4.696   1.531   5.145 -1.8701  1.0006  0.1016
  562THF    H13 9656   4.626   1.668   5.204  3.5949 -0.0365 -2.0450
  563THF     O1 9657   4.891   3.790   1.965  0.0340 -0.1748  0.4829
  563THF     C2 9658   5.010   3.835   1.906  0.2272 -0.3650 -0.7088
  563THF     C3 9659   4.774   3.840   1.893 -0.0981  0.9143 -0.3539
  563THF     H4 9660   5.035   3.778   1.815 -2.0366 -0.1113  2.1676
  563THF     H5 9661   5.094   3.835   1.983  1.2949  0.1426  0.5089
  563THF     H6 9662   4.755   3.773   1.814  1.5889 -0.6838  1.8523
  563THF     H7 9663   4.683   3.829   1.944  0.0117  0.9912 -3.4050
  563THF     C8 9664   4.827   3.986   1.861 -0.0310 -1.3038 -0.5393
  563THF     C9 9665   4.979   3.969   1.857  0.5618 -0.3348  0.7816
  563THF    H10 9666   4.789   4.056   1.940  1.4903 -1.0806  0.7890
  563THF    H11 9667   4.779   4.037   1.776  0.8411  0.2488 -0.0057
  563THF    H12 9668   5.004   3.984   1.749 -1.4370  0.3689 -1.5180
  563THF    H13 9669   5.017   4.049   1.923 -1.1946  1.7348  1.7950
  564THF     O1 9670   3.652   4.526   4.191  0.2789  0.2775 -0.2430
  564THF     C2 9671   3.762   4.614   4.216  0.4177 -0.6963  0.5002
  564THF     C3 9672   3.643   4.442   4.299  0.2920  0.6754  0.0188
  564THF     H4 9673   3.735   4.711   4.184 -0.1100  0.0448  1.6968
  564THF     H5 9674   3.848   4.587   4.155  1.4069 -0.3135 -0.2495
  564THF     H6 9675   3.542   4.441   4.337 -0.6104  1.4862 -0.6093
  564THF     H7 9676   3.659   4.335   4.265 -0.6618 -2.5554 -0.0174
  564THF     C8 9677   3.743   4.480   4.409 -0.5793 -0.1094  0.4473
  564THF     C9 9678   3.795   4.616   4.361  0.0549  0.6993 -0.0456
  564THF    H10 9679   3.822   4.405   4.419 -0.4113  0.9688  4.3420
  564THF    H11 9680   3.702   4.484   4.506  1.5553 -0.5367  0.4357
  564THF    H12 9681   3.744   4.698   4.413 -1.8090 -1.3537 -1.9001
  564THF    H13 9682   3.899   4.626   4.373 -2.2811  1.3768 -2.2211
  565THF     O1 9683   4.079   3.276   1.718  0.7627 -0.0054 -0.0124
  565THF     C2 9684   3.979   3.368   1.668  0.4417  0.2756 -0.7182
  565THF     C3 9685   4.065   3.265   1.856 -0.2092 -0.0621  0.5298
  565THF     H4 9686   3.955   3.359   1.556  1.6044 -1.7112 -1.3313
  565THF     H5 9687   4.016   3.470   1.682  0.1350  0.4019  0.9335
  565THF     H6 9688   4.102   3.164   1.882  4.3099 -0.4388 -0.9365
  565THF     H7 9689   4.122   3.341   1.905  1.6312 -1.2363  0.2178
  565THF     C8 9690   3.915   3.280   1.880 -0.0324 -0.4167 -0.2651
  565THF     C9 9691   3.861   3.340   1.756 -0.0006 -0.3744  0.2669
  565THF    H10 9692   3.902   3.352   1.963 -0.7789  0.0663  1.0932
  565THF    H11 9693   3.855   3.190   1.904  0.4144 -0.7437 -1.5784
  565THF    H12 9694   3.805   3.269   1.692 -0.7624 -0.0071 -2.4115
  565THF    H13 9695   3.794   3.424   1.768  3.0809 -2.7409  0.9254
  566THF     O1 9696   1.288   4.588   4.318 -0.0785 -0.1483 -0.9433
  566THF     C2 9697   1.323   4.678   4.212 -0.0054 -0.2960 -0.5499
  566THF     C3 9698   1.164   4.519   4.285 -0.7234 -0.3216  0.1891
  566THF     H4 9699   1.386   4.635   4.137 -3.3397  1.8862  0.6537
  566THF     H5 9700   1.379   4.761   4.257  1.3919 -0.0522  0.9574
  566THF     H6 9701   1.199   4.429   4.225 -1.2660  0.6406 -1.7948
  566THF     H7 9702   1.124   4.480   4.377 -0.7712  1.1210 -1.4956
  566THF     C8 9703   1.082   4.628   4.219 -0.1457 -0.1698  0.1458
  566THF     C9 9704   1.185   4.720   4.158  0.1170 -0.3097 -0.0089
  566THF    H10 9705   1.029   4.680   4.299  1.9041  0.6174 -0.9039
  566THF    H11 9706   0.996   4.593   4.165  0.9216 -3.8857  0.9429
  566THF    H12 9707   1.190   4.688   4.053 -1.0520 -2.7837  1.2704
  566THF    H13 9708   1.157   4.823   4.174 -0.5994 -2.7847 -0.4945
  567THF     O1 9709   1.822   1.188   3.348  0.1775  0.0806 -0.4268
  567THF     C2 9710   1.762   1.077   3.424  0.1092 -0.2416  0.3019
  567THF     C3 9711   1.806   1.305   3.427 -0.0846 -0.5752  0.6356
  567THF     H4 9712   1.830   0.995   3.418 -0.5388  2.6020 -1.8047
  567THF     H5 9713   1.664   1.066   3.373  0.3167  0.6091 -1.3976
  567THF     H6 9714   1.905   1.322   3.474 -0.2397  0.8308 -0.7132
  567THF     H7 9715   1.770   1.397   3.368 -2.5246 -0.7340 -1.9868
  567THF     C8 9716   1.707   1.271   3.540 -0.4560  0.5570  0.3400
  567THF     C9 9717   1.743   1.127   3.565 -0.0001  0.5186  1.0480
  567THF    H10 9718   1.602   1.276   3.508 -0.3736 -1.3699 -0.0622
  567THF    H11 9719   1.721   1.335   3.631 -0.5183  1.9161 -0.8351
  567THF    H12 9720   1.827   1.114   3.628  1.8563  0.0391 -4.2797
  567THF    H13 9721   1.665   1.078   3.615  1.8924 -1.9566 -0.1435
  568THF     O1 9722   2.381   0.986   4.847  0.5781 -0.1750 -0.3457
  568THF     C2 9723   2.338   1.121   4.833  0.1513 -0.2957 -0.6706
  568THF     C3 9724   2.501   0.982   4.770 -0.0675 -1.0949  0.0331
  568THF     H4 9725   2.414   1.188   4.874  1.4643  2.4917 -0.2664
  568THF     H5 9726   2.246   1.144   4.882  1.7659  2.0670  0.9854
  568THF     H6 9727   2.586   1.017   4.831  0.0595 -1.6990 -1.7304
  568THF     H7 9728   2.517   0.882   4.732 -1.5638 -0.2057 -0.8389
  568THF     C8 9729   2.481   1.075   4.647  0.3588  0.1002 -0.3456
  568THF     C9 9730   2.341   1.142   4.679 -0.2227  0.6949  0.0188
  568THF    H10 9731   2.498   1.033   4.547 -0.6416  0.9056  1.6128
  568THF    H11 9732   2.559   1.152   4.645  1.1716 -0.4960  2.3558
  568THF    H12 9733   2.335   1.249   4.665 -1.7343 -0.0101  2.2377
  568THF    H13 9734   2.259   1.095   4.625 -1.1101 -0.4373 -2.5972
  569THF     O1 9735   4.315   1.978   2.815 -0.2259  0.7113 -0.3654
  569THF     C2 9736   4.452   1.942   2.790 -0.2948  0.2262 -0.4282
  569THF     C3 9737   4.310   2.113   2.779 -0.4018 -0.0178  0.1981
  569THF     H4 9738   4.459   1.913   2.682 -0.3817  1.4748 -0.6174
  569THF     H5 9739   4.477   1.858   2.851 -2.0393  0.0265 -3.2359
  569THF     H6 9740   4.285   2.116   2.682 -0.5090 -2.1766  0.8278
  569THF     H7 9741   4.232   2.164   2.841 -0.3255  0.9208  0.4939
  569THF     C8 9742   4.445   2.183   2.818  0.5403  0.9870  0.0512
  569THF     C9 9743   4.540   2.064   2.818  0.2146 -0.1627 -0.0293
  569THF    H10 9744   4.436   2.217   2.923  1.3184 -1.2469  3.4872
  569THF    H11 9745   4.480   2.261   2.759  1.2447 -0.5597 -2.1999
  569THF    H12 9746   4.619   2.086   2.744 -2.1749 -1.8922 -0.4843
  569THF    H13 9747   4.586   2.053   2.917 -0.1084  1.3455  0.3772
  570THF     O1 9748   3.064   4.235   3.160 -0.3258  0.1049 -0.3574
  570THF     C2 9749   3.174   4.150   3.195  0.3665  0.0403 -0.5539
  570THF     C3 9750   2.964   4.154   3.099  0.1259 -0.5249 -0.1451
  570THF     H4 9751   3.233   4.189   3.272 -1.4340  0.3494  0.6252
  570THF     H5 9752   3.229   4.145   3.105 -0.4453  1.4949  2.1084
  570THF     H6 9753   2.858   4.186   3.104  0.3267  0.5789 -0.0837
  570THF     H7 9754   2.974   4.118   2.996 -1.0040 -0.3390  2.3764
  570THF     C8 9755   2.965   4.031   3.195  0.1711 -0.4307  0.1168
  570THF     C9 9756   3.108   4.022   3.240 -0.3358 -0.4720  0.2608
  570THF    H10 9757   2.937   3.940   3.141 -2.1915 -0.4816  0.3497
  570THF    H11 9758   2.898   4.045   3.282 -4.5095  2.3758  2.0785
  570THF    H12 9759   3.110   4.016   3.354  0.9535  1.6798  1.4001
  570THF    H13 9760   3.166   3.944   3.201  0.9372 -1.4761 -0.9622
  571THF     O1 9761   2.879   2.932   4.457  0.5735  0.2234 -0.1052
  571THF     C2 9762   3.008   2.951   4.509 -0.6338  0.6686 -0.4038
  571THF     C3 9763   2.779   2.967   4.555  0.2885  0.1890  0.7186
  571THF     H4 9764   3.038   3.054   4.493  0.2728  3.0147  2.4845
  571THF     H5 9765   3.082   2.886   4.454  0.9270 -2.5857  1.6033
  571THF     H6 9766   2.721   3.059   4.536  0.9282 -0.3733  0.8510
  571THF     H7 9767   2.702   2.888   4.554 -0.5378  2.7075 -0.7204
  571THF     C8 9768   2.852   2.982   4.691  0.2129  0.0090 -0.1089
  571THF     C9 9769   3.000   2.924   4.665 -0.3753 -0.6438  0.2940
  571THF    H10 9770   2.807   2.912   4.766 -0.9979 -0.4044 -1.7571
  571THF    H11 9771   2.872   3.081   4.723  1.0648 -5.5271 -3.7291
  571THF    H12 9772   3.084   2.982   4.709 -1.2772  1.8902  0.2097
  571THF    H13 9773   3.004   2.815   4.680  2.0524 -1.7875 -0.4745
  572THF     O1 9774   2.492   2.037   4.877 -0.1457  0.1405  0.1160
  572THF     C2 9775   2.511   2.180   4.875 -0.5939 -0.3585  0.7535
  572THF     C3 9776   2.532   1.979   4.755  0.8620 -0.4871  0.4703
  572THF     H4 9777   2.512   2.228   4.971 -0.6812  0.8686 -0.3991
  572THF     H5 9778   2.432   2.231   4.819  0.0746  0.5605 -0.2816
  572THF     H6 9779   2.572   1.883   4.767 -1.5432 -0.1793 -1.0179
  572THF     H7 9780   2.444   1.971   4.683  1.4152  1.3833 -0.1810
  572THF     C8 9781   2.627   2.085   4.702  0.1759  0.2050 -0.7968
  572THF     C9 9782   2.648   2.187   4.812 -0.0212  0.1298  0.0514
  572THF    H10 9783   2.572   2.128   4.617  0.1284  0.0312 -1.7604
  572THF    H11 9784   2.711   2.024   4.661  1.1879 -0.1129  0.2907
  572THF    H12 9785   2.721   2.151   4.880  3.0865 -2.8477 -1.1357
  572THF    H13 9786   2.688   2.274   4.770  0.2935  0.4352  1.5957
  573THF     O1 9787   4.167   1.946   0.771 -0.1317 -0.5218 -0.1506
  573THF     C2 9788   4.172   1.990   0.904 -0.6502 -0.1822  0.6759
  573THF     C3 9789   4.217   2.052   0.686 -0.1760 -0.0413 -0.3348
  573THF     H4 9790   4.178   1.898   0.973  1.5431 -2.3949 -1.4559
  573THF     H5 9791   4.075   2.038   0.908 -0.2442 -1.1406 -0.7570
  573THF     H6 9792   4.243   2.017   0.590 -0.1887  2.8835 -0.2438
  573THF     H7 9793   4.142   2.121   0.675  1.0251 -2.1007 -0.0620
  573THF     C8 9794   4.339   2.094   0.769  0.6357 -0.5281  0.1859
  573THF     C9 9795   4.300   2.074   0.909  0.8053  0.2759 -0.4993
  573THF    H10 9796   4.370   2.193   0.749 -0.6240  1.9462  4.2645
  573THF    H11 9797   4.426   2.032   0.730  1.3040 -0.5832 -1.1827
  573THF    H12 9798   4.376   2.017   0.964  0.2227 -3.4311 -0.2356
  573THF    H13 9799   4.281   2.167   0.960 -3.1476 -1.7073 -1.6047
  574THF     O1 9800   3.021   4.403   2.740  0.0161  0.4624  0.6782
  574THF     C2 9801   2.974   4.523   2.686 -0.3529 -0.2414 -0.0446
  574THF     C3 9802   3.045   4.323   2.630 -0.9883 -0.1579 -0.0556
  574THF     H4 9803   3.014   4.601   2.739 -0.2946 -1.9436 -1.3234
  574THF     H5 9804   2.868   4.536   2.665 -1.7975  0.9310  1.8835
  574THF     H6 9805   3.103   4.237   2.665 -0.5762  0.1075 -1.0836
  574THF     H7 9806   2.955   4.289   2.589 -1.1987 -0.0942  1.7046
  574THF     C8 9807   3.127   4.410   2.536 -0.5726  0.0179  0.0991
  574THF     C9 9808   3.045   4.533   2.543  1.0452  0.1381 -0.5006
  574THF    H10 9809   3.136   4.379   2.427  0.4090 -0.3887  0.7553
  574THF    H11 9810   3.234   4.421   2.572  0.2967  0.1494  0.6503
  574THF    H12 9811   3.111   4.616   2.548  0.2231 -1.8770 -0.1315
  574THF    H13 9812   2.978   4.549   2.451 -1.2795 -2.9707  0.1450
  575THF     O1 9813   2.707   1.966   1.694 -0.1727  0.1508  0.1553
  575THF     C2 9814   2.681   2.009   1.825  0.5715 -0.0257 -0.8449
  575THF     C3 9815   2.582   1.904   1.656  0.5425 -0.0643  0.2798
  575THF     H4 9816   2.629   2.102   1.815 -0.8486 -4.3714 -0.9772
  575THF     H5 9817   2.767   2.022   1.893 -0.1464  1.1927  0.2867
  575THF     H6 9818   2.511   1.981   1.618  0.7583  0.2072 -0.9384
  575THF     H7 9819   2.588   1.840   1.565 -0.8013 -0.4438 -1.8793
  575THF     C8 9820   2.536   1.821   1.773  0.0236 -0.1341  0.0376
  575THF     C9 9821   2.608   1.887   1.890 -0.6000 -0.3173  0.0319
  575THF    H10 9822   2.568   1.719   1.776 -0.0920  0.9491 -0.1743
  575THF    H11 9823   2.422   1.819   1.772 -2.2461 -1.0015 -1.1409
  575THF    H12 9824   2.533   1.915   1.962  4.2749 -2.0460 -1.0294
  575THF    H13 9825   2.676   1.810   1.928  0.2538 -0.1896  1.0714
  576THF     O1 9826   4.301   4.858   1.034  0.3662  0.0537 -0.1894
  576THF     C2 9827   4.206   4.874   1.144 -0.5746 -0.0635 -0.3010
  576THF     C3 9828   4.349   4.995   1.007 -0.6645  0.5831  0.9334
  576THF     H4 9829   4.181   4.780   1.191  2.0585  1.4992 -1.9166
  576THF     H5 9830   4.110   4.908   1.095  0.3665 -1.5873  1.2585
  576THF     H6 9831   4.447   4.999   0.963  0.8057 -0.4874 -2.3097
  576THF     H7 9832   4.284   5.054   0.945 -1.1306 -0.0687 -0.0424
  576THF     C8 9833   4.358   5.057   1.146  0.7775 -0.0787 -0.2092
  576THF     C9 9834   4.259   4.982   1.232 -0.0375  0.3436  0.0467
  576THF    H10 9835   4.327   5.161   1.139  1.6865  0.6550 -1.9339
  576THF    H11 9836   4.456   5.053   1.186 -0.7367 -0.7599 -0.4287
  576THF    H12 9837   4.322   4.927   1.309 -2.1027  0.9128  1.1186
  576THF    H13 9838   4.176   5.045   1.267 -0.6351 -3.3987  1.1683
  577THF     O1 9839   1.239   1.484   1.764  0.5353  0.2216  0.2054
  577THF     C2 9840   1.329   1.582   1.800 -0.4204 -0.2386 -0.1417
  577THF     C3 9841   1.139   1.477   1.866 -0.0803  0.3401 -0.3512
  577THF     H4 9842   1.380   1.612   1.707  0.3687  0.1876 -2.6988
  577THF     H5 9843   1.408   1.561   1.874 -2.6419 -0.9570  0.8734
  577THF     H6 9844   1.045   1.433   1.819  1.7449 -0.9212  0.7708
  577THF     H7 9845   1.153   1.421   1.955 -0.7206 -1.3608 -1.0964
  577THF     C8 9846   1.125   1.624   1.909 -0.2138 -0.7322  0.4160
  577THF     C9 9847   1.243   1.696   1.847 -0.1932 -0.5176  0.0146
  577THF    H10 9848   1.119   1.636   2.020  1.6670 -0.6745 -0.1647
  577THF    H11 9849   1.039   1.677   1.864 -2.0790  1.0576  0.1182
  577THF    H12 9850   1.218   1.751   1.752 -3.6987 -0.1758 -1.2054
  577THF    H13 9851   1.299   1.767   1.906 -1.9531  0.9132 -0.0337
  578THF     O1 9852   2.800   5.240   0.372 -0.3527 -0.4396  0.5690
  578THF     C2 9853   2.852   5.284   0.251 -0.0110 -0.4452  0.5527
  578THF     C3 9854   2.719   5.127   0.348 -0.1214  0.4533  0.7169
  578THF     H4 9855   2.953   5.237   0.230  1.1482 -2.9514  1.1657
  578THF     H5 9856   2.865   5.393   0.261  0.8896 -0.2625 -0.4329
  578THF     H6 9857   2.775   5.030   0.329  0.0003 -0.6320 -0.0524
  578THF     H7 9858   2.659   5.120   0.432  1.2003  1.5129 -1.6762
  578THF     C8 9859   2.641   5.161   0.226 -0.5134 -0.5807 -0.4201
  578THF     C9 9860   2.744   5.245   0.150 -1.2126  0.3760 -0.2421
  578THF    H10 9861   2.558   5.226   0.249  3.4625  0.6279  1.5300
  578THF    H11 9862   2.607   5.072   0.176  1.7250 -0.2006 -2.9386
  578THF    H12 9863   2.797   5.184   0.080  2.3113 -0.3475  0.1421
  578THF    H13 9864   2.699   5.330   0.104 -0.3957 -0.4226 -0.2265
  579THF     O1 9865   0.420   4.831   4.876 -0.0420 -0.8777  0.5308
  579THF     C2 9866   0.324   4.935   4.850  0.3660 -0.1762  0.9292
  579THF     C3 9867   0.421   4.808   5.015  0.1656 -0.1397  0.2133
  579THF     H4 9868   0.289   4.927   4.749 -2.3673 -0.0560  3.0586
  579THF     H5 9869   0.390   5.027   4.857  2.8911  2.7258  0.4853
  579THF     H6 9870   0.454   4.712   5.041  0.7322  0.9463  2.9350
  579THF     H7 9871   0.475   4.886   5.068 -2.1076  0.2477  1.0308
  579THF     C8 9872   0.272   4.817   5.038 -0.9289  0.0395 -0.0514
  579THF     C9 9873   0.213   4.930   4.956 -0.5823 -0.8680 -0.4250
  579THF    H10 9874   0.250   4.827   5.145  0.1595  0.0600 -3.0615
  579THF    H11 9875   0.220   4.731   5.001  1.7526  0.3922  2.0027
  579THF    H12 9876   0.121   4.909   4.909  1.5873  0.7780  0.7318
  579THF    H13 9877   0.200   5.026   5.007  1.6058 -1.9626 -2.3736
  580THF     O1 9878   4.140   1.560   2.256 -0.2561 -0.2405  0.3499
  580THF     C2 9879   4.125   1.670   2.157  0.6423  0.3070 -0.5628
  580THF     C3 9880   4.098   1.443   2.189  0.6494  0.4832  0.4553
  580THF     H4 9881   4.194   1.678   2.076 -2.3197 -1.2971  2.1154
  580THF     H5 9882   4.136   1.770   2.188 -0.6303  2.0648 -2.0374
  580THF     H6 9883   4.189   1.424   2.125  1.3613 -1.1041  1.3748
  580THF     H7 9884   4.069   1.365   2.257 -2.3409  1.1742 -0.4838
  580THF     C8 9885   3.975   1.484   2.109 -0.1143  0.2088  0.9816
  580THF     C9 9886   3.977   1.638   2.105 -0.4847 -0.6095 -0.1400
  580THF    H10 9887   3.887   1.444   2.157  1.0859 -2.8570 -0.9175
  580THF    H11 9888   3.975   1.431   2.011 -1.4966 -1.5291  1.3974
  580THF    H12 9889   3.945   1.680   2.001 -0.2043  0.7868 -0.1191
  580THF    H13 9890   3.897   1.675   2.174 -0.2869  1.5657 -1.1981
  581THF     O1 9891   1.423   1.856   2.305  0.5556 -0.5751 -0.3765
  581THF     C2 9892   1.312   1.915   2.225 -0.0982 -0.2094 -0.2173
  581THF     C3 9893   1.389   1.895   2.436 -0.0790  0.3892 -0.3613
  581THF     H4 9894   1.224   1.854   2.229 -1.0757  1.7383 -0.5751
  581THF     H5 9895   1.332   1.927   2.114  0.9389 -0.9375  2.6403
  581THF     H6 9896   1.308   1.833   2.475 -0.7782  1.8167  0.8365
  581THF     H7 9897   1.468   1.879   2.507 -0.1804 -4.5207  0.9650
  581THF     C8 9898   1.342   2.038   2.428  0.1092 -0.0019 -0.0660
  581THF     C9 9899   1.282   2.048   2.287 -0.4180  0.5876 -0.1662
  581THF    H10 9900   1.429   2.113   2.444 -2.4176  2.2355  1.6899
  581THF    H11 9901   1.269   2.052   2.508  0.5145  0.8385 -3.1263
  581THF    H12 9902   1.176   2.068   2.297  1.5991  2.1653  0.2705
  581THF    H13 9903   1.336   2.127   2.237 -1.0963  0.6973  3.8739
  582THF     O1 9904   3.492   0.639   0.434 -0.3199  0.1835  0.0506
  582THF     C2 9905   3.485   0.624   0.582  0.3602 -0.9557 -0.5163
  582THF     C3 9906   3.357   0.639   0.387  0.2988  0.2921  0.1370
  582THF     H4 9907   3.543   0.708   0.620 -4.5458 -0.4827 -4.2038
  582THF     H5 9908   3.531   0.535   0.621 -1.7196 -0.8168 -2.3644
  582THF     H6 9909   3.348   0.698   0.294  2.5353  1.0400  2.4416
  582THF     H7 9910   3.328   0.531   0.368 -3.1776 -2.5800  0.2608
  582THF     C8 9911   3.269   0.700   0.503  0.2869  0.6091 -0.3281
  582THF     C9 9912   3.332   0.635   0.626 -0.8545 -0.2835  0.5473
  582THF    H10 9913   3.161   0.684   0.487 -0.5029  1.2301 -0.6003
  582THF    H11 9914   3.290   0.807   0.505 -1.9653 -0.1102  0.1586
  582THF    H12 9915   3.319   0.702   0.706  2.1927  0.4294  0.4379
  582THF    H13 9916   3.289   0.536   0.650 -0.7937  1.4195  0.5852
  583THF     O1 9917   0.328   5.378   1.741 -0.4180  0.1306 -0.1051
  583THF     C2 9918   0.228   5.477   1.723 -0.0908  0.1906  0.1796
  583THF     C3 9919   0.427   5.401   1.642  0.3129  0.1110  0.0347
  583THF     H4 9920   0.257   5.569   1.771 -0.7610  2.2363  3.5528
  583THF     H5 9921   0.144   5.434   1.775  0.2063  0.1508  1.8567
  583THF     H6 9922   0.489   5.484   1.672 -2.4675 -0.0283 -2.7205
  583THF     H7 9923   0.489   5.310   1.632  1.9424  1.0314  0.9454
  583THF     C8 9924   0.349   5.448   1.522  0.2096 -0.1445 -0.0424
  583THF     C9 9925   0.216   5.498   1.576  0.0988  0.2608 -0.3507
  583THF    H10 9926   0.322   5.376   1.452  0.5162 -0.8332  0.6941
  583THF    H11 9927   0.410   5.507   1.461 -2.3220  0.1394  2.2321
  583THF    H12 9928   0.184   5.598   1.542  0.6821  1.8856  0.1691
  583THF    H13 9929   0.143   5.429   1.537  0.5651  2.6602 -1.3007
  584THF     O1 9930   5.006   2.659   0.270  0.2595 -0.4318 -0.0154
  584THF     C2 9931   5.074   2.556   0.339  0.1080  0.3694  0.1944
  584THF     C3 9932   5.116   2.733   0.213 -0.6108  0.7077 -0.1975
  584THF     H4 9933   5.112   2.490   0.272 -1.9265 -0.3329 -0.1696
  584THF     H5 9934   5.011   2.496   0.416 -2.6960  1.9031  1.9654
  584THF     H6 9935   5.146   2.677   0.122 -0.5856  0.4040 -0.5697
  584THF     H7 9936   5.084   2.835   0.183  0.6600 -0.7056 -3.3697
  584THF     C8 9937   5.227   2.744   0.320  0.7000 -0.8519  0.4680
  584THF     C9 9938   5.192   2.628   0.417 -0.2874 -0.4964  0.8397
  584THF    H10 9939   5.218   2.835   0.384 -0.5793 -0.3626  0.4145
  584THF    H11 9940   5.316   2.734   0.263  0.2579 -2.0219 -0.2870
  584THF    H12 9941   5.274   2.554   0.411 -0.2721  1.6596 -2.4693
  584THF    H13 9942   5.170   2.663   0.521 -1.7547  0.0498  1.1150
  585THF     O1 9943   2.284   3.563   1.015  0.0080  0.3312  0.7036
  585THF     C2 9944   2.206   3.602   0.904  0.0243  1.0101  0.5191
  585THF     C3 9945   2.420   3.608   0.987 -0.3282 -0.4217  0.0731
  585THF     H4 9946   2.182   3.709   0.910  0.6211  1.4359 -4.2968
  585THF     H5 9947   2.117   3.545   0.900 -1.0372  0.9560 -1.1486
  585THF     H6 9948   2.429   3.704   1.032  0.6717 -0.7936  1.4849
  585THF     H7 9949   2.482   3.543   1.040  0.1880  0.4303 -0.3163
  585THF     C8 9950   2.433   3.588   0.841  0.4089  0.4443 -0.0380
  585THF     C9 9951   2.295   3.563   0.789  0.8150 -0.1582  0.1912
  585THF    H10 9952   2.499   3.503   0.816 -2.4507 -1.7538 -1.8675
  585THF    H11 9953   2.478   3.679   0.793 -1.0326  1.7735  0.6956
  585THF    H12 9954   2.273   3.610   0.695 -3.7383 -1.3005  0.7518
  585THF    H13 9955   2.287   3.453   0.775 -1.1790 -2.5037 -0.8910
  586THF     O1 9956   4.134   0.731   4.959  0.1347  0.4405 -0.1372
  586THF     C2 9957   4.007   0.711   5.029 -0.1005 -0.8216 -0.0454
  586THF     C3 9958   4.186   0.605   4.923  0.3433  0.3825 -0.2530
  586THF     H4 9959   3.940   0.778   4.986 -0.2488 -0.2450 -0.6536
  586THF     H5 9960   4.008   0.744   5.134 -0.0766 -1.7478  1.0156
  586THF     H6 9961   4.268   0.616   4.843  0.3484  1.7988  0.6645
  586THF     H7 9962   4.230   0.555   5.010  0.7708 -0.4499  2.7702
  586THF     C8 9963   4.066   0.517   4.898  0.5896  0.3651  0.1870
  586THF     C9 9964   3.968   0.566   5.003 -0.2769  0.0042 -0.5678
  586THF    H10 9965   4.092   0.412   4.914  0.0937  2.6762  1.7200
  586THF    H11 9966   4.027   0.529   4.793  0.6813 -0.9736 -1.7761
  586THF    H12 9967   3.865   0.571   4.958  1.5754 -2.8850  1.6310
  586THF    H13 9968   3.965   0.495   5.085 -0.8780  0.7315 -2.6044
  587THF     O1 9969   3.774   5.233   4.452 -0.1090  0.0303  0.6371
  587THF     C2 9970   3.856   5.272   4.559 -0.1849  0.9304  0.2807
  587THF     C3 9971   3.644   5.258   4.502  0.3472 -0.3612 -0.0636
  587THF     H4 9972   3.863   5.382   4.547  1.7645 -0.6906  0.5711
  587THF     H5 9973   3.957   5.240   4.539 -1.5686 -1.2569  1.9404
  587THF     H6 9974   3.632   5.368   4.494  0.2073  0.3211 -2.3934
  587THF     H7 9975   3.564   5.209   4.439 -1.2336 -0.2913 -2.1260
  587THF     C8 9976   3.656   5.219   4.649 -0.0258 -0.0632 -0.2518
  587THF     C9 9977   3.799   5.236   4.687 -0.5002 -0.7089 -0.4156
  587THF    H10 9978   3.633   5.112   4.653  0.8613 -3.1823  0.4688
  587THF    H11 9979   3.602   5.292   4.718  0.2870  1.7361  2.6806
  587THF    H12 9980   3.822   5.308   4.769 -0.7357  0.8769  0.1913
  587THF    H13 9981   3.829   5.135   4.715 -0.3128 -0.2601 -0.8407
  588THF     O1 9982   5.417   2.245   2.813  0.3333  0.3768 -0.3361
  588THF     C2 9983   5.503   2.238   2.702 -0.8634 -0.0494  0.5422
  588THF     C3 9984   5.476   2.307   2.926  0.1196 -0.2419 -0.3872
  588THF     H4 9985   5.487   2.331   2.647  0.1008  1.9549  1.7700
  588THF     H5 9986   5.491   2.152   2.633  1.6110  1.6645 -1.3558
  588THF     H6 9987   5.461   2.412   2.917 -3.9910  0.2080  1.5146
  588THF     H7 9988   5.427   2.285   3.021 -3.5527 -1.0746 -0.1209
  588THF     C8 9989   5.619   2.251   2.924 -0.1744  0.1062 -0.0232
  588THF     C9 9990   5.646   2.233   2.775 -0.1174  0.0301  0.3053
  588THF    H10 9991   5.630   2.159   2.984 -2.6949  0.9169 -1.9987
  588THF    H11 9992   5.691   2.327   2.960  0.6225 -0.9875  0.7771
  588THF    H12 9993   5.702   2.311   2.734  1.5680 -0.6668 -0.8338
  588THF    H13 9994   5.697   2.141   2.765 -1.6864  1.1868  0.6503
  589THF     O1 9995   0.606   3.834   4.062  0.5238 -0.6236 -0.6791
  589THF     C2 9996   0.546   3.770   4.170 -0.2902 -0.2395 -0.1927
  589THF     C3 9997   0.749   3.840   4.083  1.0427 -0.5836 -0.0895
  589THF     H4 9998   0.452   3.721   4.147  0.4831 -2.3549 -1.0792
  589THF     H5 9999   0.529   3.846   4.252 -0.0679  1.6317  1.2442
  589THF     H610000   0.793   3.808   3.991  0.6160 -3.1472 -1.0631
  589THF     H710001   0.773   3.943   4.087 -1.9239 -4.1350 -0.4118
  589THF     C810002   0.776   3.754   4.205  0.0441 -0.1761  0.5274
  589THF     C910003   0.654   3.674   4.224  0.1197  0.0509  0.1224
  589THF    H1010004   0.804   3.817   4.291 -1.1947  1.7238 -1.6099
  589THF    H1110005   0.856   3.690   4.188 -0.6010 -1.4702 -1.0426
  589THF    H1210006   0.661   3.578   4.169  0.6023  0.1027 -2.0818
  589THF    H1310007   0.634   3.646   4.333  1.7392  2.4706  1.9404
  590THF     O110008   4.210   3.145   5.027  0.5819 -0.0776 -0.3885
  590THF     C210009   4.300   3.083   5.116 -0.5935  0.0686 -0.4188
  590THF     C310010   4.294   3.194   4.923  1.0434  0.2730  0.2629
  590THF     H410011   4.256   3.027   5.197 -0.0932 -2.3408 -0.5423
  590THF     H510012   4.342   3.165   5.171 -1.2615  0.6214 -0.0926
  590THF     H610013   4.229   3.230   4.845 -0.0224 -2.0906  1.6280
  590THF     H710014   4.348   3.288   4.963 -2.2404  1.5804  1.2543
  590THF     C810015   4.401   3.084   4.903 -0.0715  0.3726 -0.0890
  590THF     C910016   4.397   3.008   5.032  0.7282 -0.4332  0.0098
  590THF    H1010017   4.496   3.122   4.887 -0.8776 -1.2090  0.1414
  590THF    H1110018   4.401   3.017   4.816  1.5900 -1.3644 -0.7818
  590THF    H1210019   4.360   2.908   5.029  1.3757  1.4577 -0.1050
  590THF    H1310020   4.493   3.006   5.081 -0.6377  2.2414  0.9660
  591THF     O110021   4.106   3.066   2.968  0.6535 -0.0558  0.0543
  591THF     C210022   4.077   3.116   2.842  0.0624 -0.2844 -0.1705
  591THF     C310023   4.189   2.944   2.938  0.0067  0.2927  0.0145
  591THF     H410024   4.040   3.220   2.844 -0.6209  0.6680  1.8233
  591THF     H510025   3.994   3.068   2.784 -2.4935  1.7418  1.1935
  591THF     H610026   4.264   2.913   3.012  1.2273 -3.6477 -1.1194
  591THF     H710027   4.133   2.853   2.915  0.0685  0.5512  0.1537
  591THF     C810028   4.268   2.973   2.806 -0.0360 -0.3570  0.6409
  591THF     C910029   4.206   3.105   2.762  0.0436  0.6237 -0.5580
  591THF    H1010030   4.235   2.893   2.734 -2.6447 -0.0199 -1.8107
  591THF    H1110031   4.373   2.965   2.815 -0.6739 -1.1219  0.1430
  591THF    H1210032   4.275   3.188   2.783 -1.0125 -0.0207 -0.1075
  591THF    H1310033   4.192   3.103   2.652  0.0237  1.2920 -0.2676
  592THF     O110034   4.837   2.523   3.781 -0.6664  0.3347  0.1939
  592THF     C210035   4.840   2.638   3.873 -0.2223 -0.3457  0.4195
  592THF     C310036   4.711   2.526   3.721  0.4406  0.6283  0.2548
  592THF     H410037   4.861   2.731   3.823 -2.8763 -0.8728 -3.8283
  592THF     H510038   4.907   2.632   3.956  0.6399  0.0194  2.8604
  592THF     H610039   4.705   2.607   3.655 -0.7330 -3.4454  1.9889
  592THF     H710040   4.699   2.428   3.677  1.2891  4.1887  2.0707
  592THF     C810041   4.618   2.534   3.845 -0.1314 -0.3414  0.6828
  592THF     C910042   4.693   2.648   3.926  0.3299  0.7344 -0.3076
  592THF    H1010043   4.612   2.434   3.899  1.7801  1.4750  0.3331
  592THF    H1110044   4.509   2.555   3.813  0.8896 -1.7282 -0.4370
  592THF    H1210045   4.653   2.749   3.895  1.3798  0.9925  0.3280
  592THF    H1310046   4.666   2.644   4.028  1.4395 -2.1048 -0.3442
  593THF     O110047   3.503   3.987   3.181  0.1501 -0.1898  0.4133
  593THF     C210048   3.555   4.052   3.294 -0.2012  0.0247  0.7300
  593THF     C310049   3.517   3.844   3.191 -0.2730 -0.3029 -0.4169
  593THF     H410050   3.488   4.039   3.374  2.1672  1.1813  0.7777
  593THF     H510051   3.559   4.155   3.270  0.9293 -0.8378 -1.0164
  593THF     H610052   3.442   3.802   3.258  1.6763  1.9911  0.7371
  593THF     H710053   3.513   3.788   3.094  0.9998 -2.2088 -0.9036
  593THF     C810054   3.656   3.832   3.256  0.3987  0.6044  0.1014
  593THF     C910055   3.685   3.979   3.310 -0.0841 -0.2212  1.1572
  593THF    H1010056   3.728   3.797   3.186 -2.2751  1.1218  0.1030
  593THF    H1110057   3.658   3.759   3.340 -1.3463  1.6114 -0.4615
  593THF    H1210058   3.736   3.982   3.408 -0.9593 -1.9025  0.4665
  593THF    H1310059   3.751   4.037   3.242  0.3708 -1.0279 -0.1172
  594THF     O110060   1.988   0.102   3.845  0.3907  0.5729 -0.7435
  594THF     C210061   1.929   0.173   3.737 -0.3337 -0.5657 -0.0981
  594THF     C310062   2.100   0.175   3.886 -0.7022 -0.2049  0.4176
  594THF     H410063   1.835   0.128   3.720  0.7530  0.0676 -1.8433
  594THF     H510064   1.985   0.170   3.644 -0.3322  0.2762 -1.0578
  594THF     H610065   2.131   0.148   3.982 -2.2614 -2.6577 -1.2343
  594THF     H710066   2.182   0.161   3.810  1.6126  1.0862  1.4312
  594THF     C810067   2.043   0.321   3.889  0.7730 -0.0036 -0.0330
  594THF     C910068   1.928   0.318   3.786 -0.0050  0.7761 -0.0302
  594THF    H1010069   2.113   0.406   3.859  0.0912 -0.9877  2.4083
  594THF    H1110070   2.004   0.355   3.988  2.3975 -2.6999 -0.8122
  594THF    H1210071   1.830   0.336   3.826  1.3990 -0.8482  0.9900
  594THF    H1310072   1.934   0.390   3.701  1.6639 -1.1640 -2.9522
  595THF     O110073   1.764   4.940   0.434  0.3675  0.0454  0.0419
  595THF     C210074   1.851   4.823   0.438  1.0267 -0.4778  0.1321
  595THF     C310075   1.670   4.901   0.326 -0.6004 -0.6463  0.3244
  595THF     H410076   1.915   4.812   0.520  0.0538 -0.1062 -1.9292
  595THF     H510077   1.909   4.833   0.349  0.4678  0.2763  2.6234
  595THF     H610078   1.577   4.958   0.342  0.3821 -3.5645  1.5916
  595THF     H710079   1.714   4.914   0.227 -1.8162  0.9336 -0.6658
  595THF     C810080   1.636   4.755   0.363  0.1559 -0.4334 -1.2304
  595THF     C910081   1.754   4.710   0.445 -0.1891  0.6250 -0.1013
  595THF    H1010082   1.627   4.688   0.279  1.1223 -0.1938  0.4008
  595THF    H1110083   1.536   4.745   0.404  1.6168 -0.1758 -0.8245
  595THF    H1210084   1.728   4.680   0.541 -0.2210 -1.3415  0.8787
  595THF    H1310085   1.794   4.615   0.407 -5.1076  0.0268 -1.0983
  596THF     O110086   0.732   1.622   4.402 -0.3612 -0.3591 -0.2544
  596THF     C210087   0.613   1.607   4.321 -1.0105  0.2682  0.2134
  596THF     C310088   0.687   1.689   4.519  0.2888  0.2041 -0.0801
  596THF     H410089   0.528   1.548   4.362 -2.0936  0.2816  0.6035
  596THF     H510090   0.631   1.569   4.223 -3.6774 -2.8998  1.8861
  596THF     H610091   0.652   1.623   4.590 -0.0072  0.4971 -1.3689
  596THF     H710092   0.767   1.751   4.567 -0.2522 -0.1418 -0.5900
  596THF     C810093   0.588   1.789   4.469 -0.1510 -0.1952 -0.2185
  596THF     C910094   0.572   1.753   4.319 -0.8528 -0.5952 -0.0491
  596THF    H1010095   0.629   1.886   4.476 -1.3706  0.0153  1.1673
  596THF    H1110096   0.485   1.786   4.502 -0.0645  2.4221 -0.0759
  596THF    H1210097   0.472   1.780   4.282 -2.4192 -1.8469 -1.5772
  596THF    H1310098   0.639   1.818   4.258  0.5711  0.3639 -1.5584
  597THF     O110099   1.283   5.086   1.979 -0.1496  0.8703 -0.3492
  597THF     C210100   1.342   4.960   1.933  0.1654  0.3924  0.1254
  597THF     C310101   1.217   5.141   1.867 -0.0499 -0.0018  0.0696
  597THF     H410102   1.356   4.895   2.021  1.7164 -0.1031  3.7827
  597THF     H510103   1.447   4.975   1.898  0.4772  0.2697 -0.6342
  597THF     H610104   1.136   5.200   1.902 -2.4442 -1.3417  0.8755
  597THF     H710105   1.280   5.209   1.808 -0.8178  0.7037 -0.1229
  597THF     C810106   1.172   5.021   1.784  0.0357  0.4407 -0.8189
  597THF     C910107   1.257   4.901   1.818 -0.2496 -0.2943  0.4065
  597THF    H1010108   1.179   5.046   1.678 -0.8233 -2.0230  0.4017
  597THF    H1110109   1.070   4.989   1.809 -1.7324 -0.5279 -3.3161
  597THF    H1210110   1.205   4.812   1.855 -0.3331 -3.9470  0.1497
  597THF    H1310111   1.301   4.877   1.727 -2.8012 -0.7834  2.8689
  598THF     O110112   2.998   0.493   0.398  0.1258 -0.4882 -0.3955
  598THF     C210113   2.929   0.470   0.279 -0.4885  0.1732 -0.7572
  598THF     C310114   2.956   0.402   0.503 -0.4858  0.4228 -1.0214
  598THF     H410115   3.002   0.481   0.197 -1.6442  0.2158  1.0308
  598THF     H510116   2.844   0.531   0.268  1.4213 -0.0169  0.3074
  598THF     H610117   3.023   0.394   0.591 -0.3578 -0.9896 -0.6351
  598THF     H710118   2.869   0.453   0.541  0.4270  1.4164 -2.2956
  598THF     C810119   2.935   0.275   0.425  0.0831  0.7914 -0.0757
  598THF     C910120   2.894   0.319   0.283  0.3820 -0.2655 -0.2828
  598THF    H1010121   2.857   0.214   0.477 -0.7574 -2.6016  0.7552
  598THF    H1110122   3.029   0.214   0.422  0.0312 -0.4086 -0.0790
  598THF    H1210123   2.946   0.274   0.207 -0.5301  0.5719 -0.5787
  598THF    H1310124   2.796   0.306   0.244  3.7605  1.8542  2.5449
  599THF     O110125   4.101   4.460   5.140  0.5564  0.0462 -0.5523
  599THF     C210126   4.079   4.372   5.246 -0.6030 -0.7896 -0.4479
  599THF     C310127   3.977   4.516   5.099 -0.4026  0.5404 -0.8002
  599THF     H410128   4.160   4.390   5.318 -1.4141 -1.3708 -0.3517
  599THF     H510129   4.061   4.267   5.219  0.6757  2.9408 -1.6093
  599THF     H610130   3.977   4.597   5.031  2.2596 -2.3992 -0.7424
  599THF     H710131   3.917   4.429   5.054 -1.9763  0.7862  1.8959
  599THF     C810132   3.926   4.560   5.243  0.4636  0.0094  0.1718
  599THF     C910133   3.968   4.441   5.320 -0.0150  0.3649 -0.1435
  599THF    H1010134   3.821   4.579   5.247  2.7670 -2.4874  1.7454
  599THF    H1110135   3.978   4.649   5.277  1.1918  1.8049 -1.0237
  599THF    H1210136   4.006   4.470   5.420  0.7575  2.5687  0.2372
  599THF    H1310137   3.883   4.382   5.340  0.5579  1.0755 -1.0628
  600THF     O110138   4.994   0.343   4.049 -0.3344 -0.3066 -0.9842
  600THF     C210139   5.088   0.401   3.960  0.0393 -0.1575 -0.2251
  600THF     C310140   5.061   0.242   4.116 -0.0229  0.4267 -0.4939
  600THF     H410141   5.080   0.510   3.938 -0.6275  0.3448  1.6451
  600THF     H510142   5.087   0.342   3.868 -1.5038 -1.0448 -2.1834
  600THF     H610143   5.005   0.210   4.209  1.9961  1.9321  1.2412
  600THF     H710144   5.070   0.157   4.049 -1.5198  0.2759 -0.9333
  600THF     C810145   5.195   0.296   4.149 -0.1904  0.1628 -1.0909
  600THF     C910146   5.222   0.384   4.026 -0.1938  0.1437 -0.9575
  600THF    H1010147   5.267   0.219   4.166  0.1506  2.5663  2.4301
  600THF    H1110148   5.183   0.359   4.241 -0.2093 -1.9270  0.5378
  600THF    H1210149   5.268   0.478   4.045 -0.4581 -0.0362 -1.2054
  600THF    H1310150   5.304   0.331   3.967  1.4228 -1.1668  0.1691
  601THF     O110151   4.636   2.780   2.558 -0.3652  0.2741 -0.1444
  601THF     C210152   4.527   2.772   2.470 -0.3377  0.0373 -0.4830
  601THF     C310153   4.605   2.702   2.672 -0.7866 -0.2595  0.2621
  601THF     H410154   4.548   2.806   2.363  1.8979  2.8534 -1.1632
  601THF     H510155   4.439   2.826   2.517  1.4689 -0.2651  0.9049
  601THF     H610156   4.699   2.673   2.716 -2.2504  1.0064 -1.0212
  601THF     H710157   4.552   2.760   2.745  0.7930  2.5510  1.0750
  601THF     C810158   4.542   2.584   2.613 -0.7359  0.5902  0.0274
  601THF     C910159   4.500   2.616   2.469  0.0503 -0.1668  0.0017
  601THF    H1010160   4.450   2.568   2.670  0.5985 -1.2704  2.4283
  601THF    H1110161   4.615   2.506   2.609 -0.1470  4.2917 -0.4737
  601THF    H1210162   4.561   2.555   2.398  1.7284  0.7984 -0.6300
  601THF    H1310163   4.401   2.590   2.453 -0.7781  2.1143 -1.3912
  602THF     O110164   0.757   5.193   1.159 -0.1973  0.2433 -0.0779
  602THF     C210165   0.738   5.098   1.052  1.0844  0.1459 -0.7417
  602THF     C310166   0.719   5.324   1.121 -0.1831 -0.1831  0.3038
  602THF     H410167   0.667   5.019   1.085  0.9457  1.4747 -1.0464
  602THF     H510168   0.838   5.063   1.027 -1.3864 -3.3569  0.2116
  602THF     H610169   0.611   5.320   1.133 -0.2720 -0.0184  0.2826
  602THF     H710170   0.775   5.390   1.183  2.0890 -0.8643  2.0665
  602THF     C810171   0.732   5.323   0.970  0.3441  0.0008  0.1588
  602THF     C910172   0.678   5.185   0.938  0.0089 -0.0837 -0.2385
  602THF    H1010173   0.829   5.338   0.931 -1.5021 -1.0653  0.5678
  602THF    H1110174   0.667   5.388   0.915  1.9136 -2.6405  1.5404
  602THF    H1210175   0.576   5.182   0.951  1.6153  0.8985  1.7946
  602THF    H1310176   0.704   5.154   0.835  0.3289  2.5188 -0.0581
  603THF     O110177   0.235   2.756   4.913  0.2434 -0.1015 -0.4894
  603THF     C210178   0.252   2.642   4.995 -0.3673 -0.4481 -0.4953
  603THF     C310179   0.116   2.820   4.949  0.9757 -0.1772  0.0918
  603THF     H410180   0.351   2.637   5.044  1.5248  0.0178 -1.7978
  603THF     H510181   0.255   2.559   4.928  1.1884  0.3467 -2.0498
  603THF     H610182   0.129   2.930   4.941 -2.2312  1.1740  1.7116
  603THF     H710183   0.034   2.792   4.876  1.2780 -0.2479 -0.7395
  603THF     C810184   0.090   2.778   5.096  0.3598  0.2156 -0.2480
  603THF     C910185   0.148   2.640   5.108 -1.2971 -0.1658 -0.5096
  603THF    H1010186  -0.017   2.776   5.127 -2.2862  1.3099 -1.2158
  603THF    H1110187   0.149   2.843   5.161  3.4067  4.0395 -2.0175
  603THF    H1210188   0.196   2.613   5.207  1.9166 -1.8632  1.2505
  603THF    H1310189   0.072   2.565   5.085  1.0002  2.7522  0.1066
  604THF     O110190   1.637   4.817   1.155  0.0495  0.5689  0.1679
  604THF     C210191   1.523   4.742   1.205 -0.1704 -0.5210  0.0596
  604THF     C310192   1.702   4.872   1.267  0.0802  0.1303 -0.1835
  604THF     H410193   1.532   4.637   1.176 -2.2733 -0.9191  0.7822
  604THF     H510194   1.433   4.765   1.150  1.7550 -3.5855 -1.4584
  604THF     H610195   1.805   4.851   1.249 -0.1200 -0.6252 -0.3297
  604THF     H710196   1.684   4.978   1.270 -0.0329 -0.1185 -1.1778
  604THF     C810197   1.652   4.798   1.387  0.3019  0.2595 -0.1752
  604THF     C910198   1.507   4.763   1.358 -0.6827 -0.1845 -0.4426
  604THF    H1010199   1.673   4.843   1.482  2.3263 -0.7678  1.0935
  604THF    H1110200   1.708   4.703   1.396  2.0001  2.4858 -1.9052
  604THF    H1210201   1.481   4.678   1.415  1.0646  1.5431 -0.2984
  604THF    H1310202   1.436   4.847   1.384 -0.1826 -0.4784  1.3909
  605THF     O110203   4.064   2.017   2.517 -0.2952  0.3457  0.6310
  605THF     C210204   4.155   2.054   2.411  0.7716  0.0333  0.2453
  605THF     C310205   4.051   1.880   2.528 -0.6160  0.7306 -0.2935
  605THF     H410206   4.217   2.143   2.437  1.6813 -0.2904 -0.1450
  605THF     H510207   4.109   2.067   2.310  4.2980 -3.0214 -0.9295
  605THF     H610208   4.015   1.858   2.622 -0.7559  2.1191  0.2157
  605THF     H710209   3.981   1.839   2.455  1.1158  0.7236  0.5712
  605THF     C810210   4.193   1.831   2.498  0.7619  0.3863 -0.8719
  605THF     C910211   4.252   1.935   2.409  0.2434 -0.2928 -0.3812
  605THF    H1010212   4.211   1.730   2.465 -2.0214 -1.7490  0.7819
  605THF    H1110213   4.239   1.839   2.591 -3.3436  0.2509 -2.7923
  605THF    H1210214   4.351   1.969   2.450 -0.0249  1.5413 -0.3685
  605THF    H1310215   4.264   1.898   2.310  1.4234 -0.1177 -0.5911
  606THF     O110216   3.040   1.929   4.989  0.3212 -0.5124  0.4132
  606THF     C210217   3.032   1.870   4.859  0.2847 -0.6043  0.5380
  606THF     C310218   2.962   2.045   4.984  0.5701 -0.4951 -0.4397
  606THF     H410219   2.930   1.841   4.831 -0.5892 -0.4436  1.9124
  606THF     H510220   3.102   1.788   4.848 -1.8812 -0.2572 -0.8369
  606THF     H610221   2.861   2.002   4.996  1.6210  2.7214 -0.5977
  606THF     H710222   2.985   2.109   5.069  1.2936  2.1481 -1.3880
  606THF     C810223   2.991   2.104   4.848 -0.2074  0.3751  0.1470
  606THF     C910224   3.071   1.990   4.779  0.2028 -0.0149  0.3483
  606THF    H1010225   3.060   2.187   4.860 -1.0820  0.7426 -2.0084
  606THF    H1110226   2.901   2.130   4.782 -0.1452  1.7011 -1.1950
  606THF    H1210227   3.052   1.983   4.667  0.1802 -0.9668 -4.1997
  606THF    H1310228   3.179   1.990   4.794 -1.4003  0.5656  2.1379
  607THF     O110229   0.347   1.316   2.922  0.1232 -0.4573 -0.4768
  607THF     C210230   0.315   1.362   2.792 -0.7203  0.8423  0.0983
  607THF     C310231   0.421   1.202   2.902  0.5303  0.5699  0.5411
  607THF     H410232   0.403   1.418   2.756  0.1189  1.9075  1.9202
  607THF     H510233   0.238   1.432   2.789 -0.9003 -0.4514  0.0520
  607THF     H610234   0.524   1.224   2.876 -0.5737 -3.4199 -2.9394
  607THF     H710235   0.441   1.141   2.990  0.6243 -0.8849 -1.7649
  607THF     C810236   0.360   1.131   2.784 -0.6212  0.7735  0.4422
  607THF     C910237   0.289   1.236   2.709 -0.3882 -0.1738 -0.5539
  607THF    H1010238   0.300   1.056   2.832  4.1614  0.4292  0.1808
  607THF    H1110239   0.432   1.084   2.715 -1.3021  1.4631  0.0429
  607THF    H1210240   0.348   1.250   2.615  1.2094  1.9867 -2.1582
  607THF    H1310241   0.182   1.219   2.697 -0.8533  1.9306 -1.6016
  608THF     O110242   1.364   2.904   2.368 -0.1304  0.1304  0.3665
  608THF     C210243   1.386   3.039   2.384 -1.1022  0.1685  0.2160
  608THF     C310244   1.314   2.851   2.484 -0.2750 -0.4357 -0.7175
  608THF     H410245   1.359   3.092   2.293 -0.1544 -0.1460 -2.5133
  608THF     H510246   1.490   3.036   2.397 -1.7927  0.8138 -0.2056
  608THF     H610247   1.280   2.749   2.462  2.5002 -1.0072 -0.0402
  608THF     H710248   1.384   2.841   2.571  1.2008 -0.2286  0.4188
  608THF     C810249   1.207   2.959   2.508  0.3582  0.0744  0.7212
  608THF     C910250   1.292   3.078   2.492  0.0798 -0.3959 -0.2874
  608THF    H1010251   1.161   2.947   2.607  0.6552 -0.8671  1.3477
  608THF    H1110252   1.127   2.965   2.432 -2.1353 -1.4727  0.1478
  608THF    H1210253   1.235   3.174   2.477 -0.1151 -0.0853  1.4200
  608THF    H1310254   1.344   3.092   2.586  0.7006 -0.6064  0.6057
  609THF     O110255   5.363   3.743   1.450  0.6524  0.8725 -0.1545
  609THF     C210256   5.491   3.718   1.399 -0.1387  0.3073 -0.2847
  609THF     C310257   5.286   3.796   1.340  0.4135 -0.6864 -0.6869
  609THF     H410258   5.495   3.628   1.347 -0.1963  1.1455 -1.2514
  609THF     H510259   5.567   3.710   1.479 -0.5489  1.4507 -1.2294
  609THF     H610260   5.273   3.712   1.268 -0.3846  0.3233 -4.0213
  609THF     H710261   5.202   3.845   1.378  0.1221 -1.3645  2.5510
  609THF     C810262   5.383   3.895   1.277  0.1157 -0.4978 -0.5986
  609THF     C910263   5.519   3.834   1.304  0.7681  0.4672  0.0626
  609THF    H1010264   5.378   3.994   1.320  1.8930 -0.5353 -0.4104
  609THF    H1110265   5.368   3.897   1.166  2.5556  0.8990  2.1031
  609THF    H1210266   5.581   3.806   1.215  0.1763  2.6412 -1.8239
  609THF    H1310267   5.581   3.904   1.365  0.7825 -0.1565 -0.9425
  610THF     O110268   3.190   1.121   1.049 -0.1469  0.0942  0.5031
  610THF     C210269   3.278   1.127   1.162  0.0702  0.3699 -0.6455
  610THF     C310270   3.267   1.127   0.927  0.5705  0.1848 -0.6559
  610THF     H410271   3.224   1.112   1.256  0.2139 -0.8825 -0.2538
  610THF     H510272   3.341   1.216   1.161  5.0357  1.1343  0.7177
  610THF     H610273   3.209   1.098   0.839  0.5987 -0.1965  0.4034
  610THF     H710274   3.304   1.231   0.909  2.2860 -1.8821  0.7736
  610THF     C810275   3.375   1.022   0.965 -0.2386  0.5722  0.4160
  610THF     C910276   3.387   1.023   1.115  0.2180 -0.1887  1.2594
  610THF    H1010277   3.472   1.034   0.921 -0.0875  0.1901  2.0153
  610THF    H1110278   3.341   0.932   0.929 -2.1696  3.9807  1.1545
  610THF    H1210279   3.388   0.919   1.154  0.0077  0.9505 -2.4414
  610THF    H1310280   3.486   1.062   1.126 -1.7642 -0.1351  1.0285
  611THF     O110281   1.681   1.572   0.357  0.5378 -0.2455 -0.2524
  611THF     C210282   1.545   1.529   0.358 -0.7635  0.4077 -0.8341
  611THF     C310283   1.704   1.632   0.231  0.6484 -0.0802  0.5361
  611THF     H410284   1.478   1.611   0.366  2.6541  0.0309 -0.3659
  611THF     H510285   1.536   1.451   0.437 -0.8742  0.6339  0.4457
  611THF     H610286   1.641   1.718   0.228  0.1283  0.5643  2.8048
  611THF     H710287   1.809   1.648   0.216 -0.7093 -0.4372  1.7677
  611THF     C810288   1.641   1.534   0.132  0.0291  0.3577  0.0659
  611THF     C910289   1.527   1.478   0.213  0.1804  0.9990 -0.1126
  611THF    H1010290   1.710   1.459   0.093  0.9295 -0.6279 -0.3352
  611THF    H1110291   1.610   1.578   0.046  1.1429 -0.4694  1.7388
  611THF    H1210292   1.427   1.492   0.166 -1.5248 -1.4035 -1.2761
  611THF    H1310293   1.536   1.374   0.212  1.2255  2.7504 -0.1801
  612THF     O110294   2.145   4.763   1.085  0.2434  0.1751  0.5485
  612THF     C210295   2.157   4.899   1.047 -0.2016 -0.0865  0.2763
  612THF     C310296   2.240   4.684   1.017  0.7636 -0.4716 -0.4725
  612THF     H410297   2.111   4.968   1.115  1.8121 -0.7680 -0.4067
  612THF     H510298   2.125   4.917   0.948 -1.2202 -2.0037 -0.6519
  612THF     H610299   2.280   4.596   1.070 -2.8324  1.1969  0.3795
  612THF     H710300   2.198   4.655   0.917  1.6086  2.5977 -2.6907
  612THF     C810301   2.357   4.786   0.986 -0.3266  0.7676 -0.2189
  612THF     C910302   2.308   4.915   1.046  0.6644 -0.3997  0.2558
  612THF    H1010303   2.373   4.803   0.879 -0.7794 -1.2549 -2.2217
  612THF    H1110304   2.440   4.743   1.027 -1.7831 -0.3699  1.0346
  612THF    H1210305   2.337   4.912   1.149  0.2036  2.0111 -0.1231
  612THF    H1310306   2.339   5.012   1.007 -0.8027  2.4701  2.5539
  613THF     O110307   2.711   1.131   2.116  0.3171  0.2961  0.1984
  613THF     C210308   2.720   1.199   2.237 -0.7748 -0.6214  0.7120
  613THF     C310309   2.636   1.015   2.144 -0.0630 -0.3188  0.5015
  613THF     H410310   2.624   1.253   2.268 -0.4311  0.8331 -1.1221
  613THF     H510311   2.814   1.263   2.237 -0.5395  0.0339 -1.5444
  613THF     H610312   2.532   1.042   2.144 -0.9979  2.9235 -4.4906
  613THF     H710313   2.652   0.950   2.061  1.0674 -0.0564  3.0641
  613THF     C810314   2.691   0.963   2.274 -0.1979 -0.6175 -0.2713
  613THF     C910315   2.736   1.090   2.347 -0.4285 -0.0497 -0.2901
  613THF    H1010316   2.782   0.900   2.268 -0.7075  2.7746 -2.5411
  613THF    H1110317   2.626   0.900   2.335 -0.0741  3.0565  1.5077
  613THF    H1210318   2.678   1.103   2.440 -2.0808 -0.5022  1.0074
  613THF    H1310319   2.835   1.066   2.388 -1.6973 -0.6115  1.1458
  614THF     O110320   1.261   1.790   4.562  0.2314 -0.3934 -0.1893
  614THF     C210321   1.174   1.792   4.449 -0.2951 -0.0760  0.1111
  614THF     C310322   1.199   1.835   4.676  0.4311  0.2884 -0.9262
  614THF     H410323   1.152   1.696   4.406 -3.8198  0.0995  0.8945
  614THF     H510324   1.227   1.845   4.377 -1.5795 -4.2236  0.8279
  614THF     H610325   1.228   1.778   4.776 -0.4159 -3.5951  1.0253
  614THF     H710326   1.227   1.940   4.690  0.9282  0.7225  1.0893
  614THF     C810327   1.049   1.826   4.651 -0.4487 -0.4908  0.9610
  614THF     C910328   1.044   1.861   4.496 -0.4649  0.1227  0.3684
  614THF    H1010329   0.998   1.900   4.715  3.0195  1.6950 -1.5085
  614THF    H1110330   1.022   1.720   4.676 -1.3041 -1.2676  2.3703
  614THF    H1210331   0.957   1.824   4.451  1.7852  1.4775  3.0780
  614THF    H1310332   1.049   1.968   4.475 -2.0360  3.3655 -0.5854
  615THF     O110333   2.564   1.247   3.912  0.2767 -0.5382 -0.3504
  615THF     C210334   2.691   1.304   3.933  0.0793  1.2796 -0.9374
  615THF     C310335   2.471   1.337   3.962  0.3232 -0.3337 -0.8932
  615THF     H410336   2.771   1.268   3.870 -1.1568  0.4747  0.3030
  615THF     H510337   2.717   1.285   4.038 -0.5592 -1.7454 -3.2744
  615THF     H610338   2.370   1.316   3.924 -2.4631  0.1402 -0.6845
  615THF     H710339   2.455   1.339   4.069 -0.3331  0.5443  0.0217
  615THF     C810340   2.525   1.470   3.911  0.3406  0.3187  0.1201
  615THF     C910341   2.674   1.445   3.911 -0.4781 -0.5570 -0.1974
  615THF    H1010342   2.496   1.544   3.985 -0.2000  0.6244 -3.1794
  615THF    H1110343   2.482   1.509   3.819 -1.2674  2.1286  1.7620
  615THF    H1210344   2.712   1.468   3.808  1.7366  3.0980 -3.0663
  615THF    H1310345   2.738   1.508   3.975  2.3622  0.3112 -1.4253
  616THF     O110346   4.880   3.747   3.495 -0.1391  0.2703  0.0603
  616THF     C210347   4.941   3.744   3.359 -0.0439  0.0523  0.7965
  616THF     C310348   4.938   3.631   3.564 -0.0904  0.0562  0.2123
  616THF     H410349   4.948   3.837   3.301  0.3756  0.4540 -0.7132
  616THF     H510350   4.877   3.683   3.294 -0.5501  0.8907  0.1278
  616THF     H610351   4.912   3.633   3.671  1.6232  1.9608  0.9622
  616THF     H710352   4.900   3.535   3.523 -3.2819 -0.9544 -0.4207
  616THF     C810353   5.085   3.658   3.537 -0.7041 -0.0472 -0.3832
  616THF     C910354   5.083   3.698   3.386 -0.2879 -0.0303 -0.6444
  616THF    H1010355   5.138   3.564   3.545  0.4986  0.4450 -0.9749
  616THF    H1110356   5.124   3.745   3.596  2.5768  1.7039  0.7315
  616THF    H1210357   5.158   3.777   3.364  0.4629  1.6493 -0.6057
  616THF    H1310358   5.119   3.615   3.329  0.9900  1.9779 -1.4621
  617THF     O110359   4.271   3.296   1.281  0.1159 -0.2509  0.3602
  617THF     C210360   4.312   3.403   1.199 -0.6531  0.5046 -0.3991
  617THF     C310361   4.206   3.340   1.399  0.0277  0.2538 -0.0632
  617THF     H410362   4.311   3.368   1.097 -1.1564  1.5955  1.9208
  617THF     H510363   4.406   3.438   1.240  2.0891  1.5282  0.0793
  617THF     H610364   4.130   3.277   1.439 -0.8722 -0.2067 -0.0326
  617THF     H710365   4.280   3.362   1.468  0.8635 -1.2421  1.0564
  617THF     C810366   4.138   3.470   1.354  0.6203 -0.6907 -0.3956
  617THF     C910367   4.198   3.498   1.218  0.3445 -0.0184  0.5011
  617THF    H1010368   4.135   3.558   1.425  0.0337  0.2816  2.1978
  617THF    H1110369   4.031   3.449   1.347 -3.4927 -1.5031 -3.6096
  617THF    H1210370   4.118   3.479   1.154  0.6234  1.0674  1.2804
  617THF    H1310371   4.225   3.602   1.196  0.9660  0.6488  1.5204
  618THF     O110372   4.070   1.026   4.045 -0.1872  0.1084  0.5891
  618THF     C210373   4.006   1.151   4.069 -0.2051  0.2123  0.4490
  618THF     C310374   4.171   1.026   4.143 -0.1830  0.6244 -0.3588
  618THF     H410375   3.901   1.142   4.039 -0.9448 -0.2121 -0.0022
  618THF     H510376   4.057   1.229   4.017  2.4883  2.7924 -0.1958
  618THF     H610377   4.223   0.934   4.154 -0.0531 -0.7833  0.4529
  618THF     H710378   4.249   1.099   4.114 -0.3159 -1.1935  1.4306
  618THF     C810379   4.109   1.070   4.275  0.7824  0.3633  0.1563
  618THF     C910380   4.015   1.166   4.218  0.1568  0.0918  0.3640
  618THF    H1010381   4.177   1.107   4.348  0.5740  0.3311  0.3189
  618THF    H1110382   4.056   0.985   4.315 -0.7439  1.8561  0.3182
  618THF    H1210383   3.920   1.154   4.254  2.2067 -0.2262 -0.8242
  618THF    H1310384   4.037   1.275   4.236  2.1203  2.0464 -1.0632
  619THF     O110385   1.397   3.363   1.722  0.1695  0.1697 -0.2504
  619THF     C210386   1.373   3.332   1.586 -0.0833 -0.5005  0.7819
  619THF     C310387   1.478   3.486   1.729 -0.0274  0.4535  0.2301
  619THF     H410388   1.269   3.377   1.566 -1.9843  2.6339  1.2272
  619THF     H510389   1.374   3.225   1.561 -2.1876 -0.2721 -0.9294
  619THF     H610390   1.430   3.561   1.787  1.8908  0.4179  0.2149
  619THF     H710391   1.562   3.450   1.778  0.1585 -0.2528  1.5688
  619THF     C810392   1.506   3.525   1.585 -0.3788 -0.8549  0.0088
  619THF     C910393   1.481   3.403   1.506  0.0426 -0.1534 -0.2435
  619THF    H1010394   1.612   3.548   1.567  0.0388  1.5523 -1.6884
  619THF    H1110395   1.432   3.599   1.550  1.6642 -0.8166 -0.0447
  619THF    H1210396   1.462   3.418   1.403 -0.0567 -0.5561  0.2241
  619THF    H1310397   1.573   3.347   1.509 -0.6762  0.8902 -0.1208
  620THF     O110398   3.694   0.966   1.498 -0.0999  0.8038 -0.0533
  620THF     C210399   3.833   0.935   1.463 -0.3627 -0.4702  0.3752
  620THF     C310400   3.616   0.924   1.386 -0.1576  0.4285 -0.4029
  620THF     H410401   3.855   0.832   1.453  2.2708 -2.3212 -1.5575
  620THF     H510402   3.906   0.982   1.525 -1.4662 -1.1148 -0.1887
  620THF     H610403   3.621   0.817   1.374 -0.7036 -2.0408 -0.0211
  620THF     H710404   3.513   0.954   1.391  0.5609 -0.3693 -0.4016
  620THF     C810405   3.698   1.005   1.286 -0.2066 -0.6141  0.1224
  620THF     C910406   3.847   0.992   1.323 -0.6022 -0.6049 -0.1445
  620THF    H1010407   3.676   1.113   1.282  1.2463  0.7617 -1.0674
  620THF    H1110408   3.699   0.969   1.183 -1.1227  0.0091 -0.3303
  620THF    H1210409   3.915   0.926   1.268  2.6486  2.2992  2.5646
  620THF    H1310410   3.897   1.083   1.319  0.2231  1.2835 -0.3875
  621THF     O110411   1.531   4.627   5.252 -0.1189  0.5877 -0.6628
  621THF     C210412   1.445   4.690   5.338 -0.0978  0.0395  0.6231
  621THF     C310413   1.630   4.717   5.212  0.4248 -0.4700  0.4766
  621THF     H410414   1.475   4.680   5.438  0.1868  0.5323 -0.2240
  621THF     H510415   1.341   4.651   5.326  2.2456 -1.2251  1.7907
  621THF     H610416   1.699   4.739   5.298  1.5392 -1.4160 -0.5148
  621THF     H710417   1.686   4.684   5.125 -2.1523 -0.7716 -2.7723
  621THF     C810418   1.556   4.844   5.192 -0.0400 -0.7843 -0.4014
  621THF     C910419   1.458   4.844   5.313 -0.0160  0.3316  0.4291
  621THF    H1010420   1.500   4.829   5.097  2.2012  3.1575 -2.6712
  621THF    H1110421   1.626   4.932   5.189  2.3413 -2.0197  2.2013
  621THF    H1210422   1.487   4.894   5.398  0.4568  1.1807 -2.9090
  621THF    H1310423   1.358   4.882   5.279 -0.5248 -0.2499  0.4661
  622THF     O110424   2.219   4.157   2.556 -1.0200 -0.2173 -0.0366
  622THF     C210425   2.318   4.059   2.605 -0.3525 -0.4692 -0.0795
  622THF     C310426   2.166   4.101   2.443  0.4063  0.1877 -0.6038
  622THF     H410427   2.338   4.094   2.712 -0.8921 -0.7897 -2.2498
  622THF     H510428   2.418   4.050   2.552  3.1298 -2.4040 -0.9072
  622THF     H610429   2.075   4.153   2.424  2.0508  1.8664  0.4149
  622THF     H710430   2.229   4.141   2.366  0.3098 -1.1204 -1.2554
  622THF     C810431   2.164   3.944   2.466  0.0556 -0.8854 -0.6453
  622THF     C910432   2.245   3.931   2.602 -0.2686 -0.4341  0.1473
  622THF    H1010433   2.208   3.884   2.389 -1.4521  0.5485 -0.3967
  622THF    H1110434   2.065   3.902   2.466 -4.1552 -0.5083  0.7713
  622THF    H1210435   2.167   3.916   2.679 -1.4101  0.7859  0.4735
  622THF    H1310436   2.309   3.841   2.600  0.1358 -1.1950 -1.6978
  623THF     O110437   0.079   1.994   4.306 -0.6663 -0.0915 -0.4123
  623THF     C210438   0.005   2.091   4.221  0.1518 -0.0855 -0.1997
  623THF     C310439   0.022   1.873   4.264 -0.2070 -0.7599  0.1478
  623THF     H410440   0.070   2.177   4.231  0.1621  1.5714 -0.2591
  623THF     H510441  -0.099   2.115   4.261 -0.0791  1.1930 -0.3931
  623THF     H610442   0.084   1.785   4.271 -1.4374  0.5168 -1.0742
  623THF     H710443  -0.076   1.853   4.314 -0.5182 -0.5814  0.4805
  623THF     C810444   0.008   1.877   4.111 -0.9242  0.4873  0.6893
  623THF     C910445  -0.011   2.028   4.086 -0.1589  0.5066  0.3786
  623THF    H1010446  -0.062   1.814   4.065  2.8525  1.1011  0.4878
  623THF    H1110447   0.101   1.848   4.057 -0.5754 -0.9825 -1.1588
  623THF    H1210448   0.053   2.072   4.006 -1.7178  1.5363 -1.2216
  623THF    H1310449  -0.116   2.043   4.063 -0.9332 -0.5983  1.0706
  624THF     O110450   0.406   4.337   3.569 -1.2732  0.6064 -0.2847
  624THF     C210451   0.307   4.264   3.500 -0.0050  0.1099  0.1084
  624THF     C310452   0.342   4.416   3.682  0.4328  0.6448  0.8362
  624THF     H410453   0.345   4.169   3.459  1.1818 -0.3679 -2.2877
  624THF     H510454   0.268   4.328   3.424 -3.2284 -2.8277  0.5494
  624THF     H610455   0.392   4.380   3.766  0.9031  0.6307  0.2605
  624THF     H710456   0.352   4.526   3.677 -0.4012 -0.4080 -0.0424
  624THF     C810457   0.194   4.370   3.680  0.6945  0.7575 -0.0324
  624THF     C910458   0.200   4.239   3.596  0.1429 -0.1107  0.8508
  624THF    H1010459   0.121   4.442   3.632 -0.2620  0.2690 -2.1142
  624THF    H1110460   0.155   4.348   3.780  1.9095 -2.3538  0.1659
  624THF    H1210461   0.225   4.149   3.650  2.4059 -0.8972 -0.6461
  624THF    H1310462   0.103   4.221   3.548  0.5447 -0.9999 -0.6512
  625THF     O110463   5.428   2.936   3.781 -0.1149  0.9493 -0.4993
  625THF     C210464   5.334   3.015   3.849 -0.7789  0.0100  0.3130
  625THF     C310465   5.365   2.861   3.683  0.2700  0.0595  0.1014
  625THF     H410466   5.376   3.121   3.866 -0.4955 -1.1926  2.5884
  625THF     H510467   5.309   2.964   3.941 -2.7650  0.4312 -1.6910
  625THF     H610468   5.391   2.898   3.574  1.3267 -3.4769 -0.8886
  625THF     H710469   5.396   2.760   3.672 -3.0972  0.0281  1.3938
  625THF     C810470   5.216   2.874   3.714  0.0987 -0.4015  0.3223
  625THF     C910471   5.210   3.015   3.758 -0.0704 -0.0863 -0.8238
  625THF    H1010472   5.200   2.803   3.790 -0.3800 -0.4346 -0.0243
  625THF    H1110473   5.154   2.840   3.628 -1.0066  0.4436  0.9615
  625THF    H1210474   5.217   3.079   3.664 -0.1318  2.5750 -1.6384
  625THF    H1310475   5.127   3.036   3.827  0.8196  0.9028 -0.0085
  626THF     O110476   1.095   4.588   1.811 -0.6009 -0.3282  0.9343
  626THF     C210477   1.038   4.470   1.860 -0.4847  1.2211 -0.2720
  626THF     C310478   1.188   4.555   1.711  0.1588  0.4842 -0.5885
  626THF     H410479   0.932   4.468   1.847 -0.7276 -0.8735  1.1078
  626THF     H510480   1.066   4.473   1.963  0.8510 -1.3581 -0.8053
  626THF     H610481   1.123   4.546   1.623 -1.9598  3.9454 -0.1801
  626THF     H710482   1.266   4.634   1.699 -0.2923  0.4474 -0.9791
  626THF     C810483   1.245   4.412   1.758  0.0607 -0.6166 -0.2666
  626THF     C910484   1.107   4.358   1.792  0.8993  0.3619 -0.3634
  626THF    H1010485   1.304   4.419   1.852  0.0494 -0.4554 -1.6460
  626THF    H1110486   1.306   4.353   1.687  1.0052  1.6604  0.0156
  626THF    H1210487   1.059   4.338   1.698 -1.3176 -0.7596  1.2516
  626THF    H1310488   1.108   4.260   1.846 -1.7702 -1.3199  0.2021
  627THF     O110489   1.182   5.256   3.542 -0.0663  0.3030 -0.0510
  627THF     C210490   1.196   5.200   3.414 -0.0270 -0.1030 -0.1955
  627THF     C310491   1.252   5.383   3.534 -0.2292 -0.4733  0.1621
  627THF     H410492   1.137   5.245   3.344 -2.0880 -2.1124  0.9968
  627THF     H510493   1.173   5.095   3.429 -1.4700  1.1488 -3.1304
  627THF     H610494   1.192   5.461   3.480 -0.7706  0.9337  1.4411
  627THF     H710495   1.284   5.417   3.631  2.5157 -2.5855  0.8525
  627THF     C810496   1.375   5.359   3.458 -0.3168  0.5572 -0.6324
  627THF     C910497   1.337   5.227   3.384 -0.1010 -0.2905 -0.3113
  627THF    H1010498   1.459   5.344   3.531  1.5806  0.6555  0.2414
  627THF    H1110499   1.414   5.435   3.385  0.1915  0.1338  0.1021
  627THF    H1210500   1.354   5.246   3.282  0.1085 -1.5673 -0.7097
  627THF    H1310501   1.411   5.147   3.395 -0.5746 -0.4689 -2.6490
  628THF     O110502   0.106   3.745   4.241  0.4888 -0.4713  0.1841
  628THF     C210503   0.116   3.604   4.249  0.6136  0.1964  0.3029
  628THF     C310504   0.195   3.807   4.335  0.3701  0.7027 -0.1881
  628THF     H410505   0.180   3.564   4.165  0.8851 -0.3925 -1.0671
  628THF     H510506   0.015   3.563   4.240 -4.1681  0.7843  0.9465
  628THF     H610507   0.288   3.816   4.283 -0.1673 -1.6748 -0.5478
  628THF     H710508   0.159   3.902   4.377 -2.6098  0.6966 -1.2558
  628THF     C810509   0.222   3.701   4.446  0.8950 -0.3515  0.1610
  628THF     C910510   0.184   3.565   4.384  0.0482  0.3136 -0.5172
  628THF    H1010511   0.162   3.732   4.531 -0.9982  0.0340  1.7596
  628THF    H1110512   0.325   3.716   4.473  0.2554  0.9394  1.7513
  628THF    H1210513   0.269   3.495   4.381  1.9307  1.2103 -1.3256
  628THF    H1310514   0.118   3.506   4.445  0.1297 -0.8492  0.0930
  629THF     O110515   1.633   5.170   4.621 -0.0908 -0.2998 -0.0882
  629THF     C210516   1.673   5.257   4.519 -0.2889  0.2130 -0.5425
  629THF     C310517   1.533   5.078   4.586  0.1316  0.4140 -0.0900
  629THF     H410518   1.784   5.280   4.511  0.3929  1.7327 -1.9515
  629THF     H510519   1.614   5.341   4.546 -0.7858  1.3888  1.0609
  629THF     H610520   1.537   4.982   4.637 -0.2255 -1.0935 -1.7391
  629THF     H710521   1.443   5.122   4.612  0.6722 -1.8003 -2.4176
  629THF     C810522   1.551   5.064   4.440 -0.0768  0.9468  0.8982
  629THF     C910523   1.626   5.183   4.393 -0.3409  0.2309 -0.2102
  629THF    H1010524   1.453   5.049   4.384 -1.1845 -3.3617 -1.8681
  629THF    H1110525   1.621   4.973   4.423 -1.8337 -0.4991 -0.0535
  629THF    H1210526   1.713   5.146   4.338 -0.1286 -2.3244 -0.4176
  629THF    H1310527   1.577   5.255   4.323  1.4894 -0.3064 -2.3462
  630THF     O110528   4.067   0.383   2.957  0.8574 -0.1276  1.1225
  630THF     C210529   3.971   0.404   2.850  0.6509  0.1430  0.5213
  630THF     C310530   4.176   0.305   2.906 -0.2916 -0.2969  0.4866
  630THF     H410531   3.972   0.508   2.830  0.4730 -2.4116  1.1360
  630THF     H510532   3.876   0.365   2.877  2.0425  1.2876 -2.4257
  630THF     H610533   4.269   0.312   2.957 -1.0368  1.5741  1.4349
  630THF     H710534   4.149   0.203   2.921 -0.0805  0.6630  4.0035
  630THF     C810535   4.171   0.341   2.759 -0.9850  0.4970 -0.1537
  630THF     C910536   4.024   0.334   2.729 -0.6531  0.1752  0.5628
  630THF    H1010537   4.245   0.278   2.696  1.4027 -2.5161 -0.0331
  630THF    H1110538   4.212   0.445   2.764  0.5392 -0.6517 -1.9928
  630THF    H1210539   3.994   0.379   2.634 -0.2365 -2.2060  0.4332
  630THF    H1310540   3.990   0.232   2.724  0.2837  0.4454 -2.5440
  631THF     O110541   3.566   3.354   1.893  0.0039  0.4456 -0.7038
  631THF     C210542   3.477   3.306   1.795  0.1609 -0.6825 -0.5695
  631THF     C310543   3.481   3.377   2.007 -0.8744 -0.3768 -0.4005
  631THF     H410544   3.531   3.219   1.752  1.6844  0.6584 -0.4619
  631THF     H510545   3.451   3.380   1.721  1.1478 -0.2995  0.8293
  631THF     H610546   3.529   3.391   2.106 -0.3196  1.2771  1.0936
  631THF     H710547   3.420   3.463   1.993 -3.2607 -1.9767  1.9561
  631THF     C810548   3.390   3.254   2.008 -0.3857 -0.3056 -0.0249
  631THF     C910549   3.349   3.246   1.865  0.5303  0.3547 -0.1706
  631THF    H1010550   3.300   3.275   2.070 -0.7339  1.9048 -0.5210
  631THF    H1110551   3.433   3.166   2.055 -1.1355 -0.1946  0.5071
  631THF    H1210552   3.330   3.146   1.827 -5.0995 -1.2036  0.7323
  631THF    H1310553   3.264   3.311   1.845  0.3574 -0.9576 -2.0258
  632THF     O110554   1.126   4.648   0.111 -0.3565 -0.3420 -0.0068
  632THF     C210555   1.049   4.582   0.017  0.4401 -0.0778 -0.3019
  632THF     C310556   1.191   4.561   0.194  0.0876 -0.2357  0.2872
  632THF     H410557   1.042   4.625  -0.087 -3.0716 -2.1000 -0.8667
  632THF     H510558   0.944   4.564   0.043  0.0625 -0.9150  0.3286
  632THF     H610559   1.267   4.601   0.257 -2.2047  0.1818  1.4901
  632THF     H710560   1.120   4.530   0.270 -0.0835  1.2434 -2.9120
  632THF     C810561   1.234   4.451   0.100  0.1663 -0.2982 -0.7695
  632THF     C910562   1.113   4.444   0.011  0.6872  0.6357 -0.6754
  632THF    H1010563   1.254   4.353   0.154 -0.5804 -1.3137 -1.0247
  632THF    H1110564   1.326   4.475   0.040 -0.9442 -0.5662  0.4415
  632THF    H1210565   1.135   4.410  -0.086  1.3805  1.6564  2.2485
  632THF    H1310566   1.043   4.368   0.051  0.2886 -3.0543 -0.8262
  633THF     O110567   1.546   4.474   1.788 -0.0429  0.6582  0.7556
  633THF     C210568   1.638   4.452   1.904  0.7806 -0.0959  0.0699
  633THF     C310569   1.604   4.551   1.685  0.6524  0.1601  0.0536
  633THF     H410570   1.653   4.348   1.920 -0.1102 -2.8807  0.7782
  633THF     H510571   1.590   4.478   1.997 -2.0992 -0.4313 -0.4310
  633THF     H610572   1.657   4.478   1.629 -0.5316  0.9710 -0.6352
  633THF     H710573   1.533   4.603   1.625 -1.1000 -1.4691  2.3089
  633THF     C810574   1.709   4.636   1.759 -1.2372  0.1061 -0.4014
  633THF     C910575   1.758   4.542   1.864  0.1085  0.5699  0.1705
  633THF    H1010576   1.682   4.732   1.795 -1.1335 -0.5102 -1.0506
  633THF    H1110577   1.799   4.656   1.689 -2.7541 -2.2880  0.3731
  633THF    H1210578   1.836   4.478   1.816 -0.2723 -2.2030 -0.1484
  633THF    H1310579   1.806   4.577   1.951 -0.3206 -4.9756 -1.3845
  634THF     O110580   4.550   4.366   0.861 -0.3231  0.6885 -0.5710
  634THF     C210581   4.434   4.299   0.834 -1.1126  0.1479 -0.1299
  634THF     C310582   4.535   4.394   1.000  0.6254 -0.5889 -0.7951
  634THF     H410583   4.430   4.247   0.745 -0.6179  1.1953  2.0158
  634THF     H510584   4.339   4.362   0.818  0.2373 -1.5727 -2.1252
  634THF     H610585   4.629   4.414   1.057 -3.2217  1.5482 -0.3510
  634THF     H710586   4.465   4.482   1.017  0.4411  0.2629  2.3756
  634THF     C810587   4.473   4.272   1.069 -0.0808  0.8445 -0.3582
  634THF     C910588   4.415   4.203   0.953 -0.2065  0.4213 -0.1288
  634THF    H1010589   4.396   4.305   1.146  0.2335  2.2583  1.3168
  634THF    H1110590   4.547   4.215   1.120 -0.5233 -1.1317 -1.8943
  634THF    H1210591   4.491   4.126   0.931 -1.2505 -2.6761  0.2802
  634THF    H1310592   4.312   4.168   0.944 -2.5307 -2.8774  1.4075
  635THF     O110593   4.077   4.256   3.725  0.1888 -0.1091  0.5798
  635THF     C210594   4.173   4.346   3.785 -0.4463  0.4565  0.1387
  635THF     C310595   4.152   4.142   3.684 -0.0902  0.1146  0.6750
  635THF     H410596   4.124   4.416   3.848 -1.4011 -1.8619 -3.2936
  635THF     H510597   4.221   4.396   3.699  2.5306 -1.2577  1.5266
  635THF     H610598   4.093   4.054   3.684  1.6606  1.7526 -1.7247
  635THF     H710599   4.196   4.157   3.577  0.9704 -0.5305 -0.0676
  635THF     C810600   4.269   4.133   3.778  0.2492  0.2217  0.5601
  635THF     C910601   4.268   4.253   3.863 -0.0555 -0.5399 -0.4432
  635THF    H1010602   4.363   4.130   3.722 -0.1334 -0.0734  0.2938
  635THF    H1110603   4.264   4.046   3.843 -0.5283  2.6272  0.1712
  635THF    H1210604   4.231   4.249   3.968 -1.8837 -1.5552 -0.3060
  635THF    H1310605   4.362   4.306   3.857 -0.3036 -0.5050 -1.4774
  636THF     O110606   1.103   0.324   2.345 -0.2233 -0.3228 -0.1688
  636THF     C210607   1.074   0.424   2.440  0.4128  0.5054 -0.0594
  636THF     C310608   1.036   0.359   2.224  0.2891 -0.6431  0.3628
  636THF     H410609   1.132   0.513   2.442  3.0058  0.2927 -0.5128
  636THF     H510610   1.072   0.384   2.545  1.2582 -0.4063  1.1497
  636THF     H610611   1.084   0.437   2.167 -0.4010 -0.4291  0.2916
  636THF     H710612   1.024   0.270   2.159 -0.5425 -1.1047 -1.1025
  636THF     C810613   0.902   0.415   2.272  0.6233  0.1182  0.1238
  636THF     C910614   0.928   0.466   2.416 -1.0147 -0.4802 -0.1727
  636THF    H1010615   0.829   0.332   2.275 -0.4055 -0.4942 -0.3201
  636THF    H1110616   0.873   0.499   2.208  1.0369  0.1729  2.1089
  636THF    H1210617   0.906   0.574   2.432 -1.0503 -3.4214 -2.0832
  636THF    H1310618   0.867   0.415   2.485 -0.7358 -0.0049 -0.8647
  637THF     O110619   2.612   0.412   3.001  0.4240  0.1154 -0.1449
  637THF     C210620   2.661   0.539   2.966 -0.9078  0.0637 -0.6672
  637THF     C310621   2.709   0.314   2.982 -0.0976  0.3195  0.2105
  637THF     H410622   2.676   0.613   3.038  0.0887 -0.4887 -0.8864
  637THF     H510623   2.586   0.584   2.901  2.7543 -0.3022 -1.6085
  637THF     H610624   2.774   0.291   3.070 -2.3999 -3.5672  0.1819
  637THF     H710625   2.669   0.216   2.968  1.3183 -0.2271  0.8647
  637THF     C810626   2.776   0.362   2.862  0.0908  0.2091  0.5606
  637THF     C910627   2.781   0.511   2.881  0.3695  0.1854  0.8843
  637THF    H1010628   2.708   0.340   2.781 -1.5708 -0.2070  1.0941
  637THF    H1110629   2.867   0.311   2.840 -0.7848 -1.3259  0.6032
  637THF    H1210630   2.877   0.532   2.934 -0.2812  1.2902 -1.4494
  637THF    H1310631   2.793   0.569   2.786  0.6544  2.0440  0.9673
  638THF     O110632   2.549   3.218   5.160  0.3183  0.2984  0.1963
  638THF     C210633   2.674   3.155   5.198 -0.2907  0.2242 -0.1366
  638THF     C310634   2.497   3.155   5.040  0.6495  0.1173  0.3455
  638THF     H410635   2.666   3.073   5.270 -0.2532  0.3565 -1.6936
  638THF     H510636   2.750   3.228   5.231  2.8414  5.4471 -1.9400
  638THF     H610637   2.428   3.069   5.066 -0.5544 -0.8379  1.2575
  638THF     H710638   2.437   3.222   4.976  0.0474  0.6146  0.9768
  638THF     C810639   2.617   3.107   4.959  0.8207 -0.0952 -0.0164
  638THF     C910640   2.728   3.090   5.062 -0.8209 -0.0583 -0.5172
  638THF    H1010641   2.645   3.185   4.888  0.1774 -0.0179 -3.2689
  638THF    H1110642   2.601   3.020   4.896  0.9006 -0.9446  0.2680
  638THF    H1210643   2.759   2.988   5.079  3.0228 -1.4015 -2.6888
  638THF    H1310644   2.822   3.137   5.034 -0.4440  0.1086  1.3924
  639THF     O110645   4.260   2.935   0.003  0.0254 -0.2472 -0.2603
  639THF     C210646   4.318   2.803  -0.006  0.2593  0.3121 -0.2990
  639THF     C310647   4.300   2.996   0.127 -0.4562  0.1252  0.8994
  639THF     H410648   4.320   2.770  -0.117  0.1061 -0.2067 -0.4793
  639THF     H510649   4.265   2.726   0.053 -0.4247 -2.0549  0.0407
  639THF     H610650   4.330   3.097   0.109  2.1828 -2.2832  1.9143
  639THF     H710651   4.226   2.984   0.209  0.4604 -3.7293 -1.1438
  639THF     C810652   4.429   2.919   0.173 -0.4673 -0.1423 -0.2235
  639THF     C910653   4.456   2.833   0.051  0.6547  0.3095  1.0490
  639THF    H1010654   4.404   2.854   0.257  0.8090 -1.3679 -3.8431
  639THF    H1110655   4.509   2.982   0.210 -0.5712 -1.3925  2.3862
  639THF    H1210656   4.504   2.886  -0.023 -0.5005 -0.4756 -1.3872
  639THF    H1310657   4.508   2.744   0.068 -1.2601  3.2617  0.6566
  640THF     O110658   0.113   2.640   4.454  0.0667 -0.2825  0.2344
  640THF     C210659   0.071   2.550   4.351  1.1013  0.4237  0.5221
  640THF     C310660   0.016   2.629   4.562 -0.6048  0.0697  0.9011
  640THF     H410661   0.152   2.535   4.275  1.1486 -0.7148  2.6353
  640THF     H510662  -0.027   2.576   4.296  1.2865  0.4380 -1.5447
  640THF     H610663   0.071   2.663   4.651  0.4630  1.1411 -0.1428
  640THF     H710664  -0.069   2.692   4.556  2.4274 -3.4318 -0.6786
  640THF     C810665  -0.026   2.478   4.561 -0.5043  0.0415 -0.4815
  640THF     C910666   0.023   2.425   4.425  0.5937  0.0725  0.0766
  640THF    H1010667  -0.131   2.457   4.586  0.4729  2.4035  1.4991
  640THF    H1110668   0.031   2.431   4.638  0.3515  0.6833  1.6301
  640THF    H1210669   0.105   2.363   4.440  0.4118  0.0504  0.9631
  640THF    H1310670  -0.061   2.378   4.376 -0.6384  4.3461 -0.3467
  641THF     O110671   5.069   1.332   4.307 -0.1458 -0.3854 -0.4027
  641THF     C210672   5.190   1.407   4.310 -0.7122  0.4275  0.0815
  641THF     C310673   5.006   1.361   4.189 -0.3467 -0.0609 -0.1639
  641THF     H410674   5.264   1.356   4.381 -2.4039  3.4843 -2.5114
  641THF     H510675   5.180   1.506   4.348  1.6538 -1.0372 -0.6206
  641THF     H610676   4.929   1.290   4.170 -0.4119  0.5095 -1.1313
  641THF     H710677   4.952   1.459   4.191 -4.1298  0.6630  1.1807
  641THF     C810678   5.118   1.377   4.080  0.0282  0.3667  0.0586
  641THF     C910679   5.239   1.404   4.170  0.1021 -0.0408 -0.2338
  641THF    H1010680   5.105   1.453   3.999  1.1180  2.2917  0.8358
  641THF    H1110681   5.137   1.281   4.026 -0.6066 -0.1340  0.9084
  641THF    H1210682   5.315   1.333   4.134  1.3659 -0.8993 -0.7325
  641THF    H1310683   5.295   1.497   4.136 -2.1187 -1.1128  0.0359
  642THF     O110684   0.187   4.384   5.273 -0.4890 -0.0256  1.3481
  642THF     C210685   0.099   4.443   5.368 -1.2521 -0.4760 -0.2209
  642THF     C310686   0.121   4.396   5.146  0.4186  0.1168 -0.5753
  642THF     H410687   0.104   4.552   5.354  1.1515 -2.2599  2.4172
  642THF     H510688   0.125   4.410   5.464 -0.3366 -0.5826 -1.9164
  642THF     H610689   0.125   4.498   5.107  1.0586  0.1475  2.5919
  642THF     H710690   0.163   4.338   5.066  1.3907  0.5381 -0.4694
  642THF     C810691  -0.025   4.353   5.175  0.2017 -0.6112 -0.8236
  642THF     C910692  -0.037   4.381   5.323 -0.6557 -0.7049  0.5573
  642THF    H1010693  -0.049   4.250   5.157 -1.2186 -0.2858 -1.9207
  642THF    H1110694  -0.093   4.408   5.113  0.8134  0.0556 -0.0285
  642THF    H1210695  -0.101   4.466   5.352  2.0630  0.8856  2.6571
  642THF    H1310696  -0.064   4.288   5.382  1.8969 -3.5511  1.4647
  643THF     O110697   2.158   3.693   0.184 -0.1024  0.8173 -0.1676
  643THF     C210698   2.110   3.595   0.276 -0.1251  0.1405  0.0159
  643THF     C310699   2.159   3.636   0.059  0.2800  0.2152  1.1134
  643THF     H410700   2.062   3.643   0.358  1.5581  0.7443  1.8920
  643THF     H510701   2.194   3.534   0.308  2.0129 -1.7351 -2.5569
  643THF     H610702   2.151   3.730   0.002 -1.9662 -1.0779 -3.0653
  643THF     H710703   2.258   3.583   0.046  2.4627 -1.0140  1.9898
  643THF     C810704   2.033   3.557   0.056  0.4550 -0.5625  0.3705
  643THF     C910705   2.023   3.501   0.194  0.1253 -0.0744  0.0104
  643THF    H1010706   2.027   3.480  -0.013 -0.0492  2.6483 -0.3820
  643THF    H1110707   1.947   3.613   0.045  1.1994  3.2613 -0.1653
  643THF    H1210708   1.921   3.493   0.234 -1.1064  1.2399 -1.1583
  643THF    H1310709   2.060   3.397   0.205  2.2511  1.0337  0.5404
  644THF     O110710   5.067   4.787   3.679 -0.0645 -0.4922  0.3866
  644THF     C210711   5.162   4.824   3.582  0.4285 -0.1640  0.2846
  644THF     C310712   4.961   4.882   3.669  0.7588  0.1246 -0.3254
  644THF     H410713   5.239   4.741   3.566 -0.7207 -1.3763  2.5473
  644THF     H510714   5.200   4.916   3.621  0.3310 -0.0555  0.8047
  644THF     H610715   4.877   4.842   3.731  1.0627  0.2455  1.2876
  644THF     H710716   4.983   4.982   3.698  2.9816 -1.1342  0.3081
  644THF     C810717   4.934   4.887   3.515 -0.1832 -0.1646  0.2388
  644THF     C910718   5.076   4.849   3.464 -0.3129  0.5525  0.0334
  644THF    H1010719   4.876   4.984   3.498  1.5542  3.6810  1.2823
  644THF    H1110720   4.872   4.800   3.485 -1.8199 -0.5245  1.5356
  644THF    H1210721   5.083   4.757   3.409  3.5481 -0.3330  0.5858
  644THF    H1310722   5.109   4.929   3.396  0.5996  2.0056  0.6915
  645THF     O110723   1.026   3.475   3.298  0.9089 -1.0396 -0.5443
  645THF     C210724   0.967   3.456   3.420 -0.2238  0.2328  0.8513
  645THF     C310725   1.100   3.360   3.254  0.3286  0.3013 -0.0895
  645THF     H410726   0.862   3.481   3.417 -1.4122  0.2178 -0.7416
  645THF     H510727   1.008   3.530   3.491 -2.1196  0.9288 -2.6560
  645THF     H610728   1.105   3.351   3.146  3.4413  2.0038  1.4920
  645THF     H710729   1.197   3.383   3.294 -1.4000  0.4577  1.2058
  645THF     C810730   1.016   3.252   3.321  0.7378 -0.7260 -0.9696
  645THF     C910731   0.996   3.307   3.456 -0.9061 -0.0870 -0.1807
  645THF    H1010732   1.072   3.160   3.320 -2.0768  2.9784 -1.0817
  645THF    H1110733   0.929   3.244   3.267  1.9781 -0.2173 -0.7932
  645THF    H1210734   0.915   3.258   3.508  1.8583  2.2384  0.4900
  645THF    H1310735   1.090   3.291   3.503  1.0769  1.1978  0.9604
  646THF     O110736   3.274   4.833   0.128  0.9824 -0.8702  0.7338
  646THF     C210737   3.206   4.830   0.250  0.9505  0.1107 -0.6399
  646THF     C310738   3.178   4.859   0.025  0.5832  0.1958  0.2174
  646THF     H410739   3.272   4.836   0.336 -3.2987  0.1206  0.4053
  646THF     H510740   3.165   4.729   0.261  0.8312 -1.0283  1.0843
  646THF     H610741   3.232   4.890  -0.066 -0.8046  2.5658 -0.8722
  646THF     H710742   3.123   4.761   0.009  0.6682  0.6266 -1.6656
  646THF     C810743   3.086   4.965   0.083 -0.8229 -0.3788  0.4991
  646THF     C910744   3.093   4.929   0.240 -0.5117  0.6746  0.1096
  646THF    H1010745   2.986   4.959   0.037 -1.7321  2.4730 -1.0610
  646THF    H1110746   3.128   5.061   0.068  0.0229  1.2056  0.2967
  646THF    H1210747   3.126   5.011   0.302 -0.1497 -0.7801  2.4735
  646THF    H1310748   3.000   4.890   0.286 -0.7205  0.2869  0.3337
  647THF     O110749   5.393   2.100   4.954  0.3114 -0.1954 -0.0904
  647THF     C210750   5.455   1.974   4.973  0.9005  0.1039 -0.2486
  647THF     C310751   5.444   2.139   4.828 -0.1630  0.2327 -0.1483
  647THF     H410752   5.402   1.912   5.040  0.0288  1.3234 -2.9781
  647THF     H510753   5.556   1.996   5.006  0.9343  0.0110  0.3694
  647THF     H610754   5.373   2.218   4.782 -1.2611  1.9800  0.3166
  647THF     H710755   5.541   2.172   4.835  2.3800 -0.1373  0.6849
  647THF     C810756   5.447   2.011   4.746 -0.3878  0.2044  0.2042
  647THF     C910757   5.443   1.899   4.842  0.3871  0.8528 -0.2542
  647THF    H1010758   5.534   2.007   4.678  1.8031  0.6284 -2.1103
  647THF    H1110759   5.358   2.002   4.690 -2.9130 -0.4345  1.8194
  647THF    H1210760   5.346   1.849   4.834 -0.8845 -0.0496 -0.9287
  647THF    H1310761   5.526   1.825   4.822  2.0551 -1.0250 -2.2788
  648THF     O110762   4.669   5.009   0.418  0.5873  0.1402  0.5467
  648THF     C210763   4.525   5.013   0.389 -0.4740  0.6744 -0.2958
  648THF     C310764   4.736   5.024   0.297  0.2179  0.0307  0.5406
  648THF     H410765   4.464   5.035   0.470  3.4747  0.5219 -1.3440
  648THF     H510766   4.492   4.923   0.342  1.6950  1.7594  1.6698
  648THF     H610767   4.839   5.038   0.320 -0.1369  1.6315  2.9185
  648THF     H710768   4.733   4.928   0.250 -1.3972 -0.0038  2.8606
  648THF     C810769   4.666   5.134   0.230 -0.2257  0.4742  0.2127
  648THF     C910770   4.524   5.130   0.284  0.2143  0.0535 -0.1083
  648THF    H1010771   4.658   5.118   0.122  1.6082  1.2719  1.5664
  648THF    H1110772   4.699   5.235   0.252 -0.5431  0.9664 -0.1225
  648THF    H1210773   4.501   5.219   0.347  2.0645 -1.0683  1.9104
  648THF    H1310774   4.442   5.111   0.209  0.5581 -1.2571 -0.5941
  649THF     O110775   2.755   5.258   1.282 -0.0551  0.0115 -0.1479
  649THF     C210776   2.752   5.391   1.251 -0.2291 -0.1422  0.3499
  649THF     C310777   2.628   5.204   1.255  0.6184  0.3406 -0.1490
  649THF     H410778   2.791   5.400   1.152  0.2963  1.0717  1.2296
  649THF     H510779   2.825   5.429   1.325 -0.1896 -1.7745 -0.2649
  649THF     H610780   2.632   5.208   1.145  1.8251  1.8151  1.3431
  649THF     H710781   2.627   5.100   1.285  2.1384  1.4792 -1.3393
  649THF     C810782   2.528   5.313   1.301 -0.8910  0.3366  0.0278
  649THF     C910783   2.609   5.444   1.268  0.1625 -0.3534 -0.1987
  649THF    H1010784   2.498   5.319   1.403 -0.5463 -1.2576  1.1444
  649THF    H1110785   2.431   5.313   1.251  0.4517  1.6863  3.2096
  649THF    H1210786   2.578   5.475   1.174  0.2418  1.7281  2.0918
  649THF    H1310787   2.595   5.530   1.335 -0.5911  2.4168  1.0372
  650THF     O110788   0.254   4.056   4.753 -0.2880  0.2263 -0.4929
  650THF     C210789   0.121   4.049   4.712  0.6541  0.5177 -0.3984
  650THF     C310790   0.283   3.978   4.876  0.2186  0.6191 -0.4921
  650THF     H410791   0.112   3.946   4.670 -2.0055 -3.1328  0.4085
  650THF     H510792   0.087   4.118   4.632  2.5736  3.0346 -0.7255
  650THF     H610793   0.309   3.874   4.846  0.6902  0.2411 -0.9008
  650THF     H710794   0.361   4.020   4.944 -0.7724  1.0209 -1.3551
  650THF     C810795   0.141   3.980   4.940 -0.0777  0.4267  0.0994
  650THF     C910796   0.039   4.037   4.842  0.4129  0.4981 -0.0834
  650THF    H1010797   0.131   4.036   5.036  0.7348 -0.1690  0.9369
  650THF    H1110798   0.121   3.880   4.961  1.1563  1.9084 -0.1697
  650THF    H1210799  -0.050   3.977   4.837  1.3341  2.6638 -0.9435
  650THF    H1310800   0.001   4.129   4.870 -0.7760 -0.6734  1.4545
  651THF     O110801   4.756   1.266   1.785 -0.4054 -0.6029 -0.4964
  651THF     C210802   4.834   1.383   1.817 -0.4425  0.7881 -0.0538
  651THF     C310803   4.770   1.170   1.888 -0.8621 -0.1228 -0.9872
  651THF     H410804   4.801   1.467   1.761 -0.2649  0.7356 -1.6138
  651THF     H510805   4.947   1.366   1.795 -1.8755  2.7333 -2.9445
  651THF     H610806   4.672   1.125   1.896  1.1953  2.4088  0.0327
  651THF     H710807   4.853   1.106   1.859  0.2108 -1.7762 -2.6290
  651THF     C810808   4.779   1.253   2.016 -0.2447 -1.0494 -0.2505
  651THF     C910809   4.804   1.399   1.967  0.3088 -0.0596  1.1451
  651THF    H1010810   4.862   1.233   2.076  1.6212 -2.9102  0.2916
  651THF    H1110811   4.676   1.248   2.067 -0.3740 -1.6724  1.1612
  651THF    H1210812   4.711   1.457   1.974 -2.0065  1.3479  3.3710
  651THF    H1310813   4.887   1.443   2.023  0.1232  1.9513 -3.3231
  652THF     O110814   2.635   3.330   4.557 -0.0816  0.0070  0.4258
  652THF     C210815   2.670   3.378   4.428 -0.5047 -0.3151 -1.0957
  652THF     C310816   2.709   3.412   4.646 -0.3975  0.0348  0.7538
  652THF     H410817   2.619   3.474   4.407  0.1124 -0.4241 -0.3847
  652THF     H510818   2.648   3.299   4.357 -0.9570 -0.8490  0.1850
  652THF     H610819   2.651   3.499   4.678 -0.9529  0.5640  0.7952
  652THF     H710820   2.737   3.360   4.736 -1.0351 -3.5212 -2.1485
  652THF     C810821   2.839   3.449   4.572  0.0699 -0.7607  0.1015
  652THF     C910822   2.812   3.410   4.431 -0.5019 -0.0148  0.4543
  652THF    H1010823   2.917   3.397   4.614 -3.7385  1.2118 -0.6643
  652THF    H1110824   2.863   3.557   4.588  0.4533  0.4808  0.5525
  652THF    H1210825   2.851   3.484   4.362  1.7632 -1.7709 -1.3204
  652THF    H1310826   2.876   3.328   4.396 -1.5441  0.4722 -0.3651
  653THF     O110827   2.262   0.307   0.770 -0.2496  0.2781 -0.3127
  653THF     C210828   2.313   0.177   0.758  0.1227 -0.7279  0.0970
  653THF     C310829   2.232   0.323   0.907 -0.4644  0.2020 -0.1534
  653THF     H410830   2.360   0.151   0.660 -0.3536  1.6968 -3.0580
  653THF     H510831   2.235   0.099   0.772  2.3423 -1.6921  0.3119
  653THF     H610832   2.214   0.428   0.929  2.0933 -1.3565 -1.8820
  653THF     H710833   2.133   0.283   0.930  0.3180 -1.1261 -2.5136
  653THF     C810834   2.359   0.262   0.978  0.3353 -0.4901  0.3375
  653THF     C910835   2.416   0.165   0.874  0.0017 -0.2389 -0.0388
  653THF    H1010836   2.338   0.216   1.076  0.0782  2.5860 -1.6100
  653THF    H1110837   2.432   0.339   0.984 -2.0002 -0.7817 -0.1431
  653THF    H1210838   2.521   0.191   0.844 -2.3846 -2.1790 -1.2001
  653THF    H1310839   2.434   0.058   0.908  0.2795 -1.5714 -2.1180
  654THF     O110840   4.035   4.670   2.074  0.2098 -0.1416  0.5792
  654THF     C210841   3.897   4.691   2.095  0.1794 -0.1841  0.0163
  654THF     C310842   4.067   4.525   2.052  0.2719 -0.0052  0.3961
  654THF     H410843   3.847   4.687   2.000  0.7246 -2.4596  0.0325
  654THF     H510844   3.886   4.786   2.139 -1.2600  3.6611 -1.7956
  654THF     H610845   4.035   4.505   1.951 -3.6865  0.4267 -0.6273
  654THF     H710846   4.172   4.511   2.074  0.7034  0.6837  0.4568
  654THF     C810847   3.970   4.451   2.143  1.0256 -1.0997  0.1675
  654THF     C910848   3.879   4.571   2.191 -0.3963 -0.1031  1.0876
  654THF    H1010849   4.027   4.406   2.225  0.4137 -1.4027  2.7673
  654THF    H1110850   3.922   4.373   2.089  0.2884  1.1462 -0.3149
  654THF    H1210851   3.782   4.535   2.209  1.2743 -1.4077 -2.9362
  654THF    H1310852   3.918   4.592   2.292 -2.0740 -2.5673 -2.6417
  655THF     O110853   5.466   0.361   0.169  0.2197  0.2606  0.3876
  655THF     C210854   5.394   0.388   0.286 -0.2874  0.6013 -0.4323
  655THF     C310855   5.436   0.233   0.126 -0.4028  0.3773 -0.4440
  655THF     H410856   5.297   0.429   0.248 -0.8395 -2.3982  0.1036
  655THF     H510857   5.444   0.465   0.350  0.9570  1.9185 -1.0338
  655THF     H610858   5.326   0.243   0.090 -1.2303 -0.1687  2.1495
  655THF     H710859   5.496   0.192   0.051 -3.1248  0.6225 -0.0529
  655THF     C810860   5.447   0.156   0.259 -0.3760  0.5980 -1.0515
  655THF     C910861   5.389   0.248   0.353 -0.2895 -0.0950  1.0691
  655THF    H1010862   5.555   0.135   0.281  1.0613  0.3889  1.5256
  655THF    H1110863   5.390   0.058   0.261 -0.9789  0.0466  3.7749
  655THF    H1210864   5.282   0.226   0.365  0.1735 -0.2176 -0.7855
  655THF    H1310865   5.444   0.234   0.447  0.4293 -0.7700 -0.4316
  656THF     O110866   4.644   2.519   0.086 -0.1352 -0.0872  0.1617
  656THF     C210867   4.620   2.517  -0.055  0.4082 -0.0646  1.0963
  656THF     C310868   4.785   2.525   0.110 -0.1609 -0.2555  0.2754
  656THF     H410869   4.629   2.626  -0.088 -0.9071  2.1179  1.2823
  656THF     H510870   4.521   2.478  -0.079  1.9548 -3.0695 -1.5852
  656THF     H610871   4.807   2.635   0.088 -0.2283  0.8166  1.1528
  656THF     H710872   4.817   2.498   0.215  1.2094  0.6638  1.3386
  656THF     C810873   4.837   2.429   0.005 -0.4922  0.4148  0.3984
  656THF     C910874   4.739   2.436  -0.111  0.8253  0.0339 -1.0435
  656THF    H1010875   4.851   2.330   0.038  0.8124 -2.8427  0.0724
  656THF    H1110876   4.939   2.460  -0.028 -1.9906 -0.2228 -2.8870
  656THF    H1210877   4.781   2.491  -0.197  3.5831 -0.8700 -3.3138
  656THF    H1310878   4.700   2.342  -0.160 -2.7893 -1.2783 -0.2920
  657THF     O110879   3.699   0.821   3.293 -0.3307 -0.4814  0.0890
  657THF     C210880   3.645   0.720   3.222 -0.0837  0.1918 -0.6603
  657THF     C310881   3.811   0.868   3.218 -0.6302 -0.3627  0.5972
  657THF     H410882   3.593   0.748   3.131  0.7033 -1.9537 -0.1579
  657THF     H510883   3.578   0.655   3.284 -0.7236  3.4749 -0.5421
  657THF     H610884   3.772   0.957   3.162 -0.8962  0.8545  0.7467
  657THF     H710885   3.885   0.905   3.288 -2.1295  2.6073 -0.2093
  657THF     C810886   3.858   0.749   3.129 -0.4888 -0.3715  0.5735
  657THF     C910887   3.770   0.642   3.188  0.1716 -0.6448  0.3529
  657THF    H1010888   3.971   0.725   3.139  0.9595 -0.8698  1.5573
  657THF    H1110889   3.846   0.756   3.022  1.0224 -2.9204 -0.8703
  657THF    H1210890   3.756   0.555   3.122  1.7336  0.1976  0.3809
  657THF    H1310891   3.809   0.596   3.285 -1.2686 -0.0014  1.7487
  658THF     O110892   2.965   0.646   3.299 -0.2535  0.1596  0.6763
  658THF     C210893   2.983   0.508   3.286 -0.1891  0.3180  0.3778
  658THF     C310894   2.829   0.667   3.308  0.6232 -0.0329  0.2792
  658THF     H410895   3.089   0.482   3.288 -2.8842  0.3877 -2.0450
  658THF     H510896   2.962   0.478   3.182  1.1341  2.2033 -1.5646
  658THF     H610897   2.811   0.749   3.380 -0.4290  1.5245 -1.7915
  658THF     H710898   2.802   0.712   3.214  0.4363 -3.9430 -1.4241
  658THF     C810899   2.771   0.538   3.357 -0.2175  0.4446 -0.7348
  658THF     C910900   2.895   0.452   3.396  0.5810  0.6496 -0.6693
  658THF    H1010901   2.718   0.501   3.271 -0.8823  4.2569  0.8557
  658THF    H1110902   2.686   0.558   3.430  1.4166 -0.9894 -0.1885
  658THF    H1210903   2.929   0.472   3.496 -1.5359  1.4909 -2.1460
  658THF    H1310904   2.882   0.340   3.402  2.2871 -1.6649  4.0115
  659THF     O110905   3.665   0.815   4.466 -0.6419 -0.1051 -0.3861
  659THF     C210906   3.715   0.939   4.516 -1.5752 -0.4993  0.3684
  659THF     C310907   3.749   0.704   4.492 -0.6807 -0.4679 -0.3122
  659THF     H410908   3.631   0.992   4.552  1.1760  0.7399 -0.9589
  659THF     H510909   3.747   0.990   4.430  0.5669 -0.1185  2.0893
  659THF     H610910   3.682   0.619   4.499 -2.7117  1.7602  0.3819
  659THF     H710911   3.835   0.693   4.417  1.0220  2.4159 -1.2816
  659THF     C810912   3.808   0.749   4.622  0.0329  0.0618 -0.5018
  659THF     C910913   3.830   0.897   4.620  0.2159  0.1877  0.2900
  659THF    H1010914   3.903   0.696   4.644  1.4099  0.6629 -0.8513
  659THF    H1110915   3.747   0.737   4.709 -0.4052  1.7210  0.7797
  659THF    H1210916   3.827   0.946   4.718  0.2299  0.6931 -0.4218
  659THF    H1310917   3.924   0.916   4.567 -1.6022  0.5167 -2.9432
  660THF     O110918   4.178   5.023   4.411 -0.0700 -0.5671 -0.3072
  660THF     C210919   4.065   4.940   4.419  0.1042 -0.1317  0.6773
  660THF     C310920   4.256   5.003   4.524  0.7712  0.5593 -0.5093
  660THF     H410921   4.039   4.889   4.325 -1.1036  0.8198  0.5339
  660THF     H510922   3.981   4.987   4.468  0.8024 -1.1711 -0.0525
  660THF     H610923   4.363   5.034   4.521 -0.3945 -0.0742  0.2916
  660THF     H710924   4.220   5.073   4.599 -1.4771  0.6997 -1.4039
  660THF     C810925   4.244   4.855   4.550  0.0740 -0.0762  1.4082
  660THF     C910926   4.104   4.818   4.502 -0.0877  0.5833 -0.5544
  660THF    H1010927   4.270   4.833   4.651 -0.3463  0.3626  0.8659
  660THF    H1110928   4.321   4.810   4.482  0.5601  0.6402 -0.3882
  660THF    H1210929   4.113   4.730   4.436  0.7508  1.7392 -2.2772
  660THF    H1310930   4.027   4.803   4.581 -2.4254 -0.8976  1.0169
  661THF     O110931   1.692   1.399   2.621  0.4797 -0.3312 -0.2191
  661THF     C210932   1.784   1.500   2.573 -0.5967  0.1846  0.1441
  661THF     C310933   1.610   1.447   2.723 -0.8888 -0.9123  1.1113
  661THF     H410934   1.796   1.499   2.463 -2.7894  1.5430 -2.4509
  661THF     H510935   1.888   1.477   2.606 -1.1210 -0.1858 -0.1981
  661THF     H610936   1.519   1.392   2.719 -0.8201 -0.1765 -1.1932
  661THF     H710937   1.656   1.435   2.814 -1.9238 -1.9940  1.0962
  661THF     C810938   1.598   1.601   2.694  0.1408  0.3827 -0.4104
  661THF     C910939   1.730   1.636   2.627  0.2411  0.7113  0.1502
  661THF    H1010940   1.586   1.654   2.793  0.3148 -1.7820  2.5228
  661THF    H1110941   1.518   1.630   2.625  0.4449 -0.2893 -2.2814
  661THF    H1210942   1.707   1.706   2.548  0.5317  1.6958 -1.5376
  661THF    H1310943   1.801   1.676   2.699  0.1715  0.2889  1.8187
  662THF     O110944   0.682   3.873   0.795 -0.0630  0.3821 -0.2408
  662THF     C210945   0.717   3.734   0.778  0.2974  0.7937 -0.1092
  662THF     C310946   0.547   3.876   0.762 -0.6929 -0.5712  0.8533
  662THF     H410947   0.662   3.689   0.869  1.9126 -3.2874  0.5936
  662THF     H510948   0.826   3.727   0.776 -0.1591  1.2968 -1.7196
  662THF     H610949   0.490   3.826   0.844 -0.2578 -0.2457  3.9577
  662THF     H710950   0.502   3.978   0.757 -0.0072 -0.4094 -0.4084
  662THF     C810951   0.541   3.803   0.631  0.5174 -0.5192  0.4442
  662THF     C910952   0.645   3.688   0.648  0.4353  0.6205 -0.0445
  662THF    H1010953   0.573   3.873   0.551 -1.1784  2.2858 -0.0574
  662THF    H1110954   0.436   3.775   0.610 -0.8421 -0.1267  1.0908
  662THF    H1210955   0.600   3.594   0.679 -0.9491 -2.4664  0.5495
  662THF    H1310956   0.707   3.688   0.559  0.1266 -0.9465 -2.1508
  663THF     O110957   1.162   4.205   0.869  0.3516  0.3071 -0.1253
  663THF     C210958   1.020   4.192   0.864 -0.8752 -0.1006  0.4250
  663THF     C310959   1.222   4.120   0.965  0.3716 -0.4178  0.1849
  663THF     H410960   0.966   4.222   0.776 -0.4667  0.2421  2.8421
  663THF     H510961   0.996   4.256   0.943 -1.4068 -0.1778 -3.5246
  663THF     H610962   1.324   4.100   0.951  1.4903  0.4747  1.5664
  663THF     H710963   1.223   4.171   1.066  0.9241 -0.5594  2.0219
  663THF     C810964   1.140   3.994   0.953 -0.4463  0.5622 -0.4505
  663THF     C910965   1.003   4.044   0.908 -0.4216 -0.3743  0.9010
  663THF    H1010966   1.142   3.945   1.056  0.3265 -1.6162 -1.0378
  663THF    H1110967   1.172   3.920   0.885  1.2157 -0.2675 -1.4809
  663THF    H1210968   0.978   3.978   0.826  0.5804 -1.0739  0.2562
  663THF    H1310969   0.925   4.033   0.989 -2.7232 -0.0320  0.4518
  664THF     O110970   2.847   0.516   3.733 -0.5401  0.2934  0.2932
  664THF     C210971   2.854   0.649   3.769  0.0334  0.2112 -0.1666
  664THF     C310972   2.719   0.469   3.782 -1.4867  0.4474 -0.8271
  664THF     H410973   2.797   0.717   3.701  1.7191  2.2772  1.1516
  664THF     H510974   2.955   0.688   3.765 -1.4675 -1.5804 -0.4371
  664THF     H610975   2.645   0.496   3.719  1.8395 -1.0351  2.7477
  664THF     H710976   2.725   0.368   3.785  2.3177  0.2775  0.1632
  664THF     C810977   2.719   0.533   3.925  0.1130 -0.4543  0.1828
  664THF     C910978   2.800   0.659   3.915  0.3771  0.1066  0.2322
  664THF    H1010979   2.753   0.463   4.002  0.4499 -0.7350  0.1251
  664THF    H1110980   2.620   0.568   3.948  1.9061 -1.1941  4.1814
  664THF    H1210981   2.750   0.753   3.954 -0.6246 -0.6916  1.0907
  664THF    H1310982   2.876   0.638   3.989 -0.5580  1.3215 -1.7557
  665THF     O110983   3.997   1.369   0.498  0.3573  0.9046 -0.4565
  665THF     C210984   4.055   1.381   0.367  0.6770  0.1386  0.3080
  665THF     C310985   3.911   1.256   0.481  0.0128  0.0212 -0.1187
  665THF     H410986   4.131   1.301   0.350 -1.7792 -1.3296  2.1666
  665THF     H510987   4.104   1.474   0.345 -1.2165  1.6183  0.8715
  665THF     H610988   3.984   1.174   0.494  1.2677 -1.7220  1.8704
  665THF     H710989   3.843   1.268   0.567 -0.2605  1.9001 -1.6897
  665THF     C810990   3.847   1.270   0.352 -0.0324 -0.8361 -0.7288
  665THF     C910991   3.926   1.379   0.278  0.0531 -0.4496  0.1492
  665THF    H1010992   3.751   1.312   0.360  1.5822  2.9582  0.5952
  665THF    H1110993   3.830   1.180   0.301  2.5085  0.6724 -0.7932
  665THF    H1210994   3.961   1.339   0.182 -0.8789 -2.3758 -0.8401
  665THF    H1310995   3.870   1.477   0.274 -0.9892  0.8980 -1.8092
  666THF     O110996   0.488   3.483   1.639  0.1363 -0.0030 -0.4871
  666THF     C210997   0.529   3.356   1.593  0.1501  0.2102 -0.5020
  666THF     C310998   0.389   3.528   1.544 -0.2052  0.4756  0.2428
  666THF     H410999   0.573   3.291   1.670  1.1850 -0.6718 -0.8535
  666THF     H511000   0.598   3.366   1.507  0.8473  0.9299 -0.0849
  666THF     H611001   0.340   3.624   1.567 -2.0855 -0.1028 -2.9616
  666THF     H711002   0.446   3.538   1.452 -1.0276  1.1371 -0.5288
  666THF     C811003   0.298   3.409   1.546  0.2273 -0.3398  0.4855
  666THF     C911004   0.390   3.295   1.552 -0.3950 -0.5742  0.5645
  666THF    H1011005   0.217   3.413   1.467 -1.6839  1.3980  0.5379
  666THF    H1111006   0.249   3.413   1.641 -0.1022  1.6320 -2.3597
  666THF    H1211007   0.356   3.230   1.624 -1.7768  1.3017 -0.0377
  666THF    H1311008   0.420   3.234   1.467  0.0488 -1.1433  2.4472
  667THF     O111009   0.861   3.340   1.907 -0.6742 -0.1284  0.3433
  667THF     C211010   0.810   3.476   1.915  0.1952  0.0993  0.2035
  667THF     C311011   0.876   3.317   1.770  0.0794  0.0760  0.1106
  667THF     H411012   0.838   3.519   2.009 -2.8620 -1.1730 -1.3723
  667THF     H511013   0.700   3.485   1.897  2.9036 -0.6127 -1.8233
  667THF     H611014   0.962   3.246   1.763  0.9510  0.6087  1.9871
  667THF     H711015   0.792   3.262   1.730  0.1638 -2.1281 -0.2188
  667THF     C811016   0.897   3.447   1.702  0.6012  0.3757  0.0283
  667THF     C911017   0.886   3.560   1.804 -0.3524  0.8543 -0.5106
  667THF    H1011018   0.823   3.446   1.628 -4.3567 -1.0798  1.0149
  667THF    H1111019   0.994   3.449   1.656 -1.1040 -1.2858 -1.0700
  667THF    H1211020   0.981   3.592   1.848 -0.2701 -0.5828  0.4903
  667THF    H1311021   0.825   3.643   1.772  1.7155  0.7244  3.2576
  668THF     O111022   5.338   2.544   5.358 -0.1328  0.6144  0.2771
  668THF     C211023   5.295   2.426   5.422  0.2306  0.0752 -0.1993
  668THF     C311024   5.293   2.543   5.219  0.0637  0.9138 -0.4839
  668THF     H411025   5.223   2.452   5.507 -1.5118  1.6951  1.0323
  668THF     H511026   5.375   2.378   5.478 -1.7402 -2.8461 -2.0376
  668THF     H611027   5.187   2.580   5.220 -2.1663 -0.0107 -0.2240
  668THF     H711028   5.346   2.598   5.143  1.3033 -0.6182 -2.5514
  668THF     C811029   5.287   2.390   5.185  0.6647  0.5094  0.6349
  668THF     C911030   5.239   2.330   5.313 -0.4403  0.1581 -0.0889
  668THF    H1011031   5.388   2.350   5.168 -3.2922  1.8076  1.3630
  668THF    H1111032   5.232   2.382   5.093  2.8485  0.6338  0.5722
  668THF    H1211033   5.133   2.337   5.323  0.1300  2.2011 -2.8218
  668THF    H1311034   5.271   2.225   5.318  0.3217 -1.7061 -0.1436
  669THF     O111035   1.201   0.016   3.053 -0.6126  0.1297 -0.0386
  669THF     C211036   1.069  -0.014   3.023  0.3109  0.6839  0.2954
  669THF     C311037   1.200   0.066   3.187  0.0911 -0.2396 -0.0102
  669THF     H411038   1.023  -0.092   3.091 -0.9811  0.9004 -0.2117
  669THF     H511039   1.061  -0.031   2.916  3.7619  0.3457 -0.7135
  669THF     H611040   1.202  -0.015   3.257 -3.8821  0.6934 -0.1530
  669THF     H711041   1.277   0.140   3.204  0.0834  2.2601 -2.3390
  669THF     C811042   1.066   0.139   3.201  1.0270 -0.5282  0.3376
  669THF     C911043   1.004   0.119   3.067  0.3798 -0.3613 -0.2633
  669THF    H1011044   1.069   0.244   3.231  1.1984 -1.2255 -1.0300
  669THF    H1111045   1.011   0.093   3.287  1.4686 -1.7492  0.4947
  669THF    H1211046   0.897   0.124   3.065 -0.9175  2.5396 -0.3635
  669THF    H1311047   1.019   0.205   2.999 -0.5382 -1.3807  0.6252
  670THF     O111048   5.233   1.097   1.921 -0.4003 -0.5533 -0.0570
  670THF     C211049   5.372   1.130   1.909  0.3365 -0.2131 -0.3011
  670THF     C311050   5.169   1.139   1.810  0.0100  0.2750  0.2557
  670THF     H411051   5.433   1.059   1.967  2.0100  0.3560  0.1187
  670THF     H511052   5.391   1.231   1.951 -1.8627  0.5545 -1.4237
  670THF     H611053   5.078   1.086   1.802  1.6628  0.2801  0.1392
  670THF     H711054   5.147   1.242   1.815  1.5378  2.0561 -0.4115
  670THF     C811055   5.264   1.117   1.691 -0.5493  0.4079  1.0503
  670THF     C911056   5.401   1.128   1.758  0.3140 -0.3697 -0.6662
  670THF    H1011057   5.239   1.186   1.609  1.4914 -0.3188  0.8755
  670THF    H1111058   5.252   1.021   1.655 -0.2155  2.2301 -1.6322
  670THF    H1211059   5.471   1.038   1.735  1.2223 -0.7241  1.2112
  670THF    H1311060   5.457   1.216   1.734  2.4250  0.4885  0.2449
  671THF     O111061   0.420   2.817   2.187 -0.3009 -0.2346 -0.3505
  671THF     C211062   0.309   2.910   2.196 -0.3872  0.1272  0.5569
  671THF     C311063   0.446   2.755   2.314  0.4151 -0.4536  0.9307
  671THF     H411064   0.248   2.890   2.110  1.2170 -1.7066  0.1373
  671THF     H511065   0.330   3.016   2.178 -0.2682  0.4439  1.7787
  671THF     H611066   0.502   2.659   2.306  1.4552 -2.1273  2.2196
  671THF     H711067   0.507   2.822   2.368 -1.5430 -1.4733 -0.1478
  671THF     C811068   0.313   2.752   2.377  0.8451 -0.1288 -0.6200
  671THF     C911069   0.245   2.879   2.331  0.2026  0.0099 -0.0738
  671THF    H1011070   0.316   2.735   2.478  2.5957 -3.0321 -2.3969
  671THF    H1111071   0.262   2.665   2.339 -2.5477 -0.0352  1.3880
  671THF    H1211072   0.141   2.871   2.306  0.6175 -0.4040 -0.4526
  671THF    H1311073   0.252   2.966   2.399 -0.6909  0.8275 -0.9329
  672THF     O111074   3.427   2.809   0.648  0.2049 -0.0782  0.3307
  672THF     C211075   3.520   2.763   0.557 -0.6159 -1.1049  0.4128
  672THF     C311076   3.289   2.806   0.598  0.3116  0.2677  0.0284
  672THF     H411077   3.585   2.700   0.610  3.0389  1.6035  0.1562
  672THF     H511078   3.553   2.859   0.511 -2.2380 -1.5099 -1.5382
  672THF     H611079   3.212   2.801   0.672 -0.3687  0.6479  0.7003
  672THF     H711080   3.264   2.894   0.536 -1.1017 -0.2737 -0.2907
  672THF     C811081   3.300   2.679   0.510 -0.2645 -0.0601 -0.3386
  672THF     C911082   3.441   2.692   0.459  0.0476 -0.5195 -0.5390
  672THF    H1011083   3.232   2.668   0.431 -1.0014  2.0129  2.1790
  672THF    H1111084   3.301   2.589   0.583 -2.2693 -0.9440 -0.3582
  672THF    H1211085   3.492   2.600   0.427 -0.9698  3.2147 -0.7465
  672THF    H1311086   3.438   2.753   0.373  1.1318  1.0551  1.3368
  673THF     O111087   0.110   4.631   1.039 -0.1687 -0.2240  0.4768
  673THF     C211088  -0.033   4.630   1.041 -0.3016  0.4024  0.6357
  673THF     C311089   0.148   4.660   1.167 -0.5267 -0.0281 -0.2058
  673THF     H411090  -0.083   4.585   0.960 -0.9956 -1.0680 -0.5114
  673THF     H511091  -0.071   4.731   1.038  1.5018  1.5580  0.3364
  673THF     H611092   0.248   4.621   1.178  0.4011 -0.6367  2.0391
  673THF     H711093   0.147   4.769   1.179  1.5285  0.0751  1.9714
  673THF     C811094   0.048   4.593   1.257  0.2234  0.1201 -0.8546
  673THF     C911095  -0.067   4.555   1.177  0.1422 -0.2125  0.1961
  673THF    H1011096   0.020   4.653   1.345 -1.5182 -0.5767  1.0851
  673THF    H1111097   0.082   4.495   1.297  2.1317  0.6651  0.1232
  673THF    H1211098  -0.085   4.451   1.159  0.6751  0.0854  1.7307
  673THF    H1311099  -0.165   4.586   1.214  0.2068 -2.7452  2.0969
  674THF     O111100   3.328   5.001   2.708  0.2715  0.1226  0.0457
  674THF     C211101   3.189   4.977   2.730  0.5293  0.1670 -0.4747
  674THF     C311102   3.394   4.910   2.805 -0.8769  0.2047  0.2349
  674THF     H411103   3.160   4.889   2.684 -0.5742  0.2536  0.3990
  674THF     H511104   3.137   5.061   2.684  0.7773 -0.1785 -2.0231
  674THF     H611105   3.388   4.808   2.768 -1.4771 -0.4030 -1.9273
  674THF     H711106   3.504   4.930   2.828  0.2902 -0.3697  2.4900
  674THF     C811107   3.311   4.953   2.931 -0.2228 -0.4633  0.0610
  674THF     C911108   3.169   4.959   2.878  0.1405 -0.1393  0.1481
  674THF    H1011109   3.349   5.046   2.959 -1.9895 -2.3566  1.4225
  674THF    H1111110   3.321   4.874   3.012 -1.8557 -4.6091  0.4537
  674THF    H1211111   3.124   4.859   2.891  0.0262 -1.0387 -0.1214
  674THF    H1311112   3.108   5.037   2.920  1.4089  0.3625  0.6678
  675THF     O111113   1.375   0.898   2.106  0.9129  0.2914  0.5347
  675THF     C211114   1.255   0.970   2.142  0.8918  0.3173  0.1718
  675THF     C311115   1.421   0.940   1.979  0.1610  0.1623  0.1765
  675THF     H411116   1.278   1.051   2.205  1.8366 -2.3203  0.7227
  675THF     H511117   1.194   0.894   2.188  0.9989 -0.5976 -1.2168
  675THF     H611118   1.523   0.981   1.991  0.3996 -0.6955  1.9976
  675THF     H711119   1.422   0.851   1.926 -2.6158  2.1739  1.3136
  675THF     C811120   1.321   1.043   1.929 -0.8179  0.2974  0.0598
  675THF     C911121   1.198   1.022   2.013 -0.2338 -0.0187 -0.0620
  675THF    H1011122   1.305   1.031   1.822 -0.9690  0.7081  3.6814
  675THF    H1111123   1.353   1.152   1.941 -0.4866  1.4124  1.1489
  675THF    H1211124   1.137   1.109   2.035  0.5020 -1.5080 -1.1867
  675THF    H1311125   1.137   0.936   1.971  1.5359 -1.7193  0.9787
  676THF     O111126   2.998   1.637   5.232  0.0231 -0.1614  0.6632
  676THF     C211127   2.945   1.575   5.346  0.1645 -0.6429  0.2104
  676THF     C311128   2.997   1.540   5.126  0.2008  0.0381  0.1097
  676THF     H411129   2.903   1.653   5.408 -0.9890  2.4667  2.6666
  676THF     H511130   3.031   1.518   5.394  1.1932 -0.7954 -0.1569
  676THF     H611131   2.989   1.584   5.028 -2.5871  1.8641 -1.4068
  676THF     H711132   3.091   1.476   5.127  1.0038 -2.2307  1.2581
  676THF     C811133   2.883   1.443   5.158 -0.0252  0.2065 -0.3375
  676THF     C911134   2.831   1.497   5.287  0.6362  1.0173 -0.4455
  676THF    H1011135   2.918   1.344   5.178 -1.0231 -0.2869  0.3633
  676THF    H1111136   2.798   1.434   5.087 -0.8057 -0.3328 -0.8493
  676THF    H1211137   2.738   1.554   5.267  0.0330  1.9230 -4.2404
  676THF    H1311138   2.799   1.416   5.349 -2.3711 -0.4763 -3.3251
  677THF     O111139   2.966   0.206   5.453  0.1939 -0.0173  0.1207
  677THF     C211140   2.914   0.086   5.501  0.1023  0.2185  0.2748
  677THF     C311141   2.897   0.245   5.339  0.3276  0.2535  0.7000
  677THF     H411142   2.826   0.097   5.571  0.0878 -1.5370 -0.6933
  677THF     H511143   3.002   0.040   5.553  0.8056 -1.9793  0.9940
  677THF     H611144   2.810   0.284   5.371  2.2661 -1.9343 -1.1100
  677THF     H711145   2.942   0.327   5.282 -0.1517 -0.1582  2.2281
  677THF     C811146   2.898   0.117   5.266  0.3373 -0.2375  1.1569
  677THF     C911147   2.869   0.017   5.375 -0.0140  0.5038  0.0131
  677THF    H1011148   2.997   0.101   5.223  1.2006 -2.4416  0.6140
  677THF    H1111149   2.819   0.127   5.195 -0.5124 -1.4559  1.0676
  677THF    H1211150   2.761  -0.014   5.383 -0.1707  0.9355  0.3371
  677THF    H1311151   2.931  -0.066   5.358  1.6366 -0.4154 -0.7884
  678THF     O111152   3.857   3.075   0.459 -0.4769  0.9358 -0.3994
  678THF     C211153   3.766   3.059   0.567  0.2594 -0.1346  0.6018
  678THF     C311154   3.833   3.194   0.383  0.5350  0.0994  0.3171
  678THF     H411155   3.800   3.089   0.665  2.0033 -0.1198 -1.9984
  678THF     H511156   3.747   2.950   0.573 -2.3140 -0.3943 -2.8205
  678THF     H611157   3.882   3.284   0.427  0.0966  0.6432 -0.5116
  678THF     H711158   3.869   3.181   0.273 -0.6668 -0.7234 -3.4208
  678THF     C811159   3.681   3.210   0.387  0.1040 -0.1927 -0.3117
  678THF     C911160   3.646   3.140   0.522  0.5318 -0.3886  0.7288
  678THF    H1011161   3.632   3.156   0.300  0.2709 -1.8565 -0.1792
  678THF    H1111162   3.646   3.310   0.376  0.8499  0.9618  2.8869
  678THF    H1211163   3.631   3.209   0.608  0.0665 -0.5079 -0.1391
  678THF    H1311164   3.558   3.085   0.515  1.9710 -2.8996 -0.9893
  679THF     O111165   0.731   5.302   1.817 -0.3317  0.4909 -0.6152
  679THF     C211166   0.680   5.170   1.818  0.8559  1.0860 -0.4049
  679THF     C311167   0.818   5.317   1.924  0.3514 -0.7606  0.6847
  679THF     H411168   0.745   5.099   1.764  1.3762  0.0268  0.2844
  679THF     H511169   0.582   5.158   1.767 -1.6821  2.1673 -3.7682
  679THF     H611170   0.912   5.349   1.901 -1.3746 -0.6688  2.4051
  679THF     H711171   0.795   5.406   1.979 -0.4138 -0.1037 -2.0230
  679THF     C811172   0.818   5.192   2.012  0.5907 -0.2704 -0.3489
  679THF     C911173   0.686   5.123   1.964 -0.4677  0.2490 -0.2386
  679THF    H1011174   0.835   5.200   2.118  0.0346 -0.3656  0.5649
  679THF    H1111175   0.890   5.122   1.987 -2.9728  1.5281  0.9664
  679THF    H1211176   0.679   5.017   1.983  0.1551  1.1316  0.6315
  679THF    H1311177   0.601   5.165   2.020  0.6920 -0.3844 -1.3981
  680THF     O111178   2.898   2.241   1.523 -0.2307  0.6578  0.0083
  680THF     C211179   2.866   2.351   1.605  0.2709  0.3271  0.0546
  680THF     C311180   2.927   2.289   1.392 -0.1992  0.0171  0.2617
  680THF     H411181   2.889   2.310   1.705 -1.5127 -0.3316 -1.7908
  680THF     H511182   2.761   2.401   1.598 -1.5502 -0.4826 -1.2863
  680THF     H611183   2.985   2.217   1.331  1.9043  3.4594 -1.1977
  680THF     H711184   2.830   2.311   1.340 -3.8633 -0.6890 -1.1242
  680THF     C811185   3.001   2.418   1.420  0.5464 -0.5411  0.1462
  680THF     C911186   2.977   2.447   1.565  0.1108 -0.7292 -0.8378
  680THF    H1011187   2.980   2.510   1.355  1.0163  2.2763 -0.6607
  680THF    H1111188   3.109   2.420   1.403  0.1112  2.0256  1.1702
  680THF    H1211189   3.066   2.435   1.626 -0.2576  1.3811 -2.7761
  680THF    H1311190   2.942   2.546   1.578 -0.5950 -1.3324 -3.7420
  681THF     O111191   4.046   0.997   3.487 -0.2805  0.5016  0.4381
  681THF     C211192   3.941   0.935   3.562  0.1098  0.2224 -0.1814
  681THF     C311193   4.137   1.050   3.579  0.4668  0.0716  0.0036
  681THF     H411194   3.893   0.860   3.498  0.7285 -0.6205 -0.6988
  681THF     H511195   3.876   1.013   3.600  1.9249 -0.9807 -1.8199
  681THF     H611196   4.218   1.088   3.515  1.8999 -0.6635 -1.5884
  681THF     H711197   4.096   1.133   3.637  1.6537  0.6411 -1.7555
  681THF     C811198   4.166   0.937   3.676  0.8815 -0.5903  0.3929
  681THF     C911199   4.030   0.863   3.674  0.1293  0.0255 -0.3373
  681THF    H1011200   4.189   0.986   3.766  2.0899  1.0806 -1.3841
  681THF    H1111201   4.251   0.871   3.650  1.7108 -0.0318  2.2337
  681THF    H1211202   4.042   0.760   3.650 -1.8157  3.3369  0.9941
  681THF    H1311203   3.975   0.876   3.766 -0.2529  1.0219  0.4203
  682THF     O111204   4.838   4.012   4.559 -0.1690 -0.1300  0.1820
  682THF     C211205   4.782   3.907   4.488 -0.3065  0.0551  0.1137
  682THF     C311206   4.898   3.954   4.673  0.3874 -0.0953 -0.2389
  682THF     H411207   4.738   3.933   4.394 -0.9561  1.8287 -1.1768
  682THF     H511208   4.699   3.874   4.545  1.1353 -3.3936  3.3159
  682THF     H611209   4.983   4.024   4.709 -0.6293 -0.5705  0.2771
  682THF     H711210   4.822   3.932   4.752 -2.5678  1.2637 -0.6176
  682THF     C811211   4.962   3.827   4.617  0.2081 -0.5206  0.6030
  682THF     C911212   4.875   3.790   4.498 -0.4079 -0.3901  0.1875
  682THF    H1011213   4.991   3.743   4.682 -0.4226 -1.2585 -1.5189
  682THF    H1111214   5.057   3.853   4.586  1.9083  0.7311  1.8020
  682THF    H1211215   4.936   3.773   4.409 -1.5149  3.1497 -2.5409
  682THF    H1311216   4.816   3.708   4.509  1.2507 -1.0303 -0.7879
  683THF     O111217   1.855   1.814   2.018 -0.1712 -0.3596  0.1886
  683THF     C211218   1.935   1.743   1.918  0.0902  0.1367 -0.1149
  683THF     C311219   1.797   1.718   2.106 -0.3356 -0.4423 -1.5380
  683THF     H411220   2.038   1.767   1.933  0.4054 -2.1304 -0.5252
  683THF     H511221   1.908   1.759   1.808  2.3156 -0.2116 -0.8397
  683THF     H611222   1.865   1.692   2.191 -2.0053 -3.4453 -1.2644
  683THF     H711223   1.704   1.771   2.153  1.4719 -0.4374  1.8080
  683THF     C811224   1.773   1.601   2.021  0.0733 -0.6288 -0.1287
  683THF     C911225   1.905   1.595   1.953 -0.5434 -0.7736  0.7064
  683THF    H1011226   1.699   1.603   1.943  0.1226  1.4717  1.8533
  683THF    H1111227   1.742   1.508   2.073  1.6039 -0.0014  0.5966
  683THF    H1211228   1.981   1.546   2.021 -3.5235 -0.8202  2.7643
  683THF    H1311229   1.904   1.517   1.873  1.6637 -0.8419 -0.4930
  684THF     O111230   0.064   2.562   4.032  0.6179  0.2906 -0.3553
  684THF     C211231  -0.045   2.623   3.963 -0.3292  0.2777  0.0785
  684THF     C311232   0.054   2.421   3.996  0.2377  0.1345  0.2537
  684THF     H411233  -0.014   2.640   3.857  4.7307 -1.3429 -2.9975
  684THF     H511234  -0.052   2.724   3.999 -0.4120 -0.1662  3.0612
  684THF     H611235   0.085   2.406   3.889  0.1255  1.1280 -0.8028
  684THF     H711236   0.104   2.350   4.065 -0.2210 -1.7047  0.2145
  684THF     C811237  -0.104   2.394   4.002  0.2758  0.3672 -0.7228
  684THF     C911238  -0.162   2.533   4.002  0.1774  0.2134  0.0460
  684THF    H1011239  -0.135   2.348   4.094 -1.3234  1.8619 -0.5289
  684THF    H1111240  -0.145   2.334   3.916 -0.0185 -0.6501 -0.8415
  684THF    H1211241  -0.241   2.529   3.925 -0.1370 -2.3958 -1.4081
  684THF    H1311242  -0.204   2.544   4.104 -1.5632  1.0812 -2.2886
  685THF     O111243   5.312   1.516   2.718 -0.2086 -0.1849 -0.1173
  685THF     C211244   5.365   1.418   2.810 -0.3597 -0.0740  0.2631
  685THF     C311245   5.301   1.643   2.781  0.3980 -0.1424  0.2410
  685THF     H411246   5.428   1.343   2.762 -1.0543 -1.6660  1.0356
  685THF     H511247   5.283   1.367   2.855  1.8407  2.6164  1.0108
  685THF     H611248   5.360   1.720   2.737  1.8243 -2.0966  3.1782
  685THF     H711249   5.201   1.679   2.797  2.3574 -1.3828  0.8639
  685THF     C811250   5.356   1.627   2.914 -0.0472  0.6652 -0.6450
  685THF     C911251   5.441   1.506   2.906 -0.8113 -0.6305 -0.1767
  685THF    H1011252   5.284   1.620   3.000  1.3500  0.6073 -0.4229
  685THF    H1111253   5.413   1.720   2.932  0.9159 -1.1427 -3.6559
  685THF    H1211254   5.539   1.535   2.861 -2.7810 -2.3102  1.5184
  685THF    H1311255   5.444   1.474   3.007 -0.6486 -0.1601  0.0897
  686THF     O111256   0.537   1.721   1.627  0.2592  0.3512  0.3105
  686THF     C211257   0.546   1.594   1.694 -0.2912 -0.8319  0.0308
  686THF     C311258   0.659   1.791   1.634 -0.5782 -0.1959 -0.0489
  686THF     H411259   0.531   1.515   1.623 -1.6857  1.2107 -2.8765
  686THF     H511260   0.467   1.582   1.769  0.0121 -0.4776  1.7804
  686THF     H611261   0.655   1.863   1.555 -0.4977 -0.3010 -3.1542
  686THF     H711262   0.643   1.847   1.726 -2.0026  0.2355  0.1853
  686THF     C811263   0.765   1.684   1.639 -0.1912 -1.0892  0.3552
  686THF     C911264   0.692   1.598   1.748 -0.5328 -0.4974 -0.0542
  686THF    H1011265   0.864   1.708   1.655 -0.5587  1.3421 -0.3175
  686THF    H1111266   0.764   1.627   1.547 -1.2812 -1.8769  2.6504
  686THF    H1211267   0.733   1.497   1.750 -0.4609 -0.8793 -2.6389
  686THF    H1311268   0.709   1.648   1.846  3.9820 -0.6618  0.6573
  687THF     O111269   1.762   2.790   0.676 -0.2359 -1.2518 -0.5545
  687THF     C211270   1.658   2.860   0.607  0.2267  0.0398 -0.0892
  687THF     C311271   1.885   2.867   0.649 -0.1609  0.5733 -0.4781
  687THF     H411272   1.613   2.937   0.662 -0.6393 -0.5615 -2.1703
  687THF     H511273   1.581   2.792   0.567  0.4671  1.4891 -1.2582
  687THF     H611274   1.883   2.961   0.709  0.0458 -0.2642  0.7037
  687THF     H711275   1.985   2.823   0.683  1.5802 -0.4344 -0.3906
  687THF     C811276   1.880   2.891   0.497 -0.3129  0.5754 -1.1570
  687THF     C911277   1.730   2.909   0.480 -0.3460 -0.0158  0.1259
  687THF    H1011278   1.911   2.792   0.453 -3.1661  0.3764  2.2470
  687THF    H1111279   1.937   2.974   0.463 -0.6237 -0.1209  0.3237
  687THF    H1211280   1.681   3.009   0.459  0.4599 -2.1807  0.6574
  687THF    H1311281   1.716   2.859   0.387  0.5674  1.4018 -0.5471
  688THF     O111282   5.352   3.449   1.671  0.1424  0.0976 -0.0357
  688THF     C211283   5.463   3.426   1.761 -0.1360  0.2473  0.3110
  688THF     C311284   5.273   3.551   1.729  0.5621  0.4063 -0.2772
  688THF     H411285   5.543   3.382   1.701  0.1424 -1.0769 -1.3847
  688THF     H511286   5.437   3.356   1.839  1.2401  0.8105 -1.1320
  688THF     H611287   5.226   3.617   1.652  0.2904 -1.7653  2.6547
  688THF     H711288   5.191   3.509   1.788 -0.0110 -3.2594 -0.6935
  688THF     C811289   5.365   3.630   1.823 -0.3706 -0.2015  0.3523
  688THF     C911290   5.502   3.568   1.803  0.0135 -0.3833 -0.5235
  688THF    H1011291   5.331   3.612   1.928  0.8231  1.6462 -0.9874
  688THF    H1111292   5.374   3.738   1.802  0.3014  1.4972 -1.5052
  688THF    H1211293   5.564   3.628   1.732 -3.3912  0.6311 -0.0811
  688THF    H1311294   5.559   3.575   1.897 -0.6659 -2.2950 -0.5055
  689THF     O111295   2.050   0.081   0.367 -0.2737 -0.0973  0.3878
  689THF     C211296   2.127   0.159   0.458 -0.1963 -0.3747 -0.1867
  689THF     C311297   1.932   0.153   0.337 -0.2883  0.2131  0.1121
  689THF     H411298   2.196   0.219   0.403 -0.5838  0.8492  0.6342
  689THF     H511299   2.195   0.091   0.519  1.8747 -2.4594 -2.6164
  689THF     H611300   1.957   0.228   0.275 -0.4682 -0.0734  0.5935
  689THF     H711301   1.856   0.095   0.285  1.8254 -1.3684 -1.5585
  689THF     C811302   1.885   0.214   0.472 -0.2441 -0.2701 -0.0672
  689THF     C911303   2.019   0.239   0.535 -0.3943  0.0436  0.7489
  689THF    H1011304   1.844   0.134   0.541 -0.8218 -0.4858 -0.8382
  689THF    H1111305   1.819   0.299   0.462  0.8865  1.4462 -1.1018
  689THF    H1211306   2.040   0.345   0.543 -3.1919 -0.6114 -0.2641
  689THF    H1311307   2.024   0.194   0.632  0.8152  0.2729  1.7862
  690THF     O111308   2.136   3.456   1.448 -0.5678  0.0623 -0.8127
  690THF     C211309   2.005   3.416   1.463  0.0340 -0.1461  0.4489
  690THF     C311310   2.193   3.439   1.574 -0.6315  0.3474  0.5969
  690THF     H411311   1.959   3.396   1.363  1.6996 -0.6569 -0.1204
  690THF     H511312   1.956   3.499   1.503  1.4748  2.4515 -1.9408
  690THF     H611313   2.301   3.440   1.563  0.7152 -1.1110 -0.7348
  690THF     H711314   2.165   3.515   1.644 -1.6996  0.3527  2.3488
  690THF     C811315   2.135   3.311   1.631 -0.1232 -0.3594 -0.6821
  690THF     C911316   2.008   3.285   1.545 -0.7375 -0.2573 -0.2156
  690THF    H1011317   2.104   3.304   1.738  1.1989  1.6142  0.6943
  690THF    H1111318   2.199   3.233   1.599 -0.2313  1.4414 -0.9771
  690THF    H1211319   2.014   3.201   1.476  3.0053  0.9891  2.3067
  690THF    H1311320   1.922   3.276   1.610  0.3765  1.9022 -0.1455
  691THF     O111321   4.638   1.546   0.451 -0.0185 -0.1150 -0.7158
  691THF     C211322   4.551   1.616   0.356 -0.1248 -0.0148 -0.3497
  691THF     C311323   4.658   1.621   0.569 -0.1804  0.2993 -0.2281
  691THF     H411324   4.503   1.552   0.289  3.0536  1.1877  1.2875
  691THF     H511325   4.597   1.687   0.289  0.4745  2.9410 -0.2795
  691THF     H611326   4.681   1.563   0.656 -0.5716  0.0494  0.9292
  691THF     H711327   4.731   1.700   0.550 -1.2814  1.5743 -0.9124
  691THF     C811328   4.532   1.708   0.585  0.1787  0.2573  1.2100
  691THF     C911329   4.449   1.678   0.456  0.1106 -0.3617 -0.2684
  691THF    H1011330   4.552   1.821   0.593  1.6591 -1.2532  0.1791
  691THF    H1111331   4.474   1.675   0.675  0.0408  0.9476 -1.2549
  691THF    H1211332   4.371   1.605   0.480  2.6381 -2.7698 -0.8725
  691THF    H1311333   4.411   1.774   0.423  0.5354 -0.2427 -2.6929
  692THF     O111334   4.249   3.140   2.115 -0.0179 -0.2179 -0.0143
  692THF     C211335   4.249   3.008   2.063  0.2485  0.3677  0.1032
  692THF     C311336   4.361   3.161   2.198  0.0713 -0.2604 -0.2043
  692THF     H411337   4.325   2.999   1.983  1.3459 -0.6870  2.3356
  692THF     H511338   4.150   2.980   2.018  1.3487 -0.3773  0.5545
  692THF     H611339   4.446   3.203   2.149 -0.8132 -0.4920  2.1217
  692THF     H711340   4.331   3.229   2.281  0.6523  2.9579 -2.0908
  692THF     C811341   4.388   3.018   2.249  0.2581  0.0530 -0.0431
  692THF     C911342   4.274   2.934   2.185  0.0977 -0.1720  0.1189
  692THF    H1011343   4.383   2.993   2.358 -0.8480 -1.5261  0.6836
  692THF    H1111344   4.486   2.994   2.208  0.3453 -0.0156 -2.2048
  692THF    H1211345   4.299   2.829   2.157  3.0546 -0.7156  0.8474
  692THF    H1311346   4.182   2.946   2.244  2.4311  1.6515 -1.7349
  693THF     O111347   5.444   1.964   3.202 -0.0524  0.5603  0.6371
  693THF     C211348   5.303   1.942   3.186  0.1374  0.3678  0.0149
  693THF     C311349   5.448   2.063   3.304  0.1524  0.6670 -0.3014
  693THF     H411350   5.306   1.842   3.140  0.0550  1.7275  2.2540
  693THF     H511351   5.264   2.014   3.117  3.7884  0.7498 -0.0207
  693THF     H611352   5.538   2.069   3.356 -1.4569  1.4906  0.8477
  693THF     H711353   5.421   2.156   3.268  3.2110 -1.6846  2.0747
  693THF     C811354   5.341   2.019   3.413 -0.3242 -0.3525  0.5646
  693THF     C911355   5.234   1.946   3.322  0.6188 -0.7967 -0.8022
  693THF    H1011356   5.326   2.118   3.445  1.7777  1.2688 -1.1458
  693THF    H1111357   5.392   1.954   3.492  0.3910 -1.0220  0.3815
  693THF    H1211358   5.228   1.844   3.344  2.3266 -0.6582  0.1494
  693THF    H1311359   5.137   1.994   3.318 -2.5494  4.4636 -3.1009
  694THF     O111360   3.081   1.146   3.180 -0.9553 -0.4102  0.0337
  694THF     C211361   3.103   1.150   3.036  1.1070  0.2464 -0.9958
  694THF     C311362   2.962   1.063   3.197 -0.2550 -0.2180 -0.4906
  694THF     H411363   3.208   1.168   3.028  0.1344 -2.4701  1.9393
  694THF     H511364   3.062   1.235   2.985 -0.6183  1.4268 -0.6570
  694THF     H611365   2.962   1.024   3.296  2.6130 -0.0776 -0.0162
  694THF     H711366   2.872   1.127   3.177 -1.2713  5.0512  0.6754
  694THF     C811367   2.965   0.956   3.092 -0.0760 -0.6467 -0.3815
  694THF     C911368   3.048   1.025   2.980 -0.4864  0.2102  0.5112
  694THF    H1011369   2.867   0.929   3.058  0.8173  1.7308  1.5664
  694THF    H1111370   3.014   0.874   3.140  0.8276 -1.3404 -0.6518
  694THF    H1211371   3.135   0.969   2.950 -2.1411 -0.2911 -1.3127
  694THF    H1311372   2.993   1.052   2.891  2.3020  1.3363  2.0482
  695THF     O111373   2.179   3.326   2.324 -0.1025  0.8692 -0.7056
  695THF     C211374   2.316   3.287   2.312 -0.5031  0.4467  0.1475
  695THF     C311375   2.167   3.451   2.270  0.1409 -0.4472  0.1278
  695THF     H411376   2.338   3.253   2.211  1.4567  1.7845 -0.0383
  695THF     H511377   2.342   3.208   2.379 -2.3811  3.4660  1.7883
  695THF     H611378   2.170   3.440   2.160  0.8063  0.8961 -1.6023
  695THF     H711379   2.079   3.507   2.298 -1.5936 -1.2871 -2.7261
  695THF     C811380   2.288   3.528   2.313 -1.2304 -0.1786 -0.3963
  695THF     C911381   2.394   3.418   2.344  0.4271  0.1644 -0.6169
  695THF    H1011382   2.262   3.580   2.412 -2.4118  4.0923  1.9620
  695THF    H1111383   2.321   3.604   2.239 -1.0320 -2.1417 -2.1081
  695THF    H1211384   2.469   3.434   2.273  2.0080  1.2513 -1.0436
  695THF    H1311385   2.447   3.423   2.439  0.2204  0.7468  0.5287
  696THF     O111386   2.906   3.793   3.716  0.2256 -0.0108 -0.7591
  696THF     C211387   2.777   3.853   3.693 -0.0206 -0.2640  0.0966
  696THF     C311388   2.979   3.778   3.601  0.0063  0.4169 -0.5465
  696THF     H411389   2.800   3.958   3.711 -0.7124 -2.3465  1.3824
  696THF     H511390   2.707   3.814   3.771 -0.2639 -1.8840  1.8662
  696THF     H611391   3.025   3.869   3.555 -0.6645 -0.0843  2.0920
  696THF     H711392   3.058   3.696   3.611  1.8326 -3.9576  1.1851
  696THF     C811393   2.869   3.729   3.513 -0.4027 -0.1193 -0.2299
  696THF     C911394   2.746   3.811   3.551 -0.4173 -0.0068 -0.6110
  696THF    H1011395   2.842   3.622   3.536 -1.3125 -2.2433  0.6002
  696THF    H1111396   2.895   3.737   3.412 -1.4893 -0.9218  1.6972
  696THF    H1211397   2.727   3.894   3.488 -1.4405  0.2805  1.3626
  696THF    H1311398   2.660   3.742   3.551 -0.2065  0.3951  2.9374
  697THF     O111399   3.718   1.900   0.093  0.1555 -0.9426 -0.6042
  697THF     C211400   3.761   2.000  -0.002 -0.5491  0.5656  0.6886
  697THF     C311401   3.702   1.770   0.037  0.5484 -0.4380 -0.1287
  697THF     H411402   3.872   2.007   0.001  1.5187  4.2313 -0.2369
  697THF     H511403   3.717   2.098   0.020  0.6983 -0.7923 -0.0541
  697THF     H611404   3.797   1.720   0.018  2.7812 -0.0708  0.6066
  697THF     H711405   3.638   1.700   0.090  0.3810 -1.5728 -0.7537
  697THF     C811406   3.651   1.805  -0.095 -0.0894  0.3428  0.0074
  697THF     C911407   3.715   1.944  -0.136 -0.8127  0.4028  0.3598
  697THF    H1011408   3.544   1.812  -0.088  4.1733 -0.2020 -3.7500
  697THF    H1111409   3.678   1.730  -0.167  0.4721  0.3528  1.6155
  697THF    H1211410   3.796   1.947  -0.207  0.7473  2.5696 -0.4686
  697THF    H1311411   3.636   2.006  -0.170  0.4572 -2.4544  0.5067
  698THF     O111412   4.059   2.774   4.148 -0.0461  0.0147  0.0491
  698THF     C211413   4.038   2.915   4.172  0.5524 -0.0955  0.6671
  698THF     C311414   4.023   2.743   4.015 -0.1139 -0.3728  0.9768
  698THF     H411415   4.128   2.966   4.204 -0.2833  0.2178  0.1169
  698THF     H511416   3.973   2.931   4.259 -0.6935 -3.6994 -0.9566
  698THF     H611417   4.109   2.725   3.950 -2.7878 -0.4973 -1.3341
  698THF     H711418   3.961   2.649   4.010 -0.5872  1.4893  1.4479
  698THF     C811419   3.931   2.851   3.970 -0.0328 -0.1327 -0.8257
  698THF     C911420   3.983   2.974   4.048  0.4174  0.2957  0.5105
  698THF    H1011421   3.829   2.820   4.004  1.4603 -0.2372 -0.0536
  698THF    H1111422   3.916   2.863   3.862 -1.0309 -1.1188  0.7384
  698THF    H1211423   4.067   3.019   3.998  2.0941  0.9059  1.2418
  698THF    H1311424   3.906   3.042   4.071  1.3071  1.5134 -0.8248
  699THF     O111425   3.390   3.184   1.048 -0.1634 -0.1077  0.3868
  699THF     C211426   3.275   3.118   1.005 -0.0337 -0.1840 -0.6048
  699THF     C311427   3.507   3.152   0.972 -1.0391 -0.4184  0.5155
  699THF     H411428   3.211   3.198   0.969  0.5573 -1.6655  0.1779
  699THF     H511429   3.221   3.062   1.087 -0.0665 -1.9570 -1.8105
  699THF     H611430   3.555   3.253   0.963 -1.5901  1.2989 -0.5102
  699THF     H711431   3.566   3.085   1.038  2.5012  0.5369  3.3654
  699THF     C811432   3.449   3.091   0.845  0.4126 -0.4346  0.1111
  699THF     C911433   3.316   3.034   0.882  0.1328 -0.2608  0.0839
  699THF    H1011434   3.525   3.030   0.798 -2.0630 -1.7255  0.0793
  699THF    H1111435   3.417   3.165   0.777  0.9925 -0.1572  1.6248
  699THF    H1211436   3.241   3.016   0.801  0.1072  1.1757 -0.6663
  699THF    H1311437   3.337   2.936   0.925  1.6243 -0.9175 -1.0690
  700THF     O111438   4.822   0.086   2.899 -0.5963 -0.5444 -0.0861
  700THF     C211439   4.781   0.221   2.938 -0.2279  0.2654 -0.5915
  700THF     C311440   4.874   0.013   3.011  0.0428  0.2149 -0.3414
  700THF     H411441   4.672   0.235   2.929 -1.9780  0.9372  1.7876
  700THF     H511442   4.832   0.275   2.849  0.0729 -0.2160 -2.5408
  700THF     H611443   4.792  -0.054   3.034  3.4480 -1.1307  3.9448
  700THF     H711444   4.945  -0.052   2.972 -1.2158  0.0214 -2.2035
  700THF     C811445   4.905   0.118   3.119  0.1359 -0.0808 -0.7543
  700THF     C911446   4.834   0.251   3.075 -0.0192  0.1113  0.2202
  700THF    H1011447   5.008   0.129   3.129 -1.5557  1.7138 -0.5773
  700THF    H1111448   4.875   0.082   3.221 -0.8382 -0.8224 -0.5641
  700THF    H1211449   4.757   0.276   3.149 -0.9204  1.8301  0.4855
  700THF    H1311450   4.903   0.331   3.052  1.3905 -0.8478 -1.7371
  701THF     O111451   2.607   4.414   0.209  0.1678 -0.2472  0.1157
  701THF     C211452   2.567   4.534   0.274 -0.3777 -0.6896 -0.9713
  701THF     C311453   2.747   4.397   0.210  0.2152  0.0876 -0.3159
  701THF     H411454   2.573   4.499   0.375  0.5001 -1.7587 -0.1990
  701THF     H511455   2.476   4.576   0.234 -0.0588 -2.0115 -0.8693
  701THF     H611456   2.770   4.352   0.308 -0.4809 -0.6670  0.5369
  701THF     H711457   2.786   4.333   0.126 -4.2362  1.6775  0.5827
  701THF     C811458   2.788   4.547   0.188 -0.2263 -0.0916  0.3554
  701THF     C911459   2.681   4.631   0.256 -0.1672  0.0006  0.3268
  701THF    H1011460   2.797   4.556   0.081 -1.7415 -0.5985 -0.6678
  701THF    H1111461   2.890   4.576   0.212  0.6469  0.2944 -2.3092
  701THF    H1211462   2.699   4.679   0.354 -0.8904 -1.5980 -0.0298
  701THF    H1311463   2.646   4.708   0.189  0.0605 -1.1869 -2.3378
  702THF     O111464   5.153   2.931   0.854 -0.4512 -0.2260  0.3016
  702THF     C211465   5.149   3.002   0.976 -0.2342 -0.0509  0.6949
  702THF     C311466   5.216   3.018   0.755 -0.1259 -0.4497  0.2347
  702THF     H411467   5.233   2.974   1.029  2.0403  0.6610 -1.9514
  702THF     H511468   5.065   2.968   1.033  4.2741  0.7597 -1.3064
  702THF     H611469   5.284   2.971   0.682  0.0944 -1.0141 -0.3371
  702THF     H711470   5.133   3.050   0.695  1.2858  0.8595 -2.3724
  702THF     C811471   5.267   3.140   0.830  0.3391 -0.5685  0.7223
  702THF     C911472   5.160   3.146   0.939 -0.6428 -0.9446  0.1655
  702THF    H1011473   5.269   3.225   0.760  1.9148 -0.3983 -0.2713
  702THF    H1111474   5.365   3.122   0.878  0.8836 -0.7198  1.3830
  702THF    H1211475   5.183   3.209   1.022 -1.1450 -0.3907 -2.7305
  702THF    H1311476   5.066   3.178   0.900 -2.8539  0.5124  2.1793
  703THF     O111477   4.596   2.417   1.071 -0.3409 -0.1541  0.3334
  703THF     C211478   4.552   2.369   0.942  0.5373  0.3184  0.2339
  703THF     C311479   4.490   2.493   1.126 -0.3682 -0.1808 -0.0522
  703THF     H411480   4.483   2.280   0.953  0.0218  0.4288 -0.6450
  703THF     H511481   4.641   2.343   0.885 -0.3322  1.8196 -0.2579
  703THF     H611482   4.423   2.431   1.177 -0.7515 -0.6065  2.4018
  703THF     H711483   4.520   2.580   1.196  2.1746 -0.1990  1.0880
  703THF     C811484   4.440   2.563   1.003  0.4574 -0.5316 -0.2480
  703THF     C911485   4.461   2.470   0.883 -0.0389  0.0486 -0.1154
  703THF    H1011486   4.506   2.654   0.997 -0.3509  1.1162 -2.2898
  703THF    H1111487   4.332   2.596   1.007 -0.4190  0.2642  3.6535
  703THF    H1211488   4.367   2.431   0.849 -0.5448 -0.4771 -1.8293
  703THF    H1311489   4.504   2.519   0.797  0.7692  0.9173  0.6101
  704THF     O111490   3.273   0.932   4.794 -0.0198 -0.0059 -0.3638
  704THF     C211491   3.317   0.899   4.663 -0.1273 -0.3770  0.3760
  704THF     C311492   3.356   1.034   4.841 -0.4154 -0.0584 -0.2843
  704THF     H411493   3.243   0.839   4.610  2.0644  0.4978 -1.1988
  704THF     H511494   3.420   0.862   4.663  2.0840  0.1787  0.6194
  704THF     H611495   3.316   1.090   4.924 -2.0647 -2.6540  3.5537
  704THF     H711496   3.453   0.986   4.861  0.1583 -2.6674 -1.1672
  704THF     C811497   3.374   1.118   4.723  0.3488  0.1616 -0.5081
  704THF     C911498   3.316   1.038   4.607  0.6247  0.6237  0.4927
  704THF    H1011499   3.479   1.129   4.726 -0.5961  0.5934 -0.0374
  704THF    H1111500   3.322   1.211   4.740  1.5795 -0.4406 -0.6676
  704THF    H1211501   3.214   1.065   4.593  1.0271 -3.3816 -0.2566
  704THF    H1311502   3.379   1.040   4.519 -2.5812  0.1468 -1.0874
  705THF     O111503   4.974   0.023   1.657  0.3234  0.1665 -0.1299
  705THF     C211504   5.099   0.091   1.671 -0.4545 -0.0272 -0.2399
  705THF     C311505   4.996  -0.105   1.595 -0.2332 -0.4529 -0.1983
  705THF     H411506   5.089   0.148   1.765 -2.2283 -2.0570  1.8814
  705THF     H511507   5.125   0.148   1.583 -1.4878  0.2335 -0.6317
  705THF     H611508   4.923  -0.177   1.623 -0.3971  1.4473  0.0795
  705THF     H711509   5.014  -0.092   1.485 -0.8439 -2.8797  0.7693
  705THF     C811510   5.128  -0.154   1.644 -0.1455 -0.4363  0.1755
  705THF     C911511   5.202  -0.026   1.687  0.0626  0.7678 -0.0680
  705THF    H1011512   5.187  -0.214   1.574 -3.5113  2.6361  0.8032
  705THF    H1111513   5.124  -0.213   1.738  1.0078  3.3626 -0.7247
  705THF    H1211514   5.238  -0.039   1.789 -1.9195  1.3789  0.2541
  705THF    H1311515   5.289  -0.007   1.623  3.1405  0.6864  0.7346
  706THF     O111516   0.998   1.687   0.242 -0.3382 -0.0946  0.6490
  706THF     C211517   0.902   1.616   0.321  0.1901  0.2021  0.2114
  706THF     C311518   1.106   1.601   0.208  0.2457 -0.3347  0.2652
  706THF     H411519   0.829   1.567   0.251 -2.0529 -1.9009 -2.0365
  706THF     H511520   0.847   1.690   0.378  0.4434  1.3475 -0.6651
  706THF     H611521   1.098   1.533   0.126  0.5452  0.5987 -0.1715
  706THF     H711522   1.189   1.669   0.175  0.1925  0.9316 -0.8753
  706THF     C811523   1.120   1.521   0.340  0.2325 -0.0393 -0.1188
  706THF     C911524   0.976   1.519   0.411 -0.9139  0.2031  0.8327
  706THF    H1011525   1.184   1.578   0.407  2.5669  0.2144  3.9112
  706THF    H1111526   1.161   1.425   0.323  1.0402  0.7573  1.9878
  706THF    H1211527   0.934   1.418   0.398 -0.2099  1.1437  1.5401
  706THF    H1311528   0.980   1.540   0.520 -1.3813  0.1518  1.0455
  707THF     O111529   2.827   4.371   1.761  0.3063  0.0472  0.0265
  707THF     C211530   2.933   4.286   1.725 -0.9255  0.0324 -0.1890
  707THF     C311531   2.845   4.491   1.692 -0.3013 -0.6409 -0.6260
  707THF     H411532   2.933   4.175   1.751 -0.2806 -0.1722  2.5571
  707THF     H511533   3.033   4.313   1.774  1.7256 -2.4716  0.2426
  707THF     H611534   2.759   4.558   1.702 -1.9073 -1.8980 -0.5370
  707THF     H711535   2.940   4.544   1.723 -0.1959  1.5848  1.2472
  707THF     C811536   2.876   4.444   1.547  0.7431 -0.1780 -0.0330
  707THF     C911537   2.943   4.306   1.574  0.5596 -0.4536 -0.2727
  707THF    H1011538   2.941   4.512   1.496 -2.5375 -1.4567 -0.0191
  707THF    H1111539   2.779   4.423   1.494  2.4203 -0.4333 -1.3613
  707THF    H1211540   2.895   4.229   1.521 -0.9886  0.6753 -1.3638
  707THF    H1311541   3.053   4.309   1.549  3.9106  1.2638  2.0952
  708THF     O111542   1.580   4.073   4.568  0.2905  0.1891  0.1740
  708THF     C211543   1.546   3.937   4.552 -0.0260  0.3561  0.2862
  708THF     C311544   1.619   4.131   4.442  0.9164 -0.1183 -0.1550
  708THF     H411545   1.465   3.926   4.626  0.8657 -0.0719  3.7942
  708THF     H511546   1.627   3.867   4.579  1.1154  1.7472  0.1800
  708THF     H611547   1.542   4.207   4.417  2.3396  0.0580 -3.5146
  708THF     H711548   1.719   4.180   4.456 -1.9848 -3.6802  0.7686
  708THF     C811549   1.623   4.015   4.342 -0.0173  0.2689  0.3365
  708THF     C911550   1.511   3.927   4.401  0.3709  0.6161 -0.3249
  708THF    H1011551   1.718   3.979   4.345 -2.6295  2.1580 -1.0822
  708THF    H1111552   1.609   4.045   4.236 -1.4006  0.1536 -0.8437
  708THF    H1211553   1.420   3.978   4.376 -0.0861  0.5193  0.8824
  708THF    H1311554   1.506   3.829   4.365 -0.6275 -1.0742 -0.3768
  709THF     O111555   0.859   4.323   3.637 -0.6558  0.2018  0.3653
  709THF     C211556   0.894   4.277   3.772  0.0866 -0.1275  0.4059
  709THF     C311557   0.782   4.226   3.571  0.5247  0.1617 -0.7002
  709THF     H411558   0.903   4.362   3.838 -0.1029  1.2334 -1.8432
  709THF     H511559   0.983   4.214   3.770  1.1587 -1.2471 -3.6371
  709THF     H611560   0.737   4.269   3.484 -0.5741 -1.4556 -1.5775
  709THF     H711561   0.846   4.150   3.535 -2.0833  3.8572  1.1263
  709THF     C811562   0.682   4.186   3.685  0.2648 -0.1742 -0.7041
  709THF     C911563   0.783   4.180   3.801 -0.6851  0.5374 -0.2890
  709THF    H1011564   0.623   4.092   3.683 -0.0642  1.9731  2.9645
  709THF    H1111565   0.612   4.277   3.702 -0.1308 -0.0494  0.3897
  709THF    H1211566   0.748   4.187   3.901  0.8210  0.1248 -1.5275
  709THF    H1311567   0.834   4.082   3.785 -0.1661  2.3717 -0.8295
  710THF     O111568   1.943   2.083   0.113 -0.1459  0.1536 -0.2228
  710THF     C211569   2.036   2.034   0.206 -0.0509 -0.5990  0.1707
  710THF     C311570   1.858   2.166   0.193  0.2053 -0.0836  0.2248
  710THF     H411571   2.126   2.100   0.221 -2.5460 -0.2285 -1.9223
  710THF     H511572   2.065   1.937   0.172 -1.9870  2.7903 -1.8320
  710THF     H611573   1.896   2.264   0.218 -0.1755  1.2741  0.5876
  710THF     H711574   1.766   2.174   0.137  0.6677 -0.8401 -0.9284
  710THF     C811575   1.835   2.092   0.319  0.2020 -0.5889 -0.9860
  710THF     C911576   1.963   2.007   0.334 -0.7140  0.1985  0.8548
  710THF    H1011577   1.743   2.036   0.310  1.4810  2.0654 -3.2493
  710THF    H1111578   1.822   2.154   0.408 -0.3490 -3.6158  1.3311
  710THF    H1211579   2.022   2.044   0.417  1.1425  0.5831  2.3474
  710THF    H1311580   1.940   1.899   0.329  1.9716  2.5610  2.4305
  711THF     O111581   4.118   1.527   5.262  0.3231 -0.1225  0.2102
  711THF     C211582   4.182   1.641   5.209 -0.2601 -0.2175 -0.1374
  711THF     C311583   4.002   1.499   5.189  0.4480 -0.0953  0.4341
  711THF     H411584   4.246   1.610   5.130 -1.1802 -0.6187  0.3626
  711THF     H511585   4.244   1.690   5.285  0.9031 -0.9669 -3.0776
  711THF     H611586   4.012   1.402   5.136  0.6330 -2.9121 -0.0563
  711THF     H711587   3.908   1.496   5.250  0.1756  0.6164 -0.7217
  711THF     C811588   3.987   1.615   5.093  0.8778  0.6079 -0.0818
  711THF     C911589   4.057   1.724   5.159 -0.1937 -0.5134  0.9202
  711THF    H1011590   3.885   1.620   5.062  5.0422 -1.2453 -0.5786
  711THF    H1111591   4.049   1.599   5.000 -1.1040 -0.1169  0.7956
  711THF    H1211592   4.076   1.811   5.095 -0.6578  1.5952 -0.1055
  711THF    H1311593   3.989   1.755   5.238  0.9501  1.0230 -2.5102
  712THF     O111594   0.589   2.017   0.726 -1.2026  0.0160 -0.1637
  712THF     C211595   0.488   2.067   0.809  0.1649 -0.6394  0.0658
  712THF     C311596   0.526   1.922   0.635  0.2037  0.0667 -0.8916
  712THF     H411597   0.472   2.169   0.788  2.2759 -2.8926  0.4967
  712THF     H511598   0.521   2.059   0.910  1.9073  1.0513 -0.0407
  712THF     H611599   0.482   1.981   0.557 -0.2200  0.0485  0.1032
  712THF     H711600   0.599   1.861   0.596  1.5334  3.8795  0.5297
  712THF     C811601   0.417   1.861   0.724 -0.1416 -0.0857 -0.3205
  712THF     C911602   0.361   1.982   0.797  0.2909  0.0448 -0.3605
  712THF    H1011603   0.457   1.798   0.808  1.4265  0.1858 -0.4193
  712THF    H1111604   0.344   1.799   0.677  1.5068  1.2537  1.5462
  712THF    H1211605   0.280   2.035   0.740  0.4381  4.1477 -2.3590
  712THF    H1311606   0.335   1.954   0.904 -0.5100  2.2844  0.3109
  713THF     O111607   0.647   0.839   2.732  0.2716 -0.1678 -0.6386
  713THF     C211608   0.521   0.782   2.739  0.5331  0.2691 -0.1629
  713THF     C311609   0.740   0.759   2.806 -0.3790 -0.1982  0.2815
  713THF     H411610   0.511   0.697   2.670 -2.3408 -0.0521 -1.9627
  713THF     H511611   0.439   0.848   2.702 -0.5732  2.4003 -1.4511
  713THF     H611612   0.799   0.688   2.747 -0.7783  0.1901  0.4201
  713THF     H711613   0.823   0.824   2.844  0.2994  1.8822 -0.8687
  713THF     C811614   0.651   0.692   2.912  0.4354 -0.7493 -0.2717
  713THF     C911615   0.517   0.756   2.892 -0.1573 -0.4124  0.2156
  713THF    H1011616   0.692   0.707   3.015  4.5363  1.3209  2.8877
  713THF    H1111617   0.644   0.594   2.894 -0.6847  3.0975  0.7383
  713THF    H1211618   0.438   0.692   2.935 -3.2104 -2.9317  0.7288
  713THF    H1311619   0.513   0.855   2.944 -1.6810 -0.6461 -1.3899
  714THF     O111620   3.793   1.641   4.563  0.6386  0.3307 -0.6353
  714THF     C211621   3.767   1.708   4.436 -0.2299 -0.0969 -0.7859
  714THF     C311622   3.715   1.704   4.666  0.0417  0.1620 -0.9357
  714THF     H411623   3.779   1.640   4.351 -3.3560  0.0516  1.0658
  714THF     H511624   3.842   1.792   4.426  1.0311 -0.9442  1.4511
  714THF     H611625   3.699   1.643   4.754 -1.4129  0.9797  0.1617
  714THF     H711626   3.752   1.798   4.706 -3.3201 -0.7971  0.0379
  714THF     C811627   3.586   1.738   4.593  0.2742 -1.1335 -0.1841
  714THF     C911628   3.628   1.765   4.457  0.5861  0.1611 -0.2231
  714THF    H1011629   3.527   1.821   4.638 -0.3335 -1.5930 -0.3371
  714THF    H1111630   3.510   1.660   4.576 -2.1010  0.6736  2.2087
  714THF    H1211631   3.559   1.735   4.385  1.0107 -1.4768 -0.7022
  714THF    H1311632   3.630   1.875   4.449 -0.4485  2.9399  0.2989
  715THF     O111633   4.049   5.322   1.259  0.4316  0.3105  0.1575
  715THF     C211634   4.071   5.443   1.180 -0.0688 -0.0286 -0.4050
  715THF     C311635   4.046   5.365   1.393 -0.4968 -0.6706 -0.0924
  715THF     H411636   3.980   5.499   1.174  0.5726 -1.1103  0.4989
  715THF     H511637   4.117   5.416   1.081  2.6803  0.8859 -0.8102
  715THF     H611638   3.946   5.406   1.407  1.6116 -1.1281  0.5402
  715THF     H711639   4.056   5.283   1.461  0.5435 -0.2413 -1.5601
  715THF     C811640   4.161   5.468   1.411 -0.2145 -0.9320 -0.1816
  715THF     C911641   4.162   5.534   1.275  0.3406  0.3501  0.2712
  715THF    H1011642   4.258   5.425   1.435 -2.6813 -0.1068  0.2514
  715THF    H1111643   4.133   5.535   1.499  1.5531 -0.5808  0.8592
  715THF    H1211644   4.123   5.639   1.267  1.2306 -0.4468  3.1156
  715THF    H1311645   4.258   5.528   1.225  0.7345 -1.6126 -0.0850
  716THF     O111646   1.905   5.029   1.510  0.3715  0.2398  0.1317
  716THF     C211647   1.838   5.113   1.601 -0.1029 -0.3815  0.2197
  716THF     C311648   1.943   5.109   1.401 -0.2034  0.0476 -0.2506
  716THF     H411649   1.862   5.080   1.700  0.5469 -0.0800 -1.4536
  716THF     H511650   1.732   5.119   1.594  1.2816 -1.4687 -0.0119
  716THF     H611651   2.018   5.059   1.341 -1.4566  1.1680  0.6980
  716THF     H711652   1.852   5.115   1.335  0.1336 -0.5409  0.2441
  716THF     C811653   1.980   5.243   1.463 -0.1800  0.1077 -0.0041
  716THF     C911654   1.895   5.257   1.585  0.3518  0.4368 -0.1877
  716THF    H1011655   1.954   5.328   1.399  2.2422  0.8613  0.3793
  716THF    H1111656   2.085   5.233   1.477 -2.0548 -0.5042  1.4591
  716THF    H1211657   1.958   5.302   1.664 -1.7125 -0.4736  3.2462
  716THF    H1311658   1.808   5.324   1.568 -1.9303 -0.2918 -0.1428
  717THF     O111659   1.396   4.073   5.142  0.5567  0.2675 -0.7632
  717THF     C211660   1.347   4.197   5.089  0.2129  0.5903 -0.0709
  717THF     C311661   1.369   4.061   5.281 -1.1409 -0.4521 -0.0272
  717THF     H411662   1.242   4.182   5.067  1.5752  1.3005 -2.0812
  717THF     H511663   1.395   4.217   4.995 -0.4468  1.3685  0.1932
  717THF     H611664   1.273   4.014   5.305 -1.5781  2.0363 -1.3400
  717THF     H711665   1.456   4.012   5.322  0.6109  0.6394  0.0949
  717THF     C811666   1.352   4.208   5.328 -0.1756 -0.3475 -0.2002
  717THF     C911667   1.390   4.284   5.207  0.0178 -0.0054 -0.3441
  717THF    H1011668   1.406   4.229   5.417 -0.0242 -2.8368 -0.1855
  717THF    H1111669   1.249   4.218   5.357  2.4960  1.7011  1.8319
  717THF    H1211670   1.338   4.382   5.209 -0.7942 -1.0358  1.5051
  717THF    H1311671   1.499   4.302   5.205  1.9048 -1.0617  0.7377
  718THF     O111672   4.072   4.924   0.131 -0.0255  0.0782  0.0689
  718THF     C211673   3.985   4.816   0.099 -0.2157 -0.2106  0.2026
  718THF     C311674   4.093   4.923   0.273 -0.1503 -0.1588 -0.1702
  718THF     H411675   4.053   4.722   0.092 -2.1876  1.5345  2.1249
  718THF     H511676   3.944   4.852   0.002  1.6886 -3.4204  0.1892
  718THF     H611677   4.194   4.888   0.305  0.6896  0.6219 -3.8120
  718THF     H711678   4.094   5.027   0.317 -2.7274 -1.0931 -0.2632
  718THF     C811679   3.980   4.830   0.331  0.2071 -0.1225 -0.5685
  718THF     C911680   3.890   4.803   0.210 -0.4747 -0.0097  0.4021
  718THF    H1011681   3.938   4.865   0.427 -0.1754 -0.2785 -1.1158
  718THF    H1111682   4.029   4.731   0.355 -1.6631  1.7468 -1.7199
  718THF    H1211683   3.848   4.700   0.206  2.2516 -0.2050  1.5841
  718THF    H1311684   3.814   4.887   0.202 -2.2020  1.9793  2.2636
  719THF     O111685   3.168   1.762   5.437 -0.2982 -0.5077  0.3432
  719THF     C211686   3.206   1.862   5.533  0.0631 -0.0313 -0.0467
  719THF     C311687   3.277   1.671   5.423  0.0508 -0.0500 -0.5164
  719THF     H411688   3.125   1.918   5.579  0.4040  2.4446 -0.2530
  719THF     H511689   3.275   1.937   5.487 -2.1689 -2.4853  2.4935
  719THF     H611690   3.258   1.587   5.362 -0.8338  3.2647  1.3758
  719THF     H711691   3.356   1.721   5.378 -0.1452  1.4672 -0.9178
  719THF     C811692   3.317   1.634   5.563  1.0285 -0.2486 -0.2238
  719THF     C911693   3.291   1.769   5.632  0.1693  0.6877  0.4089
  719THF    H1011694   3.417   1.598   5.572 -1.4401  1.6771 -1.2218
  719THF    H1111695   3.242   1.569   5.600 -0.0755 -1.8282  0.0298
  719THF    H1211696   3.240   1.748   5.727 -1.1894 -2.7371 -0.9866
  719THF    H1311697   3.388   1.815   5.646  1.2863 -1.5518 -0.1930
  720THF     O111698   3.245   4.555   2.158  0.5184 -0.6395  0.4906
  720THF     C211699   3.295   4.525   2.032 -0.1167  0.6645  0.5484
  720THF     C311700   3.200   4.687   2.151  0.4762 -0.8359 -0.3176
  720THF     H411701   3.286   4.419   2.010  1.5626 -2.6299  2.1184
  720THF     H511702   3.401   4.555   2.034  1.3858  2.1081 -3.2186
  720THF     H611703   3.137   4.716   2.229 -0.2757  3.8755 -0.2467
  720THF     H711704   3.286   4.753   2.164  2.0002  1.0962  0.1432
  720THF     C811705   3.144   4.701   2.011  0.6370 -0.2489 -0.0519
  720THF     C911706   3.231   4.610   1.925 -0.1771  0.5612 -0.3945
  720THF    H1011707   3.135   4.804   1.979  1.5760  0.9861 -1.4664
  720THF    H1111708   3.040   4.666   2.021 -0.8427 -0.1332 -2.7661
  720THF    H1211709   3.167   4.555   1.856  1.1239 -2.8399  0.1212
  720THF    H1311710   3.313   4.653   1.870  2.3338  0.4339 -0.1328
  721THF     O111711   1.687   4.819   3.034 -0.3721  0.2546  0.1946
  721THF     C211712   1.751   4.942   3.053  0.6747 -0.1423  0.3950
  721THF     C311713   1.553   4.838   3.058  0.7915  0.2849  1.0270
  721THF     H411714   1.717   5.006   2.966 -2.5693  1.6428 -5.7763
  721THF     H511715   1.857   4.933   3.050 -1.9867 -2.7023 -1.7869
  721THF     H611716   1.508   4.887   2.973  0.5866  2.3047 -1.0627
  721THF     H711717   1.503   4.745   3.079  1.6816  0.4502 -0.1056
  721THF     C811718   1.549   4.926   3.176 -0.5025  0.5970 -0.5868
  721THF     C911719   1.683   4.988   3.180 -0.1310 -0.1080 -0.1581
  721THF    H1011720   1.535   4.867   3.268  1.5342  0.8065 -0.5775
  721THF    H1111721   1.461   4.980   3.171 -1.4503 -1.8666 -2.1445
  721THF    H1211722   1.663   5.098   3.163  1.0636 -1.6656  1.3144
  721THF    H1311723   1.725   4.963   3.273  0.1531 -1.4423 -1.0159
  722THF     O111724   5.425   2.733   0.777 -0.5384  0.4329  0.4574
  722THF     C211725   5.458   2.739   0.913  0.3228 -0.1663 -0.5753
  722THF     C311726   5.328   2.631   0.765  0.1592 -0.0399  0.3259
  722THF     H411727   5.391   2.812   0.968 -0.5588  0.0489 -2.4779
  722THF     H511728   5.561   2.774   0.922  0.3093 -1.6425 -1.9330
  722THF     H611729   5.236   2.681   0.787 -1.1182 -0.7922  2.1750
  722THF     H711730   5.329   2.610   0.659  2.2172  0.6599 -0.0709
  722THF     C811731   5.365   2.511   0.859  0.2550 -0.5288  0.2131
  722THF     C911732   5.436   2.590   0.970 -0.9665  0.2875  0.2233
  722THF    H1011733   5.428   2.433   0.810  2.6983  1.5264  4.5146
  722THF    H1111734   5.282   2.463   0.911 -0.6301 -0.4686  1.5873
  722THF    H1211735   5.375   2.585   1.057  1.7809 -0.3560 -0.2390
  722THF    H1311736   5.528   2.557   1.007  0.7971  0.4945 -0.5356
  723THF     O111737   1.373   1.141   1.551  0.0144  0.6982 -0.4272
  723THF     C211738   1.357   1.261   1.480  0.4813  0.1125  0.3632
  723THF     C311739   1.252   1.063   1.529 -0.4525  0.1488 -0.5026
  723THF     H411740   1.457   1.299   1.461  0.5131  0.9238  0.1074
  723THF     H511741   1.309   1.336   1.540  0.3678 -1.4449  2.2467
  723THF     H611742   1.265   0.954   1.536  0.0406 -0.4086 -0.9276
  723THF     H711743   1.177   1.084   1.614 -0.8138  2.0496  1.1975
  723THF     C811744   1.196   1.096   1.393 -0.0131 -0.6256  0.0205
  723THF     C911745   1.269   1.228   1.357 -0.5708 -0.0086  0.1118
  723THF    H1011746   1.088   1.088   1.407  0.7237 -1.3065  1.0988
  723THF    H1111747   1.224   1.019   1.323  2.0206 -3.3746 -0.3535
  723THF    H1211748   1.333   1.216   1.269 -0.4182 -0.7272  0.2507
  723THF    H1311749   1.207   1.316   1.320 -1.2559 -1.3160  1.5503
  724THF     O111750   4.018   0.626   2.337 -0.0454 -0.3023 -0.0392
  724THF     C211751   4.028   0.675   2.199  0.6055 -0.8624 -0.8921
  724THF     C311752   4.057   0.489   2.333 -0.2693  0.0268  0.9385
  724THF     H411753   4.029   0.785   2.188 -0.1140  0.8563  0.7610
  724THF     H511754   3.937   0.645   2.149 -0.3583  2.0075 -0.7294
  724THF     H611755   4.095   0.457   2.433 -3.4506 -2.1424 -0.3154
  724THF     H711756   3.988   0.418   2.289 -1.2665 -0.7288  0.7814
  724THF     C811757   4.179   0.491   2.233  0.3990  0.3203  0.0982
  724THF     C911758   4.164   0.618   2.155  0.1694  0.1704  0.2993
  724THF    H1011759   4.184   0.403   2.169  0.0806  1.4371  1.2569
  724THF    H1111760   4.271   0.487   2.294  2.0433 -0.1809  2.9195
  724THF    H1211761   4.253   0.674   2.181  1.2465  0.4074 -1.3237
  724THF    H1311762   4.169   0.589   2.045 -2.7484 -2.8249 -0.5291
  725THF     O111763   4.735   3.346   5.442 -0.5089 -0.3465  0.2807
  725THF     C211764   4.684   3.218   5.477  0.4053  0.3233  0.2037
  725THF     C311765   4.794   3.415   5.555 -0.3433  0.2989 -0.1857
  725THF     H411766   4.716   3.140   5.414 -1.1674 -1.5283 -0.0683
  725THF     H511767   4.580   3.204   5.474 -2.4145 -0.2580 -0.1131
  725THF     H611768   4.870   3.480   5.515 -2.6481 -2.9760 -1.5771
  725THF     H711769   4.723   3.488   5.587  3.8783 -2.6452  2.4073
  725THF     C811770   4.819   3.311   5.659 -0.2146  0.1981 -0.7998
  725THF     C911771   4.726   3.199   5.622 -0.5597  0.4266  0.0407
  725THF    H1011772   4.811   3.348   5.762  2.7291  1.1624  0.8525
  725THF    H1111773   4.925   3.275   5.646 -0.2819 -1.6600  0.1420
  725THF    H1211774   4.770   3.100   5.642 -2.8772 -1.9218  0.7487
  725THF    H1311775   4.634   3.205   5.677  1.9219  0.9316  1.1172
  726THF     O111776   5.476   4.906   3.470 -0.1972  0.1955 -0.5457
  726THF     C211777   5.545   4.850   3.580  1.0547  0.2796 -0.3113
  726THF     C311778   5.547   5.020   3.431 -0.0919 -0.2224  0.4383
  726THF     H411779   5.511   4.745   3.582  0.7051 -2.2593  1.1615
  726THF     H511780   5.503   4.892   3.677  2.5210  1.4129  1.8524
  726THF     H611781   5.505   5.049   3.337 -0.6346  0.0367 -1.0670
  726THF     H711782   5.529   5.104   3.496 -2.2631  0.0476  0.8656
  726THF     C811783   5.696   4.970   3.432 -0.5171  0.3489 -0.0189
  726THF     C911784   5.692   4.879   3.553  0.1106 -0.4815 -0.1277
  726THF    H1011785   5.783   5.037   3.445  1.5231 -0.6555  4.6870
  726THF    H1111786   5.704   4.912   3.342  0.5672 -4.2129  0.8035
  726THF    H1211787   5.741   4.783   3.530 -0.4956 -1.5029  0.1601
  726THF    H1311788   5.745   4.926   3.639  1.1884 -1.8480 -0.5501
  727THF     O111789   2.802   1.164   4.983 -0.0991 -0.4019  0.2915
  727THF     C211790   2.854   1.170   4.860 -0.3409  0.6701 -0.1090
  727THF     C311791   2.874   1.062   5.060 -0.3675  0.0815  0.0767
  727THF     H411792   2.828   1.257   4.801 -1.5404 -0.4149 -1.7829
  727THF     H511793   2.817   1.089   4.800 -1.0212  0.4266 -1.8090
  727THF     H611794   2.866   1.057   5.171  1.6742 -2.5180  1.3188
  727THF     H711795   2.835   0.965   5.021  0.7093  2.9185 -0.9893
  727THF     C811796   3.022   1.084   5.013  0.2152  0.4598 -0.1551
  727THF     C911797   3.006   1.163   4.884  0.3227 -0.2475 -0.2089
  727THF    H1011798   3.075   0.992   4.993  3.4951  0.1077  2.4872
  727THF    H1111799   3.075   1.137   5.093 -0.4761  1.4396  1.3713
  727THF    H1211800   3.035   1.276   4.900  1.2409  2.2404 -1.5560
  727THF    H1311801   3.051   1.119   4.789  1.0035  0.7219 -1.3689
  728THF     O111802   0.962   0.018   1.477 -0.4262 -0.0850 -0.3635
  728THF     C211803   0.815   0.006   1.470 -0.7184  0.3983 -0.5334
  728THF     C311804   1.005  -0.073   1.580  0.7980 -0.6670  0.1035
  728THF     H411805   0.769   0.048   1.381  0.3357 -1.1408 -0.4967
  728THF     H511806   0.781   0.059   1.556 -0.0742 -0.1766 -0.5096
  728THF     H611807   1.113  -0.086   1.575  1.0338 -0.9048 -3.7980
  728THF     H711808   0.974  -0.035   1.673 -2.5862 -0.7949 -4.1210
  728THF     C811809   0.930  -0.195   1.538  0.1100  0.1518  0.5534
  728THF     C911810   0.798  -0.146   1.489  0.5155 -0.0542 -0.7676
  728THF    H1011811   0.916  -0.270   1.618  0.1599  1.8936 -0.2447
  728THF    H1111812   0.990  -0.254   1.461  1.7034  2.7116 -3.8238
  728THF    H1211813   0.777  -0.204   1.399  2.5178  2.7649  2.7714
  728THF    H1311814   0.710  -0.164   1.552 -1.4358  0.8351 -0.5700
  729THF     O111815   3.632   3.270   1.470 -0.0724  0.1067  0.0335
  729THF     C211816   3.527   3.267   1.381 -0.0585 -0.5380 -0.1803
  729THF     C311817   3.731   3.185   1.419  0.4336 -0.4886 -0.0203
  729THF     H411818   3.554   3.319   1.291  1.3625  1.3136  3.5430
  729THF     H511819   3.442   3.316   1.427  2.5170 -1.4857 -1.2696
  729THF     H611820   3.779   3.238   1.336  1.2245 -1.2055  1.4098
  729THF     H711821   3.809   3.155   1.482 -2.8872 -1.6166  1.1164
  729THF     C811822   3.660   3.069   1.354 -0.1466 -0.3466  0.1344
  729THF     C911823   3.516   3.114   1.377 -0.0627 -0.5020 -0.9726
  729THF    H1011824   3.695   2.983   1.410  2.1291  1.0759  3.1271
  729THF    H1111825   3.685   3.065   1.247  1.5296  0.4489 -1.4401
  729THF    H1211826   3.451   3.075   1.295 -0.5595  0.4900 -0.6346
  729THF    H1311827   3.476   3.084   1.472 -0.0923 -0.6990 -0.4789
  730THF     O111828   3.704   4.114   1.214  0.6958  0.4386  0.4150
  730THF     C211829   3.688   4.062   1.080 -0.0832  0.1659  0.5727
  730THF     C311830   3.572   4.153   1.263 -0.5689  1.3860 -0.3865
  730THF     H411831   3.755   3.973   1.065 -1.7111  0.0042 -1.8273
  730THF     H511832   3.737   4.148   1.029  3.7058  5.3482  0.2768
  730THF     H611833   3.542   4.070   1.329 -0.5269 -0.9606 -0.8015
  730THF     H711834   3.580   4.252   1.314 -1.6105  1.7507  1.6071
  730THF     C811835   3.491   4.160   1.132  0.7425  0.1643  0.4815
  730THF     C911836   3.540   4.048   1.052  0.0771  0.2655  0.0347
  730THF    H1011837   3.512   4.247   1.076  0.3579  0.2177 -1.4887
  730THF    H1111838   3.386   4.156   1.156 -0.0901 -0.7095  1.9938
  730THF    H1211839   3.511   3.950   1.080 -2.0643  0.6134  1.1845
  730THF    H1311840   3.526   4.068   0.950 -1.9566  0.6015  1.2491
  731THF     O111841   5.198   4.896   2.486 -0.6303  0.0447 -0.2136
  731THF     C211842   5.106   4.888   2.380 -0.3344  0.0799  0.3229
  731THF     C311843   5.161   5.013   2.554 -0.4928 -0.4342  0.2148
  731THF     H411844   5.006   4.858   2.411  0.2347  1.6583  1.3955
  731THF     H511845   5.130   4.819   2.304  1.0037 -2.1981  2.4104
  731THF     H611846   5.128   4.984   2.651 -1.9523  0.5939 -3.2225
  731THF     H711847   5.242   5.078   2.576  0.1545 -2.6818 -2.8777
  731THF     C811848   5.068   5.094   2.472 -0.0650 -0.5583 -0.1416
  731THF     C911849   5.070   5.024   2.335 -0.4066 -0.2413  0.3398
  731THF    H1011850   5.089   5.203   2.469  1.5720  0.2658 -1.6306
  731THF    H1111851   4.966   5.091   2.511 -2.4277  0.4240  1.7880
  731THF    H1211852   4.977   5.035   2.277 -1.2125  2.5566 -0.4438
  731THF    H1311853   5.144   5.066   2.263  1.3397  1.5016 -0.1360
  732THF     O111854   4.327   1.635   3.705 -0.1480  0.1166  0.6371
  732THF     C211855   4.245   1.693   3.602 -0.1800  0.1233  0.1860
  732THF     C311856   4.459   1.677   3.667 -0.7273  0.0365 -0.5904
  732THF     H411857   4.222   1.800   3.603 -0.7992 -0.9529 -1.4551
  732THF     H511858   4.149   1.648   3.620  1.2873 -1.2426 -2.2597
  732THF     H611859   4.464   1.784   3.669  1.0798  0.0591  0.1539
  732THF     H711860   4.546   1.635   3.724  0.7817 -0.4959  1.8332
  732THF     C811861   4.468   1.643   3.522 -0.3451  0.0329 -0.2792
  732THF     C911862   4.317   1.645   3.481  0.7518 -0.1691  0.6893
  732THF    H1011863   4.506   1.539   3.525 -0.1817  0.6875  0.1975
  732THF    H1111864   4.533   1.709   3.471 -1.3340 -0.5506 -2.3547
  732THF    H1211865   4.311   1.716   3.395  1.5095  0.5569 -1.2523
  732THF    H1311866   4.286   1.550   3.434  1.9612  0.4604  1.1576
  733THF     O111867   3.558   0.512   1.009  0.7165  0.2170  0.5538
  733THF     C211868   3.543   0.612   0.907  0.1651 -0.2741 -0.0428
  733THF     C311869   3.689   0.528   1.072  0.5713 -0.7917  0.1493
  733THF     H411870   3.445   0.639   0.880  0.9222 -0.1635 -1.3725
  733THF     H511871   3.595   0.581   0.821 -0.2928  2.4841  3.5262
  733THF     H611872   3.670   0.508   1.181  0.7305  1.8072 -1.0398
  733THF     H711873   3.756   0.452   1.049 -3.3431 -1.2645  0.1012
  733THF     C811874   3.742   0.666   1.031  0.2613 -0.1828 -0.8424
  733THF     C911875   3.623   0.731   0.965  0.4629 -0.4656  0.0893
  733THF    H1011876   3.819   0.642   0.962  1.2465 -2.2860 -3.1688
  733THF    H1111877   3.796   0.712   1.116 -1.4365  0.0059  1.5321
  733THF    H1211878   3.564   0.778   1.042 -3.7356 -1.8228  2.2429
  733THF    H1311879   3.654   0.799   0.886  2.5803 -0.9612 -1.7197
  734THF     O111880   4.689   5.027   4.346  0.1453 -0.0475  0.9347
  734THF     C211881   4.607   4.914   4.351 -0.2380  0.0973  0.6670
  734THF     C311882   4.614   5.132   4.281 -0.0546  0.1602  0.3994
  734THF     H411883   4.553   4.924   4.446  0.8152 -1.0692 -2.1887
  734THF     H511884   4.678   4.835   4.345  0.5000  0.0706  1.1555
  734THF     H611885   4.538   5.172   4.343  0.9851 -1.0500 -3.6389
  734THF     H711886   4.671   5.215   4.239 -0.4824 -0.7037  3.4444
  734THF     C811887   4.551   5.053   4.166  0.3107  0.5333 -0.8783
  734THF     C911888   4.518   4.916   4.224 -0.1559  0.1758 -0.1761
  734THF    H1011889   4.636   5.039   4.095 -0.8850 -0.0895 -1.9239
  734THF    H1111890   4.464   5.085   4.113 -0.5793  1.2481  0.9440
  734THF    H1211891   4.419   4.919   4.268 -0.4536 -3.5112  1.7051
  734THF    H1311892   4.529   4.834   4.152  2.9432 -2.3388  0.6147
  735THF     O111893   4.077   5.174   1.915 -0.6394  0.1867 -0.0113
  735THF     C211894   3.965   5.225   1.853 -0.1660  0.3306  0.1499
  735THF     C311895   4.197   5.200   1.831 -0.5694 -0.4529 -0.4204
  735THF     H411896   3.872   5.224   1.914  2.1684  0.5246  2.5342
  735THF     H511897   3.947   5.178   1.751 -0.9994 -0.8597  2.2670
  735THF     H611898   4.277   5.180   1.908 -1.2498  1.6663 -1.5378
  735THF     H711899   4.203   5.131   1.743 -0.1837  0.4606 -0.9183
  735THF     C811900   4.163   5.350   1.796 -0.2167 -0.0427 -0.0358
  735THF     C911901   4.013   5.369   1.820  0.3827 -0.3877 -0.3331
  735THF    H1011902   4.197   5.360   1.691  0.3047  1.7976  0.6454
  735THF    H1111903   4.228   5.411   1.862  0.2734  1.3499  0.0976
  735THF    H1211904   3.978   5.425   1.906 -0.2482 -1.5054 -0.0399
  735THF    H1311905   3.964   5.406   1.734 -1.1297 -2.9329  2.6085
  736THF     O111906   3.726   2.537   2.212 -0.3693  0.0854 -0.3263
  736THF     C211907   3.654   2.419   2.257  0.6655 -0.2553  0.7147
  736THF     C311908   3.741   2.625   2.326  0.3094 -0.2026 -0.2815
  736THF     H411909   3.726   2.357   2.301 -1.7500  0.6920 -2.4913
  736THF     H511910   3.606   2.372   2.165  1.3097 -0.4403  0.0687
  736THF     H611911   3.835   2.620   2.379  2.0729 -1.1804 -1.6430
  736THF     H711912   3.743   2.720   2.281  0.3992 -0.6743 -2.0657
  736THF     C811913   3.618   2.599   2.411  0.8696  0.6485  0.7198
  736THF     C911914   3.555   2.473   2.355  0.0234 -0.4835  0.0718
  736THF    H1011915   3.546   2.682   2.396 -0.7181  1.0803 -1.8277
  736THF    H1111916   3.625   2.590   2.524  2.0658 -0.1319  0.2929
  736THF    H1211917   3.516   2.402   2.426 -0.1940  0.3167  2.3270
  736THF    H1311918   3.466   2.502   2.298  0.3527  1.7677  2.7600
  737THF     O111919   2.494   5.086   2.419 -0.2325 -0.6435 -0.1855
  737THF     C211920   2.423   4.991   2.345  0.1365  0.2874  0.1075
  737THF     C311921   2.621   5.085   2.357 -0.5190 -0.5369  0.8837
  737THF     H411922   2.368   5.041   2.266 -0.4272 -0.6554  2.0201
  737THF     H511923   2.353   4.948   2.419  0.2627  0.6721  0.6190
  737THF     H611924   2.624   5.150   2.270  1.0319  0.1459  0.8958
  737THF     H711925   2.695   5.124   2.435 -1.0084 -1.1863  0.4311
  737THF     C811926   2.659   4.938   2.335  0.6334  0.5681  0.1499
  737THF     C911927   2.524   4.886   2.306 -0.0019 -0.1000 -0.1087
  737THF    H1011928   2.696   4.900   2.434 -1.7535  1.2634  2.5012
  737THF    H1111929   2.734   4.934   2.259 -2.4729  0.0667  1.8437
  737THF    H1211930   2.509   4.870   2.197 -0.3453  2.6355 -1.3067
  737THF    H1311931   2.512   4.794   2.362 -0.5880 -2.6372 -0.5150
  738THF     O111932   5.363   4.941   4.691 -0.3221  0.0847 -0.6936
  738THF     C211933   5.390   5.031   4.582 -0.4351 -0.0061 -0.8477
  738THF     C311934   5.370   4.807   4.636 -0.4455  0.7832  0.1151
  738THF     H411935   5.423   5.130   4.619 -0.2936 -0.0812 -0.2583
  738THF     H511936   5.310   5.054   4.511  0.9202  1.6055  1.9854
  738THF     H611937   5.365   4.729   4.718 -2.4825  0.2160  4.3431
  738THF     H711938   5.274   4.789   4.587  0.6875 -0.0485  2.0809
  738THF     C811939   5.490   4.809   4.540  0.4543 -0.0604 -0.1640
  738THF     C911940   5.505   4.958   4.512 -0.2312  0.3132 -0.5882
  738THF    H1011941   5.481   4.749   4.452  0.3743 -1.4375 -0.5801
  738THF    H1111942   5.579   4.777   4.591  2.4046  1.4016  1.1618
  738THF    H1211943   5.598   4.985   4.565  0.1487 -2.8900  0.8409
  738THF    H1311944   5.507   4.977   4.406  2.4547  2.6160 -0.3610
  739THF     O111945   0.126   1.736   2.642 -0.0181 -0.6395 -0.5393
  739THF     C211946   0.139   1.778   2.506 -0.5328  0.4089 -0.0369
  739THF     C311947   0.254   1.756   2.704  0.0261  0.1793  0.2950
  739THF     H411948   0.051   1.783   2.441 -2.3877 -0.4948  2.4850
  739THF     H511949   0.202   1.694   2.471  0.3056  0.6675  1.8167
  739THF     H611950   0.227   1.771   2.808  0.6425 -3.6189  0.8731
  739THF     H711951   0.308   1.662   2.697 -1.9727 -1.0453  0.1679
  739THF     C811952   0.310   1.885   2.628  0.0725  0.6082 -0.4188
  739THF     C911953   0.214   1.907   2.515 -0.2456  0.4146  0.7618
  739THF    H1011954   0.413   1.865   2.596  2.9059 -0.4581 -2.9288
  739THF    H1111955   0.318   1.977   2.687  1.0281  1.7139 -2.1455
  739THF    H1211956   0.146   1.996   2.528 -0.7300 -2.9195 -2.2123
  739THF    H1311957   0.262   1.924   2.418  2.8706  2.8564  3.4110
  740THF     O111958   0.336   4.844   0.584 -0.6886  0.0749 -0.3584
  740THF     C211959   0.477   4.847   0.569  0.6320  0.6041 -0.0263
  740THF     C311960   0.279   4.828   0.453 -0.5392 -0.3295  0.8012
  740THF     H411961   0.508   4.754   0.615 -0.6067  1.9370  1.3338
  740THF     H511962   0.515   4.934   0.626  0.7629  0.8271 -0.2924
  740THF     H611963   0.271   4.719   0.424  1.0094 -3.6279 -0.5769
  740THF     H711964   0.182   4.873   0.457 -1.7978 -2.0111 -2.5572
  740THF     C811965   0.365   4.907   0.363  0.1030  0.0175 -0.3229
  740THF     C911966   0.502   4.871   0.417  0.5423 -0.3003  0.7087
  740THF    H1011967   0.346   5.015   0.378  1.6016  0.9530 -1.0597
  740THF    H1111968   0.358   4.888   0.258  0.6026 -0.4533 -1.2908
  740THF    H1211969   0.545   4.775   0.371 -0.5374  3.9407 -1.3328
  740THF    H1311970   0.574   4.954   0.395  1.4414 -0.5856  0.7606
  741THF     O111971   2.652   0.929   0.206 -0.1895 -0.3848 -0.5555
  741THF     C211972   2.603   1.053   0.251 -0.0546  0.2052  0.1327
  741THF     C311973   2.618   0.835   0.302  0.3140 -1.2985 -0.3538
  741THF     H411974   2.535   1.095   0.185  1.1171  0.6345  0.9904
  741THF     H511975   2.681   1.120   0.249 -3.0146 -1.2260  2.4409
  741THF     H611976   2.522   0.775   0.280 -0.9176 -1.0102 -0.6512
  741THF     H711977   2.696   0.766   0.294 -0.5042 -1.8510  1.6341
  741THF     C811978   2.610   0.911   0.428 -0.2259  0.2420  0.4120
  741THF     C911979   2.537   1.033   0.381 -0.6108 -0.1369 -0.3084
  741THF    H1011980   2.718   0.925   0.447 -0.8331 -0.6039  1.7047
  741THF    H1111981   2.564   0.858   0.512  0.5658 -0.8370  0.4123
  741THF    H1211982   2.434   1.015   0.376  0.3308  0.0610  0.2551
  741THF    H1311983   2.539   1.115   0.445 -1.4928  0.1588 -0.7149
  742THF     O111984   1.371   2.415   1.482  0.0018  0.2188 -0.0145
  742THF     C211985   1.238   2.381   1.447  0.0413  0.4389 -0.4388
  742THF     C311986   1.449   2.295   1.472  0.2643 -0.0309  0.1085
  742THF     H411987   1.178   2.471   1.429 -2.1989 -1.9743 -0.1352
  742THF     H511988   1.189   2.330   1.519  2.4775  1.1979 -1.2630
  742THF     H611989   1.557   2.312   1.445  1.6992 -1.7825 -1.5283
  742THF     H711990   1.444   2.268   1.574  0.5934  0.8948 -0.6338
  742THF     C811991   1.382   2.203   1.371 -0.2374 -0.6112 -0.2989
  742THF     C911992   1.267   2.295   1.323 -0.5710 -0.2960 -0.2495
  742THF    H1011993   1.347   2.117   1.423  0.6504 -3.3236 -0.9514
  742THF    H1111994   1.444   2.168   1.287  0.5571 -1.2266 -2.3190
  742THF    H1211995   1.302   2.364   1.248 -2.5248  0.8885  3.2685
  742THF    H1311996   1.183   2.239   1.284  1.8809  0.0590 -2.1988
  743THF     O111997   2.213   2.954   0.706 -0.5582  0.0672  0.0025
  743THF     C211998   2.242   2.966   0.570 -0.1402  0.4777  0.8358
  743THF     C311999   2.290   3.043   0.779  0.0203  0.7635  0.2283
  743THF     H412000   2.165   3.007   0.514  4.0360  2.4606  0.7296
  743THF     H512001   2.273   2.857   0.540  0.2675 -2.5820 -1.5046
  743THF     H612002   2.251   3.140   0.780  3.1277 -0.4120  0.0289
  743THF     H712003   2.311   3.000   0.880 -1.1805 -2.8354  0.8990
  743THF     C812004   2.424   3.046   0.701  0.6679  0.2351 -0.6469
  743THF     C912005   2.368   3.053   0.562 -0.9370  0.6068 -0.5985
  743THF    H1012006   2.496   2.968   0.722 -2.2792  1.5330 -0.1639
  743THF    H1112007   2.477   3.137   0.726  0.5325  3.3647  1.0897
  743THF    H1212008   2.340   3.149   0.542 -1.6493 -1.6821 -1.2685
  743THF    H1312009   2.437   3.020   0.487  0.1590  0.6392  3.2274
  744THF     O112010   4.528   3.494   2.977 -0.1368  0.1150 -1.0234
  744THF     C212011   4.540   3.545   2.849 -0.2271 -0.3821 -0.2644
  744THF     C312012   4.559   3.604   3.064  0.2569  0.9649 -0.3729
  744THF     H412013   4.458   3.617   2.818  0.5273 -0.7796 -0.6447
  744THF     H512014   4.545   3.471   2.770  2.7195 -4.1720 -1.2571
  744THF     H612015   4.471   3.662   3.067  0.3285 -2.7656 -0.2382
  744THF     H712016   4.581   3.577   3.171 -1.7696 -1.4045  1.3305
  744THF     C812017   4.680   3.671   2.997  0.4017  0.0324  0.4604
  744THF     C912018   4.671   3.617   2.852 -0.5393  0.3070 -0.7957
  744THF    H1012019   4.769   3.635   3.049  2.9791  2.4800 -0.8813
  744THF    H1112020   4.675   3.779   2.998  2.3142  0.2422  0.6933
  744THF    H1212021   4.679   3.703   2.786  1.6237 -2.1838 -2.4875
  744THF    H1312022   4.756   3.546   2.837 -0.2526 -0.0222 -1.9324
  745THF     O112023   4.312   3.216   4.537 -0.1153 -0.2070 -0.1306
  745THF     C212024   4.374   3.341   4.513  0.4370  0.2838 -0.2443
  745THF     C312025   4.171   3.235   4.550 -0.2820  0.1325 -0.3136
  745THF     H412026   4.410   3.337   4.411 -1.7328  2.3932 -0.0803
  745THF     H512027   4.463   3.350   4.582  0.1638 -1.7925 -0.4126
  745THF     H612028   4.132   3.227   4.445 -2.9257 -3.1460  1.1838
  745THF     H712029   4.111   3.159   4.598  0.9115  1.5289 -0.1499
  745THF     C812030   4.162   3.381   4.602  0.0347  1.1600 -0.5852
  745THF     C912031   4.277   3.459   4.539  0.6129  0.9498 -0.3260
  745THF    H1012032   4.175   3.383   4.710  1.7082  0.7681 -1.3447
  745THF    H1112033   4.074   3.432   4.580  1.0972  1.9839 -1.8179
  745THF    H1212034   4.246   3.503   4.443 -0.0005  0.1390 -0.6038
  745THF    H1312035   4.309   3.540   4.594 -0.7907 -0.8176  0.2333
  746THF     O112036   3.174   3.567   2.584 -0.1135  0.2511 -0.1130
  746THF     C212037   3.192   3.424   2.561 -0.9134 -0.5013 -0.0925
  746THF     C312038   3.211   3.626   2.462 -0.6179 -0.1715 -0.5462
  746THF     H412039   3.134   3.372   2.630  2.5102 -1.2338 -2.0451
  746THF     H512040   3.298   3.386   2.571  0.2881  0.8489 -0.3055
  746THF     H612041   3.167   3.724   2.442  1.7171 -0.9323  0.5513
  746THF     H712042   3.322   3.635   2.457  0.5650 -1.5334 -1.2205
  746THF     C812043   3.169   3.538   2.349 -0.3755 -0.9695  0.3978
  746THF     C912044   3.137   3.406   2.419 -0.2846  0.4586  0.4121
  746THF    H1012045   3.254   3.530   2.284  2.6693  1.7712  1.0441
  746THF    H1112046   3.081   3.583   2.293 -0.7066 -2.3838 -0.1782
  746THF    H1212047   3.031   3.378   2.433 -2.2772  0.7248  1.2687
  746THF    H1312048   3.185   3.314   2.379 -1.8278  2.0425 -1.3258
  747THF     O112049   1.213   3.651   2.724  0.3242  0.0092 -0.2436
  747THF     C212050   1.319   3.691   2.644  0.1857 -0.5396 -1.0254
  747THF     C312051   1.102   3.650   2.633 -0.5162  0.7309 -0.2493
  747THF     H412052   1.359   3.617   2.581  0.3254 -0.2628 -1.6656
  747THF     H512053   1.400   3.713   2.716 -0.2726  0.4811  0.8451
  747THF     H612054   1.114   3.553   2.581  1.3776  0.5124  2.8578
  747THF     H712055   1.001   3.642   2.688  0.1382  0.7439  0.2629
  747THF     C812056   1.117   3.770   2.549  0.0047  0.4309  0.8626
  747THF     C912057   1.262   3.813   2.575  0.0247 -0.9459  0.1122
  747THF    H1012058   1.033   3.849   2.555 -1.8523  0.8447 -1.8967
  747THF    H1112059   1.113   3.730   2.446  2.3173 -1.6838 -0.9896
  747THF    H1212060   1.333   3.856   2.497  1.9232  1.4163  1.3067
  747THF    H1312061   1.242   3.898   2.646 -3.5215  2.9259  0.0751
  748THF     O112062   0.723   0.905   2.059  0.5277  0.0452  0.9607
  748THF     C212063   0.689   0.769   2.031 -0.5882  0.3049 -0.2612
  748THF     C312064   0.845   0.937   1.991  0.6294 -0.2810 -0.2877
  748THF     H412065   0.588   0.757   2.062  1.5278  0.1418 -0.8870
  748THF     H512066   0.745   0.701   2.094  0.7150  3.2838  2.0301
  748THF     H612067   0.851   1.042   1.976  0.6765 -1.6472 -3.7624
  748THF     H712068   0.925   0.900   2.054  1.3602  2.8036 -0.3878
  748THF     C812069   0.819   0.866   1.858 -0.4170  0.3647  0.0782
  748THF     C912070   0.709   0.760   1.880  0.0118 -0.6175 -0.3091
  748THF    H1012071   0.903   0.831   1.806 -0.1030 -0.2802  2.0010
  748THF    H1112072   0.791   0.942   1.788  0.2075  1.2670 -0.2420
  748THF    H1212073   0.610   0.789   1.834  0.5530 -2.3648  1.1909
  748THF    H1312074   0.732   0.663   1.834  1.3744  1.2039 -3.5299
  749THF     O112075   1.835   3.601   2.059  0.8897 -0.3385 -0.2592
  749THF     C212076   1.807   3.541   1.929 -0.3309  0.0832  0.1057
  749THF     C312077   1.942   3.693   2.033  0.3194 -0.1972  0.4146
  749THF     H412078   1.760   3.614   1.858 -1.0971  0.0280 -2.4027
  749THF     H512079   1.753   3.450   1.947  0.2156  2.1387 -1.2312
  749THF     H612080   1.910   3.785   1.992  0.5997 -1.3812  1.7644
  749THF     H712081   1.996   3.725   2.113  2.6468  0.0517  0.7404
  749THF     C812082   2.029   3.621   1.938  1.2187  0.7514 -0.2567
  749THF     C912083   1.939   3.519   1.870 -0.0263  0.7250  0.4093
  749THF    H1012084   2.105   3.568   1.991 -2.3796 -3.2800 -0.3812
  749THF    H1112085   2.090   3.677   1.868  2.0227 -2.6488  0.3600
  749THF    H1212086   1.946   3.538   1.764  0.5243 -0.4620 -1.3313
  749THF    H1312087   1.972   3.416   1.887  2.6211  0.1024 -0.6443
  750THF     O112088   4.780   0.382   4.428 -0.2110  0.4077  0.8039
  750THF     C212089   4.885   0.460   4.367 -0.0481 -0.6401  0.3993
  750THF     C312090   4.787   0.381   4.567  0.0636  0.1022  0.7194
  750THF     H412091   4.852   0.507   4.275  0.3535 -1.9492 -3.1652
  750THF     H512092   4.972   0.400   4.327  1.7465 -0.0066 -0.1727
  750THF     H612093   4.697   0.363   4.625 -0.3841  1.5617  0.6839
  750THF     H712094   4.864   0.310   4.600 -0.6749  1.9293  0.6041
  750THF     C812095   4.822   0.530   4.586 -0.4407  0.4864 -0.4750
  750THF     C912096   4.909   0.571   4.472  0.5639  0.2220  0.3873
  750THF    H1012097   4.878   0.540   4.678 -0.8910  2.2132  1.1601
  750THF    H1112098   4.729   0.585   4.604 -0.0601  1.2692 -0.9997
  750THF    H1212099   4.897   0.675   4.429  0.3907  0.3313 -0.7607
  750THF    H1312100   5.006   0.575   4.505  1.7126 -0.7741 -0.6898
  751THF     O112101   4.556   2.817   4.463  0.1382  0.2391  0.5685
  751THF     C212102   4.595   2.827   4.594  0.6261  0.3897  1.2091
  751THF     C312103   4.481   2.933   4.435  0.0764 -0.0325 -0.3918
  751THF     H412104   4.653   2.747   4.615 -2.2174  0.2617  0.1963
  751THF     H512105   4.506   2.829   4.657 -0.9605  1.1095 -0.7718
  751THF     H612106   4.459   2.956   4.330 -0.8544  1.1208 -1.2819
  751THF     H712107   4.384   2.928   4.490  2.7016  0.2302  0.7109
  751THF     C812108   4.581   3.038   4.496 -0.3754 -0.1577 -0.6420
  751THF     C912109   4.665   2.965   4.600 -0.4740 -0.9068 -0.2354
  751THF    H1012110   4.537   3.127   4.534  3.4324 -1.4981  1.4045
  751THF    H1112111   4.652   3.080   4.422  0.9695 -2.0205 -2.7975
  751THF    H1212112   4.765   2.960   4.560  0.1761  1.8406  0.5776
  751THF    H1312113   4.666   3.018   4.697 -0.0035  0.7003  1.6007
  752THF     O112114   4.486   3.912   4.997 -0.0451 -0.3600  0.0906
  752THF     C212115   4.368   3.991   4.980  0.4457  0.1258 -0.5317
  752THF     C312116   4.591   4.001   4.980  0.1350  0.4460  0.4716
  752THF     H412117   4.364   4.071   5.057  0.1325  1.5515 -1.4214
  752THF     H512118   4.272   3.942   4.977 -0.7540 -2.3472  2.0304
  752THF     H612119   4.608   4.057   5.069 -2.0127  1.9996 -0.9277
  752THF     H712120   4.678   3.938   4.966 -2.8512 -0.9149 -1.9388
  752THF     C812121   4.544   4.086   4.864 -0.4720 -0.8318  1.1214
  752THF     C912122   4.395   4.066   4.855 -0.4328  0.3638  0.6416
  752THF    H1012123   4.597   4.048   4.768  1.1162 -1.5590 -0.0783
  752THF    H1112124   4.562   4.194   4.880 -2.5800  1.1778  0.0680
  752THF    H1212125   4.350   4.162   4.854  1.0158  0.1585  1.2239
  752THF    H1312126   4.370   4.007   4.767  1.8647 -2.5771 -2.1300
  753THF     O112127   3.520   0.790   4.005 -0.3775  0.3450  0.3674
  753THF     C212128   3.568   0.845   4.125 -0.0027  0.8401 -0.0328
  753THF     C312129   3.616   0.801   3.904 -0.2171  0.0101  0.8826
  753THF     H412130   3.621   0.770   4.191 -1.4652  0.1316  1.5531
  753THF     H512131   3.493   0.913   4.168  0.4026  2.6161 -2.0119
  753THF     H612132   3.689   0.719   3.918 -0.2135 -2.0907  0.1920
  753THF     H712133   3.566   0.796   3.808 -3.0836 -0.7958  2.2882
  753THF     C812134   3.691   0.934   3.927  0.1339 -0.2348 -0.2754
  753THF     C912135   3.684   0.937   4.078  0.1537 -0.1096  0.9507
  753THF    H1012136   3.638   1.020   3.881 -0.4670  0.5404 -0.8636
  753THF    H1112137   3.790   0.931   3.888  1.1456 -0.8547 -2.1514
  753THF    H1212138   3.773   0.889   4.115 -0.0833  0.1532 -0.3399
  753THF    H1312139   3.693   1.033   4.127 -0.5654  0.5737  0.0127
  754THF     O112140   3.203   3.758   1.104  0.6442 -0.5391  0.0292
  754THF     C212141   3.106   3.649   1.101 -0.4912 -0.0336 -0.4210
  754THF     C312142   3.325   3.691   1.138 -0.0427 -0.2225  0.0202
  754THF     H412143   3.006   3.679   1.057 -0.6134 -1.5573 -0.7432
  754THF     H512144   3.088   3.591   1.193  0.2408 -1.8267 -1.2794
  754THF     H612145   3.412   3.754   1.137  1.4446 -0.9187 -2.2067
  754THF     H712146   3.317   3.649   1.230 -1.0258 -1.3425 -1.1036
  754THF     C812147   3.329   3.585   1.035 -0.4028 -0.3146 -0.1889
  754THF     C912148   3.186   3.542   1.018 -0.4383  0.1144 -0.3875
  754THF    H1012149   3.399   3.499   1.049 -0.0244 -1.9850  1.4838
  754THF    H1112150   3.352   3.617   0.936 -1.6000  1.1534  0.0580
  754THF    H1212151   3.148   3.556   0.917  0.9280 -1.7565 -0.1676
  754THF    H1312152   3.179   3.440   1.059  2.1830 -2.8464 -0.4195
  755THF     O112153   0.154   0.778   1.242 -0.0164 -0.0493 -0.0729
  755THF     C212154   0.117   0.678   1.149  0.0153 -0.1985  0.3554
  755THF     C312155   0.295   0.758   1.274 -0.0046 -0.4315  0.6455
  755THF     H412156   0.085   0.737   1.061  0.9092  0.4595 -1.3820
  755THF     H512157   0.037   0.625   1.189  0.9634  0.3467  0.6470
  755THF     H612158   0.335   0.859   1.296  0.4178  0.3861  0.7063
  755THF     H712159   0.304   0.693   1.358  1.0220  2.6388  3.3420
  755THF     C812160   0.356   0.684   1.153 -0.1885 -0.4951  0.5425
  755THF     C912161   0.242   0.593   1.117  0.3806  0.2612 -0.0294
  755THF    H1012162   0.457   0.633   1.176  1.0990 -2.4320  0.4380
  755THF    H1112163   0.378   0.761   1.076  0.3293  1.7694  0.5283
  755THF    H1212164   0.245   0.546   1.018  2.3354  0.4862  1.2267
  755THF    H1312165   0.250   0.517   1.194  0.9807  0.4336 -1.6650
  756THF     O112166   3.400   2.587   4.235  0.1262 -0.2138 -0.1553
  756THF     C212167   3.450   2.512   4.343 -0.3363  1.0376 -0.4148
  756THF     C312168   3.274   2.631   4.282  0.0774 -0.8366  0.3515
  756THF     H412169   3.555   2.511   4.332 -0.6195  1.0804 -1.5611
  756THF     H512170   3.416   2.411   4.341  2.0246 -1.3033 -0.0967
  756THF     H612171   3.225   2.715   4.228 -4.9533 -0.9006 -0.8202
  756THF     H712172   3.200   2.551   4.282  0.2251 -0.1184  0.3347
  756THF     C812173   3.286   2.670   4.425  0.2389  0.1871  0.8954
  756THF     C912174   3.416   2.597   4.462 -0.2900  0.1862 -0.0100
  756THF    H1012175   3.196   2.633   4.474 -1.1522 -0.9740 -1.8185
  756THF    H1112176   3.292   2.771   4.448 -0.0508 -1.6610  1.0595
  756THF    H1212177   3.499   2.672   4.465 -0.7058 -0.2248 -1.9447
  756THF    H1312178   3.408   2.532   4.553 -1.8047  2.4040  1.3148
  757THF     O112179   3.339   1.363   1.346 -0.4983 -0.1540  0.4905
  757THF     C212180   3.481   1.340   1.365  0.3153  0.0245 -0.0852
  757THF     C312181   3.322   1.506   1.342 -0.2751  0.0048 -0.1658
  757THF     H412182   3.537   1.345   1.272 -0.4799  0.1400 -0.2968
  757THF     H512183   3.505   1.240   1.401  0.2637  0.2303 -0.1478
  757THF     H612184   3.366   1.532   1.243  2.3368 -0.0909 -0.5419
  757THF     H712185   3.215   1.542   1.340 -0.8645 -0.9456 -1.6778
  757THF     C812186   3.420   1.566   1.448  0.0237 -0.2534  0.2982
  757THF     C912187   3.511   1.440   1.471 -0.3001 -0.2003 -0.3060
  757THF    H1012188   3.364   1.577   1.542 -1.2349 -2.6789  1.0451
  757THF    H1112189   3.472   1.661   1.420 -0.4931 -0.4836  1.6066
  757THF    H1212190   3.617   1.475   1.459  1.0853 -2.0051 -0.3327
  757THF    H1312191   3.499   1.395   1.573 -1.6431 -1.1911 -1.6041
  758THF     O112192   1.652   1.078   0.890 -0.0348  0.1291 -0.8744
  758THF     C212193   1.728   1.133   1.000  0.0947 -0.2384 -0.2036
  758THF     C312194   1.532   1.016   0.944  0.4120 -0.8791 -0.4835
  758THF     H412195   1.696   1.234   1.014 -1.0611 -1.3508 -1.1122
  758THF     H512196   1.834   1.146   0.985  3.2715 -0.3877 -0.1612
  758THF     H612197   1.459   1.091   0.962  1.8850  0.5447  1.5139
  758THF     H712198   1.493   0.940   0.883  0.6623  3.6541  3.4404
  758THF     C812199   1.571   0.963   1.079 -0.2671 -0.3024 -0.7668
  758THF     C912200   1.695   1.036   1.120  0.1879 -0.6529 -1.1700
  758THF    H1012201   1.586   0.857   1.083 -0.4909  0.8123  0.6058
  758THF    H1112202   1.485   0.990   1.142  2.6689  1.0342  0.6588
  758THF    H1212203   1.692   1.083   1.219  2.5176  1.0209  0.8130
  758THF    H1312204   1.782   0.965   1.127 -0.3068  0.9655  0.7124
  759THF     O112205   5.278   1.181   0.503  0.4070 -0.4229  0.3395
  759THF     C212206   5.347   1.221   0.386  0.2064 -0.5369 -0.4430
  759THF     C312207   5.320   1.265   0.617  0.4920  0.5874 -0.2488
  759THF     H412208   5.288   1.214   0.298  1.7532 -2.5791  2.5021
  759THF     H512209   5.440   1.164   0.379  1.1463  0.1056  2.3965
  759THF     H612210   5.246   1.255   0.696 -2.0442  1.0805  0.7619
  759THF     H712211   5.418   1.235   0.659  2.2299  1.7004 -0.1234
  759THF     C812212   5.336   1.401   0.548 -0.1074  0.4879 -0.0927
  759THF     C912213   5.397   1.361   0.410 -0.1028 -0.1017  0.5172
  759THF    H1012214   5.400   1.475   0.592 -2.7366  2.4360  0.4087
  759THF    H1112215   5.238   1.443   0.523 -2.9457 -2.1223 -2.3926
  759THF    H1212216   5.384   1.438   0.326 -0.5580 -0.0179  1.8990
  759THF    H1312217   5.505   1.360   0.413  0.8060  0.2162 -0.4447
  760THF     O112218   4.532   0.292   4.077 -0.0619  0.1887 -0.3157
  760THF     C212219   4.664   0.337   4.068  0.3501  1.1652 -0.1445
  760THF     C312220   4.476   0.310   3.948 -0.1950  0.2354 -0.5999
  760THF     H412221   4.726   0.257   4.038  0.0341  0.3076  1.7997
  760THF     H512222   4.697   0.361   4.167  2.2216  2.5044 -0.9873
  760THF     H612223   4.522   0.241   3.871 -1.6461 -2.3098 -1.0172
  760THF     H712224   4.368   0.296   3.955 -1.2493  0.1707  3.4798
  760THF     C812225   4.516   0.451   3.914 -0.4414  0.0400 -0.4714
  760THF     C912226   4.650   0.463   3.984 -0.1710 -0.9239  0.0353
  760THF    H1012227   4.431   0.518   3.951  0.7428  0.3568  3.7924
  760THF    H1112228   4.530   0.467   3.807  0.2751  0.9891 -0.1917
  760THF    H1212229   4.740   0.467   3.917 -1.1644  0.0473  0.0527
  760THF    H1312230   4.662   0.554   4.047  2.0822 -1.7982  0.6899
  761THF     O112231   4.392   1.160   3.736  0.1997 -0.1899  0.0215
  761THF     C212232   4.407   1.179   3.877  0.1309  0.5312 -0.6108
  761THF     C312233   4.477   1.248   3.668 -0.1411  0.3426  0.1121
  761THF     H412234   4.405   1.096   3.941 -0.6024  1.3146 -0.2161
  761THF     H512235   4.318   1.236   3.908  0.1906 -1.4899 -0.3167
  761THF     H612236   4.553   1.198   3.593  2.5623 -2.3470 -2.4362
  761THF     H712237   4.413   1.311   3.611  0.7713  1.6676  0.6041
  761THF     C812238   4.556   1.336   3.768  0.3489  0.4259  0.7607
  761THF     C912239   4.540   1.256   3.896 -0.7089 -0.0328  0.4324
  761THF    H1012240   4.494   1.428   3.772 -1.8142 -1.5062  0.3905
  761THF    H1112241   4.654   1.360   3.744 -2.5450  0.1061 -1.0903
  761THF    H1212242   4.619   1.186   3.899 -1.5091 -3.1368  1.1339
  761THF    H1312243   4.543   1.321   3.980 -1.7284 -1.5850 -3.4035
  762THF     O112244   0.420   5.483   2.333 -0.4378  0.0381 -0.0540
  762THF     C212245   0.478   5.438   2.215  0.4233 -0.3866 -0.9916
  762THF     C312246   0.320   5.573   2.293  0.0427  0.2938 -0.4442
  762THF     H412247   0.538   5.353   2.241  0.6238 -0.0151  1.3218
  762THF     H512248   0.539   5.518   2.164 -0.4882  0.6657 -0.8212
  762THF     H612249   0.251   5.600   2.371 -1.2102  0.3930  2.9689
  762THF     H712250   0.368   5.671   2.261  1.4258 -0.7231 -2.2136
  762THF     C812251   0.249   5.486   2.191  0.5276 -0.1691 -0.4384
  762THF     C912252   0.354   5.390   2.134 -0.4245 -0.4590  0.6502
  762THF    H1012253   0.212   5.556   2.115  0.2191  4.3365 -1.1824
  762THF    H1112254   0.166   5.431   2.227  0.7366 -1.3151 -0.5810
  762THF    H1212255   0.322   5.291   2.150 -0.0687  2.7027 -1.4791
  762THF    H1312256   0.366   5.406   2.026 -1.7403 -1.0205  2.5810
  763THF     O112257   0.816   1.511   2.969  0.0702  0.0014  0.3422
  763THF     C212258   0.706   1.449   2.912  0.1404  0.6303  0.3483
  763THF     C312259   0.776   1.644   2.997  0.2189  1.1637  0.4872
  763THF     H412260   0.697   1.358   2.976 -0.0023 -2.4382 -0.6477
  763THF     H512261   0.726   1.424   2.810 -0.6454  0.3831  1.3992
  763THF     H612262   0.835   1.680   3.078 -3.0852 -1.7441 -0.6477
  763THF     H712263   0.816   1.711   2.916  1.6610  1.6061 -2.7548
  763THF     C812264   0.628   1.646   3.021 -0.0496  0.2198  0.5036
  763THF     C912265   0.582   1.540   2.925  1.0168 -0.8785  0.0724
  763THF    H1012266   0.572   1.734   2.995  2.1151  0.8344 -0.4312
  763THF    H1112267   0.591   1.626   3.123  0.8200 -0.3398 -0.3199
  763THF    H1212268   0.502   1.477   2.969 -3.2381  1.1336 -0.8527
  763THF    H1312269   0.542   1.574   2.828  0.4969  0.2534  0.7106
  764THF     O112270   1.760   1.721   4.347  0.3277 -0.1916 -0.0494
  764THF     C212271   1.705   1.718   4.477 -0.0056 -0.4240  0.7951
  764THF     C312272   1.704   1.614   4.274  0.1653  0.4083 -0.7234
  764THF     H412273   1.739   1.806   4.520  2.8777 -1.8843 -2.9468
  764THF     H512274   1.758   1.635   4.528 -1.4160 -1.1003 -3.0450
  764THF     H612275   1.730   1.628   4.171  1.6185  0.8570  1.5134
  764THF     H712276   1.738   1.515   4.311  2.5613 -1.5937  0.8679
  764THF     C812277   1.559   1.630   4.314  0.1066  0.0700  0.1156
  764THF     C912278   1.554   1.698   4.450  0.1100 -0.3116  0.8827
  764THF    H1012279   1.495   1.539   4.319 -1.2403  2.0705 -1.0792
  764THF    H1112280   1.509   1.685   4.236  1.0843  0.2227 -0.6002
  764THF    H1212281   1.509   1.795   4.460  1.7537 -0.7298 -1.3978
  764THF    H1312282   1.515   1.628   4.518 -1.4100 -1.5582 -2.9502
  765THF     O112283   1.238   5.019   2.803 -0.8837 -0.0523 -0.0328
  765THF     C212284   1.120   4.980   2.863  0.3055  0.5987  0.0152
  765THF     C312285   1.213   5.119   2.702  0.4525  0.1356  0.3231
  765THF     H412286   1.101   5.031   2.959  1.7651 -0.4005  0.8374
  765THF     H512287   1.136   4.877   2.873  0.2189  1.3260 -0.6962
  765THF     H612288   1.267   5.215   2.712 -2.2584 -0.4270 -0.9906
  765THF     H712289   1.254   5.078   2.606 -0.5263  0.0448 -0.4347
  765THF     C812290   1.063   5.134   2.708 -0.6787  0.1004 -0.7119
  765THF     C912291   1.015   5.003   2.751 -0.4226 -0.0309  0.1270
  765THF    H1012292   1.015   5.175   2.614 -0.3368  2.1288 -5.2373
  765THF    H1112293   1.038   5.211   2.790  0.9606  0.9941  1.6495
  765THF    H1212294   0.912   5.005   2.787 -1.8032 -2.5860 -0.1322
  765THF    H1312295   1.025   4.937   2.664 -0.5091 -0.4227  1.5067
  766THF     O112296   4.440   2.977   1.586  0.5506  0.0710 -0.2576
  766THF     C212297   4.548   2.985   1.677  0.0021 -0.0081  0.6365
  766THF     C312298   4.346   3.074   1.625  0.5523  0.1064  0.6827
  766THF     H412299   4.645   2.938   1.655  0.0505  2.6582  0.2959
  766THF     H512300   4.518   2.934   1.764  0.7254 -0.0835  0.7696
  766THF     H612301   4.260   3.095   1.558 -2.0101 -0.2471  1.5894
  766THF     H712302   4.294   3.040   1.719 -0.4764  1.0166 -2.5355
  766THF     C812303   4.428   3.195   1.656 -0.4298  0.2975  0.2700
  766THF     C912304   4.564   3.133   1.703  0.3427 -0.0311  0.9852
  766THF    H1012305   4.381   3.259   1.729 -1.6556 -2.7332 -2.3281
  766THF    H1112306   4.452   3.248   1.560 -1.5157  0.3566  4.0213
  766THF    H1212307   4.649   3.173   1.653 -0.3218  0.4558 -0.2650
  766THF    H1312308   4.588   3.160   1.808 -0.1474 -0.7851  2.7607
  767THF     O112309   1.882   3.439   4.110  0.0197 -0.2491  0.4397
  767THF     C212310   1.925   3.505   3.991  0.0532  0.0935  0.7917
  767THF     C312311   1.808   3.327   4.072  0.2375  0.7273  0.2599
  767THF     H412312   2.022   3.546   4.005  0.0007 -0.4558 -1.6146
  767THF     H512313   1.862   3.592   3.958  0.5117 -2.1711  0.0267
  767THF     H612314   1.810   3.256   4.155  1.5075 -1.5879 -1.1356
  767THF     H712315   1.706   3.348   4.059  3.2815  0.7721  1.1235
  767THF     C812316   1.877   3.269   3.948  0.4295  0.0304 -1.1878
  767THF     C912317   1.935   3.395   3.883 -0.0740  0.5705  0.0779
  767THF    H1012318   1.814   3.216   3.883  1.7177  0.5447  2.1862
  767THF    H1112319   1.956   3.205   3.986 -2.1232 -1.2432  0.0747
  767THF    H1212320   2.038   3.378   3.861 -0.4633  0.5372 -0.5160
  767THF    H1312321   1.884   3.431   3.791  0.7354  1.3230  2.1081
  768THF     O112322   2.239   3.528   4.715 -0.3249  0.2134  0.5584
  768THF     C212323   2.359   3.515   4.788 -0.2501  0.4747 -0.6205
  768THF     C312324   2.238   3.661   4.670 -0.1936  0.0271  0.1763
  768THF     H412325   2.434   3.500   4.725 -2.3820  1.0185  3.4096
  768THF     H512326   2.361   3.424   4.856  1.1599 -0.3208  2.7725
  768THF     H612327   2.307   3.671   4.588 -0.7471 -0.9615 -2.3997
  768THF     H712328   2.147   3.688   4.636  2.0411 -1.7477 -0.6931
  768THF     C812329   2.278   3.746   4.798 -1.0837  0.6312  0.3539
  768THF     C912330   2.381   3.650   4.864  0.4132 -0.7198 -0.0647
  768THF    H1012331   2.209   3.755   4.872 -0.8027  0.6521  0.3096
  768THF    H1112332   2.315   3.841   4.760  1.2236 -1.5778 -1.6006
  768THF    H1212333   2.485   3.687   4.865  3.5356  1.2379 -0.2136
  768THF    H1312334   2.358   3.645   4.967 -1.3003  0.6214 -3.9200
  769THF     O112335   2.003   1.201   2.263  0.1990  0.0911 -0.3175
  769THF     C212336   1.989   1.325   2.322 -0.5757  0.3206 -0.3709
  769THF     C312337   2.139   1.153   2.291  0.1947 -0.3183  0.3689
  769THF     H412338   1.979   1.318   2.433  0.6170  1.0607  0.3621
  769THF     H512339   1.900   1.377   2.274 -0.9052  0.0257  0.5365
  769THF     H612340   2.142   1.087   2.379 -1.0046  1.2356  0.1412
  769THF     H712341   2.177   1.102   2.201 -2.2963  0.5812  1.5581
  769THF     C812342   2.221   1.281   2.319  0.1115  0.1214  0.2414
  769THF     C912343   2.121   1.391   2.289 -0.3174 -0.5477  1.2615
  769THF    H1012344   2.309   1.294   2.260  0.9284 -0.1504  0.6294
  769THF    H1112345   2.234   1.294   2.429 -1.3250  1.6014 -0.2291
  769THF    H1212346   2.140   1.484   2.346  1.7079 -1.3924 -0.2846
  769THF    H1312347   2.121   1.419   2.185 -0.6669 -0.2492  1.1216
  770THF     O112348   1.311   0.157   0.788  0.3390 -0.1610  0.0577
  770THF     C212349   1.226   0.138   0.680  0.3342  0.2566  0.4570
  770THF     C312350   1.243   0.221   0.892  0.0595 -0.4486  0.1731
  770THF     H412351   1.188   0.033   0.676  0.7997 -0.7465  0.4579
  770THF     H512352   1.284   0.153   0.592 -1.8562 -0.0623  2.9282
  770THF     H612353   1.180   0.162   0.956  1.1806  1.3076 -0.4679
  770THF     H712354   1.316   0.271   0.949  0.9367  2.6874  1.7576
  770THF     C812355   1.167   0.328   0.817  0.1535 -0.1796  0.0432
  770THF     C912356   1.118   0.244   0.700  0.6958  0.1136  0.1679
  770THF    H1012357   1.220   0.422   0.803 -1.0197 -0.5694  0.6841
  770THF    H1112358   1.091   0.367   0.880 -1.4980 -1.0773  0.4563
  770THF    H1212359   1.032   0.193   0.735  1.0445 -0.6337 -0.6164
  770THF    H1312360   1.093   0.300   0.615 -1.7201  0.8073 -1.1916
  771THF     O112361   2.230   5.208   4.968  0.0641 -0.3652 -0.2245
  771THF     C212362   2.321   5.238   4.868  0.4717 -0.9223  0.1849
  771THF     C312363   2.166   5.084   4.929 -0.4098 -0.1238  1.0627
  771THF     H412364   2.389   5.313   4.906  0.8543  1.6306  2.2879
  771THF     H512365   2.267   5.283   4.788 -0.2801  0.0707 -1.0741
  771THF     H612366   2.111   5.043   5.011  2.2182  0.9706 -1.9915
  771THF     H712367   2.087   5.092   4.851 -0.6543  1.3303 -1.2427
  771THF     C812368   2.299   5.004   4.882  0.1571 -0.5726  0.0083
  771THF     C912369   2.400   5.107   4.841  0.0064 -0.6340  0.0023
  771THF    H1012370   2.273   4.938   4.797 -1.8533 -1.1628 -0.2238
  771THF    H1112371   2.350   4.950   4.965 -2.2480 -0.6868  3.2788
  771THF    H1212372   2.479   5.090   4.911  1.2036 -2.6294 -1.3487
  771THF    H1312373   2.434   5.100   4.736 -3.5476  2.0691 -2.2879
  772THF     O112374   4.014   4.744   3.789  0.7308 -0.7092 -0.0381
  772THF     C212375   3.954   4.703   3.912 -0.5135 -0.1650  0.6874
  772THF     C312376   4.148   4.791   3.812 -0.0338  0.3183  0.0958
  772THF     H412377   3.886   4.618   3.906  0.6548 -3.3799  2.9604
  772THF     H512378   3.895   4.785   3.945 -0.2151 -0.5659 -2.0028
  772THF     H612379   4.222   4.716   3.774 -0.7903 -1.2329  1.7255
  772THF     H712380   4.176   4.883   3.761  1.8762 -1.7980  1.5665
  772THF     C812381   4.173   4.788   3.964 -0.1235  0.0320  0.0104
  772THF     C912382   4.071   4.683   4.010 -0.1195  0.0599 -0.0583
  772THF    H1012383   4.148   4.889   3.999 -0.6425 -1.1382 -2.7359
  772THF    H1112384   4.280   4.764   3.986 -0.6130 -1.5810 -1.7772
  772THF    H1212385   4.114   4.583   4.013 -0.7338 -0.6443  1.5987
  772THF    H1312386   4.035   4.707   4.112  2.3166 -0.0845  0.1885
  773THF     O112387   5.258   4.187   2.000 -0.6560 -0.7952 -0.2992
  773THF     C212388   5.319   4.150   2.124 -0.1243 -0.3338  0.3542
  773THF     C312389   5.190   4.308   2.009 -0.0397  0.5890 -0.7566
  773THF     H412390   5.410   4.091   2.114 -2.7506  0.3501 -0.9137
  773THF     H512391   5.248   4.097   2.194 -1.1204 -3.1317 -1.8004
  773THF     H612392   5.169   4.350   1.910 -0.1416 -1.3358 -1.8273
  773THF     H712393   5.094   4.273   2.055 -2.0560  0.9395 -2.6772
  773THF     C812394   5.280   4.391   2.100  0.1867 -0.5365  0.2287
  773THF     C912395   5.344   4.284   2.188  0.5156  0.9292 -0.4385
  773THF    H1012396   5.206   4.452   2.152 -0.6811 -4.3546 -2.0792
  773THF    H1112397   5.356   4.446   2.044 -0.9137  0.6675  1.7293
  773THF    H1212398   5.445   4.295   2.182  0.3726 -0.3150  0.4832
  773THF    H1312399   5.316   4.284   2.294 -0.4261  1.0263  0.3341
  774THF     O112400   0.838   3.774   4.954  0.1690 -0.0169 -0.6193
  774THF     C212401   0.791   3.880   4.869 -0.5269  0.7769 -0.1440
  774THF     C312402   0.741   3.776   5.061  0.0880 -0.7400 -0.8049
  774THF     H412403   0.829   3.871   4.770 -1.4744  1.3574  0.9112
  774THF     H512404   0.815   3.976   4.916 -2.1973 -0.4918 -0.7029
  774THF     H612405   0.748   3.683   5.123  0.1226  1.6910  2.4128
  774THF     H712406   0.753   3.860   5.133  1.4421 -0.2844  3.1794
  774THF     C812407   0.602   3.795   5.002 -0.3381  0.2411  0.5528
  774THF     C912408   0.640   3.855   4.862 -0.0774  0.1238  0.2494
  774THF    H1012409   0.539   3.863   5.062 -1.9302  0.3115 -1.2949
  774THF    H1112410   0.546   3.702   4.997  0.1207  2.8670  1.1758
  774THF    H1212411   0.620   3.782   4.779 -1.5252  1.2515 -1.6770
  774THF    H1312412   0.588   3.949   4.833 -0.8354  1.7397 -0.8163
  775THF     O112413   3.687   3.679   0.646 -0.2740  0.1738 -0.3667
  775THF     C212414   3.763   3.561   0.683 -0.0996 -0.3606  0.4456
  775THF     C312415   3.572   3.680   0.720  0.7956 -0.7005  0.4822
  775THF     H412416   3.855   3.591   0.735 -4.0129 -0.4350 -0.1890
  775THF     H512417   3.781   3.510   0.584  2.7699 -0.4732  0.5402
  775THF     H612418   3.589   3.739   0.807  0.8154  0.8842  0.3551
  775THF     H712419   3.496   3.734   0.662 -2.6448  1.6986 -1.4044
  775THF     C812420   3.543   3.528   0.733  0.1797 -0.5045  0.6670
  775THF     C912421   3.680   3.469   0.770 -0.5434 -0.8184  0.0754
  775THF    H1012422   3.507   3.508   0.629  0.4093  3.2648  0.2544
  775THF    H1112423   3.463   3.499   0.796  0.5291  0.3473  0.6241
  775THF    H1212424   3.691   3.487   0.875 -2.0755  2.2447  1.3743
  775THF    H1312425   3.686   3.367   0.746  1.3793  1.4673 -1.8690
  776THF     O112426   4.039   2.722   2.376  0.3718 -0.5259 -0.1969
  776THF     C212427   4.087   2.592   2.342  0.0731  0.5214 -0.0512
  776THF     C312428   4.092   2.750   2.501 -0.1309  0.8857  0.4281
  776THF     H412429   4.177   2.595   2.283  0.6120  0.6947  2.4865
  776THF     H512430   4.003   2.550   2.282 -0.8611  0.0521 -0.9344
  776THF     H612431   4.195   2.767   2.479  2.4156 -0.9253  0.4856
  776THF     H712432   4.040   2.837   2.542 -2.8158 -0.0520 -3.6080
  776THF     C812433   4.080   2.622   2.580 -0.4832  0.5222 -0.8461
  776THF     C912434   4.090   2.515   2.472  0.8786 -0.4725 -0.0211
  776THF    H1012435   3.995   2.603   2.644  0.6861  1.7295  2.7051
  776THF    H1112436   4.166   2.612   2.648 -1.1168 -0.5213  0.2121
  776THF    H1212437   4.175   2.440   2.475 -1.0210 -1.3467  0.7703
  776THF    H1312438   3.999   2.450   2.470 -0.1059  0.1178  0.3367
  777THF     O112439   1.042   3.736   2.056  0.0376  0.0138 -0.0674
  777THF     C212440   0.940   3.827   2.024 -0.3764 -0.4813 -0.6230
  777THF     C312441   1.163   3.802   2.043  0.5469  0.7614 -0.7131
  777THF     H412442   0.914   3.898   2.100 -0.4782  0.4699  0.7668
  777THF     H512443   0.850   3.775   1.994 -0.0034 -4.0240  0.3911
  777THF     H612444   1.194   3.844   2.134 -1.4194 -0.4772  1.5694
  777THF     H712445   1.246   3.734   2.003  0.8095 -4.2753  1.2223
  777THF     C812446   1.142   3.923   1.945  0.4789  0.3183  1.1033
  777THF     C912447   0.994   3.900   1.903  1.0220  0.3328  0.4581
  777THF    H1012448   1.218   3.925   1.864  0.3274  0.0471  0.6248
  777THF    H1112449   1.153   4.014   1.995 -3.6631  1.7683 -1.3141
  777THF    H1212450   0.946   3.985   1.849  2.1607  1.3675 -4.1920
  777THF    H1312451   0.997   3.821   1.821  1.7024 -0.4176  2.4667
  778THF     O112452   3.245   4.188   5.371  0.5378 -0.2097  0.3757
  778THF     C212453   3.110   4.147   5.352  0.7084 -0.3517  0.2357
  778THF     C312454   3.325   4.073   5.386  0.1776  0.0817  0.2668
  778THF     H412455   3.056   4.203   5.278  0.0424  0.2259  2.6333
  778THF     H512456   3.058   4.160   5.451 -0.0593  2.3976 -0.7305
  778THF     H612457   3.431   4.087   5.362  1.5490 -1.7039  0.9858
  778THF     H712458   3.312   4.042   5.491  0.2519 -1.1307  1.4864
  778THF     C812459   3.265   3.970   5.291  0.1130 -1.4065 -0.0037
  778THF     C912460   3.118   4.004   5.309 -0.6611 -0.6054  0.2666
  778THF    H1012461   3.282   3.870   5.312 -0.4857 -1.2976  1.3923
  778THF    H1112462   3.293   3.998   5.186  2.2961 -1.1188 -0.6532
  778THF    H1212463   3.062   3.968   5.225  2.6131  0.8288 -1.1211
  778THF    H1312464   3.084   3.939   5.387 -0.6674 -0.7350 -1.0066
  779THF     O112465   5.082   1.823   0.406 -0.0911 -0.0648  0.2788
  779THF     C212466   5.056   1.694   0.349 -0.2397  0.3439 -0.5751
  779THF     C312467   4.951   1.865   0.448  0.0553  0.1632  0.5077
  779THF     H412468   5.052   1.616   0.419 -2.8011  1.6119  0.8560
  779THF     H512469   5.142   1.660   0.289  1.0523  1.1363 -1.3403
  779THF     H612470   4.914   1.808   0.530  0.8921 -0.9635  0.0082
  779THF     H712471   4.944   1.969   0.481  0.5354 -0.8229  0.5073
  779THF     C812472   4.869   1.838   0.324 -0.3374 -0.4495 -0.2553
  779THF     C912473   4.934   1.718   0.257  0.7030 -0.3361  0.1303
  779THF    H1012474   4.883   1.928   0.263  1.4610 -0.8229  1.0006
  779THF    H1112475   4.761   1.807   0.338 -0.2110 -1.1249  0.9032
  779THF    H1212476   4.859   1.640   0.262 -4.1388  1.0313 -3.0064
  779THF    H1312477   4.961   1.734   0.153  0.4892  0.3929 -1.3608
  780THF     O112478   0.981   4.185   4.687 -0.1802  0.5231  0.8516
  780THF     C212479   1.067   4.194   4.577 -0.8533 -0.3706  0.3617
  780THF     C312480   1.067   4.128   4.788  0.5923  0.2348  1.0476
  780THF     H412481   1.033   4.265   4.503  2.5232  1.3169 -1.0932
  780THF     H512482   1.068   4.103   4.528  4.0355  0.7562 -0.1664
  780THF     H612483   1.022   4.145   4.887  0.8156 -0.9352  0.6451
  780THF     H712484   1.058   4.021   4.778  3.9030 -0.4845  0.2712
  780THF     C812485   1.204   4.197   4.772  0.2591 -0.3163 -0.0857
  780THF     C912486   1.203   4.250   4.633  0.6332  0.5557  0.5570
  780THF    H1012487   1.285   4.125   4.780 -1.1382 -3.8375 -1.3716
  780THF    H1112488   1.227   4.283   4.840 -1.2143 -0.4127  0.6077
  780THF    H1212489   1.191   4.361   4.640  0.4987 -0.2404 -2.4019
  780THF    H1312490   1.296   4.233   4.574  0.0391  2.9429  1.1633
  781THF     O112491   1.069   2.001   4.166  0.4993 -0.5173  0.2429
  781THF     C212492   1.101   2.104   4.076 -1.0039  0.0291 -0.4195
  781THF     C312493   0.951   1.933   4.132 -0.5490 -0.2706 -0.1473
  781THF     H412494   1.206   2.121   4.056 -0.4036 -1.2328  1.7172
  781THF     H512495   1.068   2.189   4.130 -1.1449  0.0182 -1.7872
  781THF     H612496   0.980   1.837   4.078 -0.3346 -3.8867 -2.7050
  781THF     H712497   0.886   1.906   4.221  0.2246  0.1756  0.8062
  781THF     C812498   0.884   2.029   4.039 -0.6112 -0.0009  1.4812
  781THF     C912499   1.001   2.086   3.960  0.1699  0.0562 -0.0474
  781THF    H1012500   0.840   2.110   4.096  0.4979  0.1654  0.2292
  781THF    H1112501   0.814   1.976   3.963 -1.0432 -0.9475  0.4058
  781THF    H1212502   1.037   2.012   3.890  0.8140 -2.3794 -0.3615
  781THF    H1312503   0.982   2.168   3.893 -0.2374  0.1337  0.2463
  782THF     O112504   2.711   3.311   3.319 -0.0605 -0.1513  0.2269
  782THF     C212505   2.632   3.433   3.324  0.3634  0.1499 -0.7839
  782THF     C312506   2.853   3.338   3.311 -0.6817 -0.0817 -0.1024
  782THF     H412507   2.624   3.465   3.434 -2.0016  0.8696 -0.3453
  782THF     H512508   2.532   3.410   3.291  1.9371 -2.0747  1.0812
  782THF     H612509   2.887   3.380   3.408 -0.9989 -0.8443  1.9851
  782THF     H712510   2.925   3.262   3.280 -1.2039 -1.5739  1.7252
  782THF     C812511   2.859   3.460   3.222 -0.1465 -0.1610 -0.0320
  782THF     C912512   2.721   3.527   3.238 -0.6431 -0.3711  0.5659
  782THF    H1012513   2.886   3.431   3.125 -0.9710 -1.6947 -1.0398
  782THF    H1112514   2.935   3.527   3.249 -2.7088 -1.1652 -2.5178
  782THF    H1212515   2.744   3.619   3.287  0.6907  0.0206 -2.2409
  782THF    H1312516   2.678   3.568   3.143  0.3641 -0.8711  2.9875
  783THF     O112517   4.218   1.137   2.942  0.4424 -0.4441  0.3595
  783THF     C212518   4.270   1.145   3.076 -0.2024  0.5966  0.2325
  783THF     C312519   4.082   1.184   2.949 -0.1282  0.6005 -0.2763
  783THF     H412520   4.305   1.244   3.096  1.0386  2.7384 -0.5524
  783THF     H512521   4.347   1.072   3.088 -0.1180 -0.7312  4.2236
  783THF     H612522   4.057   1.268   2.887 -0.7649  1.7609  0.1178
  783THF     H712523   4.021   1.104   2.914 -1.8302  0.1860  1.1470
  783THF     C812524   4.050   1.231   3.089 -0.4130 -0.0383  0.3363
  783THF     C912525   4.141   1.138   3.170 -0.1140  0.6717  0.0067
  783THF    H1012526   3.950   1.225   3.120  0.5580  1.0737 -0.3156
  783THF    H1112527   4.079   1.335   3.100  1.2668 -1.0515 -1.3175
  783THF    H1212528   4.151   1.172   3.268 -0.8170 -1.2585 -2.3007
  783THF    H1312529   4.118   1.026   3.170  1.3824 -2.4734  1.1828
  784THF     O112530   0.675   5.103   3.343 -0.2231 -0.2093 -0.8184
  784THF     C212531   0.730   5.216   3.410 -0.0659 -0.1868 -0.1795
  784THF     C312532   0.775   5.057   3.250 -0.4598  0.4191 -0.7103
  784THF     H412533   0.711   5.213   3.515  0.6920 -1.4789 -1.4177
  784THF     H512534   0.677   5.305   3.373  1.8010  1.5860 -1.7848
  784THF     H612535   0.821   4.964   3.296 -2.8328 -2.8891 -3.1464
  784THF     H712536   0.740   5.016   3.156 -0.0963  0.8263 -1.2521
  784THF     C812537   0.884   5.167   3.239  0.2913 -0.2249 -0.1183
  784THF     C912538   0.881   5.231   3.375  0.2457  0.8767 -0.1767
  784THF    H1012539   0.840   5.237   3.169 -2.3357  2.2841  1.9496
  784THF    H1112540   0.976   5.123   3.206 -0.4873  0.5922  0.6488
  784THF    H1212541   0.941   5.172   3.444 -0.9183  0.3782  1.8589
  784THF    H1312542   0.911   5.336   3.383 -0.5407  0.9739 -1.0391
  785THF     O112543   3.343   2.029   1.311 -0.2005 -0.4115  0.2187
  785THF     C212544   3.291   2.161   1.298  0.9930 -0.2374  0.3002
  785THF     C312545   3.482   2.032   1.351  0.6564 -1.1697 -0.3805
  785THF     H412546   3.245   2.197   1.389  0.3770 -1.8417 -1.9095
  785THF     H512547   3.213   2.159   1.224 -0.7704  4.4144  1.2559
  785THF     H612548   3.487   2.023   1.461  0.4176 -1.0768 -0.3158
  785THF     H712549   3.534   1.944   1.305  2.3219  1.9711 -1.5339
  785THF     C812550   3.528   2.171   1.318 -0.1273 -0.6656 -0.5350
  785THF     C912551   3.414   2.243   1.257  0.0477 -0.1218 -0.0908
  785THF    H1012552   3.604   2.176   1.239 -2.2575  0.8092  1.3224
  785THF    H1112553   3.567   2.224   1.400 -0.8088 -0.3934 -1.2532
  785THF    H1212554   3.395   2.348   1.288 -0.6586 -0.8272 -1.7295
  785THF    H1312555   3.423   2.248   1.152 -2.4621  1.7578  1.8509
  786THF     O112556   2.254   3.722   3.702  0.2721 -0.2060 -0.1876
  786THF     C212557   2.117   3.696   3.682  0.2613 -0.1064  0.3932
  786THF     C312558   2.325   3.772   3.584  1.1357  0.4286 -0.8818
  786THF     H412559   2.063   3.791   3.704 -1.8398  2.1852 -0.4654
  786THF     H512560   2.067   3.617   3.734 -1.2001 -1.0326 -0.7111
  786THF     H612561   2.317   3.877   3.596 -0.3279 -1.2900  1.8777
  786THF     H712562   2.425   3.731   3.562  0.1577  2.1277  0.4138
  786THF     C812563   2.233   3.741   3.473  0.1563 -0.3132  0.0066
  786THF     C912564   2.115   3.661   3.533 -0.5605 -0.4103 -0.0341
  786THF    H1012565   2.300   3.680   3.407 -0.2981  1.5843 -0.8114
  786THF    H1112566   2.196   3.821   3.421 -2.6790 -0.0733  3.6702
  786THF    H1212567   2.017   3.687   3.494 -1.4735  3.8193  0.0447
  786THF    H1312568   2.133   3.552   3.524  1.9546 -2.2688 -1.0350
  787THF     O112569   0.357   2.593   0.555 -0.0496 -0.6518  0.3898
  787THF     C212570   0.284   2.473   0.552  0.8579  0.2898 -0.1928
  787THF     C312571   0.390   2.611   0.694 -0.0586 -0.3857  0.4695
  787THF     H412572   0.348   2.384   0.564 -1.5204 -0.4444  3.2603
  787THF     H512573   0.233   2.456   0.456 -2.1034 -0.5045 -0.9943
  787THF     H612574   0.467   2.537   0.709 -1.5974  1.8850 -2.6836
  787THF     H712575   0.428   2.714   0.702  0.3538  0.6248  0.0154
  787THF     C812576   0.265   2.580   0.777 -0.2166 -0.4425 -0.0794
  787THF     C912577   0.189   2.501   0.671  0.7507  0.2477  0.1560
  787THF    H1012578   0.222   2.670   0.822 -1.8817  2.2592 -0.3969
  787THF    H1112579   0.293   2.517   0.865  0.7550 -0.7873 -0.0133
  787THF    H1212580   0.142   2.416   0.709  0.0210 -1.2801 -0.4054
  787THF    H1312581   0.112   2.571   0.637  2.5026 -2.3044  3.2638
  788THF     O112582   2.593   0.225   3.961 -0.3794  0.3277 -0.0287
  788THF     C212583   2.628   0.094   3.955 -0.4734 -0.4117 -0.1807
  788THF     C312584   2.446   0.227   3.966  0.6506  0.6562  0.1087
  788THF     H412585   2.728   0.062   3.970  0.0643 -0.5287  0.8697
  788THF     H512586   2.609   0.063   3.854  3.4667  0.1456 -1.1348
  788THF     H612587   2.429   0.332   4.000 -2.4141  1.1824  1.9236
  788THF     H712588   2.394   0.213   3.869  0.9732  0.4366  2.4103
  788THF     C812589   2.411   0.117   4.063  0.4496 -0.4821 -0.0753
  788THF     C912590   2.532   0.028   4.049  0.5823 -0.8368 -0.0493
  788THF    H1012591   2.323   0.065   4.025 -1.1582 -1.1537  1.8903
  788THF    H1112592   2.410   0.159   4.161 -0.8223 -2.2326  1.3259
  788THF    H1212593   2.572   0.011   4.148  0.8434  0.4673  0.3755
  788THF    H1312594   2.511  -0.075   4.009 -1.2188 -2.3893  0.1169
  789THF     O112595   5.007   1.619   1.831 -0.4206  0.0154 -0.1173
  789THF     C212596   5.091   1.598   1.719  0.5097  0.3481 -0.4256
  789THF     C312597   5.086   1.687   1.933 -0.2751  0.2223  0.1148
  789THF     H412598   5.073   1.677   1.645 -1.2987 -3.1278  1.3194
  789THF     H512599   5.070   1.503   1.676 -0.8804 -1.0179 -0.8574
  789THF     H612600   5.129   1.782   1.901  1.1820 -0.4733 -0.4036
  789THF     H712601   5.044   1.696   2.034 -1.9514  0.5664  0.7439
  789THF     C812602   5.216   1.597   1.928  1.1491 -0.3895  0.5490
  789THF     C912603   5.237   1.588   1.777  0.1043  0.9056 -0.4900
  789THF    H1012604   5.203   1.503   1.974  0.5850 -2.3247 -0.8774
  789THF    H1112605   5.305   1.637   1.974 -1.1909 -1.3782  1.2256
  789THF    H1212606   5.304   1.665   1.737  1.9513 -2.2168  0.6064
  789THF    H1312607   5.283   1.493   1.747  1.7361 -0.3627 -0.0060
  790THF     O112608   3.930   0.629   4.140 -0.0817  0.8902 -0.0267
  790THF     C212609   4.049   0.625   4.218  0.7613  0.1843  0.4741
  790THF     C312610   3.973   0.635   4.004 -0.0936 -0.4582 -0.1897
  790THF     H412611   4.041   0.577   4.318  2.8075 -0.1161 -1.5099
  790THF     H512612   4.078   0.729   4.240 -0.6234  0.9524  1.3366
  790THF     H612613   3.937   0.559   3.939  2.3596 -1.1219 -0.7785
  790THF     H712614   3.931   0.719   3.958 -0.1391 -0.1222 -5.0568
  790THF     C812615   4.129   0.633   4.000 -0.0193  0.2024 -0.2883
  790THF     C912616   4.165   0.576   4.129  0.7625 -0.2336 -0.3480
  790THF    H1012617   4.160   0.731   3.981 -0.5651 -1.3395  2.6067
  790THF    H1112618   4.164   0.576   3.924 -0.4542  3.2156  2.3386
  790THF    H1212619   4.159   0.465   4.124  0.1156 -1.7255  1.3509
  790THF    H1312620   4.265   0.592   4.174  1.6312 -0.3293  0.9502
  791THF     O112621   4.690   0.793   3.804  1.1161 -0.2950 -0.1852
  791THF     C212622   4.739   0.733   3.683 -0.0236 -0.7311  0.7653
  791THF     C312623   4.582   0.875   3.760  0.1769  0.6508 -0.1734
  791THF     H412624   4.791   0.641   3.699 -2.7867 -1.6781  0.2755
  791THF     H512625   4.806   0.805   3.638 -0.0627 -0.0885 -1.3762
  791THF     H612626   4.526   0.911   3.843 -5.9243  0.4491 -0.2831
  791THF     H712627   4.636   0.956   3.710 -2.2222 -0.2865  0.5364
  791THF     C812628   4.502   0.791   3.661  0.1869  0.1795  0.3095
  791THF     C912629   4.615   0.706   3.601  0.6497 -0.2783  0.4177
  791THF    H1012630   4.460   0.854   3.587  1.4312  0.9416  1.2997
  791THF    H1112631   4.426   0.732   3.712  1.9901 -0.4804 -1.1637
  791THF    H1212632   4.582   0.602   3.599  1.3205  0.5413 -0.3875
  791THF    H1312633   4.635   0.727   3.500  1.3323  0.3494  1.8647
  792THF     O112634   3.458   3.088   0.093 -0.5735 -0.2081 -0.2372
  792THF     C212635   3.342   3.161   0.083 -0.5275 -0.0963 -1.0571
  792THF     C312636   3.454   2.979   0.186  0.0138 -0.2894  0.5880
  792THF     H412637   3.339   3.230   0.003 -1.9535  2.4330  0.8336
  792THF     H512638   3.319   3.224   0.169  0.6804 -0.6996 -2.2096
  792THF     H612639   3.521   2.904   0.132  0.1802  0.4960 -0.2217
  792THF     H712640   3.486   3.000   0.289  1.0172 -2.2590 -1.9063
  792THF     C812641   3.304   2.944   0.176  0.0636 -0.4418 -0.4869
  792THF     C912642   3.243   3.054   0.082  0.0439  0.7110 -0.5647
  792THF    H1012643   3.255   2.961   0.270  0.5479  0.1037 -0.7287
  792THF    H1112644   3.284   2.853   0.124 -2.2963  2.1080  0.0696
  792THF    H1212645   3.204   3.020  -0.011  0.0030  1.8546  1.1251
  792THF    H1312646   3.148   3.088   0.130 -1.9050  2.5675 -1.0444
  793THF     O112647   4.043   3.589   2.413  0.6246 -0.1053 -0.0430
  793THF     C212648   4.085   3.455   2.388 -0.4275 -0.4131 -0.1492
  793THF     C312649   4.162   3.661   2.388  0.2273 -0.1770 -0.3024
  793THF     H412650   4.002   3.377   2.391  0.5029 -1.1903  1.3674
  793THF     H512651   4.160   3.413   2.447 -0.0430  1.6397  0.9125
  793THF     H612652   4.140   3.765   2.387  1.1994  0.3307 -0.7226
  793THF     H712653   4.230   3.641   2.473  0.0033 -2.5803 -1.7374
  793THF     C812654   4.214   3.607   2.251  0.3700  0.1204  0.6760
  793THF     C912655   4.136   3.482   2.243  0.6077  0.1328 -0.4391
  793THF    H1012656   4.320   3.583   2.231  1.3236 -1.2533 -0.9720
  793THF    H1112657   4.198   3.673   2.173  1.4016  1.0169  0.2128
  793THF    H1212658   4.051   3.498   2.179 -0.2033 -0.6003 -1.9226
  793THF    H1312659   4.191   3.402   2.198 -0.7661 -0.4263 -1.1642
  794THF     O112660   3.460   3.441   5.489  0.6307 -0.0144  0.5018
  794THF     C212661   3.493   3.507   5.610  0.3302  0.0856  0.8111
  794THF     C312662   3.572   3.447   5.406  0.0320  0.8244  0.7206
  794THF     H412663   3.535   3.425   5.674  0.9708 -1.1471  0.5826
  794THF     H512664   3.408   3.553   5.657  1.6478 -0.0046 -1.0814
  794THF     H612665   3.613   3.345   5.396  0.2607 -1.0642 -1.8744
  794THF     H712666   3.528   3.488   5.308 -1.6254  2.0870  1.1266
  794THF     C812667   3.670   3.554   5.466 -0.0305  0.2167  0.2978
  794THF     C912668   3.580   3.620   5.562  0.2021 -0.3441 -0.4161
  794THF    H1012669   3.714   3.623   5.399  0.4328 -1.3028 -0.2607
  794THF    H1112670   3.752   3.501   5.521  0.6128 -0.4161 -1.0595
  794THF    H1212671   3.644   3.669   5.639 -0.4814 -3.1032 -4.5586
  794THF    H1312672   3.530   3.704   5.517  0.6219 -0.8853 -3.3379
  795THF     O112673   1.660   0.145   4.173  0.2133  0.1299 -0.1015
  795THF     C212674   1.791   0.184   4.138 -0.1929 -0.1201 -0.3094
  795THF     C312675   1.613   0.234   4.278 -0.5706 -0.3577 -0.5824
  795THF     H412676   1.787   0.262   4.067 -3.7632  2.4382 -2.6718
  795THF     H512677   1.842   0.100   4.092  0.0896  2.8524  2.0328
  795THF     H612678   1.576   0.320   4.224  1.8492  0.5671  0.4229
  795THF     H712679   1.528   0.183   4.332 -1.7706 -1.2097 -0.9936
  795THF     C812680   1.731   0.267   4.365  0.1720  0.3701  0.2535
  795THF     C912681   1.851   0.239   4.270  0.1704 -0.2220 -0.1810
  795THF    H1012682   1.735   0.196   4.448  0.6708 -0.0632  2.5448
  795THF    H1112683   1.719   0.368   4.404  2.8254  0.6330  0.7976
  795THF    H1212684   1.899   0.332   4.251  0.1393 -0.5430  2.5645
  795THF    H1312685   1.916   0.164   4.311 -1.4081  0.8780 -2.2534
  796THF     O112686   0.273   2.769   1.664 -0.6031  0.1927 -0.1664
  796THF     C212687   0.283   2.903   1.696  0.2602 -0.6635 -0.1237
  796THF     C312688   0.406   2.741   1.616  0.5739 -0.4169  0.4491
  796THF     H412689   0.200   2.939   1.755 -1.1226  1.0938  0.5582
  796THF     H512690   0.291   2.976   1.618 -1.1999  0.5336  0.0337
  796THF     H612691   0.431   2.633   1.639 -0.9500  0.1466  0.3051
  796THF     H712692   0.416   2.755   1.508 -2.9590  4.2492 -1.4059
  796THF     C812693   0.501   2.832   1.699 -0.2268  0.2025 -0.1606
  796THF     C912694   0.410   2.908   1.788  0.1839 -0.5239  0.6637
  796THF    H1012695   0.556   2.891   1.629  0.5435 -1.4201 -0.0277
  796THF    H1112696   0.572   2.763   1.752 -0.3149 -1.4827 -0.7781
  796THF    H1212697   0.391   2.845   1.879  0.3802  0.4717  1.3479
  796THF    H1312698   0.438   3.006   1.809 -0.8902 -0.8850 -1.2008
  797THF     O112699   3.254   1.414   0.374 -0.0472  0.5123  0.0814
  797THF     C212700   3.379   1.334   0.383 -0.1540  0.2483  0.7335
  797THF     C312701   3.226   1.467   0.503 -0.1354  0.1374 -0.2907
  797THF     H412702   3.456   1.412   0.369  0.6736 -1.2311 -1.8630
  797THF     H512703   3.390   1.262   0.302 -1.5611  1.3246 -1.0409
  797THF     H612704   3.290   1.559   0.513 -0.3193  1.1863 -0.1275
  797THF     H712705   3.122   1.484   0.529  0.1796 -1.7432  1.6650
  797THF     C812706   3.264   1.350   0.593  0.1590 -0.2238 -0.2339
  797THF     C912707   3.369   1.272   0.521 -0.0973 -0.9070  0.3210
  797THF    H1012708   3.178   1.284   0.612 -0.0197  0.1242 -2.8558
  797THF    H1112709   3.309   1.379   0.693  1.5594  2.6050 -0.8955
  797THF    H1212710   3.465   1.269   0.573 -1.0690 -1.5263 -1.8875
  797THF    H1312711   3.326   1.177   0.502 -2.3932  2.2772  1.7666
  798THF     O112712   4.977   2.519   2.485  0.0951 -0.0054 -0.1854
  798THF     C212713   4.906   2.626   2.428 -0.3986  0.2763 -0.6697
  798THF     C312714   5.090   2.465   2.406  0.6926 -0.2048  0.8769
  798THF     H412715   4.861   2.696   2.498 -1.0513 -0.7228  0.6108
  798THF     H512716   4.824   2.579   2.379  1.0876  1.1813 -0.4088
  798THF     H612717   5.189   2.498   2.455  0.5622  2.1057  0.2547
  798THF     H712718   5.084   2.364   2.392 -2.0465  0.1325  1.8998
  798THF     C812719   5.076   2.550   2.278 -0.4561 -0.7106  0.2419
  798THF     C912720   5.002   2.682   2.322  0.2338 -0.3471  0.1790
  798THF    H1012721   5.037   2.490   2.199  1.9499 -2.9090 -0.5337
  798THF    H1112722   5.174   2.576   2.248  0.3413  0.4761 -2.0058
  798THF    H1212723   5.069   2.754   2.360  2.3227 -0.0918  0.6241
  798THF    H1312724   4.954   2.731   2.246 -0.7785 -0.7296 -1.3466
  799THF     O112725   2.195   0.419   4.559 -0.4079 -0.0719 -0.0937
  799THF     C212726   2.142   0.297   4.501  0.3981 -0.7880  0.1312
  799THF     C312727   2.333   0.420   4.545  0.1396  0.8705  0.5424
  799THF     H412728   2.036   0.290   4.477  0.3762 -1.9065  0.9471
  799THF     H512729   2.164   0.221   4.580 -0.2311  1.3670  3.8146
  799THF     H612730   2.381   0.513   4.557 -1.3232  0.2180 -1.1735
  799THF     H712731   2.373   0.345   4.615 -0.2466 -0.5981  1.4713
  799THF     C812732   2.349   0.359   4.406 -0.0314  0.0115  0.5735
  799THF     C912733   2.235   0.261   4.388  0.1452 -0.4419 -0.0822
  799THF    H1012734   2.445   0.320   4.378 -1.4311  1.1347 -0.3487
  799THF    H1112735   2.325   0.450   4.342 -1.0243  2.6259 -0.8201
  799THF    H1212736   2.198   0.280   4.287 -0.8447 -0.1809 -1.6754
  799THF    H1312737   2.276   0.160   4.407 -1.3431  0.6536  1.3844
  800THF     O112738   3.395   0.024   0.589  0.1089  0.1549 -0.3503
  800THF     C212739   3.438   0.104   0.703 -0.1555 -0.2224  0.0469
  800THF     C312740   3.455   0.085   0.471  0.3694  0.8460  0.4982
  800THF     H412741   3.539   0.067   0.729 -1.2340 -1.3815  2.1539
  800THF     H512742   3.386   0.087   0.790 -0.0620 -0.0348  2.0881
  800THF     H612743   3.562   0.061   0.469  1.2497 -1.3850 -1.4696
  800THF     H712744   3.419   0.054   0.379 -1.0823  0.9234  0.5312
  800THF     C812745   3.427   0.234   0.503 -0.2352  0.2956 -0.0069
  800THF     C912746   3.444   0.249   0.655 -0.1030 -0.3304 -0.1238
  800THF    H1012747   3.325   0.253   0.479 -1.3218 -1.0533  4.5052
  800THF    H1112748   3.487   0.301   0.451 -2.8656  2.2394  0.2277
  800THF    H1212749   3.541   0.297   0.684  1.0525 -0.1311 -1.4594
  800THF    H1312750   3.356   0.306   0.702 -1.4914 -0.4051 -0.3641
  801THF     O112751   4.700   3.655   1.567 -0.0153  0.8233  0.6082
  801THF     C212752   4.687   3.512   1.543 -0.2754 -0.3040  0.6972
  801THF     C312753   4.828   3.695   1.530 -0.6960  0.2134 -0.0811
  801THF     H412754   4.669   3.498   1.437  2.9881 -0.9935 -1.9185
  801THF     H512755   4.608   3.474   1.606 -0.1417 -1.5161 -0.3710
  801THF     H612756   4.843   3.705   1.422 -0.4362 -1.5913 -1.0678
  801THF     H712757   4.851   3.794   1.577  0.8594  2.6846 -1.6971
  801THF     C812758   4.911   3.586   1.596 -0.6487 -0.4941 -0.2431
  801THF     C912759   4.829   3.457   1.582 -0.8547  0.0355 -0.2790
  801THF    H1012760   4.931   3.611   1.701 -0.6870 -0.4052  0.7428
  801THF    H1112761   5.014   3.571   1.555 -1.5283 -1.3754  0.6254
  801THF    H1212762   4.860   3.388   1.499  1.8240 -1.3557 -1.0316
  801THF    H1312763   4.820   3.405   1.679 -0.4531  1.1861  0.9163
  802THF     O112764   5.425   5.001   1.392 -0.1657  0.7071  0.3723
  802THF     C212765   5.361   5.043   1.274 -0.2237 -0.0165  0.1214
  802THF     C312766   5.540   5.078   1.413  0.1353 -0.1879  0.0075
  802THF     H412767   5.257   5.012   1.279  3.1714  0.3912 -1.4336
  802THF     H512768   5.398   5.010   1.180  3.6274 -0.2410 -0.0237
  802THF     H612769   5.567   5.043   1.509  2.6493  1.5975  0.0394
  802THF     H712770   5.626   5.049   1.348  1.6661 -0.3703  0.9755
  802THF     C812771   5.481   5.218   1.391 -0.7199 -0.0685 -0.1678
  802THF     C912772   5.378   5.194   1.280 -0.0293 -0.4722  0.0825
  802THF    H1012773   5.535   5.302   1.352  2.1296  1.5325 -2.3062
  802THF    H1112774   5.419   5.253   1.476 -0.6649 -0.2820  0.2746
  802THF    H1212775   5.286   5.247   1.283  0.8427  1.2190  0.5790
  802THF    H1312776   5.431   5.221   1.186  0.2051 -2.9024 -1.3519
  803THF     O112777   2.149   1.579   2.726 -0.4670  0.2852 -0.0577
  803THF     C212778   2.293   1.597   2.718 -0.1088 -0.4516  0.4028
  803THF     C312779   2.120   1.437   2.748  0.3973  0.4777  0.2960
  803THF     H412780   2.327   1.693   2.749 -0.3893  1.8994  3.1816
  803THF     H512781   2.330   1.574   2.615 -0.2482  0.8603 -0.7958
  803THF     H612782   2.018   1.420   2.781  0.0285  1.9652 -1.7100
  803THF     H712783   2.134   1.379   2.659 -1.2702 -0.2966  1.1655
  803THF     C812784   2.230   1.393   2.842 -0.2752 -0.1658 -0.7785
  803THF     C912785   2.343   1.502   2.823 -0.5714 -0.2704  0.2091
  803THF    H1012786   2.272   1.297   2.830 -0.3235 -5.0445  0.7494
  803THF    H1112787   2.194   1.395   2.948  0.5024  0.5553  3.1131
  803THF    H1212788   2.368   1.543   2.921  1.2756 -1.2835 -0.7658
  803THF    H1312789   2.437   1.454   2.796  0.7004 -1.5987 -0.4521
  804THF     O112790   0.043   4.332   1.688 -0.1350 -0.1780  0.1434
  804THF     C212791  -0.084   4.266   1.673  0.0369 -0.0169 -0.4637
  804THF     C312792   0.145   4.233   1.666  0.6903 -0.2785 -0.4820
  804THF     H412793  -0.164   4.337   1.649  0.6581  0.4646  2.5382
  804THF     H512794  -0.120   4.227   1.767 -0.4496  1.0838  1.3984
  804THF     H612795   0.240   4.277   1.646 -1.4495  1.0844  2.1634
  804THF     H712796   0.160   4.177   1.754  0.6268  0.8757 -0.4378
  804THF     C812797   0.084   4.169   1.546 -0.4562 -0.1261 -0.0096
  804THF     C912798  -0.064   4.154   1.576  0.7882 -0.2839  0.8454
  804THF    H1012799   0.121   4.066   1.522 -1.2531  0.8842  2.2412
  804THF    H1112800   0.096   4.237   1.463 -0.0064 -1.0551  0.1645
  804THF    H1212801  -0.136   4.165   1.498 -1.1622  2.1803 -0.0085
  804THF    H1312802  -0.085   4.055   1.611  3.2176 -1.2906  2.4947
  805THF     O112803   4.033   3.273   0.018 -0.6893 -0.2376  0.3493
  805THF     C212804   3.935   3.287  -0.084  0.5608 -1.3385  0.1411
  805THF     C312805   4.162   3.326  -0.025 -0.0304  0.4848  0.3294
  805THF     H412806   3.832   3.305  -0.066 -0.2898 -2.1311 -1.8961
  805THF     H512807   3.923   3.187  -0.134 -1.0882  1.7903  1.0788
  805THF     H612808   4.227   3.355   0.058 -1.1768 -0.3775  0.4382
  805THF     H712809   4.207   3.251  -0.090  0.1122  2.8458 -0.3573
  805THF     C812810   4.114   3.443  -0.103  0.5425  0.2188  0.6344
  805THF     C912811   4.009   3.383  -0.185 -0.0777 -0.1198  0.2914
  805THF    H1012812   4.190   3.481  -0.171 -0.3505 -1.2488 -0.4399
  805THF    H1112813   4.081   3.526  -0.046 -2.2384 -1.8418  0.4907
  805THF    H1212814   3.946   3.465  -0.227 -0.8748  1.7199  3.1917
  805THF    H1312815   4.051   3.312  -0.263  0.7664 -1.4291 -1.2740
  806THF     O112816   1.286   1.614   5.272 -0.0485  0.4759 -0.6137
  806THF     C212817   1.355   1.493   5.296  0.6462 -0.2315  0.4897
  806THF     C312818   1.157   1.577   5.210  0.2161 -0.0508  0.2216
  806THF     H412819   1.428   1.517   5.369 -1.9263  0.5657 -0.5091
  806THF     H512820   1.401   1.461   5.200  0.9659 -0.4786  0.1837
  806THF     H612821   1.080   1.661   5.222 -0.2653 -1.0670  0.1623
  806THF     H712822   1.171   1.560   5.106  1.1573 -1.2576  3.2473
  806THF     C812823   1.126   1.446   5.279 -0.8215 -0.0269 -0.1962
  806THF     C912824   1.245   1.404   5.356 -0.8602  0.1007  0.6849
  806THF    H1012825   1.113   1.370   5.206  0.2576  2.6713  0.2799
  806THF    H1112826   1.039   1.445   5.340 -0.5475 -1.4060 -1.3354
  806THF    H1212827   1.228   1.437   5.456 -3.6139 -0.4373 -3.0091
  806THF    H1312828   1.270   1.293   5.347  2.6716 -0.6360 -2.0301
  807THF     O112829   0.090   3.139   2.433  0.2523  0.1654  0.2504
  807THF     C212830   0.097   3.262   2.356 -0.4650  0.2837  0.3643
  807THF     C312831  -0.024   3.146   2.524 -0.2493 -0.0894 -0.4704
  807THF     H412832   0.025   3.248   2.273  0.6720  0.1287  0.6341
  807THF     H512833   0.195   3.271   2.310 -2.9989  3.8983 -0.4201
  807THF     H612834  -0.111   3.108   2.478 -1.0809 -2.1385 -2.4447
  807THF     H712835  -0.011   3.084   2.613 -0.3459 -1.5621 -0.3748
  807THF     C812836  -0.044   3.296   2.549  0.0604  0.6623 -0.1910
  807THF     C912837   0.051   3.368   2.451 -0.1655 -0.4246 -0.3522
  807THF    H1012838  -0.004   3.312   2.649  2.1270 -3.8421 -0.0004
  807THF    H1112839  -0.150   3.340   2.544 -1.7399 -1.6401 -0.7032
  807THF    H1212840  -0.003   3.454   2.414  0.3337  0.1612 -0.8100
  807THF    H1312841   0.143   3.399   2.499  0.5744 -3.1323  0.3221
  808THF     O112842   2.191   4.538   2.634 -0.3071 -0.0314  0.3453
  808THF     C212843   2.317   4.511   2.568  0.0220  0.2253  0.0577
  808THF     C312844   2.081   4.510   2.549  0.5522  0.0184 -0.7230
  808THF     H412845   2.341   4.400   2.574  3.7443 -3.8824  0.1869
  808THF     H512846   2.394   4.559   2.616  0.4436  1.0632 -2.3059
  808THF     H612847   2.074   4.401   2.547  0.1085 -0.1849 -1.0980
  808THF     H712848   1.982   4.554   2.582 -0.2035 -1.6174 -2.1411
  808THF     C812849   2.133   4.573   2.416 -0.5781 -0.0287  0.0387
  808THF     C912850   2.286   4.551   2.421 -0.6999 -0.1571 -0.1417
  808THF    H1012851   2.117   4.681   2.426 -1.9604 -2.9543 -0.0783
  808THF    H1112852   2.080   4.539   2.331 -0.0270 -3.4475  0.4308
  808THF    H1212853   2.303   4.470   2.357 -0.5269  0.9936 -0.9485
  808THF    H1312854   2.328   4.643   2.383 -1.5339 -2.9251  0.5667
  809THF     O112855   0.820   3.569   0.267  0.2828  0.2829 -0.2828
  809THF     C212856   0.824   3.427   0.290 -0.3883 -0.0197  0.0919
  809THF     C312857   0.934   3.624   0.318  0.0468 -0.8888 -0.3572
  809THF     H412858   0.872   3.379   0.208 -2.0738  2.2977  0.0476
  809THF     H512859   0.723   3.387   0.296 -0.7021 -0.7892  3.1002
  809THF     H612860   1.016   3.636   0.243  2.2485  0.0658  0.2471
  809THF     H712861   0.920   3.729   0.351 -2.3224 -0.7905  1.5393
  809THF     C812862   0.982   3.534   0.438  0.3843 -0.0536  0.3493
  809THF     C912863   0.893   3.414   0.427  0.1950 -0.3596 -0.0896
  809THF    H1012864   0.947   3.592   0.523 -1.7499  0.3190  3.5128
  809THF    H1112865   1.089   3.498   0.445 -2.1995  1.9522  0.3116
  809THF    H1212866   0.943   3.322   0.432 -0.3324  2.7957  1.0374
  809THF    H1312867   0.823   3.397   0.507 -2.6729 -0.0343  1.0871
  810THF     O112868   4.733   1.983   2.362  0.0037 -0.1209 -0.1841
  810THF     C212869   4.806   2.060   2.263 -0.3245  0.2062  0.4657
  810THF     C312870   4.674   2.070   2.456  0.3838  0.4500 -0.4716
  810THF     H412871   4.777   2.020   2.168 -2.6755  1.6637  2.3225
  810THF     H512872   4.914   2.042   2.283  0.5651 -1.6950 -0.7168
  810THF     H612873   4.563   2.074   2.458 -2.2354  0.5839  0.1842
  810THF     H712874   4.700   2.033   2.550  0.8550 -0.4214 -0.9586
  810THF     C812875   4.731   2.209   2.424  1.1196 -0.2292  0.3823
  810THF     C912876   4.777   2.208   2.276  0.0793  0.0040 -0.1244
  810THF    H1012877   4.813   2.233   2.493 -0.4707 -2.9940 -1.9487
  810THF    H1112878   4.647   2.277   2.434  1.4481 -2.7115 -1.1025
  810THF    H1212879   4.686   2.244   2.221  0.4144  0.2019  0.4842
  810THF    H1312880   4.868   2.277   2.255 -0.1004  2.1825  0.1727
  811THF     O112881   4.309   0.879   0.927  0.0515 -0.7921  0.5923
  811THF     C212882   4.231   0.773   0.886  0.0961 -0.1453 -0.2591
  811THF     C312883   4.295   0.891   1.066 -0.1199 -0.0568 -0.2765
  811THF     H412884   4.269   0.685   0.930 -0.7148  0.6170 -1.0109
  811THF     H512885   4.230   0.773   0.776  1.3670  1.6313 -1.9724
  811THF     H612886   4.355   0.821   1.123  0.1811 -0.4823  0.3113
  811THF     H712887   4.328   0.995   1.092  1.3115 -2.4737 -0.3825
  811THF     C812888   4.142   0.866   1.082  0.0380  0.5546 -0.4592
  811THF     C912889   4.098   0.803   0.951  0.3399  0.4748 -0.3450
  811THF    H1012890   4.086   0.960   1.097 -0.8507  0.6578 -1.5268
  811THF    H1112891   4.123   0.795   1.167 -1.1565 -0.0640 -3.1608
  811THF    H1212892   4.027   0.722   0.951  0.5314 -0.4653 -1.2010
  811THF    H1312893   4.067   0.880   0.884 -1.4152  0.2166  0.6811
  812THF     O112894   5.277   4.457   3.298  0.0329  0.0484  0.8186
  812THF     C212895   5.304   4.587   3.249  0.4830  0.3718 -0.1811
  812THF     C312896   5.372   4.441   3.407  0.2789 -1.2191  0.3850
  812THF     H412897   5.276   4.660   3.329 -2.7548  1.9901  0.5212
  812THF     H512898   5.236   4.590   3.161 -2.2347  0.2062 -2.3461
  812THF     H612899   5.343   4.514   3.492 -1.2525  0.3246  1.3057
  812THF     H712900   5.367   4.333   3.436 -1.5461 -0.3111 -1.1740
  812THF     C812901   5.495   4.488   3.335  0.0652  0.0581  0.3088
  812THF     C912902   5.451   4.585   3.228  0.2516  0.9701  0.3248
  812THF    H1012903   5.559   4.404   3.301 -0.3575 -0.4147  0.2437
  812THF    H1112904   5.566   4.532   3.403 -4.0281 -0.1627 -1.6702
  812THF    H1212905   5.482   4.686   3.242 -0.3322 -1.8360  2.9149
  812THF    H1312906   5.474   4.536   3.136 -1.3576  2.5517  0.1064
  813THF     O112907   0.023   0.759   2.589  0.7370 -0.1769  0.4510
  813THF     C212908  -0.006   0.897   2.602  0.1200  0.3041  0.0797
  813THF     C312909   0.056   0.711   2.723  0.0159 -0.0926 -0.1125
  813THF     H412910  -0.074   0.929   2.525  0.6161  0.5965  0.8300
  813THF     H512911   0.092   0.944   2.588 -2.6146  1.6332 -1.7602
  813THF     H612912  -0.010   0.616   2.738  1.8645 -1.6120 -1.3432
  813THF     H712913   0.153   0.666   2.733  1.6687  2.1889 -1.8388
  813THF     C812914   0.022   0.826   2.825  0.1862  0.0984 -0.0932
  813THF     C912915  -0.068   0.918   2.740  0.0585  0.3070 -0.8450
  813THF    H1012916   0.119   0.867   2.868 -0.6757  2.2425  0.9040
  813THF    H1112917  -0.042   0.781   2.899 -1.7761 -0.7532  0.9301
  813THF    H1212918  -0.169   0.873   2.749  1.7800  0.4421 -0.8654
  813THF    H1312919  -0.072   1.021   2.773  0.0431  1.5387 -0.5593
  814THF     O112920   1.360   5.306   1.511 -0.4318  0.0667 -0.0197
  814THF     C212921   1.338   5.401   1.401 -0.1867 -0.2363 -0.3029
  814THF     C312922   1.495   5.264   1.507  0.3403 -0.3001 -0.4386
  814THF     H412923   1.349   5.503   1.449  1.9473  1.3047  1.6717
  814THF     H512924   1.229   5.392   1.364 -1.9900  0.3147  2.8117
  814THF     H612925   1.553   5.337   1.556 -2.0317  0.7304  0.7100
  814THF     H712926   1.518   5.171   1.562 -0.5163  0.8392 -0.7349
  814THF     C812927   1.528   5.264   1.358 -0.1058  0.5785  0.7265
  814THF     C912928   1.447   5.382   1.303 -0.7464 -0.3997 -0.7088
  814THF    H1012929   1.483   5.174   1.312  0.9738  0.2050  0.3022
  814THF    H1112930   1.638   5.268   1.330  2.5627  2.5809  1.2709
  814THF    H1212931   1.515   5.463   1.312  0.5999 -0.1058 -0.8684
  814THF    H1312932   1.416   5.363   1.204  1.3471  1.1762  0.2576
  815THF     O112933   3.665   1.165   2.828 -0.2802 -0.3286 -0.3935
  815THF     C212934   3.584   1.169   2.944 -0.2683 -0.0909 -0.1214
  815THF     C312935   3.649   1.288   2.746  0.1973  0.0408 -0.3799
  815THF     H412936   3.649   1.139   3.027 -1.0579 -0.5081  1.9344
  815THF     H512937   3.504   1.107   2.951 -2.0597  0.0058  0.8352
  815THF     H612938   3.731   1.308   2.682  1.3494  3.6894  2.9559
  815THF     H712939   3.556   1.285   2.687  1.2782  0.8106 -0.9163
  815THF     C812940   3.641   1.383   2.864 -0.2695 -0.2547 -0.8989
  815THF     C912941   3.542   1.311   2.951 -0.0484 -0.4928  1.0916
  815THF    H1012942   3.607   1.486   2.836  0.6033  2.3342 -0.9030
  815THF    H1112943   3.738   1.385   2.918  0.4113 -0.2854  0.6796
  815THF    H1212944   3.534   1.357   3.044 -2.3431 -0.4300  0.7242
  815THF    H1312945   3.439   1.321   2.912 -1.6158  0.7339 -1.8651
  816THF     O112946   5.475   5.286   0.750 -0.2517 -0.1952  0.2596
  816THF     C212947   5.522   5.386   0.662 -0.0432 -0.4089 -0.9784
  816THF     C312948   5.415   5.346   0.860 -0.3304 -0.3776  0.2148
  816THF     H412949   5.529   5.333   0.570 -2.4740 -0.1589  0.5502
  816THF     H512950   5.616   5.430   0.691 -1.2462 -1.3595 -2.6187
  816THF     H612951   5.369   5.282   0.931  0.1890  0.0073 -1.0407
  816THF     H712952   5.501   5.394   0.920  0.1224 -0.1110 -1.8995
  816THF     C812953   5.325   5.448   0.781  0.1021 -0.4083  0.5333
  816THF     C912954   5.408   5.492   0.665 -0.3086  0.6999  0.1149
  816THF    H1012955   5.304   5.535   0.842 -1.1126  0.0148  0.2051
  816THF    H1112956   5.229   5.407   0.749 -2.0433  2.2027  2.9157
  816THF    H1212957   5.347   5.494   0.575  1.3868  0.1980 -0.0688
  816THF    H1312958   5.442   5.597   0.666  1.3326  0.4586  0.9911
  817THF     O112959   5.422   3.310   4.197 -0.0410  0.1775  0.0124
  817THF     C212960   5.530   3.220   4.175  0.4069  0.2653  0.5494
  817THF     C312961   5.359   3.332   4.071 -0.0228 -0.8297 -0.3527
  817THF     H412962   5.477   3.126   4.155 -0.2592  1.7629 -1.0721
  817THF     H512963   5.599   3.210   4.260  2.7522 -1.0709  1.8715
  817THF     H612964   5.311   3.239   4.044 -1.2502  2.4475  0.0014
  817THF     H712965   5.271   3.391   4.074 -3.3487 -1.2511  1.8179
  817THF     C812966   5.487   3.377   3.992  0.2369  0.4060 -0.1231
  817THF     C912967   5.596   3.288   4.050  0.3012  0.6724 -0.3336
  817THF    H1012968   5.493   3.481   4.009 -2.1606  1.0798 -2.8519
  817THF    H1112969   5.475   3.370   3.881  1.5755 -0.5993  1.0425
  817THF    H1212970   5.644   3.217   3.984 -2.0771 -0.9901 -1.0215
  817THF    H1312971   5.683   3.344   4.088 -1.4397 -3.6479 -1.4601
  818THF     O112972   2.617   4.623   0.877 -0.3918  0.4326 -0.1147
  818THF     C212973   2.605   4.485   0.879 -0.2580  0.3952  0.6372
  818THF     C312974   2.580   4.663   0.754 -0.3882 -0.4603  0.3360
  818THF     H412975   2.589   4.430   0.970  0.5506  1.2038 -0.3999
  818THF     H512976   2.696   4.439   0.850  0.1628 -3.1006 -1.1816
  818THF     H612977   2.501   4.723   0.766  3.9152  2.5196 -0.4243
  818THF     H712978   2.653   4.731   0.704  1.3207 -0.6656 -1.7909
  818THF     C812979   2.539   4.548   0.674 -0.1205 -0.5091 -0.8228
  818THF     C912980   2.503   4.448   0.772  0.8264  0.3291  0.3893
  818THF    H1012981   2.621   4.510   0.614  2.6727  1.3378  0.0233
  818THF    H1112982   2.456   4.567   0.604  2.6942 -1.9192  0.4096
  818THF    H1212983   2.405   4.474   0.816 -1.2179 -1.1460  1.3678
  818THF    H1312984   2.506   4.345   0.730  0.6148  0.6937  0.5960
  819THF     O112985   2.729   3.056   0.425 -0.3940 -0.1857  0.2271
  819THF     C212986   2.749   2.934   0.358 -0.5393 -0.4478  0.3843
  819THF     C312987   2.786   3.040   0.560  0.5084  0.3537  0.7189
  819THF     H412988   2.787   2.962   0.260  1.0669  1.1895 -2.7292
  819THF     H512989   2.658   2.889   0.359  3.0687  0.6232  2.6686
  819THF     H612990   2.810   3.134   0.610  2.6788 -0.1860  5.6340
  819THF     H712991   2.713   2.998   0.625  0.1659  1.7691  1.3643
  819THF     C812992   2.897   2.940   0.544 -0.9637  0.6994  0.1504
  819THF     C912993   2.843   2.846   0.442  0.0126 -0.4974 -0.1208
  819THF    H1012994   2.925   2.883   0.634 -1.3506 -0.0810  1.8675
  819THF    H1112995   2.990   2.985   0.497  0.6021  0.0741 -0.5500
  819THF    H1212996   2.915   2.791   0.382 -1.2491  3.2038  1.0886
  819THF    H1312997   2.766   2.780   0.478 -0.3730  0.4598  2.2442
  820THF     O112998   3.262   2.808   2.375 -0.4618  0.4403 -0.4042
  820THF     C212999   3.332   2.929   2.385  0.7557  0.0521 -0.0174
  820THF     C313000   3.124   2.839   2.365  0.3698  0.0838 -0.4680
  820THF     H413001   3.326   2.976   2.285 -3.4112  0.6774  1.0922
  820THF     H513002   3.438   2.902   2.408  1.1167  0.5529  1.0565
  820THF     H613003   3.096   2.859   2.266 -3.2579  0.1499  1.3310
  820THF     H713004   3.066   2.768   2.406  0.6940 -2.3514 -1.3899
  820THF     C813005   3.097   2.977   2.434 -0.5914  0.6482  0.5656
  820THF     C913006   3.239   3.014   2.472 -0.0887  0.7518  0.3530
  820THF    H1013007   3.024   2.959   2.517 -0.8245  1.4088  3.7583
  820THF    H1113008   3.053   3.049   2.361  0.8324  0.5992  0.4552
  820THF    H1213009   3.258   3.125   2.479 -0.5218 -0.3161 -1.2111
  820THF    H1313010   3.257   2.976   2.575 -1.2381  1.4475 -0.2453
  821THF     O113011   3.535   1.847   3.228 -0.2673 -0.2997 -0.1959
  821THF     C213012   3.591   1.901   3.114 -0.7404 -0.5787 -0.1226
  821THF     C313013   3.522   1.707   3.187 -0.1558 -0.2938  0.4272
  821THF     H413014   3.698   1.883   3.119  0.4544  1.5807 -0.5585
  821THF     H513015   3.581   2.014   3.121 -0.1709 -1.4614 -0.6787
  821THF     H613016   3.611   1.646   3.213  0.1489 -0.5152  1.3679
  821THF     H713017   3.455   1.650   3.252  1.4524  1.7135 -2.7754
  821THF     C813018   3.489   1.707   3.036  0.3702  0.3858 -0.0694
  821THF     C913019   3.518   1.850   2.994  0.5060  0.0656 -0.8161
  821THF    H1013020   3.396   1.660   3.002  1.8525  0.3348 -0.3705
  821THF    H1113021   3.567   1.648   2.980 -0.8211 -2.1991 -0.4952
  821THF    H1213022   3.587   1.867   2.910  1.0743  1.1638  0.7502
  821THF    H1313023   3.426   1.909   2.977 -0.5204  0.7672 -0.8657
  822THF     O113024   2.658   0.435   2.558  0.1793 -0.4656  0.3100
  822THF     C213025   2.527   0.429   2.594 -0.6570  0.7610  0.0176
  822THF     C313026   2.675   0.387   2.424  0.9562 -0.1233  0.8020
  822THF     H413027   2.471   0.502   2.539 -1.4298 -0.1607  0.6102
  822THF     H513028   2.517   0.444   2.707  2.9922  0.0771 -1.0398
  822THF     H613029   2.646   0.461   2.352  0.3528 -4.6197  3.2368
  822THF     H713030   2.770   0.346   2.409 -0.1676 -1.0070 -0.3944
  822THF     C813031   2.560   0.287   2.408  0.3814  0.5976 -0.2343
  822THF     C913032   2.481   0.289   2.541 -0.4890  0.2405 -0.5459
  822THF    H1013033   2.594   0.187   2.398 -1.5019 -0.2211 -0.1235
  822THF    H1113034   2.503   0.316   2.316 -0.2677  0.3474 -0.0247
  822THF    H1213035   2.378   0.288   2.519  2.5225 -1.1996 -0.3246
  822THF    H1313036   2.521   0.215   2.605  1.5791 -0.5786 -2.3930
  823THF     O113037   5.418   0.307   3.178  0.2386 -1.0719  0.1104
  823THF     C213038   5.292   0.272   3.237  0.4716  0.1009  0.1302
  823THF     C313039   5.392   0.349   3.048  0.1052  0.5407 -0.3274
  823THF     H413040   5.321   0.245   3.341 -0.2819 -1.8302 -1.5522
  823THF     H513041   5.242   0.181   3.212 -1.5717 -2.1378  2.8969
  823THF     H613042   5.473   0.398   3.001 -2.0866 -0.1687 -1.5165
  823THF     H713043   5.366   0.262   2.990 -2.8618  1.3348  1.3972
  823THF     C813044   5.266   0.433   3.058 -0.0670 -0.1734 -0.1478
  823THF     C913045   5.213   0.395   3.199  0.2982  0.1886 -0.8210
  823THF    H1013046   5.197   0.418   2.980 -0.9055  0.4072  0.6040
  823THF    H1113047   5.292   0.539   3.058  2.8194  0.3267  2.4850
  823THF    H1213048   5.254   0.481   3.259 -0.3210  0.2989 -0.5614
  823THF    H1313049   5.102   0.390   3.208 -2.9795  1.3870 -0.2873
  824THF     O113050   4.743   5.330   1.177 -0.0594  0.0966 -0.0756
  824THF     C213051   4.817   5.424   1.256  0.2021  0.1850 -0.0868
  824THF     C313052   4.840   5.224   1.150 -0.2256 -0.1540 -0.6092
  824THF     H413053   4.826   5.377   1.354  0.3592 -2.4026 -0.0216
  824THF     H513054   4.765   5.520   1.275 -0.4542  0.1838  2.2481
  824THF     H613055   4.840   5.166   1.247 -2.6675 -1.2781  0.6880
  824THF     H713056   4.820   5.150   1.068 -0.2270  1.3935  1.1601
  824THF     C813057   4.969   5.299   1.127 -0.4074  0.5229 -0.3863
  824THF     C913058   4.949   5.434   1.179 -0.2724 -0.4155 -0.0670
  824THF    H1013059   4.982   5.310   1.017 -1.0776  1.1321 -0.0781
  824THF    H1113060   5.054   5.245   1.166 -1.0384  0.0643  0.5168
  824THF    H1213061   5.030   5.463   1.251 -0.4021  2.9972  1.0896
  824THF    H1313062   4.945   5.510   1.102  0.4420 -2.1194 -0.4670
  825THF     O113063   4.062   1.642   1.562 -0.7392 -0.1545  0.0515
  825THF     C213064   3.963   1.718   1.619  0.1727  0.9517  0.4889
  825THF     C313065   4.139   1.739   1.490 -0.3967 -0.0333 -0.2435
  825THF     H413066   3.983   1.759   1.715 -1.7454  0.5235  0.4773
  825THF     H513067   3.883   1.650   1.639 -0.5891  1.9486  0.6803
  825THF     H613068   4.200   1.783   1.565  0.8746  1.8595  1.5644
  825THF     H713069   4.200   1.696   1.409 -2.1334 -0.4339 -0.1875
  825THF     C813070   4.041   1.837   1.434 -0.2896  0.3638  0.1097
  825THF     C913071   3.916   1.815   1.518  0.4869  1.4496  0.9775
  825THF    H1013072   4.022   1.823   1.324  0.7252  0.5049  0.2585
  825THF    H1113073   4.083   1.940   1.438  0.8426 -0.5323  1.0789
  825THF    H1213074   3.878   1.905   1.570  0.9787 -0.2338  1.7031
  825THF    H1313075   3.834   1.776   1.455  0.6928  1.3363 -0.2481
  826THF     O113076   3.840   2.301   1.225  0.0053 -0.1161 -0.1839
  826THF     C213077   3.919   2.206   1.298  0.9947 -0.2704  0.2915
  826THF     C313078   3.890   2.425   1.263 -0.3323  0.4929  0.4062
  826THF     H413079   3.891   2.103   1.270 -0.4142  0.9245  0.0099
  826THF     H513080   3.886   2.214   1.403 -0.8563 -2.7246 -1.6511
  826THF     H613081   3.863   2.491   1.182 -0.4360 -0.9465 -1.8196
  826THF     H713082   3.868   2.455   1.364  0.1327 -2.2145  0.3093
  826THF     C813083   4.044   2.395   1.252 -0.0222  0.2389 -0.1291
  826THF     C913084   4.059   2.245   1.262  0.0187 -0.1649 -0.2482
  826THF    H1013085   4.111   2.452   1.322  0.7102  0.2108  0.9605
  826THF    H1113086   4.076   2.421   1.150  0.2814  0.8517  1.8032
  826THF    H1213087   4.080   2.199   1.166 -2.3153 -0.6777 -2.1246
  826THF    H1313088   4.134   2.217   1.337 -0.9614 -0.9907  1.4510
  827THF     O113089   4.346   0.020   2.280  0.3082  0.1731 -0.2207
  827THF     C213090   4.303  -0.006   2.146  0.2668  0.2350 -0.2624
  827THF     C313091   4.286   0.137   2.334 -0.0819 -0.1326 -0.3772
  827THF     H413092   4.280  -0.115   2.136 -0.5882 -2.9878  3.1158
  827THF     H513093   4.376   0.023   2.067  1.7190 -1.2465 -2.4150
  827THF     H613094   4.298   0.136   2.445 -1.2232 -1.9051 -1.4885
  827THF     H713095   4.350   0.217   2.296  0.2663  0.7780  0.5277
  827THF     C813096   4.145   0.126   2.280  0.0772 -0.0287  0.3003
  827THF     C913097   4.175   0.080   2.135 -0.2851 -0.2687  0.8645
  827THF    H1013098   4.092   0.222   2.283 -1.1222 -1.9913  0.2749
  827THF    H1113099   4.097   0.048   2.341 -0.7436 -0.1380  1.9656
  827THF    H1213100   4.096   0.022   2.083  2.4470 -0.3000  3.0144
  827THF    H1313101   4.193   0.168   2.073  2.5128  0.5145 -1.5505
  828THF     O113102   4.190   1.973   4.581  0.2425  0.0236 -0.5049
  828THF     C213103   4.075   1.891   4.552  0.7343  0.3494  1.1267
  828THF     C313104   4.257   1.906   4.688  0.0295 -0.2664  0.6382
  828THF     H413105   4.044   1.934   4.457  2.0064  2.0825 -0.0481
  828THF     H513106   3.999   1.901   4.623  1.3873 -2.2765 -2.6119
  828THF     H613107   4.360   1.943   4.698  0.7435 -0.4630  1.5250
  828THF     H713108   4.212   1.935   4.786 -1.1729  2.6330 -1.3980
  828THF     C813109   4.255   1.759   4.645 -0.3255  0.2354 -0.3073
  828THF     C913110   4.131   1.749   4.554 -0.0921  0.3990 -0.3215
  828THF    H1013111   4.234   1.697   4.735  0.9683 -1.5619  1.7998
  828THF    H1113112   4.349   1.722   4.600 -0.7674 -0.0034 -3.6472
  828THF    H1213113   4.155   1.707   4.458  1.5954  1.3515 -0.6275
  828THF    H1313114   4.050   1.676   4.589 -1.1974 -1.2004  3.0720
  829THF     O113115   4.863   0.589   5.169 -0.0826  0.6897 -0.3172
  829THF     C213116   4.850   0.618   5.033  0.1164 -0.8268 -0.7448
  829THF     C313117   4.741   0.612   5.234  0.2593  0.3988 -0.3500
  829THF     H413118   4.849   0.525   4.976 -1.8910 -1.5086  0.3835
  829THF     H513119   4.952   0.656   5.002 -0.1032  2.4885 -2.8227
  829THF     H613120   4.712   0.516   5.278  2.8297  1.0960 -2.0649
  829THF     H713121   4.765   0.686   5.312  0.4279  1.4584 -0.6909
  829THF     C813122   4.640   0.665   5.132 -0.0295  0.7932 -0.0487
  829THF     C913123   4.733   0.717   5.020 -0.4361  0.3079 -0.5410
  829THF    H1013124   4.580   0.747   5.171 -0.4362  1.6281 -1.3752
  829THF    H1113125   4.572   0.580   5.100 -0.2223  0.5125 -1.6085
  829THF    H1213126   4.697   0.693   4.923  0.4330 -1.3003 -0.4154
  829THF    H1313127   4.758   0.823   5.018 -2.6061 -3.5277 -0.3151
  830THF     O113128   0.883   3.023   2.234  0.0651 -0.6665  0.1935
  830THF     C213129   0.892   3.084   2.106  0.3341  0.1660 -0.5945
  830THF     C313130   0.769   2.936   2.240  0.0984 -0.3720 -0.6138
  830THF     H413131   0.925   3.001   2.044  0.2206  1.5154  0.7863
  830THF     H513132   0.957   3.175   2.096  0.0000 -0.3988 -2.3853
  830THF     H613133   0.802   2.841   2.185  2.1011  1.0401  0.0257
  830THF     H713134   0.743   2.928   2.342  1.4747  1.2556 -0.4693
  830THF     C813135   0.665   3.008   2.158 -1.4691  0.1871  0.7910
  830THF     C913136   0.744   3.120   2.081  0.1673 -0.0297 -0.4279
  830THF    H1013137   0.580   3.043   2.215  2.8929 -0.5286  0.3066
  830THF    H1113138   0.623   2.935   2.084 -0.8930  3.1648 -1.7486
  830THF    H1213139   0.706   3.118   1.983  2.0916  0.2563  0.9144
  830THF    H1313140   0.728   3.214   2.134  0.1671  0.5025  2.9007
  831THF     O113141   1.355   2.848   0.050  0.1012 -0.0005  0.4635
  831THF     C213142   1.384   2.980   0.107 -0.4169  0.7790  0.2551
  831THF     C313143   1.375   2.752   0.151 -0.2977  0.2826 -0.1918
  831THF     H413144   1.304   3.021   0.164  1.9092  0.9853 -1.8403
  831THF     H513145   1.414   3.037   0.023  2.2574  0.1335 -0.3261
  831THF     H613146   1.274   2.749   0.204 -2.0282 -1.2409  1.7207
  831THF     H713147   1.401   2.653   0.116 -1.8247 -1.4226 -0.0261
  831THF     C813148   1.498   2.796   0.214 -0.2378  0.0600 -0.9539
  831THF     C913149   1.510   2.948   0.181  0.1382  0.5257  0.9498
  831THF    H1013150   1.583   2.750   0.195  0.8823 -1.0956  0.3384
  831THF    H1113151   1.491   2.799   0.328 -1.3738  0.7593  1.7215
  831THF    H1213152   1.505   3.004   0.269 -0.4052 -1.8879  1.0786
  831THF    H1313153   1.607   2.973   0.136 -0.4058 -2.0105 -1.2111
  832THF     O113154   2.141   2.203   3.217 -0.4470  0.5023 -0.4747
  832THF     C213155   2.263   2.179   3.298 -0.1767 -0.1473 -0.9692
  832THF     C313156   2.044   2.111   3.256  0.4010 -0.4713 -0.3523
  832THF     H413157   2.255   2.205   3.407  2.0653  1.9076  2.1175
  832THF     H513158   2.352   2.225   3.273 -1.5062 -0.4296  1.2660
  832THF     H613159   2.004   2.127   3.358  0.1664  3.5809  1.6116
  832THF     H713160   1.961   2.102   3.187 -0.1887  0.6206 -0.6215
  832THF     C813161   2.127   1.987   3.273 -0.1652  0.0232 -0.2233
  832THF     C913162   2.272   2.028   3.292 -0.7512 -0.1534  0.5018
  832THF    H1013163   2.113   1.909   3.200  1.1063  0.6349  1.4580
  832THF    H1113164   2.098   1.941   3.366  1.2902  0.1175  1.3451
  832THF    H1213165   2.325   1.985   3.378  0.4161 -0.3872 -0.8289
  832THF    H1313166   2.325   1.986   3.206  0.1269 -0.1986  1.7633
  833THF     O113167   1.370   2.248   3.186  0.3376 -0.0018 -0.6956
  833THF     C213168   1.423   2.337   3.285  0.1691  0.0064  0.4180
  833THF     C313169   1.388   2.112   3.239  0.0617 -0.3020 -0.7924
  833THF     H413170   1.348   2.367   3.363 -0.0371 -1.4126  0.6028
  833THF     H513171   1.450   2.430   3.243 -2.2735  0.6853  0.2412
  833THF     H613172   1.330   2.088   3.332  2.1976 -0.2136 -1.6429
  833THF     H713173   1.376   2.034   3.167  2.1460  0.7186  0.6730
  833THF     C813174   1.536   2.121   3.283 -0.7278  0.3242  0.2885
  833THF     C913175   1.542   2.259   3.339 -0.5513  0.4516  0.3741
  833THF    H1013176   1.604   2.112   3.202 -1.8825 -0.6993  2.2098
  833THF    H1113177   1.558   2.040   3.351  0.7301 -2.3422  0.8464
  833THF    H1213178   1.523   2.252   3.447 -0.3211  0.9052 -0.4695
  833THF    H1313179   1.642   2.293   3.319 -0.1231 -1.3530  1.2443
  834THF     O113180   4.789   5.257   1.995  0.3820  0.1157 -0.0672
  834THF     C213181   4.682   5.275   1.903 -0.2550 -1.0402  0.5185
  834THF     C313182   4.853   5.376   2.014  0.5678  0.4398  0.5658
  834THF     H413183   4.625   5.187   1.885  1.9558 -1.1816 -3.7152
  834THF     H513184   4.725   5.329   1.814  2.7199  0.4344  0.8760
  834THF     H613185   4.922   5.384   2.099 -0.7627 -0.4216 -2.5606
  834THF     H713186   4.911   5.406   1.923  2.9698 -0.5720  0.7506
  834THF     C813187   4.731   5.467   2.036  0.0374  0.1760  0.3393
  834THF     C913188   4.614   5.383   1.977  0.6508 -0.3002  0.3844
  834THF    H1013189   4.736   5.568   1.991  0.7007  0.9349  1.6235
  834THF    H1113190   4.709   5.492   2.139 -0.3570 -0.5078 -1.4617
  834THF    H1213191   4.559   5.332   2.053  0.7293  2.0945 -2.5970
  834THF    H1313192   4.545   5.443   1.918 -1.3096  1.0515 -0.2459
  835THF     O113193   1.154   4.749   1.318  0.3203  0.0149 -1.0199
  835THF     C213194   1.033   4.685   1.350  0.0971 -0.6772  0.7467
  835THF     C313195   1.145   4.880   1.373 -0.6785 -0.1275  0.3599
  835THF     H413196   1.017   4.675   1.457  0.7368  1.5348 -2.9285
  835THF     H513197   1.030   4.585   1.304  1.4614  3.9474  1.2183
  835THF     H613198   1.152   4.869   1.480 -2.1628 -2.0834 -0.6203
  835THF     H713199   1.226   4.950   1.338  0.2487  4.3426 -0.3092
  835THF     C813200   1.013   4.923   1.327  0.2556  0.2087 -0.1898
  835THF     C913201   0.935   4.789   1.310  0.1367  0.4337  0.4964
  835THF    H1013202   1.018   4.977   1.231 -0.8602 -0.2757 -0.4028
  835THF    H1113203   0.953   4.978   1.403  0.6626  0.3221 -1.7284
  835THF    H1213204   0.837   4.786   1.367  0.0108  0.4602 -1.8178
  835THF    H1313205   0.914   4.783   1.201  2.1890  2.2622 -1.1932
  836THF     O113206   4.834   0.144   5.473  0.1886 -0.0912 -0.0776
  836THF     C213207   4.899   0.245   5.547  0.0990 -0.1523  0.1812
  836THF     C313208   4.804   0.200   5.342 -0.3246 -0.6112 -0.4613
  836THF     H413209   4.960   0.211   5.633 -0.6418 -0.4930  0.1338
  836THF     H513210   4.824   0.313   5.582  0.3703  1.7216 -0.2742
  836THF     H613211   4.791   0.128   5.255 -0.8536  1.9260 -1.3449
  836THF     H713212   4.709   0.256   5.349 -2.1381  2.1523 -1.8052
  836THF     C813213   4.930   0.281   5.320 -0.1958 -0.2958  1.2147
  836THF     C913214   4.993   0.305   5.445  0.1853 -0.0924 -0.0347
  836THF    H1013215   4.898   0.366   5.258 -0.3203 -1.9325  0.6522
  836THF    H1113216   5.001   0.223   5.257  1.2501  0.1832  0.4099
  836THF    H1213217   5.091   0.250   5.450 -0.4585 -1.7662 -1.4163
  836THF    H1313218   5.001   0.411   5.468 -0.4101 -0.7943  1.8656
  837THF     O113219   4.467   4.886   2.460 -0.2843  0.1047  0.2008
  837THF     C213220   4.561   4.845   2.554  0.1842 -0.3270  0.0327
  837THF     C313221   4.517   5.004   2.392 -0.2148 -0.2192 -0.3885
  837THF     H413222   4.529   4.740   2.568  0.3016  2.1131 -1.5511
  837THF     H513223   4.535   4.901   2.650 -0.9429  0.6821 -1.6415
  837THF     H613224   4.476   5.023   2.294  0.8257  0.3740  2.4252
  837THF     H713225   4.511   5.108   2.436  0.7527  2.9195  1.6241
  837THF     C813226   4.666   4.958   2.372  0.2061  0.5881 -0.3378
  837THF     C913227   4.699   4.869   2.497 -0.5266 -0.3293 -0.5463
  837THF    H1013228   4.740   5.032   2.357 -0.6092  0.7156 -0.6768
  837THF    H1113229   4.667   4.893   2.283 -1.0871  0.8399 -0.0122
  837THF    H1213230   4.754   4.780   2.477 -0.5448  1.7588 -0.7474
  837THF    H1313231   4.766   4.926   2.560  0.9854 -0.2559  0.2193
  838THF     O113232   3.565   4.788   1.957 -1.0218  0.7903  0.1075
  838THF     C213233   3.597   4.829   1.820  0.0889  0.2298  0.6035
  838THF     C313234   3.528   4.902   2.033 -0.3483  0.0485 -0.9238
  838THF     H413235   3.504   4.839   1.758  0.1386 -2.5262  0.1224
  838THF     H513236   3.664   4.767   1.763  0.4280 -0.6316 -1.4282
  838THF     H613237   3.417   4.911   2.053  0.7870 -0.3868  2.0140
  838THF     H713238   3.577   4.888   2.122 -0.0996 -1.5980 -0.2004
  838THF     C813239   3.582   5.027   1.964  0.5510  0.2486 -0.0293
  838THF     C913240   3.664   4.970   1.844 -0.1771 -0.5502 -0.1538
  838THF    H1013241   3.655   5.088   2.026  0.6530  0.7128  2.2288
  838THF    H1113242   3.504   5.095   1.932  0.8005  0.1848  4.2303
  838THF    H1213243   3.667   5.030   1.755  0.2846 -0.2752 -1.6251
  838THF    H1313244   3.767   4.953   1.879  0.1246  1.3330  0.1060
  839THF     O113245   2.195   2.776   4.597  0.0303  0.7985 -0.2257
  839THF     C213246   2.254   2.798   4.472  0.0019 -0.3021  0.4396
  839THF     C313247   2.287   2.804   4.701 -0.0226 -0.2118 -0.2675
  839THF     H413248   2.206   2.889   4.430  0.7872  0.2949 -1.8069
  839THF     H513249   2.232   2.718   4.392 -0.0640  0.5749 -0.7555
  839THF     H613250   2.250   2.867   4.783 -0.1889  2.1576 -2.6543
  839THF     H713251   2.309   2.705   4.737 -1.5893 -0.3022 -2.5045
  839THF     C813252   2.407   2.866   4.629 -0.7131  0.4447  0.4070
  839THF     C913253   2.402   2.813   4.493  0.2636  0.2390 -0.0951
  839THF    H1013254   2.506   2.839   4.678  1.4293  0.0239  1.7588
  839THF    H1113255   2.403   2.974   4.627 -1.9449 -0.2537  1.4175
  839THF    H1213256   2.449   2.881   4.425 -4.1804  0.7841 -1.7766
  839THF    H1313257   2.446   2.714   4.491 -0.9198 -1.4018  0.9972
  840THF     O113258   1.529   2.669   2.741  0.0582  0.0997 -0.0324
  840THF     C213259   1.544   2.531   2.770 -0.1088  0.9260  0.2163
  840THF     C313260   1.439   2.715   2.842  0.5141 -0.4540 -0.1148
  840THF     H413261   1.603   2.517   2.862  0.3476 -0.6545  1.8964
  840THF     H513262   1.600   2.481   2.692  0.2684  2.2471 -0.9137
  840THF     H613263   1.481   2.712   2.943  0.2212  1.5264 -2.6941
  840THF     H713264   1.403   2.813   2.810 -4.9203 -1.5776 -0.7561
  840THF     C813265   1.333   2.604   2.832  0.0133  0.3388 -0.3510
  840THF     C913266   1.404   2.484   2.781 -0.5135  0.4038 -0.2462
  840THF    H1013267   1.239   2.618   2.772  0.2981 -4.0188 -0.4794
  840THF    H1113268   1.309   2.587   2.932 -1.1947 -0.7797 -0.5940
  840THF    H1213269   1.394   2.395   2.843  0.5012  0.4180  0.9157
  840THF    H1313270   1.365   2.443   2.685  0.1680 -3.2731  1.0257
  841THF     O113271   4.575   2.541   5.093 -0.2631 -0.3719 -0.5386
  841THF     C213272   4.681   2.546   5.003  0.5815  0.1303 -0.0762
  841THF     C313273   4.467   2.481   5.022  0.4747  0.7621  0.4715
  841THF     H413274   4.733   2.458   5.002 -1.4519  1.4089  0.0296
  841THF     H513275   4.757   2.622   5.023 -0.8838 -2.0318  1.1165
  841THF     H613276   4.489   2.372   5.011  1.3447 -4.2240  0.1491
  841THF     H713277   4.360   2.481   5.064 -5.1101 -0.5537  0.7045
  841THF     C813278   4.480   2.553   4.884  0.2749  0.4915  0.1986
  841THF     C913279   4.622   2.588   4.874 -0.2751 -0.1092 -0.2648
  841THF    H1013280   4.418   2.644   4.873 -0.2192  1.0088 -1.9236
  841THF    H1113281   4.450   2.482   4.808  2.0126 -0.7892  1.2603
  841THF    H1213282   4.686   2.532   4.800  0.9986 -0.9041  4.1030
  841THF    H1313283   4.640   2.689   4.846  0.7642 -0.0155  1.0163
  842THF     O113284   4.725   0.991   5.381  0.3982 -0.1829  0.2095
  842THF     C213285   4.742   1.090   5.286  0.2412 -0.2370 -0.3128
  842THF     C313286   4.851   0.967   5.439  0.3578  0.5115  0.3342
  842THF     H413287   4.768   1.187   5.334  0.6336  0.9875  0.5830
  842THF     H513288   4.667   1.094   5.210 -1.8574  2.0939 -2.7896
  842THF     H613289   4.892   1.050   5.506 -1.7165  0.7617  0.1041
  842THF     H713290   4.840   0.881   5.499  0.2187  1.5540 -0.5094
  842THF     C813291   4.941   0.950   5.314  0.7990 -0.3618  0.7065
  842THF     C913292   4.873   1.050   5.215 -0.3471  0.2189 -0.1629
  842THF    H1013293   4.923   0.853   5.269 -1.0735  0.6200  0.5345
  842THF    H1113294   5.044   0.952   5.328  1.2265 -2.1616 -0.5676
  842THF    H1213295   4.942   1.132   5.203 -3.3398 -0.4358  0.2140
  842THF    H1313296   4.861   1.004   5.113  2.2309 -1.3392 -0.3691
  843THF     O113297   1.304   4.023   0.514  0.1510  0.2000  0.1828
  843THF     C213298   1.365   3.925   0.425  0.0763  0.5063 -0.2016
  843THF     C313299   1.223   3.945   0.600 -0.3521 -0.3527 -0.4419
  843THF     H413300   1.443   3.874   0.482 -1.0814  0.0681 -1.0090
  843THF     H513301   1.402   3.980   0.340 -0.6874 -1.2135  1.9434
  843THF     H613302   1.296   3.881   0.659 -1.1497 -1.2845  0.4025
  843THF     H713303   1.168   4.007   0.673  0.8076 -0.4363 -1.7938
  843THF     C813304   1.150   3.856   0.498  0.3646  0.0629 -0.2420
  843THF     C913305   1.254   3.834   0.386 -1.1412  0.3118 -0.7470
  843THF    H1013306   1.064   3.913   0.468 -1.7538  1.3485 -0.4465
  843THF    H1113307   1.112   3.761   0.542 -3.2905  0.1003 -1.3543
  843THF    H1213308   1.291   3.729   0.368  1.2560 -2.5926 -1.7757
  843THF    H1313309   1.215   3.876   0.295 -0.4261 -0.3692  0.5247
  844THF     O113310   4.128   0.012   4.176  0.6099  0.1899  0.1181
  844THF     C213311   4.019  -0.076   4.212  0.1361 -0.4970  0.0107
  844THF     C313312   4.228  -0.063   4.115  0.3645  0.0018 -1.0151
  844THF     H413313   3.957  -0.094   4.123 -1.6098 -0.6652 -2.1212
  844THF     H513314   3.948  -0.029   4.279  0.7535 -1.4043  2.1334
  844THF     H613315   4.218  -0.085   4.005  2.0042  0.5095 -3.1106
  844THF     H713316   4.318  -0.002   4.125 -0.4418  0.0793 -0.9972
  844THF     C813317   4.232  -0.192   4.190 -0.5844 -1.0866 -0.2519
  844THF     C913318   4.093  -0.193   4.266 -0.5941 -0.2118  0.4548
  844THF    H1013319   4.319  -0.208   4.257  1.7733 -2.9426 -0.1718
  844THF    H1113320   4.238  -0.272   4.115 -0.9161  0.3237 -0.9353
  844THF    H1213321   4.036  -0.285   4.264 -1.5944  4.2098 -1.0060
  844THF    H1313322   4.104  -0.181   4.371  1.2509 -1.1878 -1.0576
  845THF     O113323   3.366   2.547   1.527  0.5363 -0.1905  0.4678
  845THF     C213324   3.400   2.678   1.489  0.5253  0.0376  0.1549
  845THF     C313325   3.485   2.486   1.567 -0.1021  0.3167 -0.3898
  845THF     H413326   3.432   2.735   1.579  1.3872 -0.2155  1.5566
  845THF     H513327   3.314   2.731   1.448 -1.1921 -2.1435 -0.2362
  845THF     H613328   3.515   2.528   1.662  0.3999 -0.8567 -0.6640
  845THF     H713329   3.478   2.378   1.587  0.0138 -0.7252  1.4001
  845THF     C813330   3.590   2.521   1.457 -0.1056 -0.8169  0.4128
  845THF     C913331   3.514   2.644   1.396 -0.0180  0.7510  0.4144
  845THF    H1013332   3.602   2.451   1.369  0.2624  0.9249 -1.0163
  845THF    H1113333   3.683   2.551   1.507 -1.5603  1.5475  0.0262
  845THF    H1213334   3.586   2.721   1.377 -3.1730 -2.4886  0.6693
  845THF    H1313335   3.478   2.614   1.298 -1.1157  0.8105 -0.6710
  846THF     O113336   0.476   0.090   1.026  0.1715  0.3173 -0.0300
  846THF     C213337   0.408   0.006   1.121 -0.0911 -0.1132 -0.6618
  846THF     C313338   0.376   0.145   0.942 -0.2018 -0.0653 -0.5335
  846THF     H413339   0.465  -0.003   1.210 -1.2842  0.2598  0.8848
  846THF     H513340   0.405  -0.098   1.082 -1.7844  0.1370 -0.2293
  846THF     H613341   0.379   0.253   0.974 -3.1254 -1.3515  0.9241
  846THF     H713342   0.386   0.128   0.839  0.8793  3.0441  0.1602
  846THF     C813343   0.241   0.095   0.991 -0.0976 -0.2132  0.3710
  846THF     C913344   0.266   0.057   1.125 -0.2483  0.3685  0.0117
  846THF    H1013345   0.213   0.006   0.937 -2.5187  1.4984 -1.2951
  846THF    H1113346   0.157   0.163   0.976 -0.8809 -0.4209  1.5400
  846THF    H1213347   0.234   0.126   1.200 -0.7658 -0.9586  1.4133
  846THF    H1313348   0.206  -0.029   1.150  1.1774  0.3035 -1.1739
  847THF     O113349   0.823   2.784   3.422  0.1613 -0.3972 -0.2578
  847THF     C213350   0.716   2.751   3.514 -0.4634 -0.5274 -0.2622
  847THF     C313351   0.862   2.920   3.455  0.8612  0.1224  0.0199
  847THF     H413352   0.754   2.744   3.617  0.6397  0.8931 -0.2740
  847THF     H513353   0.659   2.658   3.482 -0.9358 -2.0660 -2.0990
  847THF     H613354   0.942   2.905   3.535  0.0329  2.4645  1.9835
  847THF     H713355   0.899   2.980   3.369  0.1456  0.5228 -1.6324
  847THF     C813356   0.737   2.984   3.530 -0.2554  0.1698  0.3427
  847THF     C913357   0.630   2.870   3.525  0.7320 -1.1735 -0.1594
  847THF    H1013358   0.705   3.064   3.464 -0.1380 -1.5526 -0.7598
  847THF    H1113359   0.755   3.015   3.635 -0.2280  0.7476  4.4661
  847THF    H1213360   0.554   2.884   3.609  2.2702 -1.0268  1.1187
  847THF    H1313361   0.573   2.887   3.435 -0.4425  1.0883  0.3828
  848THF     O113362   4.205   4.479   4.564  0.4210 -0.7230  0.1000
  848THF     C213363   4.174   4.346   4.527  0.3403  0.2321 -0.0598
  848THF     C313364   4.100   4.515   4.657 -0.1724 -0.6246  0.1119
  848THF     H413365   4.258   4.300   4.471  3.2951  2.9556 -1.5736
  848THF     H513366   4.094   4.357   4.458  0.5293  0.6614 -0.3823
  848THF     H613367   4.115   4.612   4.700  1.5381 -0.3215 -0.3241
  848THF     H713368   4.006   4.538   4.604  0.7767  1.5608  0.4372
  848THF     C813369   4.090   4.396   4.749  0.4159 -0.4451  0.4143
  848THF     C913370   4.132   4.281   4.660 -0.2684  0.4196 -0.1090
  848THF    H1013371   3.992   4.380   4.786  3.0489 -0.1778 -1.4551
  848THF    H1113372   4.162   4.404   4.830 -0.2906 -0.2433 -0.2929
  848THF    H1213373   4.222   4.242   4.705  1.9114  1.2478 -3.6073
  848THF    H1313374   4.051   4.208   4.637 -1.1515  1.7783  1.5001
  849THF     O113375   2.807   3.330   1.078  0.4887 -0.1277 -0.6418
  849THF     C213376   2.842   3.193   1.078 -0.4021  0.6174  0.4767
  849THF     C313377   2.737   3.357   0.961  0.6058 -0.5277 -0.6575
  849THF     H413378   2.753   3.152   1.118  3.2576  2.0716 -0.0120
  849THF     H513379   2.931   3.184   1.142 -0.8604  1.3148 -1.7242
  849THF     H613380   2.628   3.343   0.969  1.8963 -1.3425 -0.5018
  849THF     H713381   2.749   3.455   0.915  0.4593  0.4567 -1.9196
  849THF     C813382   2.778   3.244   0.868 -0.6761 -0.5039 -0.7668
  849THF     C913383   2.865   3.149   0.938 -0.3899  0.1971  0.4434
  849THF    H1013384   2.825   3.281   0.783  0.3008  0.2900  0.2387
  849THF    H1113385   2.692   3.197   0.832  0.1804  1.2000  1.7165
  849THF    H1213386   2.820   3.050   0.936 -0.9025  0.8053  0.5699
  849THF    H1313387   2.969   3.146   0.904  0.6076 -2.2329  0.8327
  850THF     O113388   0.072   3.006   5.446  0.0432  0.3905 -0.9472
  850THF     C213389   0.095   2.870   5.466 -0.7208  0.2774 -0.2867
  850THF     C313390  -0.063   3.015   5.408  0.6492 -0.3079 -0.2378
  850THF     H413391   0.188   2.852   5.511  0.4276  0.8716 -0.4336
  850THF     H513392   0.103   2.805   5.381 -0.0205 -0.5672  0.7099
  850THF     H613393  -0.107   3.114   5.429 -1.0331 -3.2000 -0.1207
  850THF     H713394  -0.058   2.984   5.305 -0.0224 -1.0564 -0.6860
  850THF     C813395  -0.129   2.906   5.490  0.6414 -0.6610  0.2869
  850THF     C913396  -0.020   2.821   5.548  0.5166  0.4335 -0.2758
  850THF    H1013397  -0.193   2.843   5.429 -2.5862 -1.6993 -0.1493
  850THF    H1113398  -0.184   2.958   5.567 -0.0529  2.2147  0.0562
  850THF    H1213399  -0.015   2.842   5.658 -0.1601 -0.3240 -0.0563
  850THF    H1313400  -0.034   2.712   5.533 -0.0747  1.4745 -0.3906
  851THF     O113401   5.392   2.532   3.236  0.0274 -0.7077  0.1216
  851THF     C213402   5.373   2.673   3.221 -0.4288 -0.1948  0.0427
  851THF     C313403   5.273   2.470   3.181 -0.3663 -0.1130 -0.4938
  851THF     H413404   5.479   2.713   3.210  3.3692 -2.5555  1.2052
  851THF     H513405   5.349   2.719   3.314  1.7063  0.5327 -1.7059
  851THF     H613406   5.291   2.369   3.157 -2.4708  2.2735  2.5535
  851THF     H713407   5.194   2.470   3.258 -1.3598  0.7083 -0.2032
  851THF     C813408   5.231   2.556   3.066 -0.1689 -0.4233  0.2586
  851THF     C913409   5.268   2.696   3.111 -0.3765  0.1036  0.6326
  851THF    H1013410   5.124   2.542   3.044 -0.2081  0.1320  3.3270
  851THF    H1113411   5.286   2.517   2.980  0.6083 -0.8163 -0.1703
  851THF    H1213412   5.316   2.754   3.034 -1.2858  0.9163 -0.7392
  851THF    H1313413   5.181   2.740   3.151  0.6564 -1.2314 -1.1211
  852THF     O113414   0.702   4.158   1.838 -0.2638  0.6315  0.5312
  852THF     C213415   0.642   4.092   1.947 -0.8002 -0.3798 -0.3638
  852THF     C313416   0.687   4.298   1.857 -0.2336 -0.2615  0.0443
  852THF     H413417   0.700   4.097   2.045 -0.9795  0.7751  2.7206
  852THF     H513418   0.620   3.988   1.921  1.8031 -0.5462 -1.0146
  852THF     H613419   0.751   4.336   1.942  2.7778 -1.4954 -1.5638
  852THF     H713420   0.707   4.366   1.778  1.7035  1.2315 -0.6589
  852THF     C813421   0.542   4.312   1.902  0.2633 -0.3060 -0.3569
  852THF     C913422   0.508   4.168   1.960 -0.5250  0.5255 -0.4640
  852THF    H1013423   0.478   4.323   1.814  1.0196  0.8920 -0.5697
  852THF    H1113424   0.528   4.397   1.966  2.5956  0.7423 -0.8836
  852THF    H1213425   0.465   4.174   2.062 -1.0118  0.8627  0.2361
  852THF    H1313426   0.430   4.123   1.895 -0.5133 -1.0658  1.5686
  853THF     O113427   1.926   0.074   4.617 -0.1390  0.3514 -0.3961
  853THF     C213428   1.985  -0.030   4.693 -0.0567 -0.3374 -0.4394
  853THF     C313429   1.830   0.137   4.705 -0.2140  0.2987  0.0993
  853THF     H413430   2.092  -0.038   4.672  1.5379 -2.2434 -1.1845
  853THF     H513431   1.939  -0.123   4.671  3.1902  0.2897  0.3084
  853THF     H613432   1.788   0.229   4.663  0.6672 -1.4408 -1.0168
  853THF     H713433   1.740   0.077   4.714 -0.8235  1.7801 -1.1192
  853THF     C813434   1.908   0.144   4.835  0.5732 -0.0985  0.2629
  853THF     C913435   1.970   0.013   4.840  0.0139 -0.6415 -0.2401
  853THF    H1013436   1.840   0.171   4.925  0.7482 -0.3195  1.9782
  853THF    H1113437   1.977   0.227   4.832  3.6351 -0.0171 -0.1004
  853THF    H1213438   2.070   0.017   4.882  1.3003 -1.0322 -0.7531
  853THF    H1313439   1.921  -0.061   4.899 -2.5816  2.2566 -0.8792
  854THF     O113440   4.916   4.911   1.516 -0.4093 -0.1762 -0.5396
  854THF     C213441   4.819   4.894   1.418  0.3982 -0.4861  0.3950
  854THF     C313442   4.943   5.048   1.528 -0.1979  0.3139 -0.4042
  854THF     H413443   4.805   4.790   1.401  0.8443 -2.2425 -0.9770
  854THF     H513444   4.849   4.933   1.316  0.8823 -2.8064 -1.7022
  854THF     H613445   5.009   5.068   1.612 -0.4257  0.7713 -1.9508
  854THF     H713446   4.991   5.079   1.434 -1.2610 -4.3891 -2.7472
  854THF     C813447   4.791   5.091   1.548 -0.5567  0.1999  0.1146
  854THF     C913448   4.711   4.981   1.473  0.6310  0.7777  0.1691
  854THF    H1013449   4.768   5.194   1.510 -2.1504  1.5902  3.2249
  854THF    H1113450   4.758   5.100   1.649 -2.1406  3.0808 -0.3384
  854THF    H1213451   4.646   4.929   1.543 -1.6559 -0.7582  3.1585
  854THF    H1313452   4.642   5.019   1.398  1.0751  0.4110 -1.6641
  855THF     O113453   5.413   0.085   2.798 -0.3228  0.1639 -0.0564
  855THF     C213454   5.460  -0.019   2.719 -0.0888 -0.1571  0.3307
  855THF     C313455   5.275   0.075   2.791 -0.4606  0.7583  0.3429
  855THF     H413456   5.569  -0.031   2.730 -0.3235 -3.4920 -1.3123
  855THF     H513457   5.439   0.016   2.619  0.4165  0.8403  0.9942
  855THF     H613458   5.215   0.130   2.863  0.6401 -1.1410 -0.5882
  855THF     H713459   5.245   0.123   2.687  2.8498  2.5384 -2.2836
  855THF     C813460   5.239  -0.073   2.789  0.0200  0.6041 -0.2302
  855THF     C913461   5.374  -0.139   2.762  0.1796 -0.9708 -1.1270
  855THF    H1013462   5.179  -0.100   2.704 -2.3320 -0.2875 -1.3161
  855THF    H1113463   5.182  -0.101   2.882 -1.6761  0.3108  1.0872
  855THF    H1213464   5.419  -0.195   2.848 -1.0438 -0.0592 -0.5978
  855THF    H1313465   5.360  -0.199   2.673 -2.1402 -2.7381  1.8786
  856THF     O113466   0.452   5.025   0.039  0.5052 -0.5612 -0.0319
  856THF     C213467   0.508   5.152   0.085  0.1732 -0.0630  0.7362
  856THF     C313468   0.555   4.977  -0.045 -0.0870  0.3228 -0.3917
  856THF     H413469   0.445   5.186   0.167  0.2259  0.1165  0.4737
  856THF     H513470   0.519   5.223   0.009  1.0446 -0.2820  0.1662
  856THF     H613471   0.529   4.872  -0.065 -1.8078 -1.7522 -0.4851
  856THF     H713472   0.552   5.035  -0.145  1.2821  2.7084  0.1367
  856THF     C813473   0.685   4.993   0.036  0.2152 -0.0521  0.1428
  856THF     C913474   0.652   5.110   0.131 -0.5456 -0.6667  0.4668
  856THF    H1013475   0.774   5.012  -0.017 -1.2007  2.9684  0.9665
  856THF    H1113476   0.707   4.904   0.096 -4.2123  2.2733  0.6265
  856THF    H1213477   0.660   5.085   0.236 -1.6943 -0.1754 -0.3199
  856THF    H1313478   0.717   5.194   0.100 -1.0018  2.7784  1.5412
  857THF     O113479   4.802   5.268   3.981  0.1771 -0.4728  0.2473
  857THF     C213480   4.839   5.398   4.023  0.0101 -0.1159 -0.5978
  857THF     C313481   4.836   5.255   3.841  0.1822  0.5689  0.4101
  857THF     H413482   4.942   5.396   4.055  1.1646  0.0032  1.8595
  857THF     H513483   4.776   5.434   4.108 -2.1062 -0.8746  0.9930
  857THF     H613484   4.937   5.218   3.825 -0.7114 -0.1654  0.7662
  857THF     H713485   4.766   5.178   3.802 -2.3105 -0.3951  0.2871
  857THF     C813486   4.806   5.391   3.782  0.6096 -0.4809  0.2030
  857THF     C913487   4.797   5.485   3.902  0.2854 -0.9115  0.4453
  857THF    H1013488   4.712   5.389   3.722  3.5509 -0.6461 -2.2295
  857THF    H1113489   4.890   5.426   3.725 -0.0938 -1.6860  2.5237
  857THF    H1213490   4.850   5.578   3.885 -3.6606 -0.3514 -1.1394
  857THF    H1313491   4.695   5.513   3.920  0.7320 -0.3112  1.6073
  858THF     O113492   4.995   3.244   4.731 -0.2856  0.4259 -0.4607
  858THF     C213493   5.137   3.260   4.733 -0.6520 -0.1911 -0.2378
  858THF     C313494   4.960   3.216   4.596  0.2694 -0.0228  0.5262
  858THF     H413495   5.184   3.158   4.725  3.0036 -0.8430 -0.5067
  858THF     H513496   5.170   3.306   4.823 -1.7421  0.9439  0.5174
  858THF     H613497   4.935   3.110   4.582  0.8948 -2.4030  1.0043
  858THF     H713498   4.868   3.275   4.568 -2.0472 -1.2057 -0.1056
  858THF     C813499   5.079   3.269   4.510 -0.0146  0.1934  0.3853
  858THF     C913500   5.166   3.341   4.608  0.2975 -0.4333 -0.3881
  858THF    H1013501   5.041   3.322   4.429 -1.2193 -4.2970  2.3151
  858THF    H1113502   5.144   3.185   4.462 -2.1974 -1.6056 -2.1737
  858THF    H1213503   5.272   3.337   4.574  0.5644  1.5451 -0.0530
  858THF    H1313504   5.144   3.445   4.616  0.6181  0.2656 -0.7208
  859THF     O113505   0.613   5.459   5.248  0.3168 -0.0939  0.3917
  859THF     C213506   0.556   5.331   5.214  0.3258  0.2425  0.4767
  859THF     C313507   0.551   5.561   5.178 -0.0352 -0.3007  0.4418
  859THF     H413508   0.464   5.321   5.279  1.1933  0.9418 -0.9579
  859THF     H513509   0.636   5.256   5.245  0.9149 -1.1427 -1.0682
  859THF     H613510   0.465   5.598   5.230 -0.2447  0.2192  0.1942
  859THF     H713511   0.618   5.641   5.181  0.0235  0.0268  2.2851
  859THF     C813512   0.519   5.491   5.044  0.1603  0.1810  0.6341
  859THF     C913513   0.520   5.338   5.064 -0.6783  0.2238  0.2764
  859THF    H1013514   0.589   5.520   4.966  0.1664  0.9871 -2.2718
  859THF    H1113515   0.420   5.526   5.014 -0.2461  0.0898  0.7568
  859THF    H1213516   0.424   5.283   5.040 -1.9274 -0.4336  3.0523
  859THF    H1313517   0.608   5.290   5.010  0.1826 -2.7307 -1.8793
  860THF     O113518   2.502   4.571   4.907 -0.3402 -0.2017 -1.1858
  860THF     C213519   2.521   4.680   4.815 -0.1935 -0.3372  0.4591
  860THF     C313520   2.570   4.450   4.863 -1.1167  0.4378 -0.6285
  860THF     H413521   2.553   4.773   4.860  0.7684 -0.8705 -1.1354
  860THF     H513522   2.429   4.686   4.760  4.6273 -2.2742 -1.8094
  860THF     H613523   2.661   4.430   4.925 -2.0448  0.9481  1.7941
  860THF     H713524   2.512   4.362   4.858 -1.0116  1.6382  0.9044
  860THF     C813525   2.602   4.479   4.724  0.5363  0.5644 -0.2271
  860THF     C913526   2.625   4.626   4.714 -0.9226 -0.1902 -0.1435
  860THF    H1013527   2.522   4.448   4.661 -0.1290  0.1259 -0.2112
  860THF    H1113528   2.689   4.423   4.694 -1.9416  0.9029  1.1649
  860THF    H1213529   2.724   4.650   4.753  0.1204  1.3692 -2.4287
  860THF    H1313530   2.627   4.670   4.615 -2.2281 -0.0762 -0.5905
  861THF     O113531   4.608   4.639   1.560 -0.1116  0.3740 -0.2577
  861THF     C213532   4.484   4.648   1.501  0.4974  0.3030  0.6524
  861THF     C313533   4.652   4.505   1.538  0.8058 -0.0810 -1.2421
  861THF     H413534   4.435   4.747   1.493  0.3054 -0.4820  2.4750
  861THF     H513535   4.421   4.572   1.539  0.4342  0.3680  1.3555
  861THF     H613536   4.760   4.490   1.544  0.0471 -0.8815 -1.8741
  861THF     H713537   4.597   4.437   1.605 -0.1344  1.3099  1.0846
  861THF     C813538   4.610   4.473   1.394 -0.5710 -0.2189  0.2555
  861THF     C913539   4.513   4.588   1.364 -0.4965 -0.3969 -0.0087
  861THF    H1013540   4.568   4.372   1.398  0.2872  0.2666 -0.1488
  861THF    H1113541   4.698   4.475   1.337  0.5990  1.6933  2.6830
  861THF    H1213542   4.569   4.667   1.305  0.7564  0.0244  0.1572
  861THF    H1313543   4.432   4.554   1.299  1.4930  0.7724 -0.2328
  862THF     O113544   2.314   4.074   0.327 -0.8563 -0.0537  0.4328
  862THF     C213545   2.414   3.990   0.266 -0.1045  0.4300  0.7529
  862THF     C313546   2.387   4.184   0.384 -0.6299  0.2515 -0.0379
  862THF     H413547   2.416   4.036   0.161  0.1869  2.4100 -0.3891
  862THF     H513548   2.378   3.886   0.256 -1.0908 -2.4302 -0.4345
  862THF     H613549   2.425   4.249   0.307 -0.5864 -1.4721 -0.1069
  862THF     H713550   2.342   4.239   0.465 -0.1234  1.1099 -1.2507
  862THF     C813551   2.516   4.121   0.435 -0.0355  0.0910  0.5938
  862THF     C913552   2.541   4.008   0.336 -0.2402  1.1950 -0.4445
  862THF    H1013553   2.505   4.082   0.538  0.4994  0.3340  0.3658
  862THF    H1113554   2.591   4.194   0.441  0.5038  0.8222 -0.7171
  862THF    H1213555   2.618   4.033   0.262 -0.3643  2.6155  2.8075
  862THF    H1313556   2.577   3.911   0.385 -1.5267  0.1254  0.5458
  863THF     O113557   2.386   2.177   2.835  0.1563 -0.2777 -0.1836
  863THF     C213558   2.282   2.153   2.933 -0.3458 -1.0732 -0.1784
  863THF     C313559   2.340   2.114   2.714 -0.1674 -0.5070  0.0275
  863THF     H413560   2.282   2.225   3.016 -2.7084 -3.2810  0.3087
  863THF     H513561   2.285   2.056   2.983  1.1222 -0.9951 -0.8816
  863THF     H613562   2.390   2.155   2.626  1.1147 -1.5828  1.4462
  863THF     H713563   2.361   2.008   2.724  0.0295  0.0648 -1.3094
  863THF     C813564   2.191   2.153   2.708 -0.0303 -0.1695  0.2754
  863THF     C913565   2.150   2.166   2.853 -0.2640 -0.5984 -0.5919
  863THF    H1013566   2.134   2.084   2.650 -0.8591 -1.5232 -1.8888
  863THF    H1113567   2.190   2.254   2.667 -0.1882 -1.1200  0.1842
  863THF    H1213568   2.106   2.269   2.869  0.2770  0.6881 -1.9394
  863THF    H1313569   2.078   2.095   2.887  1.3900  0.5125 -2.7895
  864THF     O113570   4.939   4.213   0.728  0.2469 -0.5634 -0.0721
  864THF     C213571   4.960   4.136   0.606 -0.0351  0.0082 -0.0230
  864THF     C313572   4.802   4.238   0.738  0.2251  0.6624 -0.2816
  864THF     H413573   5.062   4.101   0.604  0.3393  0.7141  1.3343
  864THF     H513574   4.949   4.198   0.518  1.4748  1.5908  0.1074
  864THF     H613575   4.775   4.254   0.844 -3.7026 -2.1629 -3.0256
  864THF     H713576   4.764   4.317   0.671  3.0501  0.7809 -2.8072
  864THF     C813577   4.736   4.105   0.693 -0.6117  0.2125  0.3881
  864THF     C913578   4.855   4.027   0.626  1.1238 -0.3312  0.4167
  864THF    H1013579   4.657   4.124   0.622  0.9762  0.2872  1.9557
  864THF    H1113580   4.698   4.042   0.768  2.2999 -0.1741 -0.3240
  864THF    H1213581   4.902   3.956   0.692  1.5786 -0.6719 -1.2792
  864THF    H1313582   4.818   3.972   0.540 -1.6434  0.8177  1.5311
  865THF     O113583   1.458   3.750   2.324 -0.2030 -0.4252 -0.0788
  865THF     C213584   1.472   3.786   2.186  0.2723  0.2584  0.1990
  865THF     C313585   1.565   3.668   2.361  0.5230 -0.0320  0.7503
  865THF     H413586   1.423   3.876   2.147 -0.4459  0.5864  0.0143
  865THF     H513587   1.431   3.700   2.131 -2.8737 -1.1154 -0.9844
  865THF     H613588   1.587   3.665   2.466  0.5361  1.1847 -1.5008
  865THF     H713589   1.540   3.563   2.329 -0.2612 -0.7419  2.2734
  865THF     C813590   1.684   3.732   2.294  0.2767  0.5138 -0.1271
  865THF     C913591   1.620   3.798   2.175  0.1525  0.4117  0.0242
  865THF    H1013592   1.761   3.660   2.271  1.3698 -0.1308  2.0952
  865THF    H1113593   1.728   3.800   2.368  2.2565  0.2266  0.9614
  865THF    H1213594   1.656   3.904   2.175  2.5983  0.6327 -0.5036
  865THF    H1313595   1.646   3.756   2.078  0.7228 -0.9050 -2.9924
  866THF     O113596   2.804   4.212   5.283 -0.0676  0.5938  0.3356
  866THF     C213597   2.749   4.287   5.184  0.6702 -0.9559 -0.2239
  866THF     C313598   2.742   4.084   5.297  0.3111 -0.8250  0.4975
  866THF     H413599   2.808   4.243   5.104 -0.2924  1.9000  1.3960
  866THF     H513600   2.764   4.394   5.193  2.6732  1.2896 -2.5109
  866THF     H613601   2.799   3.992   5.265 -0.5166  0.5025  1.4256
  866THF     H713602   2.733   4.065   5.401 -2.0087 -1.8363 -0.5321
  866THF     C813603   2.610   4.089   5.219  0.4650 -0.2403 -0.2363
  866THF     C913604   2.601   4.244   5.182 -0.6872  0.8104 -0.6417
  866THF    H1013605   2.521   4.052   5.276  0.2519 -0.1876 -1.7188
  866THF    H1113606   2.624   4.041   5.116 -1.1736  2.7819 -0.0196
  866THF    H1213607   2.555   4.272   5.082  0.8107 -1.3086 -0.7547
  866THF    H1313608   2.544   4.308   5.247 -1.1923  0.2195  0.2549
  867THF     O113609   2.959   4.866   4.643 -0.1273  0.6645 -0.0341
  867THF     C213610   2.898   4.981   4.589  0.2454  0.2369  0.6079
  867THF     C313611   3.021   4.905   4.762  0.2335 -0.0596 -0.4363
  867THF     H413612   2.822   4.961   4.515 -0.4399 -2.8360  0.0513
  867THF     H513613   2.968   5.046   4.539  1.2028 -1.4307  0.9866
  867THF     H613614   3.050   4.816   4.825  2.0687  0.7858  1.4897
  867THF     H713615   3.104   4.974   4.738  0.6352  1.5701  1.7088
  867THF     C813616   2.915   4.995   4.830 -0.4820 -0.0860 -0.1524
  867THF     C913617   2.832   5.044   4.713  0.0016  0.0629 -0.0408
  867THF    H1013618   2.961   5.068   4.895  0.1044  0.3866 -2.5529
  867THF    H1113619   2.850   4.944   4.891  1.6996  2.7876 -0.1785
  867THF    H1213620   2.735   5.016   4.726  0.1257  0.7988 -1.4651
  867THF    H1313621   2.821   5.158   4.702  0.5640  2.8795  0.5980
  868THF     O113622   3.254   3.930   2.798 -0.1802  0.5327 -0.1838
  868THF     C213623   3.276   3.964   2.663 -0.6410  0.0582  0.0429
  868THF     C313624   3.378   3.937   2.867  0.2650  0.2707  0.5402
  868THF     H413625   3.178   3.984   2.618  0.6193 -0.0516 -0.2213
  868THF     H513626   3.328   3.882   2.608 -0.7576  1.7237 -0.0873
  868THF     H613627   3.373   3.945   2.974  3.3861  0.7332 -3.2117
  868THF     H713628   3.449   3.854   2.840 -0.7655  1.3205  2.4207
  868THF     C813629   3.427   4.069   2.821 -0.2384 -0.0995  0.0565
  868THF     C913630   3.375   4.084   2.676 -0.3690  0.0147  1.0075
  868THF    H1013631   3.532   4.094   2.830 -2.6586  2.0833 -0.9305
  868THF    H1113632   3.388   4.152   2.876 -0.0205  0.8439  0.6192
  868THF    H1213633   3.331   4.181   2.651  4.1555  1.4624 -2.8826
  868THF    H1313634   3.454   4.061   2.606 -0.0592  0.7292 -0.0340
  869THF     O113635   3.705   2.715   1.068  0.4608 -1.1185 -0.1643
  869THF     C213636   3.645   2.764   0.948  0.2127 -0.0886 -0.0777
  869THF     C313637   3.819   2.795   1.100  0.7417 -0.0932  0.1841
  869THF     H413638   3.583   2.852   0.965  0.7584  1.2363 -1.0464
  869THF     H513639   3.582   2.676   0.910  0.0760  0.9731  2.1182
  869THF     H613640   3.785   2.877   1.158  1.9089  0.8860  0.9188
  869THF     H713641   3.881   2.737   1.158 -2.3998  1.8563 -3.0014
  869THF     C813642   3.884   2.831   0.970 -0.4334 -0.2721  0.1086
  869THF     C913643   3.773   2.809   0.871  0.4487  0.4132  0.1075
  869THF    H1013644   3.963   2.750   0.951  0.1316  0.5801  0.3442
  869THF    H1113645   3.914   2.934   0.976  0.4626 -1.3649  2.2685
  869THF    H1213646   3.759   2.903   0.815  0.5506  1.5360 -0.3060
  869THF    H1313647   3.807   2.733   0.805 -2.3511 -2.0780  0.9890
  870THF     O113648   2.722   2.601   0.641  0.0692 -0.2502 -0.1189
  870THF     C213649   2.715   2.676   0.761  0.8110 -0.5794 -0.9763
  870THF     C313650   2.627   2.490   0.652  0.2579 -0.4684  0.1416
  870THF     H413651   2.627   2.742   0.745  1.8307 -3.0705  0.8966
  870THF     H513652   2.797   2.755   0.784 -0.0194  0.3281  2.4646
  870THF     H613653   2.538   2.516   0.592 -0.8731 -1.5305 -0.2958
  870THF     H713654   2.667   2.402   0.608 -0.3297  1.7223  0.5963
  870THF     C813655   2.595   2.476   0.800  0.2674  0.2159 -0.1348
  870THF     C913656   2.683   2.570   0.866  1.5599 -0.6480 -1.0346
  870THF    H1013657   2.613   2.376   0.835  2.7974  0.1654 -4.1883
  870THF    H1113658   2.488   2.498   0.807  0.2793  1.2598  0.0676
  870THF    H1213659   2.637   2.602   0.954 -4.3648  2.0107  1.4519
  870THF    H1313660   2.779   2.535   0.901  1.2547 -0.0735  0.7203
  871THF     O113661   1.296   1.315   2.374 -0.5917 -0.5287  0.1144
  871THF     C213662   1.407   1.402   2.420  1.1673  0.6635  0.8553
  871THF     C313663   1.217   1.386   2.283 -0.5818  1.1068  0.2600
  871THF     H413664   1.494   1.355   2.457 -0.6789 -0.6849 -0.7977
  871THF     H513665   1.365   1.467   2.494 -0.1396 -0.3820  0.4948
  871THF     H613666   1.206   1.320   2.198 -0.3892 -0.2871  1.6432
  871THF     H713667   1.114   1.410   2.321 -1.6101  1.3924 -0.2985
  871THF     C813668   1.293   1.512   2.245  0.8374  0.3023 -0.0633
  871THF     C913669   1.433   1.486   2.297 -0.2204  0.9890  0.4766
  871THF    H1013670   1.239   1.589   2.294  0.2770 -1.6471  1.2240
  871THF    H1113671   1.290   1.532   2.137  0.1320  1.8934 -2.5754
  871THF    H1213672   1.489   1.434   2.214 -0.2125 -1.2531 -1.9199
  871THF    H1313673   1.470   1.581   2.328  1.0266 -2.2209 -0.4086
  872THF     O113674   5.220   1.481   0.882  0.3312  0.6360 -0.1309
  872THF     C213675   5.110   1.479   0.968  0.3610  1.0989 -0.3211
  872THF     C313676   5.255   1.615   0.841 -0.3136  1.0426 -0.0141
  872THF     H413677   5.137   1.511   1.067  0.9617 -0.6687  1.0003
  872THF     H513678   5.069   1.374   0.974 -0.3098 -2.0089  2.5709
  872THF     H613679   5.314   1.661   0.916 -1.1801 -1.5195  0.9785
  872THF     H713680   5.317   1.614   0.755 -1.5466 -3.2568  1.5599
  872THF     C813681   5.121   1.665   0.820 -0.0862 -0.5318  0.4361
  872THF     C913682   5.020   1.578   0.899 -0.4926  0.0863  0.6116
  872THF    H1013683   5.098   1.652   0.713  0.6724 -2.8682 -0.4247
  872THF    H1113684   5.113   1.777   0.826  2.1931 -0.0016 -0.0188
  872THF    H1213685   4.975   1.661   0.955 -0.1370  1.3833  0.3394
  872THF    H1313686   4.959   1.535   0.817  0.2224  0.4622  1.9358
  873THF     O113687   3.863   1.856   4.940 -0.3588  0.0970  0.1120
  873THF     C213688   3.727   1.852   4.998 -0.1618 -0.0409  0.4262
  873THF     C313689   3.906   1.991   4.920  0.4553  0.3405 -0.2673
  873THF     H413690   3.743   1.848   5.110  1.6499  2.9407  0.7726
  873THF     H513691   3.661   1.776   4.965  0.3140  3.3749  0.9965
  873THF     H613692   4.001   2.007   4.972 -0.1069 -3.8366  2.1376
  873THF     H713693   3.918   2.019   4.813 -2.1315  2.5131 -0.8489
  873THF     C813694   3.793   2.075   4.974  0.5369  0.1194 -0.1411
  873THF     C913695   3.668   1.985   4.961  0.0983  0.3092  0.3996
  873THF    H1013696   3.795   2.181   4.934 -1.1962 -1.0166 -0.1984
  873THF    H1113697   3.796   2.085   5.088 -0.0016  2.9290  0.3348
  873THF    H1213698   3.583   2.005   5.020 -0.2755  1.8782  1.6872
  873THF    H1313699   3.630   1.980   4.851 -0.1391 -0.0144 -0.4412
  874THF     O113700   1.902   1.077   1.765 -0.8965  0.1931 -0.3348
  874THF     C213701   1.930   1.100   1.902 -0.0067 -0.3194 -0.5185
  874THF     C313702   1.766   1.099   1.753 -0.5770  0.2192 -0.2939
  874THF     H413703   2.034   1.128   1.905  0.6950 -3.5722 -0.3920
  874THF     H513704   1.916   1.006   1.957  0.5327 -0.5844 -1.8849
  874THF     H613705   1.726   1.114   1.654 -0.8161 -1.3411 -0.8869
  874THF     H713706   1.728   1.005   1.791  0.1791 -1.1324 -1.9449
  874THF     C813707   1.727   1.214   1.853 -0.4030  0.2127  0.5807
  874THF     C913708   1.833   1.210   1.961  1.6182  0.4355  0.4087
  874THF    H1013709   1.626   1.211   1.894 -0.5083 -1.6844 -0.5046
  874THF    H1113710   1.730   1.309   1.788  0.6057  1.5962  0.1026
  874THF    H1213711   1.885   1.303   1.969 -1.1922 -2.2376 -0.4181
  874THF    H1313712   1.788   1.180   2.057 -1.6935 -0.6299 -1.0047
  875THF     O113713   3.706   2.088   2.915  0.4015  0.1639 -0.0436
  875THF     C213714   3.737   2.047   2.782 -0.6967  0.5285 -0.6071
  875THF     C313715   3.783   2.206   2.937 -0.3578  0.5505 -0.4392
  875THF     H413716   3.653   2.090   2.726 -0.5566  0.0736  0.0979
  875THF     H513717   3.748   1.941   2.761  2.0508 -1.9420 -2.9979
  875THF     H613718   3.725   2.292   2.964 -1.7923  1.6382 -0.8516
  875THF     H713719   3.853   2.184   3.021 -1.6677  0.7658 -1.5018
  875THF     C813720   3.850   2.244   2.806  0.0531 -0.6649 -0.0547
  875THF     C913721   3.874   2.111   2.742 -0.0741  0.2855  0.3444
  875THF    H1013722   3.939   2.310   2.816  1.5964  1.4261 -3.4277
  875THF    H1113723   3.780   2.307   2.740  0.6706  1.6684 -2.1627
  875THF    H1213724   3.871   2.100   2.632  0.3880 -0.9892 -0.8001
  875THF    H1313725   3.964   2.066   2.781  0.8875  1.8322  1.9144
  876THF     O113726   4.222   5.048   2.207 -1.3536 -0.2822 -0.0724
  876THF     C213727   4.183   5.128   2.310  0.4295  0.1567 -0.6668
  876THF     C313728   4.107   4.979   2.164 -0.5831 -0.2769  0.7575
  876THF     H413729   4.263   5.200   2.337  4.6306 -0.0092  1.0288
  876THF     H513730   4.151   5.085   2.406 -2.9325  0.0710 -0.8920
  876THF     H613731   4.123   4.956   2.065  1.7305 -1.6601  2.7128
  876THF     H713732   4.107   4.893   2.225 -3.0681  2.3301 -1.0044
  876THF     C813733   3.988   5.075   2.189  0.9771  0.5294  0.0212
  876THF     C913734   4.054   5.195   2.252 -0.0899 -0.1856  0.0756
  876THF    H1013735   3.908   5.024   2.249 -2.1029 -3.0957  0.8277
  876THF    H1113736   3.934   5.106   2.101  0.3270  1.9373 -0.6277
  876THF    H1213737   4.073   5.275   2.182  1.8131  0.5493 -1.0723
  876THF    H1313738   3.995   5.241   2.330  1.7244  2.2521  1.5656
  877THF     O113739   0.430   1.808   3.289  0.3986 -0.2334 -0.4603
  877THF     C213740   0.287   1.799   3.277 -0.6143 -0.1935  0.1852
  877THF     C313741   0.468   1.834   3.423 -0.1518 -0.6465  0.4907
  877THF     H413742   0.251   1.709   3.224  1.9997 -3.1334  0.3517
  877THF     H513743   0.260   1.888   3.223  0.1292 -1.2901  0.2015
  877THF     H613744   0.520   1.748   3.469 -2.9018 -0.6270 -2.1302
  877THF     H713745   0.543   1.918   3.422 -3.3473 -0.4444  0.5152
  877THF     C813746   0.344   1.864   3.500  1.3586 -0.1919  0.1250
  877THF     C913747   0.234   1.797   3.422  0.6593  0.3390  0.6147
  877THF    H1013748   0.322   1.969   3.502 -2.4467 -0.7679 -0.0197
  877THF    H1113749   0.351   1.822   3.607  0.5478 -1.1924  2.8117
  877THF    H1213750   0.232   1.689   3.449  3.4285 -0.8017 -1.2094
  877THF    H1313751   0.132   1.838   3.443  0.5382 -3.2019  0.8317
  878THF     O113752   2.413   1.229   5.380 -0.3320  0.2938  0.0860
  878THF     C213753   2.544   1.276   5.373  0.1589 -0.3240  0.5643
  878THF     C313754   2.394   1.113   5.298 -0.3708 -0.1561  0.3697
  878THF     H413755   2.587   1.273   5.476 -0.4635  1.0406 -0.1933
  878THF     H513756   2.547   1.380   5.359  1.0902 -2.8708 -0.1589
  878THF     H613757   2.331   1.038   5.346 -0.9390 -0.0962 -1.2656
  878THF     H713758   2.338   1.151   5.213 -1.9492 -3.2969 -1.2408
  878THF     C813759   2.540   1.067   5.277 -0.0756 -1.0228 -0.3183
  878THF     C913760   2.614   1.197   5.263 -0.3516  0.3279 -0.1403
  878THF    H1013761   2.559   1.011   5.187  1.0448  2.2095  1.8233
  878THF    H1113762   2.583   1.008   5.359 -1.1172  2.6928  0.8639
  878THF    H1213763   2.724   1.181   5.274  1.5832  0.2014 -3.8388
  878THF    H1313764   2.592   1.241   5.162 -0.0633  2.9820  1.2996
  879THF     O113765   0.741   4.084   0.467  0.2721  0.0372 -0.8675
  879THF     C213766   0.849   4.151   0.535 -0.1280 -0.3445  0.4593
  879THF     C313767   0.794   4.019   0.355  0.4219 -0.2043 -0.3735
  879THF     H413768   0.906   4.076   0.593  1.7174  0.2334 -0.1536
  879THF     H513769   0.810   4.232   0.592 -2.0344 -1.5311  1.1776
  879THF     H613770   0.863   3.941   0.371  0.6785  2.6771 -1.0010
  879THF     H713771   0.715   3.989   0.285  0.9534  2.9907 -1.4330
  879THF     C813772   0.887   4.131   0.299  0.3040 -0.2805 -0.2056
  879THF     C913773   0.932   4.205   0.423 -0.4668 -0.3465 -0.1386
  879THF    H1013774   0.820   4.203   0.250  2.2616  0.2265  2.5908
  879THF    H1113775   0.963   4.092   0.233 -0.4112 -2.3836 -1.1659
  879THF    H1213776   1.042   4.217   0.430  2.5390 -0.7888 -1.6725
  879THF    H1313777   0.898   4.301   0.411 -0.1779  1.2170 -2.1843
  880THF     O113778   1.972   2.197   3.675  0.1181 -0.1634 -0.2928
  880THF     C213779   1.934   2.301   3.593 -0.4500  0.2348 -0.2273
  880THF     C313780   2.073   2.242   3.770 -0.3584  0.6170  0.4146
  880THF     H413781   1.829   2.298   3.564 -0.5059 -0.4151 -1.4064
  880THF     H513782   1.980   2.284   3.500  1.6254 -1.5972 -3.2643
  880THF     H613783   2.052   2.196   3.862  0.5831  0.4028  0.2091
  880THF     H713784   2.173   2.232   3.735 -0.3958 -1.5541 -4.0284
  880THF     C813785   2.030   2.391   3.789 -0.6249 -0.0846 -0.4969
  880THF     C913786   1.981   2.433   3.657 -0.4204 -0.8181  0.1615
  880THF    H1013787   2.106   2.467   3.830  0.7593 -1.8825  0.1298
  880THF    H1113788   1.943   2.403   3.856  0.7910 -1.0200 -1.8256
  880THF    H1213789   1.903   2.508   3.656  0.3691 -0.2639  0.0747
  880THF    H1313790   2.055   2.486   3.596 -0.1558  3.0610 -1.0291
  881THF     O113791   1.030   0.602   0.380 -0.1566  0.3663  0.4980
  881THF     C213792   1.124   0.566   0.280  0.2537  0.5795 -0.1018
  881THF     C313793   0.934   0.499   0.397 -0.2508 -0.0337  0.3174
  881THF     H413794   1.212   0.504   0.326  2.7453 -0.0476  1.5284
  881THF     H513795   1.164   0.651   0.236 -1.2168 -1.1500  0.4278
  881THF     H613796   0.982   0.418   0.451 -0.8495 -0.0416  1.0685
  881THF     H713797   0.848   0.537   0.452  0.5580  0.2486  0.7486
  881THF     C813798   0.915   0.457   0.249  0.5436  0.2740 -0.1305
  881THF     C913799   1.050   0.477   0.182  0.5296  0.4375 -0.2002
  881THF    H1013800   0.855   0.537   0.208  2.6122  0.1270  2.9249
  881THF    H1113801   0.860   0.366   0.242  0.0391  0.2223 -1.6717
  881THF    H1213802   1.098   0.381   0.170 -1.1432 -2.1285 -0.5159
  881THF    H1313803   1.028   0.526   0.086 -2.4601 -0.1718  1.3242
  882THF     O113804   4.572   0.875   1.540  0.2895 -0.3303 -0.1050
  882THF     C213805   4.612   0.943   1.653  0.4190  0.0838 -0.6035
  882THF     C313806   4.546   0.745   1.577 -0.1791  0.0736 -0.5755
  882THF     H413807   4.611   1.052   1.632 -1.8126 -1.3271  0.6777
  882THF     H513808   4.715   0.924   1.675  0.4726 -0.2840 -0.8369
  882THF     H613809   4.472   0.707   1.509  0.5760  2.5269  0.5108
  882THF     H713810   4.639   0.690   1.574  3.1640  0.4052 -4.1437
  882THF     C813811   4.497   0.756   1.723  0.1833  0.7381  0.0429
  882THF     C913812   4.516   0.904   1.760  0.2984 -0.5596  0.0059
  882THF    H1013813   4.547   0.689   1.793  2.2859 -2.9868 -0.4204
  882THF    H1113814   4.389   0.748   1.726  0.1969  1.8320 -0.3402
  882THF    H1213815   4.419   0.955   1.739 -0.7662 -1.2673 -0.5077
  882THF    H1313816   4.546   0.928   1.863  0.3275  1.6296  0.1242
  883THF     O113817   0.151   0.798   3.806 -0.5293  1.0410 -0.0946
  883THF     C213818   0.281   0.762   3.854 -0.3040  0.3829  0.7001
  883THF     C313819   0.059   0.699   3.850  0.3862 -0.3302 -0.1935
  883THF     H413820   0.365   0.830   3.838  2.2714 -1.3913 -1.0322
  883THF     H513821   0.311   0.676   3.794  0.1614 -0.4065 -0.2771
  883THF     H613822  -0.037   0.753   3.861 -0.1530 -1.2042 -0.1875
  883THF     H713823   0.050   0.616   3.776  0.5983 -0.1969 -3.0419
  883THF     C813824   0.120   0.658   3.983 -0.8632 -0.3392  0.9153
  883THF     C913825   0.258   0.725   3.998  0.2842  0.0837 -1.1299
  883THF    H1013826   0.127   0.553   3.985  2.2530 -1.2109 -1.7734
  883THF    H1113827   0.062   0.699   4.064 -1.2940  3.7017 -1.9214
  883THF    H1213828   0.244   0.826   4.053  0.4198  1.9724  0.0583
  883THF    H1313829   0.336   0.665   4.045 -0.9529 -3.7017  0.8942
  884THF     O113830   4.535   1.923   0.162 -0.3486  0.0593 -0.0966
  884THF     C213831   4.515   2.064   0.173 -0.9678  0.0760  0.0950
  884THF     C313832   4.590   1.900   0.030 -0.1684  1.1491  0.2134
  884THF     H413833   4.514   2.098   0.282 -0.5188 -2.1282 -1.0661
  884THF     H513834   4.420   2.098   0.127 -1.1807  0.5454 -2.0875
  884THF     H613835   4.635   1.805   0.032  0.5426  3.0714 -2.2090
  884THF     H713836   4.519   1.904  -0.054  1.8172 -0.1480  2.4045
  884THF     C813837   4.689   2.015   0.006  0.3215  0.1709 -0.8388
  884THF     C913838   4.635   2.126   0.096  0.2991 -0.2390  0.2445
  884THF    H1013839   4.680   2.044  -0.099 -2.7784  0.8517 -2.3829
  884THF    H1113840   4.797   1.983   0.018  0.0980  1.3859  3.0623
  884THF    H1213841   4.704   2.155   0.179  3.9522  0.5938  1.6443
  884THF    H1313842   4.607   2.212   0.035  2.3353  0.2269 -0.0423
  885THF     O113843   5.348   4.949   2.905  0.4019  0.0757 -0.1018
  885THF     C213844   5.484   4.986   2.923  0.8384  0.3507 -0.2249
  885THF     C313845   5.273   5.055   2.967  0.2614 -0.4156  0.6868
  885THF     H413846   5.515   5.065   2.862 -0.1392  1.2479  0.0989
  885THF     H513847   5.543   4.901   2.904 -0.7325 -2.0233  0.2435
  885THF     H613848   5.251   5.137   2.900 -0.7792 -2.3317 -0.3066
  885THF     H713849   5.175   5.017   2.988  0.6496  1.4117  0.0109
  885THF     C813850   5.350   5.077   3.100  0.6949 -0.3655 -0.9160
  885THF     C913851   5.495   5.023   3.071  0.3537  0.2120 -0.6110
  885THF    H1013852   5.309   5.020   3.176  0.1043  1.4579 -1.6100
  885THF    H1113853   5.339   5.186   3.125 -2.7743 -0.5350 -0.3984
  885THF    H1213854   5.553   5.109   3.100  1.0871  0.8538  0.0626
  885THF    H1313855   5.515   4.932   3.121  0.5574 -0.8257  1.5777
  886THF     O113856   1.297   3.906   3.442  0.0211  0.0961  0.2591
  886THF     C213857   1.212   3.803   3.402  0.1739 -0.0158 -0.6942
  886THF     C313858   1.313   3.912   3.585  0.4358 -0.5511  0.5885
  886THF     H413859   1.253   3.700   3.397 -3.5925 -0.6389  1.9374
  886THF     H513860   1.174   3.824   3.295  0.3317 -1.2055 -4.0727
  886THF     H613861   1.403   3.852   3.613  0.3137  0.9776 -0.8642
  886THF     H713862   1.332   4.018   3.607  1.9299  1.6854 -0.5353
  886THF     C813863   1.183   3.860   3.639 -0.3316 -0.0870  0.2845
  886THF     C913864   1.108   3.811   3.514  0.3486  0.3321  0.3035
  886THF    H1013865   1.128   3.924   3.705  1.3361 -2.1980 -0.0781
  886THF    H1113866   1.204   3.770   3.690 -0.3850 -0.0460 -1.4985
  886THF    H1213867   1.053   3.722   3.522  0.4357  3.9895 -1.9799
  886THF    H1313868   1.033   3.888   3.484  1.6232  2.1343  0.5594
  887THF     O113869   2.846   3.663   2.213  0.0302 -0.0417  0.3448
  887THF     C213870   2.766   3.730   2.122 -0.4922  1.2431 -0.1643
  887THF     C313871   2.826   3.707   2.339  0.5032  0.1925 -0.1593
  887THF     H413872   2.764   3.663   2.034  2.4778  2.4071 -0.0618
  887THF     H513873   2.813   3.824   2.100  0.6700 -0.6158 -1.0559
  887THF     H613874   2.863   3.628   2.410  0.0430  2.3996 -0.5731
  887THF     H713875   2.890   3.789   2.351 -1.1353  1.5665 -2.0178
  887THF     C813876   2.678   3.752   2.348 -0.1202 -0.2562 -0.5641
  887THF     C913877   2.638   3.746   2.201  1.0139 -0.0355  0.1969
  887THF    H1013878   2.681   3.854   2.389 -1.8354 -0.0975 -0.9849
  887THF    H1113879   2.619   3.686   2.395 -1.2332  1.2999 -0.4002
  887THF    H1213880   2.575   3.661   2.174  1.7016  1.2700 -1.4788
  887THF    H1313881   2.581   3.839   2.178 -0.5871 -0.6926 -3.8808
  888THF     O113882   0.783   1.247   1.121 -0.6365 -0.2250 -0.3233
  888THF     C213883   0.804   1.225   1.262  0.6789  0.1719  0.2933
  888THF     C313884   0.806   1.386   1.099  0.7154 -0.1502  1.1356
  888THF     H413885   0.907   1.217   1.287  1.5930  0.2836 -0.6428
  888THF     H513886   0.748   1.139   1.296  0.3790  0.0702 -0.1880
  888THF     H613887   0.914   1.408   1.090 -1.8038  1.8178 -0.4274
  888THF     H713888   0.767   1.407   0.995  2.0001 -0.0109  1.5804
  888THF     C813889   0.736   1.460   1.212  0.2508  0.1524 -0.0486
  888THF     C913890   0.764   1.360   1.327  0.3954  0.2118  0.1302
  888THF    H1013891   0.630   1.454   1.191 -0.1931 -2.4356 -0.4713
  888THF    H1113892   0.760   1.564   1.236  0.0097 -1.5335 -1.1627
  888THF    H1213893   0.848   1.407   1.384  1.9588 -0.9935  1.2845
  888THF    H1313894   0.684   1.338   1.396  0.2167 -0.3346 -1.8521
  889THF     O113895   2.903   4.107   2.023  0.3357 -0.4462  0.2135
  889THF     C213896   3.024   4.094   2.092  0.0175 -0.5062  0.4075
  889THF     C313897   2.837   4.222   2.072 -0.6622 -0.6121 -0.4735
  889THF     H413898   3.089   4.034   2.030 -0.9809 -1.1676  1.1905
  889THF     H513899   3.004   4.051   2.194  0.6865  4.3834 -0.5583
  889THF     H613900   2.764   4.260   2.002 -0.7109  1.8782 -0.8302
  889THF     H713901   2.783   4.192   2.161 -0.2834  0.2731 -0.3872
  889THF     C813902   2.952   4.322   2.101  0.1141  0.6465  0.9699
  889THF     C913903   3.074   4.237   2.090  0.3184  0.0398 -0.1229
  889THF    H1013904   2.925   4.373   2.192 -0.7642  0.6156 -0.3947
  889THF    H1113905   2.946   4.393   2.016 -0.5724  0.4893 -1.3438
  889THF    H1213906   3.130   4.252   1.995  1.4375  0.5505  0.0218
  889THF    H1313907   3.147   4.248   2.176  2.7740  1.2670 -0.9615
  890THF     O113908   4.896   2.424   4.505 -0.1674 -0.6626  0.3715
  890THF     C213909   4.809   2.507   4.422  0.1710 -0.9975 -0.5682
  890THF     C313910   4.997   2.363   4.427 -0.4481  0.4479  0.3070
  890THF     H413911   4.842   2.610   4.425  0.7680 -1.2206  1.6963
  890THF     H513912   4.707   2.496   4.457 -1.8498  0.8890 -0.5541
  890THF     H613913   5.098   2.395   4.454 -1.8270  2.3261  1.5657
  890THF     H713914   5.001   2.260   4.456 -0.9945  1.1571 -1.0411
  890THF     C813915   4.961   2.386   4.280  0.4570 -0.4136 -0.7021
  890THF     C913916   4.825   2.454   4.278 -0.3643 -0.6429  0.6091
  890THF    H1013917   4.942   2.286   4.228 -0.0056 -1.1013 -1.5156
  890THF    H1113918   5.027   2.449   4.223  0.9570  1.6509  1.8706
  890THF    H1213919   4.823   2.531   4.204 -0.3421 -2.0022 -1.3921
  890THF    H1313920   4.743   2.386   4.247 -0.6376 -0.4020 -0.0080
  891THF     O113921   5.418   1.179   3.916  0.6271  0.1469 -0.0508
  891THF     C213922   5.503   1.159   4.025  0.7529 -0.0037 -0.4559
  891THF     C313923   5.464   1.098   3.806 -0.1125 -0.1501 -0.8698
  891THF     H413924   5.483   1.066   4.085 -2.0404  0.0274  0.6202
  891THF     H513925   5.509   1.245   4.088  0.3212  1.9841 -2.6565
  891THF     H613926   5.439   0.996   3.835  0.6072 -2.4725 -1.4575
  891THF     H713927   5.423   1.122   3.704  0.9102 -0.0234 -1.2167
  891THF     C813928   5.611   1.130   3.808 -0.7659 -0.1754 -0.4496
  891THF     C913929   5.640   1.129   3.953  0.2301 -0.7166  0.7564
  891THF    H1013930   5.618   1.226   3.762  2.2610 -1.4746  1.2587
  891THF    H1113931   5.677   1.060   3.757 -0.2935 -0.3306  0.9188
  891THF    H1213932   5.705   1.043   3.992 -0.7042  1.7629  0.0810
  891THF    H1313933   5.697   1.222   3.964 -0.1638  1.3515  1.9795
  892THF     O113934   5.199   2.661   4.890  0.2991  0.3983 -0.2617
  892THF     C213935   5.086   2.622   4.817 -0.5132 -0.1436  0.5785
  892THF     C313936   5.209   2.802   4.862 -0.5994 -0.1048 -0.1253
  892THF     H413937   5.057   2.526   4.865 -0.9427 -2.5044 -0.0079
  892THF     H513938   5.109   2.608   4.710  0.7480  1.4826 -1.8528
  892THF     H613939   5.248   2.859   4.949 -0.1865  1.2574  1.2535
  892THF     H713940   5.285   2.826   4.780  1.5767 -1.8248 -1.6189
  892THF     C813941   5.065   2.855   4.835 -0.1252  0.8689 -0.4991
  892THF     C913942   4.983   2.730   4.826  0.3460  0.2800 -0.5177
  892THF    H1013943   5.055   2.917   4.741 -2.7705 -0.5229 -0.9987
  892THF    H1113944   5.023   2.909   4.918 -0.0366  0.4189 -0.9162
  892THF    H1213945   4.928   2.717   4.918 -1.8525  3.6511 -0.6683
  892THF    H1313946   4.898   2.727   4.753  2.5112 -1.8521 -2.8514
  893THF     O113947   0.363   5.494   0.603 -0.2961  0.6054  0.0517
  893THF     C213948   0.418   5.456   0.473  0.2235  0.0051  0.1120
  893THF     C313949   0.396   5.380   0.692  0.4779  0.6425  1.2037
  893THF     H413950   0.528   5.461   0.467  1.7385 -0.4200 -0.0120
  893THF     H513951   0.376   5.524   0.394 -0.6194  1.5602  1.0850
  893THF     H613952   0.497   5.389   0.745 -0.3817  1.4185  0.3351
  893THF     H713953   0.329   5.364   0.776 -1.8177 -4.0769 -0.9770
  893THF     C813954   0.388   5.253   0.598 -0.2288  0.6789  0.0446
  893THF     C913955   0.381   5.312   0.458  1.2727  0.6309 -0.2688
  893THF    H1013956   0.291   5.202   0.613  1.3902 -1.9331  0.0080
  893THF    H1113957   0.474   5.189   0.621 -2.9579 -0.1613  3.1665
  893THF    H1213958   0.456   5.263   0.396  1.0666  1.8608 -0.3564
  893THF    H1313959   0.279   5.297   0.410 -1.1251 -0.2590  0.3501
  894THF     O113960   1.269   0.532   1.813 -0.7045  0.1822 -0.6914
  894THF     C213961   1.287   0.630   1.715  0.5650  0.3162 -0.0790
  894THF     C313962   1.132   0.544   1.859 -0.4968 -0.2662 -0.2411
  894THF     H413963   1.358   0.603   1.636 -0.7596  0.5490  0.2290
  894THF     H513964   1.320   0.721   1.754 -0.8957  0.1163 -0.4051
  894THF     H613965   1.091   0.462   1.910  0.9641 -1.4292  1.2391
  894THF     H713966   1.127   0.634   1.918 -0.4553  0.2261 -0.1065
  894THF     C813967   1.048   0.556   1.723  0.3647  0.2329  0.5712
  894THF     C913968   1.148   0.643   1.648 -0.5519 -0.7115  0.0754
  894THF    H1013969   0.950   0.612   1.734 -3.6430  2.6200  3.6616
  894THF    H1113970   1.032   0.464   1.681  0.8619 -3.1591  0.3438
  894THF    H1213971   1.162   0.616   1.545  1.5252  3.7083 -0.2397
  894THF    H1313972   1.116   0.752   1.653 -4.2378 -0.8340  1.1519
  895THF     O113973   4.710   0.342   3.566 -0.4943  0.0238 -0.0107
  895THF     C213974   4.756   0.254   3.668 -0.7351 -0.2549 -0.1970
  895THF     C313975   4.823   0.366   3.469  0.8275 -0.2669 -0.1561
  895THF     H413976   4.684   0.184   3.696 -1.9266  3.4011 -0.3868
  895THF     H513977   4.768   0.321   3.753 -1.3895 -2.7210 -1.4676
  895THF     H613978   4.796   0.312   3.372 -0.2205 -1.6575 -0.8598
  895THF     H713979   4.832   0.474   3.452 -1.5438  0.1855  2.0805
  895THF     C813980   4.952   0.307   3.538  0.5039  0.0243  0.2619
  895THF     C913981   4.888   0.193   3.613  0.0853 -0.1968  0.5935
  895THF    H1013982   4.999   0.379   3.600  2.8851 -2.4666  0.7074
  895THF    H1113983   5.024   0.266   3.469 -2.9433  0.2184  1.5457
  895THF    H1213984   4.868   0.116   3.542 -0.7456  2.4826  0.2020
  895THF    H1313985   4.953   0.150   3.693  1.3921  0.7754  0.8641
  896THF     O113986   4.402   4.605   0.709  0.1160 -0.1556  0.3325
  896THF     C213987   4.459   4.733   0.669  0.6811  0.1676  0.1965
  896THF     C313988   4.264   4.636   0.747 -0.2013  0.0904  0.7237
  896THF     H413989   4.546   4.714   0.609 -4.0886  0.8846 -0.1763
  896THF     H513990   4.498   4.787   0.760 -0.8446  1.1132  0.2552
  896THF     H613991   4.202   4.549   0.747 -1.3775 -0.3287 -1.3873
  896THF     H713992   4.266   4.680   0.846 -0.4152 -3.4625  0.2326
  896THF     C813993   4.220   4.738   0.635 -0.1781 -0.3916 -0.6849
  896THF     C913994   4.349   4.815   0.597 -0.2874 -0.5166  0.3615
  896THF    H1013995   4.135   4.805   0.674  0.2066 -0.3225 -0.9701
  896THF    H1113996   4.189   4.679   0.550 -0.9271 -1.2255  1.6277
  896THF    H1213997   4.366   4.803   0.486  0.7950  0.0058 -0.4522
  896THF    H1313998   4.341   4.910   0.628 -0.5085 -2.1452 -0.3821
  897THF     O113999   0.240   1.258   5.428  0.2584  0.2487  0.1406
  897THF     C214000   0.126   1.290   5.355 -0.5165  0.1480  0.4434
  897THF     C314001   0.198   1.295   5.554  0.4425  0.6899  0.2579
  897THF     H414002   0.047   1.226   5.373  1.2074 -2.3207  0.4213
  897THF     H514003   0.140   1.283   5.249  1.0048  1.1340  0.5002
  897THF     H614004   0.123   1.226   5.593  1.8620  0.3613 -2.5266
  897THF     H714005   0.277   1.296   5.631  2.0795 -2.1592 -2.6275
  897THF     C814006   0.141   1.430   5.538  0.1630 -0.1051  0.9266
  897THF     C914007   0.098   1.436   5.398 -1.1536  0.5831 -0.1971
  897THF    H1014008   0.215   1.512   5.553  3.2015 -1.3432 -0.4542
  897THF    H1114009   0.061   1.436   5.616 -0.6846 -2.5540 -0.1841
  897THF    H1214010  -0.009   1.465   5.394 -2.5236  1.0528 -1.4875
  897THF    H1314011   0.155   1.501   5.339  0.1105  1.3190  1.5408
  898THF     O114012   1.695   5.404   5.107  0.3575  0.4638  0.2221
  898THF     C214013   1.652   5.435   4.970  0.3512 -0.2222 -0.4814
  898THF     C314014   1.701   5.262   5.107  0.4798 -0.0145  0.0580
  898THF     H414015   1.690   5.529   4.928 -0.0567 -1.3933 -0.3437
  898THF     H514016   1.550   5.470   4.961  1.7327  3.2948 -1.6389
  898THF     H614017   1.763   5.219   5.184  0.3866  0.6101  1.4370
  898THF     H714018   1.603   5.222   5.122  3.1385  1.0923 -0.8624
  898THF     C814019   1.751   5.220   4.972  0.4289 -0.0265  0.1004
  898THF     C914020   1.679   5.318   4.880  0.5787  0.4279  0.3925
  898THF    H1014021   1.729   5.112   4.963 -0.9816 -2.4158  2.6116
  898THF    H1114022   1.861   5.237   4.966  0.3759 -1.1121 -1.8737
  898THF    H1214023   1.731   5.361   4.794  1.2730  1.9571 -0.5198
  898THF    H1314024   1.585   5.276   4.852 -0.0792 -2.1379 -0.2636
  899THF     O114025   4.216   2.762   1.418  0.6456  0.0919  0.6812
  899THF     C214026   4.122   2.870   1.430 -0.1221 -0.1102  0.3943
  899THF     C314027   4.263   2.748   1.283  0.1692 -0.5358 -0.1722
  899THF     H414028   4.116   2.907   1.527 -0.3265 -1.8602  1.0418
  899THF     H514029   4.034   2.815   1.407  3.2787  2.3475  0.4450
  899THF     H614030   4.369   2.741   1.281 -1.0494  1.3682  1.5188
  899THF     H714031   4.217   2.671   1.225  2.5659 -0.4326  2.0454
  899THF     C814032   4.219   2.874   1.211 -0.7762 -0.6303 -0.2657
  899THF     C914033   4.165   2.965   1.319 -0.3534  0.4814  0.0950
  899THF    H1014034   4.148   2.845   1.126 -0.7491 -0.9736 -1.9853
  899THF    H1114035   4.314   2.920   1.175 -0.1540  0.8274 -2.4800
  899THF    H1214036   4.254   3.020   1.357  1.5228 -0.2778 -2.4327
  899THF    H1314037   4.085   3.033   1.292  0.3442 -0.0169 -1.2583
  900THF     O114038   0.699   2.086   1.178  0.1143 -0.1563  0.3438
  900THF     C214039   0.726   2.050   1.313  0.2622 -0.4432  0.2769
  900THF     C314040   0.782   2.198   1.147 -0.1962 -0.7371 -0.6346
  900THF     H414041   0.782   1.954   1.313 -0.6017 -0.2106  0.1060
  900THF     H514042   0.630   2.026   1.361  2.6379 -2.4147 -0.7724
  900THF     H614043   0.817   2.203   1.052  2.0864  1.1178 -0.9334
  900THF     H714044   0.714   2.282   1.151  0.4874 -2.7930 -0.8587
  900THF     C814045   0.891   2.202   1.260 -0.3697 -0.0506  0.5043
  900THF     C914046   0.817   2.153   1.378 -0.8044 -0.2106 -0.2293
  900THF    H1014047   0.924   2.305   1.267 -1.9997  0.7352 -0.9885
  900THF    H1114048   0.978   2.131   1.247  0.8626 -2.5737  0.4922
  900THF    H1214049   0.885   2.104   1.448 -1.4672 -1.3420  0.1241
  900THF    H1314050   0.765   2.237   1.423 -1.5266 -0.0804  2.0417
  901THF     O114051   2.405   2.117   3.723  0.0078 -0.1739  0.0235
  901THF     C214052   2.396   1.989   3.664  0.0979 -0.3739  0.0505
  901THF     C314053   2.396   2.087   3.862 -0.4982 -0.0991 -0.1341
  901THF     H414054   2.424   2.006   3.560 -0.2771  2.7545  0.4383
  901THF     H514055   2.295   1.951   3.664 -0.0128  0.3536 -1.9212
  901THF     H614056   2.444   2.169   3.929  1.7614 -1.2253  0.1537
  901THF     H714057   2.294   2.069   3.894 -0.8473  1.3876  3.2472
  901THF     C814058   2.490   1.960   3.877 -0.1977  0.7334  0.5129
  901THF     C914059   2.496   1.899   3.734  0.2118  0.1939 -0.4392
  901THF    H1014060   2.458   1.880   3.950  0.0604 -1.8959 -1.5890
  901THF    H1114061   2.586   1.987   3.912 -2.8558  0.9877  3.2913
  901THF    H1214062   2.600   1.901   3.702  0.0576  1.1917 -2.5001
  901THF    H1314063   2.461   1.795   3.738 -2.5206 -0.6787  0.3349
  902THF     O114064   4.047   2.262   5.214 -0.1071  0.1135 -0.4104
  902THF     C214065   4.125   2.162   5.174  0.1057 -0.4383  0.4026
  902THF     C314066   4.052   2.270   5.355  0.2028 -0.3008  0.1347
  902THF     H414067   4.137   2.177   5.064  2.7601  0.7236  1.5697
  902THF     H514068   4.084   2.065   5.197  1.9206 -2.0432 -0.9499
  902THF     H614069   4.023   2.372   5.387 -1.3224 -1.3916 -0.2207
  902THF     H714070   3.981   2.209   5.400 -2.6006  1.1124 -2.6139
  902THF     C814071   4.199   2.236   5.392 -0.1371 -0.3930  0.8009
  902THF     C914072   4.256   2.186   5.260  0.7159  0.4311  0.1904
  902THF    H1014073   4.211   2.152   5.459  1.0020  2.3216  2.3594
  902THF    H1114074   4.247   2.323   5.426  0.3359  1.3685 -1.4434
  902THF    H1214075   4.320   2.255   5.202 -1.2394 -2.5649  0.0705
  902THF    H1314076   4.305   2.093   5.274 -0.9068  3.1030  1.7374
  903THF     O114077   4.128   2.405   0.322 -0.7532 -0.0710 -0.3105
  903THF     C214078   4.198   2.310   0.239  0.0462  0.3815  0.2779
  903THF     C314079   4.222   2.457   0.411  0.2113 -0.5844 -0.1748
  903THF     H414080   4.138   2.268   0.158  1.7765 -1.4058 -0.8709
  903THF     H514081   4.231   2.220   0.302  1.6234  2.0246 -1.2725
  903THF     H614082   4.189   2.548   0.467  3.0649 -2.7777 -1.2663
  903THF     H714083   4.255   2.385   0.480  1.5323  0.3640  1.6591
  903THF     C814084   4.336   2.493   0.312 -1.0108 -0.8536  0.1072
  903THF     C914085   4.325   2.392   0.208 -0.0986 -0.0186 -0.0377
  903THF    H1014086   4.440   2.502   0.350 -0.5742  1.9288  0.1194
  903THF    H1114087   4.322   2.595   0.265  1.9122 -2.1583 -0.7250
  903THF    H1214088   4.314   2.417   0.108  2.5766  0.8444 -4.1031
  903THF    H1314089   4.415   2.326   0.207 -1.2144 -3.0375 -0.1237
  904THF     O114090   0.024   0.183   4.300  0.4713 -0.3288 -0.1032
  904THF     C214091   0.027   0.222   4.435  0.2204  0.6895  0.3915
  904THF     C314092   0.069   0.286   4.211  1.1975 -0.3707  0.2039
  904THF     H414093   0.112   0.170   4.488 -0.7922 -3.8783  0.0323
  904THF     H514094  -0.072   0.207   4.483  0.7429  0.4095 -1.0706
  904THF     H614095   0.174   0.276   4.213 -1.7257  0.9771 -1.5109
  904THF     H714096   0.018   0.288   4.111 -2.7501  1.0199 -0.1417
  904THF     C814097   0.020   0.409   4.291  0.0971  0.5009  0.2884
  904THF     C914098   0.053   0.371   4.427 -0.1899 -0.5459  0.3582
  904THF    H1014099  -0.084   0.433   4.282  0.2224  1.6222  0.2011
  904THF    H1114100   0.079   0.495   4.252  2.0525 -0.7558 -0.2124
  904THF    H1214101   0.155   0.389   4.447 -0.1787 -0.0549 -1.0772
  904THF    H1314102  -0.003   0.437   4.499 -0.1587 -2.8872 -3.1509
  905THF     O114103   5.003   2.993   5.194 -0.5710 -0.4809  0.4611
  905THF     C214104   4.884   3.042   5.125 -0.3936  0.2838  0.6689
  905THF     C314105   4.988   2.861   5.236  0.2463 -1.0257 -0.4369
  905THF     H414106   4.912   3.064   5.025 -0.1812  0.6722  0.3067
  905THF     H514107   4.851   3.136   5.170 -0.3397  0.7980  0.5546
  905THF     H614108   5.034   2.798   5.158  0.8103 -1.2290  1.3709
  905THF     H714109   5.036   2.836   5.329  1.5470  4.3682 -3.1652
  905THF     C814110   4.829   2.838   5.240 -0.1026 -0.1688  0.0743
  905THF     C914111   4.783   2.928   5.128  0.5190 -0.2345  0.2718
  905THF    H1014112   4.798   2.880   5.337  2.4873 -0.8193 -0.0820
  905THF    H1114113   4.805   2.729   5.229 -1.9489 -1.8947  0.9534
  905THF    H1214114   4.767   2.888   5.032  0.9067  1.7597  0.0118
  905THF    H1314115   4.685   2.959   5.157 -0.9036  2.1734 -0.6090
  906THF     O114116   1.334   5.113   5.100  0.0124 -0.5356  0.3398
  906THF     C214117   1.232   5.116   5.204  0.0246 -0.2146 -0.6562
  906THF     C314118   1.282   5.165   4.980  0.7812 -0.0204 -0.1069
  906THF     H414119   1.269   5.133   5.297  0.3829  2.3865  0.2352
  906THF     H514120   1.182   5.022   5.196  0.3065 -1.0644  1.1861
  906THF     H614121   1.351   5.209   4.917 -0.6399 -2.8525 -0.2047
  906THF     H714122   1.243   5.086   4.920 -0.8628  2.0568 -1.3737
  906THF     C814123   1.174   5.266   5.025  0.0032  0.0217  0.4111
  906THF     C914124   1.131   5.223   5.165 -0.2020 -0.4079  0.1790
  906THF    H1014125   1.098   5.299   4.951 -0.9370 -0.8011 -0.0813
  906THF    H1114126   1.239   5.355   5.037 -1.1881  2.7305 -1.1858
  906THF    H1214127   1.131   5.307   5.226  0.1263 -2.4599 -0.7071
  906THF    H1314128   1.035   5.178   5.161 -1.0711 -0.4572  0.6858
  907THF     O114129   5.254   2.880   2.731  0.6991  0.0096  0.0666
  907THF     C214130   5.195   2.823   2.611  0.2746 -1.0142  0.5832
  907THF     C314131   5.369   2.798   2.750 -0.3071 -0.8517 -0.3605
  907THF     H414132   5.118   2.891   2.571  0.0781 -0.1784 -0.6060
  907THF     H514133   5.148   2.735   2.641  0.0127  2.1919 -0.5009
  907THF     H614134   5.443   2.860   2.800  0.0449  2.0045 -2.4921
  907THF     H714135   5.346   2.718   2.818 -0.9441 -0.7377  0.5445
  907THF     C814136   5.417   2.738   2.614 -0.1050  0.7013  0.2549
  907THF     C914137   5.311   2.784   2.514  0.2863 -0.2555 -0.2061
  907THF    H1014138   5.413   2.631   2.604 -2.7300 -0.1357  2.1344
  907THF    H1114139   5.521   2.774   2.593 -1.4313  1.1784  0.1696
  907THF    H1214140   5.345   2.868   2.454 -0.9502 -2.3195  1.4442
  907THF    H1314141   5.278   2.711   2.439  1.0779 -0.0667 -0.2905
  908THF     O114142   0.060   3.684   0.954  0.4047 -0.2318 -0.2304
  908THF     C214143  -0.069   3.638   0.967 -1.1257  0.9164  0.7852
  908THF     C314144   0.153   3.573   0.966 -0.6058 -0.7147  0.1902
  908THF     H414145  -0.154   3.701   0.933 -0.6812 -1.1597 -2.3464
  908THF     H514146  -0.088   3.612   1.071  2.4971  0.4675 -0.4304
  908THF     H614147   0.247   3.610   0.926  0.7569 -0.6631 -0.5139
  908THF     H714148   0.171   3.554   1.070  0.9558 -1.4370 -0.1746
  908THF     C814149   0.084   3.465   0.881 -0.1426 -0.0029 -0.3979
  908THF     C914150  -0.071   3.499   0.897 -0.7025 -0.7365 -0.2108
  908THF    H1014151   0.102   3.362   0.910 -1.2064 -2.2315  0.4768
  908THF    H1114152   0.118   3.481   0.783  0.5004  1.3453 -2.5927
  908THF    H1214153  -0.119   3.515   0.802 -1.5307 -0.4132  1.4318
  908THF    H1314154  -0.127   3.430   0.957 -1.1434  0.1791 -1.3721
  909THF     O114155   1.157   0.066   1.852 -0.1234 -0.0826  0.5625
  909THF     C214156   1.189   0.070   1.993 -0.5106 -0.0994 -0.0172
  909THF     C314157   1.261   0.134   1.785 -0.4062  0.6054  0.0781
  909THF     H414158   1.238  -0.023   2.029 -2.3409 -1.2012 -0.7671
  909THF     H514159   1.092   0.070   2.053 -0.7657 -1.7657  1.3321
  909THF     H614160   1.307   0.057   1.723 -0.4187 -1.4435  2.0535
  909THF     H714161   1.213   0.214   1.722  0.0261  0.8847 -0.6409
  909THF     C814162   1.359   0.190   1.884  0.2748 -0.3819  0.3665
  909THF     C914163   1.278   0.196   2.009  0.1845 -0.8695  0.3815
  909THF    H1014164   1.398   0.282   1.849  0.2451  2.1701 -0.9294
  909THF    H1114165   1.433   0.115   1.890 -0.4156  0.7563  0.6118
  909THF    H1214166   1.333   0.187   2.100  0.0009  1.2943  1.1513
  909THF    H1314167   1.214   0.286   2.011  1.9187  0.4927 -3.8628
  910THF     O114168   1.780   3.395   3.344  0.1704 -0.5423  0.0875
  910THF     C214169   1.696   3.281   3.315 -0.2590  0.4455 -0.3514
  910THF     C314170   1.817   3.372   3.478  0.4427  0.7689 -0.7025
  910THF     H414171   1.758   3.188   3.282 -0.9251  0.4517 -1.5553
  910THF     H514172   1.624   3.298   3.237  2.3619 -1.1237  1.8698
  910THF     H614173   1.888   3.284   3.491 -2.2573 -0.2687 -0.6313
  910THF     H714174   1.857   3.466   3.515 -1.3974 -0.1372  0.9661
  910THF     C814175   1.683   3.344   3.545 -0.1299 -0.0575  0.2436
  910THF     C914176   1.619   3.251   3.439 -0.6185  0.0879 -0.6296
  910THF    H1014177   1.626   3.429   3.573 -0.0193 -5.7402  0.0762
  910THF    H1114178   1.700   3.297   3.644 -0.1990 -0.2949 -0.9960
  910THF    H1214179   1.644   3.150   3.454 -0.4254  2.1075 -2.9231
  910THF    H1314180   1.507   3.266   3.427 -0.3854  0.0735  1.0856
  911THF     O114181   1.081   2.478   3.682 -0.0242  0.0278 -0.3273
  911THF     C214182   1.165   2.584   3.724 -0.2882  0.0884 -0.2026
  911THF     C314183   1.028   2.513   3.552  0.4258  0.7674  0.8568
  911THF     H414184   1.216   2.546   3.810 -1.3612  2.4570 -2.2748
  911THF     H514185   1.105   2.668   3.760 -0.3464  0.4234 -1.4829
  911THF     H614186   1.026   2.425   3.486  2.7753 -0.3114 -0.4604
  911THF     H714187   0.928   2.551   3.559  0.9614  1.4053  0.8234
  911THF     C814188   1.129   2.623   3.497 -0.3516  0.1414 -0.1289
  911THF     C914189   1.243   2.608   3.598 -0.4933 -0.2342 -0.5225
  911THF    H1014190   1.078   2.718   3.496  2.4861 -2.5673  0.1271
  911THF    H1114191   1.163   2.612   3.402  1.3786 -1.2204 -0.1034
  911THF    H1214192   1.302   2.523   3.567  0.8224 -0.6781  1.0790
  911THF    H1314193   1.308   2.699   3.607  0.6723  2.0787  0.9523
  912THF     O114194   0.346   3.461   2.187 -0.0026 -0.1110  0.3683
  912THF     C214195   0.247   3.472   2.082  0.2450  0.0518  0.1006
  912THF     C314196   0.467   3.433   2.127 -0.3001  0.5870  0.7913
  912THF     H414197   0.260   3.571   2.032 -2.5125  0.3431 -0.7845
  912THF     H514198   0.138   3.472   2.103 -2.4030 -0.9364  0.4878
  912THF     H614199   0.535   3.520   2.127  0.8139 -0.6070  0.1871
  912THF     H714200   0.520   3.345   2.179  0.3695 -0.2020  1.1533
  912THF     C814201   0.439   3.375   1.988  0.3478 -0.8676  0.0538
  912THF     C914202   0.286   3.367   1.982  0.5009 -0.4648  0.3719
  912THF    H1014203   0.473   3.276   1.968 -1.5260  0.8127 -0.7022
  912THF    H1114204   0.477   3.437   1.907  1.3676  0.9996  0.1337
  912THF    H1214205   0.237   3.390   1.888  1.1707 -0.0462 -0.3424
  912THF    H1314206   0.252   3.263   2.006  0.0599 -0.0733 -1.5595
  913THF     O114207   4.251   1.061   4.626  0.0281  0.6322  0.4236
  913THF     C214208   4.361   1.133   4.687 -0.5877  0.0226 -0.2265
  913THF     C314209   4.193   0.961   4.714  0.1869  0.1343 -0.3035
  913THF     H414210   4.326   1.219   4.740  1.1272 -1.4735  1.2968
  913THF     H514211   4.443   1.166   4.619 -1.9586 -0.6603 -1.3802
  913THF     H614212   4.085   0.998   4.742  0.1100 -1.9002 -0.1534
  913THF     H714213   4.182   0.867   4.661  3.0010  1.4357  1.2561
  913THF     C814214   4.278   0.957   4.830 -0.1766  0.4112 -0.2664
  913THF     C914215   4.411   1.037   4.795  0.0371  0.9402  0.4449
  913THF    H1014216   4.300   0.862   4.873 -0.8898  0.9182 -0.6881
  913THF    H1114217   4.234   1.005   4.915 -0.4747 -1.5574  2.3211
  913THF    H1214218   4.467   1.085   4.872  2.0099 -0.3657 -0.8258
  913THF    H1314219   4.482   0.981   4.741  0.2330  1.3168 -2.2475
  914THF     O114220   3.253   2.273   0.067  0.0213 -0.4646 -0.1362
  914THF     C214221   3.221   2.270   0.203  0.7612  0.4677  0.0647
  914THF     C314222   3.361   2.364   0.045  0.6670  0.9037  0.4074
  914THF     H414223   3.279   2.199   0.256  0.4646 -0.6157  0.7325
  914THF     H514224   3.111   2.259   0.206 -0.9754  0.8153 -0.4024
  914THF     H614225   3.446   2.292   0.021  0.7402  0.5531 -0.5265
  914THF     H714226   3.338   2.424  -0.046 -3.6388  1.8079  0.6979
  914THF     C814227   3.387   2.445   0.171 -0.3462  0.4320 -0.0319
  914THF     C914228   3.254   2.415   0.237  0.1237 -0.8939 -0.0839
  914THF    H1014229   3.406   2.551   0.159  0.0625  1.2975  2.0879
  914THF    H1114230   3.461   2.384   0.237 -2.1379 -0.4522 -0.6836
  914THF    H1214231   3.255   2.431   0.344  0.5813  1.0234  2.4022
  914THF    H1314232   3.177   2.483   0.204  0.8144 -4.5228  0.9059
  915THF     O114233   2.889   1.934   1.378  0.1703 -0.1571  0.9956
  915THF     C214234   2.749   1.966   1.363 -0.0151  0.5428  0.5057
  915THF     C314235   2.926   1.904   1.243  0.8174  0.3559 -1.3449
  915THF     H414236   2.719   2.022   1.447  0.1524 -1.1233  0.1523
  915THF     H514237   2.690   1.875   1.355  1.3083 -1.7516  1.9112
  915THF     H614238   3.030   1.898   1.234 -0.2491  0.3386  2.1377
  915THF     H714239   2.884   1.802   1.219  1.6423 -0.9145  0.5752
  915THF     C814240   2.859   2.007   1.149  0.7708  0.9666  0.2332
  915THF     C914241   2.745   2.045   1.232  0.0562  0.1391  0.1343
  915THF    H1014242   2.841   1.950   1.062 -0.0085 -1.2342  0.6830
  915THF    H1114243   2.929   2.085   1.134  1.5145 -1.8876 -0.1827
  915THF    H1214244   2.738   2.155   1.249 -1.4571 -1.2219 -1.3979
  915THF    H1314245   2.658   2.017   1.184  1.7453 -2.2870  1.2305
  916THF     O114246   1.825   3.826   4.878 -0.1733 -0.1961 -0.1752
  916THF     C214247   1.883   3.948   4.940 -0.2676 -0.3710  0.4561
  916THF     C314248   1.916   3.800   4.774  0.0459 -0.2002  0.0381
  916THF     H414249   1.982   3.934   4.979  0.3552  2.0952 -0.3336
  916THF     H514250   1.817   4.002   5.007 -4.1666  0.6573  1.0200
  916THF     H614251   1.993   3.734   4.806 -0.5263  0.2999  0.8685
  916THF     H714252   1.866   3.734   4.702  0.8641  0.9408 -2.8773
  916THF     C814253   1.955   3.941   4.711  0.1720  0.0266  0.5956
  916THF     C914254   1.896   4.035   4.813  0.0754  0.1726  0.4942
  916THF    H1014255   1.906   3.951   4.613 -2.2098 -0.9905 -0.8672
  916THF    H1114256   2.061   3.967   4.709  1.3897  1.5338 -0.3503
  916THF    H1214257   1.969   4.122   4.832 -0.3096  1.9651 -0.5519
  916THF    H1314258   1.809   4.077   4.774  1.0205  0.7051  1.4370
  917THF     O114259   2.485   2.722   1.168  0.5794  0.1932 -0.3145
  917THF     C214260   2.527   2.858   1.168 -0.6049  0.0132 -1.1953
  917THF     C314261   2.453   2.686   1.302  0.5034  0.5592  0.3041
  917THF     H414262   2.447   2.931   1.202  1.7731  1.9544 -0.4834
  917THF     H514263   2.574   2.881   1.070  0.2148  0.3758 -0.3023
  917THF     H614264   2.369   2.748   1.344 -0.7024 -0.2727  1.3312
  917THF     H714265   2.435   2.574   1.297 -2.0025  1.7546 -1.2640
  917THF     C814266   2.593   2.727   1.352  0.5389  0.4399 -0.1401
  917THF     C914267   2.628   2.852   1.282  0.2294  0.0325 -0.3027
  917THF    H1014268   2.660   2.651   1.329  1.2431 -1.0648 -0.0595
  917THF    H1114269   2.594   2.733   1.460 -0.8817  1.4829  0.1462
  917THF    H1214270   2.619   2.933   1.352 -4.2650  0.3001  0.5562
  917THF    H1314271   2.725   2.853   1.236  0.7030 -2.0325  0.9758
  918THF     O114272   1.633   2.242   2.829 -0.6755 -0.4688 -0.6700
  918THF     C214273   1.737   2.186   2.737 -0.7079  0.6067 -0.4610
  918THF     C314274   1.550   2.128   2.870  0.0709 -0.0663  0.0488
  918THF     H414275   1.821   2.138   2.789  1.7883  0.6491 -0.2831
  918THF     H514276   1.776   2.263   2.672  0.0990  0.3054  1.2040
  918THF     H614277   1.593   2.082   2.952 -1.6055 -0.4307 -0.7499
  918THF     H714278   1.450   2.157   2.910 -0.0352  1.3463  1.7166
  918THF     C814279   1.562   2.029   2.758  0.2338  0.1098 -0.0299
  918THF     C914280   1.664   2.079   2.658  0.5192 -1.1649  0.4453
  918THF    H1014281   1.463   2.018   2.709 -1.2899  1.8909 -0.1289
  918THF    H1114282   1.596   1.930   2.795 -1.6038  0.9844 -0.0925
  918THF    H1214283   1.714   1.990   2.620  0.6476 -1.5936  0.2779
  918THF    H1314284   1.619   2.119   2.567 -3.3628  0.3907  0.3747
  919THF     O114285   3.345   2.622   1.892  0.1361  0.0887  0.0501
  919THF     C214286   3.333   2.570   2.022  0.0268  0.2056 -0.1979
  919THF     C314287   3.276   2.744   1.875 -0.4701 -0.0144  0.3113
  919THF     H414288   3.429   2.524   2.048 -0.7181 -5.1360  2.1728
  919THF     H514289   3.254   2.498   2.038  1.0090  1.0807  0.0980
  919THF     H614290   3.306   2.809   1.792  1.6974  3.2166 -0.0297
  919THF     H714291   3.169   2.725   1.847 -2.3433 -2.1220 -2.1492
  919THF     C814292   3.298   2.808   2.012  0.3302  0.0731 -0.4224
  919THF     C914293   3.297   2.692   2.102  0.4509  0.3671 -1.0343
  919THF    H1014294   3.225   2.887   2.024  0.1720 -0.5805 -1.3410
  919THF    H1114295   3.400   2.853   2.022 -1.7145 -1.4796  1.5874
  919THF    H1214296   3.371   2.710   2.186  0.0927 -1.7390  2.6632
  919THF    H1314297   3.200   2.678   2.150  0.4145  3.1770 -2.4261
  920THF     O114298   1.717   2.408   5.306  0.1459 -0.2153 -0.4074
  920THF     C214299   1.754   2.463   5.434  0.8327 -0.4931  0.7671
  920THF     C314300   1.840   2.387   5.232 -0.0480 -0.2442  0.7515
  920THF     H414301   1.746   2.391   5.520 -0.5652 -0.8822 -1.4974
  920THF     H514302   1.675   2.534   5.456 -0.4215  0.4214 -2.6833
  920THF     H614303   1.880   2.282   5.260  0.2342 -1.3160 -0.4710
  920THF     H714304   1.818   2.388   5.123 -1.6452  0.8238  0.5399
  920THF     C814305   1.932   2.504   5.274 -0.0762 -0.0553 -0.8278
  920THF     C914306   1.897   2.531   5.414  0.1955 -0.0001 -0.1697
  920THF    H1014307   1.910   2.595   5.225 -2.0962 -1.4898  0.1617
  920THF    H1114308   2.034   2.469   5.236 -0.4466 -0.0136  3.0522
  920THF    H1214309   1.966   2.490   5.490  3.2962  0.2281 -0.5271
  920THF    H1314310   1.886   2.635   5.426  3.8602  1.5181  1.7712
  921THF     O114311   3.748   5.491   2.944 -0.1322 -0.4388 -0.1070
  921THF     C214312   3.610   5.506   2.897  0.3661 -0.2070  0.0565
  921THF     C314313   3.753   5.394   3.049 -0.0630  0.5988 -0.4284
  921THF     H414314   3.593   5.449   2.801 -0.9916 -2.1702 -1.3605
  921THF     H514315   3.607   5.609   2.867  0.5169  0.3559  1.2399
  921THF     H614316   3.820   5.307   3.024 -0.9104 -0.7858  0.3338
  921THF     H714317   3.797   5.446   3.136  3.2512 -1.0896  0.9766
  921THF     C814318   3.598   5.345   3.068  0.1527  0.1373 -0.0407
  921THF     C914319   3.514   5.452   3.005 -1.0129 -0.2892 -0.8379
  921THF    H1014320   3.569   5.312   3.165 -1.5895 -1.6996  0.5271
  921THF    H1114321   3.598   5.261   2.999  0.1447 -0.2444  0.0651
  921THF    H1214322   3.423   5.410   2.966  1.4238 -2.1139 -0.2569
  921THF    H1314323   3.483   5.531   3.068  0.0889 -1.0120 -1.4500
  922THF     O114324   0.754   4.620   3.518 -0.4705  0.6792  0.5423
  922THF     C214325   0.681   4.700   3.427  0.6071 -0.1721  0.5882
  922THF     C314326   0.705   4.645   3.650 -0.0673 -0.1898 -0.6929
  922THF     H414327   0.688   4.665   3.323  3.1934  1.3575  0.3866
  922THF     H514328   0.732   4.797   3.425  1.2909  0.6321  0.0975
  922THF     H614329   0.663   4.551   3.685  0.2662 -1.6170  1.1476
  922THF     H714330   0.777   4.681   3.718 -0.2417  0.6569  1.0035
  922THF     C814331   0.572   4.727   3.632  0.3806 -0.3100 -0.5087
  922THF     C914332   0.537   4.717   3.487  0.3132 -0.7647 -0.3799
  922THF    H1014333   0.592   4.835   3.647 -1.8832 -0.2783 -0.9406
  922THF    H1114334   0.495   4.691   3.699 -3.3206 -1.7358 -2.1704
  922THF    H1214335   0.491   4.621   3.476  2.7467 -0.6379 -0.7760
  922THF    H1314336   0.474   4.804   3.456 -0.3202 -1.2988 -2.8137
  923THF     O114337   5.141   0.686   0.338 -0.3920  0.2895  0.3339
  923THF     C214338   5.103   0.713   0.205 -0.0802 -0.5785  0.2770
  923THF     C314339   5.229   0.780   0.389  1.2550  0.1986 -0.2814
  923THF     H414340   5.015   0.662   0.182 -1.6842  3.7944 -0.4899
  923THF     H514341   5.191   0.695   0.138  0.5450 -0.4472  0.0629
  923THF     H614342   5.217   0.776   0.498 -1.5847 -0.6431 -0.3850
  923THF     H714343   5.341   0.772   0.375 -3.0887  0.2365 -0.0109
  923THF     C814344   5.168   0.910   0.326  0.1381  0.0038 -0.1034
  923THF     C914345   5.090   0.865   0.208  0.9451  0.2281  0.2537
  923THF    H1014346   5.257   0.975   0.296  1.3319  1.3148  1.0248
  923THF    H1114347   5.118   0.958   0.412 -1.8419 -0.6751 -0.7237
  923THF    H1214348   4.989   0.896   0.217 -2.6066  0.8834 -0.0382
  923THF    H1314349   5.137   0.922   0.135 -0.7731  0.9889  1.7112
  924THF     O114350   4.526   5.276   5.166 -0.0117 -0.4447  0.1728
  924THF     C214351   4.626   5.375   5.160  0.5977  0.1616 -0.4243
  924THF     C314352   4.578   5.148   5.194  0.3491 -0.3326  0.2193
  924THF     H414353   4.621   5.413   5.260 -1.6626 -0.8371  0.1304
  924THF     H514354   4.607   5.468   5.101 -2.0433 -0.9921  0.1665
  924THF     H614355   4.571   5.128   5.303 -0.3597  1.5316  0.1641
  924THF     H714356   4.517   5.069   5.146 -0.6243 -1.1944 -0.6584
  924THF     C814357   4.729   5.148   5.155 -0.9585  0.1031  0.1775
  924THF     C914358   4.756   5.296   5.121 -0.2146  0.1537  0.0098
  924THF    H1014359   4.752   5.075   5.074 -1.7063 -1.1522 -2.7913
  924THF    H1114360   4.803   5.122   5.237  0.4460  0.6110 -0.4548
  924THF    H1214361   4.851   5.347   5.149  1.1315 -0.3651 -1.8790
  924THF    H1314362   4.753   5.293   5.014 -0.0591 -1.3276 -0.3689
  925THF     O114363   4.761   3.631   4.800 -0.5493 -0.0470 -0.6745
  925THF     C214364   4.811   3.506   4.761  0.3142  0.5622  0.2255
  925THF     C314365   4.623   3.611   4.776  0.2719  0.6247  0.6566
  925THF     H414366   4.906   3.495   4.809  0.9366  0.3278 -1.1490
  925THF     H514367   4.826   3.508   4.655 -0.7202  0.4827 -0.5544
  925THF     H614368   4.572   3.687   4.839 -0.6029  2.6061  1.5488
  925THF     H714369   4.588   3.627   4.677  0.2780  0.8374  0.5120
  925THF     C814370   4.585   3.472   4.834  0.3558 -0.1538 -0.5948
  925THF     C914371   4.715   3.397   4.800  0.1230  0.3983 -0.2401
  925THF    H1014372   4.497   3.427   4.792  0.5915  1.4112 -0.4719
  925THF    H1114373   4.564   3.481   4.942 -0.5476 -1.8094  0.7358
  925THF    H1214374   4.750   3.341   4.884  0.4648 -0.0180 -0.2136
  925THF    H1314375   4.701   3.320   4.715  2.7720 -2.7410 -1.8193
  926THF     O114376   3.713   2.693   3.065  0.2111  0.1006  0.6983
  926THF     C214377   3.738   2.805   2.985  0.5147 -0.7443 -0.0315
  926THF     C314378   3.733   2.577   2.983  0.5488  0.2950  0.2537
  926THF     H414379   3.840   2.847   2.978  0.7518  0.4756 -1.7869
  926THF     H514380   3.669   2.883   3.026 -0.4247 -0.4040 -0.8314
  926THF     H614381   3.830   2.539   3.006 -3.4893  0.8169 -0.4046
  926THF     H714382   3.660   2.501   3.009 -3.4696  1.6255  0.0202
  926THF     C814383   3.713   2.613   2.835  0.1342  0.3962 -0.1128
  926THF     C914384   3.689   2.761   2.845 -1.1092 -0.1516  0.0414
  926THF    H1014385   3.627   2.559   2.792 -0.3431  2.1019  3.9236
  926THF    H1114386   3.792   2.581   2.771 -2.0016 -1.3319 -2.0864
  926THF    H1214387   3.730   2.807   2.758  1.8329 -0.1399 -1.2286
  926THF    H1314388   3.584   2.764   2.830  0.6432  0.9204  1.1191
  927THF     O114389   0.615   3.959   3.300 -0.2618  0.2708 -0.2058
  927THF     C214390   0.567   3.910   3.178  0.4164  0.3045 -0.1131
  927THF     C314391   0.753   3.912   3.314  0.3673 -0.2981  0.0433
  927THF     H414392   0.619   3.962   3.096 -2.0537 -0.8232 -1.6545
  927THF     H514393   0.459   3.911   3.170 -1.9336  4.6742  0.7981
  927THF     H614394   0.818   3.974   3.246 -0.2587  0.4008 -4.5835
  927THF     H714395   0.784   3.922   3.416 -0.3943 -4.1149 -0.8823
  927THF     C814396   0.735   3.760   3.276  0.0604  0.8521  0.4351
  927THF     C914397   0.623   3.769   3.169  0.4598  0.4152 -0.1794
  927THF    H1014398   0.710   3.699   3.363  0.1459 -1.0632 -1.6074
  927THF    H1114399   0.825   3.717   3.236 -2.0410  0.2231 -2.4209
  927THF    H1214400   0.652   3.748   3.066 -0.1810 -3.6235  2.9517
  927THF    H1314401   0.557   3.686   3.196  1.4387 -4.0831  1.6676
  928THF     O114402   5.356   1.488   3.547  0.2818 -1.0079 -0.1545
  928THF     C214403   5.401   1.355   3.515 -0.3289  0.2625 -0.0866
  928THF     C314404   5.352   1.573   3.433  0.3494 -0.7063  0.5309
  928THF     H414405   5.380   1.284   3.594  1.4201  0.9502  0.5135
  928THF     H514406   5.514   1.355   3.516  0.9147  0.9179  4.0684
  928THF     H614407   5.260   1.629   3.443 -0.0224  2.1665  1.2172
  928THF     H714408   5.435   1.638   3.428 -0.0552  0.0997 -0.0112
  928THF     C814409   5.342   1.476   3.317  0.1374 -0.1946 -0.0307
  928THF     C914410   5.325   1.337   3.384 -0.0340  0.3819 -0.3301
  928THF    H1014411   5.444   1.476   3.271  3.5254 -3.0211 -4.1327
  928THF    H1114412   5.265   1.514   3.250 -1.9564  0.4857  1.7708
  928THF    H1214413   5.221   1.304   3.395  0.3261  0.0517 -1.6887
  928THF    H1314414   5.378   1.261   3.322  1.6601 -0.7697  1.0824
  929THF     O114415   1.553   0.012   2.072 -0.4143  0.1629 -0.3710
  929THF     C214416   1.503  -0.129   2.073 -0.1987 -0.5449 -0.6113
  929THF     C314417   1.684   0.013   2.017  0.0832  0.4207 -0.3703
  929THF     H414418   1.396  -0.142   2.084 -1.4771  0.3446  0.3476
  929THF     H514419   1.555  -0.183   2.148 -1.1043  1.6555 -0.2004
  929THF     H614420   1.714   0.113   1.982 -1.8959 -0.4899  0.1849
  929THF     H714421   1.747  -0.023   2.102 -1.9340  0.3600  0.6054
  929THF     C814422   1.677  -0.107   1.917 -0.7342  0.3643  0.2992
  929THF     C914423   1.548  -0.179   1.943 -0.7729  0.6691  0.2138
  929THF    H1014424   1.765  -0.174   1.918  0.9946 -1.1523  0.7187
  929THF    H1114425   1.671  -0.061   1.823 -0.5199  0.1388  0.6122
  929THF    H1214426   1.474  -0.170   1.872  1.0379 -0.3244 -0.3786
  929THF    H1314427   1.571  -0.285   1.947  0.5288 -1.7544 -0.0585
  930THF     O114428   2.374   3.320   4.268 -0.0539  0.2259  0.4889
  930THF     C214429   2.265   3.408   4.248 -0.1205 -0.4911 -0.5327
  930THF     C314430   2.334   3.231   4.370  0.5561  0.4351 -0.0951
  930THF     H414431   2.186   3.353   4.201  1.0654  1.2371  2.2179
  930THF     H514432   2.283   3.489   4.181  2.0949 -0.6909 -2.1303
  930THF     H614433   2.256   3.158   4.342 -0.9932  0.0070  0.0444
  930THF     H714434   2.417   3.178   4.417 -1.8028  0.1020  2.3882
  930THF     C814435   2.281   3.328   4.473 -0.9200  0.1980 -1.0913
  930THF     C914436   2.239   3.454   4.395 -0.0883  0.3386  0.6451
  930THF    H1014437   2.357   3.363   4.551  1.1781  0.9430  0.8575
  930THF    H1114438   2.201   3.285   4.535  0.0623  0.8439  0.2824
  930THF    H1214439   2.141   3.498   4.403 -0.2791  0.0389  0.1012
  930THF    H1314440   2.306   3.532   4.420  1.3254  1.5907  1.4329
  931THF     O114441   1.499   2.941   1.459  0.1248  0.0885 -0.1975
  931THF     C214442   1.580   2.831   1.449  0.1361 -0.2715  0.5203
  931THF     C314443   1.371   2.892   1.414 -0.6254 -0.5943 -0.2526
  931THF     H414444   1.682   2.848   1.498  1.9614 -1.1056 -0.2248
  931THF     H514445   1.596   2.804   1.345  0.2498 -0.0231  1.3860
  931THF     H614446   1.290   2.959   1.444  1.9594 -1.1509 -1.4530
  931THF     H714447   1.373   2.881   1.312  0.8412  0.1337 -0.9418
  931THF     C814448   1.357   2.755   1.473 -0.1356  0.2840 -0.0398
  931THF     C914449   1.495   2.729   1.522 -0.4695 -0.3587 -0.4618
  931THF    H1014450   1.335   2.681   1.398 -2.0199 -1.2624 -1.7845
  931THF    H1114451   1.293   2.736   1.558  0.2703  3.9661 -0.1508
  931THF    H1214452   1.502   2.739   1.635  0.7050 -0.5759  0.1192
  931THF    H1314453   1.518   2.621   1.518  2.2866 -1.4349 -0.2497
  932THF     O114454   0.806   0.374   1.926 -0.2926  0.0053 -0.0871
  932THF     C214455   0.680   0.412   1.988 -0.0926  0.8055  0.2918
  932THF     C314456   0.808   0.230   1.906  0.5997 -0.7176 -0.6336
  932THF     H414457   0.619   0.455   1.908 -0.5257 -0.6094  1.4799
  932THF     H514458   0.678   0.498   2.055 -0.4790  3.4784 -1.0653
  932THF     H614459   0.838   0.186   1.809 -0.5903 -2.1604  1.4476
  932THF     H714460   0.882   0.192   1.981  2.0563  0.0428 -0.2795
  932THF     C814461   0.670   0.183   1.936 -0.6402 -0.0863  0.1398
  932THF     C914462   0.611   0.277   2.039 -0.0957 -0.2709 -0.1720
  932THF    H1014463   0.665   0.074   1.967 -0.2438  2.0167  0.4801
  932THF    H1114464   0.611   0.183   1.840 -3.2502  0.1781 -0.4579
  932THF    H1214465   0.502   0.286   2.037  1.4134  4.0584 -0.9717
  932THF    H1314466   0.643   0.255   2.137  2.8637  1.2814 -2.1616
  933THF     O114467   5.289   0.214   2.333  0.3727 -0.5626  0.3066
  933THF     C214468   5.255   0.075   2.348 -0.9228  0.2234 -0.2195
  933THF     C314469   5.161   0.280   2.290  0.0516 -0.3032  1.0138
  933THF     H414470   5.199   0.050   2.443 -1.8130 -1.6110 -2.2846
  933THF     H514471   5.352   0.018   2.353  1.5833 -0.1452 -0.8643
  933THF     H614472   5.102   0.316   2.373  0.6488  0.5615 -2.2810
  933THF     H714473   5.190   0.373   2.233  3.8594  2.3404 -2.9962
  933THF     C814474   5.086   0.170   2.211  0.0097  0.3080 -0.2585
  933THF     C914475   5.170   0.051   2.218  0.3124  0.7537 -0.2471
  933THF    H1014476   5.058   0.194   2.107 -2.6924 -0.4863 -0.2354
  933THF    H1114477   4.990   0.148   2.261 -2.3415  1.8189 -1.0818
  933THF    H1214478   5.113  -0.040   2.216  0.9505  1.0155  0.9047
  933THF    H1314479   5.244   0.042   2.133  1.7385  0.2799 -2.2234
  934THF     O114480   3.072   1.064   0.213 -0.1580  0.1928 -0.8347
  934THF     C214481   2.993   1.175   0.176  0.0269  0.0587  0.3028
  934THF     C314482   3.012   1.001   0.325  0.5977  0.5528  0.1749
  934THF     H414483   2.900   1.140   0.123 -3.8348 -0.6150 -1.9687
  934THF     H514484   3.042   1.249   0.109 -0.8988  0.7960 -3.1096
  934THF     H614485   2.934   0.928   0.284 -2.4319 -2.6693 -1.3924
  934THF     H714486   3.102   0.956   0.372 -0.1677  0.2334 -0.2282
  934THF     C814487   2.953   1.122   0.412  0.5074  0.4593 -0.0876
  934THF     C914488   2.959   1.233   0.313 -0.5001 -0.3936  1.0954
  934THF    H1014489   3.017   1.140   0.496 -2.0765  1.1239  2.1575
  934THF    H1114490   2.851   1.110   0.450 -1.7914 -0.0562  0.9702
  934THF    H1214491   2.867   1.294   0.307 -1.2876  2.2485 -1.5152
  934THF    H1314492   3.036   1.301   0.339 -0.4495  1.2233 -1.3157
  935THF     O114493   1.296   4.336   2.374  0.3641 -0.2780 -0.2308
  935THF     C214494   1.157   4.324   2.378  0.4831  0.9501 -0.3647
  935THF     C314495   1.350   4.265   2.266 -0.2323 -0.0830  0.1807
  935THF     H414496   1.104   4.410   2.426 -0.7815 -0.0885 -0.7345
  935THF     H514497   1.117   4.237   2.434  0.4459 -0.7950  1.5739
  935THF     H614498   1.444   4.308   2.233  0.3105 -0.2820 -2.6132
  935THF     H714499   1.368   4.166   2.303 -0.2468 -0.4940  2.2170
  935THF     C814500   1.246   4.274   2.157  0.0282  0.2713  0.2092
  935THF     C914501   1.125   4.337   2.227  0.1465  0.1968 -0.0750
  935THF    H1014502   1.230   4.172   2.115  0.9312 -0.0115  1.4897
  935THF    H1114503   1.285   4.343   2.085  1.6566 -0.3477  1.7780
  935THF    H1214504   1.116   4.446   2.203 -1.0675 -1.2538  0.3716
  935THF    H1314505   1.029   4.289   2.201  0.7511  0.1752  0.1954
  936THF     O114506   3.287   3.447   3.080  0.2143 -0.8673 -0.1954
  936THF     C214507   3.325   3.523   2.963  0.5395 -0.0723 -0.4734
  936THF     C314508   3.245   3.530   3.185  0.3883  0.2948  0.2825
  936THF     H414509   3.322   3.475   2.867 -1.7339  0.3802  0.8304
  936THF     H514510   3.422   3.555   2.989 -2.1007 -2.1425  1.8897
  936THF     H614511   3.185   3.483   3.268  0.0217 -1.8324 -1.4441
  936THF     H714512   3.335   3.575   3.236  2.3565  0.3531  0.8622
  936THF     C814513   3.163   3.634   3.107  0.5405 -0.4752 -0.4393
  936THF     C914514   3.222   3.631   2.966  0.1537 -0.3577 -0.8158
  936THF    H1014515   3.141   3.734   3.155 -1.8165  3.1634 -0.5873
  936THF    H1114516   3.066   3.593   3.089  2.3339 -0.1638  1.1739
  936THF    H1214517   3.142   3.614   2.889  0.9038  0.0833 -1.0724
  936THF    H1314518   3.255   3.730   2.954  1.0662 -0.0790  0.9707
  937THF     O114519   1.494   3.888   1.864 -0.1680 -0.8518 -0.1814
  937THF     C214520   1.485   3.869   1.726  0.1773  0.9301  0.4641
  937THF     C314521   1.555   4.017   1.882 -0.6967  0.5731 -0.1092
  937THF     H414522   1.408   3.801   1.697  0.9417  1.4581  1.4558
  937THF     H514523   1.577   3.831   1.697 -0.9231 -1.2095  1.5791
  937THF     H614524   1.516   4.064   1.975 -0.7981 -2.4446  0.6168
  937THF     H714525   1.659   4.009   1.888 -0.3474 -0.6975  2.1119
  937THF     C814526   1.521   4.101   1.758 -0.1727 -0.4584  0.0800
  937THF     C914527   1.446   4.007   1.667 -0.2646 -0.2577 -0.0952
  937THF    H1014528   1.616   4.132   1.710  3.1239  0.4252  1.0621
  937THF    H1114529   1.463   4.182   1.790  1.5735  0.4102  1.6988
  937THF    H1214530   1.340   4.024   1.658  4.2605 -2.0894  1.2967
  937THF    H1314531   1.484   3.997   1.568 -0.2610 -2.8485  2.7242
  938THF     O114532   2.748   4.761   1.273 -0.0122 -0.7121  0.3650
  938THF     C214533   2.829   4.847   1.357 -0.6656  0.1879 -0.4870
  938THF     C314534   2.774   4.791   1.138 -0.1617  0.1598 -0.4200
  938THF     H414535   2.883   4.801   1.446 -1.9058 -0.5974 -1.3558
  938THF     H514536   2.777   4.929   1.399 -1.6792 -0.3155 -1.1817
  938THF     H614537   2.754   4.701   1.076 -0.7105  0.8166 -0.7676
  938THF     H714538   2.704   4.877   1.123 -0.4398 -1.1587  2.3689
  938THF     C814539   2.919   4.842   1.134 -0.3331  0.1551 -0.1020
  938THF     C914540   2.933   4.908   1.268  0.0210  0.4768  0.8066
  938THF    H1014541   2.928   4.903   1.036 -0.6219 -1.4229 -0.1002
  938THF    H1114542   2.987   4.755   1.128 -1.6593 -0.6772 -1.3131
  938THF    H1214543   3.033   4.890   1.289  0.3155  1.3160  0.2666
  938THF    H1314544   2.923   5.012   1.244 -2.7581  0.6454 -1.7256
  939THF     O114545   5.083   0.273   0.617  0.0207 -0.4820  0.2085
  939THF     C214546   5.067   0.388   0.542 -0.1010  0.1089 -0.1437
  939THF     C314547   4.998   0.281   0.741  0.1657 -0.8393  0.5840
  939THF     H414548   5.059   0.373   0.439 -0.4766  0.3758  1.2501
  939THF     H514549   5.157   0.459   0.545 -0.1639  3.1688  0.7106
  939THF     H614550   4.969   0.185   0.767  0.2669 -0.7201 -0.3523
  939THF     H714551   5.047   0.332   0.824  0.6802  0.6145 -0.0474
  939THF     C814552   4.880   0.366   0.694 -0.5745 -1.1066  0.1279
  939THF     C914553   4.936   0.456   0.586 -0.7640 -0.4847 -0.0853
  939THF    H1014554   4.834   0.424   0.775 -1.4039 -1.3459  0.1152
  939THF    H1114555   4.802   0.306   0.653  1.3648  0.2396 -1.3533
  939THF    H1214556   4.857   0.445   0.512 -1.5938 -0.8204  3.9940
  939THF    H1314557   4.944   0.564   0.612 -0.4664  2.0828  2.2980
  940THF     O114558   4.148   1.720   0.266  0.4694 -0.1165 -0.3231
  940THF     C214559   4.104   1.853   0.286  0.4837  0.1957  0.4198
  940THF     C314560   4.174   1.692   0.130  0.4563  0.0182 -0.6906
  940THF     H414561   4.132   1.888   0.387 -0.2608  1.1140  0.7347
  940THF     H514562   3.996   1.845   0.268 -1.6165  1.1704 -1.6009
  940THF     H614563   4.265   1.630   0.143  0.1618 -1.6180  0.9173
  940THF     H714564   4.105   1.614   0.096  0.7293 -0.8556 -1.0366
  940THF     C814565   4.197   1.825   0.061  0.0125  0.8102  0.5074
  940THF     C914566   4.188   1.922   0.177  0.5155 -0.2478 -0.3474
  940THF    H1014567   4.106   1.843  -0.006 -2.4486  0.6239  0.7101
  940THF    H1114568   4.289   1.835   0.004 -1.8594  2.6347  1.9260
  940THF    H1214569   4.290   1.954   0.196 -0.1791  0.5792  1.1844
  940THF    H1314570   4.142   2.021   0.150  0.0087 -1.5900 -0.0735
  941PF6-    P114571   0.636   4.069   2.441 -0.2807  0.0675 -0.4165
  941PF6-    F214572   0.604   3.917   2.396  0.6465  0.4265 -0.1041
  941PF6-    F314573   0.671   4.217   2.484  0.0540  0.5965 -0.4846
  941PF6-    F414574   0.515   4.129   2.350 -0.2010  0.0341 -0.2506
  941PF6-    F514575   0.758   4.014   2.535 -0.1483  0.2579 -0.1267
  941PF6-    F614576   0.741   4.082   2.317  0.0752  0.0367 -0.3609
  941PF6-    F714577   0.544   4.048   2.569 -0.1957  0.1073 -0.0641
  942PF6-    P114578   4.732   2.247   0.519  0.0193 -0.0372  0.1669
  942PF6-    F214579   4.671   2.329   0.644  0.2477  0.6449  0.8715
  942PF6-    F314580   4.798   2.167   0.398 -0.1079  0.2907  0.2757
  942PF6-    F414581   4.851   2.190   0.609 -0.0263  0.2891  0.4454
  942PF6-    F514582   4.625   2.315   0.418  0.0937 -0.9795 -0.3941
  942PF6-    F614583   4.828   2.376   0.486  0.1777 -0.4673  0.3324
  942PF6-    F714584   4.636   2.123   0.552 -0.2498  0.2113 -0.1878
  943PF6-    P114585   2.979   5.265   2.186 -0.1623  0.2504  0.0789
  943PF6-    F214586   2.902   5.141   2.109 -0.1157  0.3957  0.3771
  943PF6-    F314587   3.048   5.380   2.265  0.2433 -0.1109  0.1045
  943PF6-    F414588   2.970   5.182   2.319  0.5986  0.4971 -0.5103
  943PF6-    F514589   2.994   5.351   2.053 -0.0981  0.2342  0.0787
  943PF6-    F614590   2.841   5.344   2.204  0.5335  0.2168 -0.4924
  943PF6-    F714591   3.129   5.195   2.157 -0.0123 -0.0684  0.0870
  944PF6-    P114592   2.784   0.314   1.141  0.0360  0.8386 -0.1757
  944PF6-    F214593   2.908   0.289   1.044 -0.4781 -0.3744 -0.0878
  944PF6-    F314594   2.660   0.336   1.241 -0.5636 -0.3692  0.0095
  944PF6-    F414595   2.692   0.341   1.010 -0.3158 -0.4375  0.0002
  944PF6-    F514596   2.878   0.276   1.271  0.4053  0.1153  0.4630
  944PF6-    F614597   2.816   0.472   1.155 -0.7940 -0.2416  0.0294
  944PF6-    F714598   2.738   0.163   1.128 -0.3654 -0.3805  0.1635
  945PF6-    P114599   1.136   1.724   2.794  0.1877  0.0167 -0.3497
  945PF6-    F214600   1.207   1.661   2.924  0.4658  0.4342  0.1050
  945PF6-    F314601   1.063   1.788   2.664 -0.0743  0.4988 -0.0113
  945PF6-    F414602   1.244   1.648   2.700  0.8785 -0.2327 -0.3958
  945PF6-    F514603   1.034   1.806   2.890  0.4853  0.0104  0.1107
  945PF6-    F614604   1.237   1.850   2.799  0.4292  0.3920 -0.2384
  945PF6-    F714605   1.040   1.595   2.784 -0.2643  0.1147  0.2779
  946PF6-    P114606   0.566   0.372   3.954  0.3401  0.3692 -0.1870
  946PF6-    F214607   0.667   0.486   4.006  0.2386 -0.2342  0.3701
  946PF6-    F314608   0.459   0.264   3.902  0.3356 -0.5093  0.1138
  946PF6-    F414609   0.653   0.350   3.822  0.1358  0.0889 -0.2242
  946PF6-    F514610   0.478   0.388   4.087 -0.6583  0.1869  0.0486
  946PF6-    F614611   0.482   0.482   3.882  0.3690 -0.4693  0.6517
  946PF6-    F714612   0.657   0.263   4.019 -0.0052  0.5365  0.6225
  947PF6-    P114613   5.152   1.401   0.022 -0.0950 -0.0634 -0.0819
  947PF6-    F214614   5.197   1.509  -0.083  0.0050  0.1796  0.0063
  947PF6-    F314615   5.097   1.295   0.126 -0.2784  0.6063 -0.2700
  947PF6-    F414616   5.280   1.312  -0.018 -0.4602  0.0910 -0.1245
  947PF6-    F514617   5.028   1.494   0.051  0.0009 -0.1490 -0.0305
  947PF6-    F614618   5.064   1.327  -0.089  0.0794  0.4624 -0.4050
  947PF6-    F714619   5.240   1.471   0.141 -0.5202 -0.1111 -0.0919
  948PF6-    P114620   2.370   3.834   1.437 -0.4367  0.0887 -0.0984
  948PF6-    F214621   2.388   3.930   1.570 -0.1034 -0.2549  0.0655
  948PF6-    F314622   2.348   3.744   1.307 -0.3570 -0.3878  0.2026
  948PF6-    F414623   2.424   3.705   1.517 -0.2135  0.0663 -0.0343
  948PF6-    F514624   2.320   3.963   1.350  0.2259 -0.0607  0.1902
  948PF6-    F614625   2.517   3.874   1.393  0.0517 -0.4314 -0.1993
  948PF6-    F714626   2.216   3.797   1.477 -0.6061 -0.6455 -0.0254
  949PF6-    P114627   3.400   5.046   4.966  0.5348 -0.6876  0.1815
  949PF6-    F214628   3.540   4.981   4.938 -0.4460 -0.2518  0.1963
  949PF6-    F314629   3.257   5.117   4.988  0.5681 -0.0831 -0.3712
  949PF6-    F414630   3.336   4.903   4.955  0.1971 -0.1947 -0.2921
  949PF6-    F514631   3.467   5.192   4.969  0.3676 -0.1274  0.4379
  949PF6-    F614632   3.382   5.059   4.811  0.0066  0.1533  0.0661
  949PF6-    F714633   3.414   5.032   5.124  0.6658  0.2976  0.1934
  950PF6-    P114634   3.261   1.963   0.536 -0.3842 -0.1995  0.4737
  950PF6-    F214635   3.409   1.990   0.590  0.4624  0.3715 -0.7110
  950PF6-    F314636   3.109   1.930   0.482 -0.1835 -0.1279  0.0002
  950PF6-    F414637   3.241   2.120   0.522  0.2447  0.9511 -0.2678
  950PF6-    F514638   3.286   1.804   0.557  0.0993  0.0458  0.2343
  950PF6-    F614639   3.202   1.978   0.687 -0.1841  0.4295  0.2114
  950PF6-    F714640   3.321   1.955   0.383  0.0652  0.0300  0.2870
  951PF6-    P114641   0.474   3.237   4.238  0.3006  0.3083 -0.0959
  951PF6-    F214642   0.602   3.267   4.146 -0.2776  0.1453  0.1787
  951PF6-    F314643   0.340   3.204   4.332 -0.5001 -0.1425 -0.1171
  951PF6-    F414644   0.522   3.090   4.269 -0.3577 -0.0222 -0.1001
  951PF6-    F514645   0.417   3.383   4.205  0.7732 -0.0933  0.0137
  951PF6-    F614646   0.398   3.192   4.114 -0.3044  0.5251 -0.4770
  951PF6-    F714647   0.542   3.292   4.370  0.7651  0.2041 -0.1150
  952PF6-    P114648   1.716   4.354   3.547  0.7727  0.7516 -0.4001
  952PF6-    F214649   1.701   4.262   3.416  0.0380 -0.3346  0.1029
  952PF6-    F314650   1.725   4.444   3.682  0.7277  0.0986  0.1973
  952PF6-    F414651   1.850   4.274   3.587  0.2889  0.1097 -0.3286
  952PF6-    F514652   1.585   4.438   3.511  0.4401  0.6294  0.2190
  952PF6-    F614653   1.616   4.251   3.628  0.1962 -0.1766 -0.5557
  952PF6-    F714654   1.799   4.466   3.465  0.0369  0.0872 -0.2494
  953PF6-    P114655   3.242   4.015   0.756  0.2565  0.6904 -0.1612
  953PF6-    F214656   3.272   4.170   0.747  0.4766  0.3854  0.0657
  953PF6-    F314657   3.225   3.858   0.775 -0.2073 -0.4061 -0.0943
  953PF6-    F414658   3.088   4.037   0.795 -0.0103 -0.2461  0.0088
  953PF6-    F514659   3.394   3.988   0.712 -0.5361 -0.9555  0.0242
  953PF6-    F614660   3.279   4.023   0.914  0.3657  0.2720 -0.2609
  953PF6-    F714661   3.205   4.017   0.600  0.1981  0.1355 -0.2047
  954PF6-    P114662   3.957   0.416   1.697 -0.1614 -0.1618  0.3137
  954PF6-    F214663   4.010   0.292   1.783 -0.2634 -0.0079  0.1302
  954PF6-    F314664   3.907   0.534   1.601  0.1644 -0.6603 -0.3944
  954PF6-    F414665   3.913   0.494   1.827 -0.0312  0.8549 -0.4421
  954PF6-    F514666   4.015   0.347   1.566 -0.0277 -0.4472  0.2837
  954PF6-    F614667   3.818   0.337   1.687 -0.4441 -0.2908 -0.3049
  954PF6-    F714668   4.101   0.487   1.713 -0.4515  0.4059 -0.1071
  955PF6-    P114669   5.236   3.191   3.230  0.5969  0.2844  0.1698
  955PF6-    F214670   5.083   3.150   3.198  0.2889 -0.3045 -0.1357
  955PF6-    F314671   5.389   3.220   3.263 -0.2160 -0.3642 -0.0615
  955PF6-    F414672   5.286   3.053   3.152  0.1747  0.1138 -0.3017
  955PF6-    F514673   5.181   3.317   3.305  0.7053 -0.1674  0.6406
  955PF6-    F614674   5.229   3.098   3.365 -0.3898 -0.4586  0.0392
  955PF6-    F714675   5.252   3.277   3.091  0.3201  0.2413  0.2910
  956PF6-    P114676   2.455   4.853   3.878  0.0356  0.1745  0.1549
  956PF6-    F214677   2.297   4.863   3.914  0.1194  0.2284  0.0976
  956PF6-    F314678   2.609   4.849   3.834  0.2967 -0.1453 -0.4254
  956PF6-    F414679   2.419   4.931   3.742  0.5138  0.2567 -0.4492
  956PF6-    F514680   2.493   4.774   4.010  0.1121 -0.5881  0.2403
  956PF6-    F614681   2.421   4.712   3.813 -0.0730  0.0712  0.3195
  956PF6-    F714682   2.479   4.993   3.950 -0.1494  0.6548 -0.3498
  957PF6-    P114683   2.581   1.816   4.293  0.0739 -0.3163 -0.0884
  957PF6-    F214684   2.596   1.656   4.310  0.2759 -0.2118  0.2564
  957PF6-    F314685   2.567   1.972   4.270  0.2899 -0.4908  0.4718
  957PF6-    F414686   2.432   1.790   4.228 -0.3308  0.1452 -0.4869
  957PF6-    F514687   2.723   1.835   4.357 -0.0196  0.0500 -0.5290
  957PF6-    F614688   2.654   1.800   4.149  0.1864 -0.2526  0.0731
  957PF6-    F714689   2.513   1.830   4.440  0.0593  0.1858 -0.3008
  958PF6-    P114690   0.590   4.544   0.915  0.2633 -0.3504 -0.0333
  958PF6-    F214691   0.507   4.666   0.979 -0.0444 -0.5312  0.2992
  958PF6-    F314692   0.673   4.421   0.850  0.0075 -0.4058  0.0091
  958PF6-    F414693   0.507   4.435   0.997 -0.0823 -0.0982 -1.0347
  958PF6-    F514694   0.666   4.653   0.829  0.0324  0.0383  0.6069
  958PF6-    F614695   0.698   4.555   1.028 -0.0292  0.3093 -0.2347
  958PF6-    F714696   0.481   4.530   0.801  0.4116  0.3117  0.2634
  959PF6-    P114697   2.627   4.023   4.763  0.0957  0.0552  0.1304
  959PF6-    F214698   2.666   4.170   4.814 -0.2651  0.3397  0.1679
  959PF6-    F314699   2.605   3.875   4.708 -0.2034  0.4526 -0.4380
  959PF6-    F414700   2.572   4.074   4.622 -0.4121  0.1533  0.3150
  959PF6-    F514701   2.687   3.964   4.901  0.2155 -0.5737  0.7040
  959PF6-    F614702   2.485   4.036   4.836  0.4681  0.2815 -0.4181
  959PF6-    F714703   2.777   4.018   4.702 -0.2951  0.3680 -0.2148
  960PF6-    P114704   1.074   0.070   0.285 -0.2647  0.1570  0.3559
  960PF6-    F214705   1.214  -0.004   0.246  0.3782 -0.0098  0.0441
  960PF6-    F314706   0.932   0.137   0.325 -0.0560 -0.5788  0.1809
  960PF6-    F414707   1.091   0.012   0.432  0.0989  0.3057 -0.2259
  960PF6-    F514708   1.068   0.124   0.136  0.0439 -0.2526 -0.8415
  960PF6-    F614709   0.995  -0.059   0.237  0.3860 -0.1498 -0.6160
  960PF6-    F714710   1.149   0.202   0.327 -0.0716  0.1011  0.0689
  961PF6-    P114711   1.094   1.998   5.053 -0.3205  0.1507  0.2418
  961PF6-    F214712   1.104   1.932   5.196 -0.1280 -0.3781  0.3310
  961PF6-    F314713   1.089   2.064   4.901 -0.0726 -0.0314  0.2704
  961PF6-    F414714   1.043   2.134   5.110 -0.3424  0.5529 -0.1710
  961PF6-    F514715   1.146   1.860   4.991 -0.5106  0.5357  0.2366
  961PF6-    F614716   0.941   1.954   5.034  0.4100  0.1867 -0.1006
  961PF6-    F714717   1.248   2.043   5.072 -0.1059 -0.3171 -0.4614
  962PF6-    P114718   2.345   4.082   0.839 -0.0864  0.2091 -0.2661
  962PF6-    F214719   2.185   4.077   0.886 -0.3768 -0.0578  0.2645
  962PF6-    F314720   2.498   4.094   0.799  0.0988 -0.3447 -0.4155
  962PF6-    F414721   2.303   4.215   0.760 -0.3950 -0.3735 -0.1811
  962PF6-    F514722   2.373   3.946   0.919  0.6199  0.0013 -0.0337
  962PF6-    F614723   2.310   4.001   0.710  0.5521 -0.1550  0.3002
  962PF6-    F714724   2.381   4.169   0.971 -0.5003  0.2169  0.0209
  963PF6-    P114725   3.404   3.729   3.642  0.0910 -0.2036 -0.0089
  963PF6-    F214726   3.336   3.597   3.712 -0.1201  0.6739  0.1616
  963PF6-    F314727   3.481   3.854   3.570  0.0276  0.4371 -0.4756
  963PF6-    F414728   3.490   3.746   3.785 -0.2273 -0.2098 -0.2323
  963PF6-    F514729   3.322   3.701   3.510  0.6037  0.0243 -0.1825
  963PF6-    F614730   3.288   3.818   3.706 -0.0382  0.7536  0.5986
  963PF6-    F714731   3.515   3.634   3.583 -0.4310  0.1213 -0.4263
  964PF6-    P114732   1.429   0.221   4.729  0.6154 -0.1686 -0.0116
  964PF6-    F214733   1.539   0.245   4.842  0.2858 -0.0412 -0.4697
  964PF6-    F314734   1.319   0.211   4.616  0.2922 -0.0038 -0.3302
  964PF6-    F414735   1.537   0.231   4.613  0.2207 -0.5800  0.1283
  964PF6-    F514736   1.314   0.207   4.836 -0.0273  0.3225 -1.1350
  964PF6-    F614737   1.413   0.384   4.726 -0.4364  0.7625  0.1552
  964PF6-    F714738   1.444   0.065   4.737  0.1053  0.4708 -0.0166
  965PF6-    P114739   0.181   4.885   4.053  0.5695 -0.1718  0.1162
  965PF6-    F214740   0.241   4.867   4.197  0.0658 -0.2879 -0.2451
  965PF6-    F314741   0.117   4.901   3.907  0.1326  0.5955 -0.2642
  965PF6-    F414742   0.039   4.875   4.128 -0.2403  0.6135 -0.5253
  965PF6-    F514743   0.327   4.897   3.996 -0.1577 -0.5862 -0.5750
  965PF6-    F614744   0.179   4.724   4.027  0.0702 -0.0340 -0.2912
  965PF6-    F714745   0.180   5.041   4.076 -0.4714 -0.4453  0.2085
  966PF6-    P114746   1.894   3.366   0.575  0.6025  0.1880 -0.2536
  966PF6-    F214747   1.950   3.316   0.430 -0.3572 -0.4543  0.2845
  966PF6-    F314748   1.833   3.413   0.718 -0.0959  0.1659 -0.3591
  966PF6-    F414749   1.991   3.260   0.653 -0.0512 -0.3923  0.4564
  966PF6-    F514750   1.787   3.464   0.502  0.2292  0.4070 -0.1579
  966PF6-    F614751   1.779   3.251   0.574 -0.3517 -0.0624  0.5580
  966PF6-    F714752   1.998   3.479   0.583 -0.1838 -0.0762  0.4164
  967PF6-    P114753   2.054   2.684   1.516  0.0315 -0.0708 -0.0722
  967PF6-    F214754   2.062   2.676   1.678  0.1083 -0.4781 -0.1655
  967PF6-    F314755   2.057   2.689   1.360 -0.0516  0.1076 -0.7141
  967PF6-    F414756   2.152   2.803   1.524 -0.4581 -0.4524 -0.0004
  967PF6-    F514757   1.951   2.563   1.505 -0.0054  0.3860  0.3365
  967PF6-    F614758   1.936   2.790   1.537 -0.3647  0.4994  0.4434
  967PF6-    F714759   2.182   2.581   1.509 -0.0810  0.1600 -0.2267
  968PF6-    P114760   4.670   2.629   2.055  0.0476 -0.2234  0.2445
  968PF6-    F214761   4.826   2.593   2.033  0.2100  0.0409  0.1739
  968PF6-    F314762   4.512   2.669   2.073 -0.1059  0.1338 -0.3444
  968PF6-    F414763   4.661   2.523   2.172  0.9681 -0.1919 -0.5814
  968PF6-    F514764   4.680   2.737   1.939  0.1849 -0.4541  0.4108
  968PF6-    F614765   4.627   2.526   1.946 -0.6015  0.2425  0.8691
  968PF6-    F714766   4.713   2.736   2.166 -0.6172 -0.0314  0.4263
  969PF6-    P114767   5.227   2.296   1.206  0.0170  0.3641 -0.3283
  969PF6-    F214768   5.218   2.454   1.210 -0.2978 -0.1011  0.5398
  969PF6-    F314769   5.235   2.132   1.198 -0.4905 -0.1988  0.0197
  969PF6-    F414770   5.096   2.292   1.104 -0.5631  0.2219  0.0601
  969PF6-    F514771   5.361   2.296   1.299  0.4583  0.0275 -0.6112
  969PF6-    F614772   5.126   2.283   1.331  0.3288 -0.1215 -0.0162
  969PF6-    F714773   5.328   2.299   1.084 -0.6012 -0.0915 -0.0747
  970PF6-    P114774   4.554   4.725   3.691 -0.0838  0.1269  0.1956
  970PF6-    F214775   4.463   4.607   3.638 -0.1345 -0.2796 -0.4855
  970PF6-    F314776   4.651   4.845   3.747  0.4268 -0.1593 -0.4366
  970PF6-    F414777   4.442   4.834   3.668 -0.0061 -0.0744 -0.5072
  970PF6-    F514778   4.666   4.615   3.716  0.0383 -0.2095  0.4109
  970PF6-    F614779   4.611   4.753   3.542 -0.3814 -0.1885  0.3022
  970PF6-    F714780   4.494   4.693   3.841 -0.2636  0.1355  0.2514
  971PF6-    P114781   4.742   4.019   2.724  0.1419 -0.0785 -0.1736
  971PF6-    F214782   4.818   3.927   2.834 -0.7253 -0.7000 -0.6433
  971PF6-    F314783   4.669   4.113   2.614 -0.6711 -0.1605 -0.4800
  971PF6-    F414784   4.885   4.088   2.679 -0.1209  0.1962  0.2159
  971PF6-    F514785   4.599   3.950   2.771 -0.1960 -0.1219  0.2567
  971PF6-    F614786   4.711   4.133   2.835  0.1027  0.4294 -0.1403
  971PF6-    F714787   4.758   3.899   2.616  0.3133  0.0602 -0.0785
  972PF6-    P114788   3.361   0.402   3.065  0.0226  0.2084 -0.4930
  972PF6-    F214789   3.352   0.542   3.138  0.4815 -0.3435  0.3892
  972PF6-    F314790   3.371   0.255   2.999  0.3963  0.0388  0.1737
  972PF6-    F414791   3.517   0.439   3.027  0.1295  0.2177  0.4628
  972PF6-    F514792   3.204   0.378   3.095 -0.7412 -0.1904 -0.1034
  972PF6-    F614793   3.312   0.468   2.928  0.0892  0.0554 -0.7888
  972PF6-    F714794   3.408   0.334   3.199  0.3979  0.1606  0.7561
  973PF6-    P114795   5.203   3.383   2.182  0.0953 -0.0989 -0.0578
  973PF6-    F214796   5.159   3.515   2.097 -0.5231  0.8539  0.2714
  973PF6-    F314797   5.246   3.250   2.273  0.0003 -0.8332  0.3846
  973PF6-    F414798   5.347   3.380   2.117 -0.2334 -0.1549 -0.3053
  973PF6-    F514799   5.060   3.385   2.248 -0.3359 -0.8111  0.0292
  973PF6-    F614800   5.158   3.287   2.064  0.1313  0.0982 -0.4819
  973PF6-    F714801   5.250   3.483   2.295 -0.1087  0.1907 -0.5477
  974PF6-    P114802   0.217   0.528   2.099  0.0942 -0.5220  0.3213
  974PF6-    F214803   0.261   0.539   2.255  0.2844  0.5467  0.0587
  974PF6-    F314804   0.171   0.517   1.942 -0.3378 -0.1502 -0.3772
  974PF6-    F414805   0.204   0.682   2.089  0.0042 -0.2906  0.3213
  974PF6-    F514806   0.237   0.367   2.107  0.6076 -0.2575 -0.3066
  974PF6-    F614807   0.066   0.522   2.145  0.7564  0.3189  0.5476
  974PF6-    F714808   0.370   0.528   2.046  0.5751 -0.0218 -0.0425
  975PF6-    P114809   1.230   3.520   0.032 -0.1158  0.4560  0.1191
  975PF6-    F214810   1.085   3.464   0.069 -0.1695  0.0313 -0.0040
  975PF6-    F314811   1.375   3.572  -0.001 -0.1595  0.6983  0.3908
  975PF6-    F414812   1.173   3.664   0.060 -0.1499 -0.6122 -0.1837
  975PF6-    F514813   1.289   3.373   0.005  0.4300  0.2574  0.8289
  975PF6-    F614814   1.179   3.519  -0.120  0.1443 -0.4858  0.9775
  975PF6-    F714815   1.263   3.510   0.194  0.6898 -0.2525  0.2925
  976PF6-    P114816   3.020   2.590   3.261  0.5417  0.3709 -0.1683
  976PF6-    F214817   3.073   2.560   3.409  0.7118 -0.4499 -0.1567
  976PF6-    F314818   2.958   2.623   3.121 -0.1720 -0.2750  0.3687
  976PF6-    F414819   2.910   2.469   3.271  0.2407  0.1623 -0.5681
  976PF6-    F514820   3.124   2.714   3.256  0.2337 -0.0235  0.1495
  976PF6-    F614821   3.130   2.490   3.202 -0.3862  0.2471 -0.3207
  976PF6-    F714822   2.917   2.692   3.327  0.6557  0.1542  0.0851
  977PF6-    P114823   4.815   0.817   2.147  0.0027 -0.5925  0.2246
  977PF6-    F214824   4.699   0.761   2.239  0.0266  0.5778 -0.2427
  977PF6-    F314825   4.937   0.875   2.054 -0.5123 -0.3538 -0.3354
  977PF6-    F414826   4.874   0.889   2.276 -0.2581 -0.2819 -0.2833
  977PF6-    F514827   4.753   0.741   2.019  0.3579 -0.0656 -0.2107
  977PF6-    F614828   4.726   0.949   2.121 -0.2666 -0.0372  0.1997
  977PF6-    F714829   4.909   0.688   2.181  0.0575  0.2059 -0.2700
  978PF6-    P114830   1.798   5.023   2.150 -0.3787  0.3124  0.0284
  978PF6-    F214831   1.852   5.076   2.007 -0.0598  0.0795 -0.5200
  978PF6-    F314832   1.761   4.979   2.298 -0.5305  0.0951  0.2467
  978PF6-    F414833   1.650   4.992   2.091  0.3002  0.1512 -0.3257
  978PF6-    F514834   1.944   5.053   2.208 -0.0371 -0.2227  0.9944
  978PF6-    F614835   1.755   5.172   2.188 -0.3920  0.2113  0.6105
  978PF6-    F714836   1.844   4.874   2.107  0.2469 -0.3896 -0.5612
  979PF6-    P114837   2.018   4.722   5.485 -0.5064  0.2284 -0.3753
  979PF6-    F214838   2.040   4.652   5.632 -0.2467  0.4927  0.1704
  979PF6-    F314839   1.987   4.788   5.348  0.5099 -0.2131 -0.1176
  979PF6-    F414840   1.864   4.744   5.518  0.3438  0.1606  0.0563
  979PF6-    F514841   2.175   4.712   5.456  0.1770 -0.1607 -0.1323
  979PF6-    F614842   1.990   4.581   5.416 -0.3432 -0.0373  0.1132
  979PF6-    F714843   2.043   4.864   5.555 -0.6476  0.0035  0.2846
  980PF6-    P114844   2.984   0.587   2.016  0.3493 -0.7564 -0.3248
  980PF6-    F214845   2.850   0.643   1.942 -0.1423 -0.0724 -0.1840
  980PF6-    F314846   3.108   0.532   2.102 -0.7482 -0.1550 -0.6132
  980PF6-    F414847   3.002   0.467   1.908  0.1480 -0.1847 -0.4871
  980PF6-    F514848   2.971   0.707   2.124  0.0051 -0.0718  0.6990
  980PF6-    F614849   2.890   0.504   2.116  0.0685  0.7271  0.2043
  980PF6-    F714850   3.081   0.681   1.922 -0.4328 -0.1583  0.3929
  981PF6-    P114851   4.969   0.755   2.818 -0.2458  0.3808  0.0385
  981PF6-    F214852   5.078   0.783   2.931 -0.1382  0.1877 -0.2841
  981PF6-    F314853   4.858   0.720   2.711  0.1308  0.2060  0.1246
  981PF6-    F414854   4.874   0.705   2.934 -0.4766  0.0829  0.4715
  981PF6-    F514855   5.066   0.807   2.704  0.0742 -0.2494  0.5108
  981PF6-    F614856   5.026   0.603   2.796 -0.4188  0.0679 -0.0810
  981PF6-    F714857   4.907   0.909   2.825 -0.2312  0.4324 -0.0712
  982PF6-    P114858   2.545   2.671   5.019 -0.1325 -0.0883  0.3271
  982PF6-    F214859   2.542   2.615   4.874  0.0941  0.2606 -0.0259
  982PF6-    F314860   2.563   2.732   5.165  0.2439 -0.6120 -0.0709
  982PF6-    F414861   2.648   2.555   5.058  0.2904 -0.0043  0.3523
  982PF6-    F514862   2.449   2.788   4.986  0.1075 -0.4109  0.1731
  982PF6-    F614863   2.422   2.577   5.062  0.1234  0.0820 -0.1998
  982PF6-    F714864   2.671   2.766   4.972 -0.2964  0.2205  0.0707
  983PF6-    P114865   3.836   0.366   0.365  0.0278 -0.1565  0.1996
  983PF6-    F214866   3.772   0.439   0.493  0.5339  0.1407 -0.4425
  983PF6-    F314867   3.909   0.304   0.241  0.5970  0.2299  0.2764
  983PF6-    F414868   3.959   0.459   0.386  0.5813 -0.2820 -0.0001
  983PF6-    F514869   3.711   0.275   0.336 -0.4291  0.1939  0.1516
  983PF6-    F614870   3.772   0.481   0.271 -0.0399  0.2047  0.4536
  983PF6-    F714871   3.899   0.254   0.459 -0.4564 -0.7517  0.5175
  984PF6-    P114872   1.660   1.185   5.305  0.5134 -0.4708 -0.2072
  984PF6-    F214873   1.702   1.311   5.386  0.1645 -0.1595 -0.2009
  984PF6-    F314874   1.622   1.056   5.216 -0.1222 -0.1275 -0.2726
  984PF6-    F414875   1.507   1.222   5.320 -0.1998  0.0812  0.0814
  984PF6-    F514876   1.815   1.153   5.302 -0.4927  0.0955  0.1369
  984PF6-    F614877   1.642   1.097   5.439 -0.2270 -0.5624  0.3866
  984PF6-    F714878   1.678   1.267   5.172 -0.1911  0.1015  0.2407
  985PF6-    P114879   3.892   1.171   0.903 -0.1143 -0.0871  0.5623
  985PF6-    F214880   3.962   1.140   0.764 -0.6143 -0.2854  0.3871
  985PF6-    F314881   3.807   1.203   1.037 -0.1089 -0.0119 -0.0182
  985PF6-    F414882   4.024   1.167   0.988 -0.3533 -0.1533 -0.0853
  985PF6-    F514883   3.752   1.178   0.831 -0.8297  0.2235 -0.2189
  985PF6-    F614884   3.875   1.019   0.935 -0.1841  0.3259 -0.3481
  985PF6-    F714885   3.907   1.329   0.890 -0.1965 -0.1343 -0.5149
  986PF6-    P114886   4.861   1.752   3.133 -0.1192  0.0840 -0.0384
  986PF6-    F214887   4.786   1.646   3.048  0.3919 -0.0607  0.2589
  986PF6-    F314888   4.942   1.862   3.212  0.3713  0.2564  0.6677
  986PF6-    F414889   4.820   1.869   3.027 -0.3693  0.4207 -0.1721
  986PF6-    F514890   4.899   1.643   3.241 -0.2811  0.4863  0.4500
  986PF6-    F614891   4.985   1.717   3.047  0.2087  0.5409 -0.2847
  986PF6-    F714892   4.733   1.792   3.219  0.3729  0.0616  0.5709
  987PF6-    P114893   1.429   2.332   0.306 -0.1855 -0.5005  0.0681
  987PF6-    F214894   1.463   2.372   0.159 -0.3669  0.1132 -0.0148
  987PF6-    F314895   1.402   2.297   0.457  0.6466 -0.0154 -0.1098
  987PF6-    F414896   1.348   2.204   0.259  0.2597  0.0132  0.5145
  987PF6-    F514897   1.508   2.462   0.353 -0.4855 -0.1361  0.1173
  987PF6-    F614898   1.299   2.415   0.301 -0.3329 -0.6282 -0.3273
  987PF6-    F714899   1.569   2.246   0.318 -0.2079 -0.2344 -0.5346
  988PF6-    P114900   2.475   0.103   0.123 -0.6987 -0.0177  0.2538
  988PF6-    F214901   2.500   0.000   0.003 -0.1760  0.1181 -0.1475
  988PF6-    F314902   2.440   0.202   0.241  0.1872  0.0878 -0.4234
  988PF6-    F414903   2.397  -0.018   0.201 -0.3225  0.2739 -0.1490
  988PF6-    F514904   2.561   0.210   0.048 -0.4217 -0.3481 -0.4843
  988PF6-    F614905   2.339   0.154   0.046  0.1182 -0.2524  0.4717
  988PF6-    F714906   2.608   0.056   0.200 -0.0377 -0.0607  0.2071
  989PF6-    P114907   5.064   1.822   4.205  0.1553  0.0326 -0.3830
  989PF6-    F214908   5.130   1.750   4.081  0.5302 -0.7910  0.2665
  989PF6-    F314909   4.991   1.890   4.332 -0.4005 -0.2454 -0.5556
  989PF6-    F414910   4.956   1.882   4.102 -0.3974  0.0293  0.3482
  989PF6-    F514911   5.182   1.755   4.293 -0.2794  0.4586 -0.2430
  989PF6-    F614912   5.152   1.955   4.181 -0.6754 -0.1610  0.7147
  989PF6-    F714913   4.975   1.689   4.211 -0.0466 -0.0170 -0.0734
  990PF6-    P114914   4.901   3.819   0.298  0.0583  0.1922 -0.1271
  990PF6-    F214915   4.957   3.861   0.153 -0.2872  0.6768 -0.0959
  990PF6-    F314916   4.851   3.774   0.442  0.3990  0.1751 -0.1429
  990PF6-    F414917   4.980   3.680   0.284 -0.4030  0.0554  0.1836
  990PF6-    F514918   4.827   3.962   0.305  0.0517 -0.1533  0.4498
  990PF6-    F614919   4.770   3.758   0.226 -0.3742  0.2469  0.2100
  990PF6-    F714920   5.034   3.890   0.351  0.3662 -0.4694 -0.0055
  991PF6-    P114921   1.886   4.214   2.119  0.1440 -0.0758  0.3649
  991PF6-    F214922   1.865   4.200   2.279 -0.2382 -0.4123 -0.0621
  991PF6-    F314923   1.896   4.237   1.959  0.4921 -0.4349 -0.2112
  991PF6-    F414924   1.875   4.373   2.148  0.0157  0.0410  0.6572
  991PF6-    F514925   1.885   4.057   2.101 -0.0985  0.0125 -0.1195
  991PF6-    F614926   1.726   4.205   2.108 -0.1964 -0.3922  0.3614
  991PF6-    F714927   2.051   4.218   2.136  0.0489 -0.3784  0.2106
  992PF6-    P114928   2.293   2.486   4.102  0.0007 -0.0435 -0.0914
  992PF6-    F214929   2.208   2.438   4.224  0.0170  0.0441 -0.4003
  992PF6-    F314930   2.390   2.527   3.980 -0.0232 -0.1868 -0.3690
  992PF6-    F414931   2.227   2.370   4.016 -0.3819  0.4903 -0.0245
  992PF6-    F514932   2.355   2.603   4.192  0.1748  0.1878  0.4173
  992PF6-    F614933   2.408   2.383   4.148  0.4869 -0.4983  0.2460
  992PF6-    F714934   2.184   2.592   4.055  0.0550  0.3645 -0.1437
  993PF6-    P114935   3.380   1.544   4.971  0.2113 -0.0859 -0.1111
  993PF6-    F214936   3.465   1.469   4.856  0.2906 -0.3321  0.1441
  993PF6-    F314937   3.298   1.618   5.083 -0.3389 -0.5225  0.4514
  993PF6-    F414938   3.511   1.556   5.062  0.2041 -0.1002 -0.7646
  993PF6-    F514939   3.242   1.537   4.886 -0.1209 -0.0942 -0.3023
  993PF6-    F614940   3.350   1.402   5.037 -0.2621  0.2044  0.2365
  993PF6-    F714941   3.412   1.685   4.906 -0.0505 -0.5731  0.1734
  994PF6-    P114942   1.211   1.240   3.663 -0.0288 -0.0151  0.1651
  994PF6-    F214943   1.362   1.275   3.631 -0.1114  0.8853  0.3404
  994PF6-    F314944   1.052   1.209   3.693  0.1462 -0.9349 -0.2707
  994PF6-    F414945   1.205   1.371   3.750  0.5985  0.0215  0.2949
  994PF6-    F514946   1.218   1.111   3.570  0.1903  0.2153 -0.0896
  994PF6-    F614947   1.259   1.158   3.788  0.3848  0.1743  0.8512
  994PF6-    F714948   1.169   1.320   3.528  0.2816  0.3996  0.2945
  995PF6-    P114949   0.398   2.263   2.374  0.1988  0.3589  0.3055
  995PF6-    F214950   0.455   2.337   2.500  0.3233  0.0051 -0.1364
  995PF6-    F314951   0.340   2.186   2.243  0.1279 -0.5284 -0.0332
  995PF6-    F414952   0.345   2.403   2.316  0.1235  0.0180 -0.6462
  995PF6-    F514953   0.453   2.123   2.433 -0.3436  0.1215  0.5960
  995PF6-    F614954   0.257   2.243   2.452 -0.1769  0.1485  0.0819
  995PF6-    F714955   0.538   2.285   2.300  0.0287  0.3734 -0.5826
  996PF6-    P114956   3.912   2.034   3.670 -0.5233  0.3581  0.0444
  996PF6-    F214957   4.053   1.972   3.681 -0.1196  0.4798  0.4539
  996PF6-    F314958   3.764   2.094   3.664 -0.0501  0.0761  0.5358
  996PF6-    F414959   3.970   2.152   3.570  0.0160  0.2663  0.2612
  996PF6-    F514960   3.861   1.915   3.770 -0.4384  0.0829 -0.6283
  996PF6-    F614961   3.947   2.127   3.799  0.0121 -0.4051  0.0330
  996PF6-    F714962   3.882   1.945   3.537 -0.2405  0.1848 -1.0246
  997PF6-    P114963   1.218   2.922   3.107 -0.0245  0.0420 -0.5522
  997PF6-    F214964   1.242   2.770   3.164 -0.3192  0.0739  0.4182
  997PF6-    F314965   1.200   3.068   3.042  0.6960 -0.0954  0.2713
  997PF6-    F414966   1.370   2.927   3.054  0.2125 -0.1067 -0.2863
  997PF6-    F514967   1.066   2.924   3.158 -0.6394 -0.2736 -0.2854
  997PF6-    F614968   1.268   2.984   3.245 -0.0180 -0.0386  0.5101
  997PF6-    F714969   1.168   2.850   2.975 -0.0386 -0.2670  0.5385
  998PF6-    P114970   4.462   0.288   4.948 -0.0055  0.5352 -0.0141
  998PF6-    F214971   4.504   0.177   4.841 -0.1306 -0.1904  0.2720
  998PF6-    F314972   4.413   0.397   5.051  0.4534  0.2219  0.1572
  998PF6-    F414973   4.377   0.365   4.834  0.0962  0.4420 -0.3103
  998PF6-    F514974   4.546   0.209   5.072 -0.2532  0.2918  0.5704
  998PF6-    F614975   4.585   0.380   4.908  0.2363  0.1076  0.3192
  998PF6-    F714976   4.333   0.200   4.986  0.1230 -0.2378  0.2468
  999PF6-    P114977   2.557   5.276   3.243  0.3053 -0.4590  0.4534
  999PF6-    F214978   2.522   5.196   3.375 -0.1465  0.0438 -0.7004
  999PF6-    F314979   2.590   5.358   3.107 -0.2373 -0.4696 -0.8206
  999PF6-    F414980   2.396   5.314   3.224 -0.1654  0.6246  0.2161
  999PF6-    F514981   2.714   5.238   3.251 -0.1284 -0.0848 -0.0966
  999PF6-    F614982   2.541   5.144   3.149  0.4805  0.5967  0.5398
  999PF6-    F714983   2.576   5.412   3.323  0.9046  0.2924 -0.1451
 1000PF6-    P114984   2.135   5.320   1.086  0.6448  0.2380 -0.1255
 1000PF6-    F214985   2.067   5.416   1.199  0.3138 -0.0575  0.0571
 1000PF6-    F314986   2.203   5.230   0.974 -0.7399  0.6628  0.3342
 1000PF6-    F414987   2.066   5.418   0.970 -0.2932  0.3300 -0.2820
 1000PF6-    F514988   2.188   5.221   1.204  0.7010  0.0753 -0.0875
 1000PF6-    F614989   2.003   5.219   1.081 -0.2023  0.2936  0.6028
 1000PF6-    F714990   2.262   5.412   1.093 -0.0538  0.1492  0.3457
 1001PF6-    P114991   5.009   5.278   3.379 -0.0110 -0.0275 -0.3662
 1001PF6-    F214992   5.065   5.325   3.236 -0.2907 -0.0255  0.2859
 1001PF6-    F314993   4.956   5.225   3.520  0.2095  0.4427 -0.1222
 1001PF6-    F414994   4.877   5.367   3.369 -0.3782  0.1503 -0.2755
 1001PF6-    F514995   5.147   5.189   3.401  0.2880  0.4686  0.2539
 1001PF6-    F614996   5.083   5.404   3.440  0.0810  0.1109 -0.4274
 1001PF6-    F714997   4.936   5.152   3.304 -0.5186  0.3922  0.1676
 1002PF6-    P114998   1.643   0.213   3.380  0.4559  0.3974  0.1122
 1002PF6-    F214999   1.551   0.122   3.469  0.2759  0.1617 -0.4512
 1002PF6-    F315000   1.741   0.301   3.284 -0.4150 -0.4650  0.7335
 1002PF6-    F415001   1.737   0.079   3.350 -0.0824 -0.0566  0.0863
 1002PF6-    F515002   1.560   0.349   3.410  0.2302 -0.0799 -0.5507
 1002PF6-    F615003   1.730   0.242   3.510  0.1871  0.2848  0.0690
 1002PF6-    F715004   1.553   0.181   3.250  0.1209 -0.0957  0.0790
 1003PF6-    P115005   0.421   1.907   0.208 -0.0772 -0.2019  0.1571
 1003PF6-    F215006   0.507   2.039   0.218 -0.0011 -0.5147 -0.2806
 1003PF6-    F315007   0.325   1.782   0.190 -0.1187  0.4371  0.1949
 1003PF6-    F415008   0.484   1.877   0.067  0.4531 -0.2179  0.4186
 1003PF6-    F515009   0.347   1.932   0.353  0.9472  0.3606  0.2975
 1003PF6-    F615010   0.311   1.998   0.137  1.1916 -0.0665  0.2556
 1003PF6-    F715011   0.536   1.822   0.284  0.4402  0.5236  0.1222
 1004PF6-    P115012   2.261   1.238   0.990  0.6541  0.1439  0.4070
 1004PF6-    F215013   2.294   1.170   1.130  0.0247  0.0368  0.2261
 1004PF6-    F315014   2.217   1.301   0.846 -0.4414 -0.1555 -0.5548
 1004PF6-    F415015   2.338   1.372   1.024 -0.0247  0.5277  0.2755
 1004PF6-    F515016   2.177   1.102   0.957 -0.8248 -0.6116 -0.6508
 1004PF6-    F615017   2.131   1.306   1.053  0.0249 -0.4638 -0.1538
 1004PF6-    F715018   2.388   1.166   0.919  0.3488 -0.1462 -0.3048
 1005PF6-    P115019   3.721   4.864   3.179 -0.3350 -0.5965 -0.3822
 1005PF6-    F215020   3.837   4.758   3.147 -0.1342 -0.2580  0.2220
 1005PF6-    F315021   3.611   4.970   3.224  0.2052 -0.3129  0.6613
 1005PF6-    F415022   3.832   4.983   3.197 -0.3906 -0.0945 -0.0523
 1005PF6-    F515023   3.607   4.749   3.152  0.1686  0.3856 -0.3303
 1005PF6-    F615024   3.725   4.809   3.328  0.3764 -0.0451  0.2603
 1005PF6-    F715025   3.709   4.908   3.030 -0.1186 -0.0991  0.1573
 1006PF6-    P115026   4.591   1.949   5.004  0.3151 -0.3294 -0.0945
 1006PF6-    F215027   4.505   2.083   5.025 -0.0908  0.2891  0.0239
 1006PF6-    F315028   4.682   1.820   4.996  0.0385 -0.2933  0.1830
 1006PF6-    F415029   4.547   1.906   5.147 -0.0552 -0.3831 -0.9644
 1006PF6-    F515030   4.632   1.995   4.856 -0.0636 -0.6781 -0.0827
 1006PF6-    F615031   4.719   2.030   5.068  0.0618 -0.2696 -0.0527
 1006PF6-    F715032   4.465   1.875   4.943  0.0077 -0.1839  0.4881
 1007PF6-    P115033   1.507   3.746   1.210  0.2779 -0.0693  0.0378
 1007PF6-    F215034   1.644   3.789   1.277  0.1140  0.4114 -0.0343
 1007PF6-    F315035   1.376   3.699   1.127  0.0140 -0.1490  0.3504
 1007PF6-    F415036   1.471   3.900   1.176  0.1796  0.4835 -0.1131
 1007PF6-    F515037   1.549   3.588   1.239  0.0712  0.3200  0.2088
 1007PF6-    F615038   1.430   3.753   1.349  0.1556  1.0279 -0.0744
 1007PF6-    F715039   1.590   3.731   1.075 -0.2096 -0.4211  0.0172
 1008PF6-    P115040   3.785   3.732   4.734  0.0278 -0.1547  0.0342
 1008PF6-    F215041   3.846   3.595   4.783  0.3003  0.3786  0.1051
 1008PF6-    F315042   3.734   3.876   4.678 -0.6815 -0.3381 -0.0305
 1008PF6-    F415043   3.835   3.797   4.863  0.5955  0.0547  0.2835
 1008PF6-    F515044   3.732   3.654   4.603 -0.2029  0.2782  0.1661
 1008PF6-    F615045   3.645   3.703   4.805  0.3440 -0.4219 -0.1341
 1008PF6-    F715046   3.925   3.759   4.661  0.2726 -0.1287  0.2851
 1009PF6-    P115047   3.794   0.251   4.689  0.6553 -0.3204  0.2618
 1009PF6-    F215048   3.801   0.300   4.840  0.1868  0.3805 -0.1322
 1009PF6-    F315049   3.781   0.201   4.538  0.1625 -0.2061  0.2507
 1009PF6-    F415050   3.630   0.281   4.694  0.5442  0.5237 -0.3009
 1009PF6-    F515051   3.954   0.230   4.692 -0.1793  0.3290  0.3624
 1009PF6-    F615052   3.771   0.097   4.741 -0.4637  0.1642 -0.4497
 1009PF6-    F715053   3.824   0.398   4.634 -0.1245 -0.5875  0.3360
 1010PF6-    P115054   1.147   2.852   4.762 -0.0830  0.0205  0.2067
 1010PF6-    F215055   1.079   2.708   4.729 -0.0914 -0.2029 -0.3048
 1010PF6-    F315056   1.221   2.993   4.788 -0.6539  0.0826  0.3750
 1010PF6-    F415057   1.087   2.849   4.907 -0.0698  0.5492  0.6566
 1010PF6-    F515058   1.216   2.846   4.621 -0.1184  0.1294 -0.2272
 1010PF6-    F615059   1.016   2.924   4.707 -0.1026  0.1211 -0.5068
 1010PF6-    F715060   1.272   2.770   4.825  0.0756  0.6864  0.2943
 1011PF6-    P115061   5.338   0.190   1.242  0.0186 -0.0971 -0.3901
 1011PF6-    F215062   5.441   0.252   1.344  0.7151 -0.1137  0.1246
 1011PF6-    F315063   5.230   0.125   1.138 -0.2184  0.3853 -0.4093
 1011PF6-    F415064   5.430   0.233   1.125  0.0143 -0.1898  0.1624
 1011PF6-    F515065   5.248   0.142   1.360 -0.0398 -0.5237 -0.4134
 1011PF6-    F615066   5.257   0.335   1.241  0.3171  0.0845  0.1806
 1011PF6-    F715067   5.414   0.055   1.255  0.6842 -0.2642 -0.2870
 1012PF6-    P115068   1.107   0.547   2.890 -0.5030  0.0168 -0.5227
 1012PF6-    F215069   1.090   0.408   2.810  0.2528 -0.4464 -0.3865
 1012PF6-    F315070   1.140   0.675   2.967 -0.2331  0.0436 -0.2883
 1012PF6-    F415071   1.241   0.570   2.807 -0.3375 -0.0837  0.2957
 1012PF6-    F515072   0.967   0.536   2.969  0.4775 -0.1749  0.2200
 1012PF6-    F615073   1.188   0.469   3.003  0.1994 -0.0168  0.4931
 1012PF6-    F715074   1.035   0.635   2.777  0.1663  0.1967 -0.4955
 1013PF6-    P115075   2.667   1.581   2.480  0.0109 -0.5664 -0.0594
 1013PF6-    F215076   2.594   1.713   2.425 -0.1122 -0.4564  0.1544
 1013PF6-    F315077   2.736   1.449   2.534 -0.0077 -0.0621  0.1115
 1013PF6-    F415078   2.775   1.676   2.549 -0.4211  0.7241  0.2157
 1013PF6-    F515079   2.547   1.485   2.420 -0.0129  0.1277 -0.0832
 1013PF6-    F615080   2.763   1.578   2.349  0.4098 -0.0320 -0.0613
 1013PF6-    F715081   2.577   1.599   2.611  0.0188  0.4115  0.0642
 1014PF6-    P115082   3.741   2.226   4.536  0.0983  0.3039  0.0019
 1014PF6-    F215083   3.677   2.119   4.633 -0.2095 -0.2206 -0.1848
 1014PF6-    F315084   3.807   2.340   4.446  0.2472  0.1560  0.2864
 1014PF6-    F415085   3.865   2.132   4.494 -0.1803 -0.0737  0.4323
 1014PF6-    F515086   3.625   2.328   4.577 -0.2431  0.5957  0.1057
 1014PF6-    F615087   3.832   2.276   4.657 -0.1995  0.6231 -0.0477
 1014PF6-    F715088   3.658   2.176   4.406 -0.1676  0.5929 -0.2634
 1015PF6-    P115089   4.270   2.546   3.009 -0.3414 -0.3553  0.2079
 1015PF6-    F215090   4.223   2.422   2.914 -0.3442 -0.5337 -0.0078
 1015PF6-    F315091   4.309   2.665   3.101 -0.1025  0.1053  0.1147
 1015PF6-    F415092   4.121   2.600   3.005 -0.1152 -0.2730 -0.3428
 1015PF6-    F515093   4.420   2.492   3.007 -0.1063 -0.0972  0.2198
 1015PF6-    F615094   4.299   2.635   2.873 -0.3090 -0.1607  0.1755
 1015PF6-    F715095   4.232   2.461   3.137  0.2451 -0.3627 -0.0697
 1016PF6-    P115096   0.175   0.302   4.816  0.0720  0.1184  0.6687
 1016PF6-    F215097   0.101   0.328   4.949  0.2797 -0.2842 -0.0328
 1016PF6-    F315098   0.246   0.276   4.680 -0.2257 -0.2669 -0.1423
 1016PF6-    F415099   0.173   0.461   4.777  0.5152 -0.0136 -0.2764
 1016PF6-    F515100   0.177   0.147   4.853  0.3635  0.5848 -0.6046
 1016PF6-    F615101   0.030   0.288   4.744  0.5415 -0.1391 -0.2509
 1016PF6-    F715102   0.321   0.308   4.890  0.3858 -0.0691  0.4686
 1017PF6-    P115103   2.251   2.346   0.516  0.2549 -0.2738  0.1713
 1017PF6-    F215104   2.256   2.454   0.637 -0.3201  0.6142  0.1350
 1017PF6-    F315105   2.253   2.247   0.392 -0.2625 -0.4462 -0.1021
 1017PF6-    F415106   2.121   2.421   0.460  0.2174  0.2610  0.2947
 1017PF6-    F515107   2.378   2.263   0.574  0.4626 -0.1642  0.6572
 1017PF6-    F615108   2.154   2.248   0.598 -0.3579  0.1748 -0.0933
 1017PF6-    F715109   2.355   2.446   0.436  0.0580  0.2057 -0.0003
 1018PF6-    P115110   3.401   3.957   2.227  0.1489 -0.5197  0.0313
 1018PF6-    F215111   3.275   3.894   2.148  0.5670  0.1428  0.3316
 1018PF6-    F315112   3.522   4.023   2.306 -0.1608 -0.4181  0.3460
 1018PF6-    F415113   3.376   3.861   2.354  0.3282  0.0088 -0.0430
 1018PF6-    F515114   3.427   4.066   2.116 -0.0693 -0.3234 -0.1201
 1018PF6-    F615115   3.296   4.061   2.293  0.1566 -0.5508  0.3856
 1018PF6-    F715116   3.503   3.859   2.160  0.0556 -0.1139  0.3739
 1019PF6-    P115117   4.645   3.481   4.274  0.1172  0.0576  0.0718
 1019PF6-    F215118   4.608   3.641   4.269 -0.6999  0.3034  0.1643
 1019PF6-    F315119   4.671   3.326   4.283 -0.7658 -0.0328 -0.6007
 1019PF6-    F415120   4.497   3.447   4.236 -0.3721 -0.8354 -0.2503
 1019PF6-    F515121   4.803   3.510   4.309  0.1091  0.0367 -0.0066
 1019PF6-    F615122   4.610   3.483   4.429  0.1122  0.0235  0.3478
 1019PF6-    F715123   4.686   3.489   4.117 -0.1079 -0.4099  0.3516
 1020PF6-    P115124   3.579   1.693   1.821  0.0990  0.0677 -0.5378
 1020PF6-    F215125   3.553   1.730   1.671 -0.1777  0.1284  0.0003
 1020PF6-    F315126   3.601   1.664   1.977  0.4147  0.0839  0.7849
 1020PF6-    F415127   3.463   1.587   1.816 -0.3544  0.1243  0.1080
 1020PF6-    F515128   3.704   1.792   1.828  0.4644 -0.7738  0.0903
 1020PF6-    F615129   3.466   1.805   1.866  0.1294  0.3312  0.4353
 1020PF6-    F715130   3.678   1.580   1.772  0.0255  0.3483  0.2645
 1021PF6-    P115131   2.490   4.009   3.221 -0.5626  0.5043  0.2568
 1021PF6-    F215132   2.501   4.157   3.270  0.5702 -0.0333  0.0786
 1021PF6-    F315133   2.475   3.856   3.187 -0.1248  0.3610  0.2736
 1021PF6-    F415134   2.390   3.986   3.345 -0.3402 -0.4124  0.3504
 1021PF6-    F515135   2.596   4.037   3.099  0.1228 -0.5527 -0.0364
 1021PF6-    F615136   2.615   3.972   3.314  0.4911  0.4474 -0.1591
 1021PF6-    F715137   2.365   4.043   3.130 -0.1857 -0.0442  0.2692
 1022PF6-    P115138   3.339   4.635   1.450 -0.1714  0.3334 -0.0072
 1022PF6-    F215139   3.319   4.512   1.343  0.6210 -0.8017 -0.0822
 1022PF6-    F315140   3.362   4.753   1.556 -0.2727 -0.3708 -0.1728
 1022PF6-    F415141   3.364   4.532   1.573  0.0217  0.1707 -0.1714
 1022PF6-    F515142   3.313   4.741   1.333  0.3232  0.1050 -0.2960
 1022PF6-    F615143   3.186   4.631   1.486 -0.1615  0.1247  0.5525
 1022PF6-    F715144   3.494   4.640   1.423 -0.1912  0.0575  0.4449
 1023PF6-    P115145   0.493   3.311   1.103 -0.2879 -0.1699 -0.3747
 1023PF6-    F215146   0.393   3.288   0.978 -0.3179 -0.1622 -0.1411
 1023PF6-    F315147   0.596   3.335   1.222 -0.1642 -0.3725  0.1761
 1023PF6-    F415148   0.592   3.197   1.048  0.1655 -0.2712  0.0149
 1023PF6-    F515149   0.394   3.426   1.164 -0.1463 -0.1599 -0.1081
 1023PF6-    F615150   0.410   3.201   1.188 -0.3115  0.1553 -0.2661
 1023PF6-    F715151   0.571   3.417   1.015  0.0711 -0.6646  0.3883
 1024PF6-    P115152   5.400   3.603   4.850 -0.1272 -0.5779 -0.3567
 1024PF6-    F215153   5.314   3.736   4.820 -0.5435  0.4875  0.0138
 1024PF6-    F315154   5.482   3.472   4.878 -0.4025  0.2065  0.1173
 1024PF6-    F415155   5.391   3.565   4.695 -0.2147 -0.2556 -0.4045
 1024PF6-    F515156   5.418   3.645   5.002  0.3133 -0.2298  0.6195
 1024PF6-    F615157   5.267   3.517   4.875 -0.8196 -0.1565  0.5520
 1024PF6-    F715158   5.525   3.687   4.814 -0.6579  0.0161  0.8985
 1025PF6-    P115159   4.445   2.003   1.368  0.2824 -0.1297  0.6960
 1025PF6-    F215160   4.348   2.078   1.471 -0.5793  0.0199  0.5497
 1025PF6-    F315161   4.544   1.918   1.267  0.0470  0.7264  0.1906
 1025PF6-    F415162   4.316   1.945   1.284  0.2220  0.0049 -0.7139
 1025PF6-    F515163   4.567   2.053   1.452 -0.1599  0.0370 -0.3216
 1025PF6-    F615164   4.443   1.877   1.466 -0.8962 -0.2168  0.4425
 1025PF6-    F715165   4.448   2.125   1.271 -0.5760 -0.2774 -0.2203
 1026PF6-    P115166   4.200   3.818   3.339  0.3185 -0.0511 -0.1792
 1026PF6-    F215167   4.143   3.669   3.368  0.2975  0.2265  0.0446
 1026PF6-    F315168   4.259   3.968   3.316  0.2691 -0.3665  0.4298
 1026PF6-    F415169   4.309   3.745   3.241 -0.4268 -0.0904 -0.3545
 1026PF6-    F515170   4.089   3.873   3.432  0.4505  0.0270 -0.1137
 1026PF6-    F615171   4.298   3.806   3.464  0.7567  0.8418 -0.2210
 1026PF6-    F715172   4.103   3.833   3.210  0.3091 -0.5038 -0.1075
 1027PF6-    P115173   5.424   4.042   3.856 -0.0932  0.3256 -0.0602
 1027PF6-    F215174   5.463   3.993   3.709  0.1649  0.5420 -0.0237
 1027PF6-    F315175   5.383   4.090   4.008 -0.0048  0.1985 -0.8210
 1027PF6-    F415176   5.574   4.026   3.904  0.1246 -0.6062 -0.2054
 1027PF6-    F515177   5.272   4.049   3.807  0.5146 -0.8394  0.3748
 1027PF6-    F615178   5.396   3.891   3.910  0.0480 -0.2828  0.0274
 1027PF6-    F715179   5.454   4.193   3.808  0.0047 -0.1515  0.1461
 1028PF6-    P115180   2.247   0.687   4.087 -0.1421 -0.0953 -0.1664
 1028PF6-    F215181   2.377   0.623   4.144 -0.3035 -0.0804 -0.4069
 1028PF6-    F315182   2.104   0.744   4.027 -0.4583  0.2287 -0.0992
 1028PF6-    F415183   2.331   0.801   4.007  0.2271 -0.3609 -0.4409
 1028PF6-    F515184   2.164   0.580   4.173 -0.1803 -0.5851 -0.3950
 1028PF6-    F615185   2.240   0.786   4.213 -0.6139  0.3690 -0.4780
 1028PF6-    F715186   2.268   0.587   3.964 -0.2381 -0.0249  0.4189
 1029PF6-    P115187   4.313   4.284   1.796 -0.6917 -0.3018  0.1862
 1029PF6-    F215188   4.337   4.307   1.640  0.3365  0.0501 -0.2278
 1029PF6-    F315189   4.287   4.268   1.954 -0.1996 -0.1232  0.4401
 1029PF6-    F415190   4.164   4.344   1.779 -0.1163 -0.5804  0.0184
 1029PF6-    F515191   4.461   4.224   1.806  0.3359  0.0570 -0.8865
 1029PF6-    F615192   4.368   4.431   1.831  0.0094 -0.0590  0.4375
 1029PF6-    F715193   4.254   4.140   1.764  0.1423 -0.2108  0.4241
 1030PF6-    P115194   0.132   1.471   2.002  0.1423  0.2245 -0.4695
 1030PF6-    F215195   0.195   1.572   1.894  0.9464  0.6011 -0.0110
 1030PF6-    F315196   0.051   1.382   2.110 -0.4852  0.0724  0.2192
 1030PF6-    F415197   0.011   1.435   1.903 -0.6672  0.0454  0.1053
 1030PF6-    F515198   0.249   1.512   2.105 -0.1801  0.2923 -0.5929
 1030PF6-    F615199   0.044   1.598   2.052 -0.2816  0.7282  0.4869
 1030PF6-    F715200   0.221   1.346   1.943  0.5508  0.1728 -0.2378
 1031PF6-    P115201   1.086   2.719   1.081  0.1889  0.3337 -0.0793
 1031PF6-    F215202   0.995   2.687   0.956  0.3318  1.0039  0.0426
 1031PF6-    F315203   1.168   2.756   1.212 -0.7199  0.2950  0.4633
 1031PF6-    F415204   0.981   2.665   1.179  0.6262  0.0994 -0.4596
 1031PF6-    F515205   1.200   2.771   0.982  0.2221  0.2862 -0.4271
 1031PF6-    F615206   1.025   2.869   1.089  0.2108 -0.4258  0.0079
 1031PF6-    F715207   1.158   2.574   1.077  0.6934  0.1442 -0.1137
 1032PF6-    P115208   3.078   1.551   4.056 -0.1164 -0.1843  0.0332
 1032PF6-    F215209   3.012   1.412   4.030 -0.4386  0.4036  0.3252
 1032PF6-    F315210   3.147   1.694   4.087 -0.4127  0.1153 -0.5716
 1032PF6-    F415211   2.951   1.594   4.136  0.1937  0.3218  0.2257
 1032PF6-    F515212   3.214   1.500   3.978  0.2472 -0.0580 -0.0602
 1032PF6-    F615213   3.021   1.610   3.913  0.5392 -0.5699  0.4106
 1032PF6-    F715214   3.134   1.494   4.196 -0.4166  0.5018  0.0204
 1033PF6-    P115215   2.268   2.527   2.282 -0.1842 -0.4826  0.4358
 1033PF6-    F215216   2.199   2.480   2.145  0.8831 -0.0887  0.7096
 1033PF6-    F315217   2.338   2.578   2.414 -0.2586 -0.1430 -0.1905
 1033PF6-    F415218   2.294   2.669   2.215 -0.0565 -0.2368  0.4683
 1033PF6-    F515219   2.237   2.382   2.349  0.2633 -0.3067 -0.4283
 1033PF6-    F615220   2.405   2.462   2.228 -0.3122 -0.2713 -0.0293
 1033PF6-    F715221   2.119   2.578   2.335  0.3415  0.4930 -0.1346
 1034PF6-    P115222   1.151   4.697   3.209 -0.0275  0.0365 -0.4023
 1034PF6-    F215223   1.059   4.605   3.303 -0.4098 -0.0056 -0.1935
 1034PF6-    F315224   1.239   4.783   3.113  0.8365  0.1391  0.3908
 1034PF6-    F415225   1.019   4.775   3.157  0.0652  0.3757  0.4168
 1034PF6-    F515226   1.279   4.625   3.272 -0.0475  0.3864 -0.5125
 1034PF6-    F615227   1.135   4.590   3.087  0.1254 -0.9460  0.1303
 1034PF6-    F715228   1.163   4.810   3.320 -0.4821  0.4844 -0.0640
 1035PF6-    P115229   3.951   1.657   2.912  0.0859  0.9660 -0.1288
 1035PF6-    F215230   4.002   1.634   3.063 -0.2382  0.3435 -0.2513
 1035PF6-    F315231   3.905   1.691   2.759 -0.2623  0.2503 -0.1301
 1035PF6-    F415232   3.978   1.506   2.873  0.1171 -0.3637  0.4564
 1035PF6-    F515233   3.937   1.809   2.953  0.4554 -0.0484 -0.3632
 1035PF6-    F615234   4.099   1.683   2.863 -0.4712  0.0656  0.1648
 1035PF6-    F715235   3.798   1.633   2.954  0.0650 -0.8417 -0.0106
 1036PF6-    P115236   1.159   2.117   1.866 -0.2395 -0.5850 -0.2129
 1036PF6-    F215237   1.160   1.993   1.972 -0.0473 -0.4533  0.0908
 1036PF6-    F315238   1.161   2.246   1.767  0.0939 -0.2218 -0.0078
 1036PF6-    F415239   1.011   2.159   1.916  0.0679 -0.0593 -0.0854
 1036PF6-    F515240   1.306   2.075   1.814 -0.0646 -0.1568  0.5524
 1036PF6-    F615241   1.092   2.020   1.752 -0.2047 -0.1956  0.2530
 1036PF6-    F715242   1.226   2.213   1.977 -0.2934 -0.4359 -0.6414
 1037PF6-    P115243   2.145   0.580   2.697 -0.1775  0.2173 -0.2306
 1037PF6-    F215244   2.284   0.590   2.784 -0.0827  0.0645 -0.9516
 1037PF6-    F315245   2.011   0.575   2.604 -0.0423  0.4683 -0.2369
 1037PF6-    F415246   2.227   0.639   2.573 -0.3861 -0.0059 -0.0921
 1037PF6-    F515247   2.070   0.512   2.820 -0.1646  0.0723 -0.3170
 1037PF6-    F615248   2.097   0.723   2.744 -0.4155  0.0860  0.4176
 1037PF6-    F715249   2.189   0.438   2.643 -0.3987  0.3166 -0.1030
 1038PF6-    P115250   1.185   4.066   4.109 -0.3996  0.5400  0.3200
 1038PF6-    F215251   1.184   4.145   4.255 -0.6135  0.4738 -0.1008
 1038PF6-    F315252   1.191   3.990   3.967  0.5207  0.3852 -0.2318
 1038PF6-    F415253   1.234   4.199   4.030  0.1647  0.5957 -0.1135
 1038PF6-    F515254   1.144   3.943   4.195  0.1223  0.2139 -0.3567
 1038PF6-    F615255   1.029   4.109   4.086  0.3938  0.0703 -0.3377
 1038PF6-    F715256   1.337   4.022   4.134 -0.0009 -0.3155  0.2854
 1039PF6-    P115257   2.620   5.409   4.569 -0.0516  0.0504  0.1410
 1039PF6-    F215258   2.753   5.503   4.588  0.0272  0.3699 -0.2171
 1039PF6-    F315259   2.495   5.305   4.555 -0.4452  0.2367  0.1257
 1039PF6-    F415260   2.650   5.351   4.718  0.1049 -0.2503 -0.3860
 1039PF6-    F515261   2.599   5.462   4.415 -0.2581  0.0560  0.3158
 1039PF6-    F615262   2.719   5.300   4.518  0.0837 -0.0876  0.2046
 1039PF6-    F715263   2.536   5.534   4.633  0.3943  0.1859  0.1802
 1040PF6-    P115264   5.371   4.402   4.765 -0.3424 -0.0735 -0.4744
 1040PF6-    F215265   5.417   4.496   4.648  0.1513 -0.1856  0.0751
 1040PF6-    F315266   5.320   4.306   4.887  0.6619  1.0643  0.3102
 1040PF6-    F415267   5.217   4.443   4.733 -0.0569 -0.3344 -0.5276
 1040PF6-    F515268   5.524   4.372   4.797 -0.0650 -0.2545 -0.0777
 1040PF6-    F615269   5.370   4.524   4.865  0.0703 -0.3272 -0.6641
 1040PF6-    F715270   5.362   4.289   4.653  0.3415 -0.0486  0.3349
 1041Na+     N115271   4.604   1.279   0.514 -0.9251 -0.1663  0.1228
 1042Na+     N115272   2.250   2.949   0.080 -0.0227 -0.1405 -0.5455
 1043Na+     N115273   0.741   3.956   1.312  0.1378 -0.4089 -0.3610
 1044Na+     N115274   1.280   3.481   4.952 -0.3306 -0.7467 -0.2674
 1045Na+     N115275   3.931   3.861   2.633  0.2751 -0.0713  0.1247
 1046Na+     N115276   1.707   5.121   0.608  0.1651  0.0323 -0.6968
 1047Na+     N115277   3.093   4.132   4.613 -0.0770 -0.5944  0.2029
 1048Na+     N115278   4.828   2.360   1.139  0.5020 -0.0049  0.1360
 1049Na+     N115279   2.191   5.003   3.594 -0.5400  0.5785 -0.0456
 1050Na+     N115280   0.155   4.583   2.401 -0.1784  0.2198  0.0556
 1051Na+     N115281   2.203   3.536   1.238  0.0253  0.2721  0.4258
 1052Na+     N115282   0.573   2.861   4.272  0.4343  0.2344 -0.2994
 1053Na+     N115283   3.030   4.434   3.308  0.3522  0.0615 -0.3421
 1054Na+     N115284   4.263   1.092   2.710  0.0425 -0.3565 -0.2377
 1055Na+     N115285   0.474   5.412   4.351 -0.0362 -0.1533  0.4337
 1056Na+     N115286   0.063   0.724   5.264 -0.2750  0.0487 -0.1581
 1057Na+     N115287   4.446   2.336   1.841 -0.0673 -0.2870  0.3457
 1058Na+     N115288   3.697   0.713   0.292 -0.1545  0.5286  0.3010
 1059Na+     N115289   0.254   3.538   3.552 -0.3008  0.4779  0.6387
 1060Na+     N115290   4.363   5.206   3.201  0.0607  0.3494 -0.2664
 1061Na+     N115291   1.028   1.372   2.941 -0.5732  0.1846  0.3610
 1062Na+     N115292   0.803   2.282   3.033  0.1927 -0.4689  0.0448
 1063Na+     N115293   0.509   4.369   4.322  0.0794 -0.3279 -0.1685
 1064Na+     N115294   5.189   1.429   2.542 -0.4425 -0.0872 -0.5633
 1065Na+     N115295   2.621   2.214   2.841 -0.0030 -0.2213  0.3003
 1066Na+     N115296   3.987   0.063   5.418 -0.0808  0.1957 -0.5229
 1067Na+     N115297   2.521   3.196   3.887 -0.1216 -0.3550  0.0712
 1068Na+     N115298   4.164   1.874   2.974 -0.1038  0.0692  0.1135
 1069Na+     N115299   1.090   0.665   4.226  0.1522  0.2274 -0.2787
 1070Na+     N115300   2.361   0.905   3.384  0.3391 -0.3290  0.2759
 1071Na+     N115301   3.763   2.652   5.117 -0.0449  0.4260  0.1199
 1072Na+     N115302   3.993   3.396   3.964  0.2429 -0.1119  0.1323
 1073Na+     N115303   4.544   4.609   1.841  0.3535 -0.2675 -0.5243
 1074Na+     N115304   2.265   0.014   3.156  0.3169  0.4037  0.2532
 1075Na+     N115305   4.923   1.929   3.845 -0.0550 -0.2656  0.5528
 1076Na+     N115306   3.427   5.456   1.271 -0.1804  0.6151 -0.3554
 1077Na+     N115307   5.377   3.783   4.166 -0.2499 -0.3775 -0.2854
 1078Na+     N115308   3.086   3.962   1.063  0.0119  0.1083 -0.1001
 1079Na+     N115309   1.762   2.648   0.901  0.0729  0.2159 -0.0045
 1080Na+     N115310   4.237   2.193   4.456  0.8704 -0.1542 -0.2078
 1081Na+     N115311   5.246   2.848   1.688  0.0331  0.5572 -0.1271
 1082Na+     N115312   3.956   4.519   3.183  0.1988 -0.5494 -0.1467
 1083Na+     N115313   2.552   2.228   4.302 -0.0737 -0.3516  0.1025
 1084Na+     N115314   2.496   0.060   1.802 -0.3227  0.0089  0.1883
 1085Na+     N115315   3.722   4.147   1.718  0.1942  0.0364 -0.4575
 1086Na+     N115316   1.610   0.020   2.743  0.1984  0.4157 -0.3313
 1087Na+     N115317   2.042   1.760   0.901  0.1469  0.1820  0.0737
 1088Na+     N115318   3.095   5.222   3.571 -0.2907 -0.4505  0.2338
 1089Na+     N115319   3.128   0.369   4.305  0.2647  0.1741 -0.2872
 1090Na+     N115320   2.939   1.991   1.623  0.2179 -0.1770 -0.1253
 1091Na+     N115321   0.876   2.109   0.714  0.2517  0.0998  0.4443
 1092Na+     N115322   0.522   2.110   2.045 -0.1810 -0.3807  0.0078
 1093Na+     N115323   5.129   0.502   1.555 -0.0080  0.3773  0.1920
 1094Na+     N115324   3.499   2.093   3.775 -0.2964 -0.0820 -0.1316
 1095Na+     N115325   4.870   3.023   3.195  0.3040 -0.0080 -0.2069
 1096Na+     N115326   3.507   0.975   2.061  0.0696 -0.4575  0.2855
 1097Na+     N115327   5.358   3.541   5.268  0.1922 -0.3036  0.2107
 1098Na+     N115328   4.769   4.570   4.856 -0.0367 -0.0906 -0.0753
 1099Na+     N115329   0.181   1.376   1.288  0.2424  0.0010 -0.2864
 1100Na+     N115330   2.023   3.205   2.452 -0.2790 -0.2254 -0.0127
 1101Na+     N115331   0.129   0.250   3.270 -0.7562  0.5418 -0.1307
 1102Na+     N115332   1.688   2.374   4.590 -0.4351 -0.6870  0.1296
 1103Na+     N115333   3.214   1.129   3.399  0.3704 -0.2344  0.0343
 1104Na+     N115334   3.722   2.690   3.335  0.2441 -0.2238  0.1682
 1105Na+     N115335   1.435   4.500   2.479 -0.0873  0.2178  0.2719
 1106Na+     N115336   1.978   0.722   4.863 -0.3769  0.6818  0.2270
 1107Na+     N115337   1.726   5.484   5.390  0.2361 -0.1376 -0.0921
 1108Na+     N115338   1.856   4.612   4.157  0.3567 -0.2021 -0.2443
 1109Na+     N115339   0.967   4.466   3.472 -0.3042  0.6929  0.6143
 1110Na+     N115340   5.144   4.718   4.101  0.0499  0.3468 -0.0314
 1111Na+     N115341   2.835   1.547   4.362  0.2392  0.0328  0.1214
 1112Na+     N115342   3.148   5.381   4.999 -0.1054 -0.3625 -0.0635
 1113Na+     N115343   1.638   0.749   2.333 -0.1344 -0.9423  0.4362
 1114Na+     N115344   5.490   0.615   2.372  0.8258 -0.3962  0.1529
 1115Na+     N115345   1.473   0.572   3.481  0.1652 -0.6350  0.4570
 1116Na+     N115346   5.254   1.987   0.360  0.2060  0.1483 -0.0060
 1117Na+     N115347   4.386   3.852   5.239 -0.4200 -0.0316  0.4953
 1118Na+     N115348   2.761   0.715   1.276  0.3459 -0.0914 -0.4550
 1119Na+     N115349   2.783   5.256   0.617 -0.0329  0.2153  0.5535
 1120Na+     N115350   1.975   0.985   0.403  0.1617  0.0416  0.5050
 1121Na+     N115351   4.823   3.319   2.301 -0.0825  0.2715  0.0120
 1122Na+     N115352   1.765   4.185   3.173 -0.1168  0.4099 -0.2463
 1123Na+     N115353   0.536   3.017   0.470 -0.4197 -0.6660 -0.1220
 1124Na+     N115354   2.017   4.325   5.413 -0.3534 -0.2395 -0.1110
 1125Na+     N115355   0.729   3.358   2.709  0.1636 -0.1116 -0.0771
 1126Na+     N115356   4.203   0.263   4.616 -0.0211 -1.2414 -0.2436
 1127Na+     N115357   3.165   0.013   2.476 -0.0604  0.5454  0.3960
 1128Na+     N115358   1.307   3.313   0.747  0.5435  0.4894 -0.4768
 1129Na+     N115359   0.253   4.732   0.824 -0.1883 -0.3566  0.2606
 1130Na+     N115360   4.186   1.447   1.584 -0.3978 -0.1811  0.2725
 1131Na+     N115361   0.893   2.318   5.197  0.0255  0.1507  0.1232
 1132Na+     N115362   2.111   4.092   1.417 -0.1829  0.0334  0.0088
 1133Na+     N115363   3.654   1.757   0.761  0.4972 -0.2028 -0.3355
 1134Na+     N115364   4.911   1.722   4.871 -0.5812 -0.4243 -0.4825
 1135Na+     N115365   1.966   4.103   0.803  0.2554  0.8595  0.5117
 1136Na+     N115366   1.404   1.826   5.254  0.1576  0.2485  0.4378
 1137Na+     N115367   1.666   2.433   2.075 -0.1174 -0.4738  0.0706
 1138Na+     N115368   2.419   4.688   1.821  0.1934 -0.2390  0.0459
 1139Na+     N115369   4.834   4.193   3.369 -0.0252  0.2701 -0.4376
 1140Na+     N115370   3.096   1.850   5.215  0.2543  0.1311  0.3247
   5.49633   5.49633   5.49633
